Protein in INSANE! Membrane UpperLeaflet>POPC=1.0 LowerLeaflet>POPC=1.0
248675
    1AU     AUC    1  38.166   8.352   7.526
    1AU     AUC    2  38.410   8.347   7.358
    1AU     AUC    3  38.412   8.355   7.692
    1AU     AUC    4  37.898   8.348   7.375
    1AU     AUC    5  37.925   8.395   7.697
    1AU     AUC    6  38.002   8.610   7.489
    1AU     AUC    7  38.338   8.612   7.484
    1AU     AUC    8  37.999   8.100   7.551
    1AU     AUC    9  38.326   8.082   7.549
    1AU     AUC   10  38.171   8.206   7.797
    1AU     AUC   11  38.178   8.548   7.759
    1AU     AUC   12  38.156   8.164   7.284
    1AU     AUC   13  38.167   8.469   7.255
    1AU     AUC   14  38.719   8.337   7.199
    1AU     AUC   15  38.731   8.332   7.543
    1AU     AUC   16  38.706   8.341   7.892
    1AU     AUC   17  37.597   8.305   7.241
    1AU     AUC   18  37.594   8.386   7.561
    1AU     AUC   19  37.634   8.447   7.880
    1AU     AUC   20  37.838   8.914   7.427
    1AU     AUC   21  38.194   8.904   7.404
    1AU     AUC   22  38.529   8.892   7.435
    1AU     AUC   23  37.807   7.803   7.579
    1AU     AUC   24  38.153   7.786   7.553
    1AU     AUC   25  38.502   7.785   7.560
    1AU     AUC   26  38.144   8.052   8.110
    1AU     AUC   27  38.170   8.403   8.091
    1AU     AUC   28  38.221   8.761   8.037
    1AU     AUC   29  38.189   7.970   7.004
    1AU     AUC   30  38.135   8.297   6.950
    1AU     AUC   31  38.116   8.611   6.931
    1AU     AUC   32  38.415   8.164   8.012
    1AU     AUC   33  38.460   8.522   7.982
    1AU     AUC   34  38.461   8.183   7.061
    1AU     AUC   35  38.411   8.480   7.062
    1AU     AUC   36  37.885   8.279   8.009
    1AU     AUC   37  37.923   8.628   7.952
    1AU     AUC   38  37.878   8.117   7.112
    1AU     AUC   39  37.828   8.438   7.072
    1AU     AUC   40  38.643   8.615   7.337
    1AU     AUC   41  38.608   8.605   7.673
    1AU     AUC   42  37.698   8.617   7.366
    1AU     AUC   43  37.755   8.710   7.687
    1AU     AUC   44  38.630   8.077   7.405
    1AU     AUC   45  38.576   8.034   7.747
    1AU     AUC   46  37.706   8.034   7.401
    1AU     AUC   47  37.736   8.132   7.732
    1AU     AUC   48  38.069   8.863   7.736
    1AU     AUC   49  38.379   8.824   7.751
    1AU     AUC   50  37.981   7.929   7.838
    1AU     AUC   51  38.284   7.873   7.824
    1AU     AUC   52  37.961   8.761   7.174
    1AU     AUC   53  38.324   8.786   7.183
    1AU     AUC   54  38.017   7.870   7.278
    1AU     AUC   55  38.383   7.919   7.276
    1AU    AUSL   56  38.691   8.283   8.297
    1AU    AUSL   57  38.423   7.891   8.232
    1AU     AUL   58  38.726   7.929   8.402
    1AU    AUSL   59  38.280   8.230   8.455
    1AU    AUSL   60  38.034   8.619   8.434
    1AU     AUL   61  38.274   8.535   8.713
    1AU    AUSL   62  38.369   8.577   8.174
    1AU    AUSL   63  38.820   8.649   8.097
    1AU     AUL   64  38.651   8.593   8.427
    1AU    AUSL   65  38.596   8.371   6.807
    1AU    AUSL   66  38.416   8.748   6.954
    1AU     AUL   67  38.672   8.695   6.683
    1AU    AUSL   68  38.389   8.042   6.601
    1AU    AUSL   69  38.911   8.136   6.987
    1AU     AUL   70  38.761   8.173   6.640
    1AU    AUSL   71  38.207   8.502   6.661
    1AU    AUSL   72  38.031   8.120   6.825
    1AU     AUL   73  38.124   8.168   6.486
    1AU    AUSL   74  37.643   8.569   8.227
    1AU    AUSL   75  37.989   8.874   8.086
    1AU     AUL   76  37.824   8.848   8.407
    1AU    AUSL   77  37.946   8.258   8.190
    1AU    AUSL   78  37.509   8.148   8.140
    1AU     AUL   79  37.499   8.334   8.327
    1AU    AUSL   80  37.589   8.093   6.815
    1AU    AUSL   81  37.851   7.765   6.983
    1AU     AUL   82  37.870   7.812   6.672
    1AU    AUSL   83  37.773   8.458   6.662
    1AU    AUSL   84  37.508   8.462   7.047
    1AU     AUL   85  37.371   8.312   6.805
    1AU    AUSL   86  38.947   8.836   7.462
    1AU    AUSL   87  38.782   8.575   7.137
    1AU     AUL   88  39.039   8.688   7.001
    1AU    AUSL   89  39.128   8.426   7.360
    1AU    AUSL   90  39.085   8.129   7.764
    1AU     AUL   91  39.360   8.213   7.579
    1AU    AUSL   92  38.860   8.485   7.709
    1AU    AUSL   93  38.627   8.872   7.757
    1AU     AUL   94  38.978   8.826   7.823
    1AU    AUSL   95  37.590   8.994   7.476
    1AU    AUSL   96  37.635   8.764   7.845
    1AU     AUL   97  37.319   9.003   7.693
    1AU    AUSL   98  37.397   8.597   7.438
    1AU    AUSL   99  37.523   8.894   7.066
    1AU     AUL  100  37.296   8.820   7.229
    1AU    AUSL  101  37.265   8.566   7.880
    1AU    AUSL  102  37.232   8.206   7.379
    1AU     AUL  103  37.084   8.546   7.567
    1AU    AUSL  104  38.853   7.778   7.619
    1AU    AUSL  105  38.688   8.074   7.926
    1AU     AUL  106  38.992   7.962   7.994
    1AU    AUSL  107  38.810   8.147   7.399
    1AU    AUSL  108  38.814   7.742   7.185
    1AU     AUL  109  39.063   7.953   7.282
    1AU    AUSL  110  37.407   7.838   7.599
    1AU    AUSL  111  37.596   8.032   7.234
    1AU     AUL  112  37.241   7.937   7.247
    1AU    AUSL  113  37.500   8.249   7.726
    1AU    AUSL  114  37.735   7.885   7.876
    1AU     AUL  115  37.412   7.886   7.934
    1AU    AUSL  116  38.252   9.161   7.891
    1AU    AUSL  117  37.794   9.175   7.818
    1AU     AUL  118  38.023   9.219   8.150
    1AU    AUSL  119  38.066   9.053   7.514
    1AU    AUSL  120  38.297   9.166   7.155
    1AU     AUL  121  38.058   9.402   7.457
    1AU    AUSL  122  38.504   9.210   7.531
    1AU    AUSL  123  38.518   8.975   8.169
    1AU     AUL  124  38.635   9.203   7.879
    1AU    AUSL  125  38.112   7.697   8.000
    1AU    AUSL  126  38.536   7.663   7.880
    1AU     AUL  127  38.294   7.598   8.253
    1AU    AUSL  128  37.806   7.490   7.733
    1AU    AUSL  129  37.861   7.864   8.307
    1AU     AUL  130  37.789   7.573   8.077
    1AU    AUSL  131  38.247   7.413   7.690
    1AU    AUSL  132  38.026   7.655   7.391
    1AU     AUL  133  37.943   7.293   7.504
    1AU    AUSL  134  38.121   8.995   6.769
    1AU    AUSL  135  38.689   9.005   7.170
    1AU     AUL  136  38.456   9.093   6.846
    1AU    AUSL  137  37.872   9.126   7.133
    1AU    AUSL  138  37.901   8.697   6.984
    1AU     AUL  139  37.793   8.968   6.782
    1AU    AUSL  140  38.248   7.596   7.005
    1AU    AUSL  141  37.614   7.590   7.312
    1AU     AUL  142  37.910   7.452   7.065
    1AU    AUSL  143  38.460   7.645   7.397
    1AU    AUSL  144  38.477   7.961   7.010
    1AU     AUL  145  38.570   7.614   6.982
    1AU       S  146  38.736   7.470   8.282
    1AU     LIG  147  38.895   7.025   8.294
    1AU     LIG  148  39.044   6.589   8.326
    1AU     LIG  149  39.388   6.405   8.578
    1AU       S  150  38.669   8.238   8.745
    1AU     LIG  151  39.024   8.517   8.863
    1AU     LIG  152  39.187   8.490   9.306
    1AU     LIG  153  39.086   8.377   9.766
    1AU       S  154  38.321   8.061   8.672
    1AU     LIG  155  38.385   8.057   9.137
    1AU     LIG  156  38.753   8.027   9.472
    1AU     LIG  157  38.988   7.874   9.865
    1AU       S  158  37.831   8.424   8.665
    1AU     LIG  159  37.804   8.355   9.132
    1AU     LIG  160  37.410   8.342   9.364
    1AU     LIG  161  37.162   8.418   9.750
    1AU       S  162  38.282   8.990   8.555
    1AU     LIG  163  38.550   9.290   8.751
    1AU     LIG  164  38.962   9.181   8.939
    1AU     LIG  165  39.333   8.927   9.047
    1AU       S  166  39.004   8.873   8.295
    1AU     LIG  167  39.338   8.882   8.545
    1AU     LIG  168  39.674   9.148   8.676
    1AU     LIG  169  39.857   9.453   8.968
    1AU       S  170  38.540   8.452   6.317
    1AU     LIG  171  38.840   8.461   5.954
    1AU     LIG  172  39.062   8.087   5.850
    1AU     LIG  173  38.950   7.664   5.743
    1AU       S  174  38.908   9.093   6.766
    1AU     LIG  175  38.953   9.545   6.723
    1AU     LIG  176  39.231   9.775   6.458
    1AU     LIG  177  39.478   9.802   6.093
    1AU       S  178  39.148   7.943   6.811
    1AU     LIG  179  39.182   7.870   6.329
    1AU     LIG  180  39.106   7.429   6.202
    1AU     LIG  181  39.202   6.967   6.297
    1AU       S  182  38.500   8.262   6.250
    1AU     LIG  183  38.542   7.993   5.914
    1AU     LIG  184  38.540   7.888   5.472
    1AU     LIG  185  38.907   7.759   5.211
    1AU       S  186  37.691   8.111   6.341
    1AU     LIG  187  37.972   8.273   6.022
    1AU     LIG  188  38.042   8.071   5.645
    1AU     LIG  189  37.722   7.788   5.444
    1AU       S  190  38.285   8.603   6.407
    1AU     LIG  191  38.280   8.664   5.941
    1AU     LIG  192  38.444   8.404   5.622
    1AU     LIG  193  38.852   8.290   5.424
    1AU       S  194  37.618   8.550   8.712
    1AU     LIG  195  37.397   8.165   8.843
    1AU     LIG  196  37.126   7.965   9.140
    1AU     LIG  197  37.095   7.935   9.590
    1AU       S  198  37.546   9.153   8.198
    1AU     LIG  199  37.293   9.362   8.465
    1AU     LIG  200  37.073   9.315   8.831
    1AU     LIG  201  37.117   9.400   9.281
    1AU       S  202  37.355   7.898   8.405
    1AU     LIG  203  36.964   7.763   8.177
    1AU     LIG  204  36.674   7.469   8.321
    1AU     LIG  205  36.451   7.286   8.696
    1AU       S  206  37.841   8.228   8.620
    1AU     LIG  207  37.853   7.902   8.920
    1AU     LIG  208  37.607   7.868   9.310
    1AU     LIG  209  37.568   8.045   9.757
    1AU       S  210  37.511   8.037   6.465
    1AU     LIG  211  37.365   7.650   6.306
    1AU     LIG  212  37.376   7.793   5.863
    1AU     LIG  213  37.540   8.229   5.692
    1AU       S  214  37.507   7.556   6.837
    1AU     LIG  215  37.520   7.170   6.610
    1AU     LIG  216  37.422   7.134   6.155
    1AU     LIG  217  37.048   7.339   5.986
    1AU       S  218  37.199   8.731   6.746
    1AU     LIG  219  36.901   9.045   6.879
    1AU     LIG  220  36.910   9.408   6.606
    1AU     LIG  221  36.987   9.534   6.158
    1AU       S  222  37.698   8.394   6.450
    1AU     LIG  223  37.548   8.594   6.114
    1AU     LIG  224  37.787   8.700   5.749
    1AU     LIG  225  37.989   8.522   5.382
    1AU       S  226  39.085   9.131   6.974
    1AU     LIG  227  39.419   9.104   6.697
    1AU     LIG  228  39.490   9.316   6.302
    1AU     LIG  229  39.836   9.431   6.007
    1AU       S  230  39.198   8.912   7.411
    1AU     LIG  231  39.520   9.090   7.212
    1AU     LIG  232  39.790   8.963   7.505
    1AU     LIG  233  40.101   9.201   7.525
    1AU       S  234  39.369   8.630   7.351
    1AU     LIG  235  39.726   8.634   7.087
    1AU     LIG  236  40.154   8.798   7.174
    1AU     LIG  237  40.325   9.187   7.021
    1AU       S  238  39.326   7.756   7.756
    1AU     LIG  239  39.652   7.853   8.026
    1AU     LIG  240  40.082   7.794   7.935
    1AU     LIG  241  40.199   7.594   7.567
    1AU       S  242  38.987   9.122   8.172
    1AU     LIG  243  39.397   9.308   8.259
    1AU     LIG  244  39.653   9.641   8.435
    1AU     LIG  245  39.687   9.909   8.821
    1AU       S  246  39.377   8.687   7.655
    1AU     LIG  247  39.489   8.846   8.038
    1AU     LIG  248  39.922   8.816   8.149
    1AU     LIG  249  40.291   8.978   7.948
    1AU       S  250  37.448   8.973   8.131
    1AU     LIG  251  37.232   8.837   8.480
    1AU     LIG  252  36.807   8.951   8.565
    1AU     LIG  253  36.574   9.211   8.823
    1AU       S  254  37.524   9.311   7.392
    1AU     LIG  255  37.262   9.649   7.298
    1AU     LIG  256  36.937   9.720   7.014
    1AU     LIG  257  36.541   9.489   6.972
    1AU       S  258  36.989   8.487   7.104
    1AU     LIG  259  36.544   8.493   7.148
    1AU     LIG  260  36.165   8.728   7.093
    1AU     LIG  261  36.116   9.188   7.044
    1AU       S  262  37.386   9.155   6.905
    1AU     LIG  263  37.413   9.570   6.797
    1AU     LIG  264  37.153   9.852   6.545
    1AU     LIG  265  36.891  10.035   6.188
    1AU       S  266  37.006   8.090   7.640
    1AU     LIG  267  36.689   8.040   7.360
    1AU     LIG  268  36.252   8.086   7.293
    1AU     LIG  269  35.854   7.905   7.372
    1AU       S  270  37.164   8.571   8.055
    1AU     LIG  271  36.812   8.528   8.287
    1AU     LIG  272  36.421   8.577   8.091
    1AU     LIG  273  36.382   8.516   7.638
    1AU       S  274  39.017   7.606   7.629
    1AU     LIG  275  39.189   7.183   7.517
    1AU     LIG  276  39.556   7.018   7.741
    1AU     LIG  277  39.740   7.423   7.720
    1AU       S  278  38.904   7.545   8.135
    1AU     LIG  279  39.231   7.311   8.011
    1AU     LIG  280  39.431   6.983   8.253
    1AU     LIG  281  39.613   6.856   8.665
    1AU       S  282  39.304   7.716   7.580
    1AU     LIG  283  39.456   7.560   7.245
    1AU     LIG  284  39.855   7.402   7.176
    1AU     LIG  285  40.259   7.233   6.995
    1AU       S  286  39.048   7.638   6.930
    1AU     LIG  287  39.037   7.244   6.721
    1AU     LIG  288  39.035   6.799   6.765
    1AU     LIG  289  39.042   6.465   6.434
    1AU       S  290  37.387   7.680   6.899
    1AU     LIG  291  37.067   7.834   6.700
    1AU     LIG  292  36.830   7.575   6.412
    1AU     LIG  293  36.524   7.210   6.394
    1AU       S  294  37.029   7.838   7.674
    1AU     LIG  295  36.741   7.488   7.627
    1AU     LIG  296  36.493   7.328   7.245
    1AU     LIG  297  36.049   7.438   7.090
    1AU       S  298  37.420   7.665   8.335
    1AU     LIG  299  37.292   7.418   7.936
    1AU     LIG  300  36.971   7.107   7.975
    1AU     LIG  301  36.743   6.962   8.396
    1AU       S  302  37.052   8.138   7.821
    1AU     LIG  303  36.666   8.129   7.996
    1AU     LIG  304  36.429   7.801   7.984
    1AU     LIG  305  36.126   8.055   7.784
    1AU       S  306  37.637   9.350   7.880
    1AU     LIG  307  37.154   9.385   7.965
    1AU     LIG  308  36.806   9.395   8.301
    1AU     LIG  309  36.708   9.682   8.669
    1AU       S  310  38.271   9.500   7.860
    1AU     LIG  311  38.497   9.522   8.245
    1AU     LIG  312  38.493   9.960   8.343
    1AU     LIG  313  38.145  10.250   8.255
    1AU       S  314  38.414   9.662   7.741
    1AU     LIG  315  38.122  10.013   7.750
    1AU     LIG  316  38.134  10.483   7.798
    1AU     LIG  317  38.131  10.939   7.984
    1AU       S  318  38.221   9.461   7.020
    1AU     LIG  319  38.259   9.846   7.272
    1AU     LIG  320  38.379  10.285   7.378
    1AU     LIG  321  38.663  10.560   7.143
    1AU       S  322  38.741   9.076   8.340
    1AU     LIG  323  38.969   9.474   8.511
    1AU     LIG  324  39.322   9.519   8.802
    1AU     LIG  325  39.404   9.412   9.236
    1AU       S  326  38.532   9.477   7.501
    1AU     LIG  327  38.735   9.923   7.486
    1AU     LIG  328  38.595  10.173   7.865
    1AU     LIG  329  38.532  10.560   8.128
    1AU       S  330  38.097   7.208   8.092
    1AU     LIG  331  38.413   6.888   8.189
    1AU     LIG  332  38.558   6.562   8.490
    1AU     LIG  333  38.561   6.121   8.681
    1AU       S  334  38.673   7.511   7.978
    1AU     LIG  335  38.767   7.125   7.813
    1AU     LIG  336  39.096   6.796   7.858
    1AU     LIG  337  39.475   6.526   8.049
    1AU       S  338  37.904   7.134   7.939
    1AU     LIG  339  37.997   6.681   7.956
    1AU     LIG  340  38.202   6.360   8.186
    1AU     LIG  341  38.070   6.226   8.598
    1AU       S  342  37.644   7.810   8.476
    1AU     LIG  343  37.388   7.636   8.836
    1AU     LIG  344  37.000   7.371   8.739
    1AU     LIG  345  36.810   6.974   8.903
    1AU       S  346  38.330   7.199   7.277
    1AU     LIG  347  38.101   6.841   7.055
    1AU     LIG  348  38.143   6.589   6.733
    1AU     LIG  349  38.398   6.240   6.713
    1AU       S  350  38.254   7.239   7.864
    1AU     LIG  351  38.363   6.853   7.650
    1AU     LIG  352  38.611   6.532   7.884
    1AU     LIG  353  38.703   6.167   8.191
    1AU       S  354  38.064   9.367   6.738
    1AU     LIG  355  38.038   9.848   6.773
    1AU     LIG  356  38.347  10.187   6.864
    1AU     LIG  357  38.507  10.588   6.662
    1AU       S  358  38.846   9.201   7.131
    1AU     LIG  359  39.189   9.558   7.192
    1AU     LIG  360  39.504   9.601   6.855
    1AU     LIG  361  39.813   9.644   6.511
    1AU       S  362  37.873   9.385   7.007
    1AU     LIG  363  37.758   9.763   7.196
    1AU     LIG  364  37.909  10.214   7.163
    1AU     LIG  365  38.139  10.619   7.048
    1AU       S  366  37.411   8.773   6.635
    1AU     LIG  367  37.315   9.141   6.405
    1AU     LIG  368  37.491   9.533   6.285
    1AU     LIG  369  37.390   9.928   6.084
    1AU       S  370  37.435   7.508   7.163
    1AU     LIG  371  36.966   7.544   7.143
    1AU     LIG  372  36.819   7.266   6.835
    1AU     LIG  373  37.021   7.090   6.463
    1AU       S  374  38.336   7.253   7.135
    1AU     LIG  375  38.553   7.081   6.791
    1AU     LIG  376  38.595   6.685   6.533
    1AU     LIG  377  38.583   6.316   6.245
    1AU       S  378  38.592   7.339   7.375
    1AU     LIG  379  38.764   6.948   7.312
    1AU     LIG  380  38.596   6.654   7.056
    1AU     LIG  381  38.841   6.348   6.901
    1AU       S  382  38.908   7.741   6.707
    1AU     LIG  383  38.650   7.505   6.476
    1AU     LIG  384  38.707   7.104   6.276
    1AU     LIG  385  38.827   6.723   6.024
    2AU     AUC  386  29.213  31.108   7.536
    2AU     AUC  387  29.457  31.095   7.366
    2AU     AUC  388  29.461  31.096   7.702
    2AU     AUC  389  28.943  31.114   7.386
    2AU     AUC  390  28.975  31.159   7.708
    2AU     AUC  391  29.059  31.373   7.503
    2AU     AUC  392  29.394  31.361   7.497
    2AU     AUC  393  29.035  30.863   7.560
    2AU     AUC  394  29.364  30.832   7.555
    2AU     AUC  395  29.215  30.959   7.806
    2AU     AUC  396  29.233  31.301   7.771
    2AU     AUC  397  29.195  30.924   7.292
    2AU     AUC  398  29.220  31.227   7.267
    2AU     AUC  399  29.768  31.075   7.205
    2AU     AUC  400  29.779  31.062   7.548
    2AU     AUC  401  29.755  31.071   7.897
    2AU     AUC  402  28.637  31.083   7.254
    2AU     AUC  403  28.642  31.163   7.575
    2AU     AUC  404  28.684  31.221   7.890
    2AU     AUC  405  28.908  31.683   7.442
    2AU     AUC  406  29.263  31.663   7.421
    2AU     AUC  407  29.596  31.637   7.457
    2AU     AUC  408  28.833  30.576   7.587
    2AU     AUC  409  29.178  30.544   7.558
    2AU     AUC  410  29.528  30.528   7.561
    2AU     AUC  411  29.187  30.802   8.116
    2AU     AUC  412  29.219  31.151   8.100
    2AU     AUC  413  29.282  31.506   8.053
    2AU     AUC  414  29.223  30.733   7.012
    2AU     AUC  415  29.182  31.061   6.959
    2AU     AUC  416  29.176  31.375   6.947
    2AU     AUC  417  29.460  30.906   8.018
    2AU     AUC  418  29.515  31.264   7.991
    2AU     AUC  419  29.503  30.934   7.067
    2AU     AUC  420  29.467  31.234   7.076
    2AU     AUC  421  28.932  31.042   8.022
    2AU     AUC  422  28.979  31.389   7.964
    2AU     AUC  423  28.915  30.889   7.122
    2AU     AUC  424  28.880  31.207   7.083
    2AU     AUC  425  29.702  31.352   7.351
    2AU     AUC  426  29.666  31.339   7.685
    2AU     AUC  427  28.756  31.390   7.380
    2AU     AUC  428  28.816  31.482   7.701
    2AU     AUC  429  29.664  30.814   7.406
    2AU     AUC  430  29.617  30.771   7.750
    2AU     AUC  431  28.736  30.811   7.415
    2AU     AUC  432  28.775  30.902   7.746
    2AU     AUC  433  29.134  31.619   7.753
    2AU     AUC  434  29.443  31.571   7.767
    2AU     AUC  435  29.017  30.689   7.845
    2AU     AUC  436  29.320  30.623   7.829
    2AU     AUC  437  29.025  31.526   7.190
    2AU     AUC  438  29.387  31.539   7.202
    2AU     AUC  439  29.040  30.638   7.286
    2AU     AUC  440  29.409  30.670   7.280
    2AU    AUSL  441  29.732  31.014   8.301
    2AU    AUSL  442  29.471  30.626   8.236
    2AU     AUL  443  29.780  30.673   8.405
    2AU    AUSL  444  29.318  30.965   8.455
    2AU    AUSL  445  29.087  31.363   8.447
    2AU     AUL  446  29.317  31.269   8.723
    2AU    AUSL  447  29.422  31.319   8.186
    2AU    AUSL  448  29.879  31.376   8.105
    2AU     AUL  449  29.700  31.317   8.441
    2AU    AUSL  450  29.648  31.126   6.826
    2AU    AUSL  451  29.485  31.507   6.974
    2AU     AUL  452  29.752  31.458   6.710
    2AU    AUSL  453  29.436  30.815   6.604
    2AU    AUSL  454  29.946  30.860   6.985
    2AU     AUL  455  29.825  30.957   6.654
    2AU    AUSL  456  29.264  31.270   6.680
    2AU    AUSL  457  29.075  30.885   6.828
    2AU     AUL  458  29.175  30.942   6.488
    2AU    AUSL  459  28.693  31.335   8.235
    2AU    AUSL  460  29.048  31.628   8.107
    2AU     AUL  461  28.884  31.602   8.426
    2AU    AUSL  462  28.984  31.014   8.194
    2AU    AUSL  463  28.550  30.913   8.162
    2AU     AUL  464  28.522  31.123   8.322
    2AU    AUSL  465  28.634  30.880   6.825
    2AU    AUSL  466  28.873  30.545   6.996
    2AU     AUL  467  28.916  30.584   6.675
    2AU    AUSL  468  28.830  31.237   6.670
    2AU    AUSL  469  28.557  31.247   7.056
    2AU     AUL  470  28.425  31.107   6.804
    2AU    AUSL  471  30.026  31.558   7.488
    2AU    AUSL  472  29.845  31.316   7.155
    2AU     AUL  473  30.120  31.448   7.040
    2AU    AUSL  474  30.180  31.139   7.367
    2AU    AUSL  475  30.133  30.845   7.749
    2AU     AUL  476  30.425  30.898   7.517
    2AU    AUSL  477  29.910  31.207   7.720
    2AU    AUSL  478  29.689  31.611   7.764
    2AU     AUL  479  30.020  31.582   7.835
    2AU    AUSL  480  28.663  31.773   7.491
    2AU    AUSL  481  28.697  31.539   7.858
    2AU     AUL  482  28.394  31.797   7.706
    2AU    AUSL  483  28.459  31.381   7.450
    2AU    AUSL  484  28.591  31.678   7.082
    2AU     AUL  485  28.363  31.609   7.245
    2AU    AUSL  486  28.317  31.361   7.885
    2AU    AUSL  487  28.269  30.998   7.409
    2AU     AUL  488  28.135  31.340   7.576
    2AU    AUSL  489  29.882  30.505   7.612
    2AU    AUSL  490  29.738  30.803   7.929
    2AU     AUL  491  30.039  30.687   7.986
    2AU    AUSL  492  29.847  30.877   7.397
    2AU    AUSL  493  29.828  30.470   7.180
    2AU     AUL  494  30.082  30.668   7.262
    2AU    AUSL  495  28.438  30.623   7.618
    2AU    AUSL  496  28.619  30.814   7.244
    2AU     AUL  497  28.257  30.717   7.295
    2AU    AUSL  498  28.546  31.030   7.751
    2AU    AUSL  499  28.771  30.654   7.889
    2AU     AUL  500  28.448  30.659   7.949
    2AU    AUSL  501  29.325  31.899   7.914
    2AU    AUSL  502  28.874  31.943   7.836
    2AU     AUL  503  29.099  31.967   8.174
    2AU    AUSL  504  29.141  31.816   7.530
    2AU    AUSL  505  29.378  31.929   7.174
    2AU     AUL  506  29.151  32.169   7.457
    2AU    AUSL  507  29.576  31.972   7.561
    2AU    AUSL  508  29.594  31.709   8.184
    2AU     AUL  509  29.703  31.945   7.907
    2AU    AUSL  510  29.145  30.455   8.004
    2AU    AUSL  511  29.564  30.402   7.875
    2AU     AUL  512  29.325  30.339   8.250
    2AU    AUSL  513  28.822  30.258   7.742
    2AU    AUSL  514  28.907  30.621   8.319
    2AU     AUL  515  28.823  30.334   8.084
    2AU    AUSL  516  29.258  30.163   7.695
    2AU    AUSL  517  29.045  30.420   7.400
    2AU     AUL  518  28.952  30.059   7.510
    2AU    AUSL  519  29.194  31.755   6.787
    2AU    AUSL  520  29.754  31.742   7.216
    2AU     AUL  521  29.533  31.849   6.877
    2AU    AUSL  522  28.952  31.890   7.148
    2AU    AUSL  523  28.960  31.464   6.999
    2AU     AUL  524  28.863  31.731   6.797
    2AU    AUSL  525  29.258  30.352   7.012
    2AU    AUSL  526  28.630  30.372   7.322
    2AU     AUL  527  28.917  30.223   7.073
    2AU    AUSL  528  29.477  30.390   7.402
    2AU    AUSL  529  29.503  30.709   7.011
    2AU     AUL  530  29.573  30.338   7.002
    2AU       S  531  29.771  30.222   8.273
    2AU     LIG  532  29.856  29.795   8.291
    2AU     LIG  533  29.838  29.549   8.637
    2AU     LIG  534  30.208  29.394   8.789
    2AU       S  535  29.684  30.951   8.761
    2AU     LIG  536  30.049  31.173   8.785
    2AU     LIG  537  30.230  31.245   9.197
    2AU     LIG  538  30.168  31.008   9.609
    2AU       S  539  29.332  30.794   8.658
    2AU     LIG  540  29.336  30.839   9.114
    2AU     LIG  541  29.715  30.777   9.414
    2AU     LIG  542  29.990  30.507   9.711
    2AU       S  543  28.873  31.165   8.662
    2AU     LIG  544  28.893  31.145   9.131
    2AU     LIG  545  28.496  31.094   9.364
    2AU     LIG  546  28.250  31.224   9.758
    2AU       S  547  29.348  31.724   8.563
    2AU     LIG  548  29.598  32.002   8.779
    2AU     LIG  549  29.960  31.829   8.940
    2AU     LIG  550  30.298  31.615   8.789
    2AU       S  551  30.083  31.556   8.304
    2AU     LIG  552  30.512  31.690   8.331
    2AU     LIG  553  30.554  32.033   8.629
    2AU     LIG  554  30.707  32.358   8.912
    2AU       S  555  29.596  31.231   6.337
    2AU     LIG  556  29.804  31.274   5.919
    2AU     LIG  557  29.925  30.908   5.676
    2AU     LIG  558  29.996  30.463   5.535
    2AU       S  559  29.991  31.858   6.832
    2AU     LIG  560  29.758  32.228   6.640
    2AU     LIG  561  30.002  32.534   6.376
    2AU     LIG  562  30.344  32.498   6.056
    2AU       S  563  30.121  30.610   6.786
    2AU     LIG  564  30.235  30.398   6.393
    2AU     LIG  565  30.231  29.983   6.231
    2AU     LIG  566  30.292  29.550   6.395
    2AU       S  567  29.564  31.021   6.266
    2AU     LIG  568  29.476  30.770   5.913
    2AU     LIG  569  29.520  30.659   5.451
    2AU     LIG  570  29.786  30.621   5.074
    2AU       S  571  28.740  30.887   6.357
    2AU     LIG  572  28.972  30.969   6.007
    2AU     LIG  573  29.050  30.787   5.615
    2AU     LIG  574  28.830  30.818   5.225
    2AU       S  575  29.360  31.371   6.435
    2AU     LIG  576  29.279  31.364   5.964
    2AU     LIG  577  29.433  31.158   5.581
    2AU     LIG  578  29.744  31.112   5.242
    2AU       S  579  28.673  31.300   8.718
    2AU     LIG  580  28.356  31.036   8.781
    2AU     LIG  581  28.209  30.754   9.057
    2AU     LIG  582  28.047  30.829   9.475
    2AU       S  583  28.623  31.921   8.213
    2AU     LIG  584  28.556  32.272   8.423
    2AU     LIG  585  28.270  32.147   8.757
    2AU     LIG  586  28.019  32.254   9.156
    2AU       S  587  28.422  30.678   8.434
    2AU     LIG  588  28.004  30.599   8.228
    2AU     LIG  589  27.814  30.179   8.120
    2AU     LIG  590  27.650  29.758   8.286
    2AU       S  591  28.859  30.986   8.616
    2AU     LIG  592  28.755  30.701   8.953
    2AU     LIG  593  28.585  30.580   9.356
    2AU     LIG  594  28.473  30.754   9.766
    2AU       S  595  28.556  30.815   6.473
    2AU     LIG  596  28.385  30.687   6.075
    2AU     LIG  597  28.547  30.857   5.697
    2AU     LIG  598  28.417  31.146   5.393
    2AU       S  599  28.528  30.398   6.859
    2AU     LIG  600  28.524  30.114   6.548
    2AU     LIG  601  28.257  29.897   6.256
    2AU     LIG  602  27.849  29.716   6.127
    2AU       S  603  28.254  31.531   6.764
    2AU     LIG  604  28.023  31.906   6.697
    2AU     LIG  605  28.165  32.203   6.413
    2AU     LIG  606  28.299  32.217   5.969
    2AU       S  607  28.760  31.177   6.458
    2AU     LIG  608  28.475  31.283   6.182
    2AU     LIG  609  28.663  31.364   5.801
    2AU     LIG  610  28.943  31.267   5.470
    2AU       S  611  30.188  31.883   7.137
    2AU     LIG  612  30.496  31.994   6.829
    2AU     LIG  613  30.481  32.069   6.363
    2AU     LIG  614  30.717  32.118   5.975
    2AU       S  615  30.328  31.569   7.492
    2AU     LIG  616  30.330  31.954   7.672
    2AU     LIG  617  30.737  32.165   7.751
    2AU     LIG  618  31.150  32.321   7.616
    2AU       S  619  30.462  31.365   7.420
    2AU     LIG  620  30.717  31.812   7.330
    2AU     LIG  621  31.168  31.917   7.289
    2AU     LIG  622  31.534  31.628   7.282
    2AU       S  623  30.357  30.468   7.733
    2AU     LIG  624  30.722  30.248   7.839
    2AU     LIG  625  31.116  30.379   7.845
    2AU     LIG  626  31.491  30.410   7.637
    2AU       S  627  30.056  31.846   8.201
    2AU     LIG  628  30.387  32.160   8.151
    2AU     LIG  629  30.531  32.511   8.423
    2AU     LIG  630  30.364  32.755   8.779
    2AU       S  631  30.368  31.298   7.775
    2AU     LIG  632  30.705  31.636   7.832
    2AU     LIG  633  31.170  31.734   7.769
    2AU     LIG  634  31.618  31.527   7.794
    2AU       S  635  28.527  31.753   8.143
    2AU     LIG  636  28.314  31.606   8.502
    2AU     LIG  637  27.911  31.787   8.614
    2AU     LIG  638  27.755  32.237   8.700
    2AU       S  639  28.631  32.103   7.421
    2AU     LIG  640  28.439  32.442   7.282
    2AU     LIG  641  28.115  32.239   7.119
    2AU     LIG  642  27.912  31.815   7.194
    2AU       S  643  28.050  31.280   7.115
    2AU     LIG  644  27.688  31.077   6.921
    2AU     LIG  645  27.253  31.204   6.836
    2AU     LIG  646  27.094  31.648   6.808
    2AU       S  647  28.468  31.942   6.920
    2AU     LIG  648  28.539  32.360   6.782
    2AU     LIG  649  28.367  32.659   6.498
    2AU     LIG  650  28.016  32.611   6.141
    2AU       S  651  28.054  30.895   7.699
    2AU     LIG  652  27.731  30.990   7.431
    2AU     LIG  653  27.332  30.874   7.251
    2AU     LIG  654  27.059  30.534   7.244
    2AU       S  655  28.211  31.392   8.055
    2AU     LIG  656  27.977  31.204   8.354
    2AU     LIG  657  27.551  31.406   8.335
    2AU     LIG  658  27.364  31.629   7.958
    2AU       S  659  30.041  30.331   7.622
    2AU     LIG  660  30.241  29.920   7.519
    2AU     LIG  661  30.616  29.759   7.718
    2AU     LIG  662  31.085  29.856   7.791
    2AU       S  663  29.929  30.277   8.130
    2AU     LIG  664  30.285  30.066   8.030
    2AU     LIG  665  30.675  29.886   8.212
    2AU     LIG  666  30.755  29.647   8.603
    2AU       S  667  30.329  30.415   7.538
    2AU     LIG  668  30.645  30.174   7.344
    2AU     LIG  669  31.094  30.153   7.359
    2AU     LIG  670  31.337  30.403   7.073
    2AU       S  671  30.034  30.356   6.901
    2AU     LIG  672  30.066  29.951   6.741
    2AU     LIG  673  30.007  29.514   6.832
    2AU     LIG  674  30.077  29.113   6.627
    2AU       S  675  28.383  30.499   6.916
    2AU     LIG  676  28.157  30.480   6.523
    2AU     LIG  677  27.860  30.216   6.312
    2AU     LIG  678  27.447  30.022   6.305
    2AU       S  679  28.041  30.665   7.723
    2AU     LIG  680  27.675  30.426   7.665
    2AU     LIG  681  27.435  30.141   7.378
    2AU     LIG  682  27.189  29.984   7.005
    2AU       S  683  28.457  30.436   8.346
    2AU     LIG  684  28.333  30.186   7.958
    2AU     LIG  685  28.128  29.783   7.951
    2AU     LIG  686  28.132  29.549   8.344
    2AU       S  687  28.099  30.943   7.867
    2AU     LIG  688  27.668  31.108   7.927
    2AU     LIG  689  27.336  30.830   7.786
    2AU     LIG  690  27.168  30.424   7.746
    2AU       S  691  28.724  32.133   7.908
    2AU     LIG  692  28.253  32.192   8.003
    2AU     LIG  693  28.084  32.465   8.357
    2AU     LIG  694  28.127  32.628   8.805
    2AU       S  695  29.359  32.261   7.906
    2AU     LIG  696  29.504  32.687   8.094
    2AU     LIG  697  29.228  32.971   8.331
    2AU     LIG  698  28.894  33.202   8.568
    2AU       S  699  29.192  32.367   7.886
    2AU     LIG  700  28.976  32.578   8.107
    2AU     LIG  701  28.887  32.968   7.934
    2AU     LIG  702  28.966  33.355   8.095
    2AU       S  703  29.275  32.225   6.994
    2AU     LIG  704  29.488  32.515   7.208
    2AU     LIG  705  29.500  32.953   7.201
    2AU     LIG  706  29.355  33.275   6.951
    2AU       S  707  29.821  31.794   8.364
    2AU     LIG  708  30.031  32.190   8.549
    2AU     LIG  709  30.206  32.275   8.932
    2AU     LIG  710  30.447  31.950   9.160
    2AU       S  711  29.535  32.333   7.677
    2AU     LIG  712  29.300  32.766   7.634
    2AU     LIG  713  29.380  33.170   7.854
    2AU     LIG  714  29.515  33.390   8.263
    2AU       S  715  29.114  29.954   8.095
    2AU     LIG  716  29.401  29.597   8.197
    2AU     LIG  717  29.369  29.259   8.517
    2AU     LIG  718  29.122  28.836   8.510
    2AU       S  719  29.696  30.242   7.970
    2AU     LIG  720  29.825  29.881   7.793
    2AU     LIG  721  30.151  29.606   7.911
    2AU     LIG  722  30.314  29.526   8.304
    2AU       S  723  28.909  29.887   7.942
    2AU     LIG  724  29.023  29.431   7.889
    2AU     LIG  725  28.834  29.005   7.935
    2AU     LIG  726  28.661  28.734   8.281
    2AU       S  727  28.688  30.551   8.490
    2AU     LIG  728  28.401  30.322   8.820
    2AU     LIG  729  28.069  29.982   8.685
    2AU     LIG  730  27.780  29.599   8.773
    2AU       S  731  29.338  29.957   7.279
    2AU     LIG  732  29.057  29.577   7.276
    2AU     LIG  733  28.978  29.163   7.061
    2AU     LIG  734  29.189  28.735   7.054
    2AU       S  735  29.268  29.982   7.867
    2AU     LIG  736  29.426  29.629   7.637
    2AU     LIG  737  29.564  29.280   7.816
    2AU     LIG  738  29.346  29.026   8.079
    2AU       S  739  29.146  32.108   6.732
    2AU     LIG  740  29.044  32.536   6.629
    2AU     LIG  741  29.321  32.906   6.604
    2AU     LIG  742  29.411  33.337   6.422
    2AU       S  743  29.918  31.950   7.165
    2AU     LIG  744  30.141  32.348   6.934
    2AU     LIG  745  30.469  32.497   6.624
    2AU     LIG  746  30.781  32.580   6.284
    2AU       S  747  28.953  32.147   7.015
    2AU     LIG  748  28.911  32.568   7.117
    2AU     LIG  749  28.694  32.870   6.871
    2AU     LIG  750  28.896  33.233   6.667
    2AU       S  751  28.469  31.565   6.650
    2AU     LIG  752  28.595  31.919   6.412
    2AU     LIG  753  28.694  32.342   6.279
    2AU     LIG  754  28.524  32.708   6.014
    2AU       S  755  28.449  30.299   7.156
    2AU     LIG  756  28.165  30.022   6.925
    2AU     LIG  757  27.914  29.784   6.634
    2AU     LIG  758  27.799  29.347   6.500
    2AU       S  759  29.321  29.976   7.126
    2AU     LIG  760  29.558  29.823   6.779
    2AU     LIG  761  29.567  29.376   6.621
    2AU     LIG  762  29.280  29.016   6.635
    2AU       S  763  29.597  30.076   7.390
    2AU     LIG  764  29.825  29.816   7.213
    2AU     LIG  765  29.561  29.449   7.143
    2AU     LIG  766  29.639  29.021   7.026
    2AU       S  767  29.834  30.497   6.671
    2AU     LIG  768  29.747  30.170   6.406
    2AU     LIG  769  29.802  29.727   6.333
    2AU     LIG  770  29.890  29.309   6.169
    3AU     AUC  771  13.239  29.030   7.521
    3AU     AUC  772  13.490  29.031   7.355
    3AU     AUC  773  13.482  29.030   7.690
    3AU     AUC  774  12.973  29.027   7.367
    3AU     AUC  775  12.995  29.072   7.690
    3AU     AUC  776  13.076  29.288   7.486
    3AU     AUC  777  13.411  29.290   7.485
    3AU     AUC  778  13.071  28.780   7.542
    3AU     AUC  779  13.400  28.760   7.543
    3AU     AUC  780  13.241  28.883   7.792
    3AU     AUC  781  13.246  29.225   7.757
    3AU     AUC  782  13.234  28.845   7.278
    3AU     AUC  783  13.249  29.151   7.252
    3AU     AUC  784  13.807  29.028   7.200
    3AU     AUC  785  13.806  29.012   7.535
    3AU     AUC  786  13.775  29.015   7.891
    3AU     AUC  787  12.673  28.984   7.227
    3AU     AUC  788  12.665  29.063   7.548
    3AU     AUC  789  12.697  29.122   7.870
    3AU     AUC  790  12.912  29.592   7.424
    3AU     AUC  791  13.269  29.585   7.410
    3AU     AUC  792  13.604  29.572   7.449
    3AU     AUC  793  12.878  28.484   7.567
    3AU     AUC  794  13.224  28.465   7.548
    3AU     AUC  795  13.572  28.461   7.553
    3AU     AUC  796  13.212  28.730   8.105
    3AU     AUC  797  13.234  29.076   8.086
    3AU     AUC  798  13.280  29.435   8.041
    3AU     AUC  799  13.271  28.650   6.997
    3AU     AUC  800  13.214  28.981   6.949
    3AU     AUC  801  13.205  29.298   6.936
    3AU     AUC  802  13.486  28.840   8.007
    3AU     AUC  803  13.523  29.196   7.985
    3AU     AUC  804  13.540  28.862   7.062
    3AU     AUC  805  13.505  29.172   7.072
    3AU     AUC  806  12.951  28.958   8.001
    3AU     AUC  807  12.986  29.303   7.946
    3AU     AUC  808  12.960  28.798   7.101
    3AU     AUC  809  12.912  29.117   7.063
    3AU     AUC  810  13.736  29.297   7.342
    3AU     AUC  811  13.678  29.277   7.682
    3AU     AUC  812  12.773  29.294   7.358
    3AU     AUC  813  12.822  29.386   7.679
    3AU     AUC  814  13.702  28.752   7.394
    3AU     AUC  815  13.652  28.711   7.737
    3AU     AUC  816  12.780  28.714   7.388
    3AU     AUC  817  12.804  28.811   7.721
    3AU     AUC  818  13.135  29.540   7.738
    3AU     AUC  819  13.444  29.503   7.758
    3AU     AUC  820  13.049  28.608   7.830
    3AU     AUC  821  13.357  28.553   7.820
    3AU     AUC  822  13.043  29.442   7.173
    3AU     AUC  823  13.408  29.469   7.192
    3AU     AUC  824  13.092  28.551   7.271
    3AU     AUC  825  13.456  28.595   7.270
    3AU    AUSL  826  13.755  28.962   8.289
    3AU    AUSL  827  13.505  28.566   8.228
    3AU     AUL  828  13.812  28.620   8.396
    3AU    AUSL  829  13.342  28.899   8.446
    3AU    AUSL  830  13.091  29.288   8.432
    3AU     AUL  831  13.330  29.200   8.705
    3AU    AUSL  832  13.430  29.251   8.174
    3AU    AUSL  833  13.883  29.338   8.102
    3AU     AUL  834  13.713  29.266   8.431
    3AU    AUSL  835  13.666  29.053   6.862
    3AU    AUSL  836  13.513  29.445   6.969
    3AU     AUL  837  13.729  29.385   6.678
    3AU    AUSL  838  13.492  28.755   6.596
    3AU    AUSL  839  13.992  28.801   6.976
    3AU     AUL  840  13.861  28.915   6.654
    3AU    AUSL  841  13.298  29.194   6.676
    3AU    AUSL  842  13.121  28.801   6.812
    3AU     AUL  843  13.226  28.853   6.483
    3AU    AUSL  844  12.701  29.241   8.218
    3AU    AUSL  845  13.047  29.545   8.086
    3AU     AUL  846  12.875  29.516   8.401
    3AU    AUSL  847  13.008  28.931   8.181
    3AU    AUSL  848  12.567  28.822   8.124
    3AU     AUL  849  12.578  28.994   8.321
    3AU    AUSL  850  12.682  28.778   6.798
    3AU    AUSL  851  12.937  28.450   6.974
    3AU     AUL  852  12.965  28.494   6.657
    3AU    AUSL  853  12.867  29.145   6.653
    3AU    AUSL  854  12.589  29.143   7.031
    3AU     AUL  855  12.465  28.991   6.778
    3AU    AUSL  856  14.023  29.510   7.502
    3AU    AUSL  857  13.931  29.299   7.095
    3AU     AUL  858  14.252  29.540   7.216
    3AU    AUSL  859  14.200  29.106   7.376
    3AU    AUSL  860  14.161  28.797   7.741
    3AU     AUL  861  14.451  28.842   7.520
    3AU    AUSL  862  13.923  29.151   7.726
    3AU    AUSL  863  13.677  29.550   7.763
    3AU     AUL  864  14.005  29.560   7.819
    3AU    AUSL  865  12.663  29.670   7.468
    3AU    AUSL  866  12.700  29.437   7.836
    3AU     AUL  867  12.389  29.682   7.680
    3AU    AUSL  868  12.471  29.275   7.421
    3AU    AUSL  869  12.605  29.576   7.056
    3AU     AUL  870  12.374  29.499   7.214
    3AU    AUSL  871  12.328  29.242   7.862
    3AU    AUSL  872  12.306  28.883   7.361
    3AU     AUL  873  12.156  29.221   7.549
    3AU    AUSL  874  13.921  28.453   7.607
    3AU    AUSL  875  13.767  28.747   7.920
    3AU     AUL  876  14.074  28.643   7.979
    3AU    AUSL  877  13.884  28.823   7.386
    3AU    AUSL  878  13.879  28.411   7.175
    3AU     AUL  879  14.124  28.620   7.253
    3AU    AUSL  880  12.482  28.516   7.582
    3AU    AUSL  881  12.671  28.712   7.216
    3AU     AUL  882  12.314  28.604   7.239
    3AU    AUSL  883  12.569  28.927   7.711
    3AU    AUSL  884  12.805  28.566   7.864
    3AU     AUL  885  12.485  28.548   7.912
    3AU    AUSL  886  13.307  29.841   7.903
    3AU    AUSL  887  12.855  29.848   7.818
    3AU     AUL  888  13.082  29.888   8.163
    3AU    AUSL  889  13.137  29.732   7.519
    3AU    AUSL  890  13.379  29.847   7.169
    3AU     AUL  891  13.121  30.079   7.464
    3AU    AUSL  892  13.569  29.904   7.553
    3AU    AUSL  893  13.572  29.651   8.179
    3AU     AUL  894  13.673  29.896   7.907
    3AU    AUSL  895  13.183  28.387   7.996
    3AU    AUSL  896  13.607  28.340   7.872
    3AU     AUL  897  13.361  28.280   8.248
    3AU    AUSL  898  12.872  28.171   7.728
    3AU    AUSL  899  12.919  28.540   8.300
    3AU     AUL  900  12.858  28.254   8.075
    3AU    AUSL  901  13.311  28.092   7.693
    3AU    AUSL  902  13.097  28.336   7.389
    3AU     AUL  903  13.008  27.975   7.507
    3AU    AUSL  904  13.212  29.677   6.776
    3AU    AUSL  905  13.776  29.697   7.207
    3AU     AUL  906  13.538  29.787   6.865
    3AU    AUSL  907  12.954  29.805   7.133
    3AU    AUSL  908  12.984  29.379   6.982
    3AU     AUL  909  12.882  29.648   6.777
    3AU    AUSL  910  13.321  28.260   7.007
    3AU    AUSL  911  12.689  28.270   7.293
    3AU     AUL  912  12.988  28.134   7.064
    3AU    AUSL  913  13.531  28.317   7.399
    3AU    AUSL  914  13.544  28.629   7.001
    3AU     AUL  915  13.636  28.260   7.004
    3AU       S  916  13.805  28.160   8.279
    3AU     LIG  917  13.982  27.772   8.417
    3AU     LIG  918  14.084  27.316   8.454
    3AU     LIG  919  14.496  27.089   8.486
    3AU       S  920  13.719  28.906   8.749
    3AU     LIG  921  14.083  28.957   9.006
    3AU     LIG  922  14.266  29.010   9.430
    3AU     LIG  923  14.347  28.996   9.899
    3AU       S  924  13.380  28.727   8.657
    3AU     LIG  925  13.395  28.726   9.106
    3AU     LIG  926  13.793  28.716   9.374
    3AU     LIG  927  14.145  28.540   9.641
    3AU       S  928  12.882  29.104   8.674
    3AU     LIG  929  12.800  29.031   9.141
    3AU     LIG  930  12.420  29.034   9.404
    3AU     LIG  931  12.177  29.085   9.819
    3AU       S  932  13.329  29.661   8.561
    3AU     LIG  933  13.578  29.973   8.745
    3AU     LIG  934  13.992  29.810   8.850
    3AU     LIG  935  14.236  29.455   8.970
    3AU       S  936  14.070  29.536   8.287
    3AU     LIG  937  14.423  29.572   8.514
    3AU     LIG  938  14.613  29.883   8.762
    3AU     LIG  939  14.787  30.221   9.047
    3AU       S  940  13.600  29.152   6.309
    3AU     LIG  941  13.865  29.212   5.935
    3AU     LIG  942  14.015  28.800   5.873
    3AU     LIG  943  13.981  28.376   5.715
    3AU       S  944  13.990  29.768   6.798
    3AU     LIG  945  13.853  29.932   6.407
    3AU     LIG  946  14.086  30.131   6.035
    3AU     LIG  947  14.523  30.296   5.918
    3AU       S  948  14.163  28.569   6.768
    3AU     LIG  949  14.152  28.503   6.281
    3AU     LIG  950  14.086  28.062   6.200
    3AU     LIG  951  14.244  27.699   6.460
    3AU       S  952  13.608  28.956   6.260
    3AU     LIG  953  13.601  28.555   6.108
    3AU     LIG  954  13.467  28.440   5.689
    3AU     LIG  955  13.656  28.506   5.275
    3AU       S  956  12.803  28.801   6.325
    3AU     LIG  957  13.028  28.658   5.949
    3AU     LIG  958  13.047  28.707   5.483
    3AU     LIG  959  12.739  28.691   5.125
    3AU       S  960  13.343  29.301   6.417
    3AU     LIG  961  13.154  29.137   6.055
    3AU     LIG  962  13.436  28.945   5.761
    3AU     LIG  963  13.783  28.975   5.454
    3AU       S  964  12.662  29.227   8.704
    3AU     LIG  965  12.433  28.848   8.803
    3AU     LIG  966  12.217  28.632   9.116
    3AU     LIG  967  12.118  28.643   9.564
    3AU       S  968  12.603  29.834   8.196
    3AU     LIG  969  12.460  30.181   8.438
    3AU     LIG  970  12.128  30.297   8.743
    3AU     LIG  971  11.739  30.114   8.926
    3AU       S  972  12.398  28.568   8.381
    3AU     LIG  973  11.996  28.487   8.166
    3AU     LIG  974  11.737  28.103   8.159
    3AU     LIG  975  11.659  27.759   8.471
    3AU       S  976  12.906  28.898   8.630
    3AU     LIG  977  12.860  28.574   8.938
    3AU     LIG  978  12.662  28.558   9.360
    3AU     LIG  979  12.611  28.740   9.784
    3AU       S  980  12.621  28.729   6.431
    3AU     LIG  981  12.558  28.429   6.077
    3AU     LIG  982  12.551  28.594   5.632
    3AU     LIG  983  12.360  28.941   5.367
    3AU       S  984  12.604  28.240   6.813
    3AU     LIG  985  12.596  27.796   6.751
    3AU     LIG  986  12.442  27.705   6.341
    3AU     LIG  987  12.245  27.953   5.981
    3AU       S  988  12.288  29.409   6.727
    3AU     LIG  989  11.990  29.698   6.889
    3AU     LIG  990  12.055  30.125   6.733
    3AU     LIG  991  12.182  30.361   6.364
    3AU       S  992  12.809  29.091   6.443
    3AU     LIG  993  12.621  29.210   6.084
    3AU     LIG  994  12.758  29.085   5.678
    3AU     LIG  995  12.821  29.195   5.228
    3AU       S  996  14.095  29.624   6.804
    3AU     LIG  997  14.480  29.736   6.606
    3AU     LIG  998  14.705  29.954   6.270
    3AU     LIG  999  15.062  30.149   6.036
    3AU       S 1000  14.415  29.458   7.652
    3AU     LIG 1001  14.536  29.852   7.598
    3AU     LIG 1002  14.978  29.874   7.634
    3AU     LIG 1003  15.368  30.063   7.587
    3AU       S 1004  14.461  29.297   7.572
    3AU     LIG 1005  14.785  29.532   7.284
    3AU     LIG 1006  15.269  29.566   7.245
    3AU     LIG 1007  15.761  29.470   7.163
    3AU       S 1008  14.388  28.409   7.732
    3AU     LIG 1009  14.661  28.286   8.047
    3AU     LIG 1010  15.111  28.239   8.041
    3AU     LIG 1011  15.389  28.377   7.733
    3AU       S 1012  14.032  29.806   8.202
    3AU     LIG 1013  14.431  30.026   8.280
    3AU     LIG 1014  14.649  30.359   8.542
    3AU     LIG 1015  14.606  30.675   8.880
    3AU       S 1016  14.321  29.225   7.860
    3AU     LIG 1017  14.651  29.571   8.056
    3AU     LIG 1018  15.117  29.648   8.067
    3AU     LIG 1019  15.419  29.559   7.733
    3AU       S 1020  12.508  29.647   8.119
    3AU     LIG 1021  12.252  29.555   8.462
    3AU     LIG 1022  11.843  29.754   8.568
    3AU     LIG 1023  11.390  29.792   8.717
    3AU       S 1024  12.598  29.995   7.383
    3AU     LIG 1025  12.324  30.358   7.403
    3AU     LIG 1026  11.954  30.387   7.161
    3AU     LIG 1027  11.640  30.066   7.090
    3AU       S 1028  12.072  29.165   7.081
    3AU     LIG 1029  11.638  29.190   6.963
    3AU     LIG 1030  11.293  29.450   7.114
    3AU     LIG 1031  11.365  29.751   7.441
    3AU       S 1032  12.472  29.834   6.888
    3AU     LIG 1033  12.577  30.222   6.713
    3AU     LIG 1034  12.340  30.590   6.804
    3AU     LIG 1035  11.877  30.644   6.713
    3AU       S 1036  12.077  28.768   7.626
    3AU     LIG 1037  11.792  28.754   7.301
    3AU     LIG 1038  11.371  28.789   7.165
    3AU     LIG 1039  10.983  28.595   7.307
    3AU       S 1040  12.221  29.231   8.055
    3AU     LIG 1041  11.829  29.276   8.284
    3AU     LIG 1042  11.480  29.551   8.257
    3AU     LIG 1043  11.266  29.788   7.965
    3AU       S 1044  14.077  28.282   7.619
    3AU     LIG 1045  14.183  27.848   7.503
    3AU     LIG 1046  14.474  27.602   7.725
    3AU     LIG 1047  14.839  27.813   7.910
    3AU       S 1048  13.975  28.232   8.133
    3AU     LIG 1049  14.268  27.968   8.002
    3AU     LIG 1050  14.461  27.634   8.242
    3AU     LIG 1051  14.463  27.570   8.696
    3AU       S 1052  14.362  28.349   7.521
    3AU     LIG 1053  14.658  28.025   7.467
    3AU     LIG 1054  15.106  28.035   7.446
    3AU     LIG 1055  15.422  28.236   7.148
    3AU       S 1056  14.089  28.313   6.880
    3AU     LIG 1057  14.312  27.948   7.014
    3AU     LIG 1058  14.120  27.563   6.934
    3AU     LIG 1059  13.963  27.286   6.616
    3AU       S 1060  12.469  28.375   6.876
    3AU     LIG 1061  12.219  28.396   6.525
    3AU     LIG 1062  11.959  28.058   6.395
    3AU     LIG 1063  11.596  27.771   6.427
    3AU       S 1064  12.095  28.532   7.663
    3AU     LIG 1065  11.703  28.381   7.701
    3AU     LIG 1066  11.409  28.306   7.350
    3AU     LIG 1067  11.222  27.952   7.091
    3AU       S 1068  12.475  28.350   8.321
    3AU     LIG 1069  12.261  28.052   8.061
    3AU     LIG 1070  12.003  27.647   8.098
    3AU     LIG 1071  11.700  27.290   8.230
    3AU       S 1072  12.127  28.811   7.805
    3AU     LIG 1073  11.711  28.915   7.921
    3AU     LIG 1074  11.391  28.771   7.678
    3AU     LIG 1075  11.154  28.422   7.796
    3AU       S 1076  12.728  30.021   7.866
    3AU     LIG 1077  12.316  30.188   7.931
    3AU     LIG 1078  11.980  30.253   8.251
    3AU     LIG 1079  11.563  30.187   8.411
    3AU       S 1080  13.307  30.183   7.875
    3AU     LIG 1081  13.514  30.217   8.258
    3AU     LIG 1082  13.366  30.646   8.269
    3AU     LIG 1083  12.934  30.817   8.322
    3AU       S 1084  13.419  30.362   7.761
    3AU     LIG 1085  13.004  30.591   7.795
    3AU     LIG 1086  12.846  31.037   7.880
    3AU     LIG 1087  12.868  31.459   8.120
    3AU       S 1088  13.286  30.150   7.026
    3AU     LIG 1089  13.228  30.522   7.263
    3AU     LIG 1090  13.383  30.865   7.070
    3AU     LIG 1091  13.335  31.256   6.926
    3AU       S 1092  13.796  29.754   8.356
    3AU     LIG 1093  13.992  30.187   8.513
    3AU     LIG 1094  14.267  30.245   8.885
    3AU     LIG 1095  14.366  29.920   9.212
    3AU       S 1096  13.580  30.190   7.536
    3AU     LIG 1097  13.660  30.679   7.485
    3AU     LIG 1098  13.392  30.915   7.775
    3AU     LIG 1099  13.294  31.154   8.126
    3AU       S 1100  13.165  27.886   8.098
    3AU     LIG 1101  13.530  27.589   8.180
    3AU     LIG 1102  13.671  27.153   8.110
    3AU     LIG 1103  13.496  26.750   8.261
    3AU       S 1104  13.743  28.197   7.976
    3AU     LIG 1105  13.803  27.823   7.828
    3AU     LIG 1106  14.021  27.511   7.988
    3AU     LIG 1107  14.323  27.170   8.012
    3AU       S 1108  12.966  27.812   7.940
    3AU     LIG 1109  12.981  27.355   7.912
    3AU     LIG 1110  13.101  26.902   7.851
    3AU     LIG 1111  13.213  26.423   7.938
    3AU       S 1112  12.693  28.492   8.471
    3AU     LIG 1113  12.425  28.263   8.797
    3AU     LIG 1114  12.153  27.914   8.577
    3AU     LIG 1115  12.058  27.427   8.579
    3AU       S 1116  13.398  27.872   7.286
    3AU     LIG 1117  13.380  27.396   7.135
    3AU     LIG 1118  13.328  26.958   7.120
    3AU     LIG 1119  13.349  26.528   6.945
    3AU       S 1120  13.312  27.925   7.876
    3AU     LIG 1121  13.379  27.550   7.656
    3AU     LIG 1122  13.560  27.151   7.572
    3AU     LIG 1123  13.580  26.748   7.762
    3AU       S 1124  13.148  30.046   6.740
    3AU     LIG 1125  13.058  30.497   6.721
    3AU     LIG 1126  13.188  30.916   6.563
    3AU     LIG 1127  13.251  31.231   6.210
    3AU       S 1128  13.941  29.874   7.101
    3AU     LIG 1129  14.417  29.981   7.061
    3AU     LIG 1130  14.718  30.191   6.747
    3AU     LIG 1131  14.763  30.473   6.357
    3AU       S 1132  12.954  30.064   7.012
    3AU     LIG 1133  12.748  30.457   7.132
    3AU     LIG 1134  12.838  30.888   6.975
    3AU     LIG 1135  12.839  31.259   6.720
    3AU       S 1136  12.501  29.459   6.621
    3AU     LIG 1137  12.398  29.836   6.388
    3AU     LIG 1138  12.633  30.187   6.200
    3AU     LIG 1139  12.678  30.621   6.378
    3AU       S 1140  12.513  28.184   7.118
    3AU     LIG 1141  12.137  27.995   6.917
    3AU     LIG 1142  12.041  27.638   6.673
    3AU     LIG 1143  11.987  27.505   6.225
    3AU       S 1144  13.394  27.902   7.150
    3AU     LIG 1145  13.635  27.712   6.838
    3AU     LIG 1146  13.436  27.350   6.627
    3AU     LIG 1147  13.242  26.924   6.602
    3AU       S 1148  13.659  27.997   7.390
    3AU     LIG 1149  13.796  27.581   7.331
    3AU     LIG 1150  13.843  27.163   7.125
    3AU     LIG 1151  13.738  26.847   6.808
    3AU       S 1152  13.867  28.447   6.665
    3AU     LIG 1153  13.639  28.108   6.502
    3AU     LIG 1154  13.740  27.681   6.331
    3AU     LIG 1155  14.047  27.410   6.082
    4AU     AUC 1156  25.609  40.609   7.520
    4AU     AUC 1157  25.860  40.611   7.352
    4AU     AUC 1158  25.852  40.609   7.688
    4AU     AUC 1159  25.342  40.605   7.366
    4AU     AUC 1160  25.366  40.649   7.689
    4AU     AUC 1161  25.444  40.866   7.485
    4AU     AUC 1162  25.779  40.869   7.484
    4AU     AUC 1163  25.443  40.357   7.539
    4AU     AUC 1164  25.772  40.340   7.540
    4AU     AUC 1165  25.612  40.459   7.789
    4AU     AUC 1166  25.615  40.802   7.756
    4AU     AUC 1167  25.604  40.426   7.276
    4AU     AUC 1168  25.617  40.730   7.252
    4AU     AUC 1169  26.174  40.608   7.198
    4AU     AUC 1170  26.177  40.595   7.536
    4AU     AUC 1171  26.144  40.597   7.889
    4AU     AUC 1172  25.041  40.563   7.228
    4AU     AUC 1173  25.036  40.639   7.550
    4AU     AUC 1174  25.073  40.697   7.868
    4AU     AUC 1175  25.279  41.171   7.425
    4AU     AUC 1176  25.637  41.164   7.409
    4AU     AUC 1177  25.972  41.152   7.447
    4AU     AUC 1178  25.252  40.061   7.561
    4AU     AUC 1179  25.597  40.043   7.542
    4AU     AUC 1180  25.948  40.042   7.546
    4AU     AUC 1181  25.584  40.302   8.099
    4AU     AUC 1182  25.605  40.653   8.086
    4AU     AUC 1183  25.650  41.012   8.040
    4AU     AUC 1184  25.643  40.236   6.995
    4AU     AUC 1185  25.587  40.563   6.945
    4AU     AUC 1186  25.572  40.878   6.933
    4AU     AUC 1187  25.855  40.418   8.002
    4AU     AUC 1188  25.892  40.773   7.983
    4AU     AUC 1189  25.913  40.447   7.058
    4AU     AUC 1190  25.870  40.750   7.066
    4AU     AUC 1191  25.325  40.530   8.000
    4AU     AUC 1192  25.358  40.879   7.946
    4AU     AUC 1193  25.329  40.381   7.099
    4AU     AUC 1194  25.280  40.699   7.063
    4AU     AUC 1195  26.100  40.879   7.342
    4AU     AUC 1196  26.045  40.858   7.679
    4AU     AUC 1197  25.141  40.873   7.359
    4AU     AUC 1198  25.193  40.964   7.681
    4AU     AUC 1199  26.076  40.337   7.396
    4AU     AUC 1200  26.023  40.291   7.735
    4AU     AUC 1201  25.150  40.293   7.388
    4AU     AUC 1202  25.178  40.384   7.721
    4AU     AUC 1203  25.505  41.118   7.738
    4AU     AUC 1204  25.813  41.080   7.757
    4AU     AUC 1205  25.425  40.179   7.826
    4AU     AUC 1206  25.728  40.127   7.812
    4AU     AUC 1207  25.409  41.022   7.173
    4AU     AUC 1208  25.774  41.047   7.192
    4AU     AUC 1209  25.462  40.132   7.264
    4AU     AUC 1210  25.829  40.180   7.266
    4AU    AUSL 1211  26.125  40.536   8.288
    4AU    AUSL 1212  25.859  40.150   8.212
    4AU     AUL 1213  26.161  40.186   8.388
    4AU    AUSL 1214  25.713  40.476   8.450
    4AU    AUSL 1215  25.462  40.864   8.431
    4AU     AUL 1216  25.701  40.773   8.717
    4AU    AUSL 1217  25.799  40.825   8.173
    4AU    AUSL 1218  26.250  40.914   8.104
    4AU     AUL 1219  26.077  40.842   8.430
    4AU    AUSL 1220  26.042  40.638   6.833
    4AU    AUSL 1221  25.876  41.020   6.967
    4AU     AUL 1222  26.124  40.963   6.685
    4AU    AUSL 1223  25.857  40.322   6.593
    4AU    AUSL 1224  26.363  40.392   6.978
    4AU     AUL 1225  26.226  40.469   6.645
    4AU    AUSL 1226  25.667  40.780   6.665
    4AU    AUSL 1227  25.493  40.389   6.811
    4AU     AUL 1228  25.598  40.448   6.476
    4AU    AUSL 1229  25.075  40.814   8.214
    4AU    AUSL 1230  25.419  41.124   8.086
    4AU     AUL 1231  25.250  41.094   8.400
    4AU    AUSL 1232  25.384  40.507   8.179
    4AU    AUSL 1233  24.951  40.388   8.131
    4AU     AUL 1234  24.926  40.588   8.305
    4AU    AUSL 1235  25.053  40.363   6.796
    4AU    AUSL 1236  25.305  40.037   6.968
    4AU     AUL 1237  25.347  40.081   6.652
    4AU    AUSL 1238  25.235  40.730   6.649
    4AU    AUSL 1239  24.956  40.724   7.031
    4AU     AUL 1240  24.835  40.582   6.775
    4AU    AUSL 1241  26.388  41.099   7.497
    4AU    AUSL 1242  26.275  40.864   7.115
    4AU     AUL 1243  26.593  41.090   7.151
    4AU    AUSL 1244  26.574  40.693   7.379
    4AU    AUSL 1245  26.533  40.385   7.748
    4AU     AUL 1246  26.830  40.440   7.535
    4AU    AUSL 1247  26.293  40.737   7.723
    4AU    AUSL 1248  26.046  41.129   7.764
    4AU     AUL 1249  26.373  41.131   7.829
    4AU    AUSL 1250  25.030  41.249   7.470
    4AU    AUSL 1251  25.071  41.015   7.837
    4AU     AUL 1252  24.758  41.257   7.685
    4AU    AUSL 1253  24.843  40.849   7.424
    4AU    AUSL 1254  24.972  41.156   7.058
    4AU     AUL 1255  24.741  41.078   7.219
    4AU    AUSL 1256  24.700  40.817   7.862
    4AU    AUSL 1257  24.675  40.458   7.371
    4AU     AUL 1258  24.525  40.794   7.549
    4AU    AUSL 1259  26.298  40.037   7.606
    4AU    AUSL 1260  26.137  40.327   7.916
    4AU     AUL 1261  26.442  40.230   7.986
    4AU    AUSL 1262  26.258  40.409   7.388
    4AU    AUSL 1263  26.260  40.000   7.173
    4AU     AUL 1264  26.505  40.216   7.263
    4AU    AUSL 1265  24.856  40.090   7.583
    4AU    AUSL 1266  25.037  40.293   7.215
    4AU     AUL 1267  24.682  40.183   7.250
    4AU    AUSL 1268  24.942  40.499   7.719
    4AU    AUSL 1269  25.184  40.135   7.861
    4AU     AUL 1270  24.863  40.120   7.917
    4AU    AUSL 1271  25.678  41.421   7.901
    4AU    AUSL 1272  25.224  41.427   7.818
    4AU     AUL 1273  25.452  41.471   8.155
    4AU    AUSL 1274  25.505  41.310   7.520
    4AU    AUSL 1275  25.745  41.425   7.168
    4AU     AUL 1276  25.494  41.657   7.468
    4AU    AUSL 1277  25.941  41.481   7.550
    4AU    AUSL 1278  25.938  41.227   8.179
    4AU     AUL 1279  26.041  41.469   7.907
    4AU    AUSL 1280  25.555  39.935   7.989
    4AU    AUSL 1281  25.978  39.920   7.863
    4AU     AUL 1282  25.745  39.853   8.243
    4AU    AUSL 1283  25.249  39.742   7.713
    4AU    AUSL 1284  25.309  40.111   8.295
    4AU     AUL 1285  25.233  39.817   8.064
    4AU    AUSL 1286  25.692  39.666   7.670
    4AU    AUSL 1287  25.471  39.916   7.377
    4AU     AUL 1288  25.391  39.550   7.481
    4AU    AUSL 1289  25.575  41.258   6.776
    4AU    AUSL 1290  26.142  41.277   7.195
    4AU     AUL 1291  25.887  41.353   6.856
    4AU    AUSL 1292  25.320  41.386   7.135
    4AU    AUSL 1293  25.351  40.958   6.983
    4AU     AUL 1294  25.249  41.229   6.779
    4AU    AUSL 1295  25.694  39.853   6.993
    4AU    AUSL 1296  25.061  39.851   7.286
    4AU     AUL 1297  25.351  39.718   7.045
    4AU    AUSL 1298  25.905  39.905   7.384
    4AU    AUSL 1299  25.923  40.220   7.001
    4AU     AUL 1300  26.008  39.865   6.977
    4AU       S 1301  26.191  39.738   8.256
    4AU     LIG 1302  26.303  39.321   8.310
    4AU     LIG 1303  26.276  38.883   8.412
    4AU     LIG 1304  26.191  38.675   8.842
    4AU       S 1305  26.103  40.484   8.740
    4AU     LIG 1306  26.340  40.857   8.898
    4AU     LIG 1307  26.479  40.844   9.347
    4AU     LIG 1308  26.489  40.601   9.754
    4AU       S 1309  25.749  40.303   8.653
    4AU     LIG 1310  25.762  40.400   9.106
    4AU     LIG 1311  26.104  40.384   9.447
    4AU     LIG 1312  26.295  40.105   9.796
    4AU       S 1313  25.261  40.663   8.645
    4AU     LIG 1314  25.286  40.631   9.105
    4AU     LIG 1315  24.872  40.551   9.290
    4AU     LIG 1316  24.589  40.662   9.647
    4AU       S 1317  25.707  41.229   8.569
    4AU     LIG 1318  25.975  41.483   8.817
    4AU     LIG 1319  26.390  41.451   8.991
    4AU     LIG 1320  26.757  41.229   9.107
    4AU       S 1321  26.437  41.113   8.295
    4AU     LIG 1322  26.693  41.267   8.593
    4AU     LIG 1323  26.866  41.627   8.758
    4AU     LIG 1324  27.215  41.781   9.043
    4AU       S 1325  25.987  40.735   6.312
    4AU     LIG 1326  26.190  40.844   5.902
    4AU     LIG 1327  26.475  40.596   5.656
    4AU     LIG 1328  26.435  40.170   5.491
    4AU       S 1329  26.326  41.406   6.781
    4AU     LIG 1330  26.271  41.673   6.434
    4AU     LIG 1331  26.532  41.722   6.051
    4AU     LIG 1332  26.879  41.986   5.892
    4AU       S 1333  26.561  40.151   6.792
    4AU     LIG 1334  26.814  39.819   6.575
    4AU     LIG 1335  26.761  39.429   6.358
    4AU     LIG 1336  26.828  38.980   6.473
    4AU       S 1337  25.979  40.543   6.246
    4AU     LIG 1338  26.132  40.284   5.923
    4AU     LIG 1339  25.925  40.104   5.551
    4AU     LIG 1340  25.798  40.199   5.113
    4AU       S 1341  25.173  40.381   6.325
    4AU     LIG 1342  25.434  40.269   5.969
    4AU     LIG 1343  25.425  40.243   5.501
    4AU     LIG 1344  25.305  40.411   5.093
    4AU       S 1345  25.737  40.891   6.419
    4AU     LIG 1346  25.527  40.760   6.051
    4AU     LIG 1347  25.778  40.578   5.716
    4AU     LIG 1348  26.066  40.570   5.354
    4AU       S 1349  25.049  40.787   8.699
    4AU     LIG 1350  24.724  40.501   8.750
    4AU     LIG 1351  24.517  40.247   9.036
    4AU     LIG 1352  24.447  40.183   9.475
    4AU       S 1353  24.972  41.406   8.195
    4AU     LIG 1354  24.794  41.739   8.411
    4AU     LIG 1355  24.587  41.738   8.803
    4AU     LIG 1356  24.390  41.998   9.125
    4AU       S 1357  24.819  40.146   8.398
    4AU     LIG 1358  24.385  40.166   8.525
    4AU     LIG 1359  24.004  39.922   8.425
    4AU     LIG 1360  23.754  39.534   8.520
    4AU       S 1361  25.260  40.469   8.606
    4AU     LIG 1362  25.090  40.199   8.933
    4AU     LIG 1363  24.919  40.038   9.309
    4AU     LIG 1364  24.906  40.245   9.717
    4AU       S 1365  24.985  40.298   6.447
    4AU     LIG 1366  24.765  40.214   6.087
    4AU     LIG 1367  24.976  40.387   5.736
    4AU     LIG 1368  24.902  40.601   5.357
    4AU       S 1369  24.963  39.859   6.804
    4AU     LIG 1370  24.709  39.638   6.503
    4AU     LIG 1371  24.448  39.494   6.176
    4AU     LIG 1372  24.097  39.496   5.898
    4AU       S 1373  24.652  41.000   6.730
    4AU     LIG 1374  24.362  41.338   6.808
    4AU     LIG 1375  24.321  41.734   6.581
    4AU     LIG 1376  24.164  41.879   6.162
    4AU       S 1377  25.171  40.663   6.430
    4AU     LIG 1378  24.868  40.754   6.155
    4AU     LIG 1379  25.043  40.895   5.774
    4AU     LIG 1380  25.370  40.761   5.493
    4AU       S 1381  26.424  41.294   6.789
    4AU     LIG 1382  26.668  41.341   6.397
    4AU     LIG 1383  27.013  41.593   6.201
    4AU     LIG 1384  27.356  41.899   6.065
    4AU       S 1385  26.757  41.101   7.589
    4AU     LIG 1386  26.750  41.494   7.721
    4AU     LIG 1387  27.167  41.637   7.759
    4AU     LIG 1388  27.478  41.608   7.429
    4AU       S 1389  26.827  40.902   7.542
    4AU     LIG 1390  27.221  41.156   7.436
    4AU     LIG 1391  27.651  41.148   7.270
    4AU     LIG 1392  28.030  41.367   7.134
    4AU       S 1393  26.767  40.002   7.752
    4AU     LIG 1394  27.084  39.755   7.978
    4AU     LIG 1395  27.498  39.670   7.872
    4AU     LIG 1396  27.632  39.820   7.471
    4AU       S 1397  26.398  41.392   8.198
    4AU     LIG 1398  26.784  41.628   8.214
    4AU     LIG 1399  27.052  41.948   8.378
    4AU     LIG 1400  26.956  42.128   8.775
    4AU       S 1401  26.710  40.822   7.835
    4AU     LIG 1402  27.075  41.140   7.955
    4AU     LIG 1403  27.526  41.242   7.846
    4AU     LIG 1404  27.912  41.222   8.097
    4AU       S 1405  24.871  41.220   8.129
    4AU     LIG 1406  24.464  41.348   8.298
    4AU     LIG 1407  24.158  41.549   8.586
    4AU     LIG 1408  23.947  41.813   8.918
    4AU       S 1409  24.965  41.574   7.389
    4AU     LIG 1410  24.657  41.847   7.188
    4AU     LIG 1411  24.213  41.751   7.100
    4AU     LIG 1412  24.025  41.313   7.219
    4AU       S 1413  24.453  40.736   7.079
    4AU     LIG 1414  24.041  40.624   7.048
    4AU     LIG 1415  23.707  40.848   7.125
    4AU     LIG 1416  23.485  41.213   7.148
    4AU       S 1417  24.843  41.418   6.900
    4AU     LIG 1418  24.904  41.823   6.742
    4AU     LIG 1419  24.583  42.161   6.729
    4AU     LIG 1420  24.149  42.234   6.565
    4AU       S 1421  24.441  40.342   7.634
    4AU     LIG 1422  24.173  40.204   7.289
    4AU     LIG 1423  23.721  40.221   7.269
    4AU     LIG 1424  23.344  40.215   7.005
    4AU       S 1425  24.587  40.821   8.043
    4AU     LIG 1426  24.266  40.705   8.324
    4AU     LIG 1427  24.006  41.077   8.351
    4AU     LIG 1428  24.007  41.502   8.091
    4AU       S 1429  26.459  39.880   7.618
    4AU     LIG 1430  26.575  39.497   7.429
    4AU     LIG 1431  26.835  39.192   7.614
    4AU     LIG 1432  27.191  39.178   7.924
    4AU       S 1433  26.355  39.807   8.107
    4AU     LIG 1434  26.643  39.529   7.961
    4AU     LIG 1435  26.825  39.304   8.279
    4AU     LIG 1436  26.649  39.131   8.681
    4AU       S 1437  26.749  39.957   7.539
    4AU     LIG 1438  26.936  39.787   7.167
    4AU     LIG 1439  27.377  39.678   7.037
    4AU     LIG 1440  27.833  39.793   6.970
    4AU       S 1441  26.477  39.879   6.933
    4AU     LIG 1442  26.597  39.461   6.900
    4AU     LIG 1443  26.541  39.030   6.899
    4AU     LIG 1444  26.414  38.668   6.633
    4AU       S 1445  24.830  39.968   6.879
    4AU     LIG 1446  24.527  40.114   6.623
    4AU     LIG 1447  24.196  39.841   6.462
    4AU     LIG 1448  23.870  39.524   6.371
    4AU       S 1449  24.468  40.111   7.681
    4AU     LIG 1450  24.422  39.782   7.419
    4AU     LIG 1451  23.990  39.710   7.267
    4AU     LIG 1452  23.667  39.596   7.575
    4AU       S 1453  24.861  39.921   8.326
    4AU     LIG 1454  24.455  39.829   8.136
    4AU     LIG 1455  24.144  39.480   8.181
    4AU     LIG 1456  24.063  39.025   8.332
    4AU       S 1457  24.505  40.385   7.818
    4AU     LIG 1458  24.180  40.261   8.066
    4AU     LIG 1459  23.818  40.083   7.952
    4AU     LIG 1460  23.510  40.322   7.767
    4AU       S 1461  25.079  41.601   7.877
    4AU     LIG 1462  24.638  41.708   7.916
    4AU     LIG 1463  24.329  41.892   8.208
    4AU     LIG 1464  24.267  42.080   8.621
    4AU       S 1465  25.700  41.779   7.880
    4AU     LIG 1466  26.119  41.923   8.091
    4AU     LIG 1467  26.050  42.264   8.370
    4AU     LIG 1468  25.619  42.493   8.308
    4AU       S 1469  25.734  41.989   7.736
    4AU     LIG 1470  25.305  42.079   7.958
    4AU     LIG 1471  25.183  42.500   8.048
    4AU     LIG 1472  25.498  42.835   7.865
    4AU       S 1473  25.660  41.726   7.031
    4AU     LIG 1474  25.719  42.126   7.229
    4AU     LIG 1475  26.066  42.404   7.137
    4AU     LIG 1476  26.250  42.606   6.795
    4AU       S 1477  26.163  41.327   8.362
    4AU     LIG 1478  26.344  41.721   8.553
    4AU     LIG 1479  26.497  41.956   8.909
    4AU     LIG 1480  26.748  41.762   9.252
    4AU       S 1481  25.949  41.782   7.556
    4AU     LIG 1482  26.162  42.209   7.633
    4AU     LIG 1483  26.002  42.525   7.934
    4AU     LIG 1484  26.017  42.790   8.333
    4AU       S 1485  25.560  39.460   8.077
    4AU     LIG 1486  25.865  39.093   8.125
    4AU     LIG 1487  25.838  38.649   8.286
    4AU     LIG 1488  25.996  38.218   8.462
    4AU       S 1489  26.116  39.765   7.959
    4AU     LIG 1490  26.203  39.379   7.792
    4AU     LIG 1491  26.455  39.033   7.930
    4AU     LIG 1492  26.766  38.815   8.188
    4AU       S 1493  25.362  39.383   7.916
    4AU     LIG 1494  25.367  38.951   7.715
    4AU     LIG 1495  25.537  38.530   7.820
    4AU     LIG 1496  25.544  38.221   8.146
    4AU       S 1497  25.086  40.034   8.471
    4AU     LIG 1498  24.729  39.849   8.792
    4AU     LIG 1499  24.327  39.604   8.680
    4AU     LIG 1500  24.086  39.201   8.809
    4AU       S 1501  25.789  39.457   7.261
    4AU     LIG 1502  25.708  38.999   7.096
    4AU     LIG 1503  25.655  38.560   6.861
    4AU     LIG 1504  25.672  38.129   6.691
    4AU       S 1505  25.706  39.485   7.838
    4AU     LIG 1506  25.828  39.099   7.611
    4AU     LIG 1507  26.044  38.742   7.773
    4AU     LIG 1508  26.050  38.332   7.964
    4AU       S 1509  25.509  41.635   6.746
    4AU     LIG 1510  25.474  42.109   6.756
    4AU     LIG 1511  25.764  42.460   6.703
    4AU     LIG 1512  26.070  42.549   6.332
    4AU       S 1513  26.279  41.461   7.119
    4AU     LIG 1514  26.646  41.713   7.027
    4AU     LIG 1515  26.748  41.815   6.600
    4AU     LIG 1516  27.005  42.107   6.386
    4AU       S 1517  25.324  41.638   7.012
    4AU     LIG 1518  25.194  41.996   7.159
    4AU     LIG 1519  25.272  42.446   7.234
    4AU     LIG 1520  25.488  42.826   7.072
    4AU       S 1521  24.869  41.044   6.620
    4AU     LIG 1522  24.715  41.415   6.410
    4AU     LIG 1523  24.721  41.838   6.253
    4AU     LIG 1524  24.534  42.240   6.201
    4AU       S 1525  24.868  39.770   7.099
    4AU     LIG 1526  24.420  39.679   6.923
    4AU     LIG 1527  24.248  39.341   6.651
    4AU     LIG 1528  24.150  39.077   6.259
    4AU       S 1529  25.766  39.500   7.114
    4AU     LIG 1530  26.046  39.282   6.834
    4AU     LIG 1531  25.953  38.885   6.615
    4AU     LIG 1532  25.980  38.446   6.439
    4AU       S 1533  26.041  39.587   7.360
    4AU     LIG 1534  26.213  39.168   7.291
    4AU     LIG 1535  26.158  38.755   7.088
    4AU     LIG 1536  26.098  38.332   6.945
    4AU       S 1537  26.309  40.014   6.671
    4AU     LIG 1538  26.291  39.608   6.518
    4AU     LIG 1539  26.340  39.159   6.431
    4AU     LIG 1540  26.437  38.834   6.121
    5AU     AUC 1541  18.641   6.775   7.530
    5AU     AUC 1542  18.894   6.777   7.365
    5AU     AUC 1543  18.882   6.775   7.699
    5AU     AUC 1544  18.376   6.772   7.375
    5AU     AUC 1545  18.395   6.816   7.697
    5AU     AUC 1546  18.477   7.033   7.494
    5AU     AUC 1547  18.812   7.036   7.496
    5AU     AUC 1548  18.473   6.524   7.551
    5AU     AUC 1549  18.804   6.506   7.551
    5AU     AUC 1550  18.641   6.626   7.800
    5AU     AUC 1551  18.644   6.968   7.766
    5AU     AUC 1552  18.639   6.591   7.286
    5AU     AUC 1553  18.651   6.897   7.262
    5AU     AUC 1554  19.210   6.778   7.212
    5AU     AUC 1555  19.207   6.763   7.549
    5AU     AUC 1556  19.171   6.762   7.904
    5AU     AUC 1557  18.079   6.728   7.233
    5AU     AUC 1558  18.068   6.806   7.554
    5AU     AUC 1559  18.098   6.866   7.873
    5AU     AUC 1560  18.313   7.338   7.432
    5AU     AUC 1561  18.670   7.330   7.420
    5AU     AUC 1562  19.004   7.319   7.459
    5AU     AUC 1563  18.282   6.228   7.574
    5AU     AUC 1564  18.629   6.211   7.551
    5AU     AUC 1565  18.979   6.208   7.561
    5AU     AUC 1566  18.612   6.470   8.110
    5AU     AUC 1567  18.630   6.818   8.095
    5AU     AUC 1568  18.675   7.176   8.052
    5AU     AUC 1569  18.678   6.395   7.006
    5AU     AUC 1570  18.618   6.726   6.958
    5AU     AUC 1571  18.608   7.044   6.944
    5AU     AUC 1572  18.883   6.580   8.016
    5AU     AUC 1573  18.917   6.935   7.999
    5AU     AUC 1574  18.946   6.609   7.072
    5AU     AUC 1575  18.906   6.918   7.082
    5AU     AUC 1576  18.350   6.700   8.008
    5AU     AUC 1577  18.384   7.049   7.953
    5AU     AUC 1578  18.365   6.543   7.109
    5AU     AUC 1579  18.315   6.864   7.070
    5AU     AUC 1580  19.135   7.049   7.354
    5AU     AUC 1581  19.073   7.025   7.695
    5AU     AUC 1582  18.176   7.039   7.364
    5AU     AUC 1583  18.223   7.131   7.687
    5AU     AUC 1584  19.109   6.501   7.404
    5AU     AUC 1585  19.055   6.459   7.746
    5AU     AUC 1586  18.184   6.459   7.396
    5AU     AUC 1587  18.206   6.551   7.729
    5AU     AUC 1588  18.534   7.284   7.747
    5AU     AUC 1589  18.842   7.245   7.771
    5AU     AUC 1590  18.453   6.352   7.834
    5AU     AUC 1591  18.759   6.295   7.825
    5AU     AUC 1592  18.445   7.188   7.182
    5AU     AUC 1593  18.811   7.217   7.201
    5AU     AUC 1594  18.499   6.294   7.277
    5AU     AUC 1595  18.864   6.343   7.279
    5AU    AUSL 1596  19.147   6.698   8.307
    5AU    AUSL 1597  18.900   6.304   8.234
    5AU     AUL 1598  19.195   6.346   8.410
    5AU    AUSL 1599  18.731   6.634   8.454
    5AU    AUSL 1600  18.486   7.031   8.441
    5AU     AUL 1601  18.716   6.931   8.724
    5AU    AUSL 1602  18.824   6.987   8.185
    5AU    AUSL 1603  19.275   7.076   8.124
    5AU     AUL 1604  19.096   7.001   8.447
    5AU    AUSL 1605  19.070   6.799   6.868
    5AU    AUSL 1606  18.913   7.189   6.979
    5AU     AUL 1607  19.130   7.129   6.689
    5AU    AUSL 1608  18.896   6.497   6.606
    5AU    AUSL 1609  19.396   6.550   6.987
    5AU     AUL 1610  19.265   6.657   6.657
    5AU    AUSL 1611  18.702   6.941   6.681
    5AU    AUSL 1612  18.527   6.549   6.822
    5AU     AUL 1613  18.631   6.603   6.492
    5AU    AUSL 1614  18.098   6.987   8.223
    5AU    AUSL 1615  18.445   7.289   8.094
    5AU     AUL 1616  18.272   7.259   8.410
    5AU    AUSL 1617  18.403   6.678   8.185
    5AU    AUSL 1618  17.971   6.563   8.137
    5AU     AUL 1619  17.946   6.761   8.312
    5AU    AUSL 1620  18.088   6.521   6.804
    5AU    AUSL 1621  18.346   6.196   6.979
    5AU     AUL 1622  18.375   6.241   6.663
    5AU    AUSL 1623  18.271   6.890   6.661
    5AU    AUSL 1624  17.993   6.887   7.035
    5AU     AUL 1625  17.871   6.728   6.784
    5AU    AUSL 1626  19.408   7.269   7.514
    5AU    AUSL 1627  19.328   7.044   7.111
    5AU     AUL 1628  19.643   7.300   7.230
    5AU    AUSL 1629  19.603   6.870   7.398
    5AU    AUSL 1630  19.562   6.555   7.763
    5AU     AUL 1631  19.859   6.614   7.534
    5AU    AUSL 1632  19.320   6.905   7.740
    5AU    AUSL 1633  19.072   7.293   7.787
    5AU     AUL 1634  19.409   7.291   7.845
    5AU    AUSL 1635  18.062   7.416   7.475
    5AU    AUSL 1636  18.099   7.181   7.842
    5AU     AUL 1637  17.788   7.422   7.684
    5AU    AUSL 1638  17.877   7.017   7.426
    5AU    AUSL 1639  18.008   7.320   7.063
    5AU     AUL 1640  17.776   7.240   7.217
    5AU    AUSL 1641  17.726   6.984   7.862
    5AU    AUSL 1642  17.712   6.626   7.364
    5AU     AUL 1643  17.559   6.961   7.544
    5AU    AUSL 1644  19.327   6.208   7.621
    5AU    AUSL 1645  19.164   6.494   7.932
    5AU     AUL 1646  19.466   6.396   8.006
    5AU    AUSL 1647  19.293   6.579   7.399
    5AU    AUSL 1648  19.290   6.163   7.190
    5AU     AUL 1649  19.537   6.375   7.269
    5AU    AUSL 1650  17.885   6.258   7.586
    5AU    AUSL 1651  18.078   6.457   7.222
    5AU     AUL 1652  17.725   6.358   7.233
    5AU    AUSL 1653  17.969   6.668   7.721
    5AU    AUSL 1654  18.203   6.305   7.875
    5AU     AUL 1655  17.877   6.307   7.928
    5AU    AUSL 1656  18.709   7.584   7.912
    5AU    AUSL 1657  18.255   7.592   7.826
    5AU     AUL 1658  18.478   7.631   8.173
    5AU    AUSL 1659  18.538   7.477   7.529
    5AU    AUSL 1660  18.780   7.592   7.180
    5AU     AUL 1661  18.532   7.827   7.473
    5AU    AUSL 1662  18.977   7.639   7.562
    5AU    AUSL 1663  18.959   7.390   8.200
    5AU     AUL 1664  19.077   7.632   7.925
    5AU    AUSL 1665  18.585   6.125   7.994
    5AU    AUSL 1666  19.012   6.082   7.878
    5AU     AUL 1667  18.767   6.010   8.242
    5AU    AUSL 1668  18.277   5.914   7.726
    5AU    AUSL 1669  18.338   6.282   8.308
    5AU     AUL 1670  18.259   6.000   8.073
    5AU    AUSL 1671  18.717   5.833   7.694
    5AU    AUSL 1672  18.506   6.083   7.393
    5AU     AUL 1673  18.431   5.726   7.492
    5AU    AUSL 1674  18.614   7.426   6.785
    5AU    AUSL 1675  19.182   7.452   7.198
    5AU     AUL 1676  18.934   7.536   6.872
    5AU    AUSL 1677  18.355   7.552   7.144
    5AU    AUSL 1678  18.388   7.126   6.990
    5AU     AUL 1679  18.285   7.399   6.788
    5AU    AUSL 1680  18.731   6.004   7.015
    5AU    AUSL 1681  18.097   6.015   7.298
    5AU     AUL 1682  18.392   5.882   7.054
    5AU    AUSL 1683  18.939   6.065   7.407
    5AU    AUSL 1684  18.952   6.374   7.012
    5AU     AUL 1685  19.052   6.003   7.026
    5AU       S 1686  19.212   5.889   8.278
    5AU     LIG 1687  19.299   5.419   8.322
    5AU     LIG 1688  19.430   4.971   8.380
    5AU     LIG 1689  19.676   4.736   8.748
    5AU       S 1690  19.106   6.637   8.760
    5AU     LIG 1691  19.466   6.930   8.788
    5AU     LIG 1692  19.718   7.036   9.175
    5AU     LIG 1693  19.738   6.920   9.649
    5AU       S 1694  18.749   6.459   8.654
    5AU     LIG 1695  18.727   6.526   9.088
    5AU     LIG 1696  19.118   6.556   9.348
    5AU     LIG 1697  19.521   6.443   9.577
    5AU       S 1698  18.273   6.834   8.659
    5AU     LIG 1699  18.294   6.819   9.123
    5AU     LIG 1700  17.934   6.695   9.380
    5AU     LIG 1701  17.476   6.770   9.449
    5AU       S 1702  18.725   7.394   8.587
    5AU     LIG 1703  18.933   7.725   8.783
    5AU     LIG 1704  19.319   7.642   8.992
    5AU     LIG 1705  19.636   7.426   8.781
    5AU       S 1706  19.459   7.269   8.318
    5AU     LIG 1707  19.903   7.294   8.367
    5AU     LIG 1708  20.113   7.603   8.675
    5AU     LIG 1709  20.229   7.996   8.900
    5AU       S 1710  19.013   6.890   6.317
    5AU     LIG 1711  19.448   6.875   6.139
    5AU     LIG 1712  19.601   6.495   5.930
    5AU     LIG 1713  19.480   6.132   5.662
    5AU       S 1714  19.383   7.510   6.778
    5AU     LIG 1715  19.453   7.822   6.468
    5AU     LIG 1716  19.684   7.863   6.061
    5AU     LIG 1717  20.129   7.937   5.943
    5AU       S 1718  19.557   6.305   6.787
    5AU     LIG 1719  19.617   6.175   6.342
    5AU     LIG 1720  19.688   5.787   6.156
    5AU     LIG 1721  20.062   5.514   6.021
    5AU       S 1722  19.008   6.682   6.251
    5AU     LIG 1723  19.085   6.305   6.013
    5AU     LIG 1724  18.972   6.170   5.570
    5AU     LIG 1725  19.227   6.270   5.183
    5AU       S 1726  18.206   6.549   6.333
    5AU     LIG 1727  18.412   6.354   5.986
    5AU     LIG 1728  18.444   6.292   5.528
    5AU     LIG 1729  18.265   6.487   5.146
    5AU       S 1730  18.757   7.043   6.407
    5AU     LIG 1731  18.547   6.851   6.054
    5AU     LIG 1732  18.784   6.638   5.740
    5AU     LIG 1733  19.227   6.619   5.600
    5AU       S 1734  18.060   6.963   8.707
    5AU     LIG 1735  17.809   6.619   8.819
    5AU     LIG 1736  17.630   6.357   9.124
    5AU     LIG 1737  17.597   6.285   9.576
    5AU       S 1738  17.999   7.569   8.201
    5AU     LIG 1739  17.780   7.731   8.556
    5AU     LIG 1740  17.389   7.844   8.781
    5AU     LIG 1741  17.039   8.079   8.993
    5AU       S 1742  17.860   6.316   8.416
    5AU     LIG 1743  17.465   6.319   8.220
    5AU     LIG 1744  17.177   6.009   8.139
    5AU     LIG 1745  17.008   5.906   8.550
    5AU       S 1746  18.279   6.647   8.616
    5AU     LIG 1747  18.236   6.351   8.950
    5AU     LIG 1748  18.076   6.204   9.350
    5AU     LIG 1749  18.055   6.336   9.805
    5AU       S 1750  18.028   6.467   6.435
    5AU     LIG 1751  17.880   6.276   6.038
    5AU     LIG 1752  17.934   6.401   5.586
    5AU     LIG 1753  17.840   6.760   5.276
    5AU       S 1754  17.998   6.013   6.827
    5AU     LIG 1755  18.237   5.750   6.570
    5AU     LIG 1756  18.072   5.778   6.148
    5AU     LIG 1757  17.617   5.764   6.044
    5AU       S 1758  17.702   7.147   6.726
    5AU     LIG 1759  17.410   7.475   6.739
    5AU     LIG 1760  17.470   7.908   6.578
    5AU     LIG 1761  17.377   8.153   6.170
    5AU       S 1762  18.210   6.834   6.444
    5AU     LIG 1763  17.839   6.898   6.222
    5AU     LIG 1764  17.910   6.888   5.783
    5AU     LIG 1765  18.301   6.792   5.568
    5AU       S 1766  19.516   7.347   6.800
    5AU     LIG 1767  19.643   7.357   6.354
    5AU     LIG 1768  20.023   7.465   6.114
    5AU     LIG 1769  20.484   7.547   6.025
    5AU       S 1770  19.830   7.279   7.667
    5AU     LIG 1771  20.032   7.574   7.389
    5AU     LIG 1772  20.442   7.638   7.511
    5AU     LIG 1773  20.659   7.800   7.866
    5AU       S 1774  19.843   7.067   7.598
    5AU     LIG 1775  20.301   7.131   7.406
    5AU     LIG 1776  20.745   7.298   7.261
    5AU     LIG 1777  21.125   7.163   7.003
    5AU       S 1778  19.798   6.186   7.771
    5AU     LIG 1779  20.110   5.902   7.840
    5AU     LIG 1780  20.509   5.998   7.699
    5AU     LIG 1781  20.870   5.832   7.864
    5AU       S 1782  19.422   7.537   8.231
    5AU     LIG 1783  19.797   7.793   8.314
    5AU     LIG 1784  19.992   8.187   8.477
    5AU     LIG 1785  19.887   8.495   8.822
    5AU       S 1786  19.746   6.979   7.871
    5AU     LIG 1787  20.240   7.099   7.913
    5AU     LIG 1788  20.682   7.269   7.784
    5AU     LIG 1789  21.008   7.466   8.044
    5AU       S 1790  17.897   7.390   8.127
    5AU     LIG 1791  17.651   7.243   8.464
    5AU     LIG 1792  17.228   7.390   8.608
    5AU     LIG 1793  16.880   7.618   8.811
    5AU       S 1794  17.984   7.735   7.382
    5AU     LIG 1795  17.686   8.066   7.214
    5AU     LIG 1796  17.306   8.150   7.003
    5AU     LIG 1797  17.044   7.789   6.908
    5AU       S 1798  17.479   6.902   7.076
    5AU     LIG 1799  17.021   6.976   7.075
    5AU     LIG 1800  16.639   7.245   7.029
    5AU     LIG 1801  16.551   7.665   6.860
    5AU       S 1802  17.867   7.573   6.895
    5AU     LIG 1803  18.003   7.906   6.712
    5AU     LIG 1804  17.837   8.264   6.752
    5AU     LIG 1805  17.448   8.430   6.595
    5AU       S 1806  17.468   6.506   7.609
    5AU     LIG 1807  17.154   6.513   7.279
    5AU     LIG 1808  16.682   6.563   7.131
    5AU     LIG 1809  16.312   6.278   7.012
    5AU       S 1810  17.615   6.981   8.034
    5AU     LIG 1811  17.226   7.124   8.172
    5AU     LIG 1812  16.873   7.429   8.180
    5AU     LIG 1813  16.508   7.383   7.878
    5AU       S 1814  19.492   6.054   7.639
    5AU     LIG 1815  19.583   5.636   7.550
    5AU     LIG 1816  19.961   5.430   7.651
    5AU     LIG 1817  20.383   5.487   7.751
    5AU       S 1818  19.384   5.970   8.129
    5AU     LIG 1819  19.677   5.654   8.040
    5AU     LIG 1820  20.078   5.464   8.164
    5AU     LIG 1821  20.219   5.177   8.492
    5AU       S 1822  19.775   6.144   7.576
    5AU     LIG 1823  19.881   5.954   7.278
    5AU     LIG 1824  20.263   5.763   7.310
    5AU     LIG 1825  20.667   5.935   7.212
    5AU       S 1826  19.508   6.048   6.910
    5AU     LIG 1827  19.462   5.690   6.630
    5AU     LIG 1828  19.360   5.234   6.642
    5AU     LIG 1829  19.563   4.801   6.583
    5AU       S 1830  17.879   6.110   6.881
    5AU     LIG 1831  17.589   6.295   6.636
    5AU     LIG 1832  17.355   6.138   6.289
    5AU     LIG 1833  17.092   5.779   6.164
    5AU       S 1834  17.504   6.269   7.656
    5AU     LIG 1835  17.121   6.116   7.599
    5AU     LIG 1836  16.793   6.095   7.296
    5AU     LIG 1837  16.602   5.728   7.087
    5AU       S 1838  17.892   6.095   8.336
    5AU     LIG 1839  17.778   5.838   7.991
    5AU     LIG 1840  17.460   5.553   8.025
    5AU     LIG 1841  17.199   5.415   8.354
    5AU       S 1842  17.515   6.552   7.793
    5AU     LIG 1843  17.083   6.509   7.931
    5AU     LIG 1844  16.757   6.518   7.641
    5AU     LIG 1845  16.388   6.311   7.532
    5AU       S 1846  18.127   7.755   7.867
    5AU     LIG 1847  17.686   7.853   7.927
    5AU     LIG 1848  17.363   7.731   8.241
    5AU     LIG 1849  17.001   7.954   8.447
    5AU       S 1850  18.713   7.920   7.889
    5AU     LIG 1851  18.908   7.953   8.284
    5AU     LIG 1852  18.845   8.411   8.252
    5AU     LIG 1853  18.479   8.702   8.152
    5AU       S 1854  18.868   8.088   7.792
    5AU     LIG 1855  18.491   8.332   7.702
    5AU     LIG 1856  18.324   8.731   7.633
    5AU     LIG 1857  18.278   9.104   7.874
    5AU       S 1858  18.687   7.906   7.031
    5AU     LIG 1859  18.655   8.325   7.221
    5AU     LIG 1860  18.719   8.781   7.311
    5AU     LIG 1861  18.947   9.140   7.137
    5AU       S 1862  19.179   7.490   8.385
    5AU     LIG 1863  19.361   7.903   8.556
    5AU     LIG 1864  19.717   7.942   8.836
    5AU     LIG 1865  19.899   7.670   9.166
    5AU       S 1866  18.990   7.933   7.554
    5AU     LIG 1867  19.059   8.440   7.520
    5AU     LIG 1868  18.840   8.735   7.802
    5AU     LIG 1869  18.774   9.144   8.036
    5AU       S 1870  18.548   5.625   8.088
    5AU     LIG 1871  18.820   5.266   8.182
    5AU     LIG 1872  18.893   4.943   8.486
    5AU     LIG 1873  19.019   4.535   8.678
    5AU       S 1874  19.148   5.916   7.968
    5AU     LIG 1875  19.183   5.498   7.846
    5AU     LIG 1876  19.506   5.176   7.836
    5AU     LIG 1877  19.859   5.013   8.051
    5AU       S 1878  18.342   5.565   7.919
    5AU     LIG 1879  18.329   5.143   7.970
    5AU     LIG 1880  18.586   4.813   8.046
    5AU     LIG 1881  18.599   4.491   8.354
    5AU       S 1882  18.132   6.213   8.482
    5AU     LIG 1883  17.869   6.008   8.818
    5AU     LIG 1884  17.520   5.763   8.628
    5AU     LIG 1885  17.212   5.531   8.859
    5AU       S 1886  18.841   5.610   7.302
    5AU     LIG 1887  18.642   5.204   7.167
    5AU     LIG 1888  18.584   5.028   6.809
    5AU     LIG 1889  18.593   4.625   6.861
    5AU       S 1890  18.706   5.658   7.875
    5AU     LIG 1891  18.747   5.257   7.677
    5AU     LIG 1892  19.048   4.941   7.833
    5AU     LIG 1893  19.058   4.605   8.158
    5AU       S 1894  18.544   7.803   6.753
    5AU     LIG 1895  18.405   8.265   6.761
    5AU     LIG 1896  18.630   8.685   6.816
    5AU     LIG 1897  18.996   8.974   6.658
    5AU       S 1898  19.358   7.634   7.062
    5AU     LIG 1899  19.792   7.781   6.903
    5AU     LIG 1900  19.975   7.907   6.480
    5AU     LIG 1901  20.116   8.330   6.294
    5AU       S 1902  18.361   7.809   7.029
    5AU     LIG 1903  18.172   8.182   7.204
    5AU     LIG 1904  18.193   8.631   7.125
    5AU     LIG 1905  18.355   9.067   7.082
    5AU       S 1906  17.908   7.202   6.631
    5AU     LIG 1907  17.792   7.543   6.378
    5AU     LIG 1908  17.860   7.965   6.223
    5AU     LIG 1909  17.842   8.417   6.260
    5AU       S 1910  17.917   5.936   7.133
    5AU     LIG 1911  17.430   6.012   7.059
    5AU     LIG 1912  17.262   5.778   6.706
    5AU     LIG 1913  17.341   5.411   6.416
    5AU       S 1914  18.792   5.654   7.157
    5AU     LIG 1915  18.917   5.481   6.757
    5AU     LIG 1916  18.864   5.167   6.405
    5AU     LIG 1917  18.593   4.766   6.344
    5AU       S 1918  19.084   5.732   7.412
    5AU     LIG 1919  19.183   5.237   7.409
    5AU     LIG 1920  19.306   4.952   7.051
    5AU     LIG 1921  19.052   4.797   6.695
    5AU       S 1922  19.271   6.191   6.680
    5AU     LIG 1923  19.060   5.898   6.413
    5AU     LIG 1924  19.228   5.495   6.207
    5AU     LIG 1925  19.302   5.021   6.165
    6AU     AUC 1926  34.940  19.599   7.526
    6AU     AUC 1927  35.191  19.604   7.356
    6AU     AUC 1928  35.185  19.595   7.691
    6AU     AUC 1929  34.671  19.596   7.375
    6AU     AUC 1930  34.698  19.637   7.697
    6AU     AUC 1931  34.776  19.856   7.496
    6AU     AUC 1932  35.111  19.859   7.493
    6AU     AUC 1933  34.773  19.347   7.545
    6AU     AUC 1934  35.104  19.330   7.540
    6AU     AUC 1935  34.946  19.446   7.793
    6AU     AUC 1936  34.948  19.788   7.764
    6AU     AUC 1937  34.933  19.419   7.279
    6AU     AUC 1938  34.947  19.724   7.259
    6AU     AUC 1939  35.506  19.606   7.198
    6AU     AUC 1940  35.508  19.584   7.534
    6AU     AUC 1941  35.479  19.579   7.890
    6AU     AUC 1942  34.368  19.555   7.240
    6AU     AUC 1943  34.367  19.628   7.563
    6AU     AUC 1944  34.404  19.684   7.880
    6AU     AUC 1945  34.610  20.162   7.441
    6AU     AUC 1946  34.968  20.155   7.423
    6AU     AUC 1947  35.303  20.144   7.460
    6AU     AUC 1948  34.583  19.052   7.566
    6AU     AUC 1949  34.928  19.035   7.538
    6AU     AUC 1950  35.279  19.031   7.541
    6AU     AUC 1951  34.926  19.286   8.102
    6AU     AUC 1952  34.940  19.633   8.091
    6AU     AUC 1953  34.983  19.992   8.052
    6AU     AUC 1954  34.967  19.231   6.995
    6AU     AUC 1955  34.910  19.561   6.953
    6AU     AUC 1956  34.899  19.878   6.945
    6AU     AUC 1957  35.193  19.397   8.004
    6AU     AUC 1958  35.226  19.754   7.991
    6AU     AUC 1959  35.238  19.441   7.059
    6AU     AUC 1960  35.201  19.750   7.076
    6AU     AUC 1961  34.660  19.517   8.010
    6AU     AUC 1962  34.691  19.866   7.957
    6AU     AUC 1963  34.655  19.375   7.106
    6AU     AUC 1964  34.607  19.695   7.073
    6AU     AUC 1965  35.433  19.873   7.348
    6AU     AUC 1966  35.377  19.845   7.687
    6AU     AUC 1967  34.471  19.865   7.372
    6AU     AUC 1968  34.525  19.952   7.695
    6AU     AUC 1969  35.406  19.327   7.387
    6AU     AUC 1970  35.359  19.278   7.728
    6AU     AUC 1971  34.477  19.285   7.397
    6AU     AUC 1972  34.509  19.372   7.731
    6AU     AUC 1973  34.838  20.105   7.752
    6AU     AUC 1974  35.146  20.067   7.770
    6AU     AUC 1975  34.760  19.170   7.828
    6AU     AUC 1976  35.066  19.115   7.811
    6AU     AUC 1977  34.739  20.016   7.187
    6AU     AUC 1978  35.105  20.044   7.202
    6AU     AUC 1979  34.789  19.125   7.266
    6AU     AUC 1980  35.155  19.173   7.263
    6AU    AUSL 1981  35.460  19.516   8.289
    6AU    AUSL 1982  35.218  19.117   8.220
    6AU     AUL 1983  35.526  19.184   8.390
    6AU    AUSL 1984  35.047  19.444   8.445
    6AU    AUSL 1985  34.800  19.840   8.442
    6AU     AUL 1986  35.030  19.736   8.720
    6AU    AUSL 1987  35.133  19.802   8.180
    6AU    AUSL 1988  35.583  19.895   8.110
    6AU     AUL 1989  35.410  19.814   8.441
    6AU    AUSL 1990  35.362  19.635   6.858
    6AU    AUSL 1991  35.207  20.022   6.979
    6AU     AUL 1992  35.427  19.965   6.682
    6AU    AUSL 1993  35.181  19.340   6.593
    6AU    AUSL 1994  35.688  19.380   6.964
    6AU     AUL 1995  35.552  19.495   6.642
    6AU    AUSL 1996  34.991  19.780   6.681
    6AU    AUSL 1997  34.815  19.385   6.814
    6AU     AUL 1998  34.912  19.445   6.484
    6AU    AUSL 1999  34.408  19.798   8.230
    6AU    AUSL 2000  34.754  20.106   8.102
    6AU     AUL 2001  34.590  20.073   8.418
    6AU    AUSL 2002  34.713  19.490   8.183
    6AU    AUSL 2003  34.284  19.371   8.147
    6AU     AUL 2004  34.250  19.573   8.314
    6AU    AUSL 2005  34.375  19.363   6.804
    6AU    AUSL 2006  34.630  19.033   6.971
    6AU     AUL 2007  34.659  19.081   6.653
    6AU    AUSL 2008  34.559  19.732   6.662
    6AU    AUSL 2009  34.285  19.721   7.046
    6AU     AUL 2010  34.160  19.589   6.791
    6AU    AUSL 2011  35.715  20.087   7.511
    6AU    AUSL 2012  35.625  19.876   7.101
    6AU     AUL 2013  35.944  20.129   7.230
    6AU    AUSL 2014  35.902  19.689   7.378
    6AU    AUSL 2015  35.866  19.369   7.733
    6AU     AUL 2016  36.154  19.419   7.511
    6AU    AUSL 2017  35.625  19.721   7.728
    6AU    AUSL 2018  35.374  20.116   7.778
    6AU     AUL 2019  35.702  20.126   7.834
    6AU    AUSL 2020  34.362  20.238   7.489
    6AU    AUSL 2021  34.406  20.000   7.853
    6AU     AUL 2022  34.092  20.248   7.705
    6AU    AUSL 2023  34.173  19.840   7.440
    6AU    AUSL 2024  34.299  20.152   7.076
    6AU     AUL 2025  34.070  20.071   7.237
    6AU    AUSL 2026  34.032  19.807   7.876
    6AU    AUSL 2027  34.004  19.449   7.390
    6AU     AUL 2028  33.854  19.784   7.565
    6AU    AUSL 2029  35.629  19.027   7.591
    6AU    AUSL 2030  35.474  19.311   7.913
    6AU     AUL 2031  35.783  19.211   7.967
    6AU    AUSL 2032  35.589  19.401   7.377
    6AU    AUSL 2033  35.581  18.989   7.160
    6AU     AUL 2034  35.828  19.200   7.238
    6AU    AUSL 2035  34.191  19.079   7.593
    6AU    AUSL 2036  34.363  19.286   7.222
    6AU     AUL 2037  34.005  19.171   7.266
    6AU    AUSL 2038  34.275  19.488   7.735
    6AU    AUSL 2039  34.516  19.124   7.873
    6AU     AUL 2040  34.197  19.106   7.931
    6AU    AUSL 2041  35.011  20.405   7.919
    6AU    AUSL 2042  34.559  20.411   7.839
    6AU     AUL 2043  34.799  20.450   8.181
    6AU    AUSL 2044  34.837  20.299   7.536
    6AU    AUSL 2045  35.074  20.421   7.186
    6AU     AUL 2046  34.822  20.643   7.489
    6AU    AUSL 2047  35.272  20.471   7.569
    6AU    AUSL 2048  35.268  20.204   8.197
    6AU     AUL 2049  35.367  20.458   7.935
    6AU    AUSL 2050  34.898  18.942   7.983
    6AU    AUSL 2051  35.321  18.900   7.857
    6AU     AUL 2052  35.079  18.825   8.229
    6AU    AUSL 2053  34.582  18.735   7.717
    6AU    AUSL 2054  34.656  19.093   8.303
    6AU     AUL 2055  34.579  18.811   8.069
    6AU    AUSL 2056  35.022  18.657   7.671
    6AU    AUSL 2057  34.799  18.908   7.378
    6AU     AUL 2058  34.724  18.541   7.478
    6AU    AUSL 2059  34.904  20.259   6.792
    6AU    AUSL 2060  35.473  20.276   7.212
    6AU     AUL 2061  35.231  20.360   6.872
    6AU    AUSL 2062  34.649  20.380   7.154
    6AU    AUSL 2063  34.678  19.957   6.996
    6AU     AUL 2064  34.574  20.234   6.800
    6AU    AUSL 2065  35.016  18.842   6.993
    6AU    AUSL 2066  34.389  18.843   7.290
    6AU     AUL 2067  34.677  18.712   7.044
    6AU    AUSL 2068  35.233  18.895   7.383
    6AU    AUSL 2069  35.241  19.210   6.995
    6AU     AUL 2070  35.333  18.844   6.993
    6AU       S 2071  35.528  18.730   8.267
    6AU     LIG 2072  35.592  18.300   8.310
    6AU     LIG 2073  35.708  17.874   8.329
    6AU     LIG 2074  36.095  17.679   8.416
    6AU       S 2075  35.414  19.444   8.755
    6AU     LIG 2076  35.748  19.735   8.852
    6AU     LIG 2077  35.975  19.745   9.268
    6AU     LIG 2078  35.954  19.632   9.734
    6AU       S 2079  35.071  19.267   8.645
    6AU     LIG 2080  35.050  19.273   9.097
    6AU     LIG 2081  35.378  19.229   9.450
    6AU     LIG 2082  35.765  19.139   9.721
    6AU       S 2083  34.588  19.635   8.654
    6AU     LIG 2084  34.656  19.617   9.102
    6AU     LIG 2085  34.325  19.491   9.389
    6AU     LIG 2086  34.122  19.606   9.787
    6AU       S 2087  35.050  20.199   8.593
    6AU     LIG 2088  35.323  20.521   8.771
    6AU     LIG 2089  35.766  20.402   8.826
    6AU     LIG 2090  36.101  20.124   8.914
    6AU       S 2091  35.778  20.068   8.298
    6AU     LIG 2092  36.177  20.203   8.403
    6AU     LIG 2093  36.243  20.573   8.642
    6AU     LIG 2094  36.455  20.913   8.882
    6AU       S 2095  35.297  19.736   6.309
    6AU     LIG 2096  35.734  19.692   6.119
    6AU     LIG 2097  35.931  19.353   5.896
    6AU     LIG 2098  35.817  19.068   5.565
    6AU       S 2099  35.682  20.351   6.803
    6AU     LIG 2100  35.525  20.709   6.592
    6AU     LIG 2101  35.706  20.859   6.200
    6AU     LIG 2102  36.091  20.814   5.948
    6AU       S 2103  35.842  19.134   6.746
    6AU     LIG 2104  35.856  18.974   6.267
    6AU     LIG 2105  35.890  18.519   6.149
    6AU     LIG 2106  36.064  18.114   6.377
    6AU       S 2107  35.285  19.538   6.244
    6AU     LIG 2108  35.411  19.222   5.962
    6AU     LIG 2109  35.314  19.146   5.507
    6AU     LIG 2110  35.586  19.301   5.157
    6AU       S 2111  34.486  19.392   6.327
    6AU     LIG 2112  34.763  19.242   5.992
    6AU     LIG 2113  34.768  19.202   5.527
    6AU     LIG 2114  34.417  19.249   5.201
    6AU       S 2115  35.040  19.889   6.419
    6AU     LIG 2116  34.838  19.738   6.056
    6AU     LIG 2117  35.093  19.568   5.728
    6AU     LIG 2118  35.559  19.582   5.613
    6AU       S 2119  34.380  19.766   8.709
    6AU     LIG 2120  34.096  19.444   8.792
    6AU     LIG 2121  33.975  19.187   9.134
    6AU     LIG 2122  33.920  19.163   9.588
    6AU       S 2123  34.321  20.401   8.227
    6AU     LIG 2124  34.039  20.682   8.433
    6AU     LIG 2125  33.682  20.733   8.689
    6AU     LIG 2126  33.407  21.013   8.929
    6AU       S 2127  34.175  19.123   8.413
    6AU     LIG 2128  33.752  19.087   8.248
    6AU     LIG 2129  33.419  18.781   8.336
    6AU     LIG 2130  33.218  18.632   8.746
    6AU       S 2131  34.591  19.450   8.610
    6AU     LIG 2132  34.488  19.160   8.964
    6AU     LIG 2133  34.387  18.984   9.387
    6AU     LIG 2134  34.378  19.154   9.824
    6AU       S 2135  34.308  19.322   6.449
    6AU     LIG 2136  34.229  18.944   6.257
    6AU     LIG 2137  34.299  19.053   5.832
    6AU     LIG 2138  34.359  19.473   5.683
    6AU       S 2139  34.285  18.850   6.808
    6AU     LIG 2140  34.053  18.557   6.561
    6AU     LIG 2141  33.831  18.355   6.221
    6AU     LIG 2142  33.402  18.219   6.107
    6AU       S 2143  33.963  20.003   6.754
    6AU     LIG 2144  33.570  20.253   6.686
    6AU     LIG 2145  33.533  20.707   6.579
    6AU     LIG 2146  33.541  20.886   6.135
    6AU       S 2147  34.491  19.675   6.442
    6AU     LIG 2148  34.327  19.841   6.084
    6AU     LIG 2149  34.527  19.952   5.685
    6AU     LIG 2150  34.716  19.692   5.355
    6AU       S 2151  35.792  20.204   6.814
    6AU     LIG 2152  35.813  20.155   6.354
    6AU     LIG 2153  36.116  20.300   6.035
    6AU     LIG 2154  36.517  20.538   6.034
    6AU       S 2155  36.116  20.055   7.664
    6AU     LIG 2156  36.272  20.457   7.707
    6AU     LIG 2157  36.692  20.593   7.633
    6AU     LIG 2158  37.000  20.547   7.289
    6AU       S 2159  36.147  19.872   7.588
    6AU     LIG 2160  36.575  20.088   7.455
    6AU     LIG 2161  36.987  20.038   7.225
    6AU     LIG 2162  37.303  20.292   6.955
    6AU       S 2163  36.094  18.974   7.722
    6AU     LIG 2164  36.412  18.782   7.960
    6AU     LIG 2165  36.852  18.901   7.941
    6AU     LIG 2166  37.157  18.860   7.609
    6AU       S 2167  35.727  20.355   8.226
    6AU     LIG 2168  36.060  20.647   8.150
    6AU     LIG 2169  36.159  21.027   8.389
    6AU     LIG 2170  36.211  21.324   8.723
    6AU       S 2171  36.027  19.796   7.863
    6AU     LIG 2172  36.486  20.039   7.974
    6AU     LIG 2173  36.944  20.172   7.828
    6AU     LIG 2174  37.382  20.225   8.029
    6AU       S 2175  34.222  20.212   8.144
    6AU     LIG 2176  33.922  20.130   8.458
    6AU     LIG 2177  33.484  20.271   8.553
    6AU     LIG 2178  33.274  20.512   8.908
    6AU       S 2179  34.296  20.568   7.411
    6AU     LIG 2180  34.148  20.966   7.241
    6AU     LIG 2181  33.726  20.921   7.084
    6AU     LIG 2182  33.699  20.454   7.121
    6AU       S 2183  33.776  19.725   7.099
    6AU     LIG 2184  33.372  19.536   6.989
    6AU     LIG 2185  32.988  19.752   6.967
    6AU     LIG 2186  33.070  20.218   6.936
    6AU       S 2187  34.161  20.418   6.915
    6AU     LIG 2188  34.083  20.832   6.732
    6AU     LIG 2189  33.796  21.161   6.510
    6AU     LIG 2190  33.530  21.433   6.193
    6AU       S 2191  33.793  19.334   7.669
    6AU     LIG 2192  33.421  19.312   7.445
    6AU     LIG 2193  33.013  19.247   7.244
    6AU     LIG 2194  32.758  19.191   6.865
    6AU       S 2195  33.931  19.827   8.050
    6AU     LIG 2196  33.541  19.777   8.192
    6AU     LIG 2197  33.195  19.806   7.910
    6AU     LIG 2198  33.152  19.758   7.455
    6AU       S 2199  35.788  18.851   7.599
    6AU     LIG 2200  35.962  18.419   7.533
    6AU     LIG 2201  36.336  18.258   7.793
    6AU     LIG 2202  36.783  18.407   7.853
    6AU       S 2203  35.686  18.801   8.121
    6AU     LIG 2204  35.966  18.527   8.023
    6AU     LIG 2205  36.119  18.196   8.274
    6AU     LIG 2206  36.068  18.085   8.726
    6AU       S 2207  36.073  18.932   7.504
    6AU     LIG 2208  36.438  18.640   7.467
    6AU     LIG 2209  36.853  18.598   7.283
    6AU     LIG 2210  37.248  18.712   7.077
    6AU       S 2211  35.788  18.880   6.874
    6AU     LIG 2212  35.681  18.436   6.975
    6AU     LIG 2213  35.708  17.972   6.834
    6AU     LIG 2214  35.751  17.692   6.461
    6AU       S 2215  34.155  18.967   6.886
    6AU     LIG 2216  33.866  19.084   6.613
    6AU     LIG 2217  33.608  18.799   6.386
    6AU     LIG 2218  33.176  18.632   6.325
    6AU       S 2219  33.803  19.095   7.696
    6AU     LIG 2220  33.509  18.824   7.811
    6AU     LIG 2221  33.141  18.838   7.579
    6AU     LIG 2222  32.713  18.881   7.668
    6AU       S 2223  34.214  18.900   8.338
    6AU     LIG 2224  33.957  18.664   8.051
    6AU     LIG 2225  33.621  18.353   8.119
    6AU     LIG 2226  33.254  18.267   8.391
    6AU       S 2227  33.837  19.375   7.842
    6AU     LIG 2228  33.395  19.320   7.962
    6AU     LIG 2229  33.011  19.321   7.762
    6AU     LIG 2230  32.642  19.278   7.980
    6AU       S 2231  34.445  20.570   7.886
    6AU     LIG 2232  34.102  20.825   7.947
    6AU     LIG 2233  33.715  21.026   8.154
    6AU     LIG 2234  33.313  20.977   8.404
    6AU       S 2235  35.019  20.771   7.895
    6AU     LIG 2236  35.302  20.921   8.198
    6AU     LIG 2237  35.278  21.305   8.475
    6AU     LIG 2238  34.954  21.663   8.444
    6AU       S 2239  35.058  20.995   7.711
    6AU     LIG 2240  34.591  21.066   7.805
    6AU     LIG 2241  34.535  21.479   7.999
    6AU     LIG 2242  34.884  21.710   7.931
    6AU       S 2243  34.989  20.714   7.052
    6AU     LIG 2244  35.173  21.060   7.201
    6AU     LIG 2245  35.229  21.414   7.431
    6AU     LIG 2246  35.393  21.767   7.201
    6AU       S 2247  35.508  20.302   8.373
    6AU     LIG 2248  35.692  20.771   8.492
    6AU     LIG 2249  35.924  20.906   8.866
    6AU     LIG 2250  36.135  20.601   9.158
    6AU       S 2251  35.279  20.759   7.579
    6AU     LIG 2252  35.526  21.112   7.769
    6AU     LIG 2253  35.302  21.418   7.988
    6AU     LIG 2254  35.379  21.844   8.218
    6AU       S 2255  34.878  18.436   8.070
    6AU     LIG 2256  35.174  18.067   8.122
    6AU     LIG 2257  35.241  17.626   8.250
    6AU     LIG 2258  35.088  17.164   8.298
    6AU       S 2259  35.463  18.761   7.959
    6AU     LIG 2260  35.511  18.392   7.812
    6AU     LIG 2261  35.750  18.064   7.856
    6AU     LIG 2262  36.099  17.813   7.932
    6AU       S 2263  34.674  18.380   7.911
    6AU     LIG 2264  34.620  18.019   7.663
    6AU     LIG 2265  34.749  17.701   7.926
    6AU     LIG 2266  34.619  17.288   8.094
    6AU       S 2267  34.442  19.008   8.488
    6AU     LIG 2268  34.112  18.807   8.807
    6AU     LIG 2269  33.736  18.526   8.676
    6AU     LIG 2270  33.458  18.184   8.865
    6AU       S 2271  35.125  18.450   7.263
    6AU     LIG 2272  34.872  18.046   7.177
    6AU     LIG 2273  34.975  17.686   6.914
    6AU     LIG 2274  35.039  17.228   6.998
    6AU       S 2275  35.023  18.484   7.850
    6AU     LIG 2276  35.113  18.118   7.627
    6AU     LIG 2277  35.322  17.753   7.722
    6AU     LIG 2278  35.112  17.380   7.831
    6AU       S 2279  34.846  20.633   6.767
    6AU     LIG 2280  34.902  21.105   6.757
    6AU     LIG 2281  35.233  21.439   6.821
    6AU     LIG 2282  35.358  21.887   6.692
    6AU       S 2283  35.629  20.463   7.107
    6AU     LIG 2284  35.886  20.821   6.936
    6AU     LIG 2285  36.102  20.939   6.537
    6AU     LIG 2286  36.441  21.040   6.235
    6AU       S 2287  34.646  20.649   7.036
    6AU     LIG 2288  34.659  21.052   7.252
    6AU     LIG 2289  34.823  21.459   7.122
    6AU     LIG 2290  34.839  21.772   6.780
    6AU       S 2291  34.193  20.052   6.637
    6AU     LIG 2292  33.990  20.416   6.433
    6AU     LIG 2293  34.050  20.805   6.216
    6AU     LIG 2294  33.946  21.182   5.986
    6AU       S 2295  34.195  18.762   7.099
    6AU     LIG 2296  33.738  18.678   6.942
    6AU     LIG 2297  33.531  18.353   6.654
    6AU     LIG 2298  33.655  17.916   6.463
    6AU       S 2299  35.086  18.480   7.114
    6AU     LIG 2300  35.248  18.165   6.841
    6AU     LIG 2301  35.242  17.837   6.514
    6AU     LIG 2302  35.075  17.414   6.461
    6AU       S 2303  35.373  18.569   7.371
    6AU     LIG 2304  35.539  18.135   7.360
    6AU     LIG 2305  35.385  17.759   7.200
    6AU     LIG 2306  35.443  17.493   6.836
    6AU       S 2307  35.558  19.029   6.649
    6AU     LIG 2308  35.446  18.608   6.555
    6AU     LIG 2309  35.558  18.209   6.392
    6AU     LIG 2310  35.715  18.018   5.990
    7AU     AUC 2311  21.912  19.930   7.527
    7AU     AUC 2312  22.168  19.925   7.366
    7AU     AUC 2313  22.151  19.922   7.700
    7AU     AUC 2314  21.651  19.936   7.368
    7AU     AUC 2315  21.666  19.978   7.691
    7AU     AUC 2316  21.757  20.193   7.490
    7AU     AUC 2317  22.091  20.186   7.496
    7AU     AUC 2318  21.737  19.683   7.543
    7AU     AUC 2319  22.066  19.656   7.550
    7AU     AUC 2320  21.904  19.781   7.795
    7AU     AUC 2321  21.918  20.123   7.764
    7AU     AUC 2322  21.908  19.747   7.282
    7AU     AUC 2323  21.931  20.052   7.260
    7AU     AUC 2324  22.486  19.915   7.219
    7AU     AUC 2325  22.478  19.898   7.554
    7AU     AUC 2326  22.439  19.900   7.908
    7AU     AUC 2327  21.354  19.903   7.221
    7AU     AUC 2328  21.340  19.979   7.542
    7AU     AUC 2329  21.367  20.034   7.866
    7AU     AUC 2330  21.602  20.501   7.428
    7AU     AUC 2331  21.959  20.485   7.420
    7AU     AUC 2332  22.292  20.463   7.465
    7AU     AUC 2333  21.535  19.393   7.562
    7AU     AUC 2334  21.881  19.365   7.548
    7AU     AUC 2335  22.231  19.353   7.563
    7AU     AUC 2336  21.864  19.627   8.106
    7AU     AUC 2337  21.897  19.974   8.093
    7AU     AUC 2338  21.952  20.331   8.051
    7AU     AUC 2339  21.947  19.553   7.002
    7AU     AUC 2340  21.898  19.885   6.955
    7AU     AUC 2341  21.897  20.203   6.943
    7AU     AUC 2342  22.143  19.730   8.016
    7AU     AUC 2343  22.188  20.084   7.999
    7AU     AUC 2344  22.219  19.757   7.074
    7AU     AUC 2345  22.190  20.067   7.085
    7AU     AUC 2346  21.613  19.861   7.998
    7AU     AUC 2347  21.658  20.208   7.948
    7AU     AUC 2348  21.637  19.710   7.100
    7AU     AUC 2349  21.597  20.031   7.064
    7AU     AUC 2350  22.418  20.186   7.361
    7AU     AUC 2351  22.351  20.165   7.699
    7AU     AUC 2352  21.456  20.209   7.357
    7AU     AUC 2353  21.501  20.296   7.680
    7AU     AUC 2354  22.372  19.641   7.409
    7AU     AUC 2355  22.312  19.599   7.750
    7AU     AUC 2356  21.449  19.627   7.381
    7AU     AUC 2357  21.468  19.720   7.716
    7AU     AUC 2358  21.815  20.441   7.745
    7AU     AUC 2359  22.123  20.396   7.772
    7AU     AUC 2360  21.704  19.511   7.828
    7AU     AUC 2361  22.010  19.448   7.823
    7AU     AUC 2362  21.734  20.351   7.178
    7AU     AUC 2363  22.101  20.367   7.204
    7AU     AUC 2364  21.760  19.455   7.270
    7AU     AUC 2365  22.124  19.492   7.278
    7AU    AUSL 2366  22.411  19.843   8.305
    7AU    AUSL 2367  22.142  19.458   8.232
    7AU     AUL 2368  22.445  19.493   8.408
    7AU    AUSL 2369  21.995  19.793   8.457
    7AU    AUSL 2370  21.755  20.188   8.438
    7AU     AUL 2371  21.991  20.097   8.719
    7AU    AUSL 2372  22.095  20.141   8.185
    7AU    AUSL 2373  22.550  20.218   8.125
    7AU     AUL 2374  22.374  20.146   8.444
    7AU    AUSL 2375  22.354  19.944   6.874
    7AU    AUSL 2376  22.208  20.339   6.983
    7AU     AUL 2377  22.434  20.271   6.698
    7AU    AUSL 2378  22.174  19.650   6.607
    7AU    AUSL 2379  22.670  19.685   6.998
    7AU     AUL 2380  22.546  19.794   6.668
    7AU    AUSL 2381  21.993  20.099   6.682
    7AU    AUSL 2382  21.803  19.713   6.815
    7AU     AUL 2383  21.911  19.766   6.486
    7AU    AUSL 2384  21.370  20.153   8.215
    7AU    AUSL 2385  21.723  20.446   8.090
    7AU     AUL 2386  21.546  20.421   8.401
    7AU    AUSL 2387  21.671  19.836   8.182
    7AU    AUSL 2388  21.227  19.741   8.114
    7AU     AUL 2389  21.248  19.906   8.318
    7AU    AUSL 2390  21.362  19.699   6.792
    7AU    AUSL 2391  21.610  19.364   6.969
    7AU     AUL 2392  21.643  19.411   6.653
    7AU    AUSL 2393  21.559  20.062   6.653
    7AU    AUSL 2394  21.276  20.066   7.027
    7AU     AUL 2395  21.148  19.921   6.774
    7AU    AUSL 2396  22.701  20.393   7.528
    7AU    AUSL 2397  22.616  20.180   7.122
    7AU     AUL 2398  22.942  20.420   7.256
    7AU    AUSL 2399  22.879  19.987   7.408
    7AU    AUSL 2400  22.824  19.673   7.768
    7AU     AUL 2401  23.129  19.720   7.549
    7AU    AUSL 2402  22.593  20.033   7.748
    7AU    AUSL 2403  22.354  20.436   7.785
    7AU     AUL 2404  22.682  20.440   7.842
    7AU    AUSL 2405  21.354  20.587   7.467
    7AU    AUSL 2406  21.375  20.350   7.835
    7AU     AUL 2407  21.073  20.597   7.680
    7AU    AUSL 2408  21.151  20.198   7.415
    7AU    AUSL 2409  21.303  20.497   7.054
    7AU     AUL 2410  21.065  20.426   7.207
    7AU    AUSL 2411  21.000  20.158   7.856
    7AU    AUSL 2412  20.981  19.812   7.340
    7AU     AUL 2413  20.839  20.147   7.537
    7AU    AUSL 2414  22.579  19.335   7.627
    7AU    AUSL 2415  22.423  19.631   7.934
    7AU     AUL 2416  22.726  19.524   8.007
    7AU    AUSL 2417  22.557  19.709   7.406
    7AU    AUSL 2418  22.546  19.299   7.194
    7AU     AUL 2419  22.797  19.501   7.282
    7AU    AUSL 2420  21.137  19.438   7.564
    7AU    AUSL 2421  21.346  19.631   7.209
    7AU     AUL 2422  20.986  19.547   7.206
    7AU    AUSL 2423  21.236  19.843   7.699
    7AU    AUSL 2424  21.454  19.474   7.857
    7AU     AUL 2425  21.128  19.480   7.903
    7AU    AUSL 2426  21.994  20.738   7.915
    7AU    AUSL 2427  21.543  20.756   7.822
    7AU     AUL 2428  21.759  20.791   8.167
    7AU    AUSL 2429  21.828  20.636   7.528
    7AU    AUSL 2430  22.082  20.744   7.183
    7AU     AUL 2431  21.831  20.985   7.474
    7AU    AUSL 2432  22.268  20.792   7.571
    7AU    AUSL 2433  22.244  20.538   8.199
    7AU     AUL 2434  22.357  20.781   7.933
    7AU    AUSL 2435  21.824  19.281   7.994
    7AU    AUSL 2436  22.251  19.230   7.880
    7AU     AUL 2437  21.996  19.168   8.247
    7AU    AUSL 2438  21.518  19.079   7.716
    7AU    AUSL 2439  21.565  19.447   8.295
    7AU     AUL 2440  21.485  19.165   8.062
    7AU    AUSL 2441  21.955  18.987   7.691
    7AU    AUSL 2442  21.758  19.240   7.385
    7AU     AUL 2443  21.660  18.879   7.485
    7AU    AUSL 2444  21.917  20.583   6.786
    7AU    AUSL 2445  22.476  20.588   7.219
    7AU     AUL 2446  22.240  20.679   6.875
    7AU    AUSL 2447  21.657  20.717   7.139
    7AU    AUSL 2448  21.679  20.290   6.986
    7AU     AUL 2449  21.589  20.564   6.780
    7AU    AUSL 2450  21.988  19.158   7.010
    7AU    AUSL 2451  21.349  19.189   7.282
    7AU     AUL 2452  21.647  19.044   7.046
    7AU    AUSL 2453  22.190  19.210   7.407
    7AU    AUSL 2454  22.219  19.523   7.012
    7AU     AUL 2455  22.304  19.149   7.024
    7AU       S 2456  22.437  19.037   8.286
    7AU     LIG 2457  22.612  18.623   8.337
    7AU     LIG 2458  22.829  18.263   8.389
    7AU     LIG 2459  23.198  18.227   8.615
    7AU       S 2460  22.372  19.787   8.761
    7AU     LIG 2461  22.649  20.136   8.858
    7AU     LIG 2462  22.805  20.241   9.274
    7AU     LIG 2463  22.718  19.972   9.668
    7AU       S 2464  22.032  19.622   8.667
    7AU     LIG 2465  21.981  19.720   9.108
    7AU     LIG 2466  22.286  19.683   9.486
    7AU     LIG 2467  22.536  19.449   9.825
    7AU       S 2468  21.543  20.012   8.674
    7AU     LIG 2469  21.498  19.946   9.134
    7AU     LIG 2470  21.125  19.867   9.381
    7AU     LIG 2471  20.834  19.953   9.738
    7AU       S 2472  21.994  20.557   8.574
    7AU     LIG 2473  22.237  20.841   8.797
    7AU     LIG 2474  22.595  20.686   9.009
    7AU     LIG 2475  22.944  20.547   8.798
    7AU       S 2476  22.748  20.401   8.313
    7AU     LIG 2477  23.196  20.445   8.373
    7AU     LIG 2478  23.351  20.811   8.619
    7AU     LIG 2479  23.470  21.062   8.988
    7AU       S 2480  22.310  20.043   6.323
    7AU     LIG 2481  22.673  20.017   6.003
    7AU     LIG 2482  22.861  19.643   5.831
    7AU     LIG 2483  22.699  19.279   5.600
    7AU       S 2484  22.692  20.650   6.805
    7AU     LIG 2485  22.885  20.875   6.450
    7AU     LIG 2486  23.117  21.150   6.132
    7AU     LIG 2487  23.490  21.410   5.984
    7AU       S 2488  22.842  19.445   6.799
    7AU     LIG 2489  22.847  19.395   6.311
    7AU     LIG 2490  22.864  18.966   6.126
    7AU     LIG 2491  22.993  18.501   6.229
    7AU       S 2492  22.298  19.851   6.267
    7AU     LIG 2493  22.370  19.519   5.989
    7AU     LIG 2494  22.188  19.379   5.586
    7AU     LIG 2495  22.394  19.442   5.194
    7AU       S 2496  21.486  19.723   6.322
    7AU     LIG 2497  21.523  19.761   5.882
    7AU     LIG 2498  21.620  19.627   5.455
    7AU     LIG 2499  21.413  19.768   5.054
    7AU       S 2500  22.054  20.207   6.428
    7AU     LIG 2501  21.851  20.089   6.074
    7AU     LIG 2502  22.032  19.866   5.727
    7AU     LIG 2503  22.466  19.817   5.545
    7AU       S 2504  21.325  20.139   8.705
    7AU     LIG 2505  21.068  19.792   8.782
    7AU     LIG 2506  20.919  19.495   9.045
    7AU     LIG 2507  20.771  19.489   9.473
    7AU       S 2508  21.274  20.727   8.189
    7AU     LIG 2509  21.046  20.948   8.502
    7AU     LIG 2510  20.660  20.997   8.778
    7AU     LIG 2511  20.329  21.235   9.030
    7AU       S 2512  21.055  19.489   8.382
    7AU     LIG 2513  20.674  19.343   8.565
    7AU     LIG 2514  20.367  19.054   8.382
    7AU     LIG 2515  20.288  18.636   8.521
    7AU       S 2516  21.560  19.799   8.640
    7AU     LIG 2517  21.454  19.480   8.948
    7AU     LIG 2518  21.304  19.389   9.383
    7AU     LIG 2519  21.151  19.523   9.818
    7AU       S 2520  21.303  19.655   6.431
    7AU     LIG 2521  21.112  19.394   6.118
    7AU     LIG 2522  21.149  19.489   5.661
    7AU     LIG 2523  21.186  19.927   5.484
    7AU       S 2524  21.264  19.185   6.806
    7AU     LIG 2525  21.133  18.788   6.705
    7AU     LIG 2526  20.892  18.774   6.328
    7AU     LIG 2527  20.597  18.857   5.990
    7AU       S 2528  20.985  20.345   6.724
    7AU     LIG 2529  20.705  20.675   6.847
    7AU     LIG 2530  20.753  21.013   6.566
    7AU     LIG 2531  20.762  21.046   6.092
    7AU       S 2532  21.496  20.004   6.438
    7AU     LIG 2533  21.313  20.190   6.122
    7AU     LIG 2534  21.493  20.274   5.721
    7AU     LIG 2535  21.704  20.119   5.346
    7AU       S 2536  22.810  20.495   6.834
    7AU     LIG 2537  23.247  20.665   6.773
    7AU     LIG 2538  23.404  20.788   6.351
    7AU     LIG 2539  23.514  20.900   5.892
    7AU       S 2540  23.106  20.350   7.705
    7AU     LIG 2541  23.104  20.769   7.558
    7AU     LIG 2542  23.481  20.942   7.661
    7AU     LIG 2543  23.884  20.880   7.500
    7AU       S 2544  23.120  20.172   7.622
    7AU     LIG 2545  23.449  20.441   7.343
    7AU     LIG 2546  23.789  20.627   7.066
    7AU     LIG 2547  24.195  20.501   6.876
    7AU       S 2548  23.055  19.296   7.776
    7AU     LIG 2549  23.400  19.042   7.948
    7AU     LIG 2550  23.850  19.076   7.911
    7AU     LIG 2551  24.074  19.255   7.571
    7AU       S 2552  22.713  20.677   8.227
    7AU     LIG 2553  23.134  20.834   8.067
    7AU     LIG 2554  23.354  21.183   8.263
    7AU     LIG 2555  23.195  21.400   8.648
    7AU       S 2556  22.976  20.089   7.897
    7AU     LIG 2557  23.382  20.103   8.046
    7AU     LIG 2558  23.560  20.468   7.896
    7AU     LIG 2559  23.946  20.589   7.967
    7AU       S 2560  21.156  20.552   8.130
    7AU     LIG 2561  20.785  20.509   8.393
    7AU     LIG 2562  20.362  20.627   8.574
    7AU     LIG 2563  20.057  20.825   8.871
    7AU       S 2564  21.302  20.898   7.390
    7AU     LIG 2565  21.009  21.176   7.317
    7AU     LIG 2566  20.677  21.237   7.033
    7AU     LIG 2567  20.284  21.234   6.814
    7AU       S 2568  20.746  20.107   7.070
    7AU     LIG 2569  20.268  20.039   7.126
    7AU     LIG 2570  19.819  20.214   7.135
    7AU     LIG 2571  19.621  20.638   7.082
    7AU       S 2572  21.185  20.765   6.890
    7AU     LIG 2573  21.183  21.212   6.831
    7AU     LIG 2574  20.858  21.508   6.628
    7AU     LIG 2575  20.490  21.407   6.360
    7AU       S 2576  20.717  19.690   7.580
    7AU     LIG 2577  20.407  19.563   7.270
    7AU     LIG 2578  19.933  19.596   7.169
    7AU     LIG 2579  19.498  19.804   7.104
    7AU       S 2580  20.895  20.126   8.044
    7AU     LIG 2581  20.493  20.114   8.200
    7AU     LIG 2582  20.210  20.462   8.111
    7AU     LIG 2583  20.220  20.899   7.947
    7AU       S 2584  22.733  19.175   7.646
    7AU     LIG 2585  22.833  18.767   7.512
    7AU     LIG 2586  23.240  18.634   7.603
    7AU     LIG 2587  23.603  18.897   7.491
    7AU       S 2588  22.616  19.107   8.135
    7AU     LIG 2589  22.935  18.841   8.009
    7AU     LIG 2590  23.151  18.688   8.359
    7AU     LIG 2591  23.187  18.700   8.820
    7AU       S 2592  23.027  19.239   7.570
    7AU     LIG 2593  23.243  19.262   7.185
    7AU     LIG 2594  23.702  19.229   7.099
    7AU     LIG 2595  24.002  18.892   7.140
    7AU       S 2596  22.763  19.188   6.916
    7AU     LIG 2597  22.774  18.812   6.654
    7AU     LIG 2598  22.733  18.343   6.651
    7AU     LIG 2599  22.979  17.967   6.455
    7AU       S 2600  21.145  19.293   6.863
    7AU     LIG 2601  20.857  19.466   6.636
    7AU     LIG 2602  20.621  19.247   6.334
    7AU     LIG 2603  20.228  19.004   6.325
    7AU       S 2604  20.765  19.446   7.620
    7AU     LIG 2605  20.482  19.173   7.750
    7AU     LIG 2606  20.320  19.076   7.375
    7AU     LIG 2607  19.995  19.056   7.073
    7AU       S 2608  21.117  19.293   8.318
    7AU     LIG 2609  20.854  19.081   8.095
    7AU     LIG 2610  20.681  18.699   8.187
    7AU     LIG 2611  20.310  18.620   8.000
    7AU       S 2612  20.775  19.732   7.764
    7AU     LIG 2613  20.617  19.558   8.111
    7AU     LIG 2614  20.188  19.436   8.080
    7AU     LIG 2615  20.036  19.430   7.646
    7AU       S 2616  21.390  20.922   7.885
    7AU     LIG 2617  20.930  21.004   7.949
    7AU     LIG 2618  20.594  20.977   8.265
    7AU     LIG 2619  20.232  21.151   8.496
    7AU       S 2620  22.004  21.086   7.894
    7AU     LIG 2621  22.225  21.110   8.290
    7AU     LIG 2622  22.225  21.578   8.287
    7AU     LIG 2623  21.878  21.881   8.202
    7AU       S 2624  22.168  21.239   7.794
    7AU     LIG 2625  21.883  21.580   7.736
    7AU     LIG 2626  21.782  22.019   7.686
    7AU     LIG 2627  21.884  22.351   7.975
    7AU       S 2628  22.007  21.053   7.041
    7AU     LIG 2629  22.035  21.450   7.268
    7AU     LIG 2630  22.127  21.922   7.320
    7AU     LIG 2631  22.318  22.310   7.073
    7AU       S 2632  22.469  20.629   8.387
    7AU     LIG 2633  22.691  21.001   8.593
    7AU     LIG 2634  22.962  21.044   8.941
    7AU     LIG 2635  23.113  20.741   9.256
    7AU       S 2636  22.291  21.087   7.563
    7AU     LIG 2637  22.422  21.591   7.582
    7AU     LIG 2638  22.260  21.928   7.864
    7AU     LIG 2639  22.325  22.162   8.267
    7AU       S 2640  21.775  18.790   8.085
    7AU     LIG 2641  22.127  18.542   8.221
    7AU     LIG 2642  22.306  18.191   8.424
    7AU     LIG 2643  22.077  17.842   8.622
    7AU       S 2644  22.381  19.073   7.982
    7AU     LIG 2645  22.459  18.679   7.855
    7AU     LIG 2646  22.785  18.357   7.881
    7AU     LIG 2647  23.229  18.303   8.048
    7AU       S 2648  21.584  18.720   7.916
    7AU     LIG 2649  21.580  18.243   7.906
    7AU     LIG 2650  21.634  17.760   7.969
    7AU     LIG 2651  21.759  17.490   8.343
    7AU       S 2652  21.342  19.401   8.464
    7AU     LIG 2653  21.105  19.107   8.770
    7AU     LIG 2654  20.694  18.863   8.764
    7AU     LIG 2655  20.306  18.744   9.018
    7AU       S 2656  22.070  18.760   7.295
    7AU     LIG 2657  22.077  18.330   7.038
    7AU     LIG 2658  21.782  18.070   6.821
    7AU     LIG 2659  21.471  17.783   7.000
    7AU       S 2660  21.944  18.826   7.864
    7AU     LIG 2661  22.025  18.454   7.697
    7AU     LIG 2662  22.291  18.159   7.891
    7AU     LIG 2663  22.144  17.809   8.121
    7AU       S 2664  21.862  20.963   6.757
    7AU     LIG 2665  21.791  21.444   6.802
    7AU     LIG 2666  22.058  21.841   6.822
    7AU     LIG 2667  22.424  22.097   6.618
    7AU       S 2668  22.636  20.750   7.118
    7AU     LIG 2669  22.960  21.033   6.998
    7AU     LIG 2670  23.230  21.196   6.664
    7AU     LIG 2671  23.528  21.500   6.489
    7AU       S 2672  21.663  20.974   7.019
    7AU     LIG 2673  21.527  21.337   7.235
    7AU     LIG 2674  21.641  21.784   7.208
    7AU     LIG 2675  21.774  22.211   7.077
    7AU       S 2676  21.204  20.386   6.617
    7AU     LIG 2677  21.181  20.768   6.382
    7AU     LIG 2678  21.180  21.228   6.315
    7AU     LIG 2679  20.918  21.553   6.095
    7AU       S 2680  21.183  19.126   7.122
    7AU     LIG 2681  20.727  19.130   7.074
    7AU     LIG 2682  20.575  18.894   6.723
    7AU     LIG 2683  20.432  18.549   6.437
    7AU       S 2684  22.036  18.804   7.156
    7AU     LIG 2685  22.269  18.713   6.770
    7AU     LIG 2686  22.162  18.347   6.521
    7AU     LIG 2687  22.082  17.919   6.376
    7AU       S 2688  22.319  18.880   7.412
    7AU     LIG 2689  22.463  18.424   7.414
    7AU     LIG 2690  22.601  18.113   7.124
    7AU     LIG 2691  22.383  17.970   6.776
    7AU       S 2692  22.549  19.329   6.690
    7AU     LIG 2693  22.411  19.065   6.380
    7AU     LIG 2694  22.490  18.623   6.253
    7AU     LIG 2695  22.547  18.142   6.216
    8AU     AUC 2696  14.866  15.826   7.531
    8AU     AUC 2697  15.118  15.828   7.364
    8AU     AUC 2698  15.109  15.827   7.700
    8AU     AUC 2699  14.600  15.820   7.377
    8AU     AUC 2700  14.622  15.867   7.699
    8AU     AUC 2701  14.702  16.082   7.493
    8AU     AUC 2702  15.037  16.086   7.494
    8AU     AUC 2703  14.699  15.574   7.553
    8AU     AUC 2704  15.030  15.558   7.554
    8AU     AUC 2705  14.868  15.678   7.801
    8AU     AUC 2706  14.871  16.020   7.765
    8AU     AUC 2707  14.863  15.640   7.288
    8AU     AUC 2708  14.875  15.944   7.262
    8AU     AUC 2709  15.433  15.825   7.211
    8AU     AUC 2710  15.434  15.814   7.549
    8AU     AUC 2711  15.400  15.816   7.904
    8AU     AUC 2712  14.300  15.775   7.238
    8AU     AUC 2713  14.293  15.855   7.559
    8AU     AUC 2714  14.326  15.917   7.875
    8AU     AUC 2715  14.538  16.386   7.429
    8AU     AUC 2716  14.894  16.378   7.415
    8AU     AUC 2717  15.229  16.368   7.453
    8AU     AUC 2718  14.510  15.278   7.578
    8AU     AUC 2719  14.856  15.261   7.556
    8AU     AUC 2720  15.206  15.259   7.565
    8AU     AUC 2721  14.841  15.525   8.113
    8AU     AUC 2722  14.858  15.873   8.096
    8AU     AUC 2723  14.902  16.231   8.049
    8AU     AUC 2724  14.902  15.447   7.009
    8AU     AUC 2725  14.844  15.774   6.957
    8AU     AUC 2726  14.830  16.090   6.942
    8AU     AUC 2727  15.111  15.635   8.017
    8AU     AUC 2728  15.145  15.990   7.997
    8AU     AUC 2729  15.171  15.659   7.071
    8AU     AUC 2730  15.129  15.964   7.078
    8AU     AUC 2731  14.579  15.752   8.012
    8AU     AUC 2732  14.612  16.100   7.953
    8AU     AUC 2733  14.588  15.592   7.112
    8AU     AUC 2734  14.538  15.911   7.072
    8AU     AUC 2735  15.358  16.097   7.352
    8AU     AUC 2736  15.300  16.078   7.692
    8AU     AUC 2737  14.399  16.087   7.366
    8AU     AUC 2738  14.450  16.181   7.686
    8AU     AUC 2739  15.334  15.554   7.408
    8AU     AUC 2740  15.281  15.511   7.749
    8AU     AUC 2741  14.408  15.508   7.401
    8AU     AUC 2742  14.433  15.602   7.734
    8AU     AUC 2743  14.761  16.336   7.743
    8AU     AUC 2744  15.068  16.298   7.766
    8AU     AUC 2745  14.682  15.401   7.840
    8AU     AUC 2746  14.988  15.347   7.829
    8AU     AUC 2747  14.668  16.235   7.179
    8AU     AUC 2748  15.034  16.263   7.198
    8AU     AUC 2749  14.722  15.346   7.280
    8AU     AUC 2750  15.088  15.395   7.281
    8AU    AUSL 2751  15.377  15.757   8.306
    8AU    AUSL 2752  15.124  15.366   8.236
    8AU     AUL 2753  15.426  15.407   8.408
    8AU    AUSL 2754  14.961  15.696   8.459
    8AU    AUSL 2755  14.714  16.088   8.438
    8AU     AUL 2756  14.946  15.997   8.724
    8AU    AUSL 2757  15.052  16.044   8.183
    8AU    AUSL 2758  15.502  16.134   8.121
    8AU     AUL 2759  15.326  16.063   8.444
    8AU    AUSL 2760  15.297  15.848   6.853
    8AU    AUSL 2761  15.133  16.233   6.977
    8AU     AUL 2762  15.367  16.174   6.691
    8AU    AUSL 2763  15.118  15.536   6.606
    8AU    AUSL 2764  15.622  15.604   6.990
    8AU     AUL 2765  15.490  15.699   6.657
    8AU    AUSL 2766  14.926  15.988   6.676
    8AU    AUSL 2767  14.752  15.598   6.823
    8AU     AUL 2768  14.855  15.654   6.490
    8AU    AUSL 2769  14.327  16.039   8.222
    8AU    AUSL 2770  14.673  16.345   8.091
    8AU     AUL 2771  14.501  16.317   8.408
    8AU    AUSL 2772  14.633  15.730   8.188
    8AU    AUSL 2773  14.203  15.611   8.145
    8AU     AUL 2774  14.169  15.820   8.309
    8AU    AUSL 2775  14.313  15.572   6.808
    8AU    AUSL 2776  14.566  15.246   6.983
    8AU     AUL 2777  14.607  15.288   6.665
    8AU    AUSL 2778  14.493  15.939   6.660
    8AU    AUSL 2779  14.215  15.935   7.040
    8AU     AUL 2780  14.095  15.787   6.786
    8AU    AUSL 2781  15.632  16.321   7.507
    8AU    AUSL 2782  15.542  16.084   7.117
    8AU     AUL 2783  15.858  16.322   7.184
    8AU    AUSL 2784  15.830  15.916   7.395
    8AU    AUSL 2785  15.789  15.605   7.760
    8AU     AUL 2786  16.091  15.653   7.538
    8AU    AUSL 2787  15.549  15.958   7.739
    8AU    AUSL 2788  15.299  16.346   7.782
    8AU     AUL 2789  15.633  16.344   7.849
    8AU    AUSL 2790  14.287  16.463   7.472
    8AU    AUSL 2791  14.326  16.234   7.841
    8AU     AUL 2792  14.013  16.474   7.687
    8AU    AUSL 2793  14.100  16.064   7.431
    8AU    AUSL 2794  14.230  16.367   7.060
    8AU     AUL 2795  13.999  16.289   7.220
    8AU    AUSL 2796  13.956  16.036   7.869
    8AU    AUSL 2797  13.934  15.672   7.378
    8AU     AUL 2798  13.784  16.011   7.555
    8AU    AUSL 2799  15.551  15.259   7.621
    8AU    AUSL 2800  15.393  15.548   7.933
    8AU     AUL 2801  15.699  15.447   7.999
    8AU    AUSL 2802  15.516  15.629   7.400
    8AU    AUSL 2803  15.516  15.214   7.190
    8AU     AUL 2804  15.762  15.428   7.274
    8AU    AUSL 2805  14.115  15.306   7.596
    8AU    AUSL 2806  14.297  15.504   7.227
    8AU     AUL 2807  13.942  15.387   7.263
    8AU    AUSL 2808  14.197  15.717   7.730
    8AU    AUSL 2809  14.437  15.356   7.879
    8AU     AUL 2810  14.116  15.343   7.935
    8AU    AUSL 2811  14.935  16.640   7.904
    8AU    AUSL 2812  14.482  16.645   7.819
    8AU     AUL 2813  14.707  16.689   8.164
    8AU    AUSL 2814  14.763  16.526   7.522
    8AU    AUSL 2815  15.004  16.639   7.171
    8AU     AUL 2816  14.755  16.874   7.465
    8AU    AUSL 2817  15.201  16.688   7.552
    8AU    AUSL 2818  15.184  16.447   8.193
    8AU     AUL 2819  15.298  16.690   7.913
    8AU    AUSL 2820  14.815  15.171   8.002
    8AU    AUSL 2821  15.241  15.136   7.886
    8AU     AUL 2822  14.997  15.073   8.259
    8AU    AUSL 2823  14.508  14.963   7.733
    8AU    AUSL 2824  14.568  15.335   8.312
    8AU     AUL 2825  14.495  15.042   8.081
    8AU    AUSL 2826  14.950  14.887   7.696
    8AU    AUSL 2827  14.730  15.132   7.395
    8AU     AUL 2828  14.653  14.771   7.503
    8AU    AUSL 2829  14.834  16.467   6.779
    8AU    AUSL 2830  15.404  16.498   7.189
    8AU     AUL 2831  15.148  16.572   6.862
    8AU    AUSL 2832  14.579  16.598   7.137
    8AU    AUSL 2833  14.610  16.170   6.991
    8AU     AUL 2834  14.504  16.437   6.783
    8AU    AUSL 2835  14.954  15.061   7.014
    8AU    AUSL 2836  14.321  15.063   7.303
    8AU     AUL 2837  14.614  14.931   7.063
    8AU    AUSL 2838  15.164  15.119   7.405
    8AU    AUSL 2839  15.179  15.430   7.015
    8AU     AUL 2840  15.270  15.065   7.012
    8AU       S 2841  15.441  14.948   8.289
    8AU     LIG 2842  15.634  14.519   8.312
    8AU     LIG 2843  15.781  14.119   8.499
    8AU     LIG 2844  16.230  13.940   8.617
    8AU       S 2845  15.343  15.704   8.756
    8AU     LIG 2846  15.660  16.035   8.839
    8AU     LIG 2847  15.860  15.985   9.258
    8AU     LIG 2848  15.820  15.690   9.631
    8AU       S 2849  14.995  15.526   8.668
    8AU     LIG 2850  15.026  15.555   9.134
    8AU     LIG 2851  15.361  15.448   9.479
    8AU     LIG 2852  15.662  15.188   9.761
    8AU       S 2853  14.505  15.886   8.652
    8AU     LIG 2854  14.569  15.868   9.108
    8AU     LIG 2855  14.198  15.801   9.388
    8AU     LIG 2856  13.901  15.951   9.740
    8AU       S 2857  14.949  16.455   8.579
    8AU     LIG 2858  15.149  16.720   8.849
    8AU     LIG 2859  15.513  16.641   9.095
    8AU     LIG 2860  15.918  16.459   9.050
    8AU       S 2861  15.679  16.350   8.324
    8AU     LIG 2862  16.046  16.400   8.564
    8AU     LIG 2863  16.303  16.730   8.797
    8AU     LIG 2864  16.512  17.112   9.011
    8AU       S 2865  15.241  15.940   6.317
    8AU     LIG 2866  15.568  15.938   5.972
    8AU     LIG 2867  15.753  15.537   5.881
    8AU     LIG 2868  15.626  15.146   5.679
    8AU       S 2869  15.589  16.584   6.767
    8AU     LIG 2870  15.549  16.955   6.517
    8AU     LIG 2871  15.757  17.097   6.124
    8AU     LIG 2872  16.150  17.312   6.009
    8AU       S 2873  15.800  15.359   6.789
    8AU     LIG 2874  15.840  15.230   6.314
    8AU     LIG 2875  15.778  14.828   6.092
    8AU     LIG 2876  15.826  14.357   6.169
    8AU       S 2877  15.234  15.733   6.258
    8AU     LIG 2878  15.256  15.388   5.986
    8AU     LIG 2879  15.125  15.271   5.555
    8AU     LIG 2880  15.269  15.374   5.120
    8AU       S 2881  14.428  15.591   6.340
    8AU     LIG 2882  14.642  15.457   5.981
    8AU     LIG 2883  14.639  15.459   5.525
    8AU     LIG 2884  14.861  15.691   5.203
    8AU       S 2885  14.989  16.094   6.417
    8AU     LIG 2886  14.772  15.945   6.061
    8AU     LIG 2887  15.012  15.762   5.728
    8AU     LIG 2888  15.412  15.693   5.523
    8AU       S 2889  14.297  16.014   8.706
    8AU     LIG 2890  13.974  15.739   8.750
    8AU     LIG 2891  13.839  15.477   9.054
    8AU     LIG 2892  13.752  15.532   9.482
    8AU       S 2893  14.226  16.617   8.191
    8AU     LIG 2894  14.148  16.725   8.603
    8AU     LIG 2895  13.757  16.820   8.835
    8AU     LIG 2896  13.453  17.098   9.040
    8AU       S 2897  14.097  15.373   8.423
    8AU     LIG 2898  13.691  15.413   8.293
    8AU     LIG 2899  13.333  15.122   8.291
    8AU     LIG 2900  13.108  14.764   8.498
    8AU       S 2901  14.504  15.699   8.611
    8AU     LIG 2902  14.350  15.441   8.955
    8AU     LIG 2903  14.208  15.286   9.371
    8AU     LIG 2904  14.147  15.468   9.808
    8AU       S 2905  14.245  15.504   6.454
    8AU     LIG 2906  14.088  15.373   6.057
    8AU     LIG 2907  14.206  15.659   5.733
    8AU     LIG 2908  14.107  15.903   5.341
    8AU       S 2909  14.229  15.071   6.826
    8AU     LIG 2910  14.264  14.974   6.405
    8AU     LIG 2911  14.092  14.612   6.206
    8AU     LIG 2912  13.730  14.400   6.022
    8AU       S 2913  13.906  16.200   6.735
    8AU     LIG 2914  13.678  16.559   6.596
    8AU     LIG 2915  13.766  17.002   6.484
    8AU     LIG 2916  13.722  17.301   6.138
    8AU       S 2917  14.429  15.871   6.440
    8AU     LIG 2918  14.119  15.981   6.178
    8AU     LIG 2919  14.245  16.166   5.796
    8AU     LIG 2920  14.581  15.983   5.549
    8AU       S 2921  15.712  16.464   6.784
    8AU     LIG 2922  15.883  16.602   6.362
    8AU     LIG 2923  16.185  16.795   6.108
    8AU     LIG 2924  16.579  16.997   6.161
    8AU       S 2925  16.031  16.351   7.624
    8AU     LIG 2926  16.179  16.675   7.323
    8AU     LIG 2927  16.628  16.728   7.398
    8AU     LIG 2928  16.837  16.605   7.808
    8AU       S 2929  16.045  16.108   7.575
    8AU     LIG 2930  16.410  16.214   7.313
    8AU     LIG 2931  16.855  16.261   7.377
    8AU     LIG 2932  17.220  16.229   7.090
    8AU       S 2933  16.018  15.223   7.752
    8AU     LIG 2934  16.180  15.154   8.145
    8AU     LIG 2935  16.633  15.098   8.140
    8AU     LIG 2936  16.857  15.208   7.748
    8AU       S 2937  15.643  16.613   8.220
    8AU     LIG 2938  16.011  16.869   8.368
    8AU     LIG 2939  16.187  17.222   8.621
    8AU     LIG 2940  16.111  17.444   9.037
    8AU       S 2941  15.976  16.039   7.850
    8AU     LIG 2942  16.465  16.190   7.827
    8AU     LIG 2943  16.899  16.104   7.897
    8AU     LIG 2944  17.220  16.341   8.124
    8AU       S 2945  14.127  16.443   8.129
    8AU     LIG 2946  13.866  16.320   8.468
    8AU     LIG 2947  13.448  16.481   8.579
    8AU     LIG 2948  13.170  16.689   8.885
    8AU       S 2949  14.215  16.773   7.381
    8AU     LIG 2950  14.055  17.158   7.512
    8AU     LIG 2951  13.881  17.274   7.127
    8AU     LIG 2952  13.654  16.914   6.973
    8AU       S 2953  13.699  15.949   7.090
    8AU     LIG 2954  13.273  16.093   6.942
    8AU     LIG 2955  12.803  16.216   6.971
    8AU     LIG 2956  12.612  16.568   7.235
    8AU       S 2957  14.088  16.622   6.888
    8AU     LIG 2958  14.229  16.990   6.715
    8AU     LIG 2959  14.093  17.397   6.659
    8AU     LIG 2960  13.734  17.659   6.525
    8AU       S 2961  13.705  15.560   7.646
    8AU     LIG 2962  13.307  15.669   7.478
    8AU     LIG 2963  12.977  15.726   7.154
    8AU     LIG 2964  12.525  15.632   7.105
    8AU       S 2965  13.821  16.047   8.048
    8AU     LIG 2966  13.379  16.134   8.188
    8AU     LIG 2967  12.982  16.365   8.091
    8AU     LIG 2968  12.657  16.572   7.798
    8AU       S 2969  15.704  15.094   7.633
    8AU     LIG 2970  15.805  14.680   7.475
    8AU     LIG 2971  16.232  14.558   7.603
    8AU     LIG 2972  16.620  14.712   7.802
    8AU       S 2973  15.617  15.027   8.138
    8AU     LIG 2974  15.913  14.760   7.958
    8AU     LIG 2975  16.256  14.635   8.158
    8AU     LIG 2976  16.162  14.461   8.557
    8AU       S 2977  15.993  15.171   7.564
    8AU     LIG 2978  16.156  14.977   7.257
    8AU     LIG 2979  16.580  14.934   7.318
    8AU     LIG 2980  16.943  15.103   7.128
    8AU       S 2981  15.734  15.105   6.922
    8AU     LIG 2982  15.742  14.773   6.633
    8AU     LIG 2983  15.696  14.335   6.684
    8AU     LIG 2984  15.498  14.033   6.457
    8AU       S 2985  14.086  15.177   6.886
    8AU     LIG 2986  13.826  15.201   6.527
    8AU     LIG 2987  13.646  14.840   6.318
    8AU     LIG 2988  13.312  14.516   6.335
    8AU       S 2989  13.724  15.338   7.690
    8AU     LIG 2990  13.354  15.181   7.774
    8AU     LIG 2991  13.083  15.163   7.444
    8AU     LIG 2992  12.680  15.129   7.256
    8AU       S 2993  14.122  15.137   8.340
    8AU     LIG 2994  13.787  14.976   8.047
    8AU     LIG 2995  13.414  14.701   7.996
    8AU     LIG 2996  13.309  14.360   8.265
    8AU       S 2997  13.759  15.604   7.823
    8AU     LIG 2998  13.358  15.656   8.002
    8AU     LIG 2999  12.990  15.436   8.030
    8AU     LIG 3000  12.773  15.093   7.847
    8AU       S 3001  14.357  16.806   7.858
    8AU     LIG 3002  14.012  17.029   8.016
    8AU     LIG 3003  13.730  16.848   8.312
    8AU     LIG 3004  13.367  17.018   8.531
    8AU       S 3005  14.940  16.987   7.876
    8AU     LIG 3006  15.189  17.073   8.240
    8AU     LIG 3007  15.149  17.534   8.330
    8AU     LIG 3008  14.820  17.827   8.491
    8AU       S 3009  15.086  17.142   7.740
    8AU     LIG 3010  14.880  17.519   7.861
    8AU     LIG 3011  14.614  17.854   8.001
    8AU     LIG 3012  14.201  18.038   7.908
    8AU       S 3013  14.915  16.948   7.027
    8AU     LIG 3014  14.899  17.350   7.265
    8AU     LIG 3015  15.102  17.769   7.217
    8AU     LIG 3016  15.150  18.058   6.856
    8AU       S 3017  15.394  16.551   8.373
    8AU     LIG 3018  15.577  16.890   8.634
    8AU     LIG 3019  15.884  16.977   8.956
    8AU     LIG 3020  16.164  16.846   9.303
    8AU       S 3021  15.219  16.970   7.527
    8AU     LIG 3022  15.377  17.451   7.510
    8AU     LIG 3023  15.326  17.766   7.854
    8AU     LIG 3024  15.128  18.056   8.149
    8AU       S 3025  14.810  14.677   8.101
    8AU     LIG 3026  15.154  14.347   8.178
    8AU     LIG 3027  15.227  13.897   8.322
    8AU     LIG 3028  15.025  13.465   8.396
    8AU       S 3029  15.381  14.999   7.992
    8AU     LIG 3030  15.437  14.630   7.832
    8AU     LIG 3031  15.592  14.249   7.872
    8AU     LIG 3032  16.015  14.198   8.047
    8AU       S 3033  14.610  14.603   7.937
    8AU     LIG 3034  14.708  14.143   7.979
    8AU     LIG 3035  14.781  13.682   7.996
    8AU     LIG 3036  14.526  13.349   8.131
    8AU       S 3037  14.355  15.255   8.491
    8AU     LIG 3038  14.024  15.057   8.813
    8AU     LIG 3039  13.632  14.811   8.672
    8AU     LIG 3040  13.385  14.408   8.777
    8AU       S 3041  15.053  14.672   7.293
    8AU     LIG 3042  14.951  14.232   7.203
    8AU     LIG 3043  14.891  14.038   6.889
    8AU     LIG 3044  14.949  13.640   7.099
    8AU       S 3045  14.950  14.716   7.878
    8AU     LIG 3046  15.053  14.343   7.675
    8AU     LIG 3047  15.180  13.936   7.821
    8AU     LIG 3048  15.360  13.511   7.975
    8AU       S 3049  14.765  16.837   6.741
    8AU     LIG 3050  14.673  17.273   6.717
    8AU     LIG 3051  14.944  17.624   6.721
    8AU     LIG 3052  14.983  17.977   6.388
    8AU       S 3053  15.555  16.679   7.088
    8AU     LIG 3054  15.895  16.952   6.916
    8AU     LIG 3055  16.101  17.106   6.520
    8AU     LIG 3056  16.444  17.423   6.413
    8AU       S 3057  14.587  16.844   7.019
    8AU     LIG 3058  14.415  17.195   7.162
    8AU     LIG 3059  14.405  17.585   7.015
    8AU     LIG 3060  14.479  17.763   6.607
    8AU       S 3061  14.124  16.250   6.625
    8AU     LIG 3062  14.137  16.622   6.356
    8AU     LIG 3063  14.192  17.082   6.204
    8AU     LIG 3064  14.173  17.567   6.187
    8AU       S 3065  14.135  14.970   7.107
    8AU     LIG 3066  13.855  14.732   6.797
    8AU     LIG 3067  13.781  14.360   6.558
    8AU     LIG 3068  13.523  14.039   6.331
    8AU       S 3069  15.018  14.707   7.144
    8AU     LIG 3070  15.208  14.476   6.807
    8AU     LIG 3071  15.028  14.240   6.448
    8AU     LIG 3072  14.798  13.883   6.303
    8AU       S 3073  15.297  14.790   7.391
    8AU     LIG 3074  15.445  14.337   7.306
    8AU     LIG 3075  15.389  13.999   6.964
    8AU     LIG 3076  15.166  13.695   6.640
    8AU       S 3077  15.524  15.240   6.685
    8AU     LIG 3078  15.358  15.013   6.369
    8AU     LIG 3079  15.381  14.568   6.303
    8AU     LIG 3080  15.342  14.216   6.004
    9AU     AUC 3081   5.950  26.873   7.526
    9AU     AUC 3082   6.203  26.872   7.359
    9AU     AUC 3083   6.193  26.870   7.694
    9AU     AUC 3084   5.682  26.870   7.372
    9AU     AUC 3085   5.707  26.918   7.693
    9AU     AUC 3086   5.789  27.132   7.487
    9AU     AUC 3087   6.124  27.131   7.488
    9AU     AUC 3088   5.779  26.624   7.549
    9AU     AUC 3089   6.111  26.604   7.549
    9AU     AUC 3090   5.950  26.726   7.798
    9AU     AUC 3091   5.956  27.067   7.760
    9AU     AUC 3092   5.944  26.687   7.284
    9AU     AUC 3093   5.960  26.991   7.256
    9AU     AUC 3094   6.520  26.868   7.205
    9AU     AUC 3095   6.518  26.857   7.542
    9AU     AUC 3096   6.484  26.858   7.898
    9AU     AUC 3097   5.380  26.829   7.235
    9AU     AUC 3098   5.377  26.912   7.554
    9AU     AUC 3099   5.411  26.974   7.869
    9AU     AUC 3100   5.630  27.439   7.423
    9AU     AUC 3101   5.986  27.425   7.409
    9AU     AUC 3102   6.319  27.412   7.447
    9AU     AUC 3103   5.585  26.331   7.577
    9AU     AUC 3104   5.933  26.310   7.551
    9AU     AUC 3105   6.286  26.306   7.559
    9AU     AUC 3106   5.923  26.572   8.108
    9AU     AUC 3107   5.941  26.918   8.090
    9AU     AUC 3108   5.990  27.276   8.044
    9AU     AUC 3109   5.977  26.491   7.006
    9AU     AUC 3110   5.925  26.819   6.954
    9AU     AUC 3111   5.917  27.135   6.938
    9AU     AUC 3112   6.195  26.678   8.012
    9AU     AUC 3113   6.229  27.032   7.993
    9AU     AUC 3114   6.252  26.701   7.068
    9AU     AUC 3115   6.216  27.008   7.076
    9AU     AUC 3116   5.661  26.804   8.008
    9AU     AUC 3117   5.699  27.150   7.947
    9AU     AUC 3118   5.665  26.640   7.111
    9AU     AUC 3119   5.623  26.959   7.067
    9AU     AUC 3120   6.447  27.141   7.345
    9AU     AUC 3121   6.384  27.119   7.687
    9AU     AUC 3122   5.487  27.141   7.359
    9AU     AUC 3123   5.539  27.236   7.680
    9AU     AUC 3124   6.418  26.596   7.401
    9AU     AUC 3125   6.366  26.556   7.742
    9AU     AUC 3126   5.484  26.561   7.400
    9AU     AUC 3127   5.513  26.657   7.730
    9AU     AUC 3128   5.853  27.385   7.738
    9AU     AUC 3129   6.157  27.342   7.761
    9AU     AUC 3130   5.761  26.453   7.835
    9AU     AUC 3131   6.070  26.396   7.824
    9AU     AUC 3132   5.757  27.284   7.174
    9AU     AUC 3133   6.125  27.310   7.190
    9AU     AUC 3134   5.795  26.394   7.279
    9AU     AUC 3135   6.165  26.439   7.277
    9AU    AUSL 3136   6.458  26.798   8.303
    9AU    AUSL 3137   6.219  26.403   8.234
    9AU     AUL 3138   6.520  26.452   8.406
    9AU    AUSL 3139   6.039  26.733   8.447
    9AU    AUSL 3140   5.798  27.134   8.432
    9AU     AUL 3141   6.018  27.028   8.715
    9AU    AUSL 3142   6.136  27.086   8.178
    9AU    AUSL 3143   6.587  27.171   8.115
    9AU     AUL 3144   6.406  27.103   8.445
    9AU    AUSL 3145   6.380  26.888   6.861
    9AU    AUSL 3146   6.224  27.277   6.970
    9AU     AUL 3147   6.442  27.210   6.680
    9AU    AUSL 3148   6.196  26.585   6.605
    9AU    AUSL 3149   6.705  26.637   6.980
    9AU     AUL 3150   6.569  26.738   6.654
    9AU    AUSL 3151   6.009  27.025   6.679
    9AU    AUSL 3152   5.827  26.636   6.822
    9AU     AUL 3153   5.925  26.683   6.489
    9AU    AUSL 3154   5.410  27.094   8.215
    9AU    AUSL 3155   5.766  27.396   8.087
    9AU     AUL 3156   5.596  27.371   8.398
    9AU    AUSL 3157   5.709  26.779   8.182
    9AU    AUSL 3158   5.279  26.665   8.141
    9AU     AUL 3159   5.240  26.877   8.297
    9AU    AUSL 3160   5.387  26.620   6.809
    9AU    AUSL 3161   5.633  26.292   6.987
    9AU     AUL 3162   5.666  26.329   6.672
    9AU    AUSL 3163   5.577  26.982   6.656
    9AU    AUSL 3164   5.302  26.990   7.034
    9AU     AUL 3165   5.176  26.841   6.784
    9AU    AUSL 3166   6.716  27.361   7.502
    9AU    AUSL 3167   6.641  27.132   7.102
    9AU     AUL 3168   6.964  27.391   7.232
    9AU    AUSL 3169   6.915  26.959   7.391
    9AU    AUSL 3170   6.875  26.649   7.752
    9AU     AUL 3171   7.175  26.697   7.517
    9AU    AUSL 3172   6.631  26.998   7.732
    9AU    AUSL 3173   6.385  27.387   7.779
    9AU     AUL 3174   6.722  27.386   7.828
    9AU    AUSL 3175   5.381  27.520   7.466
    9AU    AUSL 3176   5.419  27.290   7.836
    9AU     AUL 3177   5.110  27.536   7.677
    9AU    AUSL 3178   5.189  27.123   7.423
    9AU    AUSL 3179   5.322  27.422   7.055
    9AU     AUL 3180   5.090  27.349   7.214
    9AU    AUSL 3181   5.041  27.105   7.856
    9AU    AUSL 3182   5.012  26.735   7.382
    9AU     AUL 3183   4.865  27.073   7.541
    9AU    AUSL 3184   6.637  26.302   7.615
    9AU    AUSL 3185   6.479  26.592   7.928
    9AU     AUL 3186   6.785  26.493   7.995
    9AU    AUSL 3187   6.602  26.671   7.391
    9AU    AUSL 3188   6.594  26.252   7.185
    9AU     AUL 3189   6.844  26.463   7.263
    9AU    AUSL 3190   5.185  26.368   7.601
    9AU    AUSL 3191   5.370  26.559   7.228
    9AU     AUL 3192   5.009  26.455   7.276
    9AU    AUSL 3193   5.280  26.778   7.729
    9AU    AUSL 3194   5.514  26.409   7.875
    9AU     AUL 3195   5.196  26.399   7.931
    9AU    AUSL 3196   6.031  27.687   7.898
    9AU    AUSL 3197   5.578  27.699   7.814
    9AU     AUL 3198   5.807  27.740   8.159
    9AU    AUSL 3199   5.857  27.575   7.516
    9AU    AUSL 3200   6.099  27.686   7.165
    9AU     AUL 3201   5.853  27.923   7.458
    9AU    AUSL 3202   6.298  27.730   7.545
    9AU    AUSL 3203   6.272  27.488   8.190
    9AU     AUL 3204   6.392  27.729   7.912
    9AU    AUSL 3205   5.897  26.231   7.997
    9AU    AUSL 3206   6.321  26.184   7.874
    9AU     AUL 3207   6.080  26.119   8.247
    9AU    AUSL 3208   5.585  26.014   7.737
    9AU    AUSL 3209   5.643  26.383   8.307
    9AU     AUL 3210   5.578  26.092   8.076
    9AU    AUSL 3211   6.023  25.936   7.695
    9AU    AUSL 3212   5.805  26.179   7.395
    9AU     AUL 3213   5.720  25.816   7.509
    9AU    AUSL 3214   5.929  27.515   6.774
    9AU    AUSL 3215   6.499  27.542   7.179
    9AU     AUL 3216   6.251  27.620   6.851
    9AU    AUSL 3217   5.673  27.649   7.131
    9AU    AUSL 3218   5.699  27.220   6.982
    9AU     AUL 3219   5.603  27.491   6.777
    9AU    AUSL 3220   6.023  26.108   7.011
    9AU    AUSL 3221   5.391  26.119   7.314
    9AU     AUL 3222   5.680  25.975   7.071
    9AU    AUSL 3223   6.239  26.165   7.401
    9AU    AUSL 3224   6.257  26.469   7.011
    9AU     AUL 3225   6.347  26.105   7.013
    9AU       S 3226   6.524  25.996   8.274
    9AU     LIG 3227   6.703  25.583   8.360
    9AU     LIG 3228   6.628  25.171   8.575
    9AU     LIG 3229   6.960  24.883   8.752
    9AU       S 3230   6.409  26.736   8.754
    9AU     LIG 3231   6.728  27.017   8.894
    9AU     LIG 3232   6.946  26.920   9.292
    9AU     LIG 3233   6.997  26.815   9.745
    9AU       S 3234   6.068  26.559   8.655
    9AU     LIG 3235   6.060  26.638   9.113
    9AU     LIG 3236   6.452  26.625   9.407
    9AU     LIG 3237   6.701  26.387   9.749
    9AU       S 3238   5.571  26.937   8.651
    9AU     LIG 3239   5.511  26.838   9.105
    9AU     LIG 3240   5.173  26.934   9.371
    9AU     LIG 3241   5.078  26.895   9.825
    9AU       S 3242   6.052  27.489   8.585
    9AU     LIG 3243   6.307  27.815   8.761
    9AU     LIG 3244   6.715  27.720   8.940
    9AU     LIG 3245   6.986  27.425   9.166
    9AU       S 3246   6.774  27.353   8.294
    9AU     LIG 3247   6.993  27.408   8.644
    9AU     LIG 3248   7.234  27.740   8.823
    9AU     LIG 3249   7.475  28.097   8.997
    9AU       S 3250   6.318  26.974   6.311
    9AU     LIG 3251   6.693  26.913   6.005
    9AU     LIG 3252   6.873  26.528   5.844
    9AU     LIG 3253   6.706  26.198   5.574
    9AU       S 3254   6.705  27.580   6.766
    9AU     LIG 3255   6.699  27.979   6.588
    9AU     LIG 3256   6.896  28.125   6.203
    9AU     LIG 3257   7.157  28.289   5.864
    9AU       S 3258   6.870  26.391   6.777
    9AU     LIG 3259   6.927  26.210   6.324
    9AU     LIG 3260   6.986  25.760   6.192
    9AU     LIG 3261   7.166  25.358   6.380
    9AU       S 3262   6.303  26.779   6.260
    9AU     LIG 3263   6.375  26.436   5.976
    9AU     LIG 3264   6.199  26.308   5.554
    9AU     LIG 3265   6.422  26.336   5.141
    9AU       S 3266   5.496  26.631   6.340
    9AU     LIG 3267   5.547  26.667   5.916
    9AU     LIG 3268   5.659  26.478   5.544
    9AU     LIG 3269   5.524  26.592   5.140
    9AU       S 3270   6.056  27.127   6.425
    9AU     LIG 3271   5.860  27.022   6.069
    9AU     LIG 3272   6.065  26.779   5.754
    9AU     LIG 3273   6.491  26.725   5.542
    9AU       S 3274   5.372  27.083   8.689
    9AU     LIG 3275   5.055  26.825   8.749
    9AU     LIG 3276   5.091  26.518   9.033
    9AU     LIG 3277   5.022  26.451   9.476
    9AU       S 3278   5.328  27.698   8.194
    9AU     LIG 3279   5.295  27.703   8.640
    9AU     LIG 3280   4.967  27.586   8.940
    9AU     LIG 3281   4.565  27.804   9.064
    9AU       S 3282   5.158  26.433   8.417
    9AU     LIG 3283   4.740  26.384   8.252
    9AU     LIG 3284   4.551  25.966   8.386
    9AU     LIG 3285   4.426  25.728   8.768
    9AU       S 3286   5.578  26.752   8.596
    9AU     LIG 3287   5.637  26.406   8.884
    9AU     LIG 3288   5.496  26.326   9.288
    9AU     LIG 3289   5.485  26.616   9.629
    9AU       S 3290   5.315  26.555   6.452
    9AU     LIG 3291   5.120  26.300   6.154
    9AU     LIG 3292   5.113  26.470   5.735
    9AU     LIG 3293   5.232  26.822   5.505
    9AU       S 3294   5.283  26.109   6.835
    9AU     LIG 3295   5.011  25.864   6.550
    9AU     LIG 3296   4.899  25.810   6.103
    9AU     LIG 3297   4.542  25.665   5.843
    9AU       S 3298   5.007  27.261   6.723
    9AU     LIG 3299   4.711  27.579   6.820
    9AU     LIG 3300   4.644  27.953   6.566
    9AU     LIG 3301   4.550  28.045   6.112
    9AU       S 3302   5.508  26.913   6.437
    9AU     LIG 3303   5.301  27.088   6.126
    9AU     LIG 3304   5.483  27.204   5.739
    9AU     LIG 3305   5.725  26.982   5.427
    9AU       S 3306   6.841  27.408   6.796
    9AU     LIG 3307   7.094  27.672   6.462
    9AU     LIG 3308   7.371  27.919   6.181
    9AU     LIG 3309   7.664  28.157   5.926
    9AU       S 3310   7.148  27.364   7.666
    9AU     LIG 3311   7.410  27.628   7.409
    9AU     LIG 3312   7.808  27.869   7.487
    9AU     LIG 3313   7.965  28.015   7.895
    9AU       S 3314   7.113  27.136   7.624
    9AU     LIG 3315   7.450  27.093   7.337
    9AU     LIG 3316   7.814  27.343   7.289
    9AU     LIG 3317   8.142  27.598   7.190
    9AU       S 3318   7.116  26.272   7.760
    9AU     LIG 3319   7.475  26.035   7.952
    9AU     LIG 3320   7.931  25.997   7.964
    9AU     LIG 3321   8.194  25.878   7.645
    9AU       S 3322   6.735  27.627   8.216
    9AU     LIG 3323   7.134  27.776   8.304
    9AU     LIG 3324   7.313  28.151   8.489
    9AU     LIG 3325   7.408  28.535   8.719
    9AU       S 3326   7.064  27.072   7.870
    9AU     LIG 3327   7.601  27.240   7.803
    9AU     LIG 3328   8.051  27.471   7.745
    9AU     LIG 3329   8.470  27.629   7.985
    9AU       S 3330   5.236  27.511   8.118
    9AU     LIG 3331   4.987  27.349   8.462
    9AU     LIG 3332   4.572  27.467   8.607
    9AU     LIG 3333   4.279  27.827   8.639
    9AU       S 3334   5.316  27.843   7.375
    9AU     LIG 3335   4.982  28.060   7.166
    9AU     LIG 3336   4.551  27.993   7.080
    9AU     LIG 3337   4.158  27.851   6.866
    9AU       S 3338   4.800  27.006   7.074
    9AU     LIG 3339   4.522  26.746   6.836
    9AU     LIG 3340   4.125  26.961   6.856
    9AU     LIG 3341   4.068  27.378   7.091
    9AU       S 3342   5.196  27.678   6.889
    9AU     LIG 3343   5.269  28.069   6.738
    9AU     LIG 3344   4.935  28.360   6.721
    9AU     LIG 3345   4.685  28.463   6.370
    9AU       S 3346   4.794  26.631   7.673
    9AU     LIG 3347   4.498  26.658   7.342
    9AU     LIG 3348   4.120  26.512   7.124
    9AU     LIG 3349   3.907  26.117   7.086
    9AU       S 3350   4.936  27.138   8.017
    9AU     LIG 3351   4.635  27.014   8.279
    9AU     LIG 3352   4.305  27.328   8.191
    9AU     LIG 3353   4.295  27.802   8.138
    9AU       S 3354   6.795  26.153   7.635
    9AU     LIG 3355   6.878  25.778   7.514
    9AU     LIG 3356   7.309  25.729   7.563
    9AU     LIG 3357   7.705  25.938   7.496
    9AU       S 3358   6.692  26.072   8.127
    9AU     LIG 3359   7.013  25.812   7.999
    9AU     LIG 3360   7.314  25.566   8.239
    9AU     LIG 3361   7.161  25.428   8.681
    9AU       S 3362   7.087  26.225   7.563
    9AU     LIG 3363   7.254  26.099   7.194
    9AU     LIG 3364   7.703  26.196   7.063
    9AU     LIG 3365   8.141  26.036   7.150
    9AU       S 3366   6.806  26.146   6.902
    9AU     LIG 3367   6.769  25.723   7.015
    9AU     LIG 3368   6.825  25.289   6.833
    9AU     LIG 3369   6.859  24.955   6.517
    9AU       S 3370   5.154  26.233   6.907
    9AU     LIG 3371   4.846  26.350   6.628
    9AU     LIG 3372   4.560  26.081   6.383
    9AU     LIG 3373   4.239  25.773   6.262
    9AU       S 3374   4.789  26.431   7.717
    9AU     LIG 3375   4.667  26.162   7.467
    9AU     LIG 3376   4.273  26.132   7.440
    9AU     LIG 3377   4.152  25.793   7.671
    9AU       S 3378   5.193  26.174   8.324
    9AU     LIG 3379   4.903  25.987   7.964
    9AU     LIG 3380   4.561  25.653   7.970
    9AU     LIG 3381   4.419  25.396   8.343
    9AU       S 3382   4.844  26.682   7.844
    9AU     LIG 3383   4.434  26.925   7.815
    9AU     LIG 3384   4.264  26.536   7.779
    9AU     LIG 3385   4.396  26.150   7.936
    9AU       S 3386   5.461  27.873   7.851
    9AU     LIG 3387   5.022  27.983   7.851
    9AU     LIG 3388   4.797  27.778   8.179
    9AU     LIG 3389   4.799  27.922   8.592
    9AU       S 3390   6.040  28.031   7.867
    9AU     LIG 3391   6.240  28.063   8.262
    9AU     LIG 3392   6.163  28.519   8.281
    9AU     LIG 3393   5.788  28.797   8.233
    9AU       S 3394   6.207  28.187   7.755
    9AU     LIG 3395   5.920  28.536   7.778
    9AU     LIG 3396   5.776  28.974   7.737
    9AU     LIG 3397   5.819  29.442   7.829
    9AU       S 3398   6.017  27.992   7.022
    9AU     LIG 3399   5.969  28.389   7.267
    9AU     LIG 3400   6.093  28.840   7.253
    9AU     LIG 3401   6.438  28.999   6.987
    9AU       S 3402   6.507  27.587   8.367
    9AU     LIG 3403   6.721  28.016   8.518
    9AU     LIG 3404   6.963  28.169   8.884
    9AU     LIG 3405   7.072  27.939   9.291
    9AU       S 3406   6.317  28.012   7.526
    9AU     LIG 3407   6.438  28.496   7.454
    9AU     LIG 3408   6.318  28.863   7.710
    9AU     LIG 3409   6.161  29.113   8.060
    9AU       S 3410   5.886  25.726   8.097
    9AU     LIG 3411   6.200  25.418   8.233
    9AU     LIG 3412   6.121  25.063   8.540
    9AU     LIG 3413   5.979  24.601   8.597
    9AU       S 3414   6.460  26.021   7.970
    9AU     LIG 3415   6.538  25.601   7.860
    9AU     LIG 3416   6.640  25.191   8.041
    9AU     LIG 3417   7.025  25.157   8.283
    9AU       S 3418   5.696  25.648   7.943
    9AU     LIG 3419   5.651  25.188   7.825
    9AU     LIG 3420   5.379  24.848   8.033
    9AU     LIG 3421   5.525  24.485   8.289
    9AU       S 3422   5.415  26.318   8.463
    9AU     LIG 3423   5.225  26.076   8.811
    9AU     LIG 3424   4.935  25.733   8.696
    9AU     LIG 3425   4.737  25.309   8.759
    9AU       S 3426   6.115  25.723   7.290
    9AU     LIG 3427   5.839  25.348   7.237
    9AU     LIG 3428   5.928  25.053   6.916
    9AU     LIG 3429   6.126  24.660   6.965
    9AU       S 3430   6.036  25.767   7.871
    9AU     LIG 3431   6.110  25.398   7.675
    9AU     LIG 3432   6.160  25.045   7.880
    9AU     LIG 3433   5.882  24.831   8.149
    9AU       S 3434   5.865  27.893   6.741
    9AU     LIG 3435   5.786  28.356   6.758
    9AU     LIG 3436   6.071  28.708   6.744
    9AU     LIG 3437   6.277  29.074   6.496
    9AU       S 3438   6.667  27.704   7.051
    9AU     LIG 3439   7.075  27.883   6.948
    9AU     LIG 3440   7.229  28.172   6.615
    9AU     LIG 3441   7.427  28.440   6.294
    9AU       S 3442   5.674  27.910   7.011
    9AU     LIG 3443   5.474  28.313   7.159
    9AU     LIG 3444   5.619  28.786   7.069
    9AU     LIG 3445   5.890  29.163   6.863
    9AU       S 3446   5.223  27.306   6.618
    9AU     LIG 3447   5.057  27.681   6.403
    9AU     LIG 3448   5.049  28.119   6.254
    9AU     LIG 3449   4.967  28.461   5.929
    9AU       S 3450   5.198  26.036   7.140
    9AU     LIG 3451   4.743  25.940   6.998
    9AU     LIG 3452   4.511  25.662   6.699
    9AU     LIG 3453   4.619  25.423   6.323
    9AU       S 3454   6.095  25.746   7.134
    9AU     LIG 3455   6.336  25.474   6.858
    9AU     LIG 3456   6.369  25.050   6.654
    9AU     LIG 3457   6.068  24.735   6.475
    9AU       S 3458   6.377  25.842   7.402
    9AU     LIG 3459   6.518  25.437   7.360
    9AU     LIG 3460   6.373  25.081   7.184
    9AU     LIG 3461   6.663  24.820   7.010
    9AU       S 3462   6.582  26.274   6.668
    9AU     LIG 3463   6.589  25.828   6.548
    9AU     LIG 3464   6.641  25.400   6.357
    9AU     LIG 3465   6.861  25.133   6.015
   10AU     AUC 3466  22.379  27.142   7.538
   10AU     AUC 3467  22.631  27.139   7.372
   10AU     AUC 3468  22.621  27.143   7.707
   10AU     AUC 3469  22.111  27.136   7.383
   10AU     AUC 3470  22.135  27.188   7.705
   10AU     AUC 3471  22.216  27.400   7.497
   10AU     AUC 3472  22.551  27.400   7.498
   10AU     AUC 3473  22.210  26.892   7.562
   10AU     AUC 3474  22.540  26.872   7.564
   10AU     AUC 3475  22.379  26.998   7.810
   10AU     AUC 3476  22.384  27.340   7.770
   10AU     AUC 3477  22.373  26.954   7.298
   10AU     AUC 3478  22.388  27.258   7.267
   10AU     AUC 3479  22.947  27.133   7.218
   10AU     AUC 3480  22.946  27.124   7.555
   10AU     AUC 3481  22.912  27.132   7.910
   10AU     AUC 3482  21.810  27.092   7.246
   10AU     AUC 3483  21.805  27.178   7.565
   10AU     AUC 3484  21.839  27.242   7.881
   10AU     AUC 3485  22.054  27.704   7.429
   10AU     AUC 3486  22.411  27.695   7.416
   10AU     AUC 3487  22.745  27.682   7.458
   10AU     AUC 3488  22.017  26.598   7.592
   10AU     AUC 3489  22.364  26.577   7.571
   10AU     AUC 3490  22.715  26.571   7.579
   10AU     AUC 3491  22.350  26.848   8.124
   10AU     AUC 3492  22.370  27.196   8.102
   10AU     AUC 3493  22.418  27.553   8.051
   10AU     AUC 3494  22.411  26.757   7.022
   10AU     AUC 3495  22.356  27.083   6.965
   10AU     AUC 3496  22.345  27.399   6.946
   10AU     AUC 3497  22.622  26.957   8.026
   10AU     AUC 3498  22.659  27.312   8.001
   10AU     AUC 3499  22.682  26.968   7.082
   10AU     AUC 3500  22.644  27.274   7.086
   10AU     AUC 3501  22.090  27.076   8.019
   10AU     AUC 3502  22.125  27.423   7.957
   10AU     AUC 3503  22.097  26.906   7.123
   10AU     AUC 3504  22.052  27.223   7.078
   10AU     AUC 3505  22.874  27.405   7.356
   10AU     AUC 3506  22.815  27.391   7.696
   10AU     AUC 3507  21.913  27.406   7.369
   10AU     AUC 3508  21.964  27.504   7.689
   10AU     AUC 3509  22.844  26.863   7.419
   10AU     AUC 3510  22.791  26.825   7.760
   10AU     AUC 3511  21.915  26.826   7.412
   10AU     AUC 3512  21.943  26.925   7.743
   10AU     AUC 3513  22.277  27.656   7.745
   10AU     AUC 3514  22.584  27.617   7.768
   10AU     AUC 3515  22.191  26.723   7.852
   10AU     AUC 3516  22.496  26.666   7.842
   10AU     AUC 3517  22.183  27.548   7.182
   10AU     AUC 3518  22.549  27.574   7.201
   10AU     AUC 3519  22.228  26.661   7.294
   10AU     AUC 3520  22.596  26.706   7.295
   10AU    AUSL 3521  22.887  27.080   8.313
   10AU    AUSL 3522  22.633  26.690   8.248
   10AU     AUL 3523  22.936  26.737   8.420
   10AU    AUSL 3524  22.471  27.023   8.468
   10AU    AUSL 3525  22.225  27.415   8.443
   10AU     AUL 3526  22.457  27.325   8.730
   10AU    AUSL 3527  22.564  27.368   8.188
   10AU    AUSL 3528  23.017  27.451   8.120
   10AU     AUL 3529  22.839  27.386   8.450
   10AU    AUSL 3530  22.810  27.154   6.867
   10AU    AUSL 3531  22.651  27.543   6.980
   10AU     AUL 3532  22.879  27.478   6.693
   10AU    AUSL 3533  22.631  26.844   6.618
   10AU    AUSL 3534  23.133  26.906   6.999
   10AU     AUL 3535  23.003  27.002   6.670
   10AU    AUSL 3536  22.440  27.292   6.685
   10AU    AUSL 3537  22.262  26.903   6.833
   10AU     AUL 3538  22.364  26.952   6.497
   10AU    AUSL 3539  21.838  27.366   8.225
   10AU    AUSL 3540  22.187  27.669   8.094
   10AU     AUL 3541  22.013  27.646   8.408
   10AU    AUSL 3542  22.143  27.055   8.196
   10AU    AUSL 3543  21.712  26.937   8.152
   10AU     AUL 3544  21.681  27.144   8.317
   10AU    AUSL 3545  21.823  26.882   6.820
   10AU    AUSL 3546  22.071  26.559   7.003
   10AU     AUL 3547  22.112  26.593   6.683
   10AU    AUSL 3548  22.008  27.244   6.664
   10AU    AUSL 3549  21.728  27.251   7.043
   10AU     AUL 3550  21.609  27.097   6.792
   10AU    AUSL 3551  23.161  27.625   7.513
   10AU    AUSL 3552  23.062  27.395   7.119
   10AU     AUL 3553  23.381  27.636   7.206
   10AU    AUSL 3554  23.344  27.218   7.399
   10AU    AUSL 3555  23.300  26.914   7.770
   10AU     AUL 3556  23.597  26.955   7.554
   10AU    AUSL 3557  23.062  27.267   7.742
   10AU    AUSL 3558  22.817  27.663   7.776
   10AU     AUL 3559  23.150  27.663   7.836
   10AU    AUSL 3560  21.804  27.785   7.471
   10AU    AUSL 3561  21.842  27.559   7.843
   10AU     AUL 3562  21.531  27.801   7.684
   10AU    AUSL 3563  21.615  27.386   7.433
   10AU    AUSL 3564  21.746  27.683   7.061
   10AU     AUL 3565  21.515  27.611   7.220
   10AU    AUSL 3566  21.468  27.367   7.869
   10AU    AUSL 3567  21.441  26.996   7.392
   10AU     AUL 3568  21.296  27.336   7.555
   10AU    AUSL 3569  23.061  26.568   7.635
   10AU    AUSL 3570  22.904  26.865   7.943
   10AU     AUL 3571  23.209  26.765   8.010
   10AU    AUSL 3572  23.027  26.936   7.409
   10AU    AUSL 3573  23.023  26.519   7.204
   10AU     AUL 3574  23.270  26.732   7.284
   10AU    AUSL 3575  21.618  26.632   7.613
   10AU    AUSL 3576  21.802  26.822   7.240
   10AU     AUL 3577  21.441  26.712   7.286
   10AU    AUSL 3578  21.709  27.044   7.738
   10AU    AUSL 3579  21.947  26.680   7.888
   10AU     AUL 3580  21.626  26.664   7.939
   10AU    AUSL 3581  22.451  27.959   7.905
   10AU    AUSL 3582  22.000  27.968   7.817
   10AU     AUL 3583  22.225  28.013   8.164
   10AU    AUSL 3584  22.281  27.844   7.522
   10AU    AUSL 3585  22.522  27.956   7.170
   10AU     AUL 3586  22.269  28.191   7.457
   10AU    AUSL 3587  22.715  28.011   7.555
   10AU    AUSL 3588  22.706  27.768   8.190
   10AU     AUL 3589  22.819  28.007   7.917
   10AU    AUSL 3590  22.322  26.493   8.018
   10AU    AUSL 3591  22.749  26.454   7.902
   10AU     AUL 3592  22.501  26.397   8.275
   10AU    AUSL 3593  22.015  26.282   7.754
   10AU    AUSL 3594  22.071  26.662   8.323
   10AU     AUL 3595  21.997  26.372   8.099
   10AU    AUSL 3596  22.457  26.203   7.716
   10AU    AUSL 3597  22.238  26.445   7.414
   10AU     AUL 3598  22.154  26.083   7.530
   10AU    AUSL 3599  22.352  27.776   6.781
   10AU    AUSL 3600  22.915  27.800   7.208
   10AU     AUL 3601  22.668  27.882   6.866
   10AU    AUSL 3602  22.098  27.910   7.136
   10AU    AUSL 3603  22.125  27.481   6.992
   10AU     AUL 3604  22.021  27.753   6.786
   10AU    AUSL 3605  22.458  26.371   7.030
   10AU    AUSL 3606  21.827  26.383   7.327
   10AU     AUL 3607  22.122  26.239   7.088
   10AU    AUSL 3608  22.671  26.430   7.420
   10AU    AUSL 3609  22.688  26.737   7.027
   10AU     AUL 3610  22.773  26.377   7.023
   10AU       S 3611  22.945  26.278   8.311
   10AU     LIG 3612  23.013  25.825   8.295
   10AU     LIG 3613  23.305  25.517   8.443
   10AU     LIG 3614  23.588  25.492   8.822
   10AU       S 3615  22.847  27.028   8.770
   10AU     LIG 3616  23.161  27.227   9.028
   10AU     LIG 3617  23.344  27.181   9.457
   10AU     LIG 3618  23.588  27.011   9.824
   10AU       S 3619  22.495  26.852   8.673
   10AU     LIG 3620  22.512  26.878   9.124
   10AU     LIG 3621  22.898  26.883   9.412
   10AU     LIG 3622  23.122  26.770   9.825
   10AU       S 3623  22.017  27.218   8.657
   10AU     LIG 3624  22.061  27.180   9.111
   10AU     LIG 3625  21.673  27.040   9.329
   10AU     LIG 3626  21.358  27.136   9.668
   10AU       S 3627  22.470  27.781   8.575
   10AU     LIG 3628  22.736  28.060   8.794
   10AU     LIG 3629  23.140  27.951   8.952
   10AU     LIG 3630  23.428  27.665   9.178
   10AU       S 3631  23.205  27.641   8.303
   10AU     LIG 3632  23.439  27.670   8.650
   10AU     LIG 3633  23.645  28.021   8.841
   10AU     LIG 3634  23.859  28.392   8.990
   10AU       S 3635  22.755  27.237   6.324
   10AU     LIG 3636  23.064  27.265   5.959
   10AU     LIG 3637  23.320  26.937   5.761
   10AU     LIG 3638  23.171  26.581   5.503
   10AU       S 3639  23.114  27.883   6.794
   10AU     LIG 3640  23.077  28.097   6.431
   10AU     LIG 3641  23.263  28.141   6.036
   10AU     LIG 3642  23.629  28.342   5.924
   10AU       S 3643  23.306  26.658   6.801
   10AU     LIG 3644  23.344  26.580   6.321
   10AU     LIG 3645  23.360  26.180   6.103
   10AU     LIG 3646  23.519  25.779   6.255
   10AU       S 3647  22.748  27.037   6.269
   10AU     LIG 3648  22.839  26.780   5.910
   10AU     LIG 3649  22.662  26.708   5.489
   10AU     LIG 3650  22.858  26.709   5.082
   10AU       S 3651  21.932  26.887   6.354
   10AU     LIG 3652  21.986  26.975   5.957
   10AU     LIG 3653  22.176  26.818   5.617
   10AU     LIG 3654  21.974  26.660   5.278
   10AU       S 3655  22.498  27.393   6.429
   10AU     LIG 3656  22.329  27.324   6.042
   10AU     LIG 3657  22.573  27.173   5.700
   10AU     LIG 3658  22.960  27.118   5.440
   10AU       S 3659  21.807  27.348   8.709
   10AU     LIG 3660  21.517  27.043   8.782
   10AU     LIG 3661  21.383  26.712   9.008
   10AU     LIG 3662  21.261  26.667   9.443
   10AU       S 3663  21.747  27.967   8.194
   10AU     LIG 3664  21.615  28.152   8.568
   10AU     LIG 3665  21.273  28.266   8.844
   10AU     LIG 3666  20.969  28.616   9.011
   10AU       S 3667  21.584  26.699   8.424
   10AU     LIG 3668  21.155  26.616   8.516
   10AU     LIG 3669  20.938  26.203   8.516
   10AU     LIG 3670  20.813  25.885   8.840
   10AU       S 3671  22.015  27.027   8.620
   10AU     LIG 3672  21.909  26.728   8.957
   10AU     LIG 3673  21.756  26.533   9.337
   10AU     LIG 3674  21.663  26.710   9.762
   10AU       S 3675  21.753  26.811   6.463
   10AU     LIG 3676  21.635  26.493   6.168
   10AU     LIG 3677  21.695  26.610   5.729
   10AU     LIG 3678  21.684  27.031   5.544
   10AU       S 3679  21.730  26.385   6.854
   10AU     LIG 3680  21.550  26.078   6.606
   10AU     LIG 3681  21.397  25.915   6.231
   10AU     LIG 3682  21.082  25.845   5.914
   10AU       S 3683  21.431  27.513   6.732
   10AU     LIG 3684  21.081  27.788   6.695
   10AU     LIG 3685  21.018  28.164   6.405
   10AU     LIG 3686  21.184  28.254   5.971
   10AU       S 3687  21.944  27.176   6.445
   10AU     LIG 3688  21.646  27.304   6.181
   10AU     LIG 3689  21.821  27.463   5.808
   10AU     LIG 3690  22.114  27.309   5.496
   10AU       S 3691  23.214  27.760   6.811
   10AU     LIG 3692  23.496  27.738   6.491
   10AU     LIG 3693  23.710  27.891   6.148
   10AU     LIG 3694  24.092  28.081   6.043
   10AU       S 3695  23.563  27.635   7.643
   10AU     LIG 3696  23.830  27.807   7.330
   10AU     LIG 3697  24.256  27.851   7.366
   10AU     LIG 3698  24.580  28.044   7.593
   10AU       S 3699  23.596  27.413   7.577
   10AU     LIG 3700  24.079  27.342   7.463
   10AU     LIG 3701  24.535  27.435   7.320
   10AU     LIG 3702  24.682  27.690   6.966
   10AU       S 3703  23.529  26.517   7.783
   10AU     LIG 3704  23.933  26.289   7.860
   10AU     LIG 3705  24.341  26.520   7.926
   10AU     LIG 3706  24.704  26.740   8.108
   10AU       S 3707  23.166  27.911   8.219
   10AU     LIG 3708  23.549  28.069   8.331
   10AU     LIG 3709  23.654  28.464   8.519
   10AU     LIG 3710  23.634  28.832   8.801
   10AU       S 3711  23.484  27.347   7.860
   10AU     LIG 3712  23.960  27.541   7.917
   10AU     LIG 3713  24.425  27.592   7.816
   10AU     LIG 3714  24.790  27.769   8.077
   10AU       S 3715  21.656  27.779   8.123
   10AU     LIG 3716  21.388  27.695   8.457
   10AU     LIG 3717  20.983  27.902   8.555
   10AU     LIG 3718  20.793  28.106   8.915
   10AU       S 3719  21.737  28.093   7.374
   10AU     LIG 3720  21.532  28.432   7.395
   10AU     LIG 3721  21.189  28.556   7.168
   10AU     LIG 3722  21.093  28.238   6.907
   10AU       S 3723  21.225  27.265   7.086
   10AU     LIG 3724  20.786  27.245   7.002
   10AU     LIG 3725  20.456  27.451   7.216
   10AU     LIG 3726  20.281  27.801   7.489
   10AU       S 3727  21.601  27.941   6.882
   10AU     LIG 3728  21.621  28.394   6.886
   10AU     LIG 3729  21.319  28.647   6.676
   10AU     LIG 3730  21.133  28.672   6.264
   10AU       S 3731  21.209  26.892   7.670
   10AU     LIG 3732  20.942  26.855   7.315
   10AU     LIG 3733  20.526  26.781   7.168
   10AU     LIG 3734  20.133  27.000   7.084
   10AU       S 3735  21.358  27.390   8.044
   10AU     LIG 3736  20.983  27.413   8.270
   10AU     LIG 3737  20.660  27.714   8.160
   10AU     LIG 3738  20.685  27.988   7.786
   10AU       S 3739  23.218  26.408   7.654
   10AU     LIG 3740  23.328  26.013   7.488
   10AU     LIG 3741  23.702  25.867   7.641
   10AU     LIG 3742  24.137  25.871   7.573
   10AU       S 3743  23.123  26.350   8.161
   10AU     LIG 3744  23.433  26.053   8.025
   10AU     LIG 3745  23.835  25.852   8.186
   10AU     LIG 3746  24.012  25.723   8.624
   10AU       S 3747  23.508  26.479   7.571
   10AU     LIG 3748  23.811  26.262   7.338
   10AU     LIG 3749  24.243  26.196   7.178
   10AU     LIG 3750  24.626  25.962   7.038
   10AU       S 3751  23.236  26.408   6.933
   10AU     LIG 3752  23.309  26.100   6.638
   10AU     LIG 3753  23.264  25.680   6.704
   10AU     LIG 3754  23.267  25.307   6.489
   10AU       S 3755  21.590  26.495   6.916
   10AU     LIG 3756  21.309  26.537   6.586
   10AU     LIG 3757  21.108  26.332   6.232
   10AU     LIG 3758  20.699  26.138   6.142
   10AU       S 3759  21.219  26.670   7.713
   10AU     LIG 3760  21.058  26.371   7.458
   10AU     LIG 3761  20.755  26.301   7.105
   10AU     LIG 3762  20.288  26.188   7.139
   10AU       S 3763  21.621  26.477   8.352
   10AU     LIG 3764  21.262  26.341   8.098
   10AU     LIG 3765  21.108  25.916   8.107
   10AU     LIG 3766  21.278  25.572   8.368
   10AU       S 3767  21.274  26.938   7.851
   10AU     LIG 3768  20.907  26.831   8.076
   10AU     LIG 3769  20.616  26.796   7.729
   10AU     LIG 3770  20.321  27.069   7.552
   10AU       S 3771  21.881  28.137   7.850
   10AU     LIG 3772  21.466  28.283   7.896
   10AU     LIG 3773  21.212  28.253   8.263
   10AU     LIG 3774  20.931  28.473   8.535
   10AU       S 3775  22.460  28.297   7.869
   10AU     LIG 3776  22.669  28.419   8.229
   10AU     LIG 3777  22.572  28.884   8.269
   10AU     LIG 3778  22.270  29.240   8.415
   10AU       S 3779  22.532  28.505   7.734
   10AU     LIG 3780  22.079  28.616   7.894
   10AU     LIG 3781  21.931  29.012   8.072
   10AU     LIG 3782  22.120  29.406   7.957
   10AU       S 3783  22.425  28.257   7.014
   10AU     LIG 3784  22.487  28.636   7.229
   10AU     LIG 3785  22.559  29.064   7.325
   10AU     LIG 3786  22.446  29.465   7.130
   10AU       S 3787  22.933  27.868   8.373
   10AU     LIG 3788  23.127  28.285   8.544
   10AU     LIG 3789  23.332  28.427   8.930
   10AU     LIG 3790  23.482  28.203   9.308
   10AU       S 3791  22.725  28.295   7.547
   10AU     LIG 3792  22.917  28.736   7.529
   10AU     LIG 3793  22.841  29.087   7.815
   10AU     LIG 3794  22.679  29.382   8.136
   10AU       S 3795  22.307  26.003   8.122
   10AU     LIG 3796  22.540  25.600   8.204
   10AU     LIG 3797  22.722  25.199   8.423
   10AU     LIG 3798  22.605  24.745   8.552
   10AU       S 3799  22.890  26.328   8.017
   10AU     LIG 3800  22.962  25.992   7.829
   10AU     LIG 3801  23.133  25.615   7.830
   10AU     LIG 3802  23.510  25.525   7.959
   10AU       S 3803  22.115  25.936   7.972
   10AU     LIG 3804  22.148  25.568   7.756
   10AU     LIG 3805  22.132  25.161   7.940
   10AU     LIG 3806  21.748  24.903   8.036
   10AU       S 3807  21.846  26.590   8.496
   10AU     LIG 3808  21.603  26.296   8.808
   10AU     LIG 3809  21.324  25.899   8.769
   10AU     LIG 3810  21.146  25.444   8.850
   10AU       S 3811  22.546  25.983   7.311
   10AU     LIG 3812  22.405  25.539   7.280
   10AU     LIG 3813  22.537  25.189   7.057
   10AU     LIG 3814  22.819  24.870   7.104
   10AU       S 3815  22.466  26.026   7.896
   10AU     LIG 3816  22.643  25.635   7.708
   10AU     LIG 3817  22.770  25.229   7.922
   10AU     LIG 3818  22.542  24.861   8.057
   10AU       S 3819  22.284  28.154   6.740
   10AU     LIG 3820  22.153  28.626   6.773
   10AU     LIG 3821  22.408  29.013   6.822
   10AU     LIG 3822  22.612  29.386   6.644
   10AU       S 3823  23.064  27.981   7.116
   10AU     LIG 3824  23.486  28.153   6.985
   10AU     LIG 3825  23.609  28.247   6.537
   10AU     LIG 3826  23.943  28.491   6.319
   10AU       S 3827  22.090  28.172   7.010
   10AU     LIG 3828  21.989  28.559   7.246
   10AU     LIG 3829  22.049  29.015   7.174
   10AU     LIG 3830  22.008  29.362   6.850
   10AU       S 3831  21.645  27.559   6.627
   10AU     LIG 3832  21.484  27.900   6.378
   10AU     LIG 3833  21.542  28.343   6.336
   10AU     LIG 3834  21.563  28.661   5.987
   10AU       S 3835  21.651  26.304   7.156
   10AU     LIG 3836  21.254  26.141   7.040
   10AU     LIG 3837  21.031  26.067   6.673
   10AU     LIG 3838  20.917  25.751   6.392
   10AU       S 3839  22.531  26.004   7.138
   10AU     LIG 3840  22.799  25.915   6.775
   10AU     LIG 3841  22.781  25.490   6.578
   10AU     LIG 3842  22.756  25.018   6.607
   10AU       S 3843  22.788  26.100   7.395
   10AU     LIG 3844  22.979  25.716   7.216
   10AU     LIG 3845  23.040  25.312   6.972
   10AU     LIG 3846  23.226  24.919   6.790
   10AU       S 3847  23.028  26.539   6.691
   10AU     LIG 3848  22.908  26.260   6.370
   10AU     LIG 3849  23.011  25.819   6.261
   10AU     LIG 3850  23.200  25.452   6.006
   11POPC   NC3 3851  21.318  12.396   9.303
   11POPC   PO4 3852  21.466  11.834   9.670
   11POPC   GL1 3853  21.622  11.857   9.241
   11POPC   GL2 3854  21.346  11.727   9.080
   11POPC   C1A 3855  21.597  12.109   8.834
   11POPC   D2A 3856  21.374  12.340   8.503
   11POPC   C3A 3857  21.205  12.067   8.198
   11POPC   C4A 3858  21.441  12.144   7.858
   11POPC   C1B 3859  21.281  11.761   8.646
   11POPC   C2B 3860  21.593  11.666   8.336
   11POPC   C3B 3861  21.640  11.692   7.893
   11POPC   C4B 3862  21.186  11.731   7.733
   12POPC   NC3 3863  22.323  44.658   9.642
   12POPC   PO4 3864  21.947  44.178   9.496
   12POPC   GL1 3865  21.994  44.639   9.241
   12POPC   GL2 3866  22.335  44.859   9.188
   12POPC   C1A 3867  21.901  44.866   8.836
   12POPC   D2A 3868  22.030  44.694   8.421
   12POPC   C3A 3869  21.937  44.877   8.009
   12POPC   C4A 3870  21.883  44.632   7.627
   12POPC   C1B 3871  22.407  44.694   8.823
   12POPC   C2B 3872  22.509  44.879   8.459
   12POPC   C3B 3873  22.522  44.971   8.074
   12POPC   C4B 3874  22.378  44.690   7.790
   13POPC   NC3 3875   8.779  10.600   9.623
   13POPC   PO4 3876   9.065  10.175   9.211
   13POPC   GL1 3877   8.973  10.556   8.999
   13POPC   GL2 3878   8.883  10.855   9.201
   13POPC   C1A 3879   9.060  10.547   8.553
   13POPC   D2A 3880   9.137  10.214   8.221
   13POPC   C3A 3881   9.284  10.307   7.803
   13POPC   C4A 3882   9.323  10.645   7.452
   13POPC   C1B 3883   8.635  10.943   8.840
   13POPC   C2B 3884   8.653  10.835   8.415
   13POPC   C3B 3885   8.907  10.736   8.089
   13POPC   C4B 3886   8.753  10.920   7.711
   14POPC   NC3 3887  19.670  36.148   9.801
   14POPC   PO4 3888  19.015  35.952   9.606
   14POPC   GL1 3889  18.982  36.108   9.195
   14POPC   GL2 3890  19.246  35.939   9.078
   14POPC   C1A 3891  18.828  36.002   8.782
   14POPC   D2A 3892  18.713  36.027   8.359
   14POPC   C3A 3893  19.001  36.028   8.031
   14POPC   C4A 3894  18.816  35.954   7.668
   14POPC   C1B 3895  19.329  36.182   8.746
   14POPC   C2B 3896  19.238  36.313   8.380
   14POPC   C3B 3897  19.464  36.318   7.997
   14POPC   C4B 3898  19.414  36.068   7.627
   15POPC   NC3 3899  23.306   0.512   9.520
   15POPC   PO4 3900  23.942   0.803   9.514
   15POPC   GL1 3901  24.069   0.523   9.149
   15POPC   GL2 3902  23.988   0.139   9.254
   15POPC   C1A 3903  23.996   0.594   8.668
   15POPC   D2A 3904  23.637   0.681   8.365
   15POPC   C3A 3905  23.675   0.609   7.906
   15POPC   C4A 3906  23.966   0.683   7.574
   15POPC   C1B 3907  23.764   0.204   8.872
   15POPC   C2B 3908  23.739   0.188   8.433
   15POPC   C3B 3909  23.413   0.254   8.148
   15POPC   C4B 3910  23.440   0.189   7.730
   16POPC   NC3 3911  26.769   6.937   9.427
   16POPC   PO4 3912  26.548   6.286   9.641
   16POPC   GL1 3913  26.758   6.455   9.214
   16POPC   GL2 3914  27.105   6.292   9.150
   16POPC   C1A 3915  26.655   6.664   8.762
   16POPC   D2A 3916  26.374   6.783   8.346
   16POPC   C3A 3917  26.627   6.938   7.948
   16POPC   C4A 3918  27.032   6.784   7.769
   16POPC   C1B 3919  27.343   6.411   8.762
   16POPC   C2B 3920  27.268   6.546   8.321
   16POPC   C3B 3921  27.084   6.308   7.970
   16POPC   C4B 3922  27.080   6.288   7.518
   17POPC   NC3 3923   6.877  23.603   9.461
   17POPC   PO4 3924   6.210  23.888   9.428
   17POPC   GL1 3925   6.522  23.854   9.101
   17POPC   GL2 3926   6.886  23.860   9.039
   17POPC   C1A 3927   6.579  23.848   8.663
   17POPC   D2A 3928   6.858  23.927   8.383
   17POPC   C3A 3929   6.603  23.863   8.076
   17POPC   C4A 3930   6.535  23.618   7.727
   17POPC   C1B 3931   6.963  23.524   8.750
   17POPC   C2B 3932   6.892  23.415   8.313
   17POPC   C3B 3933   7.013  23.607   7.916
   17POPC   C4B 3934   6.927  23.988   7.681
   18POPC   NC3 3935  15.005   2.530   9.653
   18POPC   PO4 3936  15.553   2.713   9.520
   18POPC   GL1 3937  15.284   2.855   9.191
   18POPC   GL2 3938  14.983   2.644   9.151
   18POPC   C1A 3939  15.322   2.948   8.754
   18POPC   D2A 3940  15.156   2.766   8.384
   18POPC   C3A 3941  15.211   2.895   7.973
   18POPC   C4A 3942  15.047   3.127   7.615
   18POPC   C1B 3943  14.984   2.425   8.752
   18POPC   C2B 3944  15.123   2.268   8.364
   18POPC   C3B 3945  14.881   2.439   8.019
   18POPC   C4B 3946  14.937   2.648   7.614
   19POPC   NC3 3947  31.572  14.084   9.641
   19POPC   PO4 3948  31.500  13.488   9.485
   19POPC   GL1 3949  31.626  13.721   9.166
   19POPC   GL2 3950  31.288  13.925   9.186
   19POPC   C1A 3951  31.626  13.496   8.730
   19POPC   D2A 3952  31.317  13.464   8.365
   19POPC   C3A 3953  31.504  13.497   7.923
   19POPC   C4A 3954  31.352  13.462   7.449
   19POPC   C1B 3955  31.490  13.978   8.764
   19POPC   C2B 3956  31.580  13.888   8.356
   19POPC   C3B 3957  31.360  13.990   8.007
   19POPC   C4B 3958  31.455  13.917   7.604
   20POPC   NC3 3959  44.792   3.997   9.421
   20POPC   PO4 3960  44.682   4.652   9.521
   20POPC   GL1 3961  44.739   4.438   9.123
   20POPC   GL2 3962  44.367   4.428   9.101
   20POPC   C1A 3963  44.829   4.098   8.772
   20POPC   D2A 3964  44.564   3.852   8.466
   20POPC   C3A 3965  44.486   3.975   8.055
   20POPC   C4A 3966  44.605   4.127   7.688
   20POPC   C1B 3967  44.352   4.321   8.680
   20POPC   C2B 3968  44.650   4.347   8.368
   20POPC   C3B 3969  44.941   4.259   8.044
   20POPC   C4B 3970  44.996   4.477   7.612
   21POPC   NC3 3971  24.900  20.063   9.531
   21POPC   PO4 3972  25.230  19.513   9.529
   21POPC   GL1 3973  25.202  19.820   9.208
   21POPC   GL2 3974  24.847  19.789   9.110
   21POPC   C1A 3975  25.456  20.010   8.871
   21POPC   D2A 3976  25.521  19.783   8.480
   21POPC   C3A 3977  25.462  19.975   8.105
   21POPC   C4A 3978  25.463  19.827   7.711
   21POPC   C1B 3979  25.067  19.724   8.737
   21POPC   C2B 3980  25.062  19.548   8.355
   21POPC   C3B 3981  25.010  19.749   8.005
   21POPC   C4B 3982  25.042  19.569   7.631
   22POPC   NC3 3983   5.042   9.563   9.548
   22POPC   PO4 3984   5.735   9.571   9.719
   22POPC   GL1 3985   5.532   9.544   9.267
   22POPC   GL2 3986   5.273   9.793   9.138
   22POPC   C1A 3987   5.368   9.389   8.840
   22POPC   D2A 3988   5.210   9.662   8.488
   22POPC   C3A 3989   5.315   9.598   8.053
   22POPC   C4A 3990   5.473   9.928   7.788
   22POPC   C1B 3991   4.898   9.611   8.906
   22POPC   C2B 3992   4.659   9.592   8.535
   22POPC   C3B 3993   4.792   9.660   8.133
   22POPC   C4B 3994   4.630   9.504   7.770
   23POPC   NC3 3995  33.808  35.578   9.445
   23POPC   PO4 3996  33.943  34.856   9.622
   23POPC   GL1 3997  34.007  35.123   9.252
   23POPC   GL2 3998  33.638  35.261   9.104
   23POPC   C1A 3999  34.018  35.095   8.814
   23POPC   D2A 4000  33.963  35.473   8.559
   23POPC   C3A 4001  33.883  35.408   8.130
   23POPC   C4A 4002  33.961  35.553   7.710
   23POPC   C1B 4003  33.464  35.381   8.695
   23POPC   C2B 4004  33.423  35.206   8.268
   23POPC   C3B 4005  33.520  35.230   7.810
   23POPC   C4B 4006  33.466  35.562   7.517
   24POPC   NC3 4007  12.438  36.009   9.305
   24POPC   PO4 4008  11.868  36.349   9.536
   24POPC   GL1 4009  12.020  36.271   9.136
   24POPC   GL2 4010  11.830  35.941   9.039
   24POPC   C1A 4011  12.052  36.259   8.688
   24POPC   D2A 4012  11.957  36.052   8.316
   24POPC   C3A 4013  12.221  36.232   7.998
   24POPC   C4A 4014  12.115  36.586   7.768
   24POPC   C1B 4015  12.179  35.762   8.753
   24POPC   C2B 4016  12.437  35.834   8.386
   24POPC   C3B 4017  12.215  35.710   8.011
   24POPC   C4B 4018  11.848  35.945   7.802
   25POPC   NC3 4019  28.813  12.862   9.497
   25POPC   PO4 4020  28.352  13.341   9.656
   25POPC   GL1 4021  28.450  13.135   9.237
   25POPC   GL2 4022  28.791  13.082   9.046
   25POPC   C1A 4023  28.309  13.098   8.807
   25POPC   D2A 4024  28.337  13.347   8.478
   25POPC   C3A 4025  28.249  13.182   8.085
   25POPC   C4A 4026  28.562  13.088   7.773
   25POPC   C1B 4027  28.737  12.833   8.681
   25POPC   C2B 4028  28.604  12.900   8.295
   25POPC   C3B 4029  28.654  12.621   7.975
   25POPC   C4B 4030  28.369  12.368   7.746
   26POPC   NC3 4031  26.990  25.407   9.542
   26POPC   PO4 4032  27.290  24.841   9.249
   26POPC   GL1 4033  26.851  25.034   9.163
   26POPC   GL2 4034  26.513  24.849   9.121
   26POPC   C1A 4035  26.698  25.406   8.914
   26POPC   D2A 4036  26.888  25.668   8.597
   26POPC   C3A 4037  26.865  25.478   8.193
   26POPC   C4A 4038  26.849  25.575   7.759
   26POPC   C1B 4039  26.327  25.076   8.776
   26POPC   C2B 4040  26.437  25.233   8.375
   26POPC   C3B 4041  26.438  25.314   7.935
   26POPC   C4B 4042  26.734  25.038   7.705
   27POPC   NC3 4043  42.783   4.260   9.648
   27POPC   PO4 4044  42.153   4.210   9.641
   27POPC   GL1 4045  42.080   4.326   9.213
   27POPC   GL2 4046  42.421   4.353   9.193
   27POPC   C1A 4047  42.150   4.486   8.769
   27POPC   D2A 4048  42.350   4.433   8.333
   27POPC   C3A 4049  42.090   4.450   7.942
   27POPC   C4A 4050  42.137   4.321   7.484
   27POPC   C1B 4051  42.707   4.068   8.965
   27POPC   C2B 4052  42.804   4.174   8.551
   27POPC   C3B 4053  42.784   4.239   8.114
   27POPC   C4B 4054  42.547   4.189   7.762
   28POPC   NC3 4055  28.058   0.523   9.811
   28POPC   PO4 4056  28.563   0.872   9.547
   28POPC   GL1 4057  28.489   0.641   9.176
   28POPC   GL2 4058  28.468   0.276   9.210
   28POPC   C1A 4059  28.370   0.792   8.773
   28POPC   D2A 4060  28.346   0.649   8.351
   28POPC   C3A 4061  28.502   0.259   8.154
   28POPC   C4A 4062  28.710   0.275   7.739
   28POPC   C1B 4063  28.358   0.264   8.763
   28POPC   C2B 4064  28.065   0.196   8.440
   28POPC   C3B 4065  27.986   0.370   8.105
   28POPC   C4B 4066  28.037   0.762   7.958
   29POPC   NC3 4067   5.703  10.939   9.468
   29POPC   PO4 4068   5.979  11.568   9.423
   29POPC   GL1 4069   5.783  11.397   9.050
   29POPC   GL2 4070   5.764  11.024   8.965
   29POPC   C1A 4071   5.797  11.427   8.602
   29POPC   D2A 4072   5.604  11.623   8.258
   29POPC   C3A 4073   5.856  11.673   7.891
   29POPC   C4A 4074   5.831  11.573   7.450
   29POPC   C1B 4075   6.020  10.782   8.688
   29POPC   C2B 4076   6.185  10.966   8.362
   29POPC   C3B 4077   5.963  11.251   8.126
   29POPC   C4B 4078   6.031  11.180   7.686
   30POPC   NC3 4079  43.540  15.222   9.227
   30POPC   PO4 4080  43.108  14.911   9.619
   30POPC   GL1 4081  43.045  15.084   9.176
   30POPC   GL2 4082  42.825  15.357   9.071
   30POPC   C1A 4083  43.100  15.088   8.721
   30POPC   D2A 4084  43.314  15.033   8.349
   30POPC   C3A 4085  43.063  15.118   8.000
   30POPC   C4A 4086  43.225  15.052   7.594
   30POPC   C1B 4087  43.076  15.586   8.741
   30POPC   C2B 4088  43.151  15.536   8.314
   30POPC   C3B 4089  42.960  15.610   7.944
   30POPC   C4B 4090  42.815  15.368   7.582
   31POPC   NC3 4091  26.665   3.915   9.550
   31POPC   PO4 4092  27.245   3.323   9.537
   31POPC   GL1 4093  27.072   3.418   9.153
   31POPC   GL2 4094  27.002   3.759   9.189
   31POPC   C1A 4095  26.765   3.493   8.807
   31POPC   D2A 4096  26.418   3.482   8.508
   31POPC   C3A 4097  26.639   3.504   8.130
   31POPC   C4A 4098  26.640   3.315   7.755
   31POPC   C1B 4099  27.135   3.885   8.806
   31POPC   C2B 4100  27.021   3.718   8.403
   31POPC   C3B 4101  27.046   3.881   7.993
   31POPC   C4B 4102  27.073   3.752   7.517
   32POPC   NC3 4103  19.645  33.907   9.395
   32POPC   PO4 4104  20.170  33.523   9.540
   32POPC   GL1 4105  20.035  33.717   9.114
   32POPC   GL2 4106  20.223  33.956   8.947
   32POPC   C1A 4107  19.798  33.774   8.722
   32POPC   D2A 4108  19.872  33.852   8.268
   32POPC   C3A 4109  19.574  33.632   8.002
   32POPC   C4A 4110  19.630  33.555   7.552
   32POPC   C1B 4111  19.963  34.256   8.736
   32POPC   C2B 4112  19.721  34.353   8.395
   32POPC   C3B 4113  19.894  34.330   8.014
   32POPC   C4B 4114  19.709  34.056   7.761
   33POPC   NC3 4115  11.113  20.936   9.535
   33POPC   PO4 4116  10.486  21.345   9.410
   33POPC   GL1 4117  10.736  21.360   9.098
   33POPC   GL2 4118  10.774  21.002   9.108
   33POPC   C1A 4119  10.766  21.527   8.683
   33POPC   D2A 4120  10.532  21.261   8.383
   33POPC   C3A 4121  10.461  21.350   7.980
   33POPC   C4A 4122  10.699  21.645   7.779
   33POPC   C1B 4123  10.950  21.047   8.673
   33POPC   C2B 4124  11.025  21.256   8.241
   33POPC   C3B 4125  10.889  21.162   7.788
   33POPC   C4B 4126  10.953  20.954   7.325
   34POPC   NC3 4127  44.168  15.692   9.472
   34POPC   PO4 4128  43.580  15.404   9.647
   34POPC   GL1 4129  43.735  15.694   9.241
   34POPC   GL2 4130  43.819  16.070   9.191
   34POPC   C1A 4131  43.999  15.755   8.851
   34POPC   D2A 4132  43.946  15.782   8.449
   34POPC   C3A 4133  43.847  15.989   8.092
   34POPC   C4A 4134  43.815  15.713   7.743
   34POPC   C1B 4135  43.941  16.246   8.737
   34POPC   C2B 4136  44.126  16.489   8.339
   34POPC   C3B 4137  44.162  16.328   7.905
   34POPC   C4B 4138  43.998  16.138   7.525
   35POPC   NC3 4139  42.611  28.756   9.521
   35POPC   PO4 4140  42.743  29.428   9.346
   35POPC   GL1 4141  42.977  29.233   9.079
   35POPC   GL2 4142  42.977  28.895   9.201
   35POPC   C1A 4143  43.049  29.152   8.653
   35POPC   D2A 4144  43.382  29.020   8.414
   35POPC   C3A 4145  43.274  29.186   8.036
   35POPC   C4A 4146  43.159  29.053   7.662
   35POPC   C1B 4147  43.014  28.674   8.824
   35POPC   C2B 4148  42.952  28.689   8.380
   35POPC   C3B 4149  42.791  28.809   7.950
   35POPC   C4B 4150  42.764  28.801   7.437
   36POPC   NC3 4151  34.536  29.737   9.590
   36POPC   PO4 4152  34.745  30.398   9.521
   36POPC   GL1 4153  34.768  30.141   9.136
   36POPC   GL2 4154  34.699  29.774   9.109
   36POPC   C1A 4155  34.676  30.138   8.660
   36POPC   D2A 4156  34.262  30.127   8.398
   36POPC   C3A 4157  34.346  30.069   7.953
   36POPC   C4A 4158  34.754  30.052   7.750
   36POPC   C1B 4159  34.443  29.681   8.734
   36POPC   C2B 4160  34.586  29.706   8.302
   36POPC   C3B 4161  34.550  29.600   7.877
   36POPC   C4B 4162  34.734  29.642   7.439
   37POPC   NC3 4163   9.377  32.086   9.472
   37POPC   PO4 4164  10.062  32.243   9.357
   37POPC   GL1 4165   9.699  32.287   9.112
   37POPC   GL2 4166   9.484  32.012   8.978
   37POPC   C1A 4167   9.676  32.383   8.694
   37POPC   D2A 4168   9.418  32.165   8.399
   37POPC   C3A 4169   9.532  32.384   8.034
   37POPC   C4A 4170   9.967  32.411   7.858
   37POPC   C1B 4171   9.903  31.933   8.756
   37POPC   C2B 4172   9.887  31.778   8.338
   37POPC   C3B 4173   9.959  31.887   7.931
   37POPC   C4B 4174   9.654  32.079   7.648
   38POPC   NC3 4175  14.156  22.210   9.659
   38POPC   PO4 4176  13.552  22.319   9.339
   38POPC   GL1 4177  13.397  22.041   9.105
   38POPC   GL2 4178  13.682  21.967   8.911
   38POPC   C1A 4179  13.255  22.118   8.689
   38POPC   D2A 4180  13.579  22.049   8.389
   38POPC   C3A 4181  13.410  22.211   8.077
   38POPC   C4A 4182  13.413  22.440   7.735
   38POPC   C1B 4183  13.915  22.304   8.719
   38POPC   C2B 4184  13.985  22.457   8.283
   38POPC   C3B 4185  13.897  22.312   7.857
   38POPC   C4B 4186  13.629  21.980   7.666
   39POPC   NC3 4187  25.394  23.447   9.387
   39POPC   PO4 4188  25.332  22.709   9.582
   39POPC   GL1 4189  25.120  22.775   9.178
   39POPC   GL2 4190  25.078  23.145   9.112
   39POPC   C1A 4191  25.134  22.781   8.719
   39POPC   D2A 4192  24.982  22.781   8.300
   39POPC   C3A 4193  25.245  22.743   7.954
   39POPC   C4A 4194  25.525  23.002   7.725
   39POPC   C1B 4195  25.252  23.304   8.730
   39POPC   C2B 4196  25.373  23.123   8.351
   39POPC   C3B 4197  25.190  23.261   8.000
   39POPC   C4B 4198  25.034  23.153   7.629
   40POPC   NC3 4199  39.266  41.343   9.436
   40POPC   PO4 4200  38.640  41.644   9.585
   40POPC   GL1 4201  38.951  41.689   9.195
   40POPC   GL2 4202  39.274  41.478   8.973
   40POPC   C1A 4203  38.993  41.837   8.783
   40POPC   D2A 4204  39.381  41.734   8.559
   40POPC   C3A 4205  39.278  41.703   8.157
   40POPC   C4A 4206  39.211  41.746   7.751
   40POPC   C1B 4207  39.327  41.148   8.661
   40POPC   C2B 4208  39.164  41.072   8.261
   40POPC   C3B 4209  39.341  41.232   7.869
   40POPC   C4B 4210  39.287  41.359   7.426
   41POPC   NC3 4211  10.278  43.213   9.461
   41POPC   PO4 4212  10.955  43.312   9.449
   41POPC   GL1 4213  10.688  43.116   9.118
   41POPC   GL2 4214  10.384  42.845   9.136
   41POPC   C1A 4215  10.774  43.164   8.677
   41POPC   D2A 4216  10.746  43.114   8.238
   41POPC   C3A 4217  10.671  43.385   7.948
   41POPC   C4A 4218  10.480  43.260   7.543
   41POPC   C1B 4219  10.292  43.067   8.778
   41POPC   C2B 4220  10.303  42.882   8.374
   41POPC   C3B 4221  10.248  43.062   7.970
   41POPC   C4B 4222  10.344  42.780   7.654
   42POPC   NC3 4223   1.667   2.615   9.367
   42POPC   PO4 4224   1.175   3.002   9.491
   42POPC   GL1 4225   1.279   2.814   9.100
   42POPC   GL2 4226   1.608   2.955   8.994
   42POPC   C1A 4227   1.263   2.647   8.685
   42POPC   D2A 4228   1.151   2.884   8.312
   42POPC   C3A 4229   1.316   2.711   7.951
   42POPC   C4A 4230   1.636   2.384   7.910
   42POPC   C1B 4231   1.364   3.160   8.686
   42POPC   C2B 4232   1.420   3.347   8.280
   42POPC   C3B 4233   1.599   3.148   7.924
   42POPC   C4B 4234   1.490   3.028   7.518
   43POPC   NC3 4235  26.618  34.928   9.640
   43POPC   PO4 4236  26.713  35.570   9.499
   43POPC   GL1 4237  26.862  35.391   9.149
   43POPC   GL2 4238  26.706  35.115   9.168
   43POPC   C1A 4239  27.112  35.518   8.776
   43POPC   D2A 4240  27.030  35.802   8.398
   43POPC   C3A 4241  27.134  35.593   8.004
   43POPC   C4A 4242  27.020  35.470   7.605
   43POPC   C1B 4243  26.852  35.071   8.753
   43POPC   C2B 4244  26.937  35.288   8.362
   43POPC   C3B 4245  26.876  35.142   7.948
   43POPC   C4B 4246  26.759  34.823   7.669
   44POPC   NC3 4247   9.894  26.994   9.579
   44POPC   PO4 4248   9.428  26.516   9.630
   44POPC   GL1 4249   9.770  26.512   9.233
   44POPC   GL2 4250  10.030  26.789   9.149
   44POPC   C1A 4251   9.936  26.509   8.759
   44POPC   D2A 4252  10.096  26.823   8.428
   44POPC   C3A 4253   9.774  26.933   8.106
   44POPC   C4A 4254   9.627  26.719   7.717
   44POPC   C1B 4255   9.822  27.049   8.818
   44POPC   C2B 4256   9.900  27.336   8.442
   44POPC   C3B 4257   9.634  27.440   8.069
   44POPC   C4B 4258   9.393  27.178   7.796
   45POPC   NC3 4259   8.093  20.124   9.495
   45POPC   PO4 4260   8.001  19.480   9.586
   45POPC   GL1 4261   8.142  19.712   9.200
   45POPC   GL2 4262   8.496  19.731   9.283
   45POPC   C1A 4263   8.191  20.012   8.829
   45POPC   D2A 4264   8.112  20.061   8.402
   45POPC   C3A 4265   8.095  20.071   7.971
   45POPC   C4A 4266   7.803  19.837   7.710
   45POPC   C1B 4267   8.549  19.652   8.834
   45POPC   C2B 4268   8.397  19.603   8.364
   45POPC   C3B 4269   8.501  19.774   7.951
   45POPC   C4B 4270   8.475  19.813   7.506
   46POPC   NC3 4271   4.447  33.438   9.432
   46POPC   PO4 4272   3.962  33.951   9.510
   46POPC   GL1 4273   4.150  33.787   9.154
   46POPC   GL2 4274   4.498  33.883   9.187
   46POPC   C1A 4275   4.251  33.899   8.713
   46POPC   D2A 4276   4.522  33.867   8.317
   46POPC   C3A 4277   4.258  33.905   7.954
   46POPC   C4A 4278   3.948  33.597   7.860
   46POPC   C1B 4279   4.717  33.728   8.813
   46POPC   C2B 4280   4.960  34.022   8.547
   46POPC   C3B 4281   4.912  34.250   8.164
   46POPC   C4B 4282   4.726  34.080   7.795
   47POPC   NC3 4283  15.597   6.335   9.458
   47POPC   PO4 4284  16.125   6.711   9.690
   47POPC   GL1 4285  15.973   6.593   9.237
   47POPC   GL2 4286  16.110   6.245   9.318
   47POPC   C1A 4287  15.724   6.512   8.797
   47POPC   D2A 4288  15.667   6.725   8.388
   47POPC   C3A 4289  15.746   6.649   7.929
   47POPC   C4A 4290  16.081   6.733   7.621
   47POPC   C1B 4291  16.034   6.129   8.898
   47POPC   C2B 4292  16.096   6.198   8.452
   47POPC   C3B 4293  16.190   6.341   8.042
   47POPC   C4B 4294  15.983   6.117   7.768
   48POPC   NC3 4295  37.680  37.657   9.600
   48POPC   PO4 4296  38.154  38.088   9.332
   48POPC   GL1 4297  37.704  37.897   9.149
   48POPC   GL2 4298  37.607  37.506   9.119
   48POPC   C1A 4299  37.454  37.876   8.750
   48POPC   D2A 4300  37.278  37.688   8.395
   48POPC   C3A 4301  37.561  37.641   8.035
   48POPC   C4A 4302  37.537  37.394   7.682
   48POPC   C1B 4303  37.770  37.481   8.687
   48POPC   C2B 4304  37.893  37.798   8.382
   48POPC   C3B 4305  38.123  37.958   8.016
   48POPC   C4B 4306  37.933  37.765   7.664
   49POPC   NC3 4307   0.744  35.972   9.502
   49POPC   PO4 4308   0.303  36.418   9.576
   49POPC   GL1 4309   0.476  36.330   9.200
   49POPC   GL2 4310   0.199  36.096   9.118
   49POPC   C1A 4311   0.538  36.251   8.761
   49POPC   D2A 4312   0.638  36.024   8.398
   49POPC   C3A 4313   0.632  36.129   7.971
   49POPC   C4A 4314   0.364  36.427   7.852
   49POPC   C1B 4315   0.345  35.789   8.820
   49POPC   C2B 4316   0.202  35.725   8.423
   49POPC   C3B 4317   0.154  35.982   8.079
   49POPC   C4B 4318   0.260  35.928   7.659
   50POPC   NC3 4319  40.296  21.648   9.473
   50POPC   PO4 4320  40.953  21.566   9.619
   50POPC   GL1 4321  40.977  21.477   9.191
   50POPC   GL2 4322  40.730  21.303   9.088
   50POPC   C1A 4323  41.040  21.611   8.782
   50POPC   D2A 4324  41.030  21.490   8.348
   50POPC   C3A 4325  40.873  21.616   7.929
   50POPC   C4A 4326  40.857  21.392   7.545
   50POPC   C1B 4327  40.686  21.255   8.653
   50POPC   C2B 4328  40.596  21.222   8.204
   50POPC   C3B 4329  40.417  21.314   7.793
   50POPC   C4B 4330  40.449  21.113   7.380
   51POPC   NC3 4331   3.771   7.753   9.893
   51POPC   PO4 4332   3.456   7.276   9.535
   51POPC   GL1 4333   3.539   7.293   9.125
   51POPC   GL2 4334   3.386   6.981   9.093
   51POPC   C1A 4335   3.589   7.547   8.740
   51POPC   D2A 4336   3.302   7.585   8.401
   51POPC   C3A 4337   3.471   7.450   8.020
   51POPC   C4A 4338   3.870   7.522   7.788
   51POPC   C1B 4339   3.309   7.120   8.691
   51POPC   C2B 4340   3.551   7.072   8.375
   51POPC   C3B 4341   3.792   7.066   8.053
   51POPC   C4B 4342   3.683   7.051   7.672
   52POPC   NC3 4343   8.849  29.842   9.635
   52POPC   PO4 4344   8.705  30.454   9.534
   52POPC   GL1 4345   8.753  30.160   9.211
   52POPC   GL2 4346   8.666  29.824   9.169
   52POPC   C1A 4347   9.058  30.083   8.897
   52POPC   D2A 4348   9.296  30.024   8.535
   52POPC   C3A 4349   9.134  29.900   8.148
   52POPC   C4A 4350   9.299  30.095   7.779
   52POPC   C1B 4351   8.584  29.875   8.780
   52POPC   C2B 4352   8.477  29.717   8.414
   52POPC   C3B 4353   8.636  29.846   8.061
   52POPC   C4B 4354   8.657  30.055   7.666
   53POPC   NC3 4355  33.184   8.088   9.487
   53POPC   PO4 4356  32.567   8.291   9.561
   53POPC   GL1 4357  32.783   8.575   9.237
   53POPC   GL2 4358  33.179   8.578   9.233
   53POPC   C1A 4359  32.776   8.591   8.781
   53POPC   D2A 4360  32.822   8.178   8.550
   53POPC   C3A 4361  32.933   8.256   8.139
   53POPC   C4A 4362  32.913   7.970   7.817
   53POPC   C1B 4363  33.182   8.268   8.883
   53POPC   C2B 4364  33.334   8.096   8.494
   53POPC   C3B 4365  33.393   8.069   8.061
   53POPC   C4B 4366  33.287   8.302   7.705
   54POPC   NC3 4367  41.631  28.915   9.643
   54POPC   PO4 4368  41.204  29.411   9.603
   54POPC   GL1 4369  41.485  29.252   9.234
   54POPC   GL2 4370  41.810  29.370   9.339
   54POPC   C1A 4371  41.610  29.070   8.792
   54POPC   D2A 4372  41.395  29.162   8.409
   54POPC   C3A 4373  41.456  29.028   8.048
   54POPC   C4A 4374  41.456  29.177   7.644
   54POPC   C1B 4375  41.827  29.513   8.905
   54POPC   C2B 4376  41.738  29.529   8.481
   54POPC   C3B 4377  41.856  29.631   8.073
   54POPC   C4B 4378  41.775  29.612   7.639
   55POPC   NC3 4379  19.272  28.903   9.367
   55POPC   PO4 4380  19.014  29.460   9.590
   55POPC   GL1 4381  18.944  29.245   9.156
   55POPC   GL2 4382  19.243  29.272   9.029
   55POPC   C1A 4383  18.891  28.990   8.777
   55POPC   D2A 4384  18.744  29.145   8.397
   55POPC   C3A 4385  18.800  28.901   8.039
   55POPC   C4A 4386  18.833  28.990   7.620
   55POPC   C1B 4387  19.152  29.411   8.646
   55POPC   C2B 4388  19.401  29.553   8.306
   55POPC   C3B 4389  19.297  29.478   7.908
   55POPC   C4B 4390  19.215  29.302   7.493
   56POPC   NC3 4391  10.236   1.760   9.419
   56POPC   PO4 4392  10.892   1.778   9.317
   56POPC   GL1 4393  10.562   1.919   9.048
   56POPC   GL2 4394  10.823   2.145   8.875
   56POPC   C1A 4395  10.334   2.172   8.715
   56POPC   D2A 4396  10.264   2.458   8.371
   56POPC   C3A 4397  10.251   2.196   8.005
   56POPC   C4A 4398  10.220   1.796   7.764
   56POPC   C1B 4399  10.727   1.809   8.606
   56POPC   C2B 4400  10.574   1.896   8.248
   56POPC   C3B 4401  10.785   2.060   7.905
   56POPC   C4B 4402  10.726   1.755   7.612
   57POPC   NC3 4403  36.922  27.449   9.455
   57POPC   PO4 4404  36.469  27.875   9.165
   57POPC   GL1 4405  36.802  27.684   9.001
   57POPC   GL2 4406  37.044  27.901   9.098
   57POPC   C1A 4407  36.907  27.679   8.575
   57POPC   D2A 4408  36.612  27.726   8.257
   57POPC   C3A 4409  36.738  27.361   8.057
   57POPC   C4A 4410  37.107  27.384   7.717
   57POPC   C1B 4411  37.263  28.015   8.737
   57POPC   C2B 4412  37.358  27.819   8.341
   57POPC   C3B 4413  37.084  27.736   8.054
   57POPC   C4B 4414  36.730  27.736   7.720
   58POPC   NC3 4415   3.034  20.373   9.367
   58POPC   PO4 4416   3.770  20.186   9.532
   58POPC   GL1 4417   3.524  20.335   9.176
   58POPC   GL2 4418   3.501  20.682   9.144
   58POPC   C1A 4419   3.295  20.396   8.762
   58POPC   D2A 4420   3.190  20.234   8.351
   58POPC   C3A 4421   3.489  20.306   8.003
   58POPC   C4A 4422   3.634  20.533   7.617
   58POPC   C1B 4423   3.441  20.895   8.790
   58POPC   C2B 4424   3.210  20.818   8.408
   58POPC   C3B 4425   3.453  20.840   8.015
   58POPC   C4B 4426   3.632  21.027   7.606
   59POPC   NC3 4427  39.663  33.337   9.487
   59POPC   PO4 4428  39.535  32.658   9.625
   59POPC   GL1 4429  39.755  32.885   9.264
   59POPC   GL2 4430  40.102  32.949   9.092
   59POPC   C1A 4431  39.698  32.886   8.806
   59POPC   D2A 4432  40.055  32.986   8.490
   59POPC   C3A 4433  39.836  32.974   8.090
   59POPC   C4A 4434  39.724  33.030   7.665
   59POPC   C1B 4435  40.379  33.260   8.863
   59POPC   C2B 4436  40.486  33.358   8.456
   59POPC   C3B 4437  40.272  33.265   8.090
   59POPC   C4B 4438  40.216  33.016   7.719
   60POPC   NC3 4439  16.941   9.986   9.512
   60POPC   PO4 4440  16.493   9.553   9.433
   60POPC   GL1 4441  16.804   9.648   9.143
   60POPC   GL2 4442  16.626   9.976   9.100
   60POPC   C1A 4443  16.755   9.701   8.709
   60POPC   D2A 4444  16.740   9.992   8.402
   60POPC   C3A 4445  16.698   9.838   8.006
   60POPC   C4A 4446  16.551   9.809   7.604
   60POPC   C1B 4447  17.016  10.123   8.881
   60POPC   C2B 4448  17.228  10.120   8.515
   60POPC   C3B 4449  17.162  10.061   8.097
   60POPC   C4B 4450  16.994  10.068   7.681
   61POPC   NC3 4451  15.633  25.905   9.448
   61POPC   PO4 4452  16.258  26.289   9.512
   61POPC   GL1 4453  16.066  26.060   9.222
   61POPC   GL2 4454  15.803  26.291   9.160
   61POPC   C1A 4455  16.016  25.804   8.868
   61POPC   D2A 4456  15.779  25.956   8.494
   61POPC   C3A 4457  15.909  25.782   8.106
   61POPC   C4A 4458  15.818  25.907   7.678
   61POPC   C1B 4459  16.059  26.291   8.772
   61POPC   C2B 4460  16.195  26.258   8.346
   61POPC   C3B 4461  15.876  26.282   8.057
   61POPC   C4B 4462  15.763  26.442   7.689
   62POPC   NC3 4463   3.841  22.623   9.503
   62POPC   PO4 4464   3.550  23.331   9.551
   62POPC   GL1 4465   3.679  23.192   9.135
   62POPC   GL2 4466   3.615  22.807   9.093
   62POPC   C1A 4467   3.516  23.111   8.702
   62POPC   D2A 4468   3.186  22.966   8.414
   62POPC   C3A 4469   3.353  22.925   7.993
   62POPC   C4A 4470   3.687  23.169   7.786
   62POPC   C1B 4471   3.822  22.630   8.744
   62POPC   C2B 4472   3.832  22.818   8.348
   62POPC   C3B 4473   4.044  22.815   7.970
   62POPC   C4B 4474   3.817  22.698   7.641
   63POPC   NC3 4475  12.819  14.186   9.491
   63POPC   PO4 4476  12.478  14.742   9.454
   63POPC   GL1 4477  12.399  14.345   9.151
   63POPC   GL2 4478  12.653  14.065   9.044
   63POPC   C1A 4479  12.414  14.309   8.675
   63POPC   D2A 4480  12.769  14.353   8.383
   63POPC   C3A 4481  12.664  14.611   8.050
   63POPC   C4A 4482  12.530  14.354   7.757
   63POPC   C1B 4483  12.988  14.050   8.746
   63POPC   C2B 4484  13.077  13.924   8.329
   63POPC   C3B 4485  12.991  14.150   7.913
   63POPC   C4B 4486  13.303  14.256   7.580
   64POPC   NC3 4487  44.895  42.672   9.306
   64POPC   PO4 4488  44.802  42.008   9.518
   64POPC   GL1 4489  44.590  42.246   9.142
   64POPC   GL2 4490  44.220  42.369   9.102
   64POPC   C1A 4491  44.427  42.088   8.740
   64POPC   D2A 4492  44.551  42.305   8.357
   64POPC   C3A 4493  44.424  42.180   7.958
   64POPC   C4A 4494  44.628  42.335   7.606
   64POPC   C1B 4495  44.442  42.626   8.780
   64POPC   C2B 4496  44.493  42.830   8.391
   64POPC   C3B 4497  44.589  42.709   7.972
   64POPC   C4B 4498  44.507  42.854   7.575
   65POPC   NC3 4499  31.304  38.976   9.710
   65POPC   PO4 4500  31.830  39.456   9.542
   65POPC   GL1 4501  31.653  39.156   9.249
   65POPC   GL2 4502  31.315  39.130   9.217
   65POPC   C1A 4503  31.583  39.130   8.786
   65POPC   D2A 4504  31.699  39.332   8.409
   65POPC   C3A 4505  31.658  39.035   8.104
   65POPC   C4A 4506  31.411  39.034   7.762
   65POPC   C1B 4507  31.192  39.462   8.887
   65POPC   C2B 4508  31.052  39.460   8.485
   65POPC   C3B 4509  31.198  39.321   8.122
   65POPC   C4B 4510  31.042  39.434   7.721
   66POPC   NC3 4511   1.271  10.122   9.591
   66POPC   PO4 4512   1.087   9.542   9.429
   66POPC   GL1 4513   0.995   9.786   9.113
   66POPC   GL2 4514   0.888  10.136   9.219
   66POPC   C1A 4515   1.109   9.630   8.723
   66POPC   D2A 4516   1.440   9.624   8.372
   66POPC   C3A 4517   1.331   9.705   7.953
   66POPC   C4A 4518   1.181   9.583   7.553
   66POPC   C1B 4519   0.911  10.126   8.754
   66POPC   C2B 4520   1.030   9.944   8.341
   66POPC   C3B 4521   1.045  10.123   7.946
   66POPC   C4B 4522   0.931  10.016   7.534
   67POPC   NC3 4523  24.928  14.180   9.878
   67POPC   PO4 4524  24.596  14.586   9.438
   67POPC   GL1 4525  24.422  14.422   9.095
   67POPC   GL2 4526  24.678  14.266   8.891
   67POPC   C1A 4527  24.205  14.444   8.742
   67POPC   D2A 4528  24.402  14.378   8.396
   67POPC   C3A 4529  24.301  14.565   8.008
   67POPC   C4A 4530  24.419  14.276   7.704
   67POPC   C1B 4531  24.698  14.685   8.753
   67POPC   C2B 4532  24.836  14.715   8.389
   67POPC   C3B 4533  24.820  14.390   8.107
   67POPC   C4B 4534  24.771  14.688   7.817
   68POPC   NC3 4535   3.096  18.804   9.451
   68POPC   PO4 4536   2.512  19.165   9.341
   68POPC   GL1 4537   2.913  19.182   9.139
   68POPC   GL2 4538   2.993  18.876   8.948
   68POPC   C1A 4539   3.110  19.397   8.794
   68POPC   D2A 4540   3.017  19.183   8.392
   68POPC   C3A 4541   2.747  19.373   8.068
   68POPC   C4A 4542   2.639  19.229   7.633
   68POPC   C1B 4543   2.568  18.855   8.737
   68POPC   C2B 4544   2.369  18.944   8.323
   68POPC   C3B 4545   2.685  18.868   7.995
   68POPC   C4B 4546   2.804  18.716   7.596
   69POPC   NC3 4547  30.818  41.757   9.585
   69POPC   PO4 4548  30.317  41.411   9.536
   69POPC   GL1 4549  30.544  41.539   9.159
   69POPC   GL2 4550  30.870  41.421   9.181
   69POPC   C1A 4551  30.591  41.714   8.721
   69POPC   D2A 4552  30.393  41.554   8.313
   69POPC   C3A 4553  30.502  41.706   7.910
   69POPC   C4A 4554  30.856  41.922   7.938
   69POPC   C1B 4555  30.983  41.181   8.821
   69POPC   C2B 4556  30.847  41.268   8.396
   69POPC   C3B 4557  30.858  41.359   7.984
   69POPC   C4B 4558  30.881  41.115   7.626
   70POPC   NC3 4559  11.228  23.990   9.514
   70POPC   PO4 4560  11.071  23.308   9.437
   70POPC   GL1 4561  11.179  23.461   9.046
   70POPC   GL2 4562  11.326  23.673   9.142
   70POPC   C1A 4563  11.276  23.530   8.596
   70POPC   D2A 4564  11.093  23.335   8.243
   70POPC   C3A 4565  11.152  23.489   7.842
   70POPC   C4A 4566  11.157  23.944   7.799
   70POPC   C1B 4567  11.541  23.886   8.881
   70POPC   C2B 4568  11.719  23.832   8.507
   70POPC   C3B 4569  11.498  23.742   8.144
   70POPC   C4B 4570  11.639  23.819   7.730
   71POPC   NC3 4571  31.861  27.465   9.525
   71POPC   PO4 4572  32.414  27.701   9.189
   71POPC   GL1 4573  32.037  27.566   9.070
   71POPC   GL2 4574  31.788  27.789   9.132
   71POPC   C1A 4575  31.900  27.492   8.710
   71POPC   D2A 4576  32.160  27.651   8.435
   71POPC   C3A 4577  32.009  27.709   8.054
   71POPC   C4A 4578  32.277  27.567   7.726
   71POPC   C1B 4579  31.944  27.995   8.777
   71POPC   C2B 4580  32.052  28.144   8.393
   71POPC   C3B 4581  32.286  28.155   8.030
   71POPC   C4B 4582  32.025  28.094   7.709
   72POPC   NC3 4583  16.040  33.399   9.482
   72POPC   PO4 4584  15.747  34.075   9.491
   72POPC   GL1 4585  15.945  33.800   9.156
   72POPC   GL2 4586  15.836  33.442   9.010
   72POPC   C1A 4587  15.976  33.862   8.721
   72POPC   D2A 4588  15.765  33.722   8.345
   72POPC   C3A 4589  15.928  33.967   8.018
   72POPC   C4A 4590  15.675  34.006   7.672
   72POPC   C1B 4591  16.205  33.395   8.750
   72POPC   C2B 4592  16.269  33.615   8.346
   72POPC   C3B 4593  16.254  33.592   7.921
   72POPC   C4B 4594  15.808  33.501   7.789
   73POPC   NC3 4595   7.290  33.729   9.560
   73POPC   PO4 4596   7.912  33.510   9.614
   73POPC   GL1 4597   7.640  33.535   9.207
   73POPC   GL2 4598   7.448  33.858   9.114
   73POPC   C1A 4599   7.408  33.461   8.802
   73POPC   D2A 4600   7.196  33.630   8.427
   73POPC   C3A 4601   7.384  33.460   8.041
   73POPC   C4A 4602   7.547  33.304   7.605
   73POPC   C1B 4603   7.062  33.854   8.871
   73POPC   C2B 4604   6.834  34.018   8.522
   73POPC   C3B 4605   6.869  33.870   8.101
   73POPC   C4B 4606   6.978  34.051   7.695
   74POPC   NC3 4607   4.812   4.581   9.815
   74POPC   PO4 4608   5.122   4.136   9.400
   74POPC   GL1 4609   5.044   4.489   9.081
   74POPC   GL2 4610   4.854   4.749   9.244
   74POPC   C1A 4611   5.033   4.423   8.636
   74POPC   D2A 4612   4.868   4.036   8.477
   74POPC   C3A 4613   4.926   3.955   8.057
   74POPC   C4A 4614   5.042   4.187   7.750
   74POPC   C1B 4615   4.679   4.758   8.808
   74POPC   C2B 4616   4.681   4.689   8.342
   74POPC   C3B 4617   5.003   4.640   7.990
   74POPC   C4B 4618   5.019   4.612   7.506
   75POPC   NC3 4619  12.034  32.586   9.505
   75POPC   PO4 4620  11.721  31.935   9.615
   75POPC   GL1 4621  11.924  32.146   9.245
   75POPC   GL2 4622  11.752  32.437   9.099
   75POPC   C1A 4623  12.268  32.204   8.914
   75POPC   D2A 4624  12.286  32.316   8.437
   75POPC   C3A 4625  12.304  32.157   7.963
   75POPC   C4A 4626  12.305  32.243   7.487
   75POPC   C1B 4627  11.813  32.259   8.718
   75POPC   C2B 4628  11.754  32.171   8.311
   75POPC   C3B 4629  11.821  32.332   7.934
   75POPC   C4B 4630  11.859  32.013   7.621
   76POPC   NC3 4631  44.961  29.675   9.508
   76POPC   PO4 4632   0.744  29.618   9.514
   76POPC   GL1 4633   0.584  29.892   9.160
   76POPC   GL2 4634   0.208  29.934   9.107
   76POPC   C1A 4635   0.549  29.927   8.692
   76POPC   D2A 4636   0.582  29.674   8.294
   76POPC   C3A 4637   0.687  29.893   7.896
   76POPC   C4A 4638   0.757  30.359   7.834
   76POPC   C1B 4639  44.992  29.882   8.686
   76POPC   C2B 4640   0.089  29.963   8.234
   76POPC   C3B 4641   0.260  30.125   7.832
   76POPC   C4B 4642   0.131  30.197   7.379
   77POPC   NC3 4643  38.274  41.356   9.558
   77POPC   PO4 4644  38.205  41.971   9.256
   77POPC   GL1 4645  38.388  41.586   9.104
   77POPC   GL2 4646  38.619  41.299   9.191
   77POPC   C1A 4647  38.422  41.548   8.680
   77POPC   D2A 4648  38.251  41.350   8.326
   77POPC   C3A 4649  38.397  41.590   7.977
   77POPC   C4A 4650  38.321  41.692   7.576
   77POPC   C1B 4651  38.846  41.288   8.796
   77POPC   C2B 4652  38.880  41.489   8.404
   77POPC   C3B 4653  38.882  41.416   7.965
   77POPC   C4B 4654  38.795  41.517   7.539
   78POPC   NC3 4655   3.048  34.626   9.459
   78POPC   PO4 4656   2.404  34.858   9.466
   78POPC   GL1 4657   2.663  34.637   9.120
   78POPC   GL2 4658   2.791  34.285   9.180
   78POPC   C1A 4659   3.011  34.709   8.815
   78POPC   D2A 4660   3.149  34.944   8.439
   78POPC   C3A 4661   3.096  34.802   8.017
   78POPC   C4A 4662   2.777  34.757   7.699
   78POPC   C1B 4663   2.585  34.224   8.829
   78POPC   C2B 4664   2.652  34.476   8.491
   78POPC   C3B 4665   2.774  34.411   8.078
   78POPC   C4B 4666   2.945  34.074   7.818
   79POPC   NC3 4667   2.587  24.992   9.578
   79POPC   PO4 4668   3.053  25.490   9.627
   79POPC   GL1 4669   2.823  25.305   9.243
   79POPC   GL2 4670   2.893  24.961   9.175
   79POPC   C1A 4671   2.648  25.239   8.806
   79POPC   D2A 4672   2.873  25.193   8.428
   79POPC   C3A 4673   2.710  25.263   8.037
   79POPC   C4A 4674   2.537  25.571   7.783
   79POPC   C1B 4675   2.765  24.736   8.768
   79POPC   C2B 4676   2.678  24.718   8.338
   79POPC   C3B 4677   2.574  24.753   7.922
   79POPC   C4B 4678   2.570  25.076   7.587
   80POPC   NC3 4679   4.258  35.861   9.508
   80POPC   PO4 4680   4.147  36.550   9.577
   80POPC   GL1 4681   4.370  36.313   9.257
   80POPC   GL2 4682   4.102  36.146   9.044
   80POPC   C1A 4683   4.609  36.200   8.886
   80POPC   D2A 4684   4.398  36.029   8.551
   80POPC   C3A 4685   4.402  36.164   8.130
   80POPC   C4A 4686   4.396  36.081   7.726
   80POPC   C1B 4687   3.897  35.940   8.654
   80POPC   C2B 4688   4.003  35.836   8.248
   80POPC   C3B 4689   3.968  35.814   7.826
   80POPC   C4B 4690   4.141  35.773   7.420
   81POPC   NC3 4691  40.289  34.075   9.734
   81POPC   PO4 4692  40.178  34.716   9.502
   81POPC   GL1 4693  40.024  34.793   9.088
   81POPC   GL2 4694  40.127  34.506   8.974
   81POPC   C1A 4695  40.122  34.886   8.630
   81POPC   D2A 4696  39.962  34.641   8.367
   81POPC   C3A 4697  40.197  34.492   8.116
   81POPC   C4A 4698  40.077  34.618   7.642
   81POPC   C1B 4699  40.070  34.222   8.656
   81POPC   C2B 4700  39.839  34.157   8.296
   81POPC   C3B 4701  39.794  34.299   7.892
   81POPC   C4B 4702  39.986  34.148   7.479
   82POPC   NC3 4703  39.070  30.668   9.665
   82POPC   PO4 4704  39.675  30.700   9.498
   82POPC   GL1 4705  39.365  30.586   9.202
   82POPC   GL2 4706  39.068  30.818   9.171
   82POPC   C1A 4707  39.250  30.537   8.778
   82POPC   D2A 4708  38.990  30.560   8.423
   82POPC   C3A 4709  39.119  30.684   8.043
   82POPC   C4A 4710  38.909  30.868   7.730
   82POPC   C1B 4711  39.353  31.020   8.904
   82POPC   C2B 4712  39.384  30.906   8.448
   82POPC   C3B 4713  39.616  30.808   8.081
   82POPC   C4B 4714  39.436  30.954   7.698
   83POPC   NC3 4715  18.339  25.121   9.697
   83POPC   PO4 4716  17.848  25.585   9.501
   83POPC   GL1 4717  18.193  25.502   9.221
   83POPC   GL2 4718  18.315  25.122   9.190
   83POPC   C1A 4719  18.079  25.385   8.810
   83POPC   D2A 4720  18.197  25.067   8.535
   83POPC   C3A 4721  18.033  25.134   8.138
   83POPC   C4A 4722  18.142  25.492   7.874
   83POPC   C1B 4723  18.582  25.334   8.897
   83POPC   C2B 4724  18.679  25.210   8.483
   83POPC   C3B 4725  18.531  25.196   8.120
   83POPC   C4B 4726  18.651  25.472   7.866
   84POPC   NC3 4727  30.969  10.598   9.353
   84POPC   PO4 4728  30.340  10.807   9.369
   84POPC   GL1 4729  30.539  10.577   9.050
   84POPC   GL2 4730  30.833  10.381   8.937
   84POPC   C1A 4731  30.582  10.752   8.631
   84POPC   D2A 4732  30.346  10.797   8.224
   84POPC   C3A 4733  30.692  10.861   7.964
   84POPC   C4A 4734  30.917  10.716   7.612
   84POPC   C1B 4735  30.981  10.186   8.623
   84POPC   C2B 4736  30.890  10.482   8.296
   84POPC   C3B 4737  30.797  10.310   7.928
   84POPC   C4B 4738  30.967   9.872   7.987
   85POPC   NC3 4739  31.769  13.115   9.495
   85POPC   PO4 4740  31.226  12.671   9.673
   85POPC   GL1 4741  31.476  12.763   9.211
   85POPC   GL2 4742  31.865  12.755   9.136
   85POPC   C1A 4743  31.383  13.015   8.787
   85POPC   D2A 4744  31.067  13.035   8.466
   85POPC   C3A 4745  31.252  13.060   8.046
   85POPC   C4A 4746  31.069  13.113   7.652
   85POPC   C1B 4747  31.761  12.714   8.698
   85POPC   C2B 4748  31.686  13.052   8.363
   85POPC   C3B 4749  31.796  13.067   7.921
   85POPC   C4B 4750  31.952  12.686   7.688
   86POPC   NC3 4751  44.109  12.492   9.451
   86POPC   PO4 4752  44.302  11.857   9.521
   86POPC   GL1 4753  44.062  11.927   9.127
   86POPC   GL2 4754  43.696  11.947   9.208
   86POPC   C1A 4755  44.149  11.993   8.672
   86POPC   D2A 4756  44.382  12.137   8.291
   86POPC   C3A 4757  44.135  12.104   7.922
   86POPC   C4A 4758  43.732  11.861   7.791
   86POPC   C1B 4759  43.634  12.062   8.759
   86POPC   C2B 4760  43.738  12.030   8.307
   86POPC   C3B 4761  43.693  12.329   7.947
   86POPC   C4B 4762  43.591  12.332   7.495
   87POPC   NC3 4763  10.239  11.972   9.507
   87POPC   PO4 4764  10.883  12.120   9.465
   87POPC   GL1 4765  10.690  11.906   9.126
   87POPC   GL2 4766  10.340  11.770   9.058
   87POPC   C1A 4767  10.660  11.942   8.699
   87POPC   D2A 4768  10.529  12.227   8.427
   87POPC   C3A 4769  10.541  12.002   8.084
   87POPC   C4A 4770  10.456  12.232   7.754
   87POPC   C1B 4771  10.175  12.107   8.789
   87POPC   C2B 4772  10.023  12.172   8.357
   87POPC   C3B 4773  10.049  11.993   7.963
   87POPC   C4B 4774  10.308  11.730   7.698
   88POPC   NC3 4775  24.760  18.436   9.359
   88POPC   PO4 4776  24.320  18.079   9.663
   88POPC   GL1 4777  24.303  18.350   9.173
   88POPC   GL2 4778  24.410  18.681   9.055
   88POPC   C1A 4779  24.392  18.263   8.695
   88POPC   D2A 4780  24.548  17.942   8.381
   88POPC   C3A 4781  24.682  18.094   7.979
   88POPC   C4A 4782  24.437  18.364   7.718
   88POPC   C1B 4783  24.689  18.673   8.699
   88POPC   C2B 4784  24.612  18.523   8.275
   88POPC   C3B 4785  24.801  18.653   7.907
   88POPC   C4B 4786  24.833  18.589   7.471
   89POPC   NC3 4787  38.084  33.721   9.508
   89POPC   PO4 4788  38.700  34.006   9.447
   89POPC   GL1 4789  38.567  33.933   9.038
   89POPC   GL2 4790  38.253  33.788   9.051
   89POPC   C1A 4791  38.777  33.783   8.665
   89POPC   D2A 4792  38.748  33.582   8.263
   89POPC   C3A 4793  38.645  33.780   7.878
   89POPC   C4A 4794  38.604  33.676   7.434
   89POPC   C1B 4795  38.306  33.547   8.724
   89POPC   C2B 4796  38.158  33.604   8.306
   89POPC   C3B 4797  38.142  33.755   7.892
   89POPC   C4B 4798  38.297  34.181   7.793
   90POPC   NC3 4799  39.049  25.753   9.474
   90POPC   PO4 4800  39.340  25.208   9.470
   90POPC   GL1 4801  39.252  25.447   9.102
   90POPC   GL2 4802  39.417  25.758   9.069
   90POPC   C1A 4803  39.158  25.270   8.713
   90POPC   D2A 4804  38.907  25.035   8.422
   90POPC   C3A 4805  38.789  25.213   8.055
   90POPC   C4A 4806  38.907  25.372   7.690
   90POPC   C1B 4807  39.356  25.720   8.606
   90POPC   C2B 4808  39.264  25.417   8.224
   90POPC   C3B 4809  39.425  25.424   7.770
   90POPC   C4B 4810  39.488  25.629   7.314
   91POPC   NC3 4811  20.539  23.402   9.548
   91POPC   PO4 4812  20.781  24.028   9.522
   91POPC   GL1 4813  20.847  23.693   9.224
   91POPC   GL2 4814  20.496  23.672   9.081
   91POPC   C1A 4815  20.945  23.549   8.813
   91POPC   D2A 4816  20.795  23.400   8.400
   91POPC   C3A 4817  20.558  23.705   8.158
   91POPC   C4A 4818  20.569  23.702   7.743
   91POPC   C1B 4819  20.349  23.762   8.640
   91POPC   C2B 4820  20.051  23.727   8.274
   91POPC   C3B 4821  20.061  23.786   7.808
   91POPC   C4B 4822  20.073  23.653   7.373
   92POPC   NC3 4823   9.150  33.897   9.641
   92POPC   PO4 4824   8.890  33.330   9.717
   92POPC   GL1 4825   9.034  33.739   9.204
   92POPC   GL2 4826   8.767  33.944   9.062
   92POPC   C1A 4827   9.196  33.873   8.754
   92POPC   D2A 4828   9.379  33.997   8.312
   92POPC   C3A 4829   9.187  33.769   7.941
   92POPC   C4A 4830   9.308  33.363   7.712
   92POPC   C1B 4831   8.806  34.203   8.714
   92POPC   C2B 4832   8.865  34.065   8.304
   92POPC   C3B 4833   8.682  33.936   7.928
   92POPC   C4B 4834   8.702  33.886   7.491
   93POPC   NC3 4835  19.027  10.996   9.544
   93POPC   PO4 4836  18.893  11.650   9.444
   93POPC   GL1 4837  19.128  11.381   9.160
   93POPC   GL2 4838  19.288  11.017   9.115
   93POPC   C1A 4839  18.838  11.186   8.890
   93POPC   D2A 4840  18.841  11.124   8.435
   93POPC   C3A 4841  19.137  11.254   8.076
   93POPC   C4A 4842  18.876  11.208   7.736
   93POPC   C1B 4843  19.308  11.139   8.700
   93POPC   C2B 4844  19.288  10.870   8.364
   93POPC   C3B 4845  19.383  10.818   7.921
   93POPC   C4B 4846  19.355  11.087   7.558
   94POPC   NC3 4847  10.734  34.404   9.421
   94POPC   PO4 4848  10.202  34.662   9.617
   94POPC   GL1 4849  10.283  34.509   9.184
   94POPC   GL2 4850  10.281  34.159   9.184
   94POPC   C1A 4851  10.551  34.686   8.839
   94POPC   D2A 4852  10.724  34.820   8.444
   94POPC   C3A 4853  10.838  34.454   8.197
   94POPC   C4A 4854  10.853  34.470   7.777
   94POPC   C1B 4855  10.560  34.170   8.836
   94POPC   C2B 4856  10.433  34.359   8.471
   94POPC   C3B 4857  10.294  34.372   8.061
   94POPC   C4B 4858  10.443  34.160   7.710
   95POPC   NC3 4859  38.533  13.202   9.347
   95POPC   PO4 4860  38.265  13.781   9.415
   95POPC   GL1 4861  38.336  13.700   9.016
   95POPC   GL2 4862  38.009  13.868   8.931
   95POPC   C1A 4863  38.534  13.352   8.743
   95POPC   D2A 4864  38.509  13.175   8.358
   95POPC   C3A 4865  38.287  13.482   8.128
   95POPC   C4A 4866  38.426  13.640   7.745
   95POPC   C1B 4867  38.217  13.820   8.536
   95POPC   C2B 4868  38.426  14.025   8.200
   95POPC   C3B 4869  38.752  13.974   7.915
   95POPC   C4B 4870  38.690  13.974   7.448
   96POPC   NC3 4871  23.139  36.965   9.452
   96POPC   PO4 4872  22.495  37.049   9.693
   96POPC   GL1 4873  22.703  36.797   9.262
   96POPC   GL2 4874  22.970  36.489   9.317
   96POPC   C1A 4875  22.935  36.859   8.809
   96POPC   D2A 4876  23.085  36.949   8.364
   96POPC   C3A 4877  22.764  36.982   8.047
   96POPC   C4A 4878  22.778  37.026   7.616
   96POPC   C1B 4879  23.054  36.376   8.900
   96POPC   C2B 4880  23.207  36.477   8.495
   96POPC   C3B 4881  23.030  36.432   8.090
   96POPC   C4B 4882  23.041  36.608   7.717
   97POPC   NC3 4883  10.424  38.870   9.455
   97POPC   PO4 4884  10.771  39.438   9.513
   97POPC   GL1 4885  10.496  39.378   9.151
   97POPC   GL2 4886  10.106  39.382   9.251
   97POPC   C1A 4887  10.641  39.292   8.708
   97POPC   D2A 4888  10.728  39.483   8.279
   97POPC   C3A 4889  10.571  39.267   7.933
   97POPC   C4A 4890  10.474  38.855   7.806
   97POPC   C1B 4891  10.081  39.202   8.820
   97POPC   C2B 4892  10.237  39.300   8.392
   97POPC   C3B 4893  10.118  39.463   8.006
   97POPC   C4B 4894  10.113  39.205   7.632
   98POPC   NC3 4895   2.984   7.185   9.650
   98POPC   PO4 4896   2.560   7.660   9.759
   98POPC   GL1 4897   2.720   7.395   9.259
   98POPC   GL2 4898   3.041   7.350   9.176
   98POPC   C1A 4899   2.870   7.617   8.785
   98POPC   D2A 4900   2.864   7.866   8.392
   98POPC   C3A 4901   2.973   7.672   8.003
   98POPC   C4A 4902   2.699   7.576   7.642
   98POPC   C1B 4903   2.831   7.132   8.827
   98POPC   C2B 4904   2.873   7.241   8.399
   98POPC   C3B 4905   2.727   7.207   7.984
   98POPC   C4B 4906   3.113   7.269   7.698
   99POPC   NC3 4907  23.813  30.264   9.541
   99POPC   PO4 4908  23.459  29.659   9.842
   99POPC   GL1 4909  23.473  29.723   9.284
   99POPC   GL2 4910  23.643  30.058   9.127
   99POPC   C1A 4911  23.647  29.684   8.820
   99POPC   D2A 4912  23.362  29.845   8.493
   99POPC   C3A 4913  23.421  29.790   8.058
   99POPC   C4A 4914  23.800  29.539   7.900
   99POPC   C1B 4915  23.962  30.322   8.896
   99POPC   C2B 4916  24.056  30.407   8.460
   99POPC   C3B 4917  23.751  30.148   8.232
   99POPC   C4B 4918  23.785  30.028   7.797
  100POPC   NC3 4919   9.347  44.655   9.374
  100POPC   PO4 4920  10.086  44.712   9.395
  100POPC   GL1 4921   9.786  44.781   9.079
  100POPC   GL2 4922   9.670  44.462   9.016
  100POPC   C1A 4923   9.917  44.815   8.658
  100POPC   D2A 4924   9.795  44.517   8.373
  100POPC   C3A 4925   9.666  44.715   8.020
  100POPC   C4A 4926   9.832  44.586   7.702
  100POPC   C1B 4927   9.411  44.641   8.683
  100POPC   C2B 4928   9.292  44.470   8.254
  100POPC   C3B 4929   9.410  44.292   7.816
  100POPC   C4B 4930   9.629  44.264   7.375
  101POPC   NC3 4931  36.578   3.633   9.282
  101POPC   PO4 4932  37.190   3.273   9.449
  101POPC   GL1 4933  37.143   3.606   9.145
  101POPC   GL2 4934  37.069   3.956   9.256
  101POPC   C1A 4935  36.938   3.584   8.720
  101POPC   D2A 4936  36.709   3.480   8.335
  101POPC   C3A 4937  36.951   3.509   7.944
  101POPC   C4A 4938  36.878   3.321   7.526
  101POPC   C1B 4939  37.214   4.010   8.813
  101POPC   C2B 4940  37.087   3.962   8.380
  101POPC   C3B 4941  37.281   3.927   7.971
  101POPC   C4B 4942  37.278   3.924   7.519
  102POPC   NC3 4943  27.616   1.388   9.571
  102POPC   PO4 4944  27.633   0.774   9.192
  102POPC   GL1 4945  27.675   1.052   8.942
  102POPC   GL2 4946  27.486   1.265   9.099
  102POPC   C1A 4947  27.722   1.136   8.534
  102POPC   D2A 4948  27.700   1.341   8.202
  102POPC   C3A 4949  27.621   1.056   7.910
  102POPC   C4A 4950  27.788   1.046   7.550
  102POPC   C1B 4951  27.265   1.298   8.712
  102POPC   C2B 4952  27.213   1.117   8.320
  102POPC   C3B 4953  27.238   1.360   7.969
  102POPC   C4B 4954  27.331   1.289   7.507
  103POPC   NC3 4955   5.133  43.838   9.655
  103POPC   PO4 4956   5.785  44.099   9.527
  103POPC   GL1 4957   5.372  44.040   9.258
  103POPC   GL2 4958   5.198  43.715   9.161
  103POPC   C1A 4959   5.168  44.175   8.883
  103POPC   D2A 4960   5.192  44.358   8.475
  103POPC   C3A 4961   5.063  44.086   8.130
  103POPC   C4A 4962   5.116  44.033   7.697
  103POPC   C1B 4963   4.962  43.723   8.752
  103POPC   C2B 4964   4.876  43.611   8.318
  103POPC   C3B 4965   4.772  43.722   7.878
  103POPC   C4B 4966   4.676  43.887   7.421
  104POPC   NC3 4967  35.481  34.233   9.503
  104POPC   PO4 4968  35.676  34.812   9.359
  104POPC   GL1 4969  35.498  34.818   9.005
  104POPC   GL2 4970  35.331  34.495   9.074
  104POPC   C1A 4971  35.279  34.774   8.655
  104POPC   D2A 4972  35.241  34.522   8.321
  104POPC   C3A 4973  35.293  34.857   8.060
  104POPC   C4A 4974  35.304  35.042   7.708
  104POPC   C1B 4975  35.341  34.237   8.742
  104POPC   C2B 4976  35.594  34.070   8.448
  104POPC   C3B 4977  35.673  34.339   8.101
  104POPC   C4B 4978  35.347  34.430   7.790
  105POPC   NC3 4979   0.386  41.079   9.536
  105POPC   PO4 4980   0.520  40.437   9.574
  105POPC   GL1 4981   0.435  40.556   9.161
  105POPC   GL2 4982   0.157  40.768   9.151
  105POPC   C1A 4983   0.350  40.541   8.723
  105POPC   D2A 4984   0.237  40.473   8.305
  105POPC   C3A 4985   0.407  40.691   7.960
  105POPC   C4A 4986   0.331  41.106   7.998
  105POPC   C1B 4987   0.364  41.036   8.838
  105POPC   C2B 4988   0.570  40.941   8.441
  105POPC   C3B 4989   0.858  40.941   8.087
  105POPC   C4B 4990   0.754  41.152   7.708
  106POPC   NC3 4991  34.840   8.552   9.656
  106POPC   PO4 4992  34.377   8.042   9.494
  106POPC   GL1 4993  34.628   8.244   9.179
  106POPC   GL2 4994  34.585   8.580   9.187
  106POPC   C1A 4995  34.503   8.237   8.746
  106POPC   D2A 4996  34.369   8.073   8.354
  106POPC   C3A 4997  34.669   8.079   8.005
  106POPC   C4A 4998  34.561   7.885   7.632
  106POPC   C1B 4999  34.712   8.701   8.758
  106POPC   C2B 5000  34.722   8.495   8.331
  106POPC   C3B 5001  34.572   8.577   7.913
  106POPC   C4B 5002  34.501   8.388   7.495
  107POPC   NC3 5003   6.986  13.148   9.655
  107POPC   PO4 5004   6.350  12.932   9.427
  107POPC   GL1 5005   6.644  12.998   9.110
  107POPC   GL2 5006   6.439  12.721   8.975
  107POPC   C1A 5007   6.882  12.826   8.768
  107POPC   D2A 5008   6.725  12.688   8.387
  107POPC   C3A 5009   6.893  12.875   8.044
  107POPC   C4A 5010   6.940  12.558   7.818
  107POPC   C1B 5011   6.303  12.849   8.650
  107POPC   C2B 5012   6.281  12.986   8.311
  107POPC   C3B 5013   6.397  12.835   7.976
  107POPC   C4B 5014   6.353  12.927   7.595
  108POPC   NC3 5015  17.692  41.882   9.864
  108POPC   PO4 5016  17.738  42.438   9.468
  108POPC   GL1 5017  17.498  42.407   9.117
  108POPC   GL2 5018  17.818  42.410   8.954
  108POPC   C1A 5019  17.419  42.231   8.703
  108POPC   D2A 5020  17.763  42.086   8.468
  108POPC   C3A 5021  17.611  42.141   8.056
  108POPC   C4A 5022  17.346  42.392   7.832
  108POPC   C1B 5023  17.596  42.722   8.708
  108POPC   C2B 5024  17.493  42.628   8.301
  108POPC   C3B 5025  17.568  42.828   7.940
  108POPC   C4B 5026  17.838  42.540   7.758
  109POPC   NC3 5027  34.286   6.923   9.377
  109POPC   PO4 5028  34.793   6.530   9.579
  109POPC   GL1 5029  34.675   6.591   9.181
  109POPC   GL2 5030  34.780   6.916   9.141
  109POPC   C1A 5031  34.559   6.512   8.743
  109POPC   D2A 5032  34.691   6.385   8.311
  109POPC   C3A 5033  34.476   6.454   7.921
  109POPC   C4A 5034  34.563   6.337   7.438
  109POPC   C1B 5035  34.943   6.856   8.776
  109POPC   C2B 5036  34.771   6.907   8.372
  109POPC   C3B 5037  34.651   6.974   7.960
  109POPC   C4B 5038  34.429   6.811   7.581
  110POPC   NC3 5039   7.031  39.053   9.813
  110POPC   PO4 5040   7.396  39.442   9.453
  110POPC   GL1 5041   7.338  39.436   9.048
  110POPC   GL2 5042   7.650  39.270   8.986
  110POPC   C1A 5043   7.359  39.574   8.633
  110POPC   D2A 5044   7.523  39.321   8.321
  110POPC   C3A 5045   7.576  39.463   7.961
  110POPC   C4A 5046   7.375  39.346   7.611
  110POPC   C1B 5047   7.426  38.996   8.696
  110POPC   C2B 5048   7.376  38.713   8.327
  110POPC   C3B 5049   7.467  38.925   7.958
  110POPC   C4B 5050   7.849  39.056   7.813
  111POPC   NC3 5051  27.167  28.361   9.527
  111POPC   PO4 5052  27.783  28.263   9.485
  111POPC   GL1 5053  27.473  28.203   9.139
  111POPC   GL2 5054  27.344  28.576   9.091
  111POPC   C1A 5055  27.368  28.264   8.698
  111POPC   D2A 5056  27.426  28.452   8.281
  111POPC   C3A 5057  27.359  28.185   7.911
  111POPC   C4A 5058  27.556  28.288   7.530
  111POPC   C1B 5059  27.733  28.603   8.815
  111POPC   C2B 5060  27.885  28.687   8.382
  111POPC   C3B 5061  27.732  28.800   7.992
  111POPC   C4B 5062  27.876  28.716   7.601
  112POPC   NC3 5063  29.057  35.228   9.570
  112POPC   PO4 5064  29.059  35.826   9.563
  112POPC   GL1 5065  29.324  35.609   9.241
  112POPC   GL2 5066  29.143  35.329   9.101
  112POPC   C1A 5067  29.464  35.533   8.784
  112POPC   D2A 5068  29.218  35.392   8.450
  112POPC   C3A 5069  29.250  35.565   8.084
  112POPC   C4A 5070  29.449  35.369   7.766
  112POPC   C1B 5071  29.212  35.035   8.809
  112POPC   C2B 5072  29.157  34.853   8.422
  112POPC   C3B 5073  29.108  35.060   8.035
  112POPC   C4B 5074  28.868  35.111   7.680
  113POPC   NC3 5075  18.117   9.885   9.898
  113POPC   PO4 5076  18.084   9.338   9.482
  113POPC   GL1 5077  18.182   9.703   9.188
  113POPC   GL2 5078  18.103  10.018   9.353
  113POPC   C1A 5079  18.449   9.786   8.777
  113POPC   D2A 5080  18.679   9.683   8.362
  113POPC   C3A 5081  18.463   9.569   7.978
  113POPC   C4A 5082  18.171   9.553   7.621
  113POPC   C1B 5083  18.116  10.142   8.896
  113POPC   C2B 5084  18.072   9.980   8.431
  113POPC   C3B 5085  18.157   9.963   7.957
  113POPC   C4B 5086  17.916  10.124   7.567
  114POPC   NC3 5087  26.975  29.493   9.442
  114POPC   PO4 5088  26.623  30.110   9.493
  114POPC   GL1 5089  26.839  29.937   9.182
  114POPC   GL2 5090  26.623  29.707   9.127
  114POPC   C1A 5091  26.818  30.050   8.747
  114POPC   D2A 5092  26.644  30.139   8.341
  114POPC   C3A 5093  26.906  30.023   7.980
  114POPC   C4A 5094  27.360  29.951   7.865
  114POPC   C1B 5095  26.962  29.557   8.796
  114POPC   C2B 5096  27.062  29.442   8.331
  114POPC   C3B 5097  27.012  29.525   7.899
  114POPC   C4B 5098  26.690  29.668   7.610
  115POPC   NC3 5099   5.531  13.724   9.446
  115POPC   PO4 5100   6.129  13.902   9.320
  115POPC   GL1 5101   6.120  13.705   8.968
  115POPC   GL2 5102   5.788  13.598   9.009
  115POPC   C1A 5103   6.204  13.746   8.575
  115POPC   D2A 5104   6.266  13.489   8.287
  115POPC   C3A 5105   6.228  13.659   7.931
  115POPC   C4A 5106   6.283  13.433   7.563
  115POPC   C1B 5107   5.599  13.569   8.620
  115POPC   C2B 5108   5.764  13.727   8.252
  115POPC   C3B 5109   5.734  13.554   7.846
  115POPC   C4B 5110   5.801  13.549   7.421
  116POPC   NC3 5111  16.762  24.941   9.462
  116POPC   PO4 5112  16.861  25.598   9.500
  116POPC   GL1 5113  16.587  25.436   9.192
  116POPC   GL2 5114  16.429  25.110   9.120
  116POPC   C1A 5115  16.615  25.507   8.775
  116POPC   D2A 5116  16.534  25.303   8.404
  116POPC   C3A 5117  16.757  25.457   8.048
  116POPC   C4A 5118  16.524  25.369   7.723
  116POPC   C1B 5119  16.749  25.004   8.807
  116POPC   C2B 5120  16.821  24.853   8.416
  116POPC   C3B 5121  16.632  24.956   8.034
  116POPC   C4B 5122  16.724  24.818   7.674
  117POPC   NC3 5123  20.039  25.257   9.664
  117POPC   PO4 5124  19.461  25.069   9.393
  117POPC   GL1 5125  19.732  25.383   9.205
  117POPC   GL2 5126  20.044  25.232   9.153
  117POPC   C1A 5127  19.765  25.401   8.739
  117POPC   D2A 5128  19.884  25.404   8.279
  117POPC   C3A 5129  19.622  25.176   7.953
  117POPC   C4A 5130  19.599  25.247   7.445
  117POPC   C1B 5131  20.149  25.025   8.753
  117POPC   C2B 5132  20.386  25.140   8.383
  117POPC   C3B 5133  20.341  25.023   7.953
  117POPC   C4B 5134  20.034  25.126   7.676
  118POPC   NC3 5135   7.756  15.195   9.409
  118POPC   PO4 5136   7.163  14.972   9.512
  118POPC   GL1 5137   7.268  15.160   9.160
  118POPC   GL2 5138   6.947  15.241   9.012
  118POPC   C1A 5139   7.402  15.309   8.746
  118POPC   D2A 5140   7.674  15.176   8.384
  118POPC   C3A 5141   7.510  15.132   7.940
  118POPC   C4A 5142   7.428  15.521   7.717
  118POPC   C1B 5143   7.116  14.865   8.776
  118POPC   C2B 5144   7.196  14.981   8.341
  118POPC   C3B 5145   7.027  14.788   7.996
  118POPC   C4B 5146   7.081  14.851   7.586
  119POPC   NC3 5147   8.352  15.447   9.225
  119POPC   PO4 5148   8.160  14.956   9.592
  119POPC   GL1 5149   8.227  14.940   9.140
  119POPC   GL2 5150   8.508  15.023   8.991
  119POPC   C1A 5151   8.060  15.149   8.740
  119POPC   D2A 5152   8.255  15.291   8.389
  119POPC   C3A 5153   8.039  15.129   8.030
  119POPC   C4A 5154   7.920  15.370   7.717
  119POPC   C1B 5155   8.331  14.738   8.654
  119POPC   C2B 5156   8.395  14.800   8.228
  119POPC   C3B 5157   8.533  15.139   7.988
  119POPC   C4B 5158   8.412  15.209   7.565
  120POPC   NC3 5159   9.308  34.866   9.451
  120POPC   PO4 5160   9.054  34.247   9.353
  120POPC   GL1 5161   8.961  34.593   9.089
  120POPC   GL2 5162   9.300  34.622   9.019
  120POPC   C1A 5163   8.967  34.819   8.686
  120POPC   D2A 5164   8.846  34.573   8.350
  120POPC   C3A 5165   8.723  34.652   7.942
  120POPC   C4A 5166   9.049  34.777   7.681
  120POPC   C1B 5167   9.314  34.388   8.672
  120POPC   C2B 5168   9.366  34.539   8.281
  120POPC   C3B 5169   9.143  34.347   7.971
  120POPC   C4B 5170   9.353  34.189   7.679
  121POPC   NC3 5171   7.167  39.834   9.879
  121POPC   PO4 5172   6.565  40.156   9.679
  121POPC   GL1 5173   6.540  40.305   9.218
  121POPC   GL2 5174   6.859  40.170   9.157
  121POPC   C1A 5175   6.554  40.184   8.736
  121POPC   D2A 5176   6.369  39.824   8.466
  121POPC   C3A 5177   6.489  39.774   8.014
  121POPC   C4A 5178   6.329  40.137   7.791
  121POPC   C1B 5179   7.078  40.011   8.766
  121POPC   C2B 5180   6.880  39.942   8.381
  121POPC   C3B 5181   6.622  40.242   8.184
  121POPC   C4B 5182   6.747  40.396   7.768
  122POPC   NC3 5183  15.214  31.121   9.475
  122POPC   PO4 5184  15.148  31.732   9.749
  122POPC   GL1 5185  15.105  31.696   9.286
  122POPC   GL2 5186  15.344  31.852   9.080
  122POPC   C1A 5187  15.033  31.533   8.848
  122POPC   D2A 5188  14.947  31.290   8.450
  122POPC   C3A 5189  15.299  31.130   8.176
  122POPC   C4A 5190  15.433  31.228   7.752
  122POPC   C1B 5191  15.208  32.032   8.687
  122POPC   C2B 5192  15.091  31.766   8.382
  122POPC   C3B 5193  15.238  31.619   8.019
  122POPC   C4B 5194  15.340  31.852   7.682
  123POPC   NC3 5195  40.456  25.245   9.488
  123POPC   PO4 5196  41.017  25.456   9.241
  123POPC   GL1 5197  40.682  25.328   9.002
  123POPC   GL2 5198  40.480  24.979   9.056
  123POPC   C1A 5199  40.882  25.426   8.598
  123POPC   D2A 5200  41.179  25.367   8.302
  123POPC   C3A 5201  40.978  25.512   7.962
  123POPC   C4A 5202  40.998  25.158   7.789
  123POPC   C1B 5203  40.666  24.977   8.647
  123POPC   C2B 5204  40.685  25.153   8.209
  123POPC   C3B 5205  40.513  25.279   7.803
  123POPC   C4B 5206  40.492  24.961   7.458
  124POPC   NC3 5207  36.781   6.953   9.566
  124POPC   PO4 5208  37.053   6.359   9.496
  124POPC   GL1 5209  36.835   6.479   9.129
  124POPC   GL2 5210  36.537   6.642   9.193
  124POPC   C1A 5211  36.736   6.501   8.712
  124POPC   D2A 5212  36.929   6.488   8.356
  124POPC   C3A 5213  36.726   6.648   7.996
  124POPC   C4A 5214  36.991   6.677   7.639
  124POPC   C1B 5215  36.323   6.789   8.783
  124POPC   C2B 5216  36.222   6.961   8.354
  124POPC   C3B 5217  36.471   7.135   8.002
  124POPC   C4B 5218  36.585   6.986   7.609
  125POPC   NC3 5219   5.274  37.473   9.557
  125POPC   PO4 5220   4.802  37.847   9.638
  125POPC   GL1 5221   4.843  37.650   9.243
  125POPC   GL2 5222   5.169  37.584   9.059
  125POPC   C1A 5223   4.711  37.793   8.836
  125POPC   D2A 5224   4.839  37.560   8.467
  125POPC   C3A 5225   4.698  37.701   8.085
  125POPC   C4A 5226   4.956  37.600   7.750
  125POPC   C1B 5227   5.490  37.291   8.846
  125POPC   C2B 5228   5.562  37.287   8.416
  125POPC   C3B 5229   5.256  37.298   8.102
  125POPC   C4B 5230   5.398  37.381   7.688
  126POPC   NC3 5231   4.043   9.919   9.422
  126POPC   PO4 5232   4.455  10.504   9.493
  126POPC   GL1 5233   4.376  10.326   9.148
  126POPC   GL2 5234   4.696  10.503   8.997
  126POPC   C1A 5235   4.218  10.371   8.765
  126POPC   D2A 5236   4.564  10.497   8.487
  126POPC   C3A 5237   4.434  10.637   8.118
  126POPC   C4A 5238   4.235  10.423   7.753
  126POPC   C1B 5239   4.406  10.843   8.841
  126POPC   C2B 5240   4.139  10.912   8.454
  126POPC   C3B 5241   4.023  10.888   7.976
  126POPC   C4B 5242   4.384  10.937   7.677
  127POPC   NC3 5243  18.843  38.003   9.684
  127POPC   PO4 5244  19.333  37.566   9.818
  127POPC   GL1 5245  19.093  37.653   9.399
  127POPC   GL2 5246  19.309  37.767   9.127
  127POPC   C1A 5247  18.859  37.534   8.998
  127POPC   D2A 5248  18.825  37.426   8.540
  127POPC   C3A 5249  19.114  37.463   8.157
  127POPC   C4A 5250  18.920  37.571   7.742
  127POPC   C1B 5251  19.261  37.680   8.676
  127POPC   C2B 5252  19.050  37.937   8.340
  127POPC   C3B 5253  19.085  38.036   7.883
  127POPC   C4B 5254  19.174  37.882   7.397
  128POPC   NC3 5255  23.468  15.303   9.436
  128POPC   PO4 5256  24.128  15.317   9.541
  128POPC   GL1 5257  23.861  15.045   9.166
  128POPC   GL2 5258  23.492  14.958   9.046
  128POPC   C1A 5259  23.864  15.017   8.681
  128POPC   D2A 5260  24.115  15.372   8.565
  128POPC   C3A 5261  23.979  15.678   8.267
  128POPC   C4A 5262  23.895  15.568   7.850
  128POPC   C1B 5263  23.513  15.359   8.777
  128POPC   C2B 5264  23.561  15.380   8.326
  128POPC   C3B 5265  23.567  15.177   7.927
  128POPC   C4B 5266  23.424  15.112   7.541
  129POPC   NC3 5267   4.379  40.585   9.467
  129POPC   PO4 5268   4.040  41.196   9.319
  129POPC   GL1 5269   4.341  40.959   9.125
  129POPC   GL2 5270   4.063  40.702   9.079
  129POPC   C1A 5271   4.510  40.643   8.834
  129POPC   D2A 5272   4.449  40.702   8.416
  129POPC   C3A 5273   4.534  40.471   8.069
  129POPC   C4A 5274   4.550  40.675   7.654
  129POPC   C1B 5275   4.025  40.920   8.708
  129POPC   C2B 5276   3.987  40.917   8.291
  129POPC   C3B 5277   4.155  40.813   7.924
  129POPC   C4B 5278   4.112  40.878   7.472
  130POPC   NC3 5279   6.095   8.238   9.533
  130POPC   PO4 5280   5.521   8.396   9.199
  130POPC   GL1 5281   5.930   8.242   9.032
  130POPC   GL2 5282   5.979   7.899   9.047
  130POPC   C1A 5283   5.984   8.146   8.575
  130POPC   D2A 5284   5.725   8.379   8.285
  130POPC   C3A 5285   5.838   8.387   7.880
  130POPC   C4A 5286   5.963   8.034   7.652
  130POPC   C1B 5287   5.567   7.944   8.779
  130POPC   C2B 5288   5.417   7.777   8.412
  130POPC   C3B 5289   5.646   7.869   8.052
  130POPC   C4B 5290   5.455   8.087   7.757
  131POPC   NC3 5291  44.747  37.113   9.535
  131POPC   PO4 5292  44.574  36.464   9.565
  131POPC   GL1 5293  44.516  36.766   9.205
  131POPC   GL2 5294  44.500  37.137   9.102
  131POPC   C1A 5295  44.787  36.860   8.817
  131POPC   D2A 5296  44.926  36.881   8.394
  131POPC   C3A 5297  44.623  36.966   8.055
  131POPC   C4A 5298  44.604  37.089   7.574
  131POPC   C1B 5299  44.340  37.353   8.719
  131POPC   C2B 5300  44.189  37.267   8.312
  131POPC   C3B 5301  44.279  37.342   7.886
  131POPC   C4B 5302  44.188  37.379   7.421
  132POPC   NC3 5303   4.587  44.295   9.680
  132POPC   PO4 5304   4.128  44.675   9.502
  132POPC   GL1 5305   4.327  44.723   9.115
  132POPC   GL2 5306   4.541  44.454   9.196
  132POPC   C1A 5307   4.321  44.601   8.672
  132POPC   D2A 5308   3.985  44.531   8.363
  132POPC   C3A 5309   4.175  44.658   7.958
  132POPC   C4A 5310   4.588  44.877   7.870
  132POPC   C1B 5311   4.650  44.103   8.940
  132POPC   C2B 5312   4.711  44.146   8.500
  132POPC   C3B 5313   4.585  44.330   8.089
  132POPC   C4B 5314   4.713  44.409   7.655
  133POPC   NC3 5315  39.015  43.766   9.414
  133POPC   PO4 5316  39.650  43.757   9.276
  133POPC   GL1 5317  39.362  43.965   9.086
  133POPC   GL2 5318  39.097  44.199   9.127
  133POPC   C1A 5319  39.319  43.915   8.683
  133POPC   D2A 5320  39.442  43.674   8.381
  133POPC   C3A 5321  39.281  43.944   8.135
  133POPC   C4A 5322  39.250  43.983   7.736
  133POPC   C1B 5323  38.837  43.961   8.821
  133POPC   C2B 5324  38.857  43.845   8.407
  133POPC   C3B 5325  38.803  43.978   7.981
  133POPC   C4B 5326  38.823  43.861   7.516
  134POPC   NC3 5327  34.824  41.659   9.521
  134POPC   PO4 5328  34.242  41.306   9.486
  134POPC   GL1 5329  34.474  41.453   9.140
  134POPC   GL2 5330  34.635  41.789   9.076
  134POPC   C1A 5331  34.446  41.513   8.711
  134POPC   D2A 5332  34.596  41.628   8.324
  134POPC   C3A 5333  34.453  41.416   7.978
  134POPC   C4A 5334  34.088  41.499   7.759
  134POPC   C1B 5335  34.878  41.868   8.687
  134POPC   C2B 5336  35.055  41.820   8.230
  134POPC   C3B 5337  34.787  41.766   7.846
  134POPC   C4B 5338  34.448  41.744   7.512
  135POPC   NC3 5339  39.869  21.560   9.759
  135POPC   PO4 5340  40.242  21.246   9.242
  135POPC   GL1 5341  40.049  21.584   9.030
  135POPC   GL2 5342  39.873  21.817   9.228
  135POPC   C1A 5343  39.898  21.406   8.682
  135POPC   D2A 5344  40.089  21.080   8.471
  135POPC   C3A 5345  40.059  21.313   8.144
  135POPC   C4A 5346  39.881  21.269   7.790
  135POPC   C1B 5347  39.665  21.858   8.819
  135POPC   C2B 5348  39.544  21.654   8.413
  135POPC   C3B 5349  39.569  21.652   7.962
  135POPC   C4B 5350  39.974  21.766   7.846
  136POPC   NC3 5351   0.390  38.307   9.652
  136POPC   PO4 5352   0.143  39.015   9.632
  136POPC   GL1 5353   0.352  38.752   9.279
  136POPC   GL2 5354   0.546  38.967   9.036
  136POPC   C1A 5355   0.384  38.480   8.898
  136POPC   D2A 5356   0.168  38.275   8.532
  136POPC   C3A 5357   0.328  38.280   8.094
  136POPC   C4A 5358   0.528  38.259   7.689
  136POPC   C1B 5359   0.488  39.026   8.623
  136POPC   C2B 5360   0.564  38.736   8.335
  136POPC   C3B 5361   0.508  38.724   7.933
  136POPC   C4B 5362   0.143  38.659   7.686
  137POPC   NC3 5363  31.886   5.672   9.374
  137POPC   PO4 5364  31.641   6.268   9.360
  137POPC   GL1 5365  31.393   6.005   9.066
  137POPC   GL2 5366  31.247   5.668   9.170
  137POPC   C1A 5367  31.342   5.949   8.629
  137POPC   D2A 5368  31.155   5.938   8.227
  137POPC   C3A 5369  31.477   6.144   7.967
  137POPC   C4A 5370  31.624   6.055   7.561
  137POPC   C1B 5371  31.501   5.488   8.817
  137POPC   C2B 5372  31.551   5.557   8.354
  137POPC   C3B 5373  31.426   5.642   7.899
  137POPC   C4B 5374  31.356   5.638   7.406
  138POPC   NC3 5375  35.518  23.495   9.348
  138POPC   PO4 5376  35.023  23.829   9.602
  138POPC   GL1 5377  35.090  23.773   9.148
  138POPC   GL2 5378  35.450  23.846   9.003
  138POPC   C1A 5379  35.172  23.482   8.797
  138POPC   D2A 5380  35.546  23.613   8.554
  138POPC   C3A 5381  35.367  23.672   8.181
  138POPC   C4A 5382  35.368  23.731   7.764
  138POPC   C1B 5383  35.708  24.096   8.748
  138POPC   C2B 5384  35.649  24.084   8.330
  138POPC   C3B 5385  35.364  24.171   8.021
  138POPC   C4B 5386  35.565  24.234   7.661
  139POPC   NC3 5387   5.100  32.240   9.673
  139POPC   PO4 5388   5.690  32.323   9.676
  139POPC   GL1 5389   5.445  32.197   9.297
  139POPC   GL2 5390   5.088  32.326   9.159
  139POPC   C1A 5391   5.403  32.067   8.872
  139POPC   D2A 5392   5.052  32.079   8.565
  139POPC   C3A 5393   5.166  32.160   8.150
  139POPC   C4A 5394   5.237  32.349   7.789
  139POPC   C1B 5395   4.926  32.544   8.788
  139POPC   C2B 5396   4.820  32.534   8.332
  139POPC   C3B 5397   4.729  32.373   7.924
  139POPC   C4B 5398   4.651  32.567   7.520
  140POPC   NC3 5399  11.780  43.553   9.556
  140POPC   PO4 5400  11.316  43.970   9.723
  140POPC   GL1 5401  11.364  43.801   9.301
  140POPC   GL2 5402  11.172  44.090   9.221
  140POPC   C1A 5403  11.626  43.745   8.900
  140POPC   D2A 5404  11.513  43.828   8.454
  140POPC   C3A 5405  11.641  43.589   8.098
  140POPC   C4A 5406  11.660  43.869   7.745
  140POPC   C1B 5407  11.211  44.028   8.810
  140POPC   C2B 5408  11.146  44.202   8.408
  140POPC   C3B 5409  11.316  44.173   8.018
  140POPC   C4B 5410  11.143  43.878   7.765
  141POPC   NC3 5411  39.458  40.616   9.467
  141POPC   PO4 5412  38.993  40.972   9.345
  141POPC   GL1 5413  39.284  40.855   9.064
  141POPC   GL2 5414  39.130  40.520   9.060
  141POPC   C1A 5415  39.467  40.613   8.707
  141POPC   D2A 5416  39.326  40.420   8.303
  141POPC   C3A 5417  39.301  40.711   7.929
  141POPC   C4A 5418  39.447  40.880   7.515
  141POPC   C1B 5419  38.970  40.731   8.674
  141POPC   C2B 5420  38.817  40.560   8.285
  141POPC   C3B 5421  38.811  40.693   7.877
  141POPC   C4B 5422  38.929  41.023   7.600
  142POPC   NC3 5423  40.687  31.754   9.369
  142POPC   PO4 5424  41.162  31.252   9.459
  142POPC   GL1 5425  40.864  31.337   9.111
  142POPC   GL2 5426  40.536  31.179   9.006
  142POPC   C1A 5427  40.868  31.355   8.668
  142POPC   D2A 5428  40.526  31.171   8.429
  142POPC   C3A 5429  40.723  31.103   8.047
  142POPC   C4A 5430  40.706  31.209   7.612
  142POPC   C1B 5431  40.442  31.590   8.783
  142POPC   C2B 5432  40.616  31.680   8.345
  142POPC   C3B 5433  40.581  31.596   7.922
  142POPC   C4B 5434  40.335  31.832   7.590
  143POPC   NC3 5435  12.125  25.690   9.317
  143POPC   PO4 5436  11.924  25.063   9.582
  143POPC   GL1 5437  12.045  25.065   9.169
  143POPC   GL2 5438  12.338  25.259   9.165
  143POPC   C1A 5439  12.028  25.222   8.722
  143POPC   D2A 5440  11.932  25.388   8.283
  143POPC   C3A 5441  11.983  25.075   7.946
  143POPC   C4A 5442  12.007  25.043   7.496
  143POPC   C1B 5443  12.463  25.532   8.775
  143POPC   C2B 5444  12.484  25.604   8.312
  143POPC   C3B 5445  12.314  25.451   7.911
  143POPC   C4B 5446  12.400  25.335   7.439
  144POPC   NC3 5447  43.101  13.146   9.487
  144POPC   PO4 5448  43.674  12.711   9.511
  144POPC   GL1 5449  43.549  12.878   9.113
  144POPC   GL2 5450  43.190  12.828   9.084
  144POPC   C1A 5451  43.548  12.786   8.653
  144POPC   D2A 5452  43.192  12.750   8.340
  144POPC   C3A 5453  43.239  12.600   7.915
  144POPC   C4A 5454  43.221  12.750   7.515
  144POPC   C1B 5455  42.909  12.921   8.751
  144POPC   C2B 5456  42.910  13.158   8.360
  144POPC   C3B 5457  42.779  12.955   7.987
  144POPC   C4B 5458  42.821  13.050   7.560
  145POPC   NC3 5459  40.249   0.102   9.473
  145POPC   PO4 5460  39.815   0.558   9.501
  145POPC   GL1 5461  39.979   0.488   9.109
  145POPC   GL2 5462  39.850   0.184   9.134
  145POPC   C1A 5463  40.112   0.522   8.658
  145POPC   D2A 5464  40.278   0.395   8.234
  145POPC   C3A 5465  40.045   0.524   7.882
  145POPC   C4A 5466  40.277   0.765   7.598
  145POPC   C1B 5467  39.650   0.272   8.749
  145POPC   C2B 5468  39.782   0.261   8.319
  145POPC   C3B 5469  39.620   0.206   7.904
  145POPC   C4B 5470  39.654   0.257   7.437
  146POPC   NC3 5471   1.337  21.627   9.404
  146POPC   PO4 5472   1.032  21.038   9.518
  146POPC   GL1 5473   1.239  21.156   9.138
  146POPC   GL2 5474   1.071  21.451   9.011
  146POPC   C1A 5475   1.367  21.161   8.697
  146POPC   D2A 5476   1.185  21.200   8.289
  146POPC   C3A 5477   1.361  21.258   7.918
  146POPC   C4A 5478   1.298  21.619   7.680
  146POPC   C1B 5479   1.392  21.680   8.767
  146POPC   C2B 5480   1.493  21.657   8.343
  146POPC   C3B 5481   1.597  21.925   8.005
  146POPC   C4B 5482   1.683  21.915   7.547
  147POPC   NC3 5483  44.073   1.724   9.547
  147POPC   PO4 5484  43.588   2.252   9.487
  147POPC   GL1 5485  43.904   2.102   9.225
  147POPC   GL2 5486  43.902   1.769   9.061
  147POPC   C1A 5487  43.906   2.258   8.819
  147POPC   D2A 5488  44.001   2.429   8.438
  147POPC   C3A 5489  43.961   2.077   8.096
  147POPC   C4A 5490  43.773   1.962   7.647
  147POPC   C1B 5491  43.984   1.775   8.608
  147POPC   C2B 5492  44.190   1.599   8.245
  147POPC   C3B 5493  44.167   1.709   7.809
  147POPC   C4B 5494  44.065   1.689   7.328
  148POPC   NC3 5495  34.140   5.385   9.517
  148POPC   PO4 5496  34.664   5.030   9.498
  148POPC   GL1 5497  34.603   5.252   9.163
  148POPC   GL2 5498  34.289   5.162   9.076
  148POPC   C1A 5499  34.737   5.338   8.778
  148POPC   D2A 5500  34.631   5.211   8.346
  148POPC   C3A 5501  34.972   5.272   8.060
  148POPC   C4A 5502  34.874   5.090   7.667
  148POPC   C1B 5503  34.478   4.909   8.760
  148POPC   C2B 5504  34.460   4.707   8.370
  148POPC   C3B 5505  34.623   4.712   7.947
  148POPC   C4B 5506  34.464   4.835   7.523
  149POPC   NC3 5507  16.013  30.696   9.554
  149POPC   PO4 5508  15.382  30.689   9.568
  149POPC   GL1 5509  15.678  30.504   9.191
  149POPC   GL2 5510  16.077  30.467   9.097
  149POPC   C1A 5511  15.753  30.627   8.739
  149POPC   D2A 5512  15.858  30.655   8.300
  149POPC   C3A 5513  15.807  30.978   8.001
  149POPC   C4A 5514  15.672  30.772   7.668
  149POPC   C1B 5515  16.295  30.582   8.669
  149POPC   C2B 5516  16.326  30.488   8.206
  149POPC   C3B 5517  16.165  30.667   7.800
  149POPC   C4B 5518  16.352  30.958   7.435
  150POPC   NC3 5519  10.181  35.001   9.296
  150POPC   PO4 5520  10.056  35.549   9.735
  150POPC   GL1 5521  10.018  35.499   9.257
  150POPC   GL2 5522   9.726  35.283   9.158
  150POPC   C1A 5523  10.005  35.476   8.770
  150POPC   D2A 5524   9.739  35.555   8.404
  150POPC   C3A 5525   9.880  35.490   7.972
  150POPC   C4A 5526   9.802  35.325   7.570
  150POPC   C1B 5527   9.487  35.063   8.820
  150POPC   C2B 5528   9.620  35.004   8.380
  150POPC   C3B 5529   9.534  35.091   7.947
  150POPC   C4B 5530   9.441  35.010   7.491
  151POPC   NC3 5531  41.285  26.385   9.874
  151POPC   PO4 5532  41.695  26.846   9.597
  151POPC   GL1 5533  41.667  26.980   9.175
  151POPC   GL2 5534  41.541  26.678   9.092
  151POPC   C1A 5535  41.523  27.097   8.772
  151POPC   D2A 5536  41.616  26.855   8.420
  151POPC   C3A 5537  41.608  27.037   8.010
  151POPC   C4A 5538  41.569  26.654   7.817
  151POPC   C1B 5539  41.272  26.631   8.762
  151POPC   C2B 5540  41.080  26.904   8.486
  151POPC   C3B 5541  41.132  26.842   8.073
  151POPC   C4B 5542  41.167  27.010   7.691
  152POPC   NC3 5543  13.029  23.267   9.485
  152POPC   PO4 5544  12.850  22.626   9.600
  152POPC   GL1 5545  12.842  22.876   9.232
  152POPC   GL2 5546  12.548  23.122   9.262
  152POPC   C1A 5547  12.884  22.957   8.802
  152POPC   D2A 5548  13.177  23.025   8.501
  152POPC   C3A 5549  12.931  22.975   8.149
  152POPC   C4A 5550  12.816  23.088   7.764
  152POPC   C1B 5551  12.434  22.781   8.968
  152POPC   C2B 5552  12.461  22.655   8.525
  152POPC   C3B 5553  12.458  22.746   8.080
  152POPC   C4B 5554  12.456  22.495   7.699
  153POPC   NC3 5555  24.803  17.467   9.604
  153POPC   PO4 5556  24.681  17.983   9.189
  153POPC   GL1 5557  24.566  17.497   9.146
  153POPC   GL2 5558  24.219  17.333   9.122
  153POPC   C1A 5559  24.596  17.296   8.759
  153POPC   D2A 5560  24.467  17.423   8.345
  153POPC   C3A 5561  24.670  17.521   7.942
  153POPC   C4A 5562  24.703  17.420   7.454
  153POPC   C1B 5563  24.088  17.489   8.728
  153POPC   C2B 5564  24.044  17.752   8.375
  153POPC   C3B 5565  24.221  17.735   8.021
  153POPC   C4B 5566  24.402  17.831   7.636
  154POPC   NC3 5567  12.906   8.921   9.850
  154POPC   PO4 5568  12.881   8.713   9.187
  154POPC   GL1 5569  13.131   8.960   8.942
  154POPC   GL2 5570  13.026   9.265   9.095
  154POPC   C1A 5571  13.120   8.818   8.530
  154POPC   D2A 5572  13.186   8.834   8.113
  154POPC   C3A 5573  12.776   8.732   7.996
  154POPC   C4A 5574  12.547   8.893   7.679
  154POPC   C1B 5575  12.803   9.239   8.678
  154POPC   C2B 5576  12.770   9.189   8.245
  154POPC   C3B 5577  12.927   9.247   7.850
  154POPC   C4B 5578  13.073   8.977   7.517
  155POPC   NC3 5579  25.136  29.561   9.544
  155POPC   PO4 5580  25.372  28.951   9.386
  155POPC   GL1 5581  25.385  29.330   9.138
  155POPC   GL2 5582  25.026  29.477   9.078
  155POPC   C1A 5583  25.303  29.214   8.717
  155POPC   D2A 5584  25.442  29.337   8.349
  155POPC   C3A 5585  25.233  29.104   8.079
  155POPC   C4A 5586  25.264  29.136   7.684
  155POPC   C1B 5587  24.858  29.472   8.715
  155POPC   C2B 5588  24.851  29.363   8.295
  155POPC   C3B 5589  24.817  29.356   7.848
  155POPC   C4B 5590  24.680  29.426   7.427
  156POPC   NC3 5591  40.761  39.737   9.633
  156POPC   PO4 5592  40.427  40.351   9.540
  156POPC   GL1 5593  40.566  40.053   9.261
  156POPC   GL2 5594  40.866  40.065   9.175
  156POPC   C1A 5595  40.509  39.946   8.819
  156POPC   D2A 5596  40.234  40.023   8.509
  156POPC   C3A 5597  40.434  39.931   8.187
  156POPC   C4A 5598  40.590  39.960   7.833
  156POPC   C1B 5599  40.909  40.305   8.810
  156POPC   C2B 5600  40.907  40.123   8.427
  156POPC   C3B 5601  41.062  39.974   8.065
  156POPC   C4B 5602  41.297  40.190   7.761
  157POPC   NC3 5603  34.196   9.851   9.416
  157POPC   PO4 5604  34.823   9.848   9.435
  157POPC   GL1 5605  34.669   9.590   9.134
  157POPC   GL2 5606  34.333   9.555   9.027
  157POPC   C1A 5607  34.735   9.702   8.723
  157POPC   D2A 5608  34.510   9.820   8.382
  157POPC   C3A 5609  34.643   9.811   7.996
  157POPC   C4A 5610  34.466   9.519   7.731
  157POPC   C1B 5611  34.233   9.966   8.782
  157POPC   C2B 5612  34.028   9.934   8.371
  157POPC   C3B 5613  34.090   9.738   7.994
  157POPC   C4B 5614  34.262   9.968   7.645
  158POPC   NC3 5615  22.923   0.104   9.440
  158POPC   PO4 5616  22.861   0.684   9.690
  158POPC   GL1 5617  22.865   0.545   9.224
  158POPC   GL2 5618  23.151   0.374   9.066
  158POPC   C1A 5619  22.709   0.584   8.787
  158POPC   D2A 5620  22.570   0.394   8.433
  158POPC   C3A 5621  22.725   0.527   8.070
  158POPC   C4A 5622  22.663   0.510   7.651
  158POPC   C1B 5623  23.291   0.327   8.667
  158POPC   C2B 5624  23.101   0.629   8.422
  158POPC   C3B 5625  23.217   0.879   8.098
  158POPC   C4B 5626  23.149   0.639   7.745
  159POPC   NC3 5627   3.280  22.989   9.430
  159POPC   PO4 5628   2.650  22.899   9.612
  159POPC   GL1 5629   2.625  22.990   9.178
  159POPC   GL2 5630   2.430  23.282   9.238
  159POPC   C1A 5631   2.524  22.785   8.761
  159POPC   D2A 5632   2.662  22.710   8.332
  159POPC   C3A 5633   2.539  22.823   7.915
  159POPC   C4A 5634   2.928  22.729   7.712
  159POPC   C1B 5635   2.396  23.279   8.805
  159POPC   C2B 5636   2.720  23.230   8.492
  159POPC   C3B 5637   2.861  23.168   8.070
  159POPC   C4B 5638   2.601  23.347   7.725
  160POPC   NC3 5639  12.312  43.246   9.359
  160POPC   PO4 5640  12.065  42.709   9.221
  160POPC   GL1 5641  12.108  43.046   8.945
  160POPC   GL2 5642  11.953  43.392   9.042
  160POPC   C1A 5643  12.251  43.276   8.625
  160POPC   D2A 5644  12.060  43.250   8.214
  160POPC   C3A 5645  12.280  43.239   7.874
  160POPC   C4A 5646  12.360  43.569   7.606
  160POPC   C1B 5647  11.712  43.256   8.666
  160POPC   C2B 5648  11.674  42.957   8.324
  160POPC   C3B 5649  11.696  43.021   7.905
  160POPC   C4B 5650  11.783  42.782   7.514
  161POPC   NC3 5651  23.800  21.265   9.610
  161POPC   PO4 5652  23.423  21.710   9.492
  161POPC   GL1 5653  23.723  21.558   9.140
  161POPC   GL2 5654  23.921  21.245   9.128
  161POPC   C1A 5655  23.696  21.415   8.693
  161POPC   D2A 5656  23.781  21.480   8.278
  161POPC   C3A 5657  23.558  21.462   7.857
  161POPC   C4A 5658  23.688  21.348   7.426
  161POPC   C1B 5659  23.960  20.966   8.787
  161POPC   C2B 5660  23.790  20.928   8.375
  161POPC   C3B 5661  23.863  21.077   7.982
  161POPC   C4B 5662  24.258  20.983   7.824
  162POPC   NC3 5663   4.831  11.509   9.712
  162POPC   PO4 5664   5.240  11.008   9.490
  162POPC   GL1 5665   5.315  11.198   9.139
  162POPC   GL2 5666   5.142  11.484   9.099
  162POPC   C1A 5667   5.342  11.190   8.703
  162POPC   D2A 5668   5.118  11.402   8.379
  162POPC   C3A 5669   5.280  11.216   8.029
  162POPC   C4A 5670   5.013  10.997   7.685
  162POPC   C1B 5671   5.357  11.707   8.739
  162POPC   C2B 5672   5.265  11.975   8.397
  162POPC   C3B 5673   5.175  11.808   7.998
  162POPC   C4B 5674   4.963  11.502   7.769
  163POPC   NC3 5675  26.072  24.736   9.498
  163POPC   PO4 5676  25.704  24.096   9.390
  163POPC   GL1 5677  25.962  24.273   9.089
  163POPC   GL2 5678  26.051  24.605   9.025
  163POPC   C1A 5679  25.867  24.273   8.667
  163POPC   D2A 5680  25.929  24.573   8.379
  163POPC   C3A 5681  26.056  24.406   8.016
  163POPC   C4A 5682  25.909  24.312   7.614
  163POPC   C1B 5683  26.321  24.558   8.709
  163POPC   C2B 5684  26.469  24.615   8.314
  163POPC   C3B 5685  26.365  24.827   7.995
  163POPC   C4B 5686  26.244  24.937   7.570
  164POPC   NC3 5687  25.170   0.890   9.208
  164POPC   PO4 5688  25.440   1.356   9.644
  164POPC   GL1 5689  25.346   1.451   9.169
  164POPC   GL2 5690  25.102   1.358   8.928
  164POPC   C1A 5691  25.523   1.540   8.726
  164POPC   D2A 5692  25.271   1.585   8.358
  164POPC   C3A 5693  25.292   1.259   8.067
  164POPC   C4A 5694  25.584   1.180   7.719
  164POPC   C1B 5695  25.309   1.101   8.607
  164POPC   C2B 5696  25.557   0.833   8.380
  164POPC   C3B 5697  25.430   0.775   7.978
  164POPC   C4B 5698  25.646   0.671   7.643
  165POPC   NC3 5699   7.049  37.444   9.368
  165POPC   PO4 5700   6.481  37.964   9.440
  165POPC   GL1 5701   6.596  37.628   9.180
  165POPC   GL2 5702   6.369  37.374   9.207
  165POPC   C1A 5703   6.694  37.643   8.745
  165POPC   D2A 5704   6.561  37.677   8.333
  165POPC   C3A 5705   6.918  37.782   8.042
  165POPC   C4A 5706   6.921  37.852   7.607
  165POPC   C1B 5707   6.489  37.192   8.824
  165POPC   C2B 5708   6.626  37.141   8.432
  165POPC   C3B 5709   6.675  37.321   8.001
  165POPC   C4B 5710   6.440  37.629   7.836
  166POPC   NC3 5711  24.046  19.849   9.653
  166POPC   PO4 5712  23.463  20.002   9.519
  166POPC   GL1 5713  23.826  19.928   9.206
  166POPC   GL2 5714  23.886  19.567   9.227
  166POPC   C1A 5715  23.983  20.083   8.789
  166POPC   D2A 5716  23.805  20.263   8.365
  166POPC   C3A 5717  23.887  20.059   7.952
  166POPC   C4A 5718  23.597  19.975   7.579
  166POPC   C1B 5719  23.699  19.648   8.793
  166POPC   C2B 5720  23.633  19.767   8.348
  166POPC   C3B 5721  23.524  19.608   7.941
  166POPC   C4B 5722  23.548  19.400   7.568
  167POPC   NC3 5723  15.778  43.118   9.501
  167POPC   PO4 5724  16.326  43.586   9.549
  167POPC   GL1 5725  16.143  43.310   9.186
  167POPC   GL2 5726  16.057  42.959   9.092
  167POPC   C1A 5727  15.870  43.331   8.778
  167POPC   D2A 5728  15.795  43.342   8.316
  167POPC   C3A 5729  16.025  43.048   8.110
  167POPC   C4A 5730  16.173  43.108   7.717
  167POPC   C1B 5731  15.989  42.700   8.715
  167POPC   C2B 5732  15.691  42.756   8.376
  167POPC   C3B 5733  15.519  42.964   8.011
  167POPC   C4B 5734  15.599  42.786   7.613
  168POPC   NC3 5735  41.798  12.890   9.533
  168POPC   PO4 5736  41.143  12.988   9.528
  168POPC   GL1 5737  41.376  12.734   9.214
  168POPC   GL2 5738  41.690  12.555   9.144
  168POPC   C1A 5739  41.446  12.827   8.786
  168POPC   D2A 5740  41.497  12.986   8.400
  168POPC   C3A 5741  41.331  12.795   8.075
  168POPC   C4A 5742  41.400  12.729   7.673
  168POPC   C1B 5743  41.926  12.625   8.791
  168POPC   C2B 5744  41.969  12.810   8.398
  168POPC   C3B 5745  41.848  12.771   7.975
  168POPC   C4B 5746  41.883  12.674   7.544
  169POPC   NC3 5747  30.596   3.994   9.402
  169POPC   PO4 5748  31.007   4.626   9.506
  169POPC   GL1 5749  30.794   4.453   9.146
  169POPC   GL2 5750  30.829   4.117   8.985
  169POPC   C1A 5751  30.589   4.570   8.765
  169POPC   D2A 5752  30.380   4.417   8.446
  169POPC   C3A 5753  30.458   4.609   8.080
  169POPC   C4A 5754  30.425   4.222   7.880
  169POPC   C1B 5755  31.030   4.322   8.699
  169POPC   C2B 5756  30.902   4.472   8.346
  169POPC   C3B 5757  30.895   4.324   7.987
  169POPC   C4B 5758  30.806   4.559   7.692
  170POPC   NC3 5759  11.844   4.984   9.825
  170POPC   PO4 5760  12.038   5.235   9.219
  170POPC   GL1 5761  11.876   5.160   8.889
  170POPC   GL2 5762  12.066   4.855   8.847
  170POPC   C1A 5763  12.071   5.294   8.545
  170POPC   D2A 5764  12.211   5.192   8.207
  170POPC   C3A 5765  12.006   4.988   7.920
  170POPC   C4A 5766  12.176   4.575   7.946
  170POPC   C1B 5767  11.659   4.793   8.618
  170POPC   C2B 5768  11.628   4.701   8.188
  170POPC   C3B 5769  11.709   4.548   7.800
  170POPC   C4B 5770  11.702   4.868   7.531
  171POPC   NC3 5771  41.763  33.368   9.658
  171POPC   PO4 5772  41.192  33.138   9.629
  171POPC   GL1 5773  41.357  33.103   9.192
  171POPC   GL2 5774  41.633  32.858   9.177
  171POPC   C1A 5775  41.285  32.950   8.769
  171POPC   D2A 5776  41.463  33.052   8.361
  171POPC   C3A 5777  41.217  33.001   7.982
  171POPC   C4A 5778  41.251  32.700   7.653
  171POPC   C1B 5779  41.786  33.070   8.814
  171POPC   C2B 5780  41.977  33.076   8.410
  171POPC   C3B 5781  41.805  33.276   8.021
  171POPC   C4B 5782  41.882  33.203   7.570
  172POPC   NC3 5783  28.235  34.013   9.904
  172POPC   PO4 5784  28.568  33.545   9.510
  172POPC   GL1 5785  28.498  33.822   9.143
  172POPC   GL2 5786  28.419  34.151   9.289
  172POPC   C1A 5787  28.242  33.645   8.818
  172POPC   D2A 5788  28.093  33.496   8.437
  172POPC   C3A 5789  28.407  33.597   8.163
  172POPC   C4A 5790  28.259  33.607   7.774
  172POPC   C1B 5791  28.212  34.156   8.880
  172POPC   C2B 5792  28.434  34.006   8.509
  172POPC   C3B 5793  28.580  34.205   8.147
  172POPC   C4B 5794  28.446  34.119   7.771
  173POPC   NC3 5795  34.900  30.809   9.633
  173POPC   PO4 5796  35.503  30.687   9.536
  173POPC   GL1 5797  35.424  30.631   9.140
  173POPC   GL2 5798  35.056  30.641   9.165
  173POPC   C1A 5799  35.315  30.648   8.725
  173POPC   D2A 5800  35.078  30.513   8.417
  173POPC   C3A 5801  35.309  30.698   8.105
  173POPC   C4A 5802  35.426  30.634   7.690
  173POPC   C1B 5803  34.987  31.012   8.914
  173POPC   C2B 5804  35.001  31.033   8.479
  173POPC   C3B 5805  34.846  30.872   8.087
  173POPC   C4B 5806  34.927  30.912   7.680
  174POPC   NC3 5807  36.387   1.211   9.501
  174POPC   PO4 5808  35.811   1.553   9.618
  174POPC   GL1 5809  35.944   1.345   9.237
  174POPC   GL2 5810  35.906   0.989   9.250
  174POPC   C1A 5811  36.222   1.284   8.852
  174POPC   D2A 5812  36.083   1.329   8.402
  174POPC   C3A 5813  36.303   1.289   7.986
  174POPC   C4A 5814  36.548   1.257   7.586
  174POPC   C1B 5815  35.747   1.101   8.824
  174POPC   C2B 5816  35.801   0.877   8.433
  174POPC   C3B 5817  35.901   0.990   8.033
  174POPC   C4B 5818  35.881   1.251   7.648
  175POPC   NC3 5819  31.745   7.374   9.518
  175POPC   PO4 5820  31.150   7.606   9.326
  175POPC   GL1 5821  31.483   7.370   9.057
  175POPC   GL2 5822  31.859   7.476   9.053
  175POPC   C1A 5823  31.660   7.442   8.604
  175POPC   D2A 5824  31.724   7.804   8.385
  175POPC   C3A 5825  31.458   7.732   8.082
  175POPC   C4A 5826  31.570   7.575   7.704
  175POPC   C1B 5827  31.855   7.057   8.856
  175POPC   C2B 5828  31.813   6.962   8.411
  175POPC   C3B 5829  31.743   7.193   8.022
  175POPC   C4B 5830  31.901   7.196   7.575
  176POPC   NC3 5831   4.925  42.067   9.430
  176POPC   PO4 5832   5.182  42.649   9.509
  176POPC   GL1 5833   5.137  42.462   9.149
  176POPC   GL2 5834   4.799  42.429   9.082
  176POPC   C1A 5835   5.222  42.291   8.746
  176POPC   D2A 5836   5.076  42.380   8.325
  176POPC   C3A 5837   5.354  42.596   8.057
  176POPC   C4A 5838   5.224  42.529   7.644
  176POPC   C1B 5839   4.712  42.302   8.686
  176POPC   C2B 5840   4.628  42.108   8.276
  176POPC   C3B 5841   4.739  42.098   7.844
  176POPC   C4B 5842   4.991  42.099   7.465
  177POPC   NC3 5843  36.294   1.932   9.799
  177POPC   PO4 5844  35.974   2.338   9.428
  177POPC   GL1 5845  36.266   2.084   9.202
  177POPC   GL2 5846  36.234   1.744   9.129
  177POPC   C1A 5847  36.400   2.087   8.777
  177POPC   D2A 5848  36.568   2.234   8.412
  177POPC   C3A 5849  36.354   2.106   8.060
  177POPC   C4A 5850  36.269   2.415   7.763
  177POPC   C1B 5851  35.987   1.743   8.765
  177POPC   C2B 5852  35.971   1.862   8.363
  177POPC   C3B 5853  35.930   1.647   7.990
  177POPC   C4B 5854  35.857   1.784   7.559
  178POPC   NC3 5855  26.202  21.934   9.560
  178POPC   PO4 5856  26.177  22.648   9.412
  178POPC   GL1 5857  26.092  22.274   9.184
  178POPC   GL2 5858  26.353  22.017   9.092
  178POPC   C1A 5859  25.906  22.110   8.828
  178POPC   D2A 5860  25.829  21.953   8.424
  178POPC   C3A 5861  25.928  22.208   8.081
  178POPC   C4A 5862  25.842  22.003   7.687
  178POPC   C1B 5863  26.492  22.110   8.685
  178POPC   C2B 5864  26.350  21.986   8.297
  178POPC   C3B 5865  26.344  22.016   7.871
  178POPC   C4B 5866  26.333  22.023   7.415
  179POPC   NC3 5867  15.017  38.008   9.535
  179POPC   PO4 5868  15.018  38.694   9.735
  179POPC   GL1 5869  15.221  38.629   9.294
  179POPC   GL2 5870  15.312  38.303   9.220
  179POPC   C1A 5871  15.191  38.623   8.834
  179POPC   D2A 5872  15.389  38.490   8.436
  179POPC   C3A 5873  15.266  38.679   8.025
  179POPC   C4A 5874  14.917  38.533   7.761
  179POPC   C1B 5875  15.327  38.111   8.826
  179POPC   C2B 5876  15.125  38.000   8.462
  179POPC   C3B 5877  15.129  38.178   8.073
  179POPC   C4B 5878  15.034  38.011   7.697
  180POPC   NC3 5879  38.833  15.403   9.871
  180POPC   PO4 5880  38.203  15.302   9.493
  180POPC   GL1 5881  38.237  15.296   9.060
  180POPC   GL2 5882  38.431  14.989   9.044
  180POPC   C1A 5883  38.424  15.279   8.653
  180POPC   D2A 5884  38.682  15.404   8.343
  180POPC   C3A 5885  38.432  15.480   8.016
  180POPC   C4A 5886  38.725  15.434   7.696
  180POPC   C1B 5887  38.576  14.783   8.701
  180POPC   C2B 5888  38.426  14.922   8.278
  180POPC   C3B 5889  38.579  14.978   7.878
  180POPC   C4B 5890  38.634  14.910   7.440
  181POPC   NC3 5891  37.314  41.372   9.239
  181POPC   PO4 5892  37.648  41.708   9.690
  181POPC   GL1 5893  37.848  41.571   9.231
  181POPC   GL2 5894  37.981  41.222   9.147
  181POPC   C1A 5895  37.866  41.723   8.759
  181POPC   D2A 5896  37.474  41.747   8.502
  181POPC   C3A 5897  37.568  41.794   8.062
  181POPC   C4A 5898  37.890  41.534   7.850
  181POPC   C1B 5899  37.716  41.249   8.756
  181POPC   C2B 5900  37.735  41.329   8.321
  181POPC   C3B 5901  37.587  41.131   7.963
  181POPC   C4B 5902  37.606  41.234   7.538
  182POPC   NC3 5903  20.960  29.060   9.490
  182POPC   PO4 5904  21.621  29.226   9.572
  182POPC   GL1 5905  21.317  29.368   9.218
  182POPC   GL2 5906  21.298  29.035   9.091
  182POPC   C1A 5907  21.454  29.429   8.765
  182POPC   D2A 5908  21.517  29.157   8.403
  182POPC   C3A 5909  21.525  29.334   7.988
  182POPC   C4A 5910  21.345  29.201   7.591
  182POPC   C1B 5911  21.404  28.747   8.741
  182POPC   C2B 5912  21.561  28.630   8.350
  182POPC   C3B 5913  21.468  28.807   7.990
  182POPC   C4B 5914  21.250  28.711   7.668
  183POPC   NC3 5915  19.816  34.791   9.601
  183POPC   PO4 5916  20.025  34.208   9.391
  183POPC   GL1 5917  19.847  34.517   9.159
  183POPC   GL2 5918  19.572  34.308   9.072
  183POPC   C1A 5919  20.036  34.775   8.797
  183POPC   D2A 5920  20.189  34.587   8.413
  183POPC   C3A 5921  20.139  34.810   8.056
  183POPC   C4A 5922  20.015  34.693   7.655
  183POPC   C1B 5923  19.554  34.657   8.776
  183POPC   C2B 5924  19.647  34.862   8.384
  183POPC   C3B 5925  19.587  34.737   7.967
  183POPC   C4B 5926  19.477  34.892   7.558
  184POPC   NC3 5927  33.434  40.767   9.395
  184POPC   PO4 5928  34.059  40.435   9.420
  184POPC   GL1 5929  33.889  40.718   9.075
  184POPC   GL2 5930  33.593  40.942   8.962
  184POPC   C1A 5931  34.019  40.447   8.732
  184POPC   D2A 5932  34.283  40.656   8.439
  184POPC   C3A 5933  34.207  40.551   8.018
  184POPC   C4A 5934  33.908  40.716   7.732
  184POPC   C1B 5935  33.703  40.791   8.563
  184POPC   C2B 5936  33.499  40.737   8.185
  184POPC   C3B 5937  33.422  40.843   7.769
  184POPC   C4B 5938  33.568  40.711   7.374
  185POPC   NC3 5939  39.017  32.665   9.712
  185POPC   PO4 5940  39.193  33.321   9.485
  185POPC   GL1 5941  39.322  33.167   9.122
  185POPC   GL2 5942  39.247  32.815   9.199
  185POPC   C1A 5943  39.236  33.124   8.706
  185POPC   D2A 5944  38.996  33.066   8.351
  185POPC   C3A 5945  39.319  33.098   8.082
  185POPC   C4A 5946  39.266  33.185   7.697
  185POPC   C1B 5947  39.073  32.669   8.797
  185POPC   C2B 5948  39.356  32.678   8.439
  185POPC   C3B 5949  39.317  32.575   8.010
  185POPC   C4B 5950  39.360  32.686   7.602
  186POPC   NC3 5951  16.830  14.101   9.674
  186POPC   PO4 5952  17.502  13.900   9.632
  186POPC   GL1 5953  17.618  13.866   9.201
  186POPC   GL2 5954  17.433  13.547   9.122
  186POPC   C1A 5955  17.685  13.819   8.747
  186POPC   D2A 5956  17.446  13.453   8.537
  186POPC   C3A 5957  17.525  13.442   8.084
  186POPC   C4A 5958  17.715  13.769   7.811
  186POPC   C1B 5959  17.182  13.800   8.819
  186POPC   C2B 5960  17.247  13.908   8.355
  186POPC   C3B 5961  17.218  13.856   7.889
  186POPC   C4B 5962  17.296  13.501   7.617
  187POPC   NC3 5963  26.426   7.769   9.494
  187POPC   PO4 5964  26.919   7.377   9.480
  187POPC   GL1 5965  26.594   7.372   9.163
  187POPC   GL2 5966  26.799   7.124   8.972
  187POPC   C1A 5967  26.484   7.420   8.722
  187POPC   D2A 5968  26.677   7.187   8.440
  187POPC   C3A 5969  26.763   7.428   8.106
  187POPC   C4A 5970  26.541   7.428   7.726
  187POPC   C1B 5971  26.988   7.477   8.799
  187POPC   C2B 5972  27.172   7.348   8.424
  187POPC   C3B 5973  27.231   7.152   8.060
  187POPC   C4B 5974  27.052   7.306   7.695
  188POPC   NC3 5975  41.306  24.749   9.308
  188POPC   PO4 5976  40.697  24.848   9.502
  188POPC   GL1 5977  40.796  24.559   9.136
  188POPC   GL2 5978  40.987  24.216   9.139
  188POPC   C1A 5979  40.966  24.572   8.713
  188POPC   D2A 5980  40.957  24.729   8.279
  188POPC   C3A 5981  40.710  24.740   7.876
  188POPC   C4A 5982  40.965  24.772   7.483
  188POPC   C1B 5983  40.648  24.181   8.798
  188POPC   C2B 5984  40.740  24.242   8.395
  188POPC   C3B 5985  40.858  24.283   8.023
  188POPC   C4B 5986  40.591  24.139   7.744
  189POPC   NC3 5987  39.391  12.864   9.426
  189POPC   PO4 5988  38.938  12.382   9.514
  189POPC   GL1 5989  39.084  12.588   9.124
  189POPC   GL2 5990  39.431  12.435   9.130
  189POPC   C1A 5991  39.204  12.950   8.799
  189POPC   D2A 5992  39.011  13.206   8.498
  189POPC   C3A 5993  39.203  13.081   8.145
  189POPC   C4A 5994  39.166  13.082   7.764
  189POPC   C1B 5995  39.333  12.473   8.703
  189POPC   C2B 5996  39.118  12.632   8.380
  189POPC   C3B 5997  39.132  12.597   7.953
  189POPC   C4B 5998  39.495  12.533   7.680
  190POPC   NC3 5999  43.073  44.172   9.506
  190POPC   PO4 6000  43.039  43.470   9.524
  190POPC   GL1 6001  43.041  43.769   9.196
  190POPC   GL2 6002  43.376  43.915   9.171
  190POPC   C1A 6003  42.988  44.027   8.826
  190POPC   D2A 6004  42.917  43.784   8.473
  190POPC   C3A 6005  43.053  43.887   8.095
  190POPC   C4A 6006  42.881  44.128   7.825
  190POPC   C1B 6007  43.477  44.209   8.856
  190POPC   C2B 6008  43.438  44.136   8.400
  190POPC   C3B 6009  43.333  44.303   7.996
  190POPC   C4B 6010  43.310  44.189   7.565
  191POPC   NC3 6011  24.458  38.086   9.702
  191POPC   PO4 6012  24.201  37.494   9.598
  191POPC   GL1 6013  24.398  37.723   9.297
  191POPC   GL2 6014  24.448  37.425   9.096
  191POPC   C1A 6015  24.579  37.891   8.931
  191POPC   D2A 6016  24.738  37.780   8.536
  191POPC   C3A 6017  24.488  37.875   8.117
  191POPC   C4A 6018  24.576  38.100   7.688
  191POPC   C1B 6019  24.244  37.573   8.722
  191POPC   C2B 6020  24.053  37.544   8.326
  191POPC   C3B 6021  23.899  37.729   7.970
  191POPC   C4B 6022  24.199  37.719   7.658
  192POPC   NC3 6023  30.338  17.011   9.552
  192POPC   PO4 6024  30.787  17.493   9.529
  192POPC   GL1 6025  30.749  17.508   9.139
  192POPC   GL2 6026  30.421  17.332   9.136
  192POPC   C1A 6027  31.005  17.619   8.805
  192POPC   D2A 6028  30.826  17.478   8.477
  192POPC   C3A 6029  30.983  17.494   8.098
  192POPC   C4A 6030  30.829  17.400   7.718
  192POPC   C1B 6031  30.379  17.622   8.793
  192POPC   C2B 6032  30.435  17.769   8.378
  192POPC   C3B 6033  30.465  17.463   8.071
  192POPC   C4B 6034  30.334  17.273   7.682
  193POPC   NC3 6035   5.557  11.815   9.322
  193POPC   PO4 6036   4.907  11.930   9.529
  193POPC   GL1 6037   5.059  11.985   9.136
  193POPC   GL2 6038   4.757  11.829   9.035
  193POPC   C1A 6039   5.266  12.232   8.842
  193POPC   D2A 6040   5.329  12.491   8.465
  193POPC   C3A 6041   5.095  12.376   8.087
  193POPC   C4A 6042   5.042  12.184   7.675
  193POPC   C1B 6043   4.865  11.794   8.637
  193POPC   C2B 6044   4.746  11.990   8.278
  193POPC   C3B 6045   4.670  11.912   7.874
  193POPC   C4B 6046   4.654  11.763   7.456
  194POPC   NC3 6047  43.789  37.387   9.464
  194POPC   PO4 6048  44.003  38.024   9.566
  194POPC   GL1 6049  43.914  37.840   9.167
  194POPC   GL2 6050  43.593  37.781   9.097
  194POPC   C1A 6051  43.876  37.996   8.739
  194POPC   D2A 6052  44.073  37.732   8.483
  194POPC   C3A 6053  43.941  37.729   8.091
  194POPC   C4A 6054  44.101  37.790   7.685
  194POPC   C1B 6055  43.709  37.496   8.761
  194POPC   C2B 6056  43.653  37.287   8.377
  194POPC   C3B 6057  43.768  37.283   7.961
  194POPC   C4B 6058  43.644  37.591   7.654
  195POPC   NC3 6059  14.781   2.126   9.299
  195POPC   PO4 6060  14.548   2.724   9.539
  195POPC   GL1 6061  14.474   2.797   9.139
  195POPC   GL2 6062  14.637   3.137   9.078
  195POPC   C1A 6063  14.398   2.528   8.787
  195POPC   D2A 6064  14.133   2.568   8.433
  195POPC   C3A 6065  14.352   2.395   8.107
  195POPC   C4A 6066  14.454   2.554   7.730
  195POPC   C1B 6067  14.788   2.904   8.739
  195POPC   C2B 6068  14.647   2.728   8.377
  195POPC   C3B 6069  14.686   2.918   7.998
  195POPC   C4B 6070  14.504   3.053   7.620
  196POPC   NC3 6071  31.467   4.445   9.545
  196POPC   PO4 6072  31.051   3.904   9.410
  196POPC   GL1 6073  31.299   4.198   9.148
  196POPC   GL2 6074  31.667   4.167   9.155
  196POPC   C1A 6075  31.470   4.507   8.849
  196POPC   D2A 6076  31.468   4.526   8.421
  196POPC   C3A 6077  31.314   4.610   8.017
  196POPC   C4A 6078  31.315   4.295   7.723
  196POPC   C1B 6079  31.899   4.224   8.779
  196POPC   C2B 6080  31.854   3.968   8.415
  196POPC   C3B 6081  31.676   3.998   7.995
  196POPC   C4B 6082  31.800   4.394   7.814
  197POPC   NC3 6083  18.888  13.880   9.548
  197POPC   PO4 6084  19.384  13.462   9.420
  197POPC   GL1 6085  19.121  13.663   9.052
  197POPC   GL2 6086  18.785  13.905   9.047
  197POPC   C1A 6087  19.194  13.474   8.619
  197POPC   D2A 6088  19.300  13.295   8.210
  197POPC   C3A 6089  19.218  13.543   7.863
  197POPC   C4A 6090  19.089  13.778   7.506
  197POPC   C1B 6091  18.722  13.774   8.620
  197POPC   C2B 6092  18.854  13.644   8.208
  197POPC   C3B 6093  18.707  13.595   7.780
  197POPC   C4B 6094  18.584  13.853   7.381
  198POPC   NC3 6095  27.673  34.635   9.458
  198POPC   PO4 6096  27.046  34.875   9.459
  198POPC   GL1 6097  27.267  34.620   9.129
  198POPC   GL2 6098  27.630  34.751   8.989
  198POPC   C1A 6099  27.208  34.685   8.704
  198POPC   D2A 6100  27.313  34.568   8.287
  198POPC   C3A 6101  27.251  34.765   7.875
  198POPC   C4A 6102  27.479  34.604   7.449
  198POPC   C1B 6103  27.735  34.594   8.632
  198POPC   C2B 6104  27.780  34.741   8.245
  198POPC   C3B 6105  27.723  34.558   7.880
  198POPC   C4B 6106  27.975  34.415   7.524
  199POPC   NC3 6107  12.566   9.022   9.302
  199POPC   PO4 6108  11.950   8.813   9.537
  199POPC   GL1 6109  12.010   9.059   9.174
  199POPC   GL2 6110  12.167   9.382   9.230
  199POPC   C1A 6111  11.847   9.048   8.758
  199POPC   D2A 6112  11.837   8.901   8.341
  199POPC   C3A 6113  11.714   9.208   8.038
  199POPC   C4A 6114  11.951   9.240   7.690
  199POPC   C1B 6115  12.308   9.283   8.797
  199POPC   C2B 6116  12.343   8.982   8.475
  199POPC   C3B 6117  12.274   9.132   8.069
  199POPC   C4B 6118  12.433   9.381   7.752
  200POPC   NC3 6119  20.052  11.457   9.574
  200POPC   PO4 6120  19.461  11.151   9.581
  200POPC   GL1 6121  19.727  11.272   9.225
  200POPC   GL2 6122  19.724  11.637   9.187
  200POPC   C1A 6123  19.816  11.267   8.784
  200POPC   D2A 6124  19.749  11.076   8.390
  200POPC   C3A 6125  19.693  11.257   7.963
  200POPC   C4A 6126  19.811  11.346   7.497
  200POPC   C1B 6127  19.893  11.761   8.761
  200POPC   C2B 6128  19.976  11.560   8.344
  200POPC   C3B 6129  20.039  11.658   7.929
  200POPC   C4B 6130  19.822  11.825   7.608
  201POPC   NC3 6131  42.057  23.705   9.466
  201POPC   PO4 6132  41.455  24.020   9.536
  201POPC   GL1 6133  41.385  23.867   9.137
  201POPC   GL2 6134  41.605  23.606   9.201
  201POPC   C1A 6135  41.593  23.882   8.773
  201POPC   D2A 6136  41.598  23.707   8.390
  201POPC   C3A 6137  41.527  23.878   8.016
  201POPC   C4A 6138  41.491  24.192   7.750
  201POPC   C1B 6139  41.786  23.331   8.902
  201POPC   C2B 6140  41.700  23.223   8.474
  201POPC   C3B 6141  41.764  23.347   8.070
  201POPC   C4B 6142  41.739  23.539   7.705
  202POPC   NC3 6143   3.889  30.021   9.753
  202POPC   PO4 6144   4.325  30.370   9.402
  202POPC   GL1 6145   4.199  30.002   9.180
  202POPC   GL2 6146   4.014  30.174   8.901
  202POPC   C1A 6147   4.246  29.720   8.833
  202POPC   D2A 6148   4.136  29.881   8.428
  202POPC   C3A 6149   4.362  29.707   8.085
  202POPC   C4A 6150   4.092  29.578   7.759
  202POPC   C1B 6151   4.428  30.198   8.710
  202POPC   C2B 6152   4.518  30.197   8.279
  202POPC   C3B 6153   4.290  30.171   7.902
  202POPC   C4B 6154   4.561  30.203   7.592
  203POPC   NC3 6155  35.759   1.932   9.346
  203POPC   PO4 6156  35.091   1.894   9.581
  203POPC   GL1 6157  35.313   2.039   9.170
  203POPC   GL2 6158  35.546   2.344   9.127
  203POPC   C1A 6159  35.491   2.005   8.726
  203POPC   D2A 6160  35.456   1.748   8.364
  203POPC   C3A 6161  35.341   2.011   8.033
  203POPC   C4A 6162  35.413   2.050   7.620
  203POPC   C1B 6163  35.869   2.339   8.745
  203POPC   C2B 6164  35.949   2.364   8.281
  203POPC   C3B 6165  35.855   2.144   7.918
  203POPC   C4B 6166  35.840   2.297   7.497
  204POPC   NC3 6167  40.720  43.891   9.587
  204POPC   PO4 6168  41.368  44.251   9.433
  204POPC   GL1 6169  41.002  44.083   9.179
  204POPC   GL2 6170  40.599  44.128   9.150
  204POPC   C1A 6171  40.889  43.782   8.843
  204POPC   D2A 6172  41.048  43.570   8.462
  204POPC   C3A 6173  40.819  43.638   8.110
  204POPC   C4A 6174  40.850  43.873   7.752
  204POPC   C1B 6175  40.735  44.275   8.781
  204POPC   C2B 6176  40.915  44.116   8.415
  204POPC   C3B 6177  40.703  44.217   8.070
  204POPC   C4B 6178  40.460  44.198   7.704
  205POPC   NC3 6179   6.383   3.322   9.321
  205POPC   PO4 6180   6.722   3.835   9.524
  205POPC   GL1 6181   6.693   3.674   9.124
  205POPC   GL2 6182   6.862   3.361   9.120
  205POPC   C1A 6183   6.560   3.584   8.710
  205POPC   D2A 6184   6.306   3.593   8.347
  205POPC   C3A 6185   6.427   3.883   8.069
  205POPC   C4A 6186   6.629   3.924   7.695
  205POPC   C1B 6187   6.892   3.163   8.716
  205POPC   C2B 6188   6.540   3.117   8.453
  205POPC   C3B 6189   6.414   3.208   8.018
  205POPC   C4B 6190   6.727   3.415   7.757
  206POPC   NC3 6191  10.133  32.660   9.547
  206POPC   PO4 6192   9.538  32.862   9.698
  206POPC   GL1 6193   9.457  32.733   9.261
  206POPC   GL2 6194   9.813  32.790   9.178
  206POPC   C1A 6195   9.484  32.878   8.808
  206POPC   D2A 6196   9.550  32.773   8.392
  206POPC   C3A 6197   9.580  33.060   8.060
  206POPC   C4A 6198   9.388  32.821   7.747
  206POPC   C1B 6199  10.023  32.763   8.790
  206POPC   C2B 6200  10.065  32.895   8.375
  206POPC   C3B 6201  10.231  32.856   7.982
  206POPC   C4B 6202   9.899  32.873   7.697
  207POPC   NC3 6203   1.609  35.941   9.651
  207POPC   PO4 6204   1.025  36.390   9.532
  207POPC   GL1 6205   1.183  36.293   9.154
  207POPC   GL2 6206   0.929  36.064   9.056
  207POPC   C1A 6207   1.407  36.499   8.786
  207POPC   D2A 6208   1.325  36.491   8.353
  207POPC   C3A 6209   1.476  36.245   8.001
  207POPC   C4A 6210   1.422  36.467   7.605
  207POPC   C1B 6211   1.066  36.125   8.680
  207POPC   C2B 6212   1.266  35.939   8.378
  207POPC   C3B 6213   1.071  35.858   8.025
  207POPC   C4B 6214   1.124  36.029   7.637
  208POPC   NC3 6215  26.985  13.068   9.787
  208POPC   PO4 6216  26.733  13.608   9.404
  208POPC   GL1 6217  26.988  13.905   9.186
  208POPC   GL2 6218  26.690  13.944   8.997
  208POPC   C1A 6219  27.181  13.859   8.789
  208POPC   D2A 6220  27.063  13.590   8.435
  208POPC   C3A 6221  26.937  13.885   8.122
  208POPC   C4A 6222  26.771  14.037   7.747
  208POPC   C1B 6223  26.628  13.586   8.728
  208POPC   C2B 6224  26.554  13.538   8.285
  208POPC   C3B 6225  26.671  13.502   7.859
  208POPC   C4B 6226  26.362  13.320   7.579
  209POPC   NC3 6227  27.912  20.450   9.430
  209POPC   PO4 6228  28.551  20.708   9.457
  209POPC   GL1 6229  28.533  20.532   9.082
  209POPC   GL2 6230  28.359  20.228   9.135
  209POPC   C1A 6231  28.456  20.792   8.734
  209POPC   D2A 6232  28.651  20.799   8.356
  209POPC   C3A 6233  28.369  20.666   8.057
  209POPC   C4A 6234  28.503  20.844   7.701
  209POPC   C1B 6235  28.210  20.344   8.729
  209POPC   C2B 6236  28.117  20.259   8.304
  209POPC   C3B 6237  28.339  20.145   7.944
  209POPC   C4B 6238  28.536  20.356   7.634
  210POPC   NC3 6239   2.318  18.735   9.367
  210POPC   PO4 6240   1.726  18.356   9.361
  210POPC   GL1 6241   1.868  18.192   8.991
  210POPC   GL2 6242   2.191  18.296   9.077
  210POPC   C1A 6243   1.792  18.149   8.550
  210POPC   D2A 6244   2.065  18.277   8.230
  210POPC   C3A 6245   1.959  18.170   7.819
  210POPC   C4A 6246   1.586  17.932   7.728
  210POPC   C1B 6247   2.364  18.377   8.651
  210POPC   C2B 6248   2.540  18.458   8.244
  210POPC   C3B 6249   2.398  18.458   7.807
  210POPC   C4B 6250   2.105  18.521   7.462
  211POPC   NC3 6251  13.202  36.203   9.390
  211POPC   PO4 6252  12.543  36.453   9.145
  211POPC   GL1 6253  12.855  36.211   8.967
  211POPC   GL2 6254  12.705  35.900   8.875
  211POPC   C1A 6255  12.978  36.178   8.538
  211POPC   D2A 6256  13.045  36.478   8.274
  211POPC   C3A 6257  12.703  36.435   8.045
  211POPC   C4A 6258  12.931  36.307   7.730
  211POPC   C1B 6259  13.132  35.757   8.752
  211POPC   C2B 6260  12.939  35.627   8.388
  211POPC   C3B 6261  12.911  35.885   8.040
  211POPC   C4B 6262  13.198  35.887   7.666
  212POPC   NC3 6263  14.037  43.092   9.431
  212POPC   PO4 6264  14.689  43.054   9.361
  212POPC   GL1 6265  14.371  43.007   9.057
  212POPC   GL2 6266  14.175  43.318   8.999
  212POPC   C1A 6267  14.100  42.823   8.756
  212POPC   D2A 6268  14.084  42.955   8.333
  212POPC   C3A 6269  14.358  43.161   8.041
  212POPC   C4A 6270  14.562  42.979   7.681
  212POPC   C1B 6271  14.584  43.418   8.790
  212POPC   C2B 6272  14.826  43.351   8.409
  212POPC   C3B 6273  14.762  43.501   7.984
  212POPC   C4B 6274  14.505  43.472   7.630
  213POPC   NC3 6275  16.275  24.119   9.287
  213POPC   PO4 6276  15.868  24.540   9.607
  213POPC   GL1 6277  16.009  24.539   9.180
  213POPC   GL2 6278  15.700  24.434   9.019
  213POPC   C1A 6279  16.118  24.800   8.825
  213POPC   D2A 6280  16.286  24.852   8.396
  213POPC   C3A 6281  16.080  24.677   8.009
  213POPC   C4A 6282  15.704  24.412   7.923
  213POPC   C1B 6283  16.034  24.315   8.702
  213POPC   C2B 6284  16.263  24.179   8.333
  213POPC   C3B 6285  16.126  24.139   7.908
  213POPC   C4B 6286  15.755  23.877   7.839
  214POPC   NC3 6287  40.569  26.946   9.459
  214POPC   PO4 6288  40.927  26.400   9.558
  214POPC   GL1 6289  41.003  26.709   9.219
  214POPC   GL2 6290  41.088  27.015   9.042
  214POPC   C1A 6291  40.760  26.690   8.831
  214POPC   D2A 6292  40.568  26.780   8.450
  214POPC   C3A 6293  40.690  26.578   8.124
  214POPC   C4A 6294  40.838  26.577   7.733
  214POPC   C1B 6295  40.694  27.180   8.757
  214POPC   C2B 6296  40.689  27.246   8.313
  214POPC   C3B 6297  40.666  27.039   7.908
  214POPC   C4B 6298  40.733  27.025   7.449
  215POPC   NC3 6299  40.251  27.892   9.397
  215POPC   PO4 6300  39.881  27.343   9.466
  215POPC   GL1 6301  39.944  27.536   9.116
  215POPC   GL2 6302  39.753  27.849   9.150
  215POPC   C1A 6303  40.215  27.481   8.757
  215POPC   D2A 6304  40.404  27.665   8.387
  215POPC   C3A 6305  40.293  27.433   8.029
  215POPC   C4A 6306  40.270  27.219   7.647
  215POPC   C1B 6307  39.725  27.705   8.700
  215POPC   C2B 6308  39.714  27.676   8.247
  215POPC   C3B 6309  39.921  27.748   7.886
  215POPC   C4B 6310  40.325  27.949   7.907
  216POPC   NC3 6311   2.480  44.836   9.838
  216POPC   PO4 6312   1.931  44.629   9.484
  216POPC   GL1 6313   1.970  44.402   9.141
  216POPC   GL2 6314   1.661  44.238   9.124
  216POPC   C1A 6315   2.017  44.627   8.755
  216POPC   D2A 6316   2.252  44.708   8.404
  216POPC   C3A 6317   2.016  44.708   8.034
  216POPC   C4A 6318   2.220  44.739   7.649
  216POPC   C1B 6319   1.709  44.235   8.743
  216POPC   C2B 6320   1.956  44.252   8.392
  216POPC   C3B 6321   1.819  44.237   8.013
  216POPC   C4B 6322   1.840  44.410   7.627
  217POPC   NC3 6323  22.323  37.384   9.426
  217POPC   PO4 6324  22.147  37.987   9.678
  217POPC   GL1 6325  22.117  37.799   9.236
  217POPC   GL2 6326  22.454  37.773   9.075
  217POPC   C1A 6327  21.956  37.685   8.844
  217POPC   D2A 6328  22.132  37.780   8.442
  217POPC   C3A 6329  22.037  37.441   8.177
  217POPC   C4A 6330  22.031  37.500   7.759
  217POPC   C1B 6331  22.369  37.423   8.740
  217POPC   C2B 6332  22.553  37.456   8.345
  217POPC   C3B 6333  22.457  37.712   8.014
  217POPC   C4B 6334  22.540  37.506   7.683
  218POPC   NC3 6335  11.104   3.808   9.740
  218POPC   PO4 6336  11.553   3.443   9.451
  218POPC   GL1 6337  11.225   3.492   9.143
  218POPC   GL2 6338  11.069   3.853   9.188
  218POPC   C1A 6339  11.328   3.365   8.708
  218POPC   D2A 6340  11.572   3.404   8.321
  218POPC   C3A 6341  11.260   3.319   8.032
  218POPC   C4A 6342  11.090   3.440   7.623
  218POPC   C1B 6343  11.290   3.872   8.787
  218POPC   C2B 6344  11.364   3.894   8.339
  218POPC   C3B 6345  11.282   3.814   7.908
  218POPC   C4B 6346  11.407   3.773   7.440
  219POPC   NC3 6347  19.696  10.756   9.501
  219POPC   PO4 6348  20.110  10.188   9.592
  219POPC   GL1 6349  19.930  10.334   9.237
  219POPC   GL2 6350  19.593  10.281   9.276
  219POPC   C1A 6351  19.878  10.562   8.852
  219POPC   D2A 6352  20.033  10.582   8.430
  219POPC   C3A 6353  19.949  10.782   8.044
  219POPC   C4A 6354  19.813  10.880   7.641
  219POPC   C1B 6355  19.600  10.037   8.915
  219POPC   C2B 6356  19.730  10.146   8.510
  219POPC   C3B 6357  19.836  10.225   8.121
  219POPC   C4B 6358  19.702  10.424   7.793
  220POPC   NC3 6359   6.934   1.558   9.768
  220POPC   PO4 6360   7.086   1.105   9.243
  220POPC   GL1 6361   7.455   1.320   9.048
  220POPC   GL2 6362   7.668   1.029   9.060
  220POPC   C1A 6363   7.554   1.618   8.664
  220POPC   D2A 6364   7.498   1.624   8.184
  220POPC   C3A 6365   7.173   1.355   7.940
  220POPC   C4A 6366   6.959   1.023   7.674
  220POPC   C1B 6367   7.604   1.120   8.585
  220POPC   C2B 6368   7.628   1.119   8.140
  220POPC   C3B 6369   7.643   1.264   7.722
  220POPC   C4B 6370   7.705   1.269   7.242
  221POPC   NC3 6371  35.062  25.810   9.470
  221POPC   PO4 6372  35.649  26.186   9.565
  221POPC   GL1 6373  35.477  26.164   9.192
  221POPC   GL2 6374  35.533  25.840   9.114
  221POPC   C1A 6375  35.347  26.190   8.762
  221POPC   D2A 6376  35.042  26.309   8.436
  221POPC   C3A 6377  35.244  26.216   8.046
  221POPC   C4A 6378  35.548  26.046   7.773
  221POPC   C1B 6379  35.181  25.688   8.844
  221POPC   C2B 6380  35.170  25.805   8.427
  221POPC   C3B 6381  35.029  25.715   8.046
  221POPC   C4B 6382  35.117  25.813   7.677
  222POPC   NC3 6383  35.285  42.474   9.463
  222POPC   PO4 6384  35.949  42.453   9.562
  222POPC   GL1 6385  35.716  42.634   9.184
  222POPC   GL2 6386  35.513  42.329   9.042
  222POPC   C1A 6387  35.493  42.767   8.785
  222POPC   D2A 6388  35.435  42.544   8.391
  222POPC   C3A 6389  35.572  42.578   7.938
  222POPC   C4A 6390  35.469  42.436   7.488
  222POPC   C1B 6391  35.132  42.372   8.792
  222POPC   C2B 6392  34.946  42.290   8.406
  222POPC   C3B 6393  35.127  42.309   8.040
  222POPC   C4B 6394  35.118  42.131   7.695
  223POPC   NC3 6395  40.243  14.341   9.355
  223POPC   PO4 6396  39.700  14.712   9.337
  223POPC   GL1 6397  40.003  14.647   8.988
  223POPC   GL2 6398  40.190  14.322   8.853
  223POPC   C1A 6399  39.846  14.584   8.572
  223POPC   D2A 6400  39.939  14.327   8.248
  223POPC   C3A 6401  40.295  14.473   8.054
  223POPC   C4A 6402  40.285  14.717   7.668
  223POPC   C1B 6403  39.913  14.010   8.641
  223POPC   C2B 6404  39.717  13.847   8.255
  223POPC   C3B 6405  39.636  14.093   7.899
  223POPC   C4B 6406  39.883  14.412   7.742
  224POPC   NC3 6407  42.117   5.001   9.555
  224POPC   PO4 6408  42.688   5.099   9.803
  224POPC   GL1 6409  42.594   5.249   9.373
  224POPC   GL2 6410  42.890   5.424   9.242
  224POPC   C1A 6411  42.505   5.071   8.955
  224POPC   D2A 6412  42.346   4.893   8.565
  224POPC   C3A 6413  42.433   4.972   8.184
  224POPC   C4A 6414  42.566   4.682   7.898
  224POPC   C1B 6415  42.613   5.564   8.902
  224POPC   C2B 6416  42.414   5.397   8.532
  224POPC   C3B 6417  42.471   5.482   8.106
  224POPC   C4B 6418  42.503   5.259   7.768
  225POPC   NC3 6419  29.958  14.601   9.439
  225POPC   PO4 6420  29.911  13.920   9.493
  225POPC   GL1 6421  29.935  14.187   9.150
  225POPC   GL2 6422  30.312  14.253   9.164
  225POPC   C1A 6423  29.946  14.270   8.722
  225POPC   D2A 6424  29.775  14.124   8.346
  225POPC   C3A 6425  29.871  14.338   7.999
  225POPC   C4A 6426  29.969  14.187   7.584
  225POPC   C1B 6427  30.425  14.445   8.766
  225POPC   C2B 6428  30.319  14.266   8.362
  225POPC   C3B 6429  30.347  14.179   7.948
  225POPC   C4B 6430  30.259  14.595   7.772
  226POPC   NC3 6431  39.003   5.585   9.412
  226POPC   PO4 6432  39.647   5.387   9.462
  226POPC   GL1 6433  39.514   5.600   9.049
  226POPC   GL2 6434  39.144   5.688   8.945
  226POPC   C1A 6435  39.611   5.960   8.739
  226POPC   D2A 6436  39.742   6.105   8.292
  226POPC   C3A 6437  39.566   5.805   7.980
  226POPC   C4A 6438  39.109   5.733   7.916
  226POPC   C1B 6439  39.066   5.972   8.602
  226POPC   C2B 6440  39.217   6.110   8.216
  226POPC   C3B 6441  39.080   6.287   7.841
  226POPC   C4B 6442  38.892   6.450   7.446
  227POPC   NC3 6443  37.165  36.381   9.087
  227POPC   PO4 6444  36.763  35.887   9.382
  227POPC   GL1 6445  36.936  35.701   9.004
  227POPC   GL2 6446  36.587  35.696   8.908
  227POPC   C1A 6447  36.973  35.796   8.547
  227POPC   D2A 6448  36.825  36.165   8.308
  227POPC   C3A 6449  37.049  36.312   7.963
  227POPC   C4A 6450  36.919  35.995   7.641
  227POPC   C1B 6451  36.595  36.132   8.788
  227POPC   C2B 6452  36.440  36.450   8.513
  227POPC   C3B 6453  36.416  36.417   8.055
  227POPC   C4B 6454  36.646  36.421   7.699
  228POPC   NC3 6455  26.714   5.810   9.660
  228POPC   PO4 6456  27.407   5.917   9.732
  228POPC   GL1 6457  27.118   5.787   9.309
  228POPC   GL2 6458  26.767   5.580   9.218
  228POPC   C1A 6459  26.975   5.879   8.870
  228POPC   D2A 6460  27.003   6.103   8.492
  228POPC   C3A 6461  27.114   5.826   8.164
  228POPC   C4A 6462  26.956   5.838   7.787
  228POPC   C1B 6463  26.547   5.574   8.809
  228POPC   C2B 6464  26.626   5.724   8.373
  228POPC   C3B 6465  26.472   5.764   7.942
  228POPC   C4B 6466  26.558   5.737   7.476
  229POPC   NC3 6467  14.208   7.635   9.627
  229POPC   PO4 6468  13.578   7.256   9.595
  229POPC   GL1 6469  13.759   7.347   9.220
  229POPC   GL2 6470  14.018   7.100   9.251
  229POPC   C1A 6471  13.615   7.494   8.781
  229POPC   D2A 6472  13.564   7.372   8.322
  229POPC   C3A 6473  13.648   7.597   7.969
  229POPC   C4A 6474  13.392   7.677   7.631
  229POPC   C1B 6475  14.024   7.201   8.818
  229POPC   C2B 6476  13.866   7.001   8.456
  229POPC   C3B 6477  13.918   7.123   8.033
  229POPC   C4B 6478  13.988   7.305   7.667
  230POPC   NC3 6479   2.238  34.436   9.652
  230POPC   PO4 6480   1.643  34.640   9.427
  230POPC   GL1 6481   1.843  34.455   9.111
  230POPC   GL2 6482   2.213  34.395   9.162
  230POPC   C1A 6483   1.748  34.556   8.690
  230POPC   D2A 6484   1.589  34.525   8.278
  230POPC   C3A 6485   1.829  34.720   7.970
  230POPC   C4A 6486   1.891  34.430   7.641
  230POPC   C1B 6487   2.251  34.633   8.790
  230POPC   C2B 6488   2.155  34.611   8.361
  230POPC   C3B 6489   2.255  34.401   7.996
  230POPC   C4B 6490   2.503  34.262   7.674
  231POPC   NC3 6491  17.694   9.613   9.452
  231POPC   PO4 6492  17.778  10.175   9.786
  231POPC   GL1 6493  17.617  10.104   9.299
  231POPC   GL2 6494  17.336   9.910   9.199
  231POPC   C1A 6495  17.692   9.895   8.850
  231POPC   D2A 6496  17.584   9.770   8.446
  231POPC   C3A 6497  17.663   9.966   8.082
  231POPC   C4A 6498  17.669   9.720   7.754
  231POPC   C1B 6499  17.238   9.666   8.815
  231POPC   C2B 6500  17.101   9.604   8.362
  231POPC   C3B 6501  17.180   9.592   7.912
  231POPC   C4B 6502  16.997   9.568   7.535
  232POPC   NC3 6503  13.925  26.310   9.405
  232POPC   PO4 6504  14.215  25.752   9.550
  232POPC   GL1 6505  14.446  25.907   9.164
  232POPC   GL2 6506  14.605  26.241   9.132
  232POPC   C1A 6507  14.377  26.038   8.721
  232POPC   D2A 6508  14.152  26.052   8.319
  232POPC   C3A 6509  14.396  25.982   7.965
  232POPC   C4A 6510  14.426  26.221   7.576
  232POPC   C1B 6511  14.883  26.229   8.759
  232POPC   C2B 6512  14.730  26.106   8.350
  232POPC   C3B 6513  14.797  26.296   7.928
  232POPC   C4B 6514  14.938  26.238   7.507
  233POPC   NC3 6515  31.231   8.126   9.486
  233POPC   PO4 6516  31.926   7.874   9.570
  233POPC   GL1 6517  31.593   7.896   9.202
  233POPC   GL2 6518  31.466   8.267   9.057
  233POPC   C1A 6519  31.410   7.848   8.788
  233POPC   D2A 6520  31.231   8.116   8.497
  233POPC   C3A 6521  31.504   8.233   8.190
  233POPC   C4A 6522  31.533   8.099   7.735
  233POPC   C1B 6523  31.381   8.570   8.666
  233POPC   C2B 6524  31.132   8.603   8.268
  233POPC   C3B 6525  31.096   8.307   7.900
  233POPC   C4B 6526  31.220   8.394   7.452
  234POPC   NC3 6527  11.834  35.225   9.444
  234POPC   PO4 6528  12.419  35.521   9.433
  234POPC   GL1 6529  12.224  35.227   9.119
  234POPC   GL2 6530  11.900  35.406   8.977
  234POPC   C1A 6531  12.181  35.122   8.700
  234POPC   D2A 6532  12.021  35.384   8.401
  234POPC   C3A 6533  12.147  35.165   8.053
  234POPC   C4A 6534  12.264  35.291   7.662
  234POPC   C1B 6535  11.638  35.617   8.650
  234POPC   C2B 6536  11.604  35.685   8.243
  234POPC   C3B 6537  11.772  35.461   7.947
  234POPC   C4B 6538  11.647  35.164   7.674
  235POPC   NC3 6539   3.823  13.766   9.403
  235POPC   PO4 6540   3.271  13.504   9.480
  235POPC   GL1 6541   3.448  13.529   9.091
  235POPC   GL2 6542   3.746  13.344   9.094
  235POPC   C1A 6543   3.400  13.605   8.654
  235POPC   D2A 6544   3.527  13.386   8.286
  235POPC   C3A 6545   3.266  13.486   7.971
  235POPC   C4A 6546   3.301  13.749   7.629
  235POPC   C1B 6547   3.899  13.668   8.775
  235POPC   C2B 6548   3.968  13.909   8.402
  235POPC   C3B 6549   3.668  13.862   8.078
  235POPC   C4B 6550   3.763  13.567   7.785
  236POPC   NC3 6551   9.608  23.354   9.415
  236POPC   PO4 6552  10.143  23.680   9.457
  236POPC   GL1 6553   9.927  23.784   9.111
  236POPC   GL2 6554   9.702  24.071   9.240
  236POPC   C1A 6555   9.830  23.522   8.727
  236POPC   D2A 6556   9.611  23.458   8.338
  236POPC   C3A 6557   9.730  23.444   7.906
  236POPC   C4A 6558   9.928  23.762   7.643
  236POPC   C1B 6559   9.540  23.942   8.841
  236POPC   C2B 6560   9.698  23.999   8.450
  236POPC   C3B 6561   9.574  23.921   8.041
  236POPC   C4B 6562   9.404  23.808   7.659
  237POPC   NC3 6563   2.569   1.271   9.575
  237POPC   PO4 6564   3.141   0.841   9.366
  237POPC   GL1 6565   2.895   0.961   9.053
  237POPC   GL2 6566   2.581   0.983   9.150
  237POPC   C1A 6567   3.012   1.219   8.710
  237POPC   D2A 6568   2.799   1.501   8.426
  237POPC   C3A 6569   2.864   1.348   8.016
  237POPC   C4A 6570   2.587   1.349   7.644
  237POPC   C1B 6571   2.523   1.150   8.744
  237POPC   C2B 6572   2.631   1.021   8.377
  237POPC   C3B 6573   2.390   1.186   8.087
  237POPC   C4B 6574   2.208   0.969   7.788
  238POPC   NC3 6575  44.405  24.438   9.788
  238POPC   PO4 6576  43.789  24.635   9.930
  238POPC   GL1 6577  43.867  24.439   9.383
  238POPC   GL2 6578  43.631  24.242   9.178
  238POPC   C1A 6579  43.981  24.353   8.842
  238POPC   D2A 6580  43.855  24.568   8.437
  238POPC   C3A 6581  43.833  24.407   8.023
  238POPC   C4A 6582  44.161  24.534   7.736
  238POPC   C1B 6583  43.537  24.584   8.826
  238POPC   C2B 6584  43.303  24.602   8.438
  238POPC   C3B 6585  43.400  24.738   8.026
  238POPC   C4B 6586  43.725  24.786   7.680
  239POPC   NC3 6587  37.641  13.042   9.451
  239POPC   PO4 6588  37.725  12.371   9.536
  239POPC   GL1 6589  37.860  12.642   9.121
  239POPC   GL2 6590  37.751  12.997   8.975
  239POPC   C1A 6591  37.755  12.639   8.650
  239POPC   D2A 6592  37.575  12.909   8.337
  239POPC   C3A 6593  37.675  12.714   7.962
  239POPC   C4A 6594  37.844  12.621   7.552
  239POPC   C1B 6595  37.447  13.240   8.707
  239POPC   C2B 6596  37.362  13.398   8.270
  239POPC   C3B 6597  37.257  13.223   7.864
  239POPC   C4B 6598  37.594  13.072   7.596
  240POPC   NC3 6599  18.297  30.903   9.965
  240POPC   PO4 6600  18.605  30.546   9.404
  240POPC   GL1 6601  18.281  30.684   9.182
  240POPC   GL2 6602  18.148  31.001   9.150
  240POPC   C1A 6603  18.191  30.609   8.769
  240POPC   D2A 6604  18.055  30.620   8.366
  240POPC   C3A 6605  18.430  30.520   8.178
  240POPC   C4A 6606  18.415  30.346   7.834
  240POPC   C1B 6607  18.443  31.064   8.777
  240POPC   C2B 6608  18.501  31.001   8.291
  240POPC   C3B 6609  18.264  30.876   7.858
  240POPC   C4B 6610  18.061  30.902   7.418
  241POPC   NC3 6611  26.792   0.121   9.528
  241POPC   PO4 6612  27.096  44.463   9.522
  241POPC   GL1 6613  26.841  44.700   9.243
  241POPC   GL2 6614  26.764  44.423   9.077
  241POPC   C1A 6615  26.711  44.860   8.830
  241POPC   D2A 6616  26.679  44.650   8.453
  241POPC   C3A 6617  26.833  44.665   8.033
  241POPC   C4A 6618  26.607  44.545   7.677
  241POPC   C1B 6619  27.061  44.428   8.752
  241POPC   C2B 6620  26.993  44.259   8.340
  241POPC   C3B 6621  27.146  44.279   7.936
  241POPC   C4B 6622  27.087  44.445   7.542
  242POPC   NC3 6623  41.203  22.888   9.523
  242POPC   PO4 6624  41.877  22.874   9.445
  242POPC   GL1 6625  41.530  22.910   9.126
  242POPC   GL2 6626  41.286  23.203   9.122
  242POPC   C1A 6627  41.390  22.908   8.709
  242POPC   D2A 6628  41.605  22.738   8.343
  242POPC   C3A 6629  41.453  22.937   7.998
  242POPC   C4A 6630  41.654  23.058   7.600
  242POPC   C1B 6631  41.325  23.450   8.742
  242POPC   C2B 6632  41.212  23.381   8.308
  242POPC   C3B 6633  41.269  23.402   7.872
  242POPC   C4B 6634  41.148  23.076   7.619
  243POPC   NC3 6635  10.363  31.918   9.469
  243POPC   PO4 6636  10.580  32.546   9.600
  243POPC   GL1 6637  10.599  32.319   9.234
  243POPC   GL2 6638  10.859  32.088   9.222
  243POPC   C1A 6639  10.451  32.209   8.820
  243POPC   D2A 6640  10.272  32.099   8.431
  243POPC   C3A 6641  10.378  32.387   8.150
  243POPC   C4A 6642  10.519  32.480   7.734
  243POPC   C1B 6643  10.887  31.932   8.792
  243POPC   C2B 6644  10.752  31.943   8.362
  243POPC   C3B 6645  10.873  32.228   8.018
  243POPC   C4B 6646  10.931  32.118   7.589
  244POPC   NC3 6647  12.663  33.792   9.296
  244POPC   PO4 6648  13.297  34.052   9.463
  244POPC   GL1 6649  13.186  33.765   9.152
  244POPC   GL2 6650  13.133  33.385   9.170
  244POPC   C1A 6651  13.049  33.879   8.767
  244POPC   D2A 6652  12.705  33.820   8.526
  244POPC   C3A 6653  12.768  33.934   8.104
  244POPC   C4A 6654  12.416  33.886   7.818
  244POPC   C1B 6655  13.380  33.462   8.799
  244POPC   C2B 6656  13.219  33.584   8.394
  244POPC   C3B 6657  13.206  33.446   8.001
  244POPC   C4B 6658  13.269  33.572   7.581
  245POPC   NC3 6659  31.182   6.383   9.367
  245POPC   PO4 6660  31.502   6.973   9.483
  245POPC   GL1 6661  31.495   6.742   9.112
  245POPC   GL2 6662  31.185   6.833   8.976
  245POPC   C1A 6663  31.732   6.566   8.760
  245POPC   D2A 6664  31.725   6.451   8.337
  245POPC   C3A 6665  31.578   6.682   7.989
  245POPC   C4A 6666  31.774   6.707   7.582
  245POPC   C1B 6667  31.220   6.455   8.729
  245POPC   C2B 6668  31.211   6.441   8.303
  245POPC   C3B 6669  31.046   6.408   7.914
  245POPC   C4B 6670  31.328   6.485   7.570
  246POPC   NC3 6671  23.191  16.143   9.420
  246POPC   PO4 6672  22.672  15.702   9.706
  246POPC   GL1 6673  22.819  15.805   9.235
  246POPC   GL2 6674  23.057  15.538   9.189
  246POPC   C1A 6675  22.911  16.096   8.840
  246POPC   D2A 6676  22.722  16.172   8.444
  246POPC   C3A 6677  22.966  16.089   8.078
  246POPC   C4A 6678  23.166  16.322   7.716
  246POPC   C1B 6679  23.066  15.620   8.760
  246POPC   C2B 6680  23.000  15.466   8.368
  246POPC   C3B 6681  23.081  15.491   7.939
  246POPC   C4B 6682  23.169  15.813   7.715
  247POPC   NC3 6683  37.983  38.189   9.741
  247POPC   PO4 6684  38.566  38.609   9.647
  247POPC   GL1 6685  38.517  38.461   9.224
  247POPC   GL2 6686  38.187  38.528   9.070
  247POPC   C1A 6687  38.611  38.277   8.825
  247POPC   D2A 6688  38.424  38.413   8.435
  247POPC   C3A 6689  38.601  38.252   8.059
  247POPC   C4A 6690  38.621  38.471   7.695
  247POPC   C1B 6691  38.053  38.724   8.683
  247POPC   C2B 6692  38.090  38.776   8.242
  247POPC   C3B 6693  38.153  38.491   7.923
  247POPC   C4B 6694  38.114  38.613   7.509
  248POPC   NC3 6695  33.348  37.380   9.505
  248POPC   PO4 6696  33.090  38.060   9.629
  248POPC   GL1 6697  33.017  37.707   9.226
  248POPC   GL2 6698  33.234  37.485   9.023
  248POPC   C1A 6699  32.929  37.776   8.727
  248POPC   D2A 6700  33.096  37.769   8.261
  248POPC   C3A 6701  33.155  38.033   7.878
  248POPC   C4A 6702  32.950  37.849   7.491
  248POPC   C1B 6703  33.169  37.335   8.580
  248POPC   C2B 6704  32.795  37.365   8.304
  248POPC   C3B 6705  32.806  37.500   7.856
  248POPC   C4B 6706  32.686  37.384   7.375
  249POPC   NC3 6707  12.573   8.100   9.386
  249POPC   PO4 6708  13.048   8.515   9.690
  249POPC   GL1 6709  13.025   8.233   9.195
  249POPC   GL2 6710  12.667   8.312   8.954
  249POPC   C1A 6711  12.970   7.989   8.738
  249POPC   D2A 6712  12.700   7.920   8.359
  249POPC   C3A 6713  12.842   8.019   7.928
  249POPC   C4A 6714  13.047   8.016   7.507
  249POPC   C1B 6715  12.741   8.432   8.527
  249POPC   C2B 6716  13.074   8.350   8.257
  249POPC   C3B 6717  13.150   8.426   7.815
  249POPC   C4B 6718  12.837   8.504   7.529
  250POPC   NC3 6719   2.956  37.207   9.488
  250POPC   PO4 6720   2.554  36.696   9.546
  250POPC   GL1 6721   2.727  36.883   9.165
  250POPC   GL2 6722   2.789  36.643   8.956
  250POPC   C1A 6723   2.978  37.118   8.823
  250POPC   D2A 6724   2.902  37.335   8.417
  250POPC   C3A 6725   2.833  37.032   8.054
  250POPC   C4A 6726   2.707  37.005   7.613
  250POPC   C1B 6727   2.793  36.730   8.512
  250POPC   C2B 6728   3.030  36.526   8.192
  250POPC   C3B 6729   2.978  36.592   7.769
  250POPC   C4B 6730   3.104  36.777   7.405
  251POPC   NC3 6731  15.545  44.642   9.290
  251POPC   PO4 6732  16.226  44.590   9.479
  251POPC   GL1 6733  16.083  44.663   9.115
  251POPC   GL2 6734  15.968  44.997   9.133
  251POPC   C1A 6735  16.254  44.615   8.702
  251POPC   D2A 6736  15.976  44.395   8.427
  251POPC   C3A 6737  15.925  44.497   8.002
  251POPC   C4A 6738  15.670  44.694   7.670
  251POPC   C1B 6739  15.811  44.870   8.723
  251POPC   C2B 6740  16.028  44.913   8.345
  251POPC   C3B 6741  15.909   0.034   7.970
  251POPC   C4B 6742  16.105   0.156   7.643
  252POPC   NC3 6743   4.737  16.898   9.464
  252POPC   PO4 6744   5.280  16.415   9.543
  252POPC   GL1 6745   5.132  16.654   9.184
  252POPC   GL2 6746   5.288  16.959   9.181
  252POPC   C1A 6747   5.004  16.584   8.747
  252POPC   D2A 6748   5.198  16.432   8.396
  252POPC   C3A 6749   5.002  16.493   7.987
  252POPC   C4A 6750   4.991  16.672   7.573
  252POPC   C1B 6751   5.337  16.975   8.717
  252POPC   C2B 6752   5.087  16.935   8.339
  252POPC   C3B 6753   5.112  17.025   7.907
  252POPC   C4B 6754   5.270  17.077   7.439
  253POPC   NC3 6755  27.570   5.735  10.172
  253POPC   PO4 6756  27.921   5.568   9.564
  253POPC   GL1 6757  27.662   5.840   9.281
  253POPC   GL2 6758  27.687   5.538   9.117
  253POPC   C1A 6759  27.490   5.916   8.846
  253POPC   D2A 6760  27.507   6.077   8.405
  253POPC   C3A 6761  27.702   5.907   8.045
  253POPC   C4A 6762  27.436   5.952   7.692
  253POPC   C1B 6763  27.635   5.413   8.767
  253POPC   C2B 6764  27.470   5.562   8.414
  253POPC   C3B 6765  27.607   5.392   8.039
  253POPC   C4B 6766  27.744   5.511   7.658
  254POPC   NC3 6767  29.470  40.476   9.448
  254POPC   PO4 6768  28.963  40.871   9.448
  254POPC   GL1 6769  29.136  40.833   9.047
  254POPC   GL2 6770  29.347  40.536   8.948
  254POPC   C1A 6771  29.089  40.945   8.608
  254POPC   D2A 6772  28.999  40.720   8.229
  254POPC   C3A 6773  28.924  40.861   7.821
  254POPC   C4A 6774  29.019  40.637   7.428
  254POPC   C1B 6775  29.585  40.927   8.837
  254POPC   C2B 6776  29.536  41.216   8.493
  254POPC   C3B 6777  29.266  41.155   8.149
  254POPC   C4B 6778  29.210  41.275   7.755
  255POPC   NC3 6779  17.929  11.195   9.455
  255POPC   PO4 6780  17.395  11.558   9.820
  255POPC   GL1 6781  17.503  11.489   9.334
  255POPC   GL2 6782  17.455  11.119   9.232
  255POPC   C1A 6783  17.527  11.468   8.841
  255POPC   D2A 6784  17.392  11.239   8.419
  255POPC   C3A 6785  17.391  11.400   7.971
  255POPC   C4A 6786  17.261  11.416   7.522
  255POPC   C1B 6787  17.593  10.958   8.823
  255POPC   C2B 6788  17.831  10.939   8.452
  255POPC   C3B 6789  17.696  10.942   8.035
  255POPC   C4B 6790  17.684  11.149   7.621
  256POPC   NC3 6791  28.164  35.002   9.779
  256POPC   PO4 6792  27.985  34.345   9.649
  256POPC   GL1 6793  28.133  34.567   9.226
  256POPC   GL2 6794  28.415  34.822   9.222
  256POPC   C1A 6795  28.234  34.655   8.770
  256POPC   D2A 6796  28.151  34.407   8.387
  256POPC   C3A 6797  28.221  34.548   7.969
  256POPC   C4A 6798  28.098  34.882   7.682
  256POPC   C1B 6799  28.732  34.817   8.854
  256POPC   C2B 6800  28.643  34.669   8.438
  256POPC   C3B 6801  28.644  34.822   8.031
  256POPC   C4B 6802  28.569  34.695   7.594
  257POPC   NC3 6803   9.273   6.683   9.572
  257POPC   PO4 6804   8.680   6.928   9.790
  257POPC   GL1 6805   8.799   6.652   9.349
  257POPC   GL2 6806   9.062   6.395   9.194
  257POPC   C1A 6807   8.841   6.715   8.870
  257POPC   D2A 6808   8.766   6.539   8.487
  257POPC   C3A 6809   8.832   6.807   8.154
  257POPC   C4A 6810   8.737   6.776   7.720
  257POPC   C1B 6811   9.273   6.444   8.769
  257POPC   C2B 6812   9.316   6.581   8.316
  257POPC   C3B 6813   9.152   6.488   7.894
  257POPC   C4B 6814   9.177   6.133   7.641
  258POPC   NC3 6815  38.915  16.182   9.294
  258POPC   PO4 6816  39.444  16.357   9.597
  258POPC   GL1 6817  39.423  16.170   9.167
  258POPC   GL2 6818  39.323  15.824   9.217
  258POPC   C1A 6819  39.258  16.173   8.713
  258POPC   D2A 6820  39.392  16.323   8.295
  258POPC   C3A 6821  39.360  16.041   7.950
  258POPC   C4A 6822  38.913  15.932   7.852
  258POPC   C1B 6823  39.309  15.656   8.781
  258POPC   C2B 6824  39.185  15.767   8.354
  258POPC   C3B 6825  39.191  15.543   7.958
  258POPC   C4B 6826  39.297  15.719   7.516
  259POPC   NC3 6827  43.379  18.066   9.569
  259POPC   PO4 6828  42.978  18.478   9.852
  259POPC   GL1 6829  42.977  18.369   9.391
  259POPC   GL2 6830  43.291  18.501   9.243
  259POPC   C1A 6831  43.003  18.124   8.986
  259POPC   D2A 6832  42.963  18.119   8.536
  259POPC   C3A 6833  43.136  18.018   8.138
  259POPC   C4A 6834  42.965  18.167   7.741
  259POPC   C1B 6835  43.028  18.616   8.872
  259POPC   C2B 6836  43.189  18.620   8.456
  259POPC   C3B 6837  43.033  18.583   8.050
  259POPC   C4B 6838  43.325  18.675   7.759
  260POPC   NC3 6839  33.654  14.672   9.793
  260POPC   PO4 6840  33.876  15.218   9.728
  260POPC   GL1 6841  33.914  15.147   9.234
  260POPC   GL2 6842  34.069  14.865   9.161
  260POPC   C1A 6843  33.948  15.296   8.787
  260POPC   D2A 6844  33.993  15.103   8.365
  260POPC   C3A 6845  33.992  15.353   7.989
  260POPC   C4A 6846  33.629  15.533   7.750
  260POPC   C1B 6847  33.742  14.828   8.850
  260POPC   C2B 6848  33.476  14.941   8.483
  260POPC   C3B 6849  33.527  15.110   8.063
  260POPC   C4B 6850  33.818  14.942   7.748
  261POPC   NC3 6851   1.523  23.134   9.673
  261POPC   PO4 6852   1.375  23.803   9.490
  261POPC   GL1 6853   1.215  23.745   9.101
  261POPC   GL2 6854   0.926  23.962   9.130
  261POPC   C1A 6855   1.220  23.922   8.724
  261POPC   D2A 6856   0.987  23.973   8.416
  261POPC   C3A 6857   1.121  23.774   8.045
  261POPC   C4A 6858   1.475  23.529   7.825
  261POPC   C1B 6859   0.852  23.590   8.794
  261POPC   C2B 6860   0.700  23.550   8.366
  261POPC   C3B 6861   0.732  23.360   7.957
  261POPC   C4B 6862   0.963  23.576   7.607
  262POPC   NC3 6863   1.157  38.320   9.358
  262POPC   PO4 6864   1.606  38.780   9.571
  262POPC   GL1 6865   1.610  38.552   9.153
  262POPC   GL2 6866   1.310  38.586   8.923
  262POPC   C1A 6867   1.619  38.198   8.822
  262POPC   D2A 6868   1.419  38.097   8.414
  262POPC   C3A 6869   1.356  38.420   8.131
  262POPC   C4A 6870   1.454  38.374   7.714
  262POPC   C1B 6871   0.870  38.577   8.755
  262POPC   C2B 6872   0.685  38.263   8.487
  262POPC   C3B 6873   0.841  38.326   8.076
  262POPC   C4B 6874   1.017  38.669   7.841
  263POPC   NC3 6875  39.398  12.144   9.684
  263POPC   PO4 6876  39.067  11.574   9.566
  263POPC   GL1 6877  39.353  11.905   9.244
  263POPC   GL2 6878  39.115  12.067   8.984
  263POPC   C1A 6879  39.564  12.041   8.809
  263POPC   D2A 6880  39.246  12.036   8.479
  263POPC   C3A 6881  39.400  12.196   8.114
  263POPC   C4A 6882  39.427  12.032   7.719
  263POPC   C1B 6883  38.858  11.782   8.737
  263POPC   C2B 6884  38.728  11.699   8.316
  263POPC   C3B 6885  38.867  11.788   7.888
  263POPC   C4B 6886  38.961  12.054   7.537
  264POPC   NC3 6887   3.571   5.876   9.688
  264POPC   PO4 6888   3.738   5.541   9.247
  264POPC   GL1 6889   3.513   5.913   9.161
  264POPC   GL2 6890   3.169   5.931   9.208
  264POPC   C1A 6891   3.442   6.130   8.766
  264POPC   D2A 6892   3.419   6.008   8.325
  264POPC   C3A 6893   3.721   5.758   8.045
  264POPC   C4A 6894   3.536   5.950   7.687
  264POPC   C1B 6895   3.226   5.623   8.846
  264POPC   C2B 6896   3.414   5.501   8.465
  264POPC   C3B 6897   3.263   5.590   8.041
  264POPC   C4B 6898   3.479   5.432   7.709
  265POPC   NC3 6899  33.655  34.469   9.599
  265POPC   PO4 6900  34.264  34.191   9.448
  265POPC   GL1 6901  33.998  34.527   9.212
  265POPC   GL2 6902  33.665  34.759   9.194
  265POPC   C1A 6903  33.953  34.572   8.799
  265POPC   D2A 6904  34.139  34.440   8.443
  265POPC   C3A 6905  33.838  34.401   8.142
  265POPC   C4A 6906  34.008  34.412   7.780
  265POPC   C1B 6907  33.540  34.873   8.755
  265POPC   C2B 6908  33.810  34.890   8.388
  265POPC   C3B 6909  33.922  34.900   7.965
  265POPC   C4B 6910  33.685  34.771   7.603
  266POPC   NC3 6911  23.498   8.471   9.642
  266POPC   PO4 6912  24.025   8.058   9.652
  266POPC   GL1 6913  24.029   8.399   9.273
  266POPC   GL2 6914  23.700   8.444   9.160
  266POPC   C1A 6915  24.084   8.374   8.779
  266POPC   D2A 6916  23.751   8.393   8.429
  266POPC   C3A 6917  23.789   8.150   8.051
  266POPC   C4A 6918  24.258   8.126   7.950
  266POPC   C1B 6919  23.421   8.304   8.833
  266POPC   C2B 6920  23.271   8.272   8.398
  266POPC   C3B 6921  23.351   8.475   7.955
  266POPC   C4B 6922  23.175   8.431   7.520
  267POPC   NC3 6923  41.026  30.375   9.700
  267POPC   PO4 6924  40.747  29.853   9.507
  267POPC   GL1 6925  40.952  29.972   9.130
  267POPC   GL2 6926  41.190  30.217   9.060
  267POPC   C1A 6927  40.816  29.831   8.747
  267POPC   D2A 6928  40.453  30.018   8.540
  267POPC   C3A 6929  40.474  30.128   8.085
  267POPC   C4A 6930  40.594  30.004   7.637
  267POPC   C1B 6931  41.222  30.124   8.641
  267POPC   C2B 6932  40.934  30.122   8.343
  267POPC   C3B 6933  40.915  29.879   8.014
  267POPC   C4B 6934  41.083  30.073   7.657
  268POPC   NC3 6935  33.652   5.749   9.793
  268POPC   PO4 6936  33.109   6.064   9.587
  268POPC   GL1 6937  33.087   5.813   9.199
  268POPC   GL2 6938  33.203   6.108   9.068
  268POPC   C1A 6939  32.928   5.802   8.750
  268POPC   D2A 6940  32.753   5.661   8.353
  268POPC   C3A 6941  32.822   5.924   8.027
  268POPC   C4A 6942  32.827   5.755   7.620
  268POPC   C1B 6943  33.309   6.155   8.669
  268POPC   C2B 6944  33.238   5.965   8.311
  268POPC   C3B 6945  33.292   6.071   7.906
  268POPC   C4B 6946  33.277   5.982   7.494
  269POPC   NC3 6947  24.267   6.221   9.342
  269POPC   PO4 6948  24.435   5.543   9.477
  269POPC   GL1 6949  24.627   5.870   9.206
  269POPC   GL2 6950  24.365   5.861   8.979
  269POPC   C1A 6951  24.846   5.835   8.807
  269POPC   D2A 6952  24.720   5.612   8.450
  269POPC   C3A 6953  24.842   5.743   8.051
  269POPC   C4A 6954  24.690   6.005   7.716
  269POPC   C1B 6955  24.480   6.148   8.646
  269POPC   C2B 6956  24.495   6.086   8.224
  269POPC   C3B 6957  24.291   6.277   7.911
  269POPC   C4B 6958  24.321   6.370   7.492
  270POPC   NC3 6959   4.791  38.993   9.641
  270POPC   PO4 6960   4.284  39.436   9.714
  270POPC   GL1 6961   4.522  39.318   9.316
  270POPC   GL2 6962   4.445  38.978   9.226
  270POPC   C1A 6963   4.428  39.310   8.850
  270POPC   D2A 6964   4.139  39.439   8.516
  270POPC   C3A 6965   4.279  39.278   8.114
  270POPC   C4A 6966   4.592  39.420   7.804
  270POPC   C1B 6967   4.297  38.751   8.862
  270POPC   C2B 6968   4.133  38.840   8.446
  270POPC   C3B 6969   4.365  38.771   8.082
  270POPC   C4B 6970   4.242  38.906   7.710
  271POPC   NC3 6971  39.270  14.626   9.471
  271POPC   PO4 6972  39.030  13.996   9.533
  271POPC   GL1 6973  38.881  14.164   9.155
  271POPC   GL2 6974  38.940  14.506   9.098
  271POPC   C1A 6975  39.139  14.176   8.754
  271POPC   D2A 6976  39.424  14.278   8.396
  271POPC   C3A 6977  39.168  14.253   8.024
  271POPC   C4A 6978  39.168  14.019   7.632
  271POPC   C1B 6979  39.167  14.701   8.744
  271POPC   C2B 6980  39.415  14.784   8.358
  271POPC   C3B 6981  39.466  14.658   7.930
  271POPC   C4B 6982  39.419  14.477   7.504
  272POPC   NC3 6983  23.315  30.064   9.625
  272POPC   PO4 6984  22.635  30.156   9.570
  272POPC   GL1 6985  22.874  30.250   9.180
  272POPC   GL2 6986  23.143  30.072   9.049
  272POPC   C1A 6987  22.763  30.382   8.770
  272POPC   D2A 6988  22.695  30.231   8.341
  272POPC   C3A 6989  22.896  29.848   8.226
  272POPC   C4A 6990  22.963  29.678   7.822
  272POPC   C1B 6991  23.300  30.334   8.683
  272POPC   C2B 6992  23.213  30.267   8.230
  272POPC   C3B 6993  22.943  30.192   7.842
  272POPC   C4B 6994  23.082  30.213   7.388
  273POPC   NC3 6995  22.817  42.026   9.443
  273POPC   PO4 6996  22.783  41.371   9.641
  273POPC   GL1 6997  22.887  41.550   9.267
  273POPC   GL2 6998  22.574  41.645   9.123
  273POPC   C1A 6999  23.037  41.766   8.883
  273POPC   D2A 7000  22.982  41.664   8.439
  273POPC   C3A 7001  23.090  41.359   8.105
  273POPC   C4A 7002  23.114  41.636   7.759
  273POPC   C1B 7003  22.737  41.341   8.801
  273POPC   C2B 7004  22.638  41.268   8.373
  273POPC   C3B 7005  22.562  41.446   7.966
  273POPC   C4B 7006  22.797  41.242   7.663
  274POPC   NC3 7007  31.064   3.442   9.443
  274POPC   PO4 7008  31.729   3.420   9.507
  274POPC   GL1 7009  31.481   3.354   9.140
  274POPC   GL2 7010  31.534   3.692   9.059
  274POPC   C1A 7011  31.366   3.379   8.693
  274POPC   D2A 7012  31.463   3.634   8.359
  274POPC   C3A 7013  31.485   3.494   7.989
  274POPC   C4A 7014  31.378   3.165   7.742
  274POPC   C1B 7015  31.434   3.994   8.715
  274POPC   C2B 7016  31.242   4.085   8.300
  274POPC   C3B 7017  31.067   3.839   8.001
  274POPC   C4B 7018  31.268   3.795   7.633
  275POPC   NC3 7019   8.141   9.552   9.496
  275POPC   PO4 7020   8.067  10.185   9.277
  275POPC   GL1 7021   8.192   9.801   9.066
  275POPC   GL2 7022   7.860   9.614   9.087
  275POPC   C1A 7023   8.375   9.842   8.657
  275POPC   D2A 7024   8.244  10.012   8.279
  275POPC   C3A 7025   8.363   9.747   7.961
  275POPC   C4A 7026   8.425   9.746   7.546
  275POPC   C1B 7027   7.820   9.859   8.726
  275POPC   C2B 7028   7.806   9.594   8.412
  275POPC   C3B 7029   7.941   9.501   8.039
  275POPC   C4B 7030   7.912   9.745   7.668
  276POPC   NC3 7031  10.939  18.438   9.551
  276POPC   PO4 7032  11.517  18.026   9.522
  276POPC   GL1 7033  11.389  18.190   9.145
  276POPC   GL2 7034  11.054  18.145   9.135
  276POPC   C1A 7035  11.314  18.162   8.698
  276POPC   D2A 7036  11.292  18.481   8.405
  276POPC   C3A 7037  11.441  18.317   8.019
  276POPC   C4A 7038  11.291  18.162   7.638
  276POPC   C1B 7039  10.931  18.470   8.812
  276POPC   C2B 7040  10.756  18.605   8.414
  276POPC   C3B 7041  10.959  18.593   7.987
  276POPC   C4B 7042  10.999  18.583   7.517
  277POPC   NC3 7043   7.038  18.204   9.432
  277POPC   PO4 7044   6.461  18.550   9.556
  277POPC   GL1 7045   6.483  18.441   9.157
  277POPC   GL2 7046   6.513  18.109   9.061
  277POPC   C1A 7047   6.757  18.492   8.829
  277POPC   D2A 7048   6.954  18.608   8.466
  277POPC   C3A 7049   6.743  18.458   8.126
  277POPC   C4A 7050   6.895  18.318   7.712
  277POPC   C1B 7051   6.820  17.949   8.794
  277POPC   C2B 7052   6.942  18.085   8.413
  277POPC   C3B 7053   6.799  17.951   8.033
  277POPC   C4B 7054   6.844  17.782   7.624
  278POPC   NC3 7055  33.624  11.933   9.420
  278POPC   PO4 7056  34.133  11.979   9.899
  278POPC   GL1 7057  34.051  12.213   9.355
  278POPC   GL2 7058  33.760  12.378   9.216
  278POPC   C1A 7059  34.018  12.081   8.868
  278POPC   D2A 7060  34.075  12.118   8.403
  278POPC   C3A 7061  33.818  11.898   8.057
  278POPC   C4A 7062  33.908  11.976   7.592
  278POPC   C1B 7063  33.522  12.240   8.832
  278POPC   C2B 7064  33.419  12.268   8.416
  278POPC   C3B 7065  33.672  12.396   8.096
  278POPC   C4B 7066  33.539  12.302   7.712
  279POPC   NC3 7067  26.906  32.010   9.450
  279POPC   PO4 7068  27.138  32.615   9.427
  279POPC   GL1 7069  26.808  32.428   9.120
  279POPC   GL2 7070  26.641  32.071   9.007
  279POPC   C1A 7071  26.891  32.353   8.690
  279POPC   D2A 7072  26.885  32.118   8.344
  279POPC   C3A 7073  26.685  32.322   7.989
  279POPC   C4A 7074  26.926  32.573   7.666
  279POPC   C1B 7075  26.518  31.827   8.623
  279POPC   C2B 7076  26.546  31.792   8.182
  279POPC   C3B 7077  26.891  31.857   7.897
  279POPC   C4B 7078  26.836  32.102   7.534
  280POPC   NC3 7079   3.869   4.898   9.720
  280POPC   PO4 7080   3.474   5.415   9.832
  280POPC   GL1 7081   3.529   5.117   9.379
  280POPC   GL2 7082   3.738   4.915   9.200
  280POPC   C1A 7083   3.376   5.121   8.890
  280POPC   D2A 7084   3.237   4.990   8.488
  280POPC   C3A 7085   3.365   5.103   8.112
  280POPC   C4A 7086   3.252   4.920   7.738
  280POPC   C1B 7087   3.854   5.060   8.779
  280POPC   C2B 7088   3.746   4.871   8.421
  280POPC   C3B 7089   3.802   4.870   8.006
  280POPC   C4B 7090   3.909   5.280   7.899
  281POPC   NC3 7091   7.385  14.582   9.398
  281POPC   PO4 7092   7.667  13.996   9.635
  281POPC   GL1 7093   7.555  14.126   9.197
  281POPC   GL2 7094   7.216  14.014   9.126
  281POPC   C1A 7095   7.431  14.388   8.789
  281POPC   D2A 7096   7.255  14.493   8.402
  281POPC   C3A 7097   7.498  14.624   8.058
  281POPC   C4A 7098   7.558  14.676   7.592
  281POPC   C1B 7099   7.438  13.895   8.764
  281POPC   C2B 7100   7.553  14.025   8.376
  281POPC   C3B 7101   7.322  13.949   8.022
  281POPC   C4B 7102   7.278  14.286   7.750
  282POPC   NC3 7103  20.397  42.518   9.900
  282POPC   PO4 7104  20.936  42.167   9.684
  282POPC   GL1 7105  20.705  42.233   9.272
  282POPC   GL2 7106  20.536  41.931   9.172
  282POPC   C1A 7107  20.821  42.180   8.794
  282POPC   D2A 7108  20.649  42.112   8.385
  282POPC   C3A 7109  20.731  42.293   7.982
  282POPC   C4A 7110  20.492  42.567   7.727
  282POPC   C1B 7111  20.315  42.050   8.765
  282POPC   C2B 7112  20.116  42.037   8.311
  282POPC   C3B 7113  20.224  42.131   7.851
  282POPC   C4B 7114  20.468  42.140   7.452
  283POPC   NC3 7115   8.389  23.117   9.318
  283POPC   PO4 7116   7.902  23.111   9.766
  283POPC   GL1 7117   7.871  22.982   9.286
  283POPC   GL2 7118   8.100  22.700   9.145
  283POPC   C1A 7119   7.842  23.027   8.797
  283POPC   D2A 7120   7.847  23.251   8.364
  283POPC   C3A 7121   8.050  23.144   7.939
  283POPC   C4A 7122   8.477  23.313   7.832
  283POPC   C1B 7123   8.341  22.827   8.758
  283POPC   C2B 7124   8.202  22.822   8.333
  283POPC   C3B 7125   8.450  22.811   7.957
  283POPC   C4B 7126   8.340  22.558   7.605
  284POPC   NC3 7127   9.589  11.636   9.464
  284POPC   PO4 7128   9.857  12.288   9.545
  284POPC   GL1 7129   9.677  12.224   9.173
  284POPC   GL2 7130   9.822  11.926   9.106
  284POPC   C1A 7131   9.669  12.229   8.725
  284POPC   D2A 7132   9.520  12.058   8.336
  284POPC   C3A 7133   9.492  12.380   8.041
  284POPC   C4A 7134   9.831  12.404   7.760
  284POPC   C1B 7135   9.524  11.727   8.784
  284POPC   C2B 7136   9.213  11.659   8.438
  284POPC   C3B 7137   9.380  11.612   8.056
  284POPC   C4B 7138   9.582  11.916   7.805
  285POPC   NC3 7139   5.707  20.344   9.429
  285POPC   PO4 7140   5.707  19.677   9.439
  285POPC   GL1 7141   5.908  19.836   9.090
  285POPC   GL2 7142   6.135  20.117   9.202
  285POPC   C1A 7143   5.821  19.706   8.658
  285POPC   D2A 7144   6.045  19.675   8.275
  285POPC   C3A 7145   5.688  19.618   8.029
  285POPC   C4A 7146   5.560  19.380   7.692
  285POPC   C1B 7147   6.068  20.250   8.781
  285POPC   C2B 7148   5.876  20.197   8.391
  285POPC   C3B 7149   5.903  20.081   7.981
  285POPC   C4B 7150   5.933  19.809   7.646
  286POPC   NC3 7151  34.731   4.581   9.569
  286POPC   PO4 7152  34.320   4.093   9.444
  286POPC   GL1 7153  34.670   4.210   9.204
  286POPC   GL2 7154  34.707   4.568   9.063
  286POPC   C1A 7155  34.729   4.109   8.804
  286POPC   D2A 7156  34.776   4.326   8.422
  286POPC   C3A 7157  34.568   4.211   8.032
  286POPC   C4A 7158  34.785   4.125   7.649
  286POPC   C1B 7159  34.319   4.425   8.848
  286POPC   C2B 7160  34.232   4.257   8.449
  286POPC   C3B 7161  34.104   4.460   8.052
  286POPC   C4B 7162  34.212   4.405   7.611
  287POPC   NC3 7163  21.496  41.065   9.402
  287POPC   PO4 7164  21.098  40.626   9.474
  287POPC   GL1 7165  21.332  40.671   9.116
  287POPC   GL2 7166  21.558  40.384   9.123
  287POPC   C1A 7167  21.407  40.946   8.757
  287POPC   D2A 7168  21.315  40.796   8.366
  287POPC   C3A 7169  21.483  40.905   7.995
  287POPC   C4A 7170  21.239  40.682   7.696
  287POPC   C1B 7171  21.464  40.423   8.673
  287POPC   C2B 7172  21.489  40.321   8.224
  287POPC   C3B 7173  21.665  40.439   7.820
  287POPC   C4B 7174  21.680  40.782   7.508
  288POPC   NC3 7175  41.387  25.610   9.462
  288POPC   PO4 7176  41.684  24.993   9.572
  288POPC   GL1 7177  41.450  25.202   9.153
  288POPC   GL2 7178  41.475  25.494   8.963
  288POPC   C1A 7179  41.255  25.055   8.716
  288POPC   D2A 7180  41.450  24.857   8.318
  288POPC   C3A 7181  41.509  25.156   7.946
  288POPC   C4A 7182  41.473  25.632   7.947
  288POPC   C1B 7183  41.476  25.716   8.546
  288POPC   C2B 7184  41.848  25.809   8.284
  288POPC   C3B 7185  41.978  25.601   7.921
  288POPC   C4B 7186  42.064  25.158   7.923
  289POPC   NC3 7187  24.462  13.449   9.415
  289POPC   PO4 7188  24.518  14.104   9.664
  289POPC   GL1 7189  24.380  13.934   9.208
  289POPC   GL2 7190  24.078  13.762   9.140
  289POPC   C1A 7191  24.375  13.910   8.712
  289POPC   D2A 7192  24.558  13.903   8.257
  289POPC   C3A 7193  24.668  13.504   8.001
  289POPC   C4A 7194  24.734  13.504   7.590
  289POPC   C1B 7195  24.049  13.507   8.714
  289POPC   C2B 7196  24.216  13.503   8.237
  289POPC   C3B 7197  24.302  13.775   7.807
  289POPC   C4B 7198  24.213  13.937   7.391
  290POPC   NC3 7199   2.466  20.759   9.528
  290POPC   PO4 7200   3.124  20.823   9.437
  290POPC   GL1 7201   2.980  20.781   9.023
  290POPC   GL2 7202   2.679  20.626   9.086
  290POPC   C1A 7203   2.665  20.925   8.695
  290POPC   D2A 7204   2.663  21.121   8.324
  290POPC   C3A 7205   2.736  20.888   8.007
  290POPC   C4A 7206   3.020  20.556   7.987
  290POPC   C1B 7207   2.772  20.427   8.688
  290POPC   C2B 7208   2.599  20.457   8.277
  290POPC   C3B 7209   2.558  20.360   7.822
  290POPC   C4B 7210   2.667  20.275   7.363
  291POPC   NC3 7211   3.589  12.402   9.510
  291POPC   PO4 7212   3.288  11.787   9.609
  291POPC   GL1 7213   3.649  11.890   9.306
  291POPC   GL2 7214   3.376  11.887   9.101
  291POPC   C1A 7215   3.801  11.994   8.833
  291POPC   D2A 7216   3.600  12.193   8.439
  291POPC   C3A 7217   3.736  12.051   8.027
  291POPC   C4A 7218   3.638  11.855   7.626
  291POPC   C1B 7219   3.088  11.888   8.772
  291POPC   C2B 7220   3.227  11.835   8.364
  291POPC   C3B 7221   3.242  11.928   7.948
  291POPC   C4B 7222   3.078  11.576   7.756
  292POPC   NC3 7223  27.501  21.500   9.747
  292POPC   PO4 7224  27.798  20.955   9.488
  292POPC   GL1 7225  27.512  21.243   9.200
  292POPC   GL2 7226  27.460  21.581   9.218
  292POPC   C1A 7227  27.683  21.474   8.765
  292POPC   D2A 7228  27.946  21.525   8.373
  292POPC   C3A 7229  27.715  21.500   7.976
  292POPC   C4A 7230  27.678  21.301   7.560
  292POPC   C1B 7231  27.183  21.461   8.846
  292POPC   C2B 7232  27.257  21.496   8.417
  292POPC   C3B 7233  27.091  21.559   8.010
  292POPC   C4B 7234  27.309  21.644   7.629
  293POPC   NC3 7235  21.722  37.845   9.543
  293POPC   PO4 7236  21.079  37.626   9.496
  293POPC   GL1 7237  21.428  37.688   9.161
  293POPC   GL2 7238  21.650  38.016   9.061
  293POPC   C1A 7239  21.465  37.636   8.721
  293POPC   D2A 7240  21.628  37.829   8.337
  293POPC   C3A 7241  21.514  37.546   8.004
  293POPC   C4A 7242  21.087  37.557   7.805
  293POPC   C1B 7243  21.266  38.112   8.850
  293POPC   C2B 7244  21.101  37.918   8.484
  293POPC   C3B 7245  21.088  38.007   8.070
  293POPC   C4B 7246  21.455  38.020   7.847
  294POPC   NC3 7247   7.603   2.257   9.518
  294POPC   PO4 7248   7.355   1.613   9.505
  294POPC   GL1 7249   7.464   1.838   9.126
  294POPC   GL2 7250   7.740   2.055   9.091
  294POPC   C1A 7251   7.284   2.063   8.760
  294POPC   D2A 7252   7.238   2.260   8.338
  294POPC   C3A 7253   7.301   2.051   7.964
  294POPC   C4A 7254   7.430   1.734   7.661
  294POPC   C1B 7255   7.756   2.261   8.741
  294POPC   C2B 7256   7.735   2.079   8.390
  294POPC   C3B 7257   7.701   2.388   8.119
  294POPC   C4B 7258   7.647   2.362   7.700
  295POPC   NC3 7259  16.278  32.255   9.556
  295POPC   PO4 7260  16.931  32.420   9.628
  295POPC   GL1 7261  16.697  32.218   9.255
  295POPC   GL2 7262  16.739  32.509   9.007
  295POPC   C1A 7263  16.392  32.176   8.866
  295POPC   D2A 7264  16.533  32.405   8.490
  295POPC   C3A 7265  16.482  32.199   8.088
  295POPC   C4A 7266  16.619  32.361   7.721
  295POPC   C1B 7267  16.895  32.124   8.799
  295POPC   C2B 7268  16.862  31.997   8.363
  295POPC   C3B 7269  16.952  32.025   7.920
  295POPC   C4B 7270  16.803  31.965   7.483
  296POPC   NC3 7271  18.896  14.713   9.578
  296POPC   PO4 7272  19.361  15.214   9.419
  296POPC   GL1 7273  19.130  15.240   9.071
  296POPC   GL2 7274  18.991  14.965   9.117
  296POPC   C1A 7275  19.138  15.267   8.641
  296POPC   D2A 7276  19.161  15.099   8.253
  296POPC   C3A 7277  19.275  15.398   7.973
  296POPC   C4A 7278  19.006  15.356   7.637
  296POPC   C1B 7279  18.793  14.908   8.719
  296POPC   C2B 7280  18.872  14.702   8.309
  296POPC   C3B 7281  18.827  14.932   7.905
  296POPC   C4B 7282  18.825  14.901   7.414
  297POPC   NC3 7283  20.626  37.536   9.550
  297POPC   PO4 7284  20.170  38.031   9.595
  297POPC   GL1 7285  20.473  37.912   9.252
  297POPC   GL2 7286  20.409  37.605   9.053
  297POPC   C1A 7287  20.785  37.922   8.920
  297POPC   D2A 7288  20.604  37.811   8.537
  297POPC   C3A 7289  20.762  37.567   8.215
  297POPC   C4A 7290  20.563  37.563   7.817
  297POPC   C1B 7291  20.528  37.317   8.714
  297POPC   C2B 7292  20.404  37.176   8.295
  297POPC   C3B 7293  20.366  37.092   7.824
  297POPC   C4B 7294  20.711  37.210   7.475
  298POPC   NC3 7295  29.703   6.158   9.630
  298POPC   PO4 7296  29.718   5.521   9.601
  298POPC   GL1 7297  29.778   5.809   9.251
  298POPC   GL2 7298  30.070   5.975   9.261
  298POPC   C1A 7299  29.801   6.050   8.848
  298POPC   D2A 7300  29.771   5.833   8.461
  298POPC   C3A 7301  29.727   6.122   8.106
  298POPC   C4A 7302  29.757   6.224   7.670
  298POPC   C1B 7303  30.153   5.664   8.920
  298POPC   C2B 7304  30.235   5.574   8.504
  298POPC   C3B 7305  30.159   5.715   8.117
  298POPC   C4B 7306  30.205   6.062   7.857
  299POPC   NC3 7307  32.589  14.908   9.806
  299POPC   PO4 7308  31.942  15.194   9.694
  299POPC   GL1 7309  32.146  15.293   9.271
  299POPC   GL2 7310  32.218  14.985   9.176
  299POPC   C1A 7311  32.510  15.324   8.950
  299POPC   D2A 7312  32.542  15.344   8.492
  299POPC   C3A 7313  32.362  15.138   8.141
  299POPC   C4A 7314  32.257  15.387   7.779
  299POPC   C1B 7315  32.328  14.861   8.773
  299POPC   C2B 7316  32.106  14.734   8.404
  299POPC   C3B 7317  32.012  14.773   7.973
  299POPC   C4B 7318  31.633  14.924   7.806
  300POPC   NC3 7319  29.663  20.839   9.387
  300POPC   PO4 7320  30.246  21.164   9.504
  300POPC   GL1 7321  30.108  20.891   9.108
  300POPC   GL2 7322  29.774  20.650   8.944
  300POPC   C1A 7323  30.050  20.933   8.676
  300POPC   D2A 7324  29.664  20.841   8.447
  300POPC   C3A 7325  29.808  20.718   8.064
  300POPC   C4A 7326  30.172  20.896   7.847
  300POPC   C1B 7327  29.981  20.356   8.634
  300POPC   C2B 7328  30.230  20.165   8.296
  300POPC   C3B 7329  30.143  20.352   7.915
  300POPC   C4B 7330  29.742  20.267   7.779
  301POPC   NC3 7331  24.098  15.942   9.526
  301POPC   PO4 7332  23.481  15.775   9.374
  301POPC   GL1 7333  23.787  15.963   9.099
  301POPC   GL2 7334  23.908  16.321   9.218
  301POPC   C1A 7335  23.697  15.853   8.654
  301POPC   D2A 7336  23.413  15.868   8.268
  301POPC   C3A 7337  23.605  16.014   7.874
  301POPC   C4A 7338  23.589  16.123   7.413
  301POPC   C1B 7339  23.923  16.321   8.768
  301POPC   C2B 7340  23.937  16.194   8.325
  301POPC   C3B 7341  24.020  16.305   7.898
  301POPC   C4B 7342  24.039  15.980   7.576
  302POPC   NC3 7343  21.202   4.556   9.545
  302POPC   PO4 7344  21.304   3.924   9.281
  302POPC   GL1 7345  21.367   4.108   8.945
  302POPC   GL2 7346  21.513   4.389   9.096
  302POPC   C1A 7347  21.241   4.153   8.525
  302POPC   D2A 7348  21.381   4.281   8.159
  302POPC   C3A 7349  21.409   3.941   7.865
  302POPC   C4A 7350  21.757   3.869   7.598
  302POPC   C1B 7351  21.402   4.575   8.727
  302POPC   C2B 7352  21.467   4.802   8.391
  302POPC   C3B 7353  21.632   4.703   8.027
  302POPC   C4B 7354  21.603   4.386   7.703
  303POPC   NC3 7355   8.260  24.535   9.581
  303POPC   PO4 7356   8.223  23.816   9.532
  303POPC   GL1 7357   8.160  24.179   9.214
  303POPC   GL2 7358   8.382  24.473   9.101
  303POPC   C1A 7359   8.095  24.261   8.752
  303POPC   D2A 7360   8.321  24.266   8.356
  303POPC   C3A 7361   8.101  24.426   7.978
  303POPC   C4A 7362   7.780  24.331   7.635
  303POPC   C1B 7363   8.333  24.735   8.738
  303POPC   C2B 7364   8.529  24.737   8.336
  303POPC   C3B 7365   8.480  24.846   7.907
  303POPC   C4B 7366   8.295  24.649   7.546
  304POPC   NC3 7367  30.321   6.728   9.741
  304POPC   PO4 7368  30.821   6.663   9.289
  304POPC   GL1 7369  30.690   6.495   8.921
  304POPC   GL2 7370  30.370   6.273   8.959
  304POPC   C1A 7371  30.745   6.438   8.505
  304POPC   D2A 7372  30.756   6.740   8.237
  304POPC   C3A 7373  31.081   6.888   7.997
  304POPC   C4A 7374  30.971   6.853   7.542
  304POPC   C1B 7375  30.254   6.518   8.612
  304POPC   C2B 7376  30.328   6.471   8.179
  304POPC   C3B 7377  30.510   6.484   7.779
  304POPC   C4B 7378  30.199   6.375   7.449
  305POPC   NC3 7379   9.973  24.902   9.628
  305POPC   PO4 7380   9.626  25.537   9.677
  305POPC   GL1 7381   9.588  25.250   9.297
  305POPC   GL2 7382   9.906  25.104   9.137
  305POPC   C1A 7383   9.601  25.361   8.832
  305POPC   D2A 7384   9.467  25.562   8.456
  305POPC   C3A 7385   9.553  25.336   8.102
  305POPC   C4A 7386   9.417  25.434   7.706
  305POPC   C1B 7387   9.887  24.933   8.711
  305POPC   C2B 7388   9.991  25.013   8.264
  305POPC   C3B 7389  10.089  25.408   8.076
  305POPC   C4B 7390   9.917  25.426   7.745
  306POPC   NC3 7391  43.578  23.535   9.586
  306POPC   PO4 7392  44.097  23.949   9.474
  306POPC   GL1 7393  43.851  23.768   9.213
  306POPC   GL2 7394  44.036  23.529   9.030
  306POPC   C1A 7395  43.711  23.882   8.823
  306POPC   D2A 7396  43.810  23.690   8.444
  306POPC   C3A 7397  43.727  23.810   8.004
  306POPC   C4A 7398  43.874  23.651   7.570
  306POPC   C1B 7399  44.223  23.848   8.721
  306POPC   C2B 7400  44.135  24.058   8.282
  306POPC   C3B 7401  44.129  24.047   7.794
  306POPC   C4B 7402  44.308  24.183   7.369
  307POPC   NC3 7403   6.974   1.544   9.209
  307POPC   PO4 7404   6.822   1.117   9.758
  307POPC   GL1 7405   6.604   1.207   9.341
  307POPC   GL2 7406   6.443   1.488   9.277
  307POPC   C1A 7407   6.578   1.114   8.862
  307POPC   D2A 7408   6.472   0.876   8.467
  307POPC   C3A 7409   6.586   1.021   8.052
  307POPC   C4A 7410   6.462   0.897   7.635
  307POPC   C1B 7411   6.435   1.617   8.815
  307POPC   C2B 7412   6.507   1.442   8.421
  307POPC   C3B 7413   6.375   1.474   8.024
  307POPC   C4B 7414   6.576   1.413   7.682
  308POPC   NC3 7415  28.404  10.292   9.561
  308POPC   PO4 7416  28.737  10.937   9.485
  308POPC   GL1 7417  28.409  10.689   9.161
  308POPC   GL2 7418  28.109  10.424   9.141
  308POPC   C1A 7419  28.379  10.548   8.699
  308POPC   D2A 7420  28.564  10.437   8.275
  308POPC   C3A 7421  28.551  10.580   7.827
  308POPC   C4A 7422  28.189  10.861   7.717
  308POPC   C1B 7423  28.020  10.153   8.805
  308POPC   C2B 7424  28.174  10.087   8.397
  308POPC   C3B 7425  28.119  10.333   8.042
  308POPC   C4B 7426  28.163  10.171   7.668
  309POPC   NC3 7427  22.014   8.258   9.551
  309POPC   PO4 7428  22.372   7.739   9.259
  309POPC   GL1 7429  22.161   8.030   9.059
  309POPC   GL2 7430  22.399   8.274   9.201
  309POPC   C1A 7431  22.167   7.973   8.613
  309POPC   D2A 7432  22.430   7.987   8.262
  309POPC   C3A 7433  22.264   8.045   7.883
  309POPC   C4A 7434  21.992   8.415   7.790
  309POPC   C1B 7435  22.330   8.450   8.797
  309POPC   C2B 7436  22.185   8.446   8.381
  309POPC   C3B 7437  22.436   8.500   8.035
  309POPC   C4B 7438  22.391   8.686   7.652
  310POPC   NC3 7439  36.370   4.588   9.496
  310POPC   PO4 7440  35.826   4.165   9.500
  310POPC   GL1 7441  35.961   4.447   9.154
  310POPC   GL2 7442  36.248   4.297   9.067
  310POPC   C1A 7443  35.971   4.692   8.724
  310POPC   D2A 7444  35.785   4.626   8.302
  310POPC   C3A 7445  36.028   4.703   7.920
  310POPC   C4A 7446  36.087   4.344   7.639
  310POPC   C1B 7447  36.307   4.298   8.636
  310POPC   C2B 7448  36.231   4.343   8.201
  310POPC   C3B 7449  36.522   4.459   7.863
  310POPC   C4B 7450  36.526   4.276   7.407
  311POPC   NC3 7451  34.927  22.234   9.454
  311POPC   PO4 7452  35.512  21.889   9.359
  311POPC   GL1 7453  35.363  22.229   9.094
  311POPC   GL2 7454  35.591  22.541   9.079
  311POPC   C1A 7455  35.196  22.137   8.678
  311POPC   D2A 7456  34.957  22.158   8.296
  311POPC   C3A 7457  35.077  22.158   7.887
  311POPC   C4A 7458  35.347  21.826   7.714
  311POPC   C1B 7459  35.675  22.370   8.690
  311POPC   C2B 7460  35.436  22.375   8.297
  311POPC   C3B 7461  35.563  22.255   7.917
  311POPC   C4B 7462  35.816  22.023   7.701
  312POPC   NC3 7463   7.919  11.381   9.600
  312POPC   PO4 7464   8.485  10.955   9.515
  312POPC   GL1 7465   8.148  11.052   9.211
  312POPC   GL2 7466   8.370  11.322   9.111
  312POPC   C1A 7467   8.024  11.116   8.755
  312POPC   D2A 7468   8.276  11.248   8.370
  312POPC   C3A 7469   8.309  10.985   7.988
  312POPC   C4A 7470   8.086  11.053   7.556
  312POPC   C1B 7471   8.248  11.583   8.765
  312POPC   C2B 7472   8.119  11.782   8.403
  312POPC   C3B 7473   8.236  11.710   8.010
  312POPC   C4B 7474   8.369  11.438   7.736
  313POPC   NC3 7475  19.711   9.897   9.598
  313POPC   PO4 7476  19.994   9.260   9.716
  313POPC   GL1 7477  19.902   9.487   9.321
  313POPC   GL2 7478  20.047   9.811   9.222
  313POPC   C1A 7479  19.809   9.535   8.866
  313POPC   D2A 7480  19.951   9.695   8.475
  313POPC   C3A 7481  19.723   9.724   8.065
  313POPC   C4A 7482  19.989   9.483   7.819
  313POPC   C1B 7483  20.105  10.055   8.838
  313POPC   C2B 7484  20.254  10.115   8.428
  313POPC   C3B 7485  20.204   9.891   8.060
  313POPC   C4B 7486  20.001  10.004   7.689
  314POPC   NC3 7487   8.976  38.001   9.589
  314POPC   PO4 7488   8.644  37.407   9.454
  314POPC   GL1 7489   8.914  37.648   9.144
  314POPC   GL2 7490   9.175  37.934   9.127
  314POPC   C1A 7491   8.848  37.711   8.694
  314POPC   D2A 7492   8.622  37.571   8.324
  314POPC   C3A 7493   8.734  37.735   7.909
  314POPC   C4A 7494   9.016  37.471   7.666
  314POPC   C1B 7495   9.356  37.616   8.865
  314POPC   C2B 7496   9.394  37.537   8.452
  314POPC   C3B 7497   9.204  37.722   8.107
  314POPC   C4B 7498   9.199  37.935   7.710
  315POPC   NC3 7499  34.686  35.699   9.326
  315POPC   PO4 7500  34.762  35.015   9.439
  315POPC   GL1 7501  34.554  35.198   9.096
  315POPC   GL2 7502  34.842  35.407   8.959
  315POPC   C1A 7503  34.441  35.329   8.682
  315POPC   D2A 7504  34.691  35.505   8.393
  315POPC   C3A 7505  34.378  35.585   8.131
  315POPC   C4A 7506  34.319  35.230   7.886
  315POPC   C1B 7507  34.860  35.069   8.645
  315POPC   C2B 7508  34.832  34.848   8.296
  315POPC   C3B 7509  34.803  35.072   7.920
  315POPC   C4B 7510  34.846  35.243   7.495
  316POPC   NC3 7511  35.663  15.852   9.568
  316POPC   PO4 7512  35.030  16.015   9.515
  316POPC   GL1 7513  35.123  15.878   9.118
  316POPC   GL2 7514  35.492  15.857   9.085
  316POPC   C1A 7515  35.079  15.963   8.694
  316POPC   D2A 7516  35.214  15.772   8.308
  316POPC   C3A 7517  35.072  15.855   7.893
  316POPC   C4A 7518  35.283  15.997   7.517
  316POPC   C1B 7519  35.664  15.880   8.677
  316POPC   C2B 7520  35.690  15.892   8.227
  316POPC   C3B 7521  35.680  15.873   7.794
  316POPC   C4B 7522  35.675  15.710   7.367
  317POPC   NC3 7523  30.222  19.494   9.620
  317POPC   PO4 7524  29.793  18.865   9.547
  317POPC   GL1 7525  29.969  19.079   9.194
  317POPC   GL2 7526  30.331  19.149   9.234
  317POPC   C1A 7527  29.747  19.149   8.792
  317POPC   D2A 7528  29.593  19.373   8.418
  317POPC   C3A 7529  29.751  19.099   8.122
  317POPC   C4A 7530  29.733  19.028   7.704
  317POPC   C1B 7531  30.308  18.928   8.819
  317POPC   C2B 7532  30.302  18.776   8.372
  317POPC   C3B 7533  30.224  18.905   7.949
  317POPC   C4B 7534  30.116  19.342   7.840
  318POPC   NC3 7535  27.427  16.234   9.380
  318POPC   PO4 7536  27.596  16.902   9.385
  318POPC   GL1 7537  27.575  16.630   9.081
  318POPC   GL2 7538  27.871  16.436   9.167
  318POPC   C1A 7539  27.424  16.782   8.722
  318POPC   D2A 7540  27.508  16.907   8.339
  318POPC   C3A 7541  27.315  16.758   7.980
  318POPC   C4A 7542  27.087  16.459   7.729
  318POPC   C1B 7543  27.953  16.320   8.740
  318POPC   C2B 7544  28.012  16.268   8.293
  318POPC   C3B 7545  27.817  16.554   8.013
  318POPC   C4B 7546  27.650  16.534   7.663
  319POPC   NC3 7547  21.984   9.149   9.527
  319POPC   PO4 7548  22.325   8.616   9.631
  319POPC   GL1 7549  22.159   8.725   9.242
  319POPC   GL2 7550  21.908   8.515   9.091
  319POPC   C1A 7551  22.358   8.956   8.899
  319POPC   D2A 7552  22.439   9.310   8.594
  319POPC   C3A 7553  22.244   9.296   8.171
  319POPC   C4A 7554  22.254   9.190   7.723
  319POPC   C1B 7555  21.861   8.940   8.889
  319POPC   C2B 7556  22.029   8.953   8.474
  319POPC   C3B 7557  22.073   8.845   8.032
  319POPC   C4B 7558  21.903   8.860   7.536
  320POPC   NC3 7559  41.051  41.343   9.512
  320POPC   PO4 7560  40.454  41.628   9.359
  320POPC   GL1 7561  40.689  41.360   9.141
  320POPC   GL2 7562  40.971  41.597   9.069
  320POPC   C1A 7563  40.618  41.300   8.735
  320POPC   D2A 7564  40.672  41.561   8.445
  320POPC   C3A 7565  40.630  41.426   8.067
  320POPC   C4A 7566  40.653  41.849   7.881
  320POPC   C1B 7567  41.121  41.254   8.804
  320POPC   C2B 7568  41.045  41.231   8.341
  320POPC   C3B 7569  41.092  41.517   7.926
  320POPC   C4B 7570  41.115  41.407   7.460
  321POPC   NC3 7571  43.641  38.321   9.571
  321POPC   PO4 7572  44.183  38.756   9.529
  321POPC   GL1 7573  44.060  38.685   9.105
  321POPC   GL2 7574  43.972  38.348   9.154
  321POPC   C1A 7575  43.808  38.546   8.709
  321POPC   D2A 7576  43.683  38.295   8.327
  321POPC   C3A 7577  43.741  38.557   7.953
  321POPC   C4A 7578  43.973  38.954   7.977
  321POPC   C1B 7579  44.263  38.333   8.793
  321POPC   C2B 7580  44.210  38.204   8.366
  321POPC   C3B 7581  44.073  38.201   7.946
  321POPC   C4B 7582  43.854  38.252   7.509
  322POPC   NC3 7583   5.001  28.685   9.872
  322POPC   PO4 7584   4.994  29.329   9.689
  322POPC   GL1 7585   5.003  29.084   9.274
  322POPC   GL2 7586   4.716  28.938   9.150
  322POPC   C1A 7587   5.065  29.115   8.772
  322POPC   D2A 7588   5.076  29.443   8.401
  322POPC   C3A 7589   5.233  29.409   7.933
  322POPC   C4A 7590   5.261  29.291   7.466
  322POPC   C1B 7591   4.642  29.342   8.925
  322POPC   C2B 7592   4.604  29.237   8.491
  322POPC   C3B 7593   4.819  29.084   8.121
  322POPC   C4B 7594   4.841  29.127   7.676
  323POPC   NC3 7595  25.113  38.127   9.317
  323POPC   PO4 7596  25.197  37.579   9.573
  323POPC   GL1 7597  25.307  37.661   9.200
  323POPC   GL2 7598  24.941  37.611   9.134
  323POPC   C1A 7599  25.357  37.582   8.786
  323POPC   D2A 7600  25.288  37.847   8.457
  323POPC   C3A 7601  25.508  37.721   8.103
  323POPC   C4A 7602  25.316  37.787   7.730
  323POPC   C1B 7603  24.912  37.353   8.792
  323POPC   C2B 7604  25.072  37.358   8.396
  323POPC   C3B 7605  24.979  37.642   8.100
  323POPC   C4B 7606  24.799  37.666   7.752
  324POPC   NC3 7607   5.909  23.523   9.389
  324POPC   PO4 7608   5.332  23.889   9.496
  324POPC   GL1 7609   5.643  23.866   9.071
  324POPC   GL2 7610   6.005  23.841   8.986
  324POPC   C1A 7611   5.773  23.635   8.622
  324POPC   D2A 7612   6.113  23.872   8.426
  324POPC   C3A 7613   6.102  23.854   7.979
  324POPC   C4A 7614   5.770  23.617   7.778
  324POPC   C1B 7615   6.249  23.483   8.782
  324POPC   C2B 7616   6.399  23.482   8.341
  324POPC   C3B 7617   6.181  23.346   7.957
  324POPC   C4B 7618   6.135  23.382   7.497
  325POPC   NC3 7619  12.606  32.889   9.585
  325POPC   PO4 7620  12.836  33.494   9.589
  325POPC   GL1 7621  12.626  33.264   9.232
  325POPC   GL2 7622  12.799  32.923   9.125
  325POPC   C1A 7623  12.676  33.271   8.788
  325POPC   D2A 7624  12.730  33.076   8.409
  325POPC   C3A 7625  12.667  33.433   8.162
  325POPC   C4A 7626  12.774  33.530   7.756
  325POPC   C1B 7627  12.615  32.686   8.787
  325POPC   C2B 7628  12.762  32.499   8.411
  325POPC   C3B 7629  12.941  32.717   8.104
  325POPC   C4B 7630  12.673  33.019   7.885
  326POPC   NC3 7631  38.210  26.408   9.423
  326POPC   PO4 7632  38.643  25.910   9.619
  326POPC   GL1 7633  38.405  25.989   9.229
  326POPC   GL2 7634  38.062  25.857   9.169
  326POPC   C1A 7635  38.428  26.200   8.832
  326POPC   D2A 7636  38.528  26.003   8.462
  326POPC   C3A 7637  38.513  26.190   8.086
  326POPC   C4A 7638  38.291  26.180   7.728
  326POPC   C1B 7639  38.292  25.693   8.810
  326POPC   C2B 7640  38.235  25.574   8.369
  326POPC   C3B 7641  38.216  25.689   7.918
  326POPC   C4B 7642  38.029  25.698   7.489
  327POPC   NC3 7643  20.227  24.131   9.665
  327POPC   PO4 7644  20.214  24.851   9.509
  327POPC   GL1 7645  20.385  24.556   9.193
  327POPC   GL2 7646  20.754  24.439   9.172
  327POPC   C1A 7647  20.422  24.546   8.739
  327POPC   D2A 7648  20.258  24.658   8.345
  327POPC   C3A 7649  20.449  24.535   7.976
  327POPC   C4A 7650  20.388  24.168   7.818
  327POPC   C1B 7651  20.730  24.120   8.819
  327POPC   C2B 7652  20.591  24.199   8.378
  327POPC   C3B 7653  20.855  24.229   8.028
  327POPC   C4B 7654  20.861  24.111   7.616
  328POPC   NC3 7655  43.310  22.623   9.558
  328POPC   PO4 7656  43.428  23.228   9.290
  328POPC   GL1 7657  43.225  22.923   9.095
  328POPC   GL2 7658  43.043  22.634   9.128
  328POPC   C1A 7659  43.051  22.960   8.712
  328POPC   D2A 7660  43.264  23.001   8.336
  328POPC   C3A 7661  43.048  23.134   8.011
  328POPC   C4A 7662  42.917  22.784   7.790
  328POPC   C1B 7663  43.327  22.528   8.772
  328POPC   C2B 7664  43.185  22.476   8.335
  328POPC   C3B 7665  43.348  22.542   7.914
  328POPC   C4B 7666  43.255  22.507   7.405
  329POPC   NC3 7667  41.325  14.257   9.749
  329POPC   PO4 7668  42.009  14.027   9.591
  329POPC   GL1 7669  41.753  14.145   9.211
  329POPC   GL2 7670  41.599  14.493   9.204
  329POPC   C1A 7671  41.658  14.261   8.756
  329POPC   D2A 7672  41.788  14.242   8.325
  329POPC   C3A 7673  41.610  14.308   7.940
  329POPC   C4A 7674  41.787  13.999   7.683
  329POPC   C1B 7675  41.478  14.725   8.800
  329POPC   C2B 7676  41.407  14.597   8.369
  329POPC   C3B 7677  41.188  14.219   8.230
  329POPC   C4B 7678  41.116  14.068   7.818
  330POPC   NC3 7679  11.270  32.072   9.613
  330POPC   PO4 7680  11.563  32.703   9.500
  330POPC   GL1 7681  11.258  32.439   9.256
  330POPC   GL2 7682  11.382  32.079   9.127
  330POPC   C1A 7683  11.143  32.469   8.844
  330POPC   D2A 7684  11.409  32.505   8.490
  330POPC   C3A 7685  11.251  32.597   8.121
  330POPC   C4A 7686  11.392  32.630   7.735
  330POPC   C1B 7687  11.372  32.037   8.699
  330POPC   C2B 7688  11.253  32.045   8.299
  330POPC   C3B 7689  11.361  32.124   7.880
  330POPC   C4B 7690  11.355  31.824   7.549
  331POPC   NC3 7691  26.592   9.537   9.476
  331POPC   PO4 7692  26.926   8.861   9.510
  331POPC   GL1 7693  26.722   9.056   9.188
  331POPC   GL2 7694  26.935   9.355   9.146
  331POPC   C1A 7695  26.705   8.752   8.847
  331POPC   D2A 7696  27.003   8.698   8.518
  331POPC   C3A 7697  26.904   8.961   8.165
  331POPC   C4A 7698  26.776   8.801   7.768
  331POPC   C1B 7699  27.017   9.175   8.737
  331POPC   C2B 7700  27.329   9.235   8.401
  331POPC   C3B 7701  27.334   9.186   7.965
  331POPC   C4B 7702  27.006   9.234   7.703
  332POPC   NC3 7703   8.723  44.864   9.444
  332POPC   PO4 7704   9.351   0.135   9.424
  332POPC   GL1 7705   9.084  44.921   9.051
  332POPC   GL2 7706   8.711  44.852   8.946
  332POPC   C1A 7707   9.075   0.032   8.644
  332POPC   D2A 7708   8.931  44.867   8.289
  332POPC   C3A 7709   9.186  44.935   7.974
  332POPC   C4A 7710   9.323  44.762   7.618
  332POPC   C1B 7711   8.916  44.521   8.669
  332POPC   C2B 7712   8.800  44.383   8.275
  332POPC   C3B 7713   8.912  44.495   7.875
  332POPC   C4B 7714   8.626  44.366   7.544
  333POPC   NC3 7715   1.976  34.953   9.316
  333POPC   PO4 7716   1.838  35.605   9.393
  333POPC   GL1 7717   1.996  35.410   9.064
  333POPC   GL2 7718   2.318  35.239   9.081
  333POPC   C1A 7719   2.017  35.354   8.661
  333POPC   D2A 7720   2.113  35.116   8.317
  333POPC   C3A 7721   1.887  35.329   8.003
  333POPC   C4A 7722   1.546  35.656   8.014
  333POPC   C1B 7723   2.520  35.487   8.782
  333POPC   C2B 7724   2.364  35.563   8.371
  333POPC   C3B 7725   2.385  35.425   7.989
  333POPC   C4B 7726   2.178  35.498   7.629
  334POPC   NC3 7727  13.504  37.801   9.593
  334POPC   PO4 7728  14.002  37.387   9.647
  334POPC   GL1 7729  13.821  37.521   9.237
  334POPC   GL2 7730  13.842  37.870   9.157
  334POPC   C1A 7731  13.629  37.515   8.804
  334POPC   D2A 7732  13.813  37.595   8.385
  334POPC   C3A 7733  13.599  37.484   7.993
  334POPC   C4A 7734  13.520  37.363   7.577
  334POPC   C1B 7735  13.699  38.006   8.750
  334POPC   C2B 7736  13.477  37.996   8.365
  334POPC   C3B 7737  13.667  37.984   7.998
  334POPC   C4B 7738  13.728  37.824   7.617
  335POPC   NC3 7739  36.745  38.958   9.324
  335POPC   PO4 7740  37.173  39.429   9.562
  335POPC   GL1 7741  37.048  39.332   9.147
  335POPC   GL2 7742  37.227  39.031   9.099
  335POPC   C1A 7743  36.748  39.293   8.773
  335POPC   D2A 7744  36.583  39.471   8.396
  335POPC   C3A 7745  36.686  39.241   8.049
  335POPC   C4A 7746  36.980  39.341   7.752
  335POPC   C1B 7747  37.009  38.831   8.753
  335POPC   C2B 7748  37.002  38.903   8.344
  335POPC   C3B 7749  37.245  39.027   8.064
  335POPC   C4B 7750  37.252  38.900   7.683
  336POPC   NC3 7751  11.549  30.557   9.556
  336POPC   PO4 7752  10.992  30.899   9.526
  336POPC   GL1 7753  11.038  30.724   9.144
  336POPC   GL2 7754  11.401  30.772   9.117
  336POPC   C1A 7755  11.012  30.786   8.694
  336POPC   D2A 7756  11.317  30.686   8.343
  336POPC   C3A 7757  11.252  30.786   7.880
  336POPC   C4A 7758  11.487  30.673   7.474
  336POPC   C1B 7759  11.299  30.380   8.868
  336POPC   C2B 7760  11.067  30.249   8.496
  336POPC   C3B 7761  11.114  30.294   8.033
  336POPC   C4B 7762  11.429  30.213   7.690
  337POPC   NC3 7763   6.035  38.121   9.531
  337POPC   PO4 7764   5.893  38.765   9.555
  337POPC   GL1 7765   5.754  38.539   9.180
  337POPC   GL2 7766   5.912  38.220   9.045
  337POPC   C1A 7767   5.859  38.683   8.774
  337POPC   D2A 7768   5.667  38.707   8.395
  337POPC   C3A 7769   5.956  38.621   8.075
  337POPC   C4A 7770   5.959  38.681   7.649
  337POPC   C1B 7771   5.607  38.261   8.705
  337POPC   C2B 7772   5.560  38.207   8.255
  337POPC   C3B 7773   5.764  38.204   7.874
  337POPC   C4B 7774   6.175  38.230   7.700
  338POPC   NC3 7775  16.992  20.267   9.521
  338POPC   PO4 7776  16.817  19.609   9.469
  338POPC   GL1 7777  16.835  19.889   9.143
  338POPC   GL2 7778  17.109  20.020   9.101
  338POPC   C1A 7779  16.701  19.914   8.737
  338POPC   D2A 7780  16.601  19.614   8.429
  338POPC   C3A 7781  16.587  19.820   8.027
  338POPC   C4A 7782  16.587  19.575   7.667
  338POPC   C1B 7783  17.224  19.923   8.710
  338POPC   C2B 7784  17.060  19.817   8.354
  338POPC   C3B 7785  17.110  19.942   7.951
  338POPC   C4B 7786  16.941  20.036   7.594
  339POPC   NC3 7787  14.609  21.013   9.474
  339POPC   PO4 7788  14.268  21.635   9.483
  339POPC   GL1 7789  14.282  21.339   9.155
  339POPC   GL2 7790  14.620  21.294   9.036
  339POPC   C1A 7791  14.243  21.340   8.685
  339POPC   D2A 7792  14.450  21.453   8.286
  339POPC   C3A 7793  14.397  21.078   8.091
  339POPC   C4A 7794  13.989  21.068   7.925
  339POPC   C1B 7795  14.653  21.644   8.695
  339POPC   C2B 7796  14.675  21.948   8.383
  339POPC   C3B 7797  14.692  21.808   7.970
  339POPC   C4B 7798  14.470  21.464   7.761
  340POPC   NC3 7799   7.111   5.983   9.337
  340POPC   PO4 7800   7.691   5.805   9.705
  340POPC   GL1 7801   7.610   5.837   9.247
  340POPC   GL2 7802   7.661   5.555   9.071
  340POPC   C1A 7803   7.518   5.927   8.770
  340POPC   D2A 7804   7.587   5.881   8.307
  340POPC   C3A 7805   7.279   6.078   8.075
  340POPC   C4A 7806   7.077   6.052   7.686
  340POPC   C1B 7807   7.333   5.456   8.706
  340POPC   C2B 7808   7.165   5.560   8.319
  340POPC   C3B 7809   7.311   5.599   7.918
  340POPC   C4B 7810   7.609   5.834   7.783
  341POPC   NC3 7811   5.026  34.939   9.557
  341POPC   PO4 7812   4.798  34.382   9.606
  341POPC   GL1 7813   4.860  34.563   9.216
  341POPC   GL2 7814   4.556  34.772   9.271
  341POPC   C1A 7815   4.950  34.494   8.756
  341POPC   D2A 7816   5.309  34.424   8.449
  341POPC   C3A 7817   5.309  34.622   8.053
  341POPC   C4A 7818   5.036  34.517   7.734
  341POPC   C1B 7819   4.763  34.983   8.944
  341POPC   C2B 7820   4.742  34.922   8.511
  341POPC   C3B 7821   4.793  34.777   8.116
  341POPC   C4B 7822   4.668  34.922   7.720
  342POPC   NC3 7823  36.388  23.988   9.354
  342POPC   PO4 7824  35.756  23.878   9.401
  342POPC   GL1 7825  35.967  23.553   9.143
  342POPC   GL2 7826  36.083  23.825   8.969
  342POPC   C1A 7827  36.012  23.403   8.706
  342POPC   D2A 7828  36.076  23.759   8.411
  342POPC   C3A 7829  35.862  23.709   8.036
  342POPC   C4A 7830  35.902  23.349   7.742
  342POPC   C1B 7831  36.254  24.133   8.722
  342POPC   C2B 7832  36.244  24.264   8.319
  342POPC   C3B 7833  36.413  24.037   7.993
  342POPC   C4B 7834  36.342  23.643   7.832
  343POPC   NC3 7835   6.891  35.068   9.353
  343POPC   PO4 7836   6.839  35.769   9.518
  343POPC   GL1 7837   6.776  35.547   9.126
  343POPC   GL2 7838   6.457  35.316   9.146
  343POPC   C1A 7839   6.874  35.672   8.695
  343POPC   D2A 7840   6.704  35.720   8.289
  343POPC   C3A 7841   6.992  35.629   7.994
  343POPC   C4A 7842   6.961  35.509   7.567
  343POPC   C1B 7843   6.621  35.218   8.737
  343POPC   C2B 7844   6.845  35.236   8.328
  343POPC   C3B 7845   6.695  35.221   7.910
  343POPC   C4B 7846   6.281  35.282   7.765
  344POPC   NC3 7847   6.225   9.981   9.228
  344POPC   PO4 7848   5.980  10.531   9.507
  344POPC   GL1 7849   5.772  10.537   9.135
  344POPC   GL2 7850   6.084  10.417   9.021
  344POPC   C1A 7851   5.577  10.544   8.736
  344POPC   D2A 7852   5.578  10.848   8.356
  344POPC   C3A 7853   5.879  10.788   7.992
  344POPC   C4A 7854   5.901  10.691   7.542
  344POPC   C1B 7855   5.991  10.211   8.662
  344POPC   C2B 7856   5.848  10.401   8.337
  344POPC   C3B 7857   5.688  10.338   7.965
  344POPC   C4B 7858   5.917  10.191   7.619
  345POPC   NC3 7859  16.178  34.310   9.473
  345POPC   PO4 7860  15.886  35.053   9.482
  345POPC   GL1 7861  15.952  34.895   9.088
  345POPC   GL2 7862  16.206  34.688   9.147
  345POPC   C1A 7863  15.906  34.536   8.763
  345POPC   D2A 7864  15.742  34.239   8.440
  345POPC   C3A 7865  15.843  34.469   8.071
  345POPC   C4A 7866  16.027  34.392   7.679
  345POPC   C1B 7867  16.333  34.822   8.748
  345POPC   C2B 7868  16.200  34.725   8.327
  345POPC   C3B 7869  16.184  34.943   7.902
  345POPC   C4B 7870  16.246  34.928   7.435
  346POPC   NC3 7871  13.959  38.684   9.480
  346POPC   PO4 7872  13.405  38.261   9.527
  346POPC   GL1 7873  13.536  38.298   9.135
  346POPC   GL2 7874  13.883  38.377   9.078
  346POPC   C1A 7875  13.470  38.452   8.722
  346POPC   D2A 7876  13.672  38.478   8.344
  346POPC   C3A 7877  13.385  38.389   8.008
  346POPC   C4A 7878  13.633  38.335   7.611
  346POPC   C1B 7879  14.048  38.638   8.749
  346POPC   C2B 7880  14.240  38.559   8.329
  346POPC   C3B 7881  14.017  38.448   7.934
  346POPC   C4B 7882  13.964  38.753   7.550
  347POPC   NC3 7883  23.944  22.818   9.820
  347POPC   PO4 7884  23.433  23.122   9.581
  347POPC   GL1 7885  23.680  22.891   9.254
  347POPC   GL2 7886  24.046  22.790   9.260
  347POPC   C1A 7887  23.524  22.864   8.834
  347POPC   D2A 7888  23.321  23.041   8.480
  347POPC   C3A 7889  23.313  22.861   8.096
  347POPC   C4A 7890  23.597  22.898   7.836
  347POPC   C1B 7891  24.038  22.865   8.804
  347POPC   C2B 7892  23.832  22.849   8.381
  347POPC   C3B 7893  24.078  22.934   7.995
  347POPC   C4B 7894  24.228  22.593   7.749
  348POPC   NC3 7895  27.083  30.237   9.549
  348POPC   PO4 7896  26.615  30.792   9.504
  348POPC   GL1 7897  26.745  30.773   9.075
  348POPC   GL2 7898  26.900  30.443   9.096
  348POPC   C1A 7899  26.609  30.583   8.678
  348POPC   D2A 7900  26.517  30.781   8.328
  348POPC   C3A 7901  26.467  30.499   8.036
  348POPC   C4A 7902  26.670  30.400   7.722
  348POPC   C1B 7903  27.101  30.473   8.672
  348POPC   C2B 7904  26.966  30.523   8.225
  348POPC   C3B 7905  26.835  30.841   7.923
  348POPC   C4B 7906  26.877  30.939   7.496
  349POPC   NC3 7907  44.648   2.517   9.657
  349POPC   PO4 7908  44.501   1.875   9.640
  349POPC   GL1 7909  44.415   1.966   9.194
  349POPC   GL2 7910  44.718   2.178   9.197
  349POPC   C1A 7911  44.425   2.056   8.720
  349POPC   D2A 7912  44.484   2.340   8.337
  349POPC   C3A 7913  44.612   2.180   7.954
  349POPC   C4A 7914  44.624   1.768   8.000
  349POPC   C1B 7915  44.908   2.265   8.786
  349POPC   C2B 7916  44.946   2.095   8.366
  349POPC   C3B 7917   0.095   2.367   8.047
  349POPC   C4B 7918  44.955   2.481   7.694
  350POPC   NC3 7919   4.895  10.677   9.444
  350POPC   PO4 7920   5.114  10.037   9.580
  350POPC   GL1 7921   5.212  10.309   9.179
  350POPC   GL2 7922   5.231  10.683   9.066
  350POPC   C1A 7923   5.086  10.251   8.742
  350POPC   D2A 7924   5.322  10.337   8.334
  350POPC   C3A 7925   5.133  10.307   7.924
  350POPC   C4A 7926   4.773  10.536   7.770
  350POPC   C1B 7927   5.114  10.729   8.605
  350POPC   C2B 7928   5.074  10.765   8.163
  350POPC   C3B 7929   5.408  10.758   7.841
  350POPC   C4B 7930   5.417  10.853   7.364
  351POPC   NC3 7931  29.543  43.257   9.498
  351POPC   PO4 7932  30.211  43.101   9.583
  351POPC   GL1 7933  30.005  43.181   9.186
  351POPC   GL2 7934  30.270  43.023   8.996
  351POPC   C1A 7935  29.706  42.966   8.882
  351POPC   D2A 7936  29.649  42.768   8.464
  351POPC   C3A 7937  29.910  42.954   8.126
  351POPC   C4A 7938  29.837  43.323   7.875
  351POPC   C1B 7939  30.087  43.233   8.656
  351POPC   C2B 7940  30.153  43.414   8.274
  351POPC   C3B 7941  30.276  43.634   7.910
  351POPC   C4B 7942  30.266  43.313   7.599
  352POPC   NC3 7943  38.344  16.070   9.848
  352POPC   PO4 7944  38.855  15.768   9.507
  352POPC   GL1 7945  38.477  15.791   9.239
  352POPC   GL2 7946  38.335  16.134   9.137
  352POPC   C1A 7947  38.507  15.759   8.783
  352POPC   D2A 7948  38.679  15.920   8.378
  352POPC   C3A 7949  38.368  16.010   8.089
  352POPC   C4A 7950  38.421  15.878   7.675
  352POPC   C1B 7951  38.609  16.264   8.762
  352POPC   C2B 7952  38.870  16.398   8.416
  352POPC   C3B 7953  38.719  16.372   8.002
  352POPC   C4B 7954  38.329  16.386   7.729
  353POPC   NC3 7955  23.317  34.226   9.289
  353POPC   PO4 7956  22.842  34.652   9.642
  353POPC   GL1 7957  22.773  34.666   9.220
  353POPC   GL2 7958  22.799  34.336   9.116
  353POPC   C1A 7959  22.722  34.750   8.797
  353POPC   D2A 7960  22.745  34.780   8.375
  353POPC   C3A 7961  23.086  34.660   8.132
  353POPC   C4A 7962  22.859  34.604   7.767
  353POPC   C1B 7963  23.060  34.370   8.713
  353POPC   C2B 7964  23.219  34.200   8.333
  353POPC   C3B 7965  23.077  34.185   7.911
  353POPC   C4B 7966  22.974  34.172   7.442
  354POPC   NC3 7967  39.596  22.422   9.332
  354POPC   PO4 7968  40.057  22.009   9.665
  354POPC   GL1 7969  40.243  22.172   9.229
  354POPC   GL2 7970  39.965  22.288   9.028
  354POPC   C1A 7971  40.301  22.113   8.722
  354POPC   D2A 7972  39.987  21.944   8.403
  354POPC   C3A 7973  39.950  22.234   8.069
  354POPC   C4A 7974  40.243  22.247   7.727
  354POPC   C1B 7975  39.996  22.571   8.682
  354POPC   C2B 7976  39.775  22.719   8.332
  354POPC   C3B 7977  39.643  22.632   7.924
  354POPC   C4B 7978  39.825  22.503   7.541
  355POPC   NC3 7979   6.318  39.080   9.535
  355POPC   PO4 7980   6.903  39.489   9.714
  355POPC   GL1 7981   6.742  39.371   9.251
  355POPC   GL2 7982   6.841  39.574   8.946
  355POPC   C1A 7983   6.449  39.233   8.889
  355POPC   D2A 7984   6.536  39.006   8.482
  355POPC   C3A 7985   6.557  39.182   8.049
  355POPC   C4A 7986   6.165  39.128   7.822
  355POPC   C1B 7987   6.949  39.156   8.780
  355POPC   C2B 7988   7.042  39.103   8.338
  355POPC   C3B 7989   7.062  39.436   8.041
  355POPC   C4B 7990   6.822  39.482   7.670
  356POPC   NC3 7991  20.768  43.347   9.481
  356POPC   PO4 7992  20.287  42.954   9.782
  356POPC   GL1 7993  20.535  42.916   9.324
  356POPC   GL2 7994  20.867  42.733   9.397
  356POPC   C1A 7995  20.467  43.001   8.815
  356POPC   D2A 7996  20.553  43.193   8.378
  356POPC   C3A 7997  20.297  43.013   7.965
  356POPC   C4A 7998  20.329  43.009   7.525
  356POPC   C1B 7999  20.765  42.635   8.971
  356POPC   C2B 8000  20.701  42.608   8.524
  356POPC   C3B 8001  20.714  42.789   8.123
  356POPC   C4B 8002  20.771  43.170   7.858
  357POPC   NC3 8003  10.687  13.284   9.634
  357POPC   PO4 8004  10.254  13.825   9.700
  357POPC   GL1 8005  10.386  13.702   9.257
  357POPC   GL2 8006  10.697  13.498   9.173
  357POPC   C1A 8007  10.412  13.741   8.804
  357POPC   D2A 8008  10.371  13.628   8.375
  357POPC   C3A 8009  10.572  13.890   8.077
  357POPC   C4A 8010  10.571  13.681   7.705
  357POPC   C1B 8011  10.868  13.438   8.760
  357POPC   C2B 8012  10.922  13.613   8.349
  357POPC   C3B 8013  10.910  13.407   7.937
  357POPC   C4B 8014  10.911  13.432   7.433
  358POPC   NC3 8015  33.745  17.551   9.501
  358POPC   PO4 8016  34.311  17.604   9.276
  358POPC   GL1 8017  34.082  17.283   9.036
  358POPC   GL2 8018  33.754  17.412   9.020
  358POPC   C1A 8019  33.819  17.039   8.697
  358POPC   D2A 8020  33.580  17.285   8.394
  358POPC   C3A 8021  33.793  17.458   8.051
  358POPC   C4A 8022  33.962  17.253   7.728
  358POPC   C1B 8023  33.628  17.719   8.694
  358POPC   C2B 8024  33.541  17.855   8.253
  358POPC   C3B 8025  33.581  17.870   7.790
  358POPC   C4B 8026  33.730  18.121   7.414
  359POPC   NC3 8027  44.710  11.529   9.459
  359POPC   PO4 8028  44.543  10.868   9.444
  359POPC   GL1 8029  44.763  11.043   9.066
  359POPC   GL2 8030  44.886  11.396   9.015
  359POPC   C1A 8031  44.618  11.129   8.677
  359POPC   D2A 8032  44.612  10.919   8.311
  359POPC   C3A 8033  44.382  11.110   7.997
  359POPC   C4A 8034  44.578  11.020   7.620
  359POPC   C1B 8035   0.138  11.238   8.741
  359POPC   C2B 8036  44.997  11.331   8.364
  359POPC   C3B 8037  44.922  11.176   7.980
  359POPC   C4B 8038   0.124  11.490   7.798
  360POPC   NC3 8039  30.085   0.778   9.482
  360POPC   PO4 8040  29.449   0.593   9.391
  360POPC   GL1 8041  29.800   0.505   9.146
  360POPC   GL2 8042  30.010   0.231   9.291
  360POPC   C1A 8043  29.905   0.701   8.776
  360POPC   D2A 8044  29.791   0.570   8.379
  360POPC   C3A 8045  29.712   0.798   8.017
  360POPC   C4A 8046  29.579   0.731   7.623
  360POPC   C1B 8047  30.226   0.314   8.892
  360POPC   C2B 8048  30.054   0.152   8.537
  360POPC   C3B 8049  30.008   0.145   8.109
  360POPC   C4B 8050  29.947   0.372   7.726
  361POPC   NC3 8051  42.516  40.372   9.416
  361POPC   PO4 8052  42.114  40.948   9.545
  361POPC   GL1 8053  42.213  40.735   9.155
  361POPC   GL2 8054  42.501  40.942   9.022
  361POPC   C1A 8055  42.274  40.587   8.720
  361POPC   D2A 8056  42.389  40.793   8.331
  361POPC   C3A 8057  42.224  40.812   7.910
  361POPC   C4A 8058  42.031  40.572   7.547
  361POPC   C1B 8059  42.737  41.083   8.638
  361POPC   C2B 8060  42.892  40.851   8.263
  361POPC   C3B 8061  42.740  40.871   7.827
  361POPC   C4B 8062  42.503  40.785   7.449
  362POPC   NC3 8063  33.520  26.983   9.495
  362POPC   PO4 8064  33.933  26.521   9.640
  362POPC   GL1 8065  33.983  26.823   9.293
  362POPC   GL2 8066  34.058  26.582   9.057
  362POPC   C1A 8067  33.806  27.007   8.891
  362POPC   D2A 8068  33.622  26.995   8.465
  362POPC   C3A 8069  33.887  26.797   8.180
  362POPC   C4A 8070  33.991  26.971   7.796
  362POPC   C1B 8071  33.692  26.514   8.757
  362POPC   C2B 8072  33.464  26.498   8.367
  362POPC   C3B 8073  33.555  26.517   7.927
  362POPC   C4B 8074  33.947  26.479   7.727
  363POPC   NC3 8075  36.710  31.608   9.662
  363POPC   PO4 8076  37.020  31.044   9.502
  363POPC   GL1 8077  36.773  31.318   9.212
  363POPC   GL2 8078  36.756  31.707   9.178
  363POPC   C1A 8079  36.945  31.436   8.797
  363POPC   D2A 8080  37.137  31.278   8.427
  363POPC   C3A 8081  36.996  31.384   8.034
  363POPC   C4A 8082  36.823  31.545   7.672
  363POPC   C1B 8083  36.575  31.815   8.788
  363POPC   C2B 8084  36.747  31.706   8.389
  363POPC   C3B 8085  36.676  31.916   7.998
  363POPC   C4B 8086  36.502  31.941   7.626
  364POPC   NC3 8087  29.270  12.290   9.970
  364POPC   PO4 8088  29.262  12.925   9.637
  364POPC   GL1 8089  29.256  12.828   9.182
  364POPC   GL2 8090  29.015  12.565   9.064
  364POPC   C1A 8091  29.245  12.938   8.739
  364POPC   D2A 8092  29.095  12.770   8.338
  364POPC   C3A 8093  29.020  13.046   8.012
  364POPC   C4A 8094  29.418  12.971   7.932
  364POPC   C1B 8095  29.261  12.416   8.694
  364POPC   C2B 8096  29.348  12.317   8.242
  364POPC   C3B 8097  29.178  12.543   7.873
  364POPC   C4B 8098  28.918  12.732   7.551
  365POPC   NC3 8099  27.124   2.198   9.271
  365POPC   PO4 8100  27.686   1.928   9.589
  365POPC   GL1 8101  27.575   2.006   9.158
  365POPC   GL2 8102  27.375   1.751   9.146
  365POPC   C1A 8103  27.453   2.118   8.720
  365POPC   D2A 8104  27.427   2.196   8.272
  365POPC   C3A 8105  27.842   2.179   8.040
  365POPC   C4A 8106  27.718   2.093   7.580
  365POPC   C1B 8107  27.683   1.634   8.810
  365POPC   C2B 8108  27.717   1.805   8.403
  365POPC   C3B 8109  27.548   1.777   7.981
  365POPC   C4B 8110  27.719   1.547   7.678
  366POPC   NC3 8111   5.425  24.367   9.474
  366POPC   PO4 8112   5.995  24.644   9.409
  366POPC   GL1 8113   5.934  24.341   9.084
  366POPC   GL2 8114   5.589  24.379   8.987
  366POPC   C1A 8115   6.269  24.221   8.790
  366POPC   D2A 8116   6.433  24.258   8.391
  366POPC   C3A 8117   6.097  24.339   8.153
  366POPC   C4A 8118   6.077  24.546   7.788
  366POPC   C1B 8119   5.727  24.146   8.639
  366POPC   C2B 8120   5.666  23.998   8.221
  366POPC   C3B 8121   5.709  24.201   7.836
  366POPC   C4B 8122   5.589  24.605   7.651
  367POPC   NC3 8123  11.630  21.260   9.448
  367POPC   PO4 8124  10.979  21.364   9.616
  367POPC   GL1 8125  11.197  21.559   9.260
  367POPC   GL2 8126  11.233  21.234   9.124
  367POPC   C1A 8127  11.345  21.695   8.833
  367POPC   D2A 8128  11.468  21.561   8.398
  367POPC   C3A 8129  11.224  21.757   8.066
  367POPC   C4A 8130  11.200  21.566   7.683
  367POPC   C1B 8131  11.429  21.190   8.762
  367POPC   C2B 8132  11.467  21.007   8.387
  367POPC   C3B 8133  11.516  21.180   8.009
  367POPC   C4B 8134  11.354  21.088   7.650
  368POPC   NC3 8135   0.026   4.963   9.533
  368POPC   PO4 8136  44.561   5.430   9.772
  368POPC   GL1 8137  44.628   5.272   9.314
  368POPC   GL2 8138  44.545   4.948   9.144
  368POPC   C1A 8139  44.608   5.319   8.830
  368POPC   D2A 8140  44.687   5.429   8.393
  368POPC   C3A 8141  44.437   5.233   8.090
  368POPC   C4A 8142  44.779   5.016   7.811
  368POPC   C1B 8143  44.643   4.761   8.735
  368POPC   C2B 8144  44.685   4.844   8.287
  368POPC   C3B 8145  44.575   4.583   7.924
  368POPC   C4B 8146  44.554   4.669   7.470
  369POPC   NC3 8147   4.539  19.267   9.433
  369POPC   PO4 8148   4.203  18.657   9.490
  369POPC   GL1 8149   4.161  18.910   9.137
  369POPC   GL2 8150   3.802  18.802   9.033
  369POPC   C1A 8151   4.450  19.053   8.820
  369POPC   D2A 8152   4.674  18.991   8.462
  369POPC   C3A 8153   4.418  19.153   8.112
  369POPC   C4A 8154   4.410  19.055   7.678
  369POPC   C1B 8155   4.056  18.565   8.783
  369POPC   C2B 8156   4.244  18.659   8.413
  369POPC   C3B 8157   4.109  18.763   8.024
  369POPC   C4B 8158   4.037  18.686   7.613
  370POPC   NC3 8159  34.814   7.770   9.436
  370POPC   PO4 8160  35.495   7.434   9.487
  370POPC   GL1 8161  35.146   7.324   9.195
  370POPC   GL2 8162  35.160   7.622   9.122
  370POPC   C1A 8163  34.992   7.355   8.729
  370POPC   D2A 8164  35.161   7.578   8.331
  370POPC   C3A 8165  35.391   7.432   7.995
  370POPC   C4A 8166  35.237   7.308   7.593
  370POPC   C1B 8167  35.331   7.736   8.771
  370POPC   C2B 8168  35.647   7.652   8.490
  370POPC   C3B 8169  35.564   7.926   8.181
  370POPC   C4B 8170  35.542   7.867   7.770
  371POPC   NC3 8171  14.363  10.949   9.649
  371POPC   PO4 8172  14.537  11.536   9.722
  371POPC   GL1 8173  14.347  11.412   9.307
  371POPC   GL2 8174  14.524  11.111   9.163
  371POPC   C1A 8175  14.246  11.552   8.873
  371POPC   D2A 8176  14.382  11.727   8.483
  371POPC   C3A 8177  14.387  11.656   8.030
  371POPC   C4A 8178  14.545  11.485   7.632
  371POPC   C1B 8179  14.551  11.156   8.703
  371POPC   C2B 8180  14.296  11.239   8.355
  371POPC   C3B 8181  14.353  11.142   7.953
  371POPC   C4B 8182  14.522  10.843   7.737
  372POPC   NC3 8183  29.694  26.454   9.424
  372POPC   PO4 8184  30.069  27.007   9.638
  372POPC   GL1 8185  30.119  26.895   9.206
  372POPC   GL2 8186  29.959  27.170   9.057
  372POPC   C1A 8187  30.182  26.603   8.845
  372POPC   D2A 8188  30.302  26.569   8.381
  372POPC   C3A 8189  29.978  26.553   8.007
  372POPC   C4A 8190  30.013  26.751   7.582
  372POPC   C1B 8191  29.830  26.998   8.637
  372POPC   C2B 8192  29.651  27.146   8.221
  372POPC   C3B 8193  29.598  26.903   7.813
  372POPC   C4B 8194  29.646  26.964   7.317
  373POPC   NC3 8195  27.521  44.701   9.622
  373POPC   PO4 8196  28.094   0.120   9.533
  373POPC   GL1 8197  27.778  44.827   9.206
  373POPC   GL2 8198  27.367  44.771   9.166
  373POPC   C1A 8199  27.657  44.660   8.778
  373POPC   D2A 8200  27.731  44.820   8.367
  373POPC   C3A 8201  27.855  44.531   8.050
  373POPC   C4A 8202  27.595  44.392   7.713
  373POPC   C1B 8203  27.216  44.940   8.810
  373POPC   C2B 8204  27.181  44.813   8.399
  373POPC   C3B 8205  27.353  44.724   8.022
  373POPC   C4B 8206  27.331  44.863   7.595
  374POPC   NC3 8207   0.534  37.549   9.662
  374POPC   PO4 8208   0.860  37.961   9.315
  374POPC   GL1 8209   0.611  37.606   9.123
  374POPC   GL2 8210   0.613  37.236   9.216
  374POPC   C1A 8211   0.576  37.609   8.653
  374POPC   D2A 8212   0.330  37.829   8.354
  374POPC   C3A 8213   0.278  37.790   7.925
  374POPC   C4A 8214   0.708  37.786   7.789
  374POPC   C1B 8215   0.293  37.227   8.870
  374POPC   C2B 8216   0.234  37.301   8.412
  374POPC   C3B 8217   0.510  37.358   8.058
  374POPC   C4B 8218   0.413  37.376   7.607
  375POPC   NC3 8219  36.565  16.770   9.327
  375POPC   PO4 8220  35.851  16.699   9.510
  375POPC   GL1 8221  36.096  16.695   9.154
  375POPC   GL2 8222  36.297  16.402   9.101
  375POPC   C1A 8223  36.150  16.806   8.730
  375POPC   D2A 8224  36.090  16.697   8.297
  375POPC   C3A 8225  35.845  16.964   8.047
  375POPC   C4A 8226  35.829  17.193   7.646
  375POPC   C1B 8227  36.434  16.372   8.683
  375POPC   C2B 8228  36.584  16.547   8.281
  375POPC   C3B 8229  36.419  16.829   7.934
  375POPC   C4B 8230  36.072  16.723   7.662
  376POPC   NC3 8231  30.475  35.811   9.492
  376POPC   PO4 8232  30.937  35.192   9.475
  376POPC   GL1 8233  30.774  35.325   9.077
  376POPC   GL2 8234  30.757  35.661   9.106
  376POPC   C1A 8235  30.597  35.467   8.660
  376POPC   D2A 8236  30.347  35.566   8.313
  376POPC   C3A 8237  30.465  35.382   7.885
  376POPC   C4A 8238  30.924  35.239   7.771
  376POPC   C1B 8239  30.954  35.858   8.755
  376POPC   C2B 8240  31.057  35.837   8.351
  376POPC   C3B 8241  30.852  35.656   8.049
  376POPC   C4B 8242  30.766  35.746   7.603
  377POPC   NC3 8243  42.053  17.590   9.748
  377POPC   PO4 8244  42.582  17.986   9.474
  377POPC   GL1 8245  42.318  17.698   9.166
  377POPC   GL2 8246  42.490  17.362   9.086
  377POPC   C1A 8247  42.233  17.564   8.708
  377POPC   D2A 8248  42.325  17.318   8.328
  377POPC   C3A 8249  42.344  17.632   7.987
  377POPC   C4A 8250  42.507  17.942   7.711
  377POPC   C1B 8251  42.742  17.197   8.688
  377POPC   C2B 8252  42.804  17.157   8.201
  377POPC   C3B 8253  42.507  17.156   7.835
  377POPC   C4B 8254  42.322  17.133   7.392
  378POPC   NC3 8255  10.129  21.629   9.388
  378POPC   PO4 8256   9.577  21.215   9.477
  378POPC   GL1 8257   9.827  21.256   9.106
  378POPC   GL2 8258  10.162  21.117   9.097
  378POPC   C1A 8259   9.730  21.527   8.749
  378POPC   D2A 8260   9.522  21.403   8.374
  378POPC   C3A 8261   9.459  21.528   7.945
  378POPC   C4A 8262   9.615  21.218   7.598
  378POPC   C1B 8263  10.242  21.415   8.769
  378POPC   C2B 8264  10.056  21.460   8.356
  378POPC   C3B 8265   9.957  21.418   7.936
  378POPC   C4B 8266  10.202  21.543   7.578
  379POPC   NC3 8267  19.016  35.436   9.545
  379POPC   PO4 8268  19.511  35.822   9.495
  379POPC   GL1 8269  19.403  35.463   9.194
  379POPC   GL2 8270  19.158  35.185   9.143
  379POPC   C1A 8271  19.161  35.536   8.792
  379POPC   D2A 8272  19.161  35.781   8.462
  379POPC   C3A 8273  19.159  35.557   8.121
  379POPC   C4A 8274  19.196  35.624   7.692
  379POPC   C1B 8275  18.766  35.240   8.846
  379POPC   C2B 8276  18.714  35.510   8.476
  379POPC   C3B 8277  18.685  35.486   8.031
  379POPC   C4B 8278  18.946  35.195   7.751
  380POPC   NC3 8279  36.548  43.628   9.488
  380POPC   PO4 8280  37.089  43.948   9.717
  380POPC   GL1 8281  36.995  43.819   9.280
  380POPC   GL2 8282  37.078  44.095   9.120
  380POPC   C1A 8283  36.896  43.766   8.796
  380POPC   D2A 8284  36.906  44.019   8.371
  380POPC   C3A 8285  36.955  43.811   7.974
  380POPC   C4A 8286  36.675  43.455   7.871
  380POPC   C1B 8287  36.899  44.296   8.803
  380POPC   C2B 8288  37.084  44.495   8.466
  380POPC   C3B 8289  36.974  44.433   8.036
  380POPC   C4B 8290  37.069  44.368   7.605
  381POPC   NC3 8291  37.370  33.031   9.628
  381POPC   PO4 8292  36.727  32.828   9.707
  381POPC   GL1 8293  36.948  33.115   9.314
  381POPC   GL2 8294  37.237  32.940   9.149
  381POPC   C1A 8295  36.918  33.245   8.818
  381POPC   D2A 8296  36.879  32.983   8.423
  381POPC   C3A 8297  36.714  33.057   8.004
  381POPC   C4A 8298  36.447  32.833   7.717
  381POPC   C1B 8299  37.304  32.860   8.729
  381POPC   C2B 8300  37.377  33.120   8.372
  381POPC   C3B 8301  37.217  33.171   8.002
  381POPC   C4B 8302  37.157  32.761   7.843
  382POPC   NC3 8303  26.460   4.893   9.544
  382POPC   PO4 8304  26.976   5.382   9.650
  382POPC   GL1 8305  26.869   5.083   9.281
  382POPC   GL2 8306  27.019   4.755   9.278
  382POPC   C1A 8307  26.642   5.065   8.868
  382POPC   D2A 8308  26.499   4.884   8.465
  382POPC   C3A 8309  26.629   5.087   8.087
  382POPC   C4A 8310  26.762   5.377   7.775
  382POPC   C1B 8311  27.087   4.866   8.815
  382POPC   C2B 8312  26.991   4.837   8.344
  382POPC   C3B 8313  27.058   4.865   7.862
  382POPC   C4B 8314  27.133   4.826   7.413
  383POPC   NC3 8315  12.231  37.570   9.535
  383POPC   PO4 8316  11.926  38.194   9.605
  383POPC   GL1 8317  11.924  37.917   9.247
  383POPC   GL2 8318  11.748  37.593   9.285
  383POPC   C1A 8319  12.141  37.790   8.885
  383POPC   D2A 8320  12.170  37.599   8.488
  383POPC   C3A 8321  12.001  37.863   8.138
  383POPC   C4A 8322  11.887  37.838   7.709
  383POPC   C1B 8323  11.875  37.329   8.902
  383POPC   C2B 8324  11.866  37.169   8.476
  383POPC   C3B 8325  11.978  37.364   8.060
  383POPC   C4B 8326  12.237  37.467   7.689
  384POPC   NC3 8327  44.385  25.883   9.610
  384POPC   PO4 8328  44.922  25.584   9.504
  384POPC   GL1 8329  44.757  25.916   9.235
  384POPC   GL2 8330   0.066  25.901   9.101
  384POPC   C1A 8331  44.736  26.208   8.847
  384POPC   D2A 8332  44.807  26.099   8.398
  384POPC   C3A 8333  44.701  26.271   7.977
  384POPC   C4A 8334  44.344  26.426   7.744
  384POPC   C1B 8335  44.768  25.701   8.763
  384POPC   C2B 8336  44.666  25.596   8.328
  384POPC   C3B 8337  44.830  25.735   7.911
  384POPC   C4B 8338  44.862  25.784   7.411
  385POPC   NC3 8339  27.761  15.539   9.490
  385POPC   PO4 8340  27.579  14.844   9.344
  385POPC   GL1 8341  27.792  15.155   9.140
  385POPC   GL2 8342  27.539  15.409   9.049
  385POPC   C1A 8343  27.944  15.302   8.742
  385POPC   D2A 8344  27.791  15.172   8.336
  385POPC   C3A 8345  27.920  15.380   7.973
  385POPC   C4A 8346  27.742  15.305   7.585
  385POPC   C1B 8347  27.458  15.068   8.746
  385POPC   C2B 8348  27.355  14.841   8.386
  385POPC   C3B 8349  27.226  14.915   7.976
  385POPC   C4B 8350  27.355  14.951   7.528
  386POPC   NC3 8351  41.231  33.546   9.413
  386POPC   PO4 8352  40.651  33.849   9.515
  386POPC   GL1 8353  40.651  33.746   9.126
  386POPC   GL2 8354  40.973  33.888   9.107
  386POPC   C1A 8355  40.612  33.815   8.708
  386POPC   D2A 8356  40.515  34.125   8.427
  386POPC   C3A 8357  40.586  33.891   8.073
  386POPC   C4A 8358  40.484  33.604   7.779
  386POPC   C1B 8359  41.127  33.862   8.722
  386POPC   C2B 8360  41.025  33.981   8.338
  386POPC   C3B 8361  41.086  33.833   7.941
  386POPC   C4B 8362  40.862  33.913   7.606
  387POPC   NC3 8363   3.898  42.722   9.413
  387POPC   PO4 8364   3.695  43.357   9.316
  387POPC   GL1 8365   3.550  42.984   9.078
  387POPC   GL2 8366   3.203  42.852   9.058
  387POPC   C1A 8367   3.444  43.073   8.642
  387POPC   D2A 8368   3.562  43.434   8.396
  387POPC   C3A 8369   3.811  43.216   8.114
  387POPC   C4A 8370   3.690  42.850   7.878
  387POPC   C1B 8371   2.967  43.178   8.825
  387POPC   C2B 8372   2.925  43.194   8.383
  387POPC   C3B 8373   3.286  43.080   8.131
  387POPC   C4B 8374   3.425  43.317   7.804
  388POPC   NC3 8375  23.925  35.574   9.476
  388POPC   PO4 8376  23.227  35.548   9.419
  388POPC   GL1 8377  23.379  35.505   9.008
  388POPC   GL2 8378  23.730  35.450   9.020
  388POPC   C1A 8379  23.448  35.500   8.560
  388POPC   D2A 8380  23.689  35.274   8.242
  388POPC   C3A 8381  23.431  35.087   7.937
  388POPC   C4A 8382  23.410  35.379   7.639
  388POPC   C1B 8383  23.968  35.434   8.647
  388POPC   C2B 8384  24.177  35.481   8.243
  388POPC   C3B 8385  24.103  35.478   7.807
  388POPC   C4B 8386  24.240  35.669   7.380
  389POPC   NC3 8387  30.215  29.331   9.482
  389POPC   PO4 8388  30.773  29.292   9.589
  389POPC   GL1 8389  30.694  29.188   9.160
  389POPC   GL2 8390  30.987  29.019   9.092
  389POPC   C1A 8391  30.637  29.159   8.696
  389POPC   D2A 8392  30.372  29.026   8.333
  389POPC   C3A 8393  30.560  29.212   7.948
  389POPC   C4A 8394  30.422  29.311   7.519
  389POPC   C1B 8395  31.176  29.152   8.712
  389POPC   C2B 8396  31.318  29.168   8.264
  389POPC   C3B 8397  31.081  29.095   7.874
  389POPC   C4B 8398  30.801  28.984   7.537
  390POPC   NC3 8399  37.269  36.765   9.787
  390POPC   PO4 8400  37.819  37.190   9.616
  390POPC   GL1 8401  37.663  36.984   9.272
  390POPC   GL2 8402  37.940  36.750   9.226
  390POPC   C1A 8403  37.698  36.970   8.830
  390POPC   D2A 8404  37.647  36.798   8.418
  390POPC   C3A 8405  37.750  37.066   8.038
  390POPC   C4A 8406  37.713  36.864   7.613
  390POPC   C1B 8407  38.186  36.628   8.858
  390POPC   C2B 8408  38.219  36.555   8.421
  390POPC   C3B 8409  37.960  36.589   8.074
  390POPC   C4B 8410  38.044  36.438   7.713
  391POPC   NC3 8411  33.003  20.479   9.627
  391POPC   PO4 8412  33.092  19.946   9.351
  391POPC   GL1 8413  32.857  20.324   9.148
  391POPC   GL2 8414  32.846  20.705   9.188
  391POPC   C1A 8415  32.813  20.461   8.717
  391POPC   D2A 8416  32.992  20.550   8.308
  391POPC   C3A 8417  32.912  20.306   7.890
  391POPC   C4A 8418  33.089  20.348   7.450
  391POPC   C1B 8419  32.699  20.949   8.801
  391POPC   C2B 8420  32.754  21.030   8.324
  391POPC   C3B 8421  32.899  20.850   7.901
  391POPC   C4B 8422  32.972  20.858   7.439
  392POPC   NC3 8423  23.003  34.202   9.726
  392POPC   PO4 8424  23.326  33.697   9.363
  392POPC   GL1 8425  23.072  33.844   9.054
  392POPC   GL2 8426  22.765  33.816   9.135
  392POPC   C1A 8427  22.973  33.564   8.724
  392POPC   D2A 8428  22.727  33.469   8.391
  392POPC   C3A 8429  22.884  33.755   8.111
  392POPC   C4A 8430  23.167  33.719   7.730
  392POPC   C1B 8431  22.694  34.001   8.722
  392POPC   C2B 8432  22.690  34.261   8.356
  392POPC   C3B 8433  22.508  34.306   7.977
  392POPC   C4B 8434  22.626  33.986   7.752
  393POPC   NC3 8435  14.182  37.779   9.514
  393POPC   PO4 8436  14.881  37.530   9.495
  393POPC   GL1 8437  14.557  37.589   9.218
  393POPC   GL2 8438  14.491  37.945   9.155
  393POPC   C1A 8439  14.388  37.567   8.806
  393POPC   D2A 8440  14.326  37.681   8.390
  393POPC   C3A 8441  14.491  37.491   8.035
  393POPC   C4A 8442  14.612  37.726   7.693
  393POPC   C1B 8443  14.223  38.098   8.792
  393POPC   C2B 8444  14.033  38.090   8.351
  393POPC   C3B 8445  14.162  37.901   7.925
  393POPC   C4B 8446  14.186  37.907   7.451
  394POPC   NC3 8447   3.044   1.715   9.497
  394POPC   PO4 8448   2.644   2.172   9.617
  394POPC   GL1 8449   2.571   1.799   9.266
  394POPC   GL2 8450   2.758   1.478   9.130
  394POPC   C1A 8451   2.611   1.816   8.790
  394POPC   D2A 8452   2.824   2.045   8.455
  394POPC   C3A 8453   2.563   2.222   8.115
  394POPC   C4A 8454   2.517   2.020   7.729
  394POPC   C1B 8455   3.095   1.710   8.843
  394POPC   C2B 8456   3.260   1.700   8.409
  394POPC   C3B 8457   3.099   1.867   8.044
  394POPC   C4B 8458   2.920   1.725   7.669
  395POPC   NC3 8459  13.989  23.515   9.443
  395POPC   PO4 8460  13.683  24.101   9.295
  395POPC   GL1 8461  13.679  23.721   9.076
  395POPC   GL2 8462  13.349  23.617   9.060
  395POPC   C1A 8463  13.657  23.533   8.653
  395POPC   D2A 8464  13.401  23.435   8.281
  395POPC   C3A 8465  13.695  23.376   7.961
  395POPC   C4A 8466  13.769  23.759   7.776
  395POPC   C1B 8467  13.344  23.942   8.735
  395POPC   C2B 8468  13.510  23.952   8.302
  395POPC   C3B 8469  13.310  23.940   7.906
  395POPC   C4B 8470  12.947  24.179   7.850
  396POPC   NC3 8471  13.126  18.258   9.599
  396POPC   PO4 8472  12.732  18.691   9.449
  396POPC   GL1 8473  12.827  18.434   9.115
  396POPC   GL2 8474  13.129  18.512   9.126
  396POPC   C1A 8475  12.698  18.317   8.701
  396POPC   D2A 8476  12.863  18.074   8.364
  396POPC   C3A 8477  12.571  18.075   8.096
  396POPC   C4A 8478  12.713  17.967   7.727
  396POPC   C1B 8479  13.193  18.388   8.718
  396POPC   C2B 8480  13.053  18.525   8.290
  396POPC   C3B 8481  12.915  18.409   7.867
  396POPC   C4B 8482  12.800  18.644   7.477
  397POPC   NC3 8483   8.773  35.600   9.420
  397POPC   PO4 8484   8.810  34.939   9.463
  397POPC   GL1 8485   9.010  35.110   9.111
  397POPC   GL2 8486   9.219  35.365   9.201
  397POPC   C1A 8487   8.910  35.350   8.775
  397POPC   D2A 8488   8.871  35.709   8.536
  397POPC   C3A 8489   8.842  35.626   8.115
  397POPC   C4A 8490   8.627  35.613   7.754
  397POPC   C1B 8491   9.376  35.548   8.809
  397POPC   C2B 8492   9.265  35.395   8.400
  397POPC   C3B 8493   9.341  35.554   8.004
  397POPC   C4B 8494   9.091  35.321   7.738
  398POPC   NC3 8495   4.658   7.717   9.653
  398POPC   PO4 8496   5.269   7.368   9.542
  398POPC   GL1 8497   5.181   7.437   9.134
  398POPC   GL2 8498   4.828   7.330   9.207
  398POPC   C1A 8499   5.262   7.236   8.758
  398POPC   D2A 8500   5.508   7.279   8.408
  398POPC   C3A 8501   5.289   7.387   8.025
  398POPC   C4A 8502   5.079   7.031   7.821
  398POPC   C1B 8503   4.765   7.451   8.808
  398POPC   C2B 8504   4.966   7.476   8.428
  398POPC   C3B 8505   4.774   7.330   8.078
  398POPC   C4B 8506   4.672   7.472   7.713
  399POPC   NC3 8507  38.642  38.032   9.453
  399POPC   PO4 8508  38.124  37.720   9.762
  399POPC   GL1 8509  38.366  37.635   9.280
  399POPC   GL2 8510  38.117  37.632   9.040
  399POPC   C1A 8511  38.579  37.609   8.821
  399POPC   D2A 8512  38.854  37.531   8.436
  399POPC   C3A 8513  38.866  37.746   8.063
  399POPC   C4A 8514  38.579  37.826   7.764
  399POPC   C1B 8515  38.210  37.979   8.721
  399POPC   C2B 8516  38.475  37.892   8.393
  399POPC   C3B 8517  38.406  37.518   8.148
  399POPC   C4B 8518  38.472  37.322   7.741
  400POPC   NC3 8519  18.901  44.302   9.570
  400POPC   PO4 8520  19.307  44.784   9.442
  400POPC   GL1 8521  19.082  44.621   9.068
  400POPC   GL2 8522  18.774  44.407   9.090
  400POPC   C1A 8523  19.213  44.750   8.637
  400POPC   D2A 8524  19.346  44.621   8.205
  400POPC   C3A 8525  19.147  44.906   7.917
  400POPC   C4A 8526  18.787  44.914   7.667
  400POPC   C1B 8527  18.815  44.421   8.651
  400POPC   C2B 8528  18.825  44.629   8.276
  400POPC   C3B 8529  18.890  44.471   7.886
  400POPC   C4B 8530  18.959  44.434   7.454
  401POPC   NC3 8531   0.734  15.880   9.487
  401POPC   PO4 8532   0.141  16.180   9.440
  401POPC   GL1 8533   0.469  16.110   9.120
  401POPC   GL2 8534   0.452  15.738   9.100
  401POPC   C1A 8535   0.605  15.993   8.691
  401POPC   D2A 8536   0.386  16.134   8.347
  401POPC   C3A 8537   0.645  16.181   7.998
  401POPC   C4A 8538   0.726  15.825   7.701
  401POPC   C1B 8539   0.154  15.733   8.754
  401POPC   C2B 8540   0.001  15.750   8.311
  401POPC   C3B 8541   0.285  15.767   7.958
  401POPC   C4B 8542   0.272  15.731   7.500
  402POPC   NC3 8543  11.942  13.732   9.648
  402POPC   PO4 8544  12.058  13.253   9.259
  402POPC   GL1 8545  12.006  13.626   9.114
  402POPC   GL2 8546  12.246  13.821   9.231
  402POPC   C1A 8547  11.879  13.621   8.693
  402POPC   D2A 8548  12.107  13.683   8.302
  402POPC   C3A 8549  12.072  13.561   7.897
  402POPC   C4A 8550  11.751  13.779   7.790
  402POPC   C1B 8551  12.347  13.805   8.758
  402POPC   C2B 8552  12.580  13.843   8.344
  402POPC   C3B 8553  12.477  13.856   7.876
  402POPC   C4B 8554  12.590  13.716   7.455
  403POPC   NC3 8555   5.387   6.264   9.511
  403POPC   PO4 8556   5.406   5.570   9.518
  403POPC   GL1 8557   5.146   5.744   9.151
  403POPC   GL2 8558   5.019   6.087   9.166
  403POPC   C1A 8559   5.028   5.834   8.706
  403POPC   D2A 8560   5.053   6.093   8.333
  403POPC   C3A 8561   5.049   5.809   7.989
  403POPC   C4A 8562   5.270   5.682   7.602
  403POPC   C1B 8563   4.912   6.328   8.768
  403POPC   C2B 8564   4.746   6.508   8.394
  403POPC   C3B 8565   4.707   6.238   7.984
  403POPC   C4B 8566   4.893   6.049   7.559
  404POPC   NC3 8567  44.026  27.573   9.575
  404POPC   PO4 8568  43.391  27.781   9.293
  404POPC   GL1 8569  43.752  27.634   9.110
  404POPC   GL2 8570  43.971  27.379   9.125
  404POPC   C1A 8571  43.751  27.587   8.693
  404POPC   D2A 8572  43.512  27.702   8.323
  404POPC   C3A 8573  43.744  27.808   7.950
  404POPC   C4A 8574  43.555  27.773   7.522
  404POPC   C1B 8575  44.253  27.489   8.826
  404POPC   C2B 8576  44.239  27.382   8.404
  404POPC   C3B 8577  44.120  27.324   7.982
  404POPC   C4B 8578  44.033  27.567   7.613
  405POPC   NC3 8579  33.388   4.801   9.612
  405POPC   PO4 8580  33.669   5.367   9.540
  405POPC   GL1 8581  33.791   5.178   9.200
  405POPC   GL2 8582  33.816   4.835   9.271
  405POPC   C1A 8583  33.888   5.350   8.810
  405POPC   D2A 8584  33.616   5.209   8.523
  405POPC   C3A 8585  33.700   5.148   8.095
  405POPC   C4A 8586  33.999   5.421   7.896
  405POPC   C1B 8587  33.972   4.842   8.841
  405POPC   C2B 8588  34.103   5.062   8.443
  405POPC   C3B 8589  34.213   4.992   8.022
  405POPC   C4B 8590  33.953   4.840   7.721
  406POPC   NC3 8591  17.515  44.872   9.816
  406POPC   PO4 8592  17.073  44.907   9.289
  406POPC   GL1 8593  17.289  44.617   9.010
  406POPC   GL2 8594  17.640  44.593   9.049
  406POPC   C1A 8595  17.450  44.612   8.562
  406POPC   D2A 8596  17.638  44.804   8.178
  406POPC   C3A 8597  17.307  44.762   7.883
  406POPC   C4A 8598  16.940  44.987   7.732
  406POPC   C1B 8599  17.829  44.317   8.728
  406POPC   C2B 8600  17.957  44.404   8.292
  406POPC   C3B 8601  17.927  44.478   7.839
  406POPC   C4B 8602  17.731  44.806   7.609
  407POPC   NC3 8603  24.397   5.018   9.545
  407POPC   PO4 8604  24.995   4.778   9.460
  407POPC   GL1 8605  24.653   4.833   9.127
  407POPC   GL2 8606  24.240   4.874   9.097
  407POPC   C1A 8607  24.552   4.906   8.693
  407POPC   D2A 8608  24.360   5.210   8.429
  407POPC   C3A 8609  24.253   5.076   8.043
  407POPC   C4A 8610  24.559   4.774   7.985
  407POPC   C1B 8611  24.193   5.333   8.898
  407POPC   C2B 8612  24.189   5.675   8.533
  407POPC   C3B 8613  24.344   5.601   8.096
  407POPC   C4B 8614  24.119   5.505   7.724
  408POPC   NC3 8615  41.113   3.468   9.318
  408POPC   PO4 8616  40.577   3.876   9.564
  408POPC   GL1 8617  40.687   3.832   9.165
  408POPC   GL2 8618  40.572   3.511   9.137
  408POPC   C1A 8619  40.415   3.823   8.778
  408POPC   D2A 8620  40.379   3.534   8.444
  408POPC   C3A 8621  40.686   3.672   8.186
  408POPC   C4A 8622  40.719   3.613   7.739
  408POPC   C1B 8623  40.791   3.460   8.765
  408POPC   C2B 8624  40.835   3.216   8.429
  408POPC   C3B 8625  40.998   3.306   8.052
  408POPC   C4B 8626  40.900   3.094   7.671
  409POPC   NC3 8627  16.235  31.396   9.288
  409POPC   PO4 8628  15.621  31.354   9.407
  409POPC   GL1 8629  15.796  31.621   9.096
  409POPC   GL2 8630  16.133  31.705   8.900
  409POPC   C1A 8631  15.566  31.522   8.728
  409POPC   D2A 8632  15.744  31.237   8.435
  409POPC   C3A 8633  16.001  31.456   8.134
  409POPC   C4A 8634  15.785  31.604   7.782
  409POPC   C1B 8635  16.213  31.310   8.656
  409POPC   C2B 8636  16.220  31.016   8.321
  409POPC   C3B 8637  16.347  31.128   7.924
  409POPC   C4B 8638  16.267  31.458   7.655
  410POPC   NC3 8639   8.926  20.121   9.450
  410POPC   PO4 8640   9.001  19.459   9.594
  410POPC   GL1 8641   9.010  19.639   9.232
  410POPC   GL2 8642   9.300  19.824   9.258
  410POPC   C1A 8643   9.063  19.617   8.816
  410POPC   D2A 8644   8.874  19.761   8.443
  410POPC   C3A 8645   8.874  19.485   8.121
  410POPC   C4A 8646   8.946  19.627   7.667
  410POPC   C1B 8647   9.364  20.034   8.856
  410POPC   C2B 8648   9.237  20.114   8.429
  410POPC   C3B 8649   9.229  19.876   8.043
  410POPC   C4B 8650   9.543  19.786   7.704
  411POPC   NC3 8651   9.657  35.786   9.626
  411POPC   PO4 8652  10.147  36.292   9.569
  411POPC   GL1 8653  10.003  36.023   9.276
  411POPC   GL2 8654   9.939  36.322   9.050
  411POPC   C1A 8655   9.752  35.872   8.932
  411POPC   D2A 8656   9.801  36.057   8.518
  411POPC   C3A 8657   9.691  35.963   8.059
  411POPC   C4A 8658   9.601  35.791   7.631
  411POPC   C1B 8659  10.189  36.419   8.677
  411POPC   C2B 8660  10.174  36.295   8.252
  411POPC   C3B 8661  10.120  36.402   7.862
  411POPC   C4B 8662   9.776  36.249   7.613
  412POPC   NC3 8663  12.741   0.474   9.498
  412POPC   PO4 8664  13.281   0.820   9.523
  412POPC   GL1 8665  13.010   0.833   9.179
  412POPC   GL2 8666  12.667   0.890   9.192
  412POPC   C1A 8667  13.011   0.802   8.749
  412POPC   D2A 8668  13.127   0.470   8.473
  412POPC   C3A 8669  13.015   0.532   8.069
  412POPC   C4A 8670  12.872   0.187   7.846
  412POPC   C1B 8671  12.519   0.984   8.760
  412POPC   C2B 8672  12.570   0.780   8.326
  412POPC   C3B 8673  12.551   0.611   7.882
  412POPC   C4B 8674  12.552   0.728   7.430
  413POPC   NC3 8675  13.151  21.721   9.584
  413POPC   PO4 8676  12.714  21.153   9.577
  413POPC   GL1 8677  12.898  21.398   9.271
  413POPC   GL2 8678  13.093  21.173   9.138
  413POPC   C1A 8679  12.786  21.424   8.827
  413POPC   D2A 8680  12.699  21.627   8.451
  413POPC   C3A 8681  12.881  21.482   8.096
  413POPC   C4A 8682  12.803  21.399   7.697
  413POPC   C1B 8683  13.212  21.136   8.723
  413POPC   C2B 8684  13.198  21.135   8.298
  413POPC   C3B 8685  13.249  21.164   7.855
  413POPC   C4B 8686  13.012  20.938   7.530
  414POPC   NC3 8687  41.882  25.460   9.327
  414POPC   PO4 8688  42.478  25.154   9.457
  414POPC   GL1 8689  42.494  25.008   9.073
  414POPC   GL2 8690  42.186  25.205   8.969
  414POPC   C1A 8691  42.565  24.972   8.666
  414POPC   D2A 8692  42.350  25.085   8.336
  414POPC   C3A 8693  42.574  24.994   7.993
  414POPC   C4A 8694  42.641  25.140   7.550
  414POPC   C1B 8695  42.493  25.469   8.707
  414POPC   C2B 8696  42.708  25.462   8.278
  414POPC   C3B 8697  42.476  25.476   7.886
  414POPC   C4B 8698  42.198  25.421   7.490
  415POPC   NC3 8699  18.333  43.524   9.420
  415POPC   PO4 8700  18.603  42.937   9.513
  415POPC   GL1 8701  18.354  43.057   9.187
  415POPC   GL2 8702  18.141  42.739   9.192
  415POPC   C1A 8703  18.462  43.288   8.791
  415POPC   D2A 8704  18.275  43.451   8.380
  415POPC   C3A 8705  18.472  43.272   7.989
  415POPC   C4A 8706  18.393  43.241   7.546
  415POPC   C1B 8707  18.392  42.739   8.812
  415POPC   C2B 8708  18.408  42.936   8.413
  415POPC   C3B 8709  18.284  42.733   8.055
  415POPC   C4B 8710  18.338  42.538   7.670
  416POPC   NC3 8711  10.894   5.292   9.857
  416POPC   PO4 8712  10.505   4.741   9.601
  416POPC   GL1 8713  10.633   4.939   9.233
  416POPC   GL2 8714  10.779   5.286   9.226
  416POPC   C1A 8715  10.589   4.841   8.805
  416POPC   D2A 8716  10.388   5.008   8.425
  416POPC   C3A 8717  10.679   5.162   8.141
  416POPC   C4A 8718  10.830   5.002   7.782
  416POPC   C1B 8719  10.530   5.350   8.825
  416POPC   C2B 8720  10.361   5.542   8.445
  416POPC   C3B 8721  10.293   5.469   8.020
  416POPC   C4B 8722  10.350   5.160   7.663
  417POPC   NC3 8723  40.797  33.226   9.876
  417POPC   PO4 8724  40.203  32.998   9.584
  417POPC   GL1 8725  40.582  33.000   9.293
  417POPC   GL2 8726  40.803  33.284   9.289
  417POPC   C1A 8727  40.742  32.918   8.864
  417POPC   D2A 8728  40.534  32.686   8.512
  417POPC   C3A 8729  40.620  32.901   8.156
  417POPC   C4A 8730  40.721  33.004   7.767
  417POPC   C1B 8731  40.936  33.387   8.848
  417POPC   C2B 8732  40.963  33.190   8.444
  417POPC   C3B 8733  40.859  33.391   8.065
  417POPC   C4B 8734  40.948  33.422   7.600
  418POPC   NC3 8735  43.007  32.029   9.362
  418POPC   PO4 8736  43.476  32.344   9.588
  418POPC   GL1 8737  43.296  32.335   9.143
  418POPC   GL2 8738  43.425  31.960   9.105
  418POPC   C1A 8739  42.955  32.295   8.772
  418POPC   D2A 8740  43.066  32.202   8.335
  418POPC   C3A 8741  42.996  32.334   7.913
  418POPC   C4A 8742  42.845  32.031   7.637
  418POPC   C1B 8743  43.435  32.158   8.705
  418POPC   C2B 8744  43.573  32.119   8.340
  418POPC   C3B 8745  43.469  32.109   7.967
  418POPC   C4B 8746  43.351  32.092   7.612
  419POPC   NC3 8747  32.244  43.407   9.523
  419POPC   PO4 8748  32.257  42.665   9.488
  419POPC   GL1 8749  32.186  43.002   9.226
  419POPC   GL2 8750  32.503  43.129   9.156
  419POPC   C1A 8751  32.178  42.984   8.761
  419POPC   D2A 8752  32.029  43.234   8.393
  419POPC   C3A 8753  32.161  43.286   7.953
  419POPC   C4A 8754  31.997  42.986   7.670
  419POPC   C1B 8755  32.698  42.940   8.799
  419POPC   C2B 8756  32.534  42.827   8.395
  419POPC   C3B 8757  32.383  42.836   7.987
  419POPC   C4B 8758  32.494  42.951   7.576
  420POPC   NC3 8759  39.599  20.025   9.369
  420POPC   PO4 8760  40.195  19.696   9.418
  420POPC   GL1 8761  39.935  19.817   9.068
  420POPC   GL2 8762  39.603  19.610   9.068
  420POPC   C1A 8763  39.919  20.062   8.692
  420POPC   D2A 8764  40.253  20.015   8.375
  420POPC   C3A 8765  40.175  19.901   7.933
  420POPC   C4A 8766  39.806  20.005   7.724
  420POPC   C1B 8767  39.815  19.553   8.658
  420POPC   C2B 8768  40.003  19.537   8.254
  420POPC   C3B 8769  39.705  19.550   7.912
  420POPC   C4B 8770  39.612  19.366   7.504
  421POPC   NC3 8771   9.120  41.759   9.711
  421POPC   PO4 8772   9.109  41.144   9.487
  421POPC   GL1 8773   9.016  41.490   9.231
  421POPC   GL2 8774   8.755  41.752   9.312
  421POPC   C1A 8775   9.070  41.437   8.800
  421POPC   D2A 8776   9.220  41.273   8.420
  421POPC   C3A 8777   9.039  41.478   8.083
  421POPC   C4A 8778   8.955  41.696   7.683
  421POPC   C1B 8779   8.595  41.609   8.903
  421POPC   C2B 8780   8.697  41.614   8.461
  421POPC   C3B 8781   8.566  41.629   8.011
  421POPC   C4B 8782   8.481  41.610   7.541
  422POPC   NC3 8783  31.839  39.934   9.473
  422POPC   PO4 8784  32.286  40.376   9.577
  422POPC   GL1 8785  32.392  40.051   9.230
  422POPC   GL2 8786  32.255  39.691   9.218
  422POPC   C1A 8787  32.490  40.105   8.771
  422POPC   D2A 8788  32.367  40.338   8.381
  422POPC   C3A 8789  32.521  40.129   8.003
  422POPC   C4A 8790  32.277  39.873   7.755
  422POPC   C1B 8791  32.056  39.857   8.851
  422POPC   C2B 8792  32.052  39.788   8.426
  422POPC   C3B 8793  31.814  39.914   8.118
  422POPC   C4B 8794  31.760  39.997   7.696
  423POPC   NC3 8795  42.349  35.093   9.625
  423POPC   PO4 8796  42.333  35.755   9.494
  423POPC   GL1 8797  42.211  35.454   9.188
  423POPC   GL2 8798  41.935  35.203   9.295
  423POPC   C1A 8799  42.308  35.503   8.750
  423POPC   D2A 8800  42.289  35.568   8.321
  423POPC   C3A 8801  42.509  35.551   7.971
  423POPC   C4A 8802  42.181  35.517   7.628
  423POPC   C1B 8803  41.940  35.140   8.852
  423POPC   C2B 8804  42.167  35.064   8.483
  423POPC   C3B 8805  42.215  35.139   8.048
  423POPC   C4B 8806  41.872  35.131   7.784
  424POPC   NC3 8807  21.703  43.174   9.391
  424POPC   PO4 8808  22.349  43.075   9.506
  424POPC   GL1 8809  22.389  43.021   9.071
  424POPC   GL2 8810  22.056  42.864   9.103
  424POPC   C1A 8811  22.332  42.857   8.632
  424POPC   D2A 8812  21.969  42.691   8.369
  424POPC   C3A 8813  22.030  42.893   7.961
  424POPC   C4A 8814  22.292  43.260   7.910
  424POPC   C1B 8815  21.972  43.181   8.781
  424POPC   C2B 8816  22.000  43.308   8.348
  424POPC   C3B 8817  21.776  43.350   7.978
  424POPC   C4B 8818  21.880  43.340   7.554
  425POPC   NC3 8819  18.131  41.084   9.451
  425POPC   PO4 8820  18.664  40.804   9.318
  425POPC   GL1 8821  18.351  40.638   9.062
  425POPC   GL2 8822  18.066  40.547   9.276
  425POPC   C1A 8823  18.294  40.743   8.614
  425POPC   D2A 8824  18.257  41.009   8.245
  425POPC   C3A 8825  18.464  40.803   7.882
  425POPC   C4A 8826  18.463  40.869   7.422
  425POPC   C1B 8827  17.910  40.472   8.844
  425POPC   C2B 8828  18.006  40.353   8.392
  425POPC   C3B 8829  17.812  40.459   7.982
  425POPC   C4B 8830  18.002  40.706   7.616
  426POPC   NC3 8831  28.710   7.223   9.522
  426POPC   PO4 8832  29.294   7.414   9.398
  426POPC   GL1 8833  29.216   7.146   9.063
  426POPC   GL2 8834  28.892   7.226   9.043
  426POPC   C1A 8835  29.124   7.178   8.591
  426POPC   D2A 8836  29.331   7.496   8.379
  426POPC   C3A 8837  29.275   7.381   8.001
  426POPC   C4A 8838  29.153   7.682   7.766
  426POPC   C1B 8839  28.932   7.607   8.791
  426POPC   C2B 8840  28.838   7.583   8.349
  426POPC   C3B 8841  28.821   7.187   8.154
  426POPC   C4B 8842  28.715   7.094   7.747
  427POPC   NC3 8843  21.949  41.568   9.584
  427POPC   PO4 8844  21.224  41.475   9.528
  427POPC   GL1 8845  21.416  41.529   9.161
  427POPC   GL2 8846  21.596  41.833   9.270
  427POPC   C1A 8847  21.238  41.467   8.732
  427POPC   D2A 8848  21.407  41.320   8.337
  427POPC   C3A 8849  21.201  41.359   7.936
  427POPC   C4A 8850  21.351  41.173   7.567
  427POPC   C1B 8851  21.556  41.858   8.814
  427POPC   C2B 8852  21.293  41.999   8.465
  427POPC   C3B 8853  21.386  41.853   8.043
  427POPC   C4B 8854  21.680  41.516   7.917
  428POPC   NC3 8855  12.463  18.236   9.415
  428POPC   PO4 8856  12.075  18.689   9.645
  428POPC   GL1 8857  12.031  18.543   9.241
  428POPC   GL2 8858  11.918  18.200   9.218
  428POPC   C1A 8859  12.229  18.432   8.852
  428POPC   D2A 8860  12.233  18.211   8.484
  428POPC   C3A 8861  12.329  18.507   8.153
  428POPC   C4A 8862  12.389  18.419   7.705
  428POPC   C1B 8863  11.734  18.424   8.811
  428POPC   C2B 8864  11.828  18.503   8.356
  428POPC   C3B 8865  11.889  18.558   7.907
  428POPC   C4B 8866  11.804  18.218   7.600
  429POPC   NC3 8867  38.691  24.758   9.441
  429POPC   PO4 8868  38.226  24.286   9.397
  429POPC   GL1 8869  38.274  24.424   9.018
  429POPC   GL2 8870  38.234  24.782   9.039
  429POPC   C1A 8871  38.538  24.217   8.708
  429POPC   D2A 8872  38.647  23.962   8.342
  429POPC   C3A 8873  38.602  24.253   8.013
  429POPC   C4A 8874  38.439  24.425   7.637
  429POPC   C1B 8875  38.602  24.763   8.777
  429POPC   C2B 8876  38.636  24.603   8.377
  429POPC   C3B 8877  38.567  24.767   7.987
  429POPC   C4B 8878  38.539  24.920   7.591
  430POPC   NC3 8879  35.882  25.770   9.524
  430POPC   PO4 8880  36.361  26.203   9.349
  430POPC   GL1 8881  36.035  26.038   9.111
  430POPC   GL2 8882  35.872  26.272   8.880
  430POPC   C1A 8883  36.206  25.826   8.757
  430POPC   D2A 8884  36.403  25.944   8.364
  430POPC   C3A 8885  36.062  25.905   8.067
  430POPC   C4A 8886  35.903  25.710   7.726
  430POPC   C1B 8887  36.304  26.375   8.744
  430POPC   C2B 8888  36.472  26.468   8.373
  430POPC   C3B 8889  36.329  26.329   7.996
  430POPC   C4B 8890  35.966  26.325   7.719
  431POPC   NC3 8891  42.972  23.345   9.318
  431POPC   PO4 8892  43.176  23.919   9.613
  431POPC   GL1 8893  43.060  23.865   9.212
  431POPC   GL2 8894  43.346  23.705   9.117
  431POPC   C1A 8895  42.967  23.760   8.789
  431POPC   D2A 8896  43.131  23.881   8.425
  431POPC   C3A 8897  42.812  23.918   8.186
  431POPC   C4A 8898  42.757  23.651   7.826
  431POPC   C1B 8899  43.391  23.485   8.690
  431POPC   C2B 8900  43.390  23.482   8.236
  431POPC   C3B 8901  43.271  23.589   7.827
  431POPC   C4B 8902  43.437  23.435   7.404
  432POPC   NC3 8903  31.218  36.296   9.630
  432POPC   PO4 8904  31.696  35.834   9.599
  432POPC   GL1 8905  31.492  35.950   9.242
  432POPC   GL2 8906  31.709  35.712   9.065
  432POPC   C1A 8907  31.494  36.256   8.923
  432POPC   D2A 8908  31.279  36.271   8.539
  432POPC   C3A 8909  31.386  36.169   8.115
  432POPC   C4A 8910  31.487  36.246   7.667
  432POPC   C1B 8911  31.463  35.799   8.682
  432POPC   C2B 8912  31.561  35.701   8.273
  432POPC   C3B 8913  31.745  35.789   7.859
  432POPC   C4B 8914  31.860  35.950   7.454
  433POPC   NC3 8915  17.535  24.611  10.004
  433POPC   PO4 8916  17.660  24.205   9.385
  433POPC   GL1 8917  17.617  24.395   9.039
  433POPC   GL2 8918  17.572  24.724   9.114
  433POPC   C1A 8919  17.644  24.402   8.608
  433POPC   D2A 8920  17.752  24.192   8.238
  433POPC   C3A 8921  17.573  24.433   7.939
  433POPC   C4A 8922  17.859  24.630   7.683
  433POPC   C1B 8923  17.258  24.680   8.780
  433POPC   C2B 8924  17.315  24.718   8.348
  433POPC   C3B 8925  17.067  24.619   8.001
  433POPC   C4B 8926  17.191  24.639   7.577
  434POPC   NC3 8927  39.595  42.282   9.400
  434POPC   PO4 8928  38.954  42.558   9.564
  434POPC   GL1 8929  39.096  42.303   9.204
  434POPC   GL2 8930  39.273  42.598   9.106
  434POPC   C1A 8931  39.326  42.228   8.775
  434POPC   D2A 8932  39.449  42.197   8.327
  434POPC   C3A 8933  39.144  42.195   7.985
  434POPC   C4A 8934  39.262  42.217   7.514
  434POPC   C1B 8935  39.433  42.747   8.702
  434POPC   C2B 8936  39.619  42.678   8.294
  434POPC   C3B 8937  39.463  42.577   7.909
  434POPC   C4B 8938  39.563  42.662   7.527
  435POPC   NC3 8939  19.497  29.533   9.869
  435POPC   PO4 8940  19.742  28.928   9.449
  435POPC   GL1 8941  20.029  29.087   9.160
  435POPC   GL2 8942  19.732  29.187   8.998
  435POPC   C1A 8943  20.134  29.097   8.741
  435POPC   D2A 8944  19.817  29.292   8.477
  435POPC   C3A 8945  19.769  29.026   8.136
  435POPC   C4A 8946  20.042  28.811   7.837
  435POPC   C1B 8947  19.479  28.946   8.688
  435POPC   C2B 8948  19.250  29.034   8.304
  435POPC   C3B 8949  19.325  28.982   7.880
  435POPC   C4B 8950  19.563  28.909   7.503
  436POPC   NC3 8951  44.406   5.731   9.445
  436POPC   PO4 8952   0.105   5.540   9.342
  436POPC   GL1 8953  44.769   5.730   9.090
  436POPC   GL2 8954  44.618   6.076   9.141
  436POPC   C1A 8955  44.572   5.817   8.700
  436POPC   D2A 8956  44.266   5.762   8.375
  436POPC   C3A 8957  44.547   5.817   8.081
  436POPC   C4A 8958  44.673   5.527   7.776
  436POPC   C1B 8959  44.700   6.307   8.746
  436POPC   C2B 8960  44.908   6.199   8.332
  436POPC   C3B 8961  44.957   6.044   7.892
  436POPC   C4B 8962  44.576   5.997   7.602
  437POPC   NC3 8963  21.512  10.621   9.526
  437POPC   PO4 8964  21.343   9.979   9.348
  437POPC   GL1 8965  21.435  10.296   9.103
  437POPC   GL2 8966  21.239  10.568   9.117
  437POPC   C1A 8967  21.612  10.397   8.722
  437POPC   D2A 8968  21.545  10.338   8.321
  437POPC   C3A 8969  21.611  10.538   7.991
  437POPC   C4A 8970  21.258  10.365   7.807
  437POPC   C1B 8971  21.389  10.829   8.816
  437POPC   C2B 8972  21.397  10.882   8.384
  437POPC   C3B 8973  21.203  10.835   7.986
  437POPC   C4B 8974  21.448  10.859   7.598
  438POPC   NC3 8975  37.736  28.025   9.527
  438POPC   PO4 8976  37.718  28.710   9.530
  438POPC   GL1 8977  37.831  28.487   9.137
  438POPC   GL2 8978  37.633  28.183   9.050
  438POPC   C1A 8979  37.903  28.400   8.668
  438POPC   D2A 8980  37.576  28.289   8.340
  438POPC   C3A 8981  37.481  28.560   7.975
  438POPC   C4A 8982  37.412  28.643   7.506
  438POPC   C1B 8983  37.758  27.913   8.684
  438POPC   C2B 8984  37.864  27.840   8.279
  438POPC   C3B 8985  37.949  28.014   7.880
  438POPC   C4B 8986  37.696  28.226   7.567
  439POPC   NC3 8987  35.241   3.124   9.475
  439POPC   PO4 8988  35.749   3.533   9.617
  439POPC   GL1 8989  35.552   3.461   9.220
  439POPC   GL2 8990  35.286   3.675   9.098
  439POPC   C1A 8991  35.454   3.284   8.822
  439POPC   D2A 8992  35.179   3.470   8.528
  439POPC   C3A 8993  35.218   3.373   8.096
  439POPC   C4A 8994  35.522   3.439   7.761
  439POPC   C1B 8995  35.434   3.862   8.780
  439POPC   C2B 8996  35.201   3.980   8.442
  439POPC   C3B 8997  35.357   3.861   8.058
  439POPC   C4B 8998  35.122   3.730   7.714
  440POPC   NC3 8999  10.697   7.852   9.603
  440POPC   PO4 9000  11.395   7.984   9.601
  440POPC   GL1 9001  11.283   8.181   9.224
  440POPC   GL2 9002  10.904   8.148   9.194
  440POPC   C1A 9003  11.465   8.311   8.839
  440POPC   D2A 9004  11.311   8.107   8.474
  440POPC   C3A 9005  11.528   8.111   8.104
  440POPC   C4A 9006  11.359   8.330   7.780
  440POPC   C1B 9007  11.071   7.850   8.862
  440POPC   C2B 9008  11.109   7.628   8.468
  440POPC   C3B 9009  11.074   7.805   8.064
  440POPC   C4B 9010  10.913   7.617   7.696
  441POPC   NC3 9011  20.507  36.566   9.449
  441POPC   PO4 9012  20.216  37.311   9.424
  441POPC   GL1 9013  20.507  37.055   9.190
  441POPC   GL2 9014  20.239  36.831   9.101
  441POPC   C1A 9015  20.685  36.795   8.835
  441POPC   D2A 9016  20.791  36.613   8.445
  441POPC   C3A 9017  20.759  36.872   8.100
  441POPC   C4A 9018  20.731  36.760   7.684
  441POPC   C1B 9019  20.262  36.513   8.766
  441POPC   C2B 9020  20.287  36.646   8.345
  441POPC   C3B 9021  20.416  36.482   7.961
  441POPC   C4B 9022  20.365  36.439   7.494
  442POPC   NC3 9023  16.756   3.413   9.610
  442POPC   PO4 9024  17.056   4.049   9.425
  442POPC   GL1 9025  16.760   3.789   9.149
  442POPC   GL2 9026  16.727   3.412   9.119
  442POPC   C1A 9027  16.562   3.721   8.755
  442POPC   D2A 9028  16.796   3.592   8.404
  442POPC   C3A 9029  16.688   3.752   8.015
  442POPC   C4A 9030  16.619   3.542   7.654
  442POPC   C1B 9031  16.684   3.165   8.771
  442POPC   C2B 9032  16.490   3.042   8.415
  442POPC   C3B 9033  16.625   3.204   8.050
  442POPC   C4B 9034  16.571   3.041   7.641
  443POPC   NC3 9035  21.303  31.226   9.534
  443POPC   PO4 9036  21.561  31.835   9.782
  443POPC   GL1 9037  21.283  31.709   9.302
  443POPC   GL2 9038  21.099  31.383   9.111
  443POPC   C1A 9039  21.188  31.750   8.797
  443POPC   D2A 9040  21.199  31.527   8.372
  443POPC   C3A 9041  21.313  31.612   7.913
  443POPC   C4A 9042  21.717  31.458   7.735
  443POPC   C1B 9043  21.474  31.291   8.853
  443POPC   C2B 9044  21.564  31.131   8.439
  443POPC   C3B 9045  21.330  31.112   8.059
  443POPC   C4B 9046  21.558  30.946   7.729
  444POPC   NC3 9047   9.370  30.372   9.446
  444POPC   PO4 9048  10.063  30.339   9.548
  444POPC   GL1 9049  10.035  30.639   9.214
  444POPC   GL2 9050   9.693  30.587   9.094
  444POPC   C1A 9051  10.053  30.848   8.794
  444POPC   D2A 9052   9.732  30.995   8.520
  444POPC   C3A 9053   9.766  30.840   8.105
  444POPC   C4A 9054   9.637  31.022   7.735
  444POPC   C1B 9055   9.407  30.496   8.737
  444POPC   C2B 9056   9.273  30.500   8.311
  444POPC   C3B 9057   9.367  30.588   7.887
  444POPC   C4B 9058   9.743  30.463   7.682
  445POPC   NC3 9059   8.126  30.348   9.465
  445POPC   PO4 9060   7.958  30.949   9.701
  445POPC   GL1 9061   8.056  30.949   9.244
  445POPC   GL2 9062   8.224  30.686   9.081
  445POPC   C1A 9063   7.929  31.034   8.797
  445POPC   D2A 9064   7.853  30.905   8.338
  445POPC   C3A 9065   8.100  30.765   8.017
  445POPC   C4A 9066   8.043  30.590   7.599
  445POPC   C1B 9067   8.250  30.671   8.606
  445POPC   C2B 9068   8.423  30.448   8.234
  445POPC   C3B 9069   8.525  30.565   7.796
  445POPC   C4B 9070   8.487  30.535   7.347
  446POPC   NC3 9071  30.702  21.207   9.590
  446POPC   PO4 9072  30.932  21.881   9.616
  446POPC   GL1 9073  30.944  21.512   9.242
  446POPC   GL2 9074  31.002  21.107   9.186
  446POPC   C1A 9075  30.782  21.487   8.808
  446POPC   D2A 9076  30.574  21.630   8.416
  446POPC   C3A 9077  30.834  21.740   8.081
  446POPC   C4A 9078  30.708  21.560   7.712
  446POPC   C1B 9079  30.625  21.028   8.940
  446POPC   C2B 9080  30.602  21.079   8.503
  446POPC   C3B 9081  30.630  21.198   8.075
  446POPC   C4B 9082  30.645  21.018   7.666
  447POPC   NC3 9083  10.890  27.046   9.508
  447POPC   PO4 9084  11.478  27.055   9.936
  447POPC   GL1 9085  11.517  26.812   9.490
  447POPC   GL2 9086  11.329  26.982   9.251
  447POPC   C1A 9087  11.519  26.601   9.017
  447POPC   D2A 9088  11.454  26.644   8.570
  447POPC   C3A 9089  11.435  26.636   8.114
  447POPC   C4A 9090  11.415  26.649   7.684
  447POPC   C1B 9091  11.270  27.079   8.790
  447POPC   C2B 9092  11.113  27.001   8.355
  447POPC   C3B 9093  11.276  27.117   7.922
  447POPC   C4B 9094  11.182  27.096   7.465
  448POPC   NC3 9095  42.720  34.601   9.307
  448POPC   PO4 9096  42.049  34.730   9.563
  448POPC   GL1 9097  42.229  34.642   9.162
  448POPC   GL2 9098  42.372  34.959   9.092
  448POPC   C1A 9099  42.305  34.339   8.784
  448POPC   D2A 9100  42.251  34.048   8.425
  448POPC   C3A 9101  42.478  34.153   8.064
  448POPC   C4A 9102  42.344  34.295   7.676
  448POPC   C1B 9103  42.542  34.794   8.704
  448POPC   C2B 9104  42.407  34.602   8.327
  448POPC   C3B 9105  42.126  34.646   7.982
  448POPC   C4B 9106  42.237  34.808   7.598
  449POPC   NC3 9107  31.990   3.818   9.466
  449POPC   PO4 9108  32.368   3.199   9.563
  449POPC   GL1 9109  32.338   3.501   9.255
  449POPC   GL2 9110  32.010   3.423   9.094
  449POPC   C1A 9111  32.371   3.648   8.821
  449POPC   D2A 9112  32.334   3.501   8.402
  449POPC   C3A 9113  32.054   3.631   8.086
  449POPC   C4A 9114  32.263   3.525   7.736
  449POPC   C1B 9115  31.878   3.471   8.661
  449POPC   C2B 9116  31.815   3.198   8.291
  449POPC   C3B 9117  31.892   3.195   7.832
  449POPC   C4B 9118  31.768   3.562   7.577
  450POPC   NC3 9119  31.935  38.670   9.434
  450POPC   PO4 9120  32.303  38.076   9.408
  450POPC   GL1 9121  32.251  38.381   9.144
  450POPC   GL2 9122  32.510  38.603   9.033
  450POPC   C1A 9123  32.144  38.324   8.760
  450POPC   D2A 9124  32.338  38.518   8.452
  450POPC   C3A 9125  32.300  38.267   8.146
  450POPC   C4A 9126  32.292  38.233   7.739
  450POPC   C1B 9127  32.144  38.828   8.841
  450POPC   C2B 9128  32.007  38.904   8.458
  450POPC   C3B 9129  32.099  38.740   8.044
  450POPC   C4B 9130  31.963  38.922   7.696
  451POPC   NC3 9131   0.266  26.848   9.664
  451POPC   PO4 9132   0.883  26.986   9.415
  451POPC   GL1 9133   0.497  26.823   9.174
  451POPC   GL2 9134   0.148  26.976   9.161
  451POPC   C1A 9135   0.538  26.606   8.766
  451POPC   D2A 9136   0.816  26.670   8.405
  451POPC   C3A 9137   0.657  26.553   7.999
  451POPC   C4A 9138   0.227  26.543   7.839
  451POPC   C1B 9139   0.245  27.035   8.738
  451POPC   C2B 9140   0.331  26.866   8.330
  451POPC   C3B 9141   0.385  27.039   7.940
  451POPC   C4B 9142   0.067  27.312   7.750
  452POPC   NC3 9143   1.033  25.393   9.482
  452POPC   PO4 9144   1.707  25.298   9.569
  452POPC   GL1 9145   1.661  25.379   9.134
  452POPC   GL2 9146   1.510  25.072   9.114
  452POPC   C1A 9147   1.473  25.308   8.683
  452POPC   D2A 9148   1.146  25.241   8.380
  452POPC   C3A 9149   1.342  25.245   7.992
  452POPC   C4A 9150   1.156  25.304   7.569
  452POPC   C1B 9151   1.294  24.827   8.799
  452POPC   C2B 9152   1.341  24.778   8.374
  452POPC   C3B 9153   1.070  24.827   8.033
  452POPC   C4B 9154   1.323  24.805   7.712
  453POPC   NC3 9155   1.835  44.168   9.594
  453POPC   PO4 9156   2.255  43.638   9.554
  453POPC   GL1 9157   2.022  43.847   9.229
  453POPC   GL2 9158   1.673  43.749   9.324
  453POPC   C1A 9159   2.152  43.998   8.821
  453POPC   D2A 9160   2.155  43.771   8.428
  453POPC   C3A 9161   2.258  43.948   8.025
  453POPC   C4A 9162   2.256  44.169   7.629
  453POPC   C1B 9163   1.650  43.755   8.875
  453POPC   C2B 9164   1.619  43.836   8.450
  453POPC   C3B 9165   1.775  43.727   8.069
  453POPC   C4B 9166   1.845  43.853   7.671
  454POPC   NC3 9167  34.760  39.452   9.720
  454POPC   PO4 9168  34.411  38.882   9.521
  454POPC   GL1 9169  34.433  39.087   9.108
  454POPC   GL2 9170  34.494  39.376   9.229
  454POPC   C1A 9171  34.702  39.017   8.708
  454POPC   D2A 9172  34.877  38.919   8.301
  454POPC   C3A 9173  34.633  39.180   8.007
  454POPC   C4A 9174  34.651  39.175   7.544
  454POPC   C1B 9175  34.584  39.508   8.799
  454POPC   C2B 9176  34.456  39.546   8.384
  454POPC   C3B 9177  34.191  39.496   8.057
  454POPC   C4B 9178  34.417  39.588   7.706
  455POPC   NC3 9179   6.701  33.266   9.687
  455POPC   PO4 9180   6.489  33.867   9.580
  455POPC   GL1 9181   6.667  33.790   9.204
  455POPC   GL2 9182   6.917  33.550   9.259
  455POPC   C1A 9183   6.452  33.739   8.820
  455POPC   D2A 9184   6.332  33.930   8.428
  455POPC   C3A 9185   6.356  33.720   8.032
  455POPC   C4A 9186   6.626  33.682   7.703
  455POPC   C1B 9187   6.831  33.376   8.841
  455POPC   C2B 9188   6.680  33.509   8.426
  455POPC   C3B 9189   6.794  33.351   8.030
  455POPC   C4B 9190   7.061  33.465   7.662
  456POPC   NC3 9191  20.319  35.586   9.381
  456POPC   PO4 9192  20.943  35.865   9.610
  456POPC   GL1 9193  20.841  36.150   9.270
  456POPC   GL2 9194  20.476  36.088   9.243
  456POPC   C1A 9195  20.734  36.259   8.826
  456POPC   D2A 9196  20.506  36.171   8.422
  456POPC   C3A 9197  20.819  36.162   8.100
  456POPC   C4A 9198  20.861  36.273   7.683
  456POPC   C1B 9199  20.322  35.929   8.843
  456POPC   C2B 9200  20.096  35.775   8.494
  456POPC   C3B 9201  20.306  35.783   8.113
  456POPC   C4B 9202  20.410  36.012   7.780
  457POPC   NC3 9203  35.860  13.184   9.614
  457POPC   PO4 9204  35.641  13.808   9.595
  457POPC   GL1 9205  35.923  13.715   9.191
  457POPC   GL2 9206  35.847  13.374   9.141
  457POPC   C1A 9207  36.083  13.563   8.734
  457POPC   D2A 9208  36.277  13.474   8.329
  457POPC   C3A 9209  36.075  13.586   7.918
  457POPC   C4A 9210  36.239  13.422   7.522
  457POPC   C1B 9211  35.644  13.308   8.752
  457POPC   C2B 9212  35.727  13.455   8.339
  457POPC   C3B 9213  35.550  13.420   7.935
  457POPC   C4B 9214  35.726  13.362   7.538
  458POPC   NC3 9215  37.339  23.743   9.578
  458POPC   PO4 9216  36.739  23.794   9.563
  458POPC   GL1 9217  36.981  23.852   9.204
  458POPC   GL2 9218  37.139  23.506   9.190
  458POPC   C1A 9219  36.836  23.934   8.787
  458POPC   D2A 9220  36.607  23.854   8.429
  458POPC   C3A 9221  36.880  23.862   8.064
  458POPC   C4A 9222  36.806  24.018   7.650
  458POPC   C1B 9223  36.852  23.434   8.886
  458POPC   C2B 9224  36.974  23.483   8.480
  458POPC   C3B 9225  36.942  23.349   8.093
  458POPC   C4B 9226  36.824  23.496   7.693
  459POPC   NC3 9227  29.167  17.894   9.312
  459POPC   PO4 9228  29.300  17.273   9.465
  459POPC   GL1 9229  29.393  17.485   9.054
  459POPC   GL2 9230  29.525  17.829   8.966
  459POPC   C1A 9231  29.351  17.505   8.588
  459POPC   D2A 9232  29.542  17.446   8.176
  459POPC   C3A 9233  29.347  17.514   7.759
  459POPC   C4A 9234  28.921  17.482   7.654
  459POPC   C1B 9235  29.133  17.971   8.701
  459POPC   C2B 9236  28.947  17.953   8.311
  459POPC   C3B 9237  29.074  17.919   7.897
  459POPC   C4B 9238  29.123  17.883   7.430
  460POPC   NC3 9239  30.798  11.428   9.412
  460POPC   PO4 9240  30.205  11.314   9.687
  460POPC   GL1 9241  30.342  11.308   9.214
  460POPC   GL2 9242  30.653  11.069   9.089
  460POPC   C1A 9243  30.512  11.427   8.786
  460POPC   D2A 9244  30.610  11.209   8.391
  460POPC   C3A 9245  30.788  11.400   8.047
  460POPC   C4A 9246  30.778  11.666   7.707
  460POPC   C1B 9247  30.974  11.070   8.774
  460POPC   C2B 9248  31.142  11.205   8.367
  460POPC   C3B 9249  31.155  11.074   7.912
  460POPC   C4B 9250  30.913  11.210   7.537
  461POPC   NC3 9251  30.006  38.456   9.687
  461POPC   PO4 9252  29.615  38.040   9.366
  461POPC   GL1 9253  29.913  38.311   9.188
  461POPC   GL2 9254  29.865  38.653   9.173
  461POPC   C1A 9255  30.119  38.408   8.804
  461POPC   D2A 9256  30.325  38.193   8.470
  461POPC   C3A 9257  30.186  38.347   8.069
  461POPC   C4A 9258  30.234  38.163   7.665
  461POPC   C1B 9259  29.674  38.694   8.772
  461POPC   C2B 9260  29.808  38.534   8.391
  461POPC   C3B 9261  29.663  38.483   7.999
  461POPC   C4B 9262  29.858  38.491   7.637
  462POPC   NC3 9263   4.604  42.571   9.529
  462POPC   PO4 9264   4.099  42.362   9.228
  462POPC   GL1 9265   4.278  42.454   8.937
  462POPC   GL2 9266   4.396  42.752   9.089
  462POPC   C1A 9267   4.211  42.189   8.612
  462POPC   D2A 9268   4.108  42.338   8.274
  462POPC   C3A 9269   4.190  42.045   7.934
  462POPC   C4A 9270   4.277  42.175   7.500
  462POPC   C1B 9271   4.556  42.788   8.690
  462POPC   C2B 9272   4.530  42.612   8.309
  462POPC   C3B 9273   4.419  42.497   7.894
  462POPC   C4B 9274   4.672  42.498   7.520
  463POPC   NC3 9275  22.946  31.603   9.674
  463POPC   PO4 9276  22.351  31.752   9.421
  463POPC   GL1 9277  22.735  31.725   9.203
  463POPC   GL2 9278  22.913  31.398   9.182
  463POPC   C1A 9279  22.998  31.771   8.833
  463POPC   D2A 9280  23.223  31.630   8.454
  463POPC   C3A 9281  23.022  31.605   8.049
  463POPC   C4A 9282  23.009  31.570   7.579
  463POPC   C1B 9283  22.939  31.259   8.722
  463POPC   C2B 9284  22.824  31.174   8.275
  463POPC   C3B 9285  22.988  31.141   7.842
  463POPC   C4B 9286  23.119  31.081   7.412
  464POPC   NC3 9287  22.446  41.183   9.370
  464POPC   PO4 9288  22.328  41.851   9.527
  464POPC   GL1 9289  22.092  41.851   9.157
  464POPC   GL2 9290  21.972  41.514   9.071
  464POPC   C1A 9291  22.061  41.892   8.724
  464POPC   D2A 9292  21.856  41.619   8.425
  464POPC   C3A 9293  22.107  41.720   8.079
  464POPC   C4A 9294  22.177  41.753   7.674
  464POPC   C1B 9295  22.227  41.381   8.705
  464POPC   C2B 9296  22.147  41.203   8.275
  464POPC   C3B 9297  22.101  41.228   7.819
  464POPC   C4B 9298  22.307  41.327   7.433
  465POPC   NC3 9299  15.772   8.739   9.325
  465POPC   PO4 9300  16.393   8.950   9.493
  465POPC   GL1 9301  16.135   9.025   9.102
  465POPC   GL2 9302  15.914   9.311   9.007
  465POPC   C1A 9303  16.056   8.960   8.646
  465POPC   D2A 9304  16.065   9.223   8.276
  465POPC   C3A 9305  16.212   9.025   7.898
  465POPC   C4A 9306  15.989   8.735   7.610
  465POPC   C1B 9307  15.566   9.173   8.754
  465POPC   C2B 9308  15.604   9.009   8.356
  465POPC   C3B 9309  15.706   9.087   7.929
  465POPC   C4B 9310  15.481   8.849   7.674
  466POPC   NC3 9311  18.079  15.201   9.566
  466POPC   PO4 9312  18.780  15.155   9.564
  466POPC   GL1 9313  18.547  15.251   9.172
  466POPC   GL2 9314  18.205  15.414   9.134
  466POPC   C1A 9315  18.545  15.433   8.752
  466POPC   D2A 9316  18.702  15.296   8.358
  466POPC   C3A 9317  18.494  15.307   7.949
  466POPC   C4A 9318  18.390  14.923   7.644
  466POPC   C1B 9319  18.107  15.100   8.835
  466POPC   C2B 9320  17.939  15.128   8.418
  466POPC   C3B 9321  18.064  15.034   8.012
  466POPC   C4B 9322  18.085  15.311   7.654
  467POPC   NC3 9323  38.911  36.827   9.425
  467POPC   PO4 9324  39.515  37.147   9.375
  467POPC   GL1 9325  39.487  36.892   9.040
  467POPC   GL2 9326  39.206  36.718   9.038
  467POPC   C1A 9327  39.367  36.999   8.635
  467POPC   D2A 9328  39.607  37.109   8.318
  467POPC   C3A 9329  39.616  37.033   7.890
  467POPC   C4A 9330  39.501  36.813   7.501
  467POPC   C1B 9331  39.040  36.587   8.688
  467POPC   C2B 9332  39.252  36.610   8.332
  467POPC   C3B 9333  39.185  36.807   7.995
  467POPC   C4B 9334  39.036  36.679   7.632
  468POPC   NC3 9335  34.320  25.504   9.414
  468POPC   PO4 9336  34.659  26.094   9.464
  468POPC   GL1 9337  34.689  25.824   9.105
  468POPC   GL2 9338  34.359  25.813   9.012
  468POPC   C1A 9339  34.729  25.927   8.663
  468POPC   D2A 9340  34.582  25.883   8.239
  468POPC   C3A 9341  34.744  26.229   8.023
  468POPC   C4A 9342  34.942  26.302   7.610
  468POPC   C1B 9343  34.227  25.760   8.586
  468POPC   C2B 9344  34.165  25.520   8.223
  468POPC   C3B 9345  34.215  25.609   7.761
  468POPC   C4B 9346  34.576  25.898   7.687
  469POPC   NC3 9347  39.875  16.178   9.574
  469POPC   PO4 9348  40.414  16.449   9.318
  469POPC   GL1 9349  40.239  16.069   9.155
  469POPC   GL2 9350  39.875  15.876   9.164
  469POPC   C1A 9351  40.127  15.954   8.746
  469POPC   D2A 9352  39.783  16.034   8.486
  469POPC   C3A 9353  40.059  15.885   8.135
  469POPC   C4A 9354  40.200  15.765   7.740
  469POPC   C1B 9355  39.821  15.556   8.789
  469POPC   C2B 9356  39.695  15.572   8.332
  469POPC   C3B 9357  39.692  15.640   7.874
  469POPC   C4B 9358  39.880  15.467   7.477
  470POPC   NC3 9359  39.958  43.431   9.432
  470POPC   PO4 9360  39.646  42.761   9.373
  470POPC   GL1 9361  39.807  42.912   9.035
  470POPC   GL2 9362  40.097  43.071   9.104
  470POPC   C1A 9363  39.939  42.899   8.637
  470POPC   D2A 9364  40.154  43.006   8.312
  470POPC   C3A 9365  39.955  42.923   7.949
  470POPC   C4A 9366  40.160  43.124   7.624
  470POPC   C1B 9367  40.089  43.384   8.792
  470POPC   C2B 9368  39.956  43.513   8.412
  470POPC   C3B 9369  40.089  43.432   8.010
  470POPC   C4B 9370  40.477  43.513   7.740
  471POPC   NC3 9371  32.972   1.616   9.274
  471POPC   PO4 9372  33.239   1.122   9.720
  471POPC   GL1 9373  33.233   1.072   9.203
  471POPC   GL2 9374  32.925   0.924   8.974
  471POPC   C1A 9375  33.322   1.190   8.728
  471POPC   D2A 9376  33.081   1.173   8.292
  471POPC   C3A 9377  33.343   1.265   7.908
  471POPC   C4A 9378  33.309   1.337   7.428
  471POPC   C1B 9379  32.837   1.331   8.720
  471POPC   C2B 9380  32.769   1.663   8.402
  471POPC   C3B 9381  32.906   1.591   7.991
  471POPC   C4B 9382  32.840   1.184   7.809
  472POPC   NC3 9383   7.663  10.223   9.479
  472POPC   PO4 9384   7.635   9.632   9.568
  472POPC   GL1 9385   7.420   9.859   9.172
  472POPC   GL2 9386   7.102  10.068   9.196
  472POPC   C1A 9387   7.316   9.729   8.722
  472POPC   D2A 9388   7.312   9.438   8.345
  472POPC   C3A 9389   7.467   9.642   7.980
  472POPC   C4A 9390   7.764   9.993   8.077
  472POPC   C1B 9391   6.859  10.015   8.808
  472POPC   C2B 9392   6.915   9.974   8.377
  472POPC   C3B 9393   7.033   9.934   7.963
  472POPC   C4B 9394   7.298   9.977   7.630
  473POPC   NC3 9395  28.839   7.891   9.408
  473POPC   PO4 9396  29.235   8.396   9.580
  473POPC   GL1 9397  29.246   8.310   9.153
  473POPC   GL2 9398  28.906   8.222   9.023
  473POPC   C1A 9399  29.306   8.302   8.714
  473POPC   D2A 9400  29.009   8.045   8.520
  473POPC   C3A 9401  29.180   8.017   8.154
  473POPC   C4A 9402  29.144   8.299   7.839
  473POPC   C1B 9403  28.883   8.571   8.735
  473POPC   C2B 9404  28.975   8.515   8.299
  473POPC   C3B 9405  28.752   8.662   7.930
  473POPC   C4B 9406  28.651   8.333   7.629
  474POPC   NC3 9407  33.824   0.079   9.500
  474POPC   PO4 9408  34.032   0.723   9.472
  474POPC   GL1 9409  33.970   0.437   9.175
  474POPC   GL2 9410  34.239   0.189   9.250
  474POPC   C1A 9411  33.735   0.341   8.812
  474POPC   D2A 9412  33.543   0.324   8.418
  474POPC   C3A 9413  33.745   0.342   8.055
  474POPC   C4A 9414  33.631   0.484   7.653
  474POPC   C1B 9415  34.143   0.035   8.846
  474POPC   C2B 9416  34.070   0.216   8.434
  474POPC   C3B 9417  34.206   0.121   8.048
  474POPC   C4B 9418  34.151   0.375   7.718
  475POPC   NC3 9419  19.687  18.704   9.546
  475POPC   PO4 9420  20.143  18.249   9.706
  475POPC   GL1 9421  20.034  18.366   9.247
  475POPC   GL2 9422  19.880  18.075   9.108
  475POPC   C1A 9423  19.885  18.513   8.799
  475POPC   D2A 9424  19.842  18.314   8.375
  475POPC   C3A 9425  19.845  18.468   7.934
  475POPC   C4A 9426  19.783  18.311   7.512
  475POPC   C1B 9427  19.742  17.836   8.732
  475POPC   C2B 9428  19.548  17.912   8.317
  475POPC   C3B 9429  19.752  17.965   7.912
  475POPC   C4B 9430  19.610  17.845   7.506
  476POPC   NC3 9431  42.694  13.720   9.226
  476POPC   PO4 9432  43.387  13.462   9.329
  476POPC   GL1 9433  43.169  13.647   9.065
  476POPC   GL2 9434  42.993  13.358   9.001
  476POPC   C1A 9435  43.000  13.756   8.662
  476POPC   D2A 9436  43.183  13.589   8.337
  476POPC   C3A 9437  43.006  13.535   7.954
  476POPC   C4A 9438  42.789  13.856   7.768
  476POPC   C1B 9439  43.317  13.248   8.726
  476POPC   C2B 9440  43.476  13.186   8.344
  476POPC   C3B 9441  43.283  13.103   7.980
  476POPC   C4B 9442  43.318  13.248   7.610
  477POPC   NC3 9443  16.471  10.868   9.491
  477POPC   PO4 9444  16.915  10.439   9.624
  477POPC   GL1 9445  16.743  10.462   9.189
  477POPC   GL2 9446  16.417  10.502   9.154
  477POPC   C1A 9447  16.605  10.354   8.727
  477POPC   D2A 9448  16.877  10.483   8.411
  477POPC   C3A 9449  16.759  10.371   8.040
  477POPC   C4A 9450  16.872  10.592   7.715
  477POPC   C1B 9451  16.583  10.839   8.843
  477POPC   C2B 9452  16.473  10.793   8.403
  477POPC   C3B 9453  16.554  10.905   7.996
  477POPC   C4B 9454  16.377  10.881   7.569
  478POPC   NC3 9455  22.837   7.749   9.356
  478POPC   PO4 9456  23.066   8.336   9.603
  478POPC   GL1 9457  22.916   8.320   9.195
  478POPC   GL2 9458  22.990   8.032   8.964
  478POPC   C1A 9459  22.878   8.494   8.801
  478POPC   D2A 9460  22.713   8.355   8.452
  478POPC   C3A 9461  22.891   8.301   8.068
  478POPC   C4A 9462  22.715   8.243   7.668
  478POPC   C1B 9463  23.309   7.816   8.717
  478POPC   C2B 9464  23.482   7.772   8.298
  478POPC   C3B 9465  23.280   7.976   7.949
  478POPC   C4B 9466  23.118   7.942   7.525
  479POPC   NC3 9467  30.472  26.761   9.568
  479POPC   PO4 9468  30.954  26.286   9.405
  479POPC   GL1 9469  30.826  26.668   9.183
  479POPC   GL2 9470  30.865  27.025   9.069
  479POPC   C1A 9471  30.873  26.615   8.744
  479POPC   D2A 9472  31.039  26.322   8.404
  479POPC   C3A 9473  30.811  26.415   8.048
  479POPC   C4A 9474  30.464  26.622   7.885
  479POPC   C1B 9475  30.728  27.146   8.629
  479POPC   C2B 9476  30.588  27.010   8.217
  479POPC   C3B 9477  30.849  26.946   7.831
  479POPC   C4B 9478  30.999  26.973   7.406
  480POPC   NC3 9479  28.134   6.963   9.571
  480POPC   PO4 9480  28.460   7.620   9.537
  480POPC   GL1 9481  28.410   7.358   9.130
  480POPC   GL2 9482  28.424   6.973   9.136
  480POPC   C1A 9483  28.550   7.264   8.659
  480POPC   D2A 9484  28.344   7.360   8.252
  480POPC   C3A 9485  28.537   7.552   7.920
  480POPC   C4A 9486  28.735   7.942   7.935
  480POPC   C1B 9487  28.101   7.092   8.814
  480POPC   C2B 9488  28.074   6.952   8.382
  480POPC   C3B 9489  28.247   6.959   7.958
  480POPC   C4B 9490  28.266   7.123   7.540
  481POPC   NC3 9491  17.087   0.457   9.423
  481POPC   PO4 9492  16.587   0.896   9.648
  481POPC   GL1 9493  16.672   0.724   9.211
  481POPC   GL2 9494  16.717   0.344   9.108
  481POPC   C1A 9495  16.901   0.697   8.809
  481POPC   D2A 9496  16.938   0.365   8.494
  481POPC   C3A 9497  16.873   0.579   8.111
  481POPC   C4A 9498  17.057   0.543   7.724
  481POPC   C1B 9499  16.496   0.207   8.783
  481POPC   C2B 9500  16.440   0.498   8.470
  481POPC   C3B 9501  16.263   0.401   8.096
  481POPC   C4B 9502  16.557   0.332   7.800
  482POPC   NC3 9503  35.909  31.790   9.297
  482POPC   PO4 9504  36.020  32.420   9.449
  482POPC   GL1 9505  36.212  32.170   9.150
  482POPC   GL2 9506  35.887  32.203   8.987
  482POPC   C1A 9507  36.355  32.286   8.754
  482POPC   D2A 9508  36.211  32.487   8.383
  482POPC   C3A 9509  36.388  32.372   7.996
  482POPC   C4A 9510  36.240  32.374   7.608
  482POPC   C1B 9511  36.025  31.916   8.672
  482POPC   C2B 9512  36.238  31.971   8.277
  482POPC   C3B 9513  36.059  31.854   7.874
  482POPC   C4B 9514  36.024  31.791   7.404
  483POPC   NC3 9515  33.826  22.026   9.884
  483POPC   PO4 9516  33.723  22.628   9.652
  483POPC   GL1 9517  33.736  22.494   9.210
  483POPC   GL2 9518  34.074  22.454   9.139
  483POPC   C1A 9519  33.701  22.331   8.777
  483POPC   D2A 9520  33.876  22.373   8.336
  483POPC   C3A 9521  33.679  22.013   8.136
  483POPC   C4A 9522  33.620  21.945   7.689
  483POPC   C1B 9523  34.200  22.364   8.734
  483POPC   C2B 9524  34.159  21.953   8.464
  483POPC   C3B 9525  34.123  21.800   8.041
  483POPC   C4B 9526  34.047  22.194   7.832
  484POPC   NC3 9527  24.955  15.755   9.422
  484POPC   PO4 9528  24.445  16.265   9.547
  484POPC   GL1 9529  24.354  16.070   9.116
  484POPC   GL2 9530  24.559  15.783   9.090
  484POPC   C1A 9531  24.231  15.921   8.700
  484POPC   D2A 9532  24.451  16.081   8.341
  484POPC   C3A 9533  24.342  15.920   7.989
  484POPC   C4A 9534  24.581  16.041   7.681
  484POPC   C1B 9535  24.737  16.051   8.773
  484POPC   C2B 9536  25.007  15.957   8.427
  484POPC   C3B 9537  24.833  15.745   8.051
  484POPC   C4B 9538  24.878  15.596   7.634
  485POPC   NC3 9539  29.700   1.732   9.788
  485POPC   PO4 9540  29.938   1.214   9.495
  485POPC   GL1 9541  29.946   1.139   9.079
  485POPC   GL2 9542  29.983   1.507   9.055
  485POPC   C1A 9543  29.816   1.195   8.679
  485POPC   D2A 9544  30.032   1.046   8.359
  485POPC   C3A 9545  29.940   1.244   8.009
  485POPC   C4A 9546  29.584   1.223   7.745
  485POPC   C1B 9547  30.281   1.434   8.722
  485POPC   C2B 9548  30.303   1.504   8.284
  485POPC   C3B 9549  30.305   1.567   7.843
  485POPC   C4B 9550  29.984   1.472   7.545
  486POPC   NC3 9551  37.267  39.811   9.298
  486POPC   PO4 9552  37.873  39.930   9.542
  486POPC   GL1 9553  37.704  40.149   9.212
  486POPC   GL2 9554  37.412  40.355   9.303
  486POPC   C1A 9555  37.713  39.944   8.805
  486POPC   D2A 9556  37.553  39.772   8.446
  486POPC   C3A 9557  37.839  39.635   8.152
  486POPC   C4A 9558  37.920  39.596   7.720
  486POPC   C1B 9559  37.402  40.350   8.847
  486POPC   C2B 9560  37.378  40.282   8.387
  486POPC   C3B 9561  37.565  40.068   8.027
  486POPC   C4B 9562  37.448  40.275   7.657
  487POPC   NC3 9563   3.225  39.184   9.457
  487POPC   PO4 9564   2.641  39.295   9.721
  487POPC   GL1 9565   2.463  39.200   9.291
  487POPC   GL2 9566   2.455  39.532   9.113
  487POPC   C1A 9567   2.531  39.140   8.823
  487POPC   D2A 9568   2.763  39.177   8.438
  487POPC   C3A 9569   2.588  38.863   8.132
  487POPC   C4A 9570   2.579  38.934   7.693
  487POPC   C1B 9571   2.621  39.620   8.696
  487POPC   C2B 9572   2.488  39.646   8.284
  487POPC   C3B 9573   2.609  39.353   7.978
  487POPC   C4B 9574   2.997  39.136   7.942
  488POPC   NC3 9575  18.625  40.272   9.342
  488POPC   PO4 9576  18.101  39.747   9.486
  488POPC   GL1 9577  18.200  40.051   9.131
  488POPC   GL2 9578  18.415  39.836   8.958
  488POPC   C1A 9579  18.384  40.253   8.717
  488POPC   D2A 9580  18.598  40.313   8.308
  488POPC   C3A 9581  18.316  40.317   7.967
  488POPC   C4A 9582  18.071  40.072   7.726
  488POPC   C1B 9583  18.045  39.839   8.680
  488POPC   C2B 9584  18.158  39.767   8.251
  488POPC   C3B 9585  18.551  39.846   8.031
  488POPC   C4B 9586  18.520  39.788   7.621
  489POPC   NC3 9587  35.368   1.556   9.779
  489POPC   PO4 9588  34.969   1.054   9.579
  489POPC   GL1 9589  35.109   1.244   9.206
  489POPC   GL2 9590  35.396   1.500   9.261
  489POPC   C1A 9591  35.026   1.143   8.770
  489POPC   D2A 9592  35.328   1.217   8.444
  489POPC   C3A 9593  35.189   1.064   8.056
  489POPC   C4A 9594  35.469   0.965   7.759
  489POPC   C1B 9595  35.249   1.587   8.843
  489POPC   C2B 9596  34.954   1.596   8.483
  489POPC   C3B 9597  35.073   1.566   8.048
  489POPC   C4B 9598  35.453   1.541   7.800
  490POPC   NC3 9599  26.702  32.752   9.510
  490POPC   PO4 9600  27.140  33.201   9.725
  490POPC   GL1 9601  26.963  33.083   9.226
  490POPC   GL2 9602  26.587  32.944   9.047
  490POPC   C1A 9603  26.997  32.830   8.824
  490POPC   D2A 9604  26.720  32.782   8.471
  490POPC   C3A 9605  26.936  32.815   8.101
  490POPC   C4A 9606  26.914  33.064   7.719
  490POPC   C1B 9607  26.601  33.235   8.676
  490POPC   C2B 9608  26.665  33.235   8.204
  490POPC   C3B 9609  26.467  33.277   7.809
  490POPC   C4B 9610  26.570  33.318   7.373
  491POPC   NC3 9611  32.646  19.905   9.366
  491POPC   PO4 9612  32.278  19.371   9.432
  491POPC   GL1 9613  32.201  19.701   9.134
  491POPC   GL2 9614  31.840  19.665   9.120
  491POPC   C1A 9615  32.397  19.817   8.729
  491POPC   D2A 9616  32.340  20.010   8.295
  491POPC   C3A 9617  32.354  19.700   7.976
  491POPC   C4A 9618  32.716  19.750   7.750
  491POPC   C1B 9619  31.954  19.593   8.670
  491POPC   C2B 9620  31.916  19.724   8.246
  491POPC   C3B 9621  31.874  19.807   7.809
  491POPC   C4B 9622  31.913  20.166   7.581
  492POPC   NC3 9623  28.933  39.728   9.838
  492POPC   PO4 9624  29.487  40.032   9.595
  492POPC   GL1 9625  29.207  40.089   9.200
  492POPC   GL2 9626  28.963  40.362   9.265
  492POPC   C1A 9627  29.094  39.860   8.789
  492POPC   D2A 9628  29.046  39.712   8.373
  492POPC   C3A 9629  29.298  39.823   8.029
  492POPC   C4A 9630  29.485  40.022   7.687
  492POPC   C1B 9631  28.886  40.316   8.820
  492POPC   C2B 9632  29.047  40.230   8.391
  492POPC   C3B 9633  29.145  40.321   7.943
  492POPC   C4B 9634  29.002  40.143   7.552
  493POPC   NC3 9635  42.479  19.313   9.523
  493POPC   PO4 9636  41.912  19.484   9.233
  493POPC   GL1 9637  42.152  19.772   9.037
  493POPC   GL2 9638  42.455  19.783   9.242
  493POPC   C1A 9639  42.231  19.787   8.594
  493POPC   D2A 9640  42.092  19.732   8.157
  493POPC   C3A 9641  42.235  19.525   7.780
  493POPC   C4A 9642  42.064  19.575   7.332
  493POPC   C1B 9643  42.645  19.976   8.888
  493POPC   C2B 9644  42.725  19.998   8.441
  493POPC   C3B 9645  42.690  20.081   7.993
  493POPC   C4B 9646  42.667  19.787   7.641
  494POPC   NC3 9647  13.005  38.159   9.306
  494POPC   PO4 9648  12.690  37.566   9.457
  494POPC   GL1 9649  12.971  37.627   9.127
  494POPC   GL2 9650  13.326  37.805   9.115
  494POPC   C1A 9651  12.746  37.560   8.746
  494POPC   D2A 9652  12.781  37.398   8.355
  494POPC   C3A 9653  12.519  37.623   8.096
  494POPC   C4A 9654  12.686  37.808   7.735
  494POPC   C1B 9655  13.156  37.878   8.730
  494POPC   C2B 9656  12.927  37.897   8.368
  494POPC   C3B 9657  13.131  37.788   8.010
  494POPC   C4B 9658  13.243  38.009   7.666
  495POPC   NC3 9659   1.891  16.409   9.466
  495POPC   PO4 9660   2.126  17.060   9.736
  495POPC   GL1 9661   2.193  16.786   9.278
  495POPC   GL2 9662   1.988  16.544   8.997
  495POPC   C1A 9663   2.304  16.900   8.840
  495POPC   D2A 9664   2.040  16.763   8.520
  495POPC   C3A 9665   2.134  16.742   8.103
  495POPC   C4A 9666   2.250  16.683   7.688
  495POPC   C1B 9667   1.664  16.444   8.673
  495POPC   C2B 9668   1.581  16.705   8.273
  495POPC   C3B 9669   1.690  16.686   7.827
  495POPC   C4B 9670   1.484  16.491   7.477
  496POPC   NC3 9671  18.177  30.306   9.536
  496POPC   PO4 9672  18.346  29.592   9.402
  496POPC   GL1 9673  18.415  30.016   9.149
  496POPC   GL2 9674  18.087  30.207   9.070
  496POPC   C1A 9675  18.422  30.158   8.689
  496POPC   D2A 9676  18.201  30.097   8.293
  496POPC   C3A 9677  18.499  29.901   8.039
  496POPC   C4A 9678  18.593  29.925   7.629
  496POPC   C1B 9679  17.900  30.163   8.718
  496POPC   C2B 9680  17.834  29.784   8.456
  496POPC   C3B 9681  18.048  29.663   8.066
  496POPC   C4B 9682  18.067  29.972   7.739
  497POPC   NC3 9683  28.675  42.783   9.650
  497POPC   PO4 9684  28.483  43.453   9.789
  497POPC   GL1 9685  28.394  43.128   9.376
  497POPC   GL2 9686  28.111  42.882   9.268
  497POPC   C1A 9687  28.423  43.066   8.901
  497POPC   D2A 9688  28.697  42.863   8.580
  497POPC   C3A 9689  28.590  42.947   8.150
  497POPC   C4A 9690  28.381  43.152   7.802
  497POPC   C1B 9691  28.020  42.766   8.801
  497POPC   C2B 9692  28.089  42.886   8.337
  497POPC   C3B 9693  27.924  42.939   7.896
  497POPC   C4B 9694  28.120  42.826   7.485
  498POPC   NC3 9695  43.252  15.696   9.770
  498POPC   PO4 9696  42.709  15.627   9.500
  498POPC   GL1 9697  42.958  15.858   9.173
  498POPC   GL2 9698  43.237  15.646   9.223
  498POPC   C1A 9699  43.016  16.124   8.763
  498POPC   D2A 9700  42.962  16.002   8.328
  498POPC   C3A 9701  42.864  16.233   7.968
  498POPC   C4A 9702  42.960  16.015   7.603
  498POPC   C1B 9703  43.469  15.888   8.867
  498POPC   C2B 9704  43.455  15.951   8.431
  498POPC   C3B 9705  43.349  15.937   7.980
  498POPC   C4B 9706  43.485  16.068   7.570
  499POPC   NC3 9707  34.336  44.788   9.892
  499POPC   PO4 9708  33.673  44.632   9.720
  499POPC   GL1 9709  33.711  44.482   9.279
  499POPC   GL2 9710  33.375  44.328   9.212
  499POPC   C1A 9711  33.919  44.566   8.850
  499POPC   D2A 9712  33.722  44.858   8.536
  499POPC   C3A 9713  33.807  44.791   8.079
  499POPC   C4A 9714  33.778   0.003   7.679
  499POPC   C1B 9715  33.430  44.492   8.776
  499POPC   C2B 9716  33.624  44.380   8.370
  499POPC   C3B 9717  33.437  44.412   7.973
  499POPC   C4B 9718  33.443  44.637   7.609
  500POPC   NC3 9719   6.459  10.588   9.546
  500POPC   PO4 9720   6.623   9.932   9.434
  500POPC   GL1 9721   6.611  10.316   9.145
  500POPC   GL2 9722   6.886  10.562   9.132
  500POPC   C1A 9723   6.498  10.426   8.721
  500POPC   D2A 9724   6.391  10.170   8.343
  500POPC   C3A 9725   6.213  10.404   7.989
  500POPC   C4A 9726   6.367  10.802   7.824
  500POPC   C1B 9727   7.160  10.786   8.800
  500POPC   C2B 9728   7.214  10.811   8.335
  500POPC   C3B 9729   6.862  10.762   8.028
  500POPC   C4B 9730   6.695  10.334   7.920
  501POPC   NC3 9731   1.722  17.888   9.372
  501POPC   PO4 9732   1.265  17.398   9.539
  501POPC   GL1 9733   1.367  17.316   9.140
  501POPC   GL2 9734   1.019  17.441   9.051
  501POPC   C1A 9735   1.279  17.154   8.742
  501POPC   D2A 9736   1.265  17.377   8.370
  501POPC   C3A 9737   1.575  17.382   8.078
  501POPC   C4A 9738   1.514  17.387   7.659
  501POPC   C1B 9739   1.356  17.681   8.771
  501POPC   C2B 9740   1.423  17.852   8.311
  501POPC   C3B 9741   1.176  17.705   7.936
  501POPC   C4B 9742   1.148  17.772   7.459
  502POPC   NC3 9743  23.892  34.575   9.461
  502POPC   PO4 9744  23.272  34.692   9.274
  502POPC   GL1 9745  23.616  34.632   9.033
  502POPC   GL2 9746  23.783  34.959   9.130
  502POPC   C1A 9747  23.633  34.402   8.646
  502POPC   D2A 9748  23.835  34.292   8.264
  502POPC   C3A 9749  23.536  34.431   7.970
  502POPC   C4A 9750  23.346  34.650   7.659
  502POPC   C1B 9751  23.613  35.038   8.718
  502POPC   C2B 9752  23.558  34.797   8.353
  502POPC   C3B 9753  23.860  34.792   8.044
  502POPC   C4B 9754  23.879  35.009   7.682
  503POPC   NC3 9755  33.509  42.520   9.442
  503POPC   PO4 9756  34.039  42.090   9.449
  503POPC   GL1 9757  33.840  42.295   9.101
  503POPC   GL2 9758  33.955  42.639   9.156
  503POPC   C1A 9759  33.730  42.216   8.657
  503POPC   D2A 9760  33.922  42.161   8.240
  503POPC   C3A 9761  33.689  42.344   7.887
  503POPC   C4A 9762  33.655  42.171   7.433
  503POPC   C1B 9763  34.100  42.559   8.738
  503POPC   C2B 9764  34.053  42.638   8.322
  503POPC   C3B 9765  34.186  42.533   7.929
  503POPC   C4B 9766  33.983  42.560   7.535
  504POPC   NC3 9767   9.339   0.650   9.502
  504POPC   PO4 9768   8.659   0.614   9.583
  504POPC   GL1 9769   8.767   0.409   9.190
  504POPC   GL2 9770   9.101   0.424   9.093
  504POPC   C1A 9771   8.691   0.369   8.736
  504POPC   D2A 9772   8.881   0.376   8.307
  504POPC   C3A 9773   8.703   0.148   7.934
  504POPC   C4A 9774   8.808   0.464   7.717
  504POPC   C1B 9775   9.207   0.533   8.701
  504POPC   C2B 9776   9.384   0.546   8.313
  504POPC   C3B 9777   9.305   0.420   7.898
  504POPC   C4B 9778   9.283   0.649   7.499
  505POPC   NC3 9779   5.335  33.390   9.503
  505POPC   PO4 9780   5.179  32.675   9.515
  505POPC   GL1 9781   5.200  32.954   9.196
  505POPC   GL2 9782   4.885  33.121   9.221
  505POPC   C1A 9783   5.318  32.872   8.784
  505POPC   D2A 9784   5.328  32.542   8.474
  505POPC   C3A 9785   5.291  32.757   8.096
  505POPC   C4A 9786   4.973  32.810   7.824
  505POPC   C1B 9787   4.857  33.155   8.768
  505POPC   C2B 9788   4.808  33.045   8.304
  505POPC   C3B 9789   4.933  33.302   7.933
  505POPC   C4B 9790   5.122  33.230   7.541
  506POPC   NC3 9791  21.193  33.984   9.463
  506POPC   PO4 9792  21.677  33.463   9.592
  506POPC   GL1 9793  21.484  33.639   9.223
  506POPC   GL2 9794  21.253  33.424   9.106
  506POPC   C1A 9795  21.401  33.869   8.827
  506POPC   D2A 9796  21.565  33.905   8.374
  506POPC   C3A 9797  21.296  33.907   8.017
  506POPC   C4A 9798  21.254  34.017   7.579
  506POPC   C1B 9799  21.480  33.371   8.741
  506POPC   C2B 9800  21.332  33.443   8.325
  506POPC   C3B 9801  21.478  33.217   7.986
  506POPC   C4B 9802  21.407  33.533   7.703
  507POPC   NC3 9803   1.727  15.769   9.517
  507POPC   PO4 9804   2.229  16.082   9.560
  507POPC   GL1 9805   2.044  16.018   9.156
  507POPC   GL2 9806   1.709  16.083   9.109
  507POPC   C1A 9807   2.061  16.109   8.723
  507POPC   D2A 9808   2.253  15.889   8.391
  507POPC   C3A 9809   2.005  15.767   8.035
  507POPC   C4A 9810   2.226  15.771   7.647
  507POPC   C1B 9811   1.605  15.870   8.760
  507POPC   C2B 9812   1.687  16.004   8.371
  507POPC   C3B 9813   1.542  16.228   8.054
  507POPC   C4B 9814   1.644  15.999   7.719
  508POPC   NC3 9815   3.976  23.520   9.485
  508POPC   PO4 9816   4.678  23.474   9.639
  508POPC   GL1 9817   4.339  23.376   9.185
  508POPC   GL2 9818   4.215  23.688   9.077
  508POPC   C1A 9819   4.424  23.418   8.688
  508POPC   D2A 9820   4.255  23.667   8.337
  508POPC   C3A 9821   4.442  23.680   7.919
  508POPC   C4A 9822   4.455  23.500   7.484
  508POPC   C1B 9823   4.097  24.003   8.827
  508POPC   C2B 9824   3.911  24.038   8.445
  508POPC   C3B 9825   4.131  24.102   8.050
  508POPC   C4B 9826   4.061  23.911   7.663
  509POPC   NC3 9827   9.860  25.849   9.926
  509POPC   PO4 9828   9.556  25.879   9.264
  509POPC   GL1 9829   9.860  26.026   9.017
  509POPC   GL2 9830  10.143  26.131   9.226
  509POPC   C1A 9831   9.830  26.043   8.571
  509POPC   D2A 9832   9.723  25.929   8.161
  509POPC   C3A 9833   9.520  26.242   7.901
  509POPC   C4A 9834   9.600  25.931   7.598
  509POPC   C1B 9835  10.303  26.117   8.799
  509POPC   C2B 9836  10.270  26.325   8.403
  509POPC   C3B 9837   9.958  26.422   8.120
  509POPC   C4B 9838   9.966  26.302   7.707
  510POPC   NC3 9839   0.105  22.102   9.472
  510POPC   PO4 9840   0.460  22.667   9.598
  510POPC   GL1 9841   0.593  22.607   9.179
  510POPC   GL2 9842   0.354  22.717   9.019
  510POPC   C1A 9843   0.729  22.552   8.719
  510POPC   D2A 9844   0.536  22.396   8.329
  510POPC   C3A 9845   0.790  22.321   7.971
  510POPC   C4A 9846   0.774  22.366   7.537
  510POPC   C1B 9847   0.275  22.274   8.848
  510POPC   C2B 9848   0.469  21.940   8.607
  510POPC   C3B 9849   0.546  21.869   8.165
  510POPC   C4B 9850   0.376  22.038   7.782
  511POPC   NC3 9851   8.536  31.864   9.533
  511POPC   PO4 9852   8.981  32.345   9.571
  511POPC   GL1 9853   9.091  32.368   9.153
  511POPC   GL2 9854   8.989  32.036   9.111
  511POPC   C1A 9855   9.182  32.472   8.744
  511POPC   D2A 9856   9.081  32.575   8.293
  511POPC   C3A 9857   9.016  32.214   8.033
  511POPC   C4A 9858   8.592  32.095   7.853
  511POPC   C1B 9859   8.916  32.049   8.666
  511POPC   C2B 9860   8.787  31.833   8.289
  511POPC   C3B 9861   8.949  31.730   7.890
  511POPC   C4B 9862   9.198  31.865   7.535
  512POPC   NC3 9863  28.754   6.287   9.619
  512POPC   PO4 9864  28.128   6.501   9.502
  512POPC   GL1 9865  28.472   6.439   9.222
  512POPC   GL2 9866  28.264   6.322   9.043
  512POPC   C1A 9867  28.706   6.450   8.806
  512POPC   D2A 9868  28.732   6.772   8.456
  512POPC   C3A 9869  28.672   6.635   8.000
  512POPC   C4A 9870  28.468   6.656   7.577
  512POPC   C1B 9871  28.235   6.609   8.739
  512POPC   C2B 9872  28.298   6.487   8.326
  512POPC   C3B 9873  28.092   6.478   7.919
  512POPC   C4B 9874  27.958   6.707   7.564
  513POPC   NC3 9875  14.577  40.072   9.555
  513POPC   PO4 9876  14.236  39.622   9.247
  513POPC   GL1 9877  14.367  39.911   8.967
  513POPC   GL2 9878  14.422  40.236   9.084
  513POPC   C1A 9879  14.473  39.798   8.554
  513POPC   D2A 9880  14.790  39.864   8.239
  513POPC   C3A 9881  14.586  39.789   7.857
  513POPC   C4A 9882  14.103  39.740   7.764
  513POPC   C1B 9883  14.655  40.268   8.679
  513POPC   C2B 9884  14.413  40.229   8.277
  513POPC   C3B 9885  14.280  40.208   7.822
  513POPC   C4B 9886  14.207  40.433   7.420
  514POPC   NC3 9887  16.408  35.048   9.449
  514POPC   PO4 9888  16.644  34.429   9.439
  514POPC   GL1 9889  16.706  34.738   9.117
  514POPC   GL2 9890  16.808  34.461   8.955
  514POPC   C1A 9891  16.819  34.912   8.739
  514POPC   D2A 9892  16.681  34.583   8.445
  514POPC   C3A 9893  16.636  34.858   8.110
  514POPC   C4A 9894  16.698  35.011   7.711
  514POPC   C1B 9895  16.400  34.320   8.819
  514POPC   C2B 9896  16.245  34.205   8.423
  514POPC   C3B 9897  16.421  34.289   8.030
  514POPC   C4B 9898  16.492  34.569   7.715
  515POPC   NC3 9899  34.479  23.468   9.482
  515POPC   PO4 9900  34.462  24.134   9.571
  515POPC   GL1 9901  34.573  23.908   9.177
  515POPC   GL2 9902  34.329  23.643   9.042
  515POPC   C1A 9903  34.612  23.969   8.708
  515POPC   D2A 9904  34.925  23.757   8.442
  515POPC   C3A 9905  34.894  23.791   8.011
  515POPC   C4A 9906  34.538  23.927   7.761
  515POPC   C1B 9907  34.652  23.485   8.808
  515POPC   C2B 9908  34.432  23.466   8.461
  515POPC   C3B 9909  34.397  23.541   8.069
  515POPC   C4B 9910  34.675  23.412   7.763
  516POPC   NC3 9911  12.659  43.530   9.714
  516POPC   PO4 9912  12.998  44.092   9.544
  516POPC   GL1 9913  12.646  43.935   9.290
  516POPC   GL2 9914  12.658  43.580   9.189
  516POPC   C1A 9915  12.685  43.982   8.845
  516POPC   D2A 9916  12.918  43.934   8.448
  516POPC   C3A 9917  12.694  43.741   8.094
  516POPC   C4A 9918  12.663  44.070   7.783
  516POPC   C1B 9919  12.884  43.527   8.789
  516POPC   C2B 9920  13.050  43.425   8.371
  516POPC   C3B 9921  13.183  43.576   7.962
  516POPC   C4B 9922  12.879  43.634   7.616
  517POPC   NC3 9923  23.358  12.757   9.496
  517POPC   PO4 9924  22.694  12.684   9.575
  517POPC   GL1 9925  22.902  12.844   9.217
  517POPC   GL2 9926  23.129  13.058   9.127
  517POPC   C1A 9927  22.764  12.954   8.802
  517POPC   D2A 9928  22.852  12.762   8.465
  517POPC   C3A 9929  22.852  12.931   8.099
  517POPC   C4A 9930  22.843  12.789   7.676
  517POPC   C1B 9931  23.296  12.835   8.766
  517POPC   C2B 9932  23.340  12.850   8.299
  517POPC   C3B 9933  23.321  12.733   7.848
  517POPC   C4B 9934  23.347  12.895   7.429
  518POPC   NC3 9935  43.415   7.219   9.522
  518POPC   PO4 9936  42.712   7.203   9.510
  518POPC   GL1 9937  43.001   7.450   9.247
  518POPC   GL2 9938  43.214   7.255   9.066
  518POPC   C1A 9939  42.970   7.626   8.809
  518POPC   D2A 9940  43.138   7.699   8.393
  518POPC   C3A 9941  43.116   7.452   8.017
  518POPC   C4A 9942  43.107   7.577   7.571
  518POPC   C1B 9943  43.412   7.339   8.691
  518POPC   C2B 9944  43.296   7.086   8.351
  518POPC   C3B 9945  43.428   6.995   7.965
  518POPC   C4B 9946  43.536   7.359   7.739
  519POPC   NC3 9947  43.287  28.033   9.664
  519POPC   PO4 9948  43.005  28.599   9.721
  519POPC   GL1 9949  43.020  28.379   9.310
  519POPC   GL2 9950  43.367  28.350   9.223
  519POPC   C1A 9951  42.994  28.163   8.886
  519POPC   D2A 9952  43.132  28.118   8.432
  519POPC   C3A 9953  42.893  28.278   8.065
  519POPC   C4A 9954  42.786  28.004   7.699
  519POPC   C1B 9955  43.525  28.574   8.834
  519POPC   C2B 9956  43.444  28.520   8.390
  519POPC   C3B 9957  43.269  28.653   7.989
  519POPC   C4B 9958  43.112  28.477   7.604
  520POPC   NC3 9959  25.052  20.710   9.386
  520POPC   PO4 9960  25.428  20.166   9.535
  520POPC   GL1 9961  25.471  20.473   9.179
  520POPC   GL2 9962  25.472  20.872   9.144
  520POPC   C1A 9963  25.489  20.523   8.749
  520POPC   D2A 9964  25.268  20.326   8.437
  520POPC   C3A 9965  25.473  20.491   8.110
  520POPC   C4A 9966  25.595  20.342   7.739
  520POPC   C1B 9967  25.151  20.914   8.804
  520POPC   C2B 9968  25.273  20.901   8.417
  520POPC   C3B 9969  25.084  20.825   8.081
  520POPC   C4B 9970  25.159  20.603   7.705
  521POPC   NC3 9971   0.180  16.686   9.530
  521POPC   PO4 9972   0.784  16.346   9.544
  521POPC   GL1 9973   0.704  16.700   9.250
  521POPC   GL2 9974   0.393  16.641   9.072
  521POPC   C1A 9975   0.757  16.893   8.815
  521POPC   D2A 9976   0.510  16.937   8.407
  521POPC   C3A 9977   0.582  16.712   8.037
  521POPC   C4A 9978   0.723  16.935   7.714
  521POPC   C1B 9979   0.123  16.677   8.724
  521POPC   C2B 9980   0.139  16.625   8.313
  521POPC   C3B 9981   0.047  16.797   7.972
  521POPC   C4B 9982   0.234  16.871   7.570
  522POPC   NC3 9983   7.261  24.453   9.575
  522POPC   PO4 9984   7.724  24.061   9.520
  522POPC   GL1 9985   7.609  24.402   9.185
  522POPC   GL2 9986   7.242  24.528   9.088
  522POPC   C1A 9987   7.797  24.658   8.864
  522POPC   D2A 9988   7.950  24.669   8.413
  522POPC   C3A 9989   7.665  24.639   8.045
  522POPC   C4A 9990   7.322  24.441   7.815
  522POPC   C1B 9991   7.326  24.516   8.681
  522POPC   C2B 9992   7.285  24.742   8.320
  522POPC   C3B 9993   7.017  24.803   7.941
  522POPC   C4B 9994   6.898  24.532   7.544
  523POPC   NC3 9995  39.107  39.681   9.505
  523POPC   PO4 9996  39.575  40.191   9.572
  523POPC   GL1 9997  39.573  40.239   9.126
  523POPC   GL2 9998  39.251  40.026   9.139
  523POPC   C1A 9999  39.485  40.090   8.695
  523POPC   D2A10000  39.373  39.730   8.462
  523POPC   C3A10001  39.374  39.869   8.061
  523POPC   C4A10002  39.487  40.244   7.841
  523POPC   C1B10003  38.988  39.943   8.772
  523POPC   C2B10004  38.935  40.062   8.361
  523POPC   C3B10005  38.979  40.178   7.928
  523POPC   C4B10006  39.045  39.808   7.652
  524POPC   NC310007  24.293   7.991   9.278
  524POPC   PO410008  24.399   7.379   9.498
  524POPC   GL110009  24.533   7.463   9.100
  524POPC   GL210010  24.238   7.622   8.939
  524POPC   C1A10011  24.658   7.537   8.663
  524POPC   D2A10012  24.444   7.539   8.276
  524POPC   C3A10013  24.655   7.364   7.910
  524POPC   C4A10014  24.435   7.263   7.514
  524POPC   C1B10015  24.154   7.206   8.802
  524POPC   C2B10016  24.266   7.057   8.409
  524POPC   C3B10017  24.158   7.203   7.973
  524POPC   C4B10018  23.950   7.346   7.581
  525POPC   NC310019  31.823  37.883   9.374
  525POPC   PO410020  31.390  38.421   9.581
  525POPC   GL110021  31.279  38.608   9.192
  525POPC   GL210022  31.581  38.688   9.057
  525POPC   C1A10023  31.147  38.459   8.789
  525POPC   D2A10024  31.218  38.401   8.353
  525POPC   C3A10025  31.476  38.556   8.033
  525POPC   C4A10026  31.348  38.407   7.653
  525POPC   C1B10027  31.622  38.615   8.635
  525POPC   C2B10028  31.834  38.383   8.348
  525POPC   C3B10029  31.820  38.147   7.965
  525POPC   C4B10030  31.847  38.431   7.652
  526POPC   NC310031   9.396   9.261   9.343
  526POPC   PO410032   9.674   8.787   9.701
  526POPC   GL110033   9.807   8.914   9.266
  526POPC   GL210034   9.990   8.651   9.117
  526POPC   C1A10035   9.762   9.109   8.809
  526POPC   D2A10036   9.951   9.231   8.372
  526POPC   C3A10037   9.828   9.053   7.936
  526POPC   C4A10038   9.575   8.866   7.595
  526POPC   C1B10039   9.878   8.581   8.715
  526POPC   C2B10040   9.945   8.715   8.306
  526POPC   C3B10041   9.908   8.535   7.898
  526POPC   C4B10042  10.008   8.561   7.462
  527POPC   NC310043  14.108  43.866   9.539
  527POPC   PO410044  14.826  43.889   9.527
  527POPC   GL110045  14.511  43.743   9.218
  527POPC   GL210046  14.431  44.071   9.160
  527POPC   C1A10047  14.215  43.792   8.823
  527POPC   D2A10048  14.095  43.504   8.503
  527POPC   C3A10049  14.234  43.660   8.121
  527POPC   C4A10050  14.051  43.645   7.740
  527POPC   C1B10051  14.705  43.979   8.805
  527POPC   C2B10052  14.649  44.172   8.411
  527POPC   C3B10053  14.607  43.988   7.996
  527POPC   C4B10054  14.465  43.985   7.597
  528POPC   NC310055   8.996  31.185   9.265
  528POPC   PO410056   8.511  31.421   9.636
  528POPC   GL110057   8.735  31.595   9.167
  528POPC   GL210058   9.074  31.548   8.910
  528POPC   C1A10059   8.629  31.624   8.730
  528POPC   D2A10060   8.820  31.305   8.467
  528POPC   C3A10061   8.705  31.312   8.057
  528POPC   C4A10062   8.764  31.339   7.639
  528POPC   C1B10063   9.271  31.168   8.687
  528POPC   C2B10064   9.258  31.029   8.250
  528POPC   C3B10065   9.225  31.297   7.896
  528POPC   C4B10066   9.241  31.367   7.445
  529POPC   NC310067  26.763  34.494   9.358
  529POPC   PO410068  26.232  34.922   9.349
  529POPC   GL110069  26.454  34.727   8.989
  529POPC   GL210070  26.551  34.372   8.917
  529POPC   C1A10071  26.523  34.732   8.556
  529POPC   D2A10072  26.867  34.793   8.316
  529POPC   C3A10073  26.837  34.495   8.053
  529POPC   C4A10074  26.454  34.443   7.867
  529POPC   C1B10075  26.870  34.348   8.576
  529POPC   C2B10076  27.105  34.104   8.267
  529POPC   C3B10077  27.276  34.239   7.875
  529POPC   C4B10078  27.036  34.427   7.560
  530POPC   NC310079  37.113  29.669   9.524
  530POPC   PO410080  36.639  29.518   9.135
  530POPC   GL110081  36.944  29.795   9.051
  530POPC   GL210082  36.681  30.040   9.059
  530POPC   C1A10083  36.959  29.960   8.645
  530POPC   D2A10084  36.722  29.915   8.266
  530POPC   C3A10085  36.992  29.913   7.905
  530POPC   C4A10086  36.880  29.684   7.502
  530POPC   C1B10087  36.627  30.351   8.764
  530POPC   C2B10088  36.863  30.403   8.400
  530POPC   C3B10089  36.726  30.352   7.997
  530POPC   C4B10090  36.862  30.263   7.579
  531POPC   NC310091  38.823  33.060   9.378
  531POPC   PO410092  38.269  33.358   9.767
  531POPC   GL110093  38.363  33.287   9.308
  531POPC   GL210094  38.630  33.456   9.157
  531POPC   C1A10095  38.299  33.037   8.886
  531POPC   D2A10096  38.180  32.791   8.466
  531POPC   C3A10097  38.492  32.778   8.114
  531POPC   C4A10098  38.564  32.895   7.683
  531POPC   C1B10099  38.749  33.284   8.755
  531POPC   C2B10100  38.471  33.191   8.412
  531POPC   C3B10101  38.421  33.287   7.990
  531POPC   C4B10102  38.795  33.325   7.746
  532POPC   NC310103   7.879  13.574   9.513
  532POPC   PO410104   8.385  14.027   9.297
  532POPC   GL110105   8.412  13.657   9.096
  532POPC   GL210106   8.080  13.505   9.064
  532POPC   C1A10107   8.409  13.611   8.673
  532POPC   D2A10108   8.558  13.450   8.324
  532POPC   C3A10109   8.397  13.703   7.993
  532POPC   C4A10110   8.483  13.809   7.564
  532POPC   C1B10111   7.963  13.864   8.819
  532POPC   C2B10112   8.028  13.850   8.380
  532POPC   C3B10113   7.892  13.694   7.967
  532POPC   C4B10114   8.078  13.471   7.581
  533POPC   NC310115   0.665  40.103   9.283
  533POPC   PO410116   1.123  39.655   9.600
  533POPC   GL110117   1.089  39.827   9.130
  533POPC   GL210118   1.339  40.106   9.035
  533POPC   C1A10119   0.951  40.053   8.719
  533POPC   D2A10120   1.013  39.865   8.336
  533POPC   C3A10121   1.145  40.006   7.946
  533POPC   C4A10122   1.205  39.620   7.754
  533POPC   C1B10123   1.394  39.839   8.699
  533POPC   C2B10124   1.454  40.145   8.353
  533POPC   C3B10125   1.615  40.262   7.941
  533POPC   C4B10126   1.409  40.235   7.529
  534POPC   NC310127  30.269  25.199   9.517
  534POPC   PO410128  29.684  25.415   9.738
  534POPC   GL110129  29.884  25.453   9.300
  534POPC   GL210130  29.909  25.086   9.159
  534POPC   C1A10131  29.981  25.497   8.843
  534POPC   D2A10132  29.687  25.458   8.477
  534POPC   C3A10133  29.762  25.400   8.039
  534POPC   C4A10134  30.116  25.347   7.807
  534POPC   C1B10135  30.258  25.000   8.866
  534POPC   C2B10136  30.301  24.841   8.445
  534POPC   C3B10137  30.008  24.904   8.090
  534POPC   C4B10138  29.808  24.921   7.682
  535POPC   NC310139  31.057  40.546   9.587
  535POPC   PO410140  31.593  40.949   9.797
  535POPC   GL110141  31.628  40.740   9.316
  535POPC   GL210142  31.301  40.723   9.188
  535POPC   C1A10143  31.640  40.799   8.790
  535POPC   D2A10144  31.718  41.028   8.356
  535POPC   C3A10145  31.631  40.752   7.956
  535POPC   C4A10146  31.597  40.493   7.550
  535POPC   C1B10147  31.148  40.680   8.799
  535POPC   C2B10148  31.231  40.934   8.446
  535POPC   C3B10149  31.101  40.884   8.033
  535POPC   C4B10150  31.121  40.576   7.698
  536POPC   NC310151  10.898  24.558   9.583
  536POPC   PO410152  10.293  24.575   9.730
  536POPC   GL110153  10.355  24.675   9.285
  536POPC   GL210154  10.681  24.546   9.138
  536POPC   C1A10155  10.310  24.641   8.822
  536POPC   D2A10156  10.337  24.344   8.479
  536POPC   C3A10157  10.369  24.599   8.135
  536POPC   C4A10158  10.403  24.508   7.723
  536POPC   C1B10159  10.748  24.278   8.793
  536POPC   C2B10160  10.838  24.407   8.372
  536POPC   C3B10161  10.799  24.271   7.953
  536POPC   C4B10162  10.692  24.128   7.532
  537POPC   NC310163  11.426  34.829   9.767
  537POPC   PO410164  11.169  34.272   9.521
  537POPC   GL110165  11.165  34.413   9.128
  537POPC   GL210166  11.481  34.533   9.123
  537POPC   C1A10167  11.035  34.470   8.715
  537POPC   D2A10168  11.258  34.769   8.501
  537POPC   C3A10169  11.158  34.823   8.100
  537POPC   C4A10170  11.259  34.799   7.697
  537POPC   C1B10171  11.655  34.466   8.750
  537POPC   C2B10172  11.571  34.378   8.339
  537POPC   C3B10173  11.601  34.550   7.953
  537POPC   C4B10174  11.656  34.376   7.541
  538POPC   NC310175   6.237  22.740   9.438
  538POPC   PO410176   5.610  23.166   9.449
  538POPC   GL110177   5.799  22.942   9.163
  538POPC   GL210178   5.585  22.679   9.163
  538POPC   C1A10179   5.793  23.109   8.767
  538POPC   D2A10180   5.977  23.208   8.418
  538POPC   C3A10181   5.918  22.935   8.114
  538POPC   C4A10182   5.827  23.039   7.704
  538POPC   C1B10183   5.764  22.557   8.793
  538POPC   C2B10184   5.604  22.632   8.390
  538POPC   C3B10185   5.505  22.691   7.966
  538POPC   C4B10186   5.877  22.521   7.740
  539POPC   NC310187  10.537  44.867   9.421
  539POPC   PO410188  10.839  44.299   9.561
  539POPC   GL110189  10.826  44.505   9.191
  539POPC   GL210190  10.999  44.839   9.220
  539POPC   C1A10191  10.569  44.516   8.807
  539POPC   D2A10192  10.475  44.795   8.452
  539POPC   C3A10193  10.174  44.774   8.136
  539POPC   C4A10194  10.334  44.645   7.740
  539POPC   C1B10195  10.801  44.970   8.810
  539POPC   C2B10196  10.798   0.177   8.385
  539POPC   C3B10197  10.610   0.023   7.981
  539POPC   C4B10198  10.793  44.881   7.599
  540POPC   NC310199  18.039  24.197   9.647
  540POPC   PO410200  18.107  24.750   9.865
  540POPC   GL110201  18.061  24.623   9.331
  540POPC   GL210202  18.120  24.271   9.149
  540POPC   C1A10203  18.065  24.653   8.819
  540POPC   D2A10204  18.010  24.634   8.319
  540POPC   C3A10205  18.314  24.731   7.962
  540POPC   C4A10206  18.301  24.780   7.499
  540POPC   C1B10207  18.051  24.130   8.705
  540POPC   C2B10208  18.259  24.176   8.266
  540POPC   C3B10209  18.165  24.242   7.793
  540POPC   C4B10210  18.008  24.132   7.334
  541POPC   NC310211   0.750  27.701   9.500
  541POPC   PO410212   0.296  27.313   9.832
  541POPC   GL110213   0.460  27.312   9.368
  541POPC   GL210214   0.245  27.508   9.185
  541POPC   C1A10215   0.669  27.427   8.901
  541POPC   D2A10216   0.679  27.552   8.424
  541POPC   C3A10217   0.786  27.582   7.952
  541POPC   C4A10218   0.703  27.262   7.617
  541POPC   C1B10219   0.177  27.532   8.745
  541POPC   C2B10220   0.164  27.372   8.332
  541POPC   C3B10221   0.291  27.652   8.051
  541POPC   C4B10222   0.190  27.783   7.660
  542POPC   NC310223   5.449   3.766   9.432
  542POPC   PO410224   6.018   3.515   9.515
  542POPC   GL110225   5.899   3.301   9.160
  542POPC   GL210226   5.574   3.345   9.098
  542POPC   C1A10227   6.076   3.370   8.750
  542POPC   D2A10228   6.030   3.137   8.380
  542POPC   C3A10229   5.654   3.172   8.159
  542POPC   C4A10230   5.913   3.252   7.789
  542POPC   C1B10231   5.582   3.360   8.650
  542POPC   C2B10232   5.789   3.616   8.361
  542POPC   C3B10233   5.779   3.731   7.936
  542POPC   C4B10234   6.060   4.026   7.745
  543POPC   NC310235  19.065  40.976   9.499
  543POPC   PO410236  19.042  40.286   9.541
  543POPC   GL110237  19.058  40.520   9.120
  543POPC   GL210238  19.295  40.825   9.104
  543POPC   C1A10239  18.807  40.547   8.720
  543POPC   D2A10240  18.737  40.820   8.345
  543POPC   C3A10241  18.973  40.749   7.959
  543POPC   C4A10242  18.960  40.724   7.482
  543POPC   C1B10243  19.085  40.952   8.783
  543POPC   C2B10244  19.254  40.843   8.410
  543POPC   C3B10245  19.485  41.023   8.094
  543POPC   C4B10246  19.301  41.025   7.692
  544POPC   NC310247  35.632  33.434   9.619
  544POPC   PO410248  35.187  33.866   9.484
  544POPC   GL110249  35.214  33.947   9.114
  544POPC   GL210250  35.569  33.921   9.092
  544POPC   C1A10251  35.287  33.718   8.723
  544POPC   D2A10252  35.461  33.466   8.400
  544POPC   C3A10253  35.225  33.602   8.061
  544POPC   C4A10254  35.319  33.916   7.746
  544POPC   C1B10255  35.778  33.593   8.829
  544POPC   C2B10256  35.964  33.668   8.414
  544POPC   C3B10257  35.771  33.814   8.045
  544POPC   C4B10258  35.677  33.495   7.826
  545POPC   NC310259  26.247  17.912   9.592
  545POPC   PO410260  26.115  17.290   9.588
  545POPC   GL110261  25.887  17.426   9.234
  545POPC   GL210262  25.821  17.806   9.269
  545POPC   C1A10263  26.083  17.358   8.812
  545POPC   D2A10264  26.345  17.483   8.428
  545POPC   C3A10265  26.072  17.512   8.078
  545POPC   C4A10266  26.079  17.382   7.725
  545POPC   C1B10267  25.673  17.685   8.858
  545POPC   C2B10268  25.876  17.715   8.493
  545POPC   C3B10269  26.044  18.008   8.165
  545POPC   C4B10270  25.950  17.882   7.714
  546POPC   NC310271  20.714  40.955   9.441
  546POPC   PO410272  20.358  40.352   9.531
  546POPC   GL110273  20.375  40.585   9.165
  546POPC   GL210274  20.728  40.579   9.124
  546POPC   C1A10275  20.418  40.842   8.772
  546POPC   D2A10276  20.399  41.118   8.396
  546POPC   C3A10277  20.434  40.883   8.031
  546POPC   C4A10278  20.291  40.759   7.645
  546POPC   C1B10279  20.939  40.724   8.796
  546POPC   C2B10280  20.825  40.841   8.407
  546POPC   C3B10281  20.952  40.921   8.031
  546POPC   C4B10282  20.782  40.890   7.638
  547POPC   NC310283  17.145  29.708   9.394
  547POPC   PO410284  17.707  30.107   9.425
  547POPC   GL110285  17.446  30.027   9.085
  547POPC   GL210286  17.543  29.677   9.047
  547POPC   C1A10287  17.426  30.056   8.619
  547POPC   D2A10288  17.641  30.263   8.297
  547POPC   C3A10289  17.626  29.978   7.997
  547POPC   C4A10290  17.460  30.196   7.716
  547POPC   C1B10291  17.290  29.555   8.691
  547POPC   C2B10292  17.348  29.638   8.286
  547POPC   C3B10293  17.112  29.636   7.933
  547POPC   C4B10294  17.218  29.753   7.538
  548POPC   NC310295   6.016   2.119   9.840
  548POPC   PO410296   5.594   1.781   9.514
  548POPC   GL110297   5.756   2.002   9.184
  548POPC   GL210298   5.559   2.300   9.215
  548POPC   C1A10299   5.735   1.839   8.766
  548POPC   D2A10300   6.037   1.681   8.456
  548POPC   C3A10301   6.152   1.910   8.084
  548POPC   C4A10302   6.095   2.322   7.933
  548POPC   C1B10303   5.728   2.356   8.782
  548POPC   C2B10304   5.812   2.148   8.361
  548POPC   C3B10305   5.676   1.989   7.929
  548POPC   C4B10306   5.611   1.761   7.560
  549POPC   NC310307  22.580  12.228   9.584
  549POPC   PO410308  23.067  11.763   9.462
  549POPC   GL110309  22.979  12.036   9.175
  549POPC   GL210310  23.028  12.355   9.328
  549POPC   C1A10311  23.030  11.973   8.749
  549POPC   D2A10312  22.844  12.040   8.369
  549POPC   C3A10313  23.082  11.913   8.039
  549POPC   C4A10314  22.961  11.806   7.642
  549POPC   C1B10315  22.968  12.460   8.885
  549POPC   C2B10316  23.194  12.397   8.492
  549POPC   C3B10317  22.983  12.435   8.088
  549POPC   C4B10318  23.044  12.309   7.681
  550POPC   NC310319   1.961  12.148   9.775
  550POPC   PO410320   1.673  11.534   9.497
  550POPC   GL110321   1.948  11.704   9.209
  550POPC   GL210322   1.998  12.076   9.241
  550POPC   C1A10323   2.070  11.785   8.786
  550POPC   D2A10324   1.931  12.049   8.489
  550POPC   C3A10325   2.039  12.069   8.087
  550POPC   C4A10326   1.816  12.049   7.721
  550POPC   C1B10327   2.205  12.274   8.873
  550POPC   C2B10328   2.418  12.293   8.467
  550POPC   C3B10329   2.443  12.378   8.030
  550POPC   C4B10330   2.124  12.485   7.775
  551POPC   NC310331  11.871  17.471   9.489
  551POPC   PO410332  12.488  17.788   9.517
  551POPC   GL110333  12.235  17.648   9.172
  551POPC   GL210334  12.337  17.913   8.939
  551POPC   C1A10335  12.087  17.474   8.779
  551POPC   D2A10336  12.192  17.709   8.404
  551POPC   C3A10337  12.020  17.537   8.056
  551POPC   C4A10338  11.911  17.212   7.819
  551POPC   C1B10339  11.876  17.931   8.794
  551POPC   C2B10340  11.694  17.991   8.392
  551POPC   C3B10341  11.959  18.072   8.063
  551POPC   C4B10342  12.221  17.909   7.767
  552POPC   NC310343   6.422  37.571   9.688
  552POPC   PO410344   5.733  37.531   9.818
  552POPC   GL110345   5.968  37.616   9.405
  552POPC   GL210346   5.683  37.567   9.230
  552POPC   C1A10347   6.109  37.711   8.938
  552POPC   D2A10348   6.033  38.003   8.568
  552POPC   C3A10349   6.118  37.921   8.130
  552POPC   C4A10350   5.949  37.737   7.744
  552POPC   C1B10351   5.604  37.783   8.852
  552POPC   C2B10352   5.369  37.763   8.473
  552POPC   C3B10353   5.520  37.736   8.050
  552POPC   C4B10354   5.452  37.886   7.638
  553POPC   NC310355  31.967  11.538   9.344
  553POPC   PO410356  32.454  11.058   9.423
  553POPC   GL110357  32.309  11.233   9.073
  553POPC   GL210358  32.016  11.038   9.101
  553POPC   C1A10359  32.424  11.391   8.649
  553POPC   D2A10360  32.639  11.287   8.260
  553POPC   C3A10361  32.490  11.261   7.828
  553POPC   C4A10362  32.364  10.971   7.476
  553POPC   C1B10363  31.991  11.106   8.665
  553POPC   C2B10364  32.119  11.188   8.262
  553POPC   C3B10365  32.021  11.445   7.945
  553POPC   C4B10366  32.077  11.395   7.527
  554POPC   NC310367  43.455  34.751   9.509
  554POPC   PO410368  44.138  34.526   9.529
  554POPC   GL110369  44.103  34.556   9.136
  554POPC   GL210370  44.319  34.303   9.086
  554POPC   C1A10371  44.064  34.656   8.712
  554POPC   D2A10372  43.818  34.858   8.400
  554POPC   C3A10373  44.055  34.733   8.078
  554POPC   C4A10374  44.084  34.641   7.650
  554POPC   C1B10375  43.996  34.172   8.813
  554POPC   C2B10376  43.849  34.289   8.394
  554POPC   C3B10377  44.022  34.229   7.980
  554POPC   C4B10378  43.807  34.223   7.609
  555POPC   NC310379  33.924  41.640   9.458
  555POPC   PO410380  33.449  41.228   9.396
  555POPC   GL110381  33.634  41.476   9.070
  555POPC   GL210382  33.959  41.292   9.069
  555POPC   C1A10383  33.951  41.752   8.820
  555POPC   D2A10384  34.073  41.681   8.398
  555POPC   C3A10385  33.704  41.701   8.183
  555POPC   C4A10386  33.727  41.849   7.814
  555POPC   C1B10387  33.836  41.281   8.658
  555POPC   C2B10388  33.674  41.210   8.275
  555POPC   C3B10389  33.648  41.290   7.860
  555POPC   C4B10390  33.807  41.197   7.454
  556POPC   NC310391  39.785  34.454   9.415
  556POPC   PO410392  39.166  34.653   9.527
  556POPC   GL110393  39.324  34.538   9.181
  556POPC   GL210394  39.517  34.819   9.149
  556POPC   C1A10395  39.145  34.558   8.800
  556POPC   D2A10396  38.880  34.729   8.497
  556POPC   C3A10397  39.029  34.556   8.147
  556POPC   C4A10398  39.032  34.684   7.749
  556POPC   C1B10399  39.659  34.577   8.781
  556POPC   C2B10400  39.473  34.502   8.394
  556POPC   C3B10401  39.523  34.707   8.010
  556POPC   C4B10402  39.543  34.602   7.550
  557POPC   NC310403  34.142  43.308   9.467
  557POPC   PO410404  33.625  42.952   9.404
  557POPC   GL110405  33.575  43.048   9.039
  557POPC   GL210406  33.910  43.161   9.036
  557POPC   C1A10407  33.671  42.870   8.645
  557POPC   D2A10408  33.821  43.079   8.277
  557POPC   C3A10409  33.778  42.876   7.902
  557POPC   C4A10410  33.470  43.099   7.698
  557POPC   C1B10411  33.717  43.390   8.695
  557POPC   C2B10412  33.823  43.591   8.316
  557POPC   C3B10413  33.862  43.443   7.889
  557POPC   C4B10414  34.214  43.517   7.646
  558POPC   NC310415  44.925  36.153   9.586
  558POPC   PO410416  44.341  35.647   9.441
  558POPC   GL110417  44.495  35.859   9.038
  558POPC   GL210418  44.647  36.144   9.167
  558POPC   C1A10419  44.831  35.918   8.748
  558POPC   D2A10420  44.728  36.104   8.368
  558POPC   C3A10421  44.893  36.436   8.108
  558POPC   C4A10422  44.873  36.267   7.698
  558POPC   C1B10423  44.484  36.385   8.851
  558POPC   C2B10424  44.512  36.566   8.463
  558POPC   C3B10425  44.382  36.397   8.095
  558POPC   C4B10426  44.493  36.605   7.719
  559POPC   NC310427  43.209  35.347   9.460
  559POPC   PO410428  42.745  34.872   9.699
  559POPC   GL110429  42.712  35.272   9.312
  559POPC   GL210430  42.914  35.598   9.144
  559POPC   C1A10431  42.737  35.252   8.831
  559POPC   D2A10432  42.644  35.216   8.393
  559POPC   C3A10433  42.968  35.256   8.109
  559POPC   C4A10434  43.044  35.567   7.833
  559POPC   C1B10435  43.237  35.375   8.811
  559POPC   C2B10436  43.310  35.024   8.507
  559POPC   C3B10437  43.415  34.994   8.057
  559POPC   C4B10438  43.216  35.098   7.654
  560POPC   NC310439   3.204  41.922   9.566
  560POPC   PO410440   3.828  41.594   9.645
  560POPC   GL110441   3.767  41.600   9.182
  560POPC   GL210442   3.443  41.647   9.178
  560POPC   C1A10443   3.891  41.740   8.738
  560POPC   D2A10444   3.839  41.905   8.287
  560POPC   C3A10445   3.795  41.691   7.899
  560POPC   C4A10446   3.871  41.339   7.610
  560POPC   C1B10447   3.256  41.855   8.836
  560POPC   C2B10448   3.416  41.704   8.466
  560POPC   C3B10449   3.303  41.624   8.036
  560POPC   C4B10450   2.917  41.679   7.795
  561POPC   NC310451  32.118   1.199   9.586
  561POPC   PO410452  32.755   1.202   9.357
  561POPC   GL110453  32.453   1.385   9.095
  561POPC   GL210454  32.297   1.092   9.093
  561POPC   C1A10455  32.355   1.427   8.632
  561POPC   D2A10456  32.542   1.124   8.345
  561POPC   C3A10457  32.352   1.185   7.978
  561POPC   C4A10458  32.168   1.502   7.740
  561POPC   C1B10459  32.086   1.017   8.704
  561POPC   C2B10460  31.968   1.212   8.318
  561POPC   C3B10461  31.882   0.951   7.964
  561POPC   C4B10462  31.891   0.994   7.545
  562POPC   NC310463  43.316   9.351   9.447
  562POPC   PO410464  42.751   9.696   9.440
  562POPC   GL110465  43.049   9.735   9.151
  562POPC   GL210466  43.064  10.071   9.246
  562POPC   C1A10467  42.997   9.597   8.701
  562POPC   D2A10468  43.190   9.665   8.325
  562POPC   C3A10469  43.051   9.800   7.940
  562POPC   C4A10470  42.747  10.005   7.750
  562POPC   C1B10471  42.975  10.112   8.816
  562POPC   C2B10472  43.334  10.258   8.572
  562POPC   C3B10473  43.379  10.123   8.198
  562POPC   C4B10474  43.402  10.153   7.762
  563POPC   NC310475  34.002   8.353   9.474
  563POPC   PO410476  33.583   7.814   9.525
  563POPC   GL110477  33.801   7.971   9.187
  563POPC   GL210478  33.604   8.259   9.167
  563POPC   C1A10479  34.029   8.042   8.801
  563POPC   D2A10480  33.834   8.134   8.407
  563POPC   C3A10481  33.949   7.961   8.032
  563POPC   C4A10482  34.193   8.261   7.875
  563POPC   C1B10483  33.636   8.467   8.763
  563POPC   C2B10484  33.695   8.638   8.360
  563POPC   C3B10485  33.714   8.433   7.960
  563POPC   C4B10486  33.836   8.435   7.522
  564POPC   NC310487   2.879  40.645   9.617
  564POPC   PO410488   2.382  41.007   9.356
  564POPC   GL110489   2.723  40.769   9.135
  564POPC   GL210490   3.079  40.609   9.157
  564POPC   C1A10491   2.647  40.644   8.732
  564POPC   D2A10492   2.392  40.822   8.389
  564POPC   C3A10493   2.589  40.864   7.996
  564POPC   C4A10494   2.775  40.524   7.786
  564POPC   C1B10495   3.122  40.840   8.782
  564POPC   C2B10496   2.989  40.783   8.348
  564POPC   C3B10497   3.212  40.694   7.973
  564POPC   C4B10498   3.289  40.628   7.531
  565POPC   NC310499  16.460  38.894   9.552
  565POPC   PO410500  16.972  38.398   9.382
  565POPC   GL110501  16.648  38.534   9.155
  565POPC   GL210502  16.308  38.467   9.227
  565POPC   C1A10503  16.714  38.541   8.735
  565POPC   D2A10504  16.970  38.590   8.372
  565POPC   C3A10505  16.799  38.546   7.966
  565POPC   C4A10506  16.716  38.837   7.650
  565POPC   C1B10507  16.209  38.632   8.807
  565POPC   C2B10508  16.356  38.472   8.393
  565POPC   C3B10509  16.323  38.302   8.001
  565POPC   C4B10510  16.398  38.452   7.596
  566POPC   NC310511  37.906  19.848   9.530
  566POPC   PO410512  37.506  20.344   9.334
  566POPC   GL110513  37.775  20.067   9.039
  566POPC   GL210514  37.945  19.728   9.044
  566POPC   C1A10515  37.882  20.001   8.604
  566POPC   D2A10516  37.985  19.624   8.402
  566POPC   C3A10517  37.870  19.689   7.993
  566POPC   C4A10518  37.816  19.980   7.692
  566POPC   C1B10519  37.586  19.625   8.753
  566POPC   C2B10520  37.471  19.746   8.305
  566POPC   C3B10521  37.378  19.739   7.826
  566POPC   C4B10522  37.521  19.702   7.372
  567POPC   NC310523  39.368  18.514   9.506
  567POPC   PO410524  38.901  17.995   9.534
  567POPC   GL110525  39.183  18.043   9.166
  567POPC   GL210526  39.156  18.391   9.076
  567POPC   C1A10527  39.290  17.769   8.810
  567POPC   D2A10528  39.469  17.671   8.395
  567POPC   C3A10529  39.431  18.059   8.154
  567POPC   C4A10530  39.248  18.253   7.810
  567POPC   C1B10531  38.901  18.529   8.773
  567POPC   C2B10532  39.014  18.424   8.363
  567POPC   C3B10533  38.877  18.574   7.998
  567POPC   C4B10534  38.847  18.447   7.577
  568POPC   NC310535   0.519  14.906   9.556
  568POPC   PO410536   1.138  14.551   9.643
  568POPC   GL110537   1.217  14.399   9.209
  568POPC   GL210538   0.847  14.391   9.136
  568POPC   C1A10539   1.220  14.458   8.787
  568POPC   D2A10540   1.470  14.496   8.449
  568POPC   C3A10541   1.271  14.569   8.070
  568POPC   C4A10542   1.133  14.532   7.677
  568POPC   C1B10543   0.807  14.139   8.753
  568POPC   C2B10544   1.017  14.213   8.372
  568POPC   C3B10545   1.096  14.064   7.964
  568POPC   C4B10546   1.024  14.065   7.509
  569POPC   NC310547  11.764  25.475   9.781
  569POPC   PO410548  11.158  25.342   9.519
  569POPC   GL110549  11.304  25.387   9.079
  569POPC   GL210550  11.646  25.365   9.022
  569POPC   C1A10551  11.154  25.268   8.673
  569POPC   D2A10552  11.273  25.428   8.251
  569POPC   C3A10553  10.995  25.264   7.917
  569POPC   C4A10554  11.141  24.985   7.550
  569POPC   C1B10555  11.568  24.950   8.777
  569POPC   C2B10556  11.450  24.953   8.353
  569POPC   C3B10557  11.478  25.073   7.930
  569POPC   C4B10558  11.618  24.774   7.652
  570POPC   NC310559  18.532   0.824   9.399
  570POPC   PO410560  17.984   0.316   9.405
  570POPC   GL110561  18.212   0.508   9.140
  570POPC   GL210562  17.958   0.582   8.945
  570POPC   C1A10563  18.510   0.485   8.802
  570POPC   D2A10564  18.712   0.620   8.420
  570POPC   C3A10565  18.409   0.639   8.133
  570POPC   C4A10566  18.289   0.358   7.832
  570POPC   C1B10567  18.059   0.228   8.697
  570POPC   C2B10568  18.058   0.165   8.257
  570POPC   C3B10569  17.822   0.214   7.883
  570POPC   C4B10570  17.964   0.203   7.403
  571POPC   NC310571  21.486  17.164   9.645
  571POPC   PO410572  21.008  17.488   9.454
  571POPC   GL110573  21.236  17.515   9.090
  571POPC   GL210574  21.599  17.392   9.181
  571POPC   C1A10575  21.076  17.468   8.670
  571POPC   D2A10576  20.912  17.364   8.279
  571POPC   C3A10577  21.129  17.538   7.931
  571POPC   C4A10578  21.190  17.940   7.666
  571POPC   C1B10579  21.529  17.209   8.777
  571POPC   C2B10580  21.632  16.987   8.397
  571POPC   C3B10581  21.511  17.160   8.003
  571POPC   C4B10582  21.754  17.279   7.673
  572POPC   NC310583  13.913   6.980   9.746
  572POPC   PO410584  13.858   6.315   9.777
  572POPC   GL110585  13.774   6.465   9.309
  572POPC   GL210586  13.605   6.796   9.322
  572POPC   C1A10587  13.672   6.373   8.835
  572POPC   D2A10588  13.535   6.620   8.469
  572POPC   C3A10589  13.712   6.663   8.037
  572POPC   C4A10590  13.588   6.377   7.703
  572POPC   C1B10591  13.578   6.946   8.898
  572POPC   C2B10592  13.272   7.047   8.579
  572POPC   C3B10593  13.242   7.001   8.133
  572POPC   C4B10594  13.446   7.177   7.759
  573POPC   NC310595  44.573  43.292   9.563
  573POPC   PO410596  44.447  42.667   9.431
  573POPC   GL110597  44.544  43.032   9.111
  573POPC   GL210598  44.339  43.372   9.112
  573POPC   C1A10599  44.732  43.296   8.768
  573POPC   D2A10600  44.620  43.319   8.336
  573POPC   C3A10601  44.900  43.118   8.061
  573POPC   C4A10602  44.909  43.145   7.620
  573POPC   C1B10603  44.233  43.160   8.717
  573POPC   C2B10604  44.091  43.165   8.322
  573POPC   C3B10605  44.191  43.093   7.883
  573POPC   C4B10606  44.282  43.323   7.443
  574POPC   NC310607  19.726  30.247   9.445
  574POPC   PO410608  19.977  30.909   9.483
  574POPC   GL110609  19.909  30.663   9.127
  574POPC   GL210610  19.562  30.605   9.099
  574POPC   C1A10611  19.823  30.776   8.698
  574POPC   D2A10612  19.727  31.039   8.376
  574POPC   C3A10613  19.815  30.855   7.992
  574POPC   C4A10614  20.117  30.773   7.715
  574POPC   C1B10615  19.409  30.462   8.697
  574POPC   C2B10616  19.540  30.541   8.310
  574POPC   C3B10617  19.423  30.463   7.923
  574POPC   C4B10618  19.806  30.381   7.753
  575POPC   NC310619  10.580  23.426   9.411
  575POPC   PO410620  10.741  24.131   9.473
  575POPC   GL110621  10.806  23.826   9.154
  575POPC   GL210622  10.456  23.796   9.051
  575POPC   C1A10623  10.828  23.756   8.700
  575POPC   D2A10624  10.969  23.831   8.267
  575POPC   C3A10625  10.688  23.757   7.920
  575POPC   C4A10626  10.315  24.015   7.883
  575POPC   C1B10627  10.199  23.879   8.661
  575POPC   C2B10628  10.063  23.716   8.236
  575POPC   C3B10629  10.261  23.476   7.899
  575POPC   C4B10630  10.619  23.328   7.612
  576POPC   NC310631  27.592  33.191   9.630
  576POPC   PO410632  28.127  32.816   9.591
  576POPC   GL110633  27.824  32.815   9.206
  576POPC   GL210634  27.475  32.966   9.199
  576POPC   C1A10635  27.678  32.832   8.739
  576POPC   D2A10636  27.652  33.176   8.412
  576POPC   C3A10637  27.749  33.010   8.011
  576POPC   C4A10638  27.996  33.144   7.687
  576POPC   C1B10639  27.339  33.186   8.818
  576POPC   C2B10640  27.122  33.149   8.449
  576POPC   C3B10641  27.256  33.241   8.066
  576POPC   C4B10642  27.424  33.269   7.684
  577POPC   NC310643  30.468  22.443   9.233
  577POPC   PO410644  29.979  22.128   9.490
  577POPC   GL110645  29.949  22.111   9.078
  577POPC   GL210646  29.721  22.367   9.045
  577POPC   C1A10647  30.033  21.857   8.699
  577POPC   D2A10648  29.983  21.674   8.282
  577POPC   C3A10649  29.836  21.949   7.993
  577POPC   C4A10650  30.039  22.101   7.630
  577POPC   C1B10651  29.568  22.367   8.670
  577POPC   C2B10652  29.892  22.283   8.396
  577POPC   C3B10653  30.047  22.416   8.032
  577POPC   C4B10654  29.720  22.477   7.735
  578POPC   NC310655  37.689  15.514   9.510
  578POPC   PO410656  37.887  16.191   9.659
  578POPC   GL110657  37.837  15.968   9.267
  578POPC   GL210658  37.527  15.977   9.028
  578POPC   C1A10659  37.992  15.763   8.891
  578POPC   D2A10660  37.739  15.743   8.493
  578POPC   C3A10661  37.931  15.730   8.078
  578POPC   C4A10662  37.831  15.580   7.690
  578POPC   C1B10663  37.814  16.227   8.721
  578POPC   C2B10664  37.861  16.211   8.250
  578POPC   C3B10665  37.550  16.075   7.921
  578POPC   C4B10666  37.401  15.878   7.533
  579POPC   NC310667   5.320  39.785   9.408
  579POPC   PO410668   4.721  40.202   9.443
  579POPC   GL110669   4.868  40.232   9.051
  579POPC   GL210670   5.242  40.182   9.048
  579POPC   C1A10671   4.767  40.229   8.625
  579POPC   D2A10672   4.909  39.960   8.280
  579POPC   C3A10673   5.233  40.171   8.037
  579POPC   C4A10674   4.971  40.443   7.827
  579POPC   C1B10675   5.123  39.872   8.738
  579POPC   C2B10676   5.334  39.663   8.383
  579POPC   C3B10677   5.494  39.727   7.970
  579POPC   C4B10678   5.283  39.626   7.576
  580POPC   NC310679  41.769  11.195   9.609
  580POPC   PO410680  42.459  11.388   9.504
  580POPC   GL110681  42.205  11.202   9.208
  580POPC   GL210682  42.000  11.432   9.064
  580POPC   C1A10683  42.346  11.158   8.791
  580POPC   D2A10684  42.256  11.055   8.388
  580POPC   C3A10685  42.493  11.308   8.138
  580POPC   C4A10686  42.473  11.258   7.718
  580POPC   C1B10687  42.260  11.690   8.770
  580POPC   C2B10688  42.473  11.820   8.366
  580POPC   C3B10689  42.396  11.754   7.901
  580POPC   C4B10690  41.974  11.736   7.752
  581POPC   NC310691  38.796  40.574   9.440
  581POPC   PO410692  38.181  40.869   9.586
  581POPC   GL110693  38.386  40.841   9.215
  581POPC   GL210694  38.363  40.458   9.199
  581POPC   C1A10695  38.378  41.060   8.797
  581POPC   D2A10696  38.647  41.027   8.390
  581POPC   C3A10697  38.500  41.090   7.960
  581POPC   C4A10698  38.070  41.061   7.818
  581POPC   C1B10699  38.488  40.574   8.781
  581POPC   C2B10700  38.208  40.704   8.465
  581POPC   C3B10701  38.335  40.640   8.080
  581POPC   C4B10702  38.484  40.311   7.834
  582POPC   NC310703  18.313  28.534   9.438
  582POPC   PO410704  18.487  27.836   9.477
  582POPC   GL110705  18.361  28.112   9.121
  582POPC   GL210706  18.072  28.383   9.030
  582POPC   C1A10707  18.390  28.178   8.697
  582POPC   D2A10708  18.703  28.153   8.407
  582POPC   C3A10709  18.523  28.210   8.035
  582POPC   C4A10710  18.145  28.111   7.845
  582POPC   C1B10711  18.290  28.672   8.717
  582POPC   C2B10712  18.445  28.636   8.311
  582POPC   C3B10713  18.161  28.626   7.939
  582POPC   C4B10714  17.792  28.759   7.673
  583POPC   NC310715   7.744  35.587   9.413
  583POPC   PO410716   7.354  35.002   9.386
  583POPC   GL110717   7.253  35.333   9.115
  583POPC   GL210718   7.284  35.668   9.036
  583POPC   C1A10719   7.155  35.220   8.732
  583POPC   D2A10720   7.461  35.101   8.464
  583POPC   C3A10721   7.379  35.339   8.149
  583POPC   C4A10722   7.375  35.296   7.744
  583POPC   C1B10723   7.588  35.542   8.718
  583POPC   C2B10724   7.848  35.487   8.343
  583POPC   C3B10725   7.772  35.604   7.927
  583POPC   C4B10726   7.430  35.785   7.766
  584POPC   NC310727  41.185  20.641   9.482
  584POPC   PO410728  41.768  20.339   9.503
  584POPC   GL110729  41.627  20.618   9.174
  584POPC   GL210730  41.952  20.694   9.086
  584POPC   C1A10731  41.364  20.589   8.786
  584POPC   D2A10732  41.262  20.269   8.451
  584POPC   C3A10733  41.341  20.420   8.035
  584POPC   C4A10734  41.332  20.895   7.961
  584POPC   C1B10735  41.877  20.600   8.676
  584POPC   C2B10736  41.673  20.689   8.307
  584POPC   C3B10737  41.811  20.636   7.872
  584POPC   C4B10738  41.927  20.572   7.435
  585POPC   NC310739  43.062  32.519   9.711
  585POPC   PO410740  43.109  33.211   9.576
  585POPC   GL110741  43.328  33.147   9.177
  585POPC   GL210742  43.415  32.801   9.310
  585POPC   C1A10743  43.262  33.189   8.701
  585POPC   D2A10744  43.145  33.544   8.400
  585POPC   C3A10745  43.189  33.416   7.979
  585POPC   C4A10746  42.887  33.186   7.710
  585POPC   C1B10747  43.088  32.753   8.973
  585POPC   C2B10748  43.182  32.689   8.531
  585POPC   C3B10749  43.396  32.940   8.213
  585POPC   C4B10750  43.377  32.998   7.768
  586POPC   NC310751   1.101  35.082   9.487
  586POPC   PO410752   1.192  35.761   9.435
  586POPC   GL110753   1.264  35.424   9.128
  586POPC   GL210754   1.529  35.192   9.212
  586POPC   C1A10755   1.136  35.239   8.726
  586POPC   D2A10756   1.227  35.402   8.333
  586POPC   C3A10757   1.000  35.347   7.982
  586POPC   C4A10758   1.206  35.512   7.617
  586POPC   C1B10759   1.619  35.061   8.786
  586POPC   C2B10760   1.603  35.048   8.331
  586POPC   C3B10761   1.462  35.095   7.890
  586POPC   C4B10762   1.487  34.767   7.589
  587POPC   NC310763  28.673  44.808   9.479
  587POPC   PO410764  28.547  44.192   9.612
  587POPC   GL110765  28.467  44.437   9.184
  587POPC   GL210766  28.291  44.766   9.150
  587POPC   C1A10767  28.538  44.480   8.722
  587POPC   D2A10768  28.454  44.268   8.325
  587POPC   C3A10769  28.488  44.437   7.934
  587POPC   C4A10770  28.712  44.773   7.767
  587POPC   C1B10771  28.138  44.791   8.740
  587POPC   C2B10772  28.264  44.746   8.307
  587POPC   C3B10773  28.225  44.902   7.889
  587POPC   C4B10774  28.371   0.000   7.482
  588POPC   NC310775  17.416  43.771   9.525
  588POPC   PO410776  17.690  44.479   9.581
  588POPC   GL110777  17.639  44.136   9.262
  588POPC   GL210778  17.273  44.105   9.158
  588POPC   C1A10779  17.625  43.874   8.869
  588POPC   D2A10780  17.367  44.069   8.556
  588POPC   C3A10781  17.483  44.276   8.144
  588POPC   C4A10782  17.618  44.061   7.752
  588POPC   C1B10783  17.148  43.690   8.918
  588POPC   C2B10784  17.141  43.602   8.478
  588POPC   C3B10785  17.291  43.803   8.096
  588POPC   C4B10786  17.330  43.643   7.673
  589POPC   NC310787   3.016  44.523   9.579
  589POPC   PO410788   3.532  44.921   9.386
  589POPC   GL110789   3.415  44.697   9.046
  589POPC   GL210790   3.237  44.411   9.126
  589POPC   C1A10791   3.617  44.767   8.685
  589POPC   D2A10792   3.567   0.112   8.448
  589POPC   C3A10793   3.389  44.925   8.127
  589POPC   C4A10794   3.501  44.702   7.784
  589POPC   C1B10795   3.421  44.278   8.728
  589POPC   C2B10796   3.477  44.426   8.315
  589POPC   C3B10797   3.626  44.251   7.961
  589POPC   C4B10798   3.409  44.183   7.588
  590POPC   NC310799  34.779  34.089   9.446
  590POPC   PO410800  34.650  33.423   9.520
  590POPC   GL110801  34.767  33.657   9.157
  590POPC   GL210802  34.462  33.834   9.150
  590POPC   C1A10803  34.830  33.948   8.774
  590POPC   D2A10804  35.060  34.028   8.356
  590POPC   C3A10805  34.833  33.928   7.966
  590POPC   C4A10806  34.826  33.726   7.562
  590POPC   C1B10807  34.323  34.072   8.807
  590POPC   C2B10808  34.249  33.933   8.420
  590POPC   C3B10809  34.345  34.125   8.052
  590POPC   C4B10810  34.384  33.898   7.712
  591POPC   NC310811  36.806   2.959   9.558
  591POPC   PO410812  37.176   2.414   9.401
  591POPC   GL110813  36.932   2.570   9.137
  591POPC   GL210814  37.044   2.896   9.106
  591POPC   C1A10815  36.679   2.582   8.774
  591POPC   D2A10816  36.697   2.791   8.355
  591POPC   C3A10817  36.715   2.532   8.004
  591POPC   C4A10818  37.105   2.441   7.788
  591POPC   C1B10819  36.928   3.064   8.728
  591POPC   C2B10820  37.100   3.142   8.315
  591POPC   C3B10821  36.970   2.960   7.879
  591POPC   C4B10822  37.097   2.834   7.423
  592POPC   NC310823   2.416  36.264   9.526
  592POPC   PO410824   2.822  35.762   9.311
  592POPC   GL110825   2.953  36.162   9.118
  592POPC   GL210826   2.586  36.190   9.041
  592POPC   C1A10827   2.954  36.244   8.668
  592POPC   D2A10828   2.699  35.914   8.516
  592POPC   C3A10829   2.715  35.816   8.095
  592POPC   C4A10830   2.862  36.095   7.804
  592POPC   C1B10831   2.460  36.364   8.649
  592POPC   C2B10832   2.553  36.335   8.204
  592POPC   C3B10833   2.467  36.450   7.785
  592POPC   C4B10834   2.284  36.317   7.402
  593POPC   NC310835  15.312   0.614   9.297
  593POPC   PO410836  15.086   1.180   9.712
  593POPC   GL110837  15.061   1.366   9.278
  593POPC   GL210838  15.062   1.072   9.070
  593POPC   C1A10839  15.282   1.496   8.878
  593POPC   D2A10840  15.124   1.247   8.519
  593POPC   C3A10841  15.324   1.254   8.120
  593POPC   C4A10842  15.260   1.532   7.759
  593POPC   C1B10843  14.744   0.957   8.727
  593POPC   C2B10844  14.732   0.645   8.394
  593POPC   C3B10845  14.818   0.765   7.976
  593POPC   C4B10846  14.975   1.111   7.772
  594POPC   NC310847  15.818  22.202   9.424
  594POPC   PO410848  16.420  21.986   9.414
  594POPC   GL110849  16.246  22.221   9.098
  594POPC   GL210850  16.166  22.561   9.049
  594POPC   C1A10851  16.129  22.113   8.704
  594POPC   D2A10852  16.015  21.856   8.405
  594POPC   C3A10853  16.057  22.028   8.021
  594POPC   C4A10854  16.451  21.978   7.810
  594POPC   C1B10855  15.781  22.465   8.772
  594POPC   C2B10856  15.640  22.274   8.375
  594POPC   C3B10857  15.473  22.380   7.971
  594POPC   C4B10858  15.826  22.341   7.683
  595POPC   NC310859  24.593  34.830   9.502
  595POPC   PO410860  24.184  34.281   9.265
  595POPC   GL110861  24.445  34.530   9.074
  595POPC   GL210862  24.251  34.766   9.145
  595POPC   C1A10863  24.505  34.510   8.643
  595POPC   D2A10864  24.360  34.532   8.239
  595POPC   C3A10865  24.701  34.492   7.921
  595POPC   C4A10866  24.745  34.429   7.453
  595POPC   C1B10867  24.047  34.736   8.741
  595POPC   C2B10868  24.147  35.002   8.406
  595POPC   C3B10869  24.326  34.999   7.983
  595POPC   C4B10870  24.242  34.602   7.749
  596POPC   NC310871  30.359  40.873   9.675
  596POPC   PO410872  30.953  41.003   9.469
  596POPC   GL110873  30.751  40.730   9.221
  596POPC   GL210874  30.585  40.971   9.088
  596POPC   C1A10875  30.687  40.495   8.843
  596POPC   D2A10876  30.773  40.702   8.440
  596POPC   C3A10877  30.749  40.488   8.046
  596POPC   C4A10878  30.635  40.621   7.623
  596POPC   C1B10879  30.480  41.208   8.735
  596POPC   C2B10880  30.398  41.043   8.366
  596POPC   C3B10881  30.548  40.960   8.009
  596POPC   C4B10882  30.369  41.236   7.749
  597POPC   NC310883  21.999  31.923   9.661
  597POPC   PO410884  22.329  32.475   9.791
  597POPC   GL110885  22.110  32.262   9.304
  597POPC   GL210886  22.341  32.355   9.118
  597POPC   C1A10887  22.020  32.201   8.809
  597POPC   D2A10888  21.933  32.358   8.433
  597POPC   C3A10889  22.114  32.183   8.089
  597POPC   C4A10890  22.012  32.306   7.686
  597POPC   C1B10891  22.538  32.072   8.837
  597POPC   C2B10892  22.484  32.228   8.453
  597POPC   C3B10893  22.643  32.355   8.072
  597POPC   C4B10894  22.499  32.219   7.723
  598POPC   NC310895  39.722  15.143   9.495
  598POPC   PO410896  40.099  15.602   9.565
  598POPC   GL110897  40.169  15.318   9.234
  598POPC   GL210898  40.286  15.573   9.078
  598POPC   C1A10899  40.119  15.132   8.809
  598POPC   D2A10900  39.847  15.091   8.450
  598POPC   C3A10901  39.931  14.832   8.077
  598POPC   C4A10902  39.817  14.913   7.634
  598POPC   C1B10903  40.467  15.559   8.733
  598POPC   C2B10904  40.212  15.481   8.410
  598POPC   C3B10905  40.060  15.335   8.036
  598POPC   C4B10906  40.285  15.225   7.717
  599POPC   NC310907  32.865  17.155   9.546
  599POPC   PO410908  33.320  17.737   9.436
  599POPC   GL110909  33.277  17.352   9.256
  599POPC   GL210910  32.984  17.474   9.150
  599POPC   C1A10911  33.304  17.331   8.811
  599POPC   D2A10912  33.167  17.607   8.491
  599POPC   C3A10913  33.216  17.478   8.094
  599POPC   C4A10914  33.202  17.541   7.666
  599POPC   C1B10915  32.794  17.370   8.767
  599POPC   C2B10916  32.685  17.535   8.364
  599POPC   C3B10917  32.745  17.525   7.917
  599POPC   C4B10918  32.749  17.380   7.492
  600POPC   NC310919   2.788   6.334   9.265
  600POPC   PO410920   2.829   5.726   9.619
  600POPC   GL110921   2.727   5.696   9.151
  600POPC   GL210922   2.512   5.959   9.045
  600POPC   C1A10923   2.820   5.851   8.678
  600POPC   D2A10924   2.992   6.248   8.517
  600POPC   C3A10925   3.051   6.300   8.055
  600POPC   C4A10926   3.003   5.940   7.786
  600POPC   C1B10927   2.474   6.245   8.671
  600POPC   C2B10928   2.554   6.225   8.216
  600POPC   C3B10929   2.455   6.079   7.788
  600POPC   C4B10930   2.284   6.119   7.330
  601POPC   NC310931  31.303  10.397   9.697
  601POPC   PO410932  31.148  11.067   9.465
  601POPC   GL110933  31.348  10.808   9.116
  601POPC   GL210934  31.478  10.466   9.149
  601POPC   C1A10935  31.215  10.624   8.711
  601POPC   D2A10936  31.341  10.743   8.317
  601POPC   C3A10937  31.264  10.546   7.940
  601POPC   C4A10938  31.457  10.794   7.600
  601POPC   C1B10939  31.704  10.681   8.759
  601POPC   C2B10940  31.778  10.493   8.328
  601POPC   C3B10941  31.747  10.466   7.859
  601POPC   C4B10942  31.750  10.361   7.407
  602POPC   NC310943   8.095  42.171   9.664
  602POPC   PO410944   8.490  42.721   9.540
  602POPC   GL110945   8.194  42.514   9.218
  602POPC   GL210946   8.054  42.159   9.168
  602POPC   C1A10947   8.065  42.498   8.786
  602POPC   D2A10948   8.125  42.350   8.383
  602POPC   C3A10949   7.788  42.433   8.084
  602POPC   C4A10950   7.893  42.223   7.715
  602POPC   C1B10951   8.443  42.104   8.971
  602POPC   C2B10952   8.592  42.126   8.558
  602POPC   C3B10953   8.564  42.181   8.118
  602POPC   C4B10954   8.388  42.063   7.747
  603POPC   NC310955   4.040  15.561   9.547
  603POPC   PO410956   4.084  16.206   9.621
  603POPC   GL110957   4.328  16.096   9.209
  603POPC   GL210958   4.227  15.757   9.129
  603POPC   C1A10959   4.492  16.177   8.745
  603POPC   D2A10960   4.284  16.125   8.329
  603POPC   C3A10961   4.476  16.098   7.926
  603POPC   C4A10962   4.245  16.355   7.640
  603POPC   C1B10963   4.110  15.853   8.734
  603POPC   C2B10964   4.524  15.714   8.493
  603POPC   C3B10965   4.633  15.586   8.085
  603POPC   C4B10966   4.290  15.624   7.790
  604POPC   NC310967  11.178  41.270   9.535
  604POPC   PO410968  11.853  41.498   9.529
  604POPC   GL110969  11.602  41.376   9.149
  604POPC   GL210970  11.291  41.575   9.150
  604POPC   C1A10971  11.494  41.319   8.673
  604POPC   D2A10972  11.685  41.456   8.250
  604POPC   C3A10973  11.511  41.487   7.796
  604POPC   C4A10974  11.431  41.277   7.352
  604POPC   C1B10975  11.126  41.689   8.766
  604POPC   C2B10976  11.169  41.604   8.334
  604POPC   C3B10977  11.092  41.816   7.947
  604POPC   C4B10978  10.939  41.629   7.582
  605POPC   NC310979  13.137  11.573   9.464
  605POPC   PO410980  13.241  10.859   9.416
  605POPC   GL110981  13.242  11.209   9.123
  605POPC   GL210982  12.882  11.301   9.121
  605POPC   C1A10983  13.136  11.266   8.676
  605POPC   D2A10984  12.797  11.285   8.358
  605POPC   C3A10985  12.882  11.244   7.936
  605POPC   C4A10986  13.008  11.205   7.536
  605POPC   C1B10987  12.707  11.573   8.790
  605POPC   C2B10988  12.886  11.771   8.426
  605POPC   C3B10989  12.707  11.723   8.032
  605POPC   C4B10990  12.762  11.650   7.626
  606POPC   NC310991  25.129   6.541   9.577
  606POPC   PO410992  25.770   6.541   9.390
  606POPC   GL110993  25.522   6.767   9.100
  606POPC   GL210994  25.162   6.728   9.114
  606POPC   C1A10995  25.377   6.701   8.661
  606POPC   D2A10996  25.231   6.588   8.243
  606POPC   C3A10997  25.540   6.727   7.946
  606POPC   C4A10998  25.618   6.379   7.704
  606POPC   C1B10999  24.886   6.602   8.789
  606POPC   C2B11000  24.743   6.561   8.395
  606POPC   C3B11001  24.791   6.445   7.967
  606POPC   C4B11002  25.118   6.573   7.689
  607POPC   NC311003  40.239  11.909   9.503
  607POPC   PO411004  39.701  12.475   9.554
  607POPC   GL111005  39.935  12.287   9.232
  607POPC   GL211006  39.862  11.950   9.183
  607POPC   C1A11007  40.052  12.247   8.794
  607POPC   D2A11008  39.773  12.339   8.443
  607POPC   C3A11009  39.920  12.330   8.028
  607POPC   C4A11010  40.178  12.054   7.789
  607POPC   C1B11011  39.955  11.709   8.800
  607POPC   C2B11012  40.043  11.605   8.367
  607POPC   C3B11013  39.810  11.801   8.031
  607POPC   C4B11014  39.799  11.724   7.590
  608POPC   NC311015   3.106  21.276   9.571
  608POPC   PO411016   3.739  21.135   9.731
  608POPC   GL111017   3.671  21.222   9.259
  608POPC   GL211018   3.413  21.476   9.153
  608POPC   C1A11019   3.781  21.321   8.808
  608POPC   D2A11020   3.513  21.248   8.424
  608POPC   C3A11021   3.602  21.364   7.992
  608POPC   C4A11022   3.868  21.482   7.633
  608POPC   C1B11023   3.365  21.652   8.726
  608POPC   C2B11024   3.300  21.829   8.290
  608POPC   C3B11025   3.181  21.690   7.861
  608POPC   C4B11026   2.982  21.707   7.429
  609POPC   NC311027  28.610  15.421   9.610
  609POPC   PO411028  27.995  15.098   9.648
  609POPC   GL111029  28.292  15.094   9.267
  609POPC   GL211030  28.235  15.418   9.177
  609POPC   C1A11031  28.332  14.932   8.798
  609POPC   D2A11032  28.505  14.960   8.351
  609POPC   C3A11033  28.178  14.935   8.023
  609POPC   C4A11034  27.752  14.879   7.857
  609POPC   C1B11035  28.456  15.430   8.779
  609POPC   C2B11036  28.281  15.431   8.351
  609POPC   C3B11037  28.429  15.388   7.929
  609POPC   C4B11038  28.691  15.411   7.522
  610POPC   NC311039  14.464  12.637   9.630
  610POPC   PO411040  14.690  13.271   9.469
  610POPC   GL111041  14.471  12.908   9.211
  610POPC   GL211042  14.646  12.538   9.170
  610POPC   C1A11043  14.342  12.762   8.816
  610POPC   D2A11044  14.312  13.036   8.480
  610POPC   C3A11045  14.295  12.909   8.072
  610POPC   C4A11046  14.391  12.958   7.676
  610POPC   C1B11047  14.783  12.509   8.753
  610POPC   C2B11048  14.612  12.607   8.354
  610POPC   C3B11049  14.701  12.602   7.917
  610POPC   C4B11050  14.615  12.553   7.467
  611POPC   NC311051  28.566  41.113   9.421
  611POPC   PO411052  28.321  40.525   9.334
  611POPC   GL111053  28.629  40.704   9.037
  611POPC   GL211054  28.674  41.063   8.929
  611POPC   C1A11055  28.624  40.681   8.579
  611POPC   D2A11056  28.550  40.998   8.272
  611POPC   C3A11057  28.414  40.826   7.906
  611POPC   C4A11058  28.641  40.428   7.812
  611POPC   C1B11059  28.280  41.038   8.722
  611POPC   C2B11060  28.110  40.769   8.391
  611POPC   C3B11061  27.919  40.711   7.994
  611POPC   C4B11062  27.950  40.983   7.640
  612POPC   NC311063  16.294   1.892   9.461
  612POPC   PO411064  16.834   2.123   9.742
  612POPC   GL111065  16.898   2.108   9.285
  612POPC   GL211066  16.800   1.774   9.323
  612POPC   C1A11067  16.896   2.232   8.829
  612POPC   D2A11068  16.580   2.100   8.497
  612POPC   C3A11069  16.633   2.176   8.068
  612POPC   C4A11070  16.919   2.139   7.711
  612POPC   C1B11071  16.637   1.791   8.905
  612POPC   C2B11072  16.602   1.574   8.525
  612POPC   C3B11073  16.619   1.637   8.123
  612POPC   C4B11074  16.484   1.828   7.747
  613POPC   NC311075   8.767   4.019   9.533
  613POPC   PO411076   8.913   4.674   9.596
  613POPC   GL111077   8.823   4.486   9.201
  613POPC   GL211078   8.779   4.148   9.048
  613POPC   C1A11079   8.747   4.628   8.793
  613POPC   D2A11080   8.901   4.525   8.402
  613POPC   C3A11081   8.620   4.652   8.082
  613POPC   C4A11082   8.749   4.654   7.659
  613POPC   C1B11083   8.826   4.054   8.627
  613POPC   C2B11084   8.620   4.118   8.234
  613POPC   C3B11085   8.919   4.252   7.942
  613POPC   C4B11086   9.178   3.971   7.711
  614POPC   NC311087  22.477  17.077   9.753
  614POPC   PO411088  21.872  16.982   9.502
  614POPC   GL111089  22.086  17.130   9.160
  614POPC   GL211090  22.402  17.353   9.185
  614POPC   C1A11091  22.040  17.362   8.789
  614POPC   D2A11092  22.299  17.409   8.420
  614POPC   C3A11093  22.127  17.307   8.035
  614POPC   C4A11094  22.168  17.584   7.670
  614POPC   C1B11095  22.513  17.660   8.826
  614POPC   C2B11096  22.624  17.782   8.394
  614POPC   C3B11097  22.616  17.643   7.965
  614POPC   C4B11098  22.600  17.890   7.585
  615POPC   NC311099   9.896   8.419   9.548
  615POPC   PO411100  10.539   8.285   9.706
  615POPC   GL111101  10.358   8.305   9.283
  615POPC   GL211102  10.313   7.955   9.207
  615POPC   C1A11103  10.394   8.478   8.851
  615POPC   D2A11104  10.447   8.293   8.433
  615POPC   C3A11105  10.384   8.486   8.050
  615POPC   C4A11106  10.436   8.373   7.644
  615POPC   C1B11107  10.572   7.975   8.835
  615POPC   C2B11108  10.620   7.798   8.399
  615POPC   C3B11109  10.616   8.002   7.990
  615POPC   C4B11110  10.497   7.876   7.573
  616POPC   NC311111  20.789  39.174   9.526
  616POPC   PO411112  20.166  39.371   9.567
  616POPC   GL111113  20.429  39.340   9.172
  616POPC   GL211114  20.673  39.067   9.045
  616POPC   C1A11115  20.502  39.452   8.719
  616POPC   D2A11116  20.805  39.507   8.364
  616POPC   C3A11117  20.657  39.404   7.949
  616POPC   C4A11118  20.372  39.062   7.913
  616POPC   C1B11119  20.907  39.046   8.654
  616POPC   C2B11120  20.795  38.984   8.229
  616POPC   C3B11121  20.919  38.989   7.801
  616POPC   C4B11122  21.001  39.115   7.392
  617POPC   NC311123  20.108  17.082   9.456
  617POPC   PO411124  19.742  16.525   9.546
  617POPC   GL111125  19.698  16.847   9.256
  617POPC   GL211126  20.002  16.701   9.128
  617POPC   C1A11127  19.631  16.937   8.825
  617POPC   D2A11128  19.565  16.939   8.357
  617POPC   C3A11129  19.796  16.706   8.057
  617POPC   C4A11130  19.733  16.680   7.630
  617POPC   C1B11131  20.191  16.914   8.802
  617POPC   C2B11132  20.128  16.891   8.380
  617POPC   C3B11133  20.196  17.027   7.932
  617POPC   C4B11134  20.116  16.982   7.492
  618POPC   NC311135  43.474  24.273   9.668
  618POPC   PO411136  42.891  24.571   9.495
  618POPC   GL111137  43.166  24.407   9.240
  618POPC   GL211138  43.271  24.754   9.187
  618POPC   C1A11139  43.243  24.187   8.827
  618POPC   D2A11140  43.557  24.160   8.443
  618POPC   C3A11141  43.351  24.187   8.051
  618POPC   C4A11142  43.016  24.095   7.769
  618POPC   C1B11143  42.946  24.652   8.837
  618POPC   C2B11144  42.762  24.474   8.458
  618POPC   C3B11145  42.904  24.514   8.049
  618POPC   C4B11146  42.913  24.728   7.666
  619POPC   NC311147   5.514  18.583   9.577
  619POPC   PO411148   5.809  17.950   9.475
  619POPC   GL111149   5.656  18.226   9.196
  619POPC   GL211150   5.913  18.481   9.235
  619POPC   C1A11151   5.554  18.210   8.749
  619POPC   D2A11152   5.878  18.322   8.405
  619POPC   C3A11153   5.823  18.205   7.986
  619POPC   C4A11154   5.988  18.435   7.645
  619POPC   C1B11155   6.073  18.268   8.871
  619POPC   C2B11156   6.398  18.243   8.535
  619POPC   C3B11157   6.326  18.167   8.088
  619POPC   C4B11158   6.428  18.113   7.657
  620POPC   NC311159   6.473  16.555   9.417
  620POPC   PO411160   6.805  17.129   9.578
  620POPC   GL111161   6.608  17.017   9.188
  620POPC   GL211162   6.863  16.778   9.179
  620POPC   C1A11163   6.523  16.750   8.795
  620POPC   D2A11164   6.441  16.929   8.416
  620POPC   C3A11165   6.466  16.702   8.063
  620POPC   C4A11166   6.756  16.702   7.804
  620POPC   C1B11167   7.016  16.971   8.844
  620POPC   C2B11168   6.951  17.071   8.436
  620POPC   C3B11169   7.117  16.964   8.071
  620POPC   C4B11170   7.076  17.095   7.688
  621POPC   NC311171  23.702  24.205   9.408
  621POPC   PO411172  24.098  24.711   9.528
  621POPC   GL111173  24.136  24.399   9.173
  621POPC   GL211174  23.863  24.561   9.086
  621POPC   C1A11175  24.002  24.182   8.781
  621POPC   D2A11176  23.812  24.249   8.352
  621POPC   C3A11177  24.011  24.269   7.946
  621POPC   C4A11178  23.884  24.467   7.515
  621POPC   C1B11179  23.711  24.635   8.718
  621POPC   C2B11180  23.456  24.600   8.376
  621POPC   C3B11181  23.596  24.664   7.956
  621POPC   C4B11182  23.390  24.555   7.591
  622POPC   NC311183  12.772  39.295   9.566
  622POPC   PO411184  13.353  39.582   9.509
  622POPC   GL111185  13.024  39.453   9.155
  622POPC   GL211186  12.882  39.068   9.138
  622POPC   C1A11187  12.931  39.359   8.715
  622POPC   D2A11188  13.182  39.263   8.352
  622POPC   C3A11189  13.011  39.507   8.031
  622POPC   C4A11190  12.799  39.226   7.754
  622POPC   C1B11191  12.633  38.930   8.773
  622POPC   C2B11192  12.711  38.932   8.318
  622POPC   C3B11193  12.686  38.728   7.891
  622POPC   C4B11194  12.599  38.836   7.471
  623POPC   NC311195  33.637  23.048   9.821
  623POPC   PO411196  34.101  23.229   9.346
  623POPC   GL111197  33.928  22.957   9.072
  623POPC   GL211198  33.602  22.999   9.137
  623POPC   C1A11199  33.806  22.807   8.653
  623POPC   D2A11200  33.623  22.876   8.234
  623POPC   C3A11201  33.941  22.750   7.916
  623POPC   C4A11202  34.320  22.600   7.718
  623POPC   C1B11203  33.508  23.219   8.695
  623POPC   C2B11204  33.475  23.393   8.235
  623POPC   C3B11205  33.476  23.173   7.814
  623POPC   C4B11206  33.557  22.788   7.581
  624POPC   NC311207  10.746  25.546   9.574
  624POPC   PO411208  10.213  25.276   9.484
  624POPC   GL111209  10.567  25.156   9.217
  624POPC   GL211210  10.812  25.403   9.105
  624POPC   C1A11211  10.602  25.080   8.781
  624POPC   D2A11212  10.377  25.267   8.481
  624POPC   C3A11213  10.509  25.127   8.114
  624POPC   C4A11214  10.255  24.996   7.790
  624POPC   C1B11215  10.668  25.600   8.746
  624POPC   C2B11216  10.801  25.523   8.377
  624POPC   C3B11217  10.618  25.638   8.057
  624POPC   C4B11218  10.499  25.454   7.717
  625POPC   NC311219  25.052  26.598   9.799
  625POPC   PO411220  25.404  26.976   9.317
  625POPC   GL111221  25.395  26.827   8.952
  625POPC   GL211222  25.692  26.676   9.028
  625POPC   C1A11223  25.247  26.755   8.520
  625POPC   D2A11224  25.211  26.623   8.094
  625POPC   C3A11225  25.062  26.926   7.783
  625POPC   C4A11226  24.914  27.066   7.355
  625POPC   C1B11227  25.756  26.706   8.607
  625POPC   C2B11228  25.728  26.934   8.264
  625POPC   C3B11229  25.581  26.930   7.884
  625POPC   C4B11230  25.583  26.517   7.745
  626POPC   NC311231  44.776  12.650   9.483
  626POPC   PO411232   0.027  13.345   9.443
  626POPC   GL111233  44.815  13.059   9.177
  626POPC   GL211234   0.135  12.865   9.181
  626POPC   C1A11235  44.543  12.897   8.836
  626POPC   D2A11236  44.479  13.001   8.406
  626POPC   C3A11237  44.387  12.652   8.107
  626POPC   C4A11238  44.475  12.849   7.700
  626POPC   C1B11239  44.987  12.568   8.863
  626POPC   C2B11240  44.790  12.602   8.461
  626POPC   C3B11241  44.862  12.839   8.086
  626POPC   C4B11242  44.952  12.677   7.709
  627POPC   NC311243   7.892   1.502   9.447
  627POPC   PO411244   8.143   2.195   9.476
  627POPC   GL111245   8.194   1.864   9.150
  627POPC   GL211246   8.336   1.564   9.194
  627POPC   C1A11247   8.044   1.786   8.750
  627POPC   D2A11248   8.236   1.888   8.384
  627POPC   C3A11249   8.147   2.131   8.032
  627POPC   C4A11250   7.816   1.921   7.903
  627POPC   C1B11251   8.515   1.352   8.865
  627POPC   C2B11252   8.481   1.440   8.469
  627POPC   C3B11253   8.522   1.414   8.051
  627POPC   C4B11254   8.318   1.718   7.794
  628POPC   NC311255  44.007   9.042   9.571
  628POPC   PO411256  43.674   9.422   9.163
  628POPC   GL111257  43.741   8.938   9.079
  628POPC   GL211258  44.092   8.768   9.163
  628POPC   C1A11259  43.563   8.698   8.698
  628POPC   D2A11260  43.366   8.753   8.257
  628POPC   C3A11261  43.633   8.990   7.952
  628POPC   C4A11262  43.935   9.323   8.090
  628POPC   C1B11263  44.121   8.742   8.744
  628POPC   C2B11264  43.919   8.783   8.340
  628POPC   C3B11265  44.033   8.671   7.952
  628POPC   C4B11266  44.097   9.015   7.714
  629POPC   NC311267  14.277   9.145   9.466
  629POPC   PO411268  14.725   8.646   9.546
  629POPC   GL111269  14.453   8.659   9.193
  629POPC   GL211270  14.524   9.000   9.031
  629POPC   C1A11271  14.240   8.667   8.800
  629POPC   D2A11272  14.330   8.889   8.425
  629POPC   C3A11273  14.293   8.722   8.025
  629POPC   C4A11274  14.599   8.885   7.783
  629POPC   C1B11275  14.142   9.196   8.805
  629POPC   C2B11276  14.040   9.377   8.404
  629POPC   C3B11277  14.208   9.234   8.026
  629POPC   C4B11278  14.207   9.191   7.593
  630POPC   NC311279   0.815  17.501   9.541
  630POPC   PO411280   0.217  17.170   9.560
  630POPC   GL111281   0.432  17.160   9.205
  630POPC   GL211282   0.413  17.500   9.174
  630POPC   C1A11283   0.309  17.166   8.792
  630POPC   D2A11284   0.349  17.423   8.379
  630POPC   C3A11285   0.351  17.212   7.971
  630POPC   C4A11286   0.258  17.398   7.564
  630POPC   C1B11287   0.542  17.620   8.810
  630POPC   C2B11288   0.806  17.352   8.582
  630POPC   C3B11289   0.814  17.361   8.131
  630POPC   C4B11290   0.618  17.679   7.869
  631POPC   NC311291  36.223  16.429   9.613
  631POPC   PO411292  36.141  15.779   9.596
  631POPC   GL111293  36.039  15.973   9.221
  631POPC   GL211294  35.810  16.250   9.261
  631POPC   C1A11295  36.176  15.927   8.817
  631POPC   D2A11296  36.129  15.715   8.437
  631POPC   C3A11297  36.153  15.933   8.028
  631POPC   C4A11298  36.319  16.276   7.790
  631POPC   C1B11299  35.872  16.348   8.828
  631POPC   C2B11300  35.990  16.232   8.423
  631POPC   C3B11301  35.846  16.359   7.980
  631POPC   C4B11302  35.815  16.280   7.508
  632POPC   NC311303  19.499  23.825   9.420
  632POPC   PO411304  20.149  23.652   9.581
  632POPC   GL111305  19.947  23.703   9.180
  632POPC   GL211306  19.683  23.425   9.151
  632POPC   C1A11307  19.814  23.850   8.760
  632POPC   D2A11308  19.550  23.669   8.424
  632POPC   C3A11309  19.590  23.814   7.973
  632POPC   C4A11310  19.641  23.917   7.487
  632POPC   C1B11311  19.930  23.351   8.797
  632POPC   C2B11312  19.822  23.235   8.390
  632POPC   C3B11313  19.891  23.328   7.966
  632POPC   C4B11314  19.672  23.448   7.624
  633POPC   NC311315  19.351  16.271   9.497
  633POPC   PO411316  18.976  16.891   9.463
  633POPC   GL111317  19.105  16.744   9.079
  633POPC   GL211318  18.763  16.813   8.991
  633POPC   C1A11319  19.259  16.643   8.655
  633POPC   D2A11320  19.414  16.432   8.280
  633POPC   C3A11321  19.301  16.702   7.944
  633POPC   C4A11322  19.280  16.907   7.558
  633POPC   C1B11323  18.782  16.497   8.730
  633POPC   C2B11324  18.898  16.369   8.355
  633POPC   C3B11325  18.771  16.541   8.005
  633POPC   C4B11326  18.931  16.527   7.644
  634POPC   NC311327   6.890   6.871   9.739
  634POPC   PO411328   6.222   7.089   9.623
  634POPC   GL111329   6.200   6.923   9.103
  634POPC   GL211330   6.381   6.573   9.018
  634POPC   C1A11331   6.344   6.924   8.664
  634POPC   D2A11332   6.588   6.917   8.301
  634POPC   C3A11333   6.441   6.611   8.017
  634POPC   C4A11334   6.343   6.670   7.607
  634POPC   C1B11335   6.773   6.653   8.734
  634POPC   C2B11336   7.014   6.614   8.351
  634POPC   C3B11337   6.928   6.431   8.006
  634POPC   C4B11338   6.876   6.594   7.639
  635POPC   NC311339   5.938   3.102   9.675
  635POPC   PO411340   5.765   2.489   9.654
  635POPC   GL111341   5.778   2.791   9.251
  635POPC   GL211342   5.487   2.804   9.081
  635POPC   C1A11343   5.899   2.888   8.811
  635POPC   D2A11344   5.876   2.650   8.397
  635POPC   C3A11345   5.917   2.792   7.978
  635POPC   C4A11346   6.060   2.800   7.570
  635POPC   C1B11347   5.430   2.761   8.650
  635POPC   C2B11348   5.344   2.719   8.244
  635POPC   C3B11349   5.548   2.455   8.039
  635POPC   C4B11350   5.698   2.458   7.643
  636POPC   NC311351  12.957  37.172   9.432
  636POPC   PO411352  12.733  36.595   9.673
  636POPC   GL111353  12.986  36.695   9.231
  636POPC   GL211354  12.825  36.999   8.985
  636POPC   C1A11355  13.075  36.637   8.770
  636POPC   D2A11356  12.677  36.747   8.527
  636POPC   C3A11357  12.812  36.928   8.157
  636POPC   C4A11358  13.101  36.764   7.853
  636POPC   C1B11359  13.163  37.267   8.781
  636POPC   C2B11360  13.288  37.460   8.394
  636POPC   C3B11361  13.134  37.283   7.969
  636POPC   C4B11362  12.721  37.279   7.775
  637POPC   NC311363   7.945  44.734   9.488
  637POPC   PO411364   8.587  44.507   9.709
  637POPC   GL111365   8.373  44.528   9.219
  637POPC   GL211366   8.027  44.563   9.037
  637POPC   C1A11367   8.424  44.416   8.779
  637POPC   D2A11368   8.472  44.729   8.468
  637POPC   C3A11369   8.450  44.672   8.014
  637POPC   C4A11370   8.329  44.896   7.640
  637POPC   C1B11371   8.050  44.865   8.736
  637POPC   C2B11372   7.905  44.984   8.342
  637POPC   C3B11373   7.936  44.747   7.957
  637POPC   C4B11374   7.694  44.371   7.840
  638POPC   NC311375  38.067  32.951   9.577
  638POPC   PO411376  37.640  33.347   9.847
  638POPC   GL111377  37.714  33.175   9.295
  638POPC   GL211378  37.931  33.362   9.069
  638POPC   C1A11379  37.811  32.860   8.872
  638POPC   D2A11380  37.677  32.677   8.426
  638POPC   C3A11381  37.687  32.811   8.003
  638POPC   C4A11382  38.041  32.877   7.727
  638POPC   C1B11383  37.593  33.298   8.798
  638POPC   C2B11384  37.877  33.189   8.449
  638POPC   C3B11385  37.885  33.293   8.007
  638POPC   C4B11386  37.598  33.220   7.681
  639POPC   NC311387  10.748  38.050   9.624
  639POPC   PO411388  10.292  38.539   9.741
  639POPC   GL111389  10.406  38.315   9.355
  639POPC   GL211390  10.675  38.495   9.225
  639POPC   C1A11391  10.361  38.201   8.914
  639POPC   D2A11392  10.373  38.341   8.471
  639POPC   C3A11393  10.547  38.134   8.118
  639POPC   C4A11394  10.419  38.245   7.706
  639POPC   C1B11395  10.728  38.541   8.807
  639POPC   C2B11396  10.897  38.393   8.431
  639POPC   C3B11397  10.791  38.575   8.080
  639POPC   C4B11398  10.867  38.520   7.670
  640POPC   NC311399  26.291  19.400   9.665
  640POPC   PO411400  26.894  19.721   9.523
  640POPC   GL111401  27.003  19.809   9.144
  640POPC   GL211402  27.238  19.571   9.106
  640POPC   C1A11403  26.845  20.025   8.813
  640POPC   D2A11404  26.763  19.880   8.426
  640POPC   C3A11405  26.912  20.131   8.117
  640POPC   C4A11406  26.716  20.129   7.735
  640POPC   C1B11407  27.088  19.525   8.687
  640POPC   C2B11408  27.018  19.479   8.225
  640POPC   C3B11409  27.047  19.715   7.828
  640POPC   C4B11410  27.174  19.618   7.370
  641POPC   NC311411   6.873  41.822   9.635
  641POPC   PO411412   6.931  41.058   9.574
  641POPC   GL111413   6.752  41.260   9.207
  641POPC   GL211414   6.711  41.559   9.221
  641POPC   C1A11415   6.580  41.225   8.790
  641POPC   D2A11416   6.755  41.225   8.362
  641POPC   C3A11417   6.571  41.346   7.973
  641POPC   C4A11418   6.733  41.386   7.542
  641POPC   C1B11419   6.503  41.721   8.855
  641POPC   C2B11420   6.497  41.684   8.405
  641POPC   C3B11421   6.699  41.838   8.008
  641POPC   C4B11422   6.461  41.789   7.609
  642POPC   NC311423  19.479  32.922   9.361
  642POPC   PO411424  18.800  33.023   9.492
  642POPC   GL111425  19.025  32.916   9.105
  642POPC   GL211426  19.259  33.228   9.004
  642POPC   C1A11427  19.019  32.970   8.645
  642POPC   D2A11428  19.240  33.347   8.453
  642POPC   C3A11429  19.266  33.195   8.054
  642POPC   C4A11430  18.899  32.939   7.918
  642POPC   C1B11431  19.528  32.979   8.712
  642POPC   C2B11432  19.420  32.694   8.374
  642POPC   C3B11433  19.482  32.696   7.927
  642POPC   C4B11434  19.301  32.954   7.596
  643POPC   NC311435  17.209  23.650   9.757
  643POPC   PO411436  16.562  23.825   9.528
  643POPC   GL111437  16.639  23.841   9.100
  643POPC   GL211438  16.872  23.663   9.151
  643POPC   C1A11439  16.593  23.949   8.700
  643POPC   D2A11440  16.506  23.706   8.370
  643POPC   C3A11441  16.620  23.939   8.010
  643POPC   C4A11442  16.485  23.963   7.596
  643POPC   C1B11443  17.053  23.671   8.802
  643POPC   C2B11444  16.996  23.794   8.412
  643POPC   C3B11445  17.051  23.669   8.024
  643POPC   C4B11446  17.331  23.664   7.701
  644POPC   NC311447  35.596  32.268   9.452
  644POPC   PO411448  35.036  32.609   9.347
  644POPC   GL111449  35.108  32.264   9.100
  644POPC   GL211450  35.398  32.417   8.955
  644POPC   C1A11451  34.972  32.182   8.689
  644POPC   D2A11452  35.176  32.431   8.382
  644POPC   C3A11453  35.286  32.263   7.977
  644POPC   C4A11454  35.434  32.529   7.670
  644POPC   C1B11455  35.500  32.078   8.667
  644POPC   C2B11456  35.738  32.112   8.277
  644POPC   C3B11457  35.813  32.282   7.863
  644POPC   C4B11458  35.802  32.284   7.374
  645POPC   NC311459   7.654  34.655   9.455
  645POPC   PO411460   7.196  34.187   9.489
  645POPC   GL111461   7.304  34.446   9.148
  645POPC   GL211462   7.659  34.328   9.078
  645POPC   C1A11463   7.327  34.679   8.757
  645POPC   D2A11464   7.555  34.582   8.357
  645POPC   C3A11465   7.510  34.863   7.995
  645POPC   C4A11466   7.334  34.848   7.549
  645POPC   C1B11467   7.455  34.179   8.723
  645POPC   C2B11468   7.327  34.106   8.359
  645POPC   C3B11469   7.104  34.317   8.122
  645POPC   C4B11470   7.371  34.408   7.832
  646POPC   NC311471  16.131  24.917   9.517
  646POPC   PO411472  15.741  25.452   9.430
  646POPC   GL111473  15.914  25.204   9.139
  646POPC   GL211474  15.688  24.927   9.226
  646POPC   C1A11475  16.124  25.303   8.752
  646POPC   D2A11476  15.937  25.334   8.381
  646POPC   C3A11477  16.118  25.215   8.030
  646POPC   C4A11478  16.027  25.426   7.657
  646POPC   C1B11479  15.618  24.992   8.788
  646POPC   C2B11480  15.758  24.840   8.409
  646POPC   C3B11481  15.626  24.918   8.012
  646POPC   C4B11482  15.739  24.989   7.650
  647POPC   NC311483  22.779   8.709   9.605
  647POPC   PO411484  23.102   9.276   9.565
  647POPC   GL111485  23.025   8.991   9.203
  647POPC   GL211486  23.257   8.713   9.249
  647POPC   C1A11487  22.837   8.998   8.764
  647POPC   D2A11488  22.545   8.843   8.428
  647POPC   C3A11489  22.644   8.981   8.028
  647POPC   C4A11490  22.872   8.715   7.793
  647POPC   C1B11491  23.288   8.789   8.806
  647POPC   C2B11492  23.085   8.753   8.376
  647POPC   C3B11493  23.223   8.983   8.027
  647POPC   C4B11494  23.114   9.349   7.819
  648POPC   NC311495  23.005  22.964   9.509
  648POPC   PO411496  22.380  22.982   9.681
  648POPC   GL111497  22.606  22.860   9.210
  648POPC   GL211498  22.856  23.126   9.048
  648POPC   C1A11499  22.808  22.742   8.748
  648POPC   D2A11500  22.845  22.947   8.337
  648POPC   C3A11501  22.816  22.689   7.975
  648POPC   C4A11502  22.582  22.636   7.602
  648POPC   C1B11503  23.240  23.374   8.858
  648POPC   C2B11504  23.307  23.555   8.444
  648POPC   C3B11505  23.253  23.374   8.054
  648POPC   C4B11506  22.955  23.154   7.845
  649POPC   NC311507   1.476   4.231   9.465
  649POPC   PO411508   0.829   4.174   9.760
  649POPC   GL111509   0.952   4.234   9.302
  649POPC   GL211510   1.078   4.553   9.207
  649POPC   C1A11511   1.120   4.150   8.861
  649POPC   D2A11512   1.087   4.314   8.469
  649POPC   C3A11513   1.383   4.137   8.218
  649POPC   C4A11514   1.371   4.156   7.777
  649POPC   C1B11515   1.294   4.627   8.797
  649POPC   C2B11516   1.479   4.618   8.429
  649POPC   C3B11517   1.287   4.630   8.049
  649POPC   C4B11518   1.467   4.665   7.678
  650POPC   NC311519  12.420   2.693   9.452
  650POPC   PO411520  11.780   2.835   9.620
  650POPC   GL111521  11.935   2.548   9.270
  650POPC   GL211522  12.083   2.809   9.069
  650POPC   C1A11523  11.861   2.382   8.835
  650POPC   D2A11524  11.770   2.541   8.418
  650POPC   C3A11525  11.982   2.587   8.019
  650POPC   C4A11526  12.055   2.422   7.572
  650POPC   C1B11527  12.270   2.707   8.683
  650POPC   C2B11528  12.647   2.629   8.444
  650POPC   C3B11529  12.493   2.565   8.051
  650POPC   C4B11530  12.298   2.864   7.733
  651POPC   NC311531  14.306   3.957   9.578
  651POPC   PO411532  14.507   4.495   9.523
  651POPC   GL111533  14.479   4.263   9.181
  651POPC   GL211534  14.748   4.087   9.174
  651POPC   C1A11535  14.449   4.126   8.762
  651POPC   D2A11536  14.232   4.116   8.403
  651POPC   C3A11537  14.433   4.232   8.035
  651POPC   C4A11538  14.313   4.462   7.705
  651POPC   C1B11539  14.889   3.875   8.857
  651POPC   C2B11540  14.769   3.896   8.449
  651POPC   C3B11541  14.506   3.744   8.160
  651POPC   C4B11542  14.641   3.871   7.738
  652POPC   NC311543  16.841  31.255   9.587
  652POPC   PO411544  16.401  31.805   9.419
  652POPC   GL111545  16.687  31.598   9.145
  652POPC   GL211546  16.985  31.761   9.170
  652POPC   C1A11547  16.664  31.657   8.707
  652POPC   D2A11548  16.592  31.420   8.332
  652POPC   C3A11549  16.559  31.686   7.995
  652POPC   C4A11550  16.763  31.497   7.671
  652POPC   C1B11551  17.152  31.538   8.856
  652POPC   C2B11552  17.191  31.641   8.479
  652POPC   C3B11553  17.042  31.556   8.117
  652POPC   C4B11554  17.230  31.612   7.772
  653POPC   NC311555  38.283   2.959   9.719
  653POPC   PO411556  38.218   3.549   9.434
  653POPC   GL111557  38.363   3.607   9.074
  653POPC   GL211558  38.681   3.674   9.078
  653POPC   C1A11559  38.348   3.597   8.658
  653POPC   D2A11560  38.679   3.523   8.363
  653POPC   C3A11561  38.571   3.678   7.983
  653POPC   C4A11562  38.467   3.501   7.607
  653POPC   C1B11563  38.735   3.927   8.692
  653POPC   C2B11564  38.917   3.965   8.291
  653POPC   C3B11565  39.073   3.642   8.008
  653POPC   C4B11566  38.929   3.713   7.585
  654POPC   NC311567  19.934  12.418   9.977
  654POPC   PO411568  19.996  11.922   9.530
  654POPC   GL111569  19.802  12.196   9.195
  654POPC   GL211570  19.487  12.075   9.026
  654POPC   C1A11571  19.882  12.273   8.743
  654POPC   D2A11572  19.670  12.051   8.397
  654POPC   C3A11573  19.835  12.155   7.997
  654POPC   C4A11574  20.216  12.103   7.733
  654POPC   C1B11575  19.382  11.677   8.811
  654POPC   C2B11576  19.478  11.530   8.415
  654POPC   C3B11577  19.508  11.717   8.030
  654POPC   C4B11578  19.375  11.598   7.612
  655POPC   NC311579  40.582   5.401   9.405
  655POPC   PO411580  40.589   4.774   9.385
  655POPC   GL111581  40.770   5.046   9.094
  655POPC   GL211582  41.123   4.984   9.105
  655POPC   C1A11583  40.707   5.142   8.655
  655POPC   D2A11584  40.674   5.023   8.247
  655POPC   C3A11585  41.044   4.825   8.097
  655POPC   C4A11586  41.068   4.784   7.668
  655POPC   C1B11587  41.122   5.369   8.796
  655POPC   C2B11588  40.976   5.491   8.362
  655POPC   C3B11589  40.976   5.328   7.921
  655POPC   C4B11590  41.023   5.312   7.457
  656POPC   NC311591  15.345   9.571   9.428
  656POPC   PO411592  14.955  10.060   9.541
  656POPC   GL111593  15.211   9.959   9.150
  656POPC   GL211594  14.957   9.737   9.106
  656POPC   C1A11595  15.302   9.658   8.752
  656POPC   D2A11596  15.041   9.535   8.387
  656POPC   C3A11597  15.151   9.622   7.942
  656POPC   C4A11598  15.430   9.426   7.624
  656POPC   C1B11599  14.864   9.952   8.703
  656POPC   C2B11600  14.821   9.994   8.235
  656POPC   C3B11601  14.755   9.898   7.778
  656POPC   C4B11602  14.888  10.174   7.412
  657POPC   NC311603   2.756   6.219   9.767
  657POPC   PO411604   2.615   6.901   9.598
  657POPC   GL111605   2.919   6.835   9.256
  657POPC   GL211606   2.611   6.792   9.105
  657POPC   C1A11607   3.041   6.685   8.798
  657POPC   D2A11608   2.843   6.720   8.393
  657POPC   C3A11609   3.050   6.830   8.026
  657POPC   C4A11610   2.851   6.827   7.637
  657POPC   C1B11611   2.463   6.765   8.725
  657POPC   C2B11612   2.312   6.656   8.363
  657POPC   C3B11613   2.518   6.686   7.989
  657POPC   C4B11614   2.379   6.550   7.623
  658POPC   NC311615  32.493  23.124   9.515
  658POPC   PO411616  33.228  23.026   9.581
  658POPC   GL111617  33.108  22.928   9.205
  658POPC   GL211618  33.146  23.273   9.108
  658POPC   C1A11619  33.284  22.757   8.813
  658POPC   D2A11620  32.916  22.644   8.572
  658POPC   C3A11621  32.869  22.679   8.137
  658POPC   C4A11622  33.158  22.792   7.907
  658POPC   C1B11623  32.945  23.122   8.777
  658POPC   C2B11624  33.116  23.064   8.380
  658POPC   C3B11625  32.953  23.261   8.040
  658POPC   C4B11626  33.022  23.436   7.656
  659POPC   NC311627  33.966  13.285   9.610
  659POPC   PO411628  33.830  12.665   9.652
  659POPC   GL111629  33.964  12.848   9.244
  659POPC   GL211630  34.149  13.128   9.163
  659POPC   C1A11631  33.781  12.972   8.831
  659POPC   D2A11632  33.567  12.736   8.532
  659POPC   C3A11633  33.652  12.902   8.156
  659POPC   C4A11634  33.613  12.810   7.738
  659POPC   C1B11635  34.274  12.820   8.789
  659POPC   C2B11636  34.061  12.644   8.381
  659POPC   C3B11637  34.087  12.699   7.908
  659POPC   C4B11638  34.026  13.015   7.515
  660POPC   NC311639  36.590  30.884   9.507
  660POPC   PO411640  36.404  30.257   9.470
  660POPC   GL111641  36.778  30.496   9.230
  660POPC   GL211642  36.784  30.814   9.060
  660POPC   C1A11643  37.105  30.481   8.856
  660POPC   D2A11644  37.289  30.766   8.517
  660POPC   C3A11645  36.979  30.834   8.163
  660POPC   C4A11646  36.918  30.744   7.723
  660POPC   C1B11647  36.831  30.941   8.669
  660POPC   C2B11648  36.636  31.169   8.351
  660POPC   C3B11649  36.591  31.076   7.914
  660POPC   C4B11650  36.622  31.092   7.452
  661POPC   NC311651  23.748  29.402   9.580
  661POPC   PO411652  23.914  28.857   9.453
  661POPC   GL111653  23.906  29.176   9.116
  661POPC   GL211654  23.561  29.239   9.123
  661POPC   C1A11655  23.889  29.246   8.644
  661POPC   D2A11656  24.025  29.119   8.229
  661POPC   C3A11657  23.712  29.030   7.923
  661POPC   C4A11658  23.419  28.867   7.596
  661POPC   C1B11659  23.371  29.279   8.710
  661POPC   C2B11660  23.500  29.340   8.284
  661POPC   C3B11661  23.308  29.323   7.854
  661POPC   C4B11662  23.096  29.336   7.434
  662POPC   NC311663  11.804  42.454   9.498
  662POPC   PO411664  11.127  42.491   9.488
  662POPC   GL111665  11.404  42.462   9.152
  662POPC   GL211666  11.399  42.099   9.192
  662POPC   C1A11667  11.462  42.308   8.718
  662POPC   D2A11668  11.374  42.541   8.370
  662POPC   C3A11669  11.617  42.517   8.009
  662POPC   C4A11670  11.339  42.572   7.666
  662POPC   C1B11671  11.018  42.179   8.903
  662POPC   C2B11672  11.059  42.117   8.455
  662POPC   C3B11673  11.466  42.041   8.231
  662POPC   C4B11674  11.550  42.028   7.791
  663POPC   NC311675  26.082  37.948   9.494
  663POPC   PO411676  25.996  37.330   9.526
  663POPC   GL111677  25.839  37.466   9.137
  663POPC   GL211678  26.194  37.621   9.065
  663POPC   C1A11679  25.853  37.563   8.685
  663POPC   D2A11680  26.152  37.512   8.373
  663POPC   C3A11681  26.036  37.690   7.963
  663POPC   C4A11682  25.780  37.994   7.729
  663POPC   C1B11683  26.363  37.880   8.698
  663POPC   C2B11684  26.468  37.896   8.236
  663POPC   C3B11685  26.411  38.022   7.795
  663POPC   C4B11686  26.251  38.325   7.450
  664POPC   NC311687  11.558   6.561   9.489
  664POPC   PO411688  10.908   6.691   9.566
  664POPC   GL111689  11.148   6.785   9.191
  664POPC   GL211690  11.501   6.928   9.145
  664POPC   C1A11691  11.110   6.861   8.762
  664POPC   D2A11692  11.213   6.643   8.356
  664POPC   C3A11693  11.000   6.806   8.011
  664POPC   C4A11694  10.741   6.616   7.692
  664POPC   C1B11695  11.547   6.612   8.811
  664POPC   C2B11696  11.700   6.739   8.398
  664POPC   C3B11697  11.599   6.563   7.992
  664POPC   C4B11698  11.369   6.670   7.647
  665POPC   NC311699  37.655  11.061   9.643
  665POPC   PO411700  37.501  11.707   9.759
  665POPC   GL111701  37.812  11.517   9.362
  665POPC   GL211702  37.754  11.219   9.166
  665POPC   C1A11703  37.899  11.617   8.869
  665POPC   D2A11704  37.624  11.579   8.449
  665POPC   C3A11705  37.671  11.412   7.992
  665POPC   C4A11706  37.884  11.233   7.592
  665POPC   C1B11707  37.477  11.179   8.780
  665POPC   C2B11708  37.401  11.087   8.312
  665POPC   C3B11709  37.502  10.930   7.868
  665POPC   C4B11710  37.431  11.034   7.402
  666POPC   NC311711  21.539   6.001   9.403
  666POPC   PO411712  21.263   6.487   9.766
  666POPC   GL111713  21.424   6.626   9.338
  666POPC   GL211714  21.704   6.853   9.292
  666POPC   C1A11715  21.400   6.473   8.896
  666POPC   D2A11716  21.261   6.361   8.458
  666POPC   C3A11717  21.153   6.654   8.170
  666POPC   C4A11718  21.144   6.706   7.763
  666POPC   C1B11719  21.747   6.843   8.855
  666POPC   C2B11720  21.556   6.798   8.441
  666POPC   C3B11721  21.621   6.712   7.985
  666POPC   C4B11722  21.660   6.938   7.554
  667POPC   NC311723  44.593  34.559   9.549
  667POPC   PO411724   0.105  34.243   9.448
  667POPC   GL111725  44.817  34.480   9.102
  667POPC   GL211726  44.559  34.796   9.098
  667POPC   C1A11727  44.598  34.474   8.694
  667POPC   D2A11728  44.345  34.406   8.353
  667POPC   C3A11729  44.481  34.451   7.930
  667POPC   C4A11730  44.750  34.637   7.565
  667POPC   C1B11731  44.770  34.945   8.719
  667POPC   C2B11732  44.749  34.801   8.253
  667POPC   C3B11733  44.476  34.945   7.875
  667POPC   C4B11734  44.398  34.970   7.405
  668POPC   NC311735  10.382  10.235   9.684
  668POPC   PO411736  10.759  10.798   9.547
  668POPC   GL111737  10.471  10.781   9.230
  668POPC   GL211738  10.353  10.444   9.217
  668POPC   C1A11739  10.596  10.829   8.817
  668POPC   D2A11740  10.757  10.680   8.466
  668POPC   C3A11741  10.406  10.645   8.209
  668POPC   C4A11742  10.589  10.830   7.856
  668POPC   C1B11743  10.451  10.322   8.798
  668POPC   C2B11744  10.603  10.203   8.397
  668POPC   C3B11745  10.761  10.333   8.007
  668POPC   C4B11746  10.514  10.231   7.669
  669POPC   NC311747  42.217  38.616   9.434
  669POPC   PO411748  42.439  37.945   9.438
  669POPC   GL111749  42.469  38.260   9.138
  669POPC   GL211750  42.706  38.502   9.266
  669POPC   C1A11751  42.278  38.447   8.776
  669POPC   D2A11752  42.377  38.687   8.429
  669POPC   C3A11753  42.179  38.733   8.033
  669POPC   C4A11754  42.183  38.405   7.783
  669POPC   C1B11755  42.740  38.667   8.827
  669POPC   C2B11756  42.839  38.837   8.389
  669POPC   C3B11757  42.715  38.710   7.933
  669POPC   C4B11758  42.932  38.662   7.496
  670POPC   NC311759  19.018  15.532   9.471
  670POPC   PO411760  18.854  16.149   9.482
  670POPC   GL111761  19.034  16.199   9.096
  670POPC   GL211762  19.256  15.904   9.142
  670POPC   C1A11763  19.208  16.145   8.694
  670POPC   D2A11764  19.276  15.933   8.319
  670POPC   C3A11765  19.082  16.099   7.948
  670POPC   C4A11766  19.256  15.818   7.641
  670POPC   C1B11767  18.992  15.707   8.840
  670POPC   C2B11768  18.806  15.801   8.452
  670POPC   C3B11769  18.857  15.661   8.053
  670POPC   C4B11770  18.722  15.767   7.675
  671POPC   NC311771  25.904   9.733   9.504
  671POPC   PO411772  26.487  10.030   9.497
  671POPC   GL111773  26.269   9.822   9.162
  671POPC   GL211774  25.872   9.910   9.042
  671POPC   C1A11775  26.205   9.591   8.808
  671POPC   D2A11776  26.006   9.758   8.438
  671POPC   C3A11777  26.296   9.670   8.098
  671POPC   C4A11778  26.511   9.296   7.865
  671POPC   C1B11779  25.701   9.518   8.830
  671POPC   C2B11780  25.660   9.381   8.416
  671POPC   C3B11781  25.735   9.609   8.009
  671POPC   C4B11782  26.056   9.491   7.704
  672POPC   NC311783   3.114  30.158   9.504
  672POPC   PO411784   2.494  30.065   9.676
  672POPC   GL111785   2.661  30.033   9.227
  672POPC   GL211786   2.511  29.714   9.152
  672POPC   C1A11787   2.858  30.233   8.819
  672POPC   D2A11788   2.737  30.163   8.366
  672POPC   C3A11789   2.938  29.841   8.137
  672POPC   C4A11790   2.989  29.892   7.690
  672POPC   C1B11791   2.514  29.864   8.730
  672POPC   C2B11792   2.466  29.706   8.322
  672POPC   C3B11793   2.461  29.889   7.923
  672POPC   C4B11794   2.532  30.243   7.727
  673POPC   NC311795  22.084   0.628   9.588
  673POPC   PO411796  22.062   0.031   9.583
  673POPC   GL111797  22.058   0.308   9.191
  673POPC   GL211798  21.854   0.671   9.139
  673POPC   C1A11799  22.277   0.215   8.804
  673POPC   D2A11800  22.077   0.206   8.402
  673POPC   C3A11801  22.225   0.380   8.050
  673POPC   C4A11802  22.258   0.173   7.694
  673POPC   C1B11803  22.190   0.711   8.841
  673POPC   C2B11804  22.233   0.760   8.400
  673POPC   C3B11805  22.300   0.874   7.957
  673POPC   C4B11806  22.170   0.656   7.597
  674POPC   NC311807  18.159  35.047   9.396
  674POPC   PO411808  18.402  34.417   9.512
  674POPC   GL111809  18.373  34.599   9.161
  674POPC   GL211810  18.020  34.613   9.161
  674POPC   C1A11811  18.516  34.440   8.781
  674POPC   D2A11812  18.451  34.540   8.363
  674POPC   C3A11813  18.265  34.281   8.059
  674POPC   C4A11814  18.392  34.425   7.664
  674POPC   C1B11815  18.140  34.794   8.747
  674POPC   C2B11816  17.974  34.754   8.339
  674POPC   C3B11817  18.125  34.767   7.973
  674POPC   C4B11818  17.963  34.938   7.634
  675POPC   NC311819  21.926  24.275   9.651
  675POPC   PO411820  22.591  24.479   9.607
  675POPC   GL111821  22.276  24.375   9.281
  675POPC   GL211822  21.992  24.635   9.254
  675POPC   C1A11823  22.196  24.404   8.836
  675POPC   D2A11824  22.115  24.237   8.432
  675POPC   C3A11825  22.494  24.357   8.221
  675POPC   C4A11826  22.564  24.447   7.767
  675POPC   C1B11827  21.840  24.780   8.815
  675POPC   C2B11828  22.086  24.741   8.399
  675POPC   C3B11829  22.115  24.578   7.962
  675POPC   C4B11830  21.990  24.824   7.576
  676POPC   NC311831   8.854   8.883   9.708
  676POPC   PO411832   8.561   9.350   9.319
  676POPC   GL111833   8.942   9.080   9.150
  676POPC   GL211834   8.852   8.820   8.928
  676POPC   C1A11835   9.230   9.124   8.741
  676POPC   D2A11836   9.489   8.974   8.381
  676POPC   C3A11837   9.300   9.112   7.991
  676POPC   C4A11838   9.044   8.877   7.675
  676POPC   C1B11839   8.727   9.196   8.696
  676POPC   C2B11840   8.920   9.333   8.333
  676POPC   C3B11841   8.751   9.053   8.041
  676POPC   C4B11842   8.530   8.885   7.669
  677POPC   NC311843  17.731  36.020   9.553
  677POPC   PO411844  17.485  36.603   9.528
  677POPC   GL111845  17.507  36.326   9.207
  677POPC   GL211846  17.874  36.285   9.145
  677POPC   C1A11847  17.372  36.227   8.806
  677POPC   D2A11848  17.133  36.092   8.462
  677POPC   C3A11849  17.355  36.303   8.121
  677POPC   C4A11850  17.490  36.066   7.794
  677POPC   C1B11851  17.876  36.061   8.757
  677POPC   C2B11852  17.713  35.971   8.346
  677POPC   C3B11853  17.939  36.134   8.010
  677POPC   C4B11854  17.938  35.966   7.584
  678POPC   NC311855  42.116  24.855   9.385
  678POPC   PO411856  42.204  24.151   9.568
  678POPC   GL111857  42.445  24.424   9.253
  678POPC   GL211858  42.734  24.235   9.053
  678POPC   C1A11859  42.405  24.532   8.829
  678POPC   D2A11860  42.180  24.579   8.441
  678POPC   C3A11861  42.352  24.543   8.023
  678POPC   C4A11862  42.286  24.784   7.650
  678POPC   C1B11863  42.548  24.043   8.675
  678POPC   C2B11864  42.352  24.106   8.301
  678POPC   C3B11865  42.439  24.066   7.856
  678POPC   C4B11866  42.610  23.983   7.449
  679POPC   NC311867  13.248  38.720   9.577
  679POPC   PO411868  12.724  38.530   9.354
  679POPC   GL111869  12.837  38.524   8.990
  679POPC   GL211870  13.154  38.629   9.085
  679POPC   C1A11871  12.975  38.361   8.636
  679POPC   D2A11872  12.771  38.414   8.294
  679POPC   C3A11873  12.889  38.244   7.952
  679POPC   C4A11874  12.721  38.316   7.572
  679POPC   C1B11875  13.129  38.866   8.732
  679POPC   C2B11876  13.185  38.736   8.337
  679POPC   C3B11877  13.149  38.910   7.941
  679POPC   C4B11878  13.160  38.607   7.597
  680POPC   NC311879  25.287  36.589   9.787
  680POPC   PO411880  25.241  36.016   9.478
  680POPC   GL111881  25.339  36.071   9.054
  680POPC   GL211882  25.178  36.389   9.105
  680POPC   C1A11883  25.170  36.027   8.659
  680POPC   D2A11884  24.904  36.221   8.357
  680POPC   C3A11885  24.961  36.007   7.967
  680POPC   C4A11886  25.386  35.969   7.814
  680POPC   C1B11887  25.490  36.514   8.808
  680POPC   C2B11888  25.432  36.383   8.398
  680POPC   C3B11889  25.561  36.416   8.001
  680POPC   C4B11890  25.725  36.402   7.632
  681POPC   NC311891   9.828   1.236   9.667
  681POPC   PO411892   9.196   1.111   9.574
  681POPC   GL111893   9.515   1.094   9.269
  681POPC   GL211894   9.381   1.349   9.080
  681POPC   C1A11895   9.856   1.187   8.953
  681POPC   D2A11896   9.975   1.126   8.509
  681POPC   C3A11897  10.059   1.319   8.095
  681POPC   C4A11898   9.989   1.194   7.656
  681POPC   C1B11899   9.369   1.023   8.777
  681POPC   C2B11900   9.490   1.062   8.347
  681POPC   C3B11901   9.550   1.270   7.932
  681POPC   C4B11902   9.518   1.099   7.510
  682POPC   NC311903  44.184  16.761   9.587
  682POPC   PO411904  44.223  16.155   9.501
  682POPC   GL111905  44.056  16.522   9.158
  682POPC   GL211906  43.695  16.606   9.180
  682POPC   C1A11907  43.911  16.759   8.737
  682POPC   D2A11908  44.025  16.998   8.331
  682POPC   C3A11909  43.985  16.799   7.902
  682POPC   C4A11910  44.176  16.612   7.471
  682POPC   C1B11911  43.465  16.477   8.795
  682POPC   C2B11912  43.621  16.440   8.376
  682POPC   C3B11913  43.527  16.440   7.953
  682POPC   C4B11914  43.682  16.544   7.547
  683POPC   NC311915   0.000  21.385   9.308
  683POPC   PO411916  44.367  21.279   9.462
  683POPC   GL111917  44.539  21.402   9.069
  683POPC   GL211918  44.689  21.735   9.125
  683POPC   C1A11919  44.657  21.340   8.650
  683POPC   D2A11920  44.734  21.357   8.218
  683POPC   C3A11921  44.426  21.413   7.939
  683POPC   C4A11922  44.304  21.453   7.541
  683POPC   C1B11923  44.968  21.770   8.756
  683POPC   C2B11924   0.122  21.653   8.368
  683POPC   C3B11925   0.023  21.738   7.984
  683POPC   C4B11926  44.897  21.427   7.717
  684POPC   NC311927   3.188   0.259   9.460
  684POPC   PO411928   3.725   0.590   9.545
  684POPC   GL111929   3.497   0.507   9.148
  684POPC   GL211930   3.322   0.202   8.968
  684POPC   C1A11931   3.650   0.522   8.740
  684POPC   D2A11932   3.724   0.610   8.328
  684POPC   C3A11933   3.394   0.451   8.066
  684POPC   C4A11934   3.415   0.203   7.695
  684POPC   C1B11935   3.131   0.576   8.765
  684POPC   C2B11936   3.079   0.766   8.377
  684POPC   C3B11937   3.138   0.890   7.955
  684POPC   C4B11938   3.351   0.767   7.556
  685POPC   NC311939   5.443   4.477   9.390
  685POPC   PO411940   6.071   4.512   9.488
  685POPC   GL111941   5.912   4.261   9.118
  685POPC   GL211942   5.926   3.871   9.160
  685POPC   C1A11943   6.054   4.107   8.687
  685POPC   D2A11944   5.953   4.098   8.258
  685POPC   C3A11945   5.808   4.493   8.153
  685POPC   C4A11946   5.990   4.791   7.900
  685POPC   C1B11947   5.627   3.856   8.817
  685POPC   C2B11948   5.516   4.213   8.572
  685POPC   C3B11949   5.340   4.257   8.173
  685POPC   C4B11950   5.588   4.210   7.813
  686POPC   NC311951  34.912  15.533   9.497
  686POPC   PO411952  35.590  15.396   9.509
  686POPC   GL111953  35.288  15.389   9.172
  686POPC   GL211954  35.203  15.094   8.991
  686POPC   C1A11955  35.294  15.505   8.741
  686POPC   D2A11956  35.053  15.290   8.414
  686POPC   C3A11957  35.194  15.338   7.997
  686POPC   C4A11958  35.551  15.289   7.719
  686POPC   C1B11959  35.502  15.017   8.640
  686POPC   C2B11960  35.572  14.972   8.172
  686POPC   C3B11961  35.297  14.859   7.829
  686POPC   C4B11962  34.971  15.044   7.571
  687POPC   NC311963  16.773  43.445   9.558
  687POPC   PO411964  16.926  42.735   9.531
  687POPC   GL111965  16.657  43.013   9.271
  687POPC   GL211966  16.954  43.212   9.154
  687POPC   C1A11967  16.485  43.084   8.845
  687POPC   D2A11968  16.476  42.768   8.504
  687POPC   C3A11969  16.506  42.857   8.063
  687POPC   C4A11970  16.685  43.126   7.773
  687POPC   C1B11971  16.981  43.169   8.731
  687POPC   C2B11972  16.798  43.210   8.340
  687POPC   C3B11973  17.026  43.382   8.009
  687POPC   C4B11974  17.200  43.118   7.694
  688POPC   NC311975  41.809  18.040   9.243
  688POPC   PO411976  41.525  17.574   9.655
  688POPC   GL111977  41.656  17.548   9.243
  688POPC   GL211978  41.355  17.414   9.126
  688POPC   C1A11979  41.788  17.356   8.862
  688POPC   D2A11980  41.691  17.267   8.448
  688POPC   C3A11981  41.879  17.508   8.183
  688POPC   C4A11982  42.000  17.311   7.810
  688POPC   C1B11983  41.259  17.369   8.708
  688POPC   C2B11984  41.320  17.612   8.329
  688POPC   C3B11985  41.442  17.458   7.936
  688POPC   C4B11986  41.421  17.197   7.630
  689POPC   NC311987  44.277  26.739   9.566
  689POPC   PO411988  44.841  27.033   9.570
  689POPC   GL111989  44.649  26.861   9.211
  689POPC   GL211990  44.352  27.036   9.165
  689POPC   C1A11991  44.806  26.756   8.794
  689POPC   D2A11992  44.777  27.021   8.426
  689POPC   C3A11993  44.894  26.898   7.993
  689POPC   C4A11994  44.769  26.646   7.624
  689POPC   C1B11995  44.336  26.980   8.762
  689POPC   C2B11996  44.188  26.868   8.399
  689POPC   C3B11997  44.399  26.868   8.053
  689POPC   C4B11998  44.288  26.949   7.678
  690POPC   NC311999  35.891  37.765   9.633
  690POPC   PO412000  36.562  37.688   9.580
  690POPC   GL112001  36.300  37.629   9.223
  690POPC   GL212002  35.968  37.458   9.222
  690POPC   C1A12003  36.386  37.751   8.804
  690POPC   D2A12004  36.366  37.624   8.391
  690POPC   C3A12005  36.076  37.801   8.170
  690POPC   C4A12006  36.022  37.910   7.734
  690POPC   C1B12007  35.681  37.328   8.893
  690POPC   C2B12008  35.858  37.197   8.518
  690POPC   C3B12009  35.972  37.314   8.146
  690POPC   C4B12010  36.343  37.361   7.918
  691POPC   NC312011  39.479   0.228   9.475
  691POPC   PO412012  39.004   0.686   9.513
  691POPC   GL112013  39.097   0.788   9.115
  691POPC   GL212014  39.449   0.688   9.178
  691POPC   C1A12015  39.207   0.564   8.749
  691POPC   D2A12016  39.246   0.277   8.402
  691POPC   C3A12017  38.981   0.310   8.036
  691POPC   C4A12018  39.180   0.285   7.673
  691POPC   C1B12019  39.684   0.802   8.817
  691POPC   C2B12020  39.551   0.729   8.397
  691POPC   C3B12021  39.353   0.673   8.008
  691POPC   C4B12022  39.614   0.723   7.657
  692POPC   NC312023  41.316  26.291   9.341
  692POPC   PO412024  41.795  25.880   9.540
  692POPC   GL112025  41.765  26.208   9.164
  692POPC   GL212026  41.486  26.005   8.982
  692POPC   C1A12027  41.728  26.374   8.717
  692POPC   D2A12028  41.586  26.251   8.301
  692POPC   C3A12029  41.785  26.150   7.885
  692POPC   C4A12030  41.498  25.987   7.571
  692POPC   C1B12031  41.173  26.126   8.692
  692POPC   C2B12032  41.102  26.383   8.334
  692POPC   C3B12033  41.216  26.286   7.900
  692POPC   C4B12034  41.007  26.122   7.513
  693POPC   NC312035  28.906  16.906   9.435
  693POPC   PO412036  29.334  16.437   9.742
  693POPC   GL112037  29.319  16.569   9.277
  693POPC   GL212038  29.345  16.882   9.159
  693POPC   C1A12039  29.300  16.572   8.781
  693POPC   D2A12040  29.007  16.529   8.454
  693POPC   C3A12041  29.159  16.664   8.046
  693POPC   C4A12042  28.854  16.614   7.733
  693POPC   C1B12043  29.152  17.079   8.828
  693POPC   C2B12044  29.152  17.041   8.421
  693POPC   C3B12045  29.097  17.181   8.036
  693POPC   C4B12046  29.149  17.029   7.619
  694POPC   NC312047   1.804   1.336   9.340
  694POPC   PO412048   1.168   1.393   9.592
  694POPC   GL112049   1.139   1.256   9.179
  694POPC   GL212050   0.869   1.474   9.118
  694POPC   C1A12051   1.072   1.222   8.735
  694POPC   D2A12052   0.846   1.366   8.407
  694POPC   C3A12053   0.919   1.068   8.124
  694POPC   C4A12054   1.229   0.958   7.852
  694POPC   C1B12055   0.895   1.732   8.767
  694POPC   C2B12056   0.838   1.883   8.324
  694POPC   C3B12057   0.960   1.610   7.959
  694POPC   C4B12058   0.865   1.259   7.661
  695POPC   NC312059  43.933  44.439   9.639
  695POPC   PO412060  43.580  44.895   9.759
  695POPC   GL112061  43.636  44.689   9.310
  695POPC   GL212062  43.996  44.654   9.186
  695POPC   C1A12063  43.626  44.714   8.844
  695POPC   D2A12064  43.803  44.475   8.524
  695POPC   C3A12065  43.731  44.597   8.145
  695POPC   C4A12066  43.689  44.551   7.718
  695POPC   C1B12067  44.205  44.468   8.833
  695POPC   C2B12068  44.310  44.566   8.403
  695POPC   C3B12069  44.209  44.483   7.990
  695POPC   C4B12070  44.118  44.264   7.618
  696POPC   NC312071  41.489  18.387   9.619
  696POPC   PO412072  41.808  18.498   9.103
  696POPC   GL112073  41.546  18.243   8.841
  696POPC   GL212074  41.450  17.880   8.910
  696POPC   C1A12075  41.549  18.447   8.444
  696POPC   D2A12076  41.871  18.616   8.183
  696POPC   C3A12077  41.695  18.414   7.859
  696POPC   C4A12078  41.236  18.484   7.796
  696POPC   C1B12079  41.738  17.788   8.605
  696POPC   C2B12080  41.699  18.005   8.251
  696POPC   C3B12081  41.445  17.971   7.917
  696POPC   C4B12082  41.798  17.786   7.766
  697POPC   NC312083   9.010  20.769   9.471
  697POPC   PO412084   8.441  20.810   9.773
  697POPC   GL112085   8.575  20.850   9.242
  697POPC   GL212086   8.750  20.565   9.041
  697POPC   C1A12087   8.919  20.973   8.837
  697POPC   D2A12088   8.878  20.651   8.490
  697POPC   C3A12089   8.966  20.766   8.059
  697POPC   C4A12090   8.908  20.644   7.630
  697POPC   C1B12091   9.201  20.526   8.870
  697POPC   C2B12092   9.529  20.522   8.560
  697POPC   C3B12093   9.426  20.493   8.127
  697POPC   C4B12094   9.295  20.284   7.747
  698POPC   NC312095  10.315  41.466   9.546
  698POPC   PO412096  10.941  41.679   9.582
  698POPC   GL112097  10.660  41.752   9.255
  698POPC   GL212098  10.777  41.447   9.123
  698POPC   C1A12099  10.640  41.849   8.829
  698POPC   D2A12100  10.680  41.504   8.528
  698POPC   C3A12101  10.706  41.511   8.077
  698POPC   C4A12102  10.442  41.688   7.767
  698POPC   C1B12103  10.339  41.456   8.919
  698POPC   C2B12104  10.184  41.718   8.607
  698POPC   C3B12105  10.166  41.625   8.189
  698POPC   C4B12106   9.936  41.721   7.823
  699POPC   NC312107   3.630  16.116   9.696
  699POPC   PO412108   3.579  15.438   9.686
  699POPC   GL112109   3.614  15.764   9.310
  699POPC   GL212110   3.816  16.072   9.206
  699POPC   C1A12111   3.493  15.892   8.871
  699POPC   D2A12112   3.672  15.948   8.452
  699POPC   C3A12113   3.382  15.988   8.122
  699POPC   C4A12114   3.389  15.785   7.744
  699POPC   C1B12115   3.830  16.303   8.790
  699POPC   C2B12116   3.847  16.387   8.297
  699POPC   C3B12117   3.833  16.107   7.875
  699POPC   C4B12118   3.787  16.293   7.415
  700POPC   NC312119  11.158   0.485   9.599
  700POPC   PO412120  11.814   0.640   9.357
  700POPC   GL112121  11.427   0.420   9.183
  700POPC   GL212122  11.117   0.588   9.063
  700POPC   C1A12123  11.260   0.137   8.885
  700POPC   D2A12124  11.313   0.115   8.453
  700POPC   C3A12125  11.223   0.492   8.228
  700POPC   C4A12126  11.357   0.558   7.815
  700POPC   C1B12127  11.469   0.560   8.705
  700POPC   C2B12128  11.767   0.570   8.372
  700POPC   C3B12129  11.777   0.840   8.010
  700POPC   C4B12130  11.785   0.675   7.573
  701POPC   NC312131  35.132  40.855   9.967
  701POPC   PO412132  35.421  40.424   9.541
  701POPC   GL112133  35.333  40.796   9.269
  701POPC   GL212134  35.009  40.981   9.313
  701POPC   C1A12135  35.324  40.926   8.833
  701POPC   D2A12136  35.176  40.670   8.506
  701POPC   C3A12137  35.185  40.782   8.094
  701POPC   C4A12138  35.542  40.752   7.844
  701POPC   C1B12139  34.911  41.270   8.937
  701POPC   C2B12140  35.071  41.403   8.529
  701POPC   C3B12141  34.960  41.310   8.076
  701POPC   C4B12142  35.135  41.101   7.694
  702POPC   NC312143  22.877  30.616   9.528
  702POPC   PO412144  23.473  30.652   9.825
  702POPC   GL112145  23.255  30.921   9.361
  702POPC   GL212146  22.900  30.890   9.124
  702POPC   C1A12147  23.318  30.910   8.870
  702POPC   D2A12148  23.028  30.764   8.530
  702POPC   C3A12149  23.177  30.755   8.112
  702POPC   C4A12150  23.025  30.663   7.682
  702POPC   C1B12151  22.586  30.887   8.801
  702POPC   C2B12152  22.481  30.685   8.438
  702POPC   C3B12153  22.674  30.700   8.058
  702POPC   C4B12154  22.563  30.927   7.673
  703POPC   NC312155   6.833  21.814   9.480
  703POPC   PO412156   6.581  22.414   9.371
  703POPC   GL112157   6.768  22.328   9.052
  703POPC   GL212158   6.680  21.981   9.027
  703POPC   C1A12159   6.927  22.631   8.753
  703POPC   D2A12160   6.737  22.618   8.377
  703POPC   C3A12161   6.811  22.277   8.129
  703POPC   C4A12162   6.578  22.099   7.824
  703POPC   C1B12163   6.817  22.069   8.606
  703POPC   C2B12164   6.984  21.806   8.285
  703POPC   C3B12165   7.002  21.833   7.850
  703POPC   C4B12166   6.786  21.753   7.482
  704POPC   NC312167  37.816  22.323   9.619
  704POPC   PO412168  37.202  22.054   9.621
  704POPC   GL112169  37.491  22.078   9.234
  704POPC   GL212170  37.384  21.784   9.077
  704POPC   C1A12171  37.593  22.247   8.782
  704POPC   D2A12172  37.827  22.089   8.373
  704POPC   C3A12173  37.662  22.175   7.947
  704POPC   C4A12174  37.841  22.448   7.568
  704POPC   C1B12175  37.614  21.766   8.700
  704POPC   C2B12176  37.475  21.700   8.294
  704POPC   C3B12177  37.434  21.721   7.867
  704POPC   C4B12178  37.219  21.996   7.687
  705POPC   NC312179  18.881  34.446   9.518
  705POPC   PO412180  19.394  35.028   9.576
  705POPC   GL112181  19.246  34.684   9.227
  705POPC   GL212182  18.877  34.751   9.102
  705POPC   C1A12183  19.128  34.391   8.839
  705POPC   D2A12184  19.210  34.533   8.384
  705POPC   C3A12185  19.325  34.284   8.034
  705POPC   C4A12186  19.357  34.403   7.605
  705POPC   C1B12187  19.118  34.900   8.737
  705POPC   C2B12188  19.110  35.069   8.333
  705POPC   C3B12189  18.832  34.816   8.072
  705POPC   C4B12190  18.892  34.613   7.669
  706POPC   NC312191   9.913  28.679   9.433
  706POPC   PO412192   9.385  28.340   9.635
  706POPC   GL112193   9.540  28.261   9.218
  706POPC   GL212194   9.904  28.251   9.168
  706POPC   C1A12195   9.529  28.195   8.766
  706POPC   D2A12196   9.597  28.425   8.379
  706POPC   C3A12197   9.522  28.253   7.974
  706POPC   C4A12198   9.631  28.091   7.584
  706POPC   C1B12199  10.009  28.394   8.760
  706POPC   C2B12200  10.093  28.526   8.364
  706POPC   C3B12201   9.947  28.552   7.956
  706POPC   C4B12202  10.200  28.675   7.620
  707POPC   NC312203  42.011  30.367   9.534
  707POPC   PO412204  42.654  30.032   9.484
  707POPC   GL112205  42.445  30.121   9.092
  707POPC   GL212206  42.124  30.244   9.026
  707POPC   C1A12207  42.556  30.096   8.636
  707POPC   D2A12208  42.780  29.965   8.258
  707POPC   C3A12209  42.555  29.842   7.879
  707POPC   C4A12210  42.266  29.563   7.668
  707POPC   C1B12211  42.095  29.907   8.707
  707POPC   C2B12212  42.216  29.923   8.262
  707POPC   C3B12213  42.072  30.018   7.807
  707POPC   C4B12214  41.926  30.283   7.396
  708POPC   NC312215  23.676  42.163   9.449
  708POPC   PO412216  23.282  42.723   9.422
  708POPC   GL112217  23.540  42.603   9.026
  708POPC   GL212218  23.844  42.785   8.957
  708POPC   C1A12219  23.799  42.298   8.733
  708POPC   D2A12220  23.833  41.919   8.420
  708POPC   C3A12221  23.843  42.005   7.987
  708POPC   C4A12222  23.630  42.367   7.846
  708POPC   C1B12223  23.941  42.773   8.560
  708POPC   C2B12224  23.775  42.768   8.179
  708POPC   C3B12225  23.981  42.746   7.818
  708POPC   C4B12226  23.926  42.535   7.446
  709POPC   NC312227   7.783  33.072   9.605
  709POPC   PO412228   7.146  33.206   9.574
  709POPC   GL112229   7.204  33.139   9.153
  709POPC   GL212230   7.515  33.048   9.185
  709POPC   C1A12231   7.158  32.987   8.748
  709POPC   D2A12232   7.098  33.154   8.395
  709POPC   C3A12233   7.160  32.998   8.023
  709POPC   C4A12234   7.317  32.853   7.666
  709POPC   C1B12235   7.660  32.992   8.819
  709POPC   C2B12236   7.610  33.191   8.413
  709POPC   C3B12237   7.677  33.024   8.004
  709POPC   C4B12238   7.850  32.741   7.724
  710POPC   NC312239  17.970  36.740   9.525
  710POPC   PO412240  18.662  36.885   9.527
  710POPC   GL112241  18.573  36.884   9.093
  710POPC   GL212242  18.199  36.886   9.086
  710POPC   C1A12243  18.507  37.020   8.669
  710POPC   D2A12244  18.182  36.840   8.411
  710POPC   C3A12245  18.311  36.894   8.023
  710POPC   C4A12246  18.615  36.742   7.780
  710POPC   C1B12247  17.981  37.143   8.790
  710POPC   C2B12248  18.044  37.333   8.407
  710POPC   C3B12249  17.878  37.191   8.049
  710POPC   C4B12250  18.008  37.044   7.646
  711POPC   NC312251   5.459  44.761   9.531
  711POPC   PO412252   5.033  44.283   9.694
  711POPC   GL112253   5.065  44.493   9.258
  711POPC   GL212254   5.075  44.864   9.181
  711POPC   C1A12255   4.850  44.571   8.819
  711POPC   D2A12256   4.767  44.701   8.397
  711POPC   C3A12257   5.031  44.601   8.049
  711POPC   C4A12258   5.073  44.845   7.720
  711POPC   C1B12259   5.343  44.706   8.858
  711POPC   C2B12260   5.525  44.793   8.476
  711POPC   C3B12261   5.442  44.922   8.083
  711POPC   C4B12262   5.546  44.714   7.720
  712POPC   NC312263  18.532  39.363   9.312
  712POPC   PO412264  18.045  38.930   9.473
  712POPC   GL112265  18.015  39.115   9.087
  712POPC   GL212266  18.091  39.457   9.064
  712POPC   C1A12267  18.022  39.005   8.680
  712POPC   D2A12268  18.038  39.226   8.319
  712POPC   C3A12269  18.003  38.970   7.950
  712POPC   C4A12270  17.930  39.094   7.515
  712POPC   C1B12271  18.367  39.412   8.686
  712POPC   C2B12272  18.551  39.393   8.290
  712POPC   C3B12273  18.333  39.354   7.903
  712POPC   C4B12274  18.400  39.326   7.447
  713POPC   NC312275  43.800  35.691   9.500
  713POPC   PO412276  43.768  36.326   9.761
  713POPC   GL112277  43.827  36.305   9.312
  713POPC   GL212278  44.086  36.079   9.237
  713POPC   C1A12279  43.944  36.445   8.893
  713POPC   D2A12280  44.074  36.211   8.506
  713POPC   C3A12281  43.828  36.349   8.131
  713POPC   C4A12282  44.022  36.421   7.740
  713POPC   C1B12283  43.784  35.960   8.900
  713POPC   C2B12284  43.624  35.929   8.501
  713POPC   C3B12285  43.848  35.840   8.143
  713POPC   C4B12286  43.774  35.984   7.722
  714POPC   NC312287  17.412  42.771   9.503
  714POPC   PO412288  17.232  43.358   9.601
  714POPC   GL112289  17.476  43.353   9.210
  714POPC   GL212290  17.801  43.154   9.197
  714POPC   C1A12291  17.493  43.282   8.761
  714POPC   D2A12292  17.351  43.128   8.351
  714POPC   C3A12293  17.567  43.337   8.008
  714POPC   C4A12294  17.655  43.252   7.554
  714POPC   C1B12295  17.986  43.060   8.769
  714POPC   C2B12296  17.893  43.011   8.311
  714POPC   C3B12297  18.007  43.083   7.853
  714POPC   C4B12298  18.003  42.871   7.415
  715POPC   NC312299  40.356  13.518   9.401
  715POPC   PO412300  39.693  13.256   9.429
  715POPC   GL112301  39.917  13.500   9.097
  715POPC   GL212302  40.076  13.844   9.103
  715POPC   C1A12303  39.831  13.500   8.664
  715POPC   D2A12304  39.552  13.365   8.362
  715POPC   C3A12305  39.754  13.373   7.960
  715POPC   C4A12306  40.053  13.569   7.680
  715POPC   C1B12307  40.308  13.680   8.730
  715POPC   C2B12308  40.200  13.656   8.274
  715POPC   C3B12309  40.167  13.980   7.933
  715POPC   C4B12310  40.449  13.953   7.548
  716POPC   NC312311  20.601  33.592   9.715
  716POPC   PO412312  20.445  32.941   9.844
  716POPC   GL112313  20.471  33.090   9.416
  716POPC   GL212314  20.827  33.112   9.259
  716POPC   C1A12315  20.400  33.072   8.955
  716POPC   D2A12316  20.534  33.033   8.527
  716POPC   C3A12317  20.428  33.107   8.129
  716POPC   C4A12318  20.633  33.046   7.782
  716POPC   C1B12319  20.858  33.319   8.816
  716POPC   C2B12320  20.786  33.458   8.368
  716POPC   C3B12321  20.931  33.485   7.929
  716POPC   C4B12322  21.010  33.267   7.535
  717POPC   NC312323   4.072   5.245   9.354
  717POPC   PO412324   4.519   4.894   9.652
  717POPC   GL112325   4.500   5.081   9.175
  717POPC   GL212326   4.249   4.893   9.046
  717POPC   C1A12327   4.396   5.210   8.717
  717POPC   D2A12328   4.135   5.216   8.374
  717POPC   C3A12329   4.326   5.010   8.045
  717POPC   C4A12330   4.371   5.265   7.693
  717POPC   C1B12331   4.206   4.724   8.621
  717POPC   C2B12332   4.174   4.518   8.232
  717POPC   C3B12333   4.152   4.588   7.789
  717POPC   C4B12334   4.170   4.862   7.462
  718POPC   NC312335   9.979  37.463   9.536
  718POPC   PO412336   9.342  37.694   9.561
  718POPC   GL112337   9.676  37.747   9.231
  718POPC   GL212338   9.968  37.972   9.302
  718POPC   C1A12339   9.893  37.544   8.852
  718POPC   D2A12340   9.884  37.374   8.417
  718POPC   C3A12341   9.771  37.662   8.114
  718POPC   C4A12342   9.591  37.632   7.737
  718POPC   C1B12343   9.866  38.055   8.848
  718POPC   C2B12344  10.055  37.927   8.464
  718POPC   C3B12345  10.048  38.094   8.048
  718POPC   C4B12346  10.068  37.841   7.702
  719POPC   NC312347   6.052  36.085   9.553
  719POPC   PO412348   5.405  36.054   9.429
  719POPC   GL112349   5.738  36.132   9.161
  719POPC   GL212350   5.896  35.837   9.067
  719POPC   C1A12351   5.985  36.264   8.817
  719POPC   D2A12352   5.931  36.427   8.424
  719POPC   C3A12353   5.898  36.161   8.079
  719POPC   C4A12354   6.060  36.172   7.670
  719POPC   C1B12355   5.595  35.876   8.757
  719POPC   C2B12356   5.714  35.847   8.418
  719POPC   C3B12357   5.513  35.785   8.077
  719POPC   C4B12358   5.645  35.895   7.720
  720POPC   NC312359  37.644  35.779   9.485
  720POPC   PO412360  37.390  35.135   9.482
  720POPC   GL112361  37.470  35.407   9.142
  720POPC   GL212362  37.821  35.416   9.159
  720POPC   C1A12363  37.334  35.428   8.704
  720POPC   D2A12364  37.523  35.601   8.301
  720POPC   C3A12365  37.416  35.402   7.884
  720POPC   C4A12366  37.386  34.998   7.710
  720POPC   C1B12367  37.830  35.528   8.729
  720POPC   C2B12368  38.090  35.510   8.374
  720POPC   C3B12369  37.964  35.634   7.996
  720POPC   C4B12370  38.040  35.473   7.623
  721POPC   NC312371   8.552   3.363   9.661
  721POPC   PO412372   9.182   3.743   9.443
  721POPC   GL112373   8.900   3.591   9.141
  721POPC   GL212374   8.919   3.263   9.290
  721POPC   C1A12375   9.066   3.424   8.731
  721POPC   D2A12376   9.309   3.555   8.353
  721POPC   C3A12377   8.978   3.752   8.109
  721POPC   C4A12378   8.690   3.825   7.777
  721POPC   C1B12379   8.761   3.021   8.933
  721POPC   C2B12380   8.703   3.125   8.516
  721POPC   C3B12381   8.939   3.248   8.146
  721POPC   C4B12382   8.807   3.337   7.713
  722POPC   NC312383  41.819   9.614   9.631
  722POPC   PO412384  41.330  10.075   9.566
  722POPC   GL112385  41.540   9.963   9.148
  722POPC   GL212386  41.698   9.635   9.120
  722POPC   C1A12387  41.494   9.824   8.683
  722POPC   D2A12388  41.524   9.506   8.341
  722POPC   C3A12389  41.480   9.646   7.906
  722POPC   C4A12390  41.230   9.944   7.708
  722POPC   C1B12391  41.985   9.743   8.755
  722POPC   C2B12392  42.056   9.573   8.377
  722POPC   C3B12393  41.980   9.636   7.980
  722POPC   C4B12394  41.974   9.458   7.601
  723POPC   NC312395   5.962  14.626   9.430
  723POPC   PO412396   5.709  14.101   9.639
  723POPC   GL112397   5.698  14.110   9.149
  723POPC   GL212398   5.667  14.447   9.055
  723POPC   C1A12399   5.811  14.028   8.709
  723POPC   D2A12400   6.022  14.154   8.289
  723POPC   C3A12401   5.917  14.057   7.831
  723POPC   C4A12402   6.187  13.939   7.474
  723POPC   C1B12403   5.713  14.516   8.637
  723POPC   C2B12404   5.535  14.253   8.352
  723POPC   C3B12405   5.576  14.412   7.984
  723POPC   C4B12406   5.774  14.556   7.638
  724POPC   NC312407   4.862  16.116   9.415
  724POPC   PO412408   5.372  15.604   9.483
  724POPC   GL112409   5.207  15.820   9.122
  724POPC   GL212410   5.268  16.169   9.083
  724POPC   C1A12411   4.949  15.917   8.736
  724POPC   D2A12412   4.824  16.098   8.319
  724POPC   C3A12413   5.024  15.947   7.940
  724POPC   C4A12414   5.145  15.506   7.814
  724POPC   C1B12415   5.447  16.011   8.696
  724POPC   C2B12416   5.406  15.972   8.283
  724POPC   C3B12417   5.470  16.292   7.992
  724POPC   C4B12418   5.288  16.257   7.578
  725POPC   NC312419  27.114  18.273   9.686
  725POPC   PO412420  26.517  18.248   9.411
  725POPC   GL112421  26.884  18.303   9.175
  725POPC   GL212422  27.244  18.303   9.181
  725POPC   C1A12423  26.876  18.511   8.791
  725POPC   D2A12424  26.560  18.589   8.404
  725POPC   C3A12425  26.557  18.266   8.025
  725POPC   C4A12426  26.455  18.137   7.565
  725POPC   C1B12427  27.219  18.122   8.764
  725POPC   C2B12428  27.057  18.281   8.358
  725POPC   C3B12429  27.162  18.343   7.922
  725POPC   C4B12430  26.912  18.378   7.555
  726POPC   NC312431  35.694  43.377   9.592
  726POPC   PO412432  35.305  42.922   9.460
  726POPC   GL112433  35.431  43.189   9.148
  726POPC   GL212434  35.115  43.319   8.974
  726POPC   C1A12435  35.576  43.280   8.753
  726POPC   D2A12436  35.389  43.113   8.408
  726POPC   C3A12437  35.341  43.316   8.028
  726POPC   C4A12438  35.414  43.069   7.677
  726POPC   C1B12439  34.984  42.886   8.890
  726POPC   C2B12440  35.001  42.784   8.476
  726POPC   C3B12441  35.147  42.825   8.058
  726POPC   C4B12442  35.019  42.743   7.622
  727POPC   NC312443  36.107  27.952   9.442
  727POPC   PO412444  36.180  28.619   9.524
  727POPC   GL112445  36.232  28.362   9.113
  727POPC   GL212446  36.011  28.080   8.973
  727POPC   C1A12447  36.103  28.498   8.684
  727POPC   D2A12448  35.806  28.562   8.337
  727POPC   C3A12449  36.019  28.395   7.976
  727POPC   C4A12450  36.047  28.448   7.512
  727POPC   C1B12451  36.239  28.008   8.590
  727POPC   C2B12452  36.427  28.209   8.253
  727POPC   C3B12453  36.356  28.044   7.839
  727POPC   C4B12454  36.338  28.038   7.399
  728POPC   NC312455  19.743   1.734   9.622
  728POPC   PO412456  19.549   2.247   9.223
  728POPC   GL112457  19.819   2.031   8.949
  728POPC   GL212458  19.959   1.750   9.141
  728POPC   C1A12459  19.834   2.250   8.551
  728POPC   D2A12460  19.453   2.411   8.362
  728POPC   C3A12461  19.579   2.212   8.025
  728POPC   C4A12462  20.006   2.102   8.002
  728POPC   C1B12463  20.203   1.698   8.780
  728POPC   C2B12464  20.064   1.752   8.375
  728POPC   C3B12465  19.885   1.567   8.011
  728POPC   C4B12466  19.645   1.802   7.734
  729POPC   NC312467  41.700   4.324   9.571
  729POPC   PO412468  41.299   3.888   9.230
  729POPC   GL112469  41.585   4.191   9.093
  729POPC   GL212470  41.630   4.566   9.130
  729POPC   C1A12471  41.708   4.260   8.726
  729POPC   D2A12472  41.922   4.149   8.408
  729POPC   C3A12473  41.644   4.022   8.109
  729POPC   C4A12474  41.717   4.153   7.716
  729POPC   C1B12475  41.657   4.757   8.730
  729POPC   C2B12476  41.674   4.585   8.305
  729POPC   C3B12477  41.551   4.620   7.902
  729POPC   C4B12478  41.782   4.678   7.569
  730POPC   NC312479  36.752  22.316   9.547
  730POPC   PO412480  36.857  21.680   9.335
  730POPC   GL112481  36.963  22.079   9.146
  730POPC   GL212482  37.128  22.446   9.215
  730POPC   C1A12483  37.101  22.119   8.749
  730POPC   D2A12484  37.028  21.925   8.371
  730POPC   C3A12485  36.911  22.196   8.052
  730POPC   C4A12486  36.654  21.996   7.768
  730POPC   C1B12487  36.788  22.504   8.920
  730POPC   C2B12488  36.751  22.458   8.499
  730POPC   C3B12489  36.498  22.516   8.138
  730POPC   C4B12490  36.638  22.536   7.719
  731POPC   NC312491  35.122   6.167   9.556
  731POPC   PO412492  35.397   5.507   9.662
  731POPC   GL112493  35.355   5.707   9.241
  731POPC   GL212494  35.284   6.083   9.099
  731POPC   C1A12495  35.429   5.717   8.801
  731POPC   D2A12496  35.498   5.924   8.422
  731POPC   C3A12497  35.393   5.635   8.095
  731POPC   C4A12498  35.686   5.618   7.746
  731POPC   C1B12499  35.072   6.100   8.683
  731POPC   C2B12500  35.065   6.052   8.211
  731POPC   C3B12501  35.280   6.026   7.800
  731POPC   C4B12502  35.111   6.233   7.406
  732POPC   NC312503  15.583  19.489   9.897
  732POPC   PO412504  16.043  19.093   9.659
  732POPC   GL112505  16.066  18.987   9.215
  732POPC   GL212506  16.361  18.968   9.070
  732POPC   C1A12507  15.902  18.852   8.824
  732POPC   D2A12508  15.752  19.133   8.523
  732POPC   C3A12509  15.869  19.113   8.103
  732POPC   C4A12510  15.802  18.802   7.819
  732POPC   C1B12511  16.188  19.300   8.818
  732POPC   C2B12512  16.115  19.469   8.433
  732POPC   C3B12513  16.311  19.377   8.057
  732POPC   C4B12514  16.225  19.192   7.679
  733POPC   NC312515  37.643  33.799   9.952
  733POPC   PO412516  37.666  33.676   9.337
  733POPC   GL112517  37.745  33.949   9.062
  733POPC   GL212518  37.970  34.180   9.228
  733POPC   C1A12519  37.837  33.731   8.694
  733POPC   D2A12520  37.584  33.587   8.378
  733POPC   C3A12521  37.648  33.757   8.066
  733POPC   C4A12522  37.423  33.685   7.739
  733POPC   C1B12523  38.100  34.170   8.759
  733POPC   C2B12524  37.777  34.152   8.438
  733POPC   C3B12525  37.868  34.233   8.058
  733POPC   C4B12526  37.789  34.048   7.684
  734POPC   NC312527  43.496  10.615   9.454
  734POPC   PO412528  42.849  10.552   9.445
  734POPC   GL112529  43.034  10.554   9.067
  734POPC   GL212530  43.367  10.630   8.973
  734POPC   C1A12531  42.980  10.590   8.661
  734POPC   D2A12532  43.122  10.609   8.287
  734POPC   C3A12533  42.985  10.359   8.002
  734POPC   C4A12534  42.901  10.498   7.603
  734POPC   C1B12535  43.391  10.914   8.624
  734POPC   C2B12536  43.414  10.983   8.148
  734POPC   C3B12537  43.374  10.649   7.842
  734POPC   C4B12538  43.347  10.601   7.383
  735POPC   NC312539  20.082   3.178   9.502
  735POPC   PO412540  19.622   3.676   9.533
  735POPC   GL112541  19.663   3.459   9.159
  735POPC   GL212542  19.991   3.513   9.144
  735POPC   C1A12543  19.640   3.375   8.717
  735POPC   D2A12544  19.575   3.659   8.359
  735POPC   C3A12545  19.585   3.475   7.926
  735POPC   C4A12546  19.799   3.701   7.611
  735POPC   C1B12547  20.176   3.393   8.801
  735POPC   C2B12548  20.062   3.448   8.411
  735POPC   C3B12549  20.076   3.518   8.004
  735POPC   C4B12550  20.183   3.345   7.668
  736POPC   NC312551  38.513  17.724   9.532
  736POPC   PO412552  38.225  17.131   9.697
  736POPC   GL112553  38.173  17.352   9.281
  736POPC   GL212554  38.136  17.019   9.114
  736POPC   C1A12555  38.227  17.680   8.929
  736POPC   D2A12556  38.168  17.734   8.473
  736POPC   C3A12557  38.449  17.649   8.153
  736POPC   C4A12558  38.477  17.702   7.731
  736POPC   C1B12559  38.293  17.230   8.715
  736POPC   C2B12560  38.235  17.215   8.251
  736POPC   C3B12561  38.129  17.340   7.836
  736POPC   C4B12562  38.359  17.311   7.433
  737POPC   NC312563  41.980   6.192   9.516
  737POPC   PO412564  41.856   6.880   9.344
  737POPC   GL112565  41.670   6.666   9.002
  737POPC   GL212566  41.417   6.906   9.070
  737POPC   C1A12567  41.346   6.616   8.664
  737POPC   D2A12568  41.385   6.747   8.264
  737POPC   C3A12569  41.614   6.448   7.977
  737POPC   C4A12570  41.835   6.388   7.528
  737POPC   C1B12571  41.634   7.092   8.699
  737POPC   C2B12572  41.836   7.063   8.311
  737POPC   C3B12573  41.702   6.941   7.897
  737POPC   C4B12574  41.287   6.792   7.774
  738POPC   NC312575  25.105  10.098   9.432
  738POPC   PO412576  25.481   9.558   9.461
  738POPC   GL112577  25.364   9.792   9.092
  738POPC   GL212578  25.029   9.699   9.091
  738POPC   C1A12579  25.493   9.949   8.665
  738POPC   D2A12580  25.293  10.131   8.300
  738POPC   C3A12581  25.312  10.003   7.879
  738POPC   C4A12582  25.171   9.620   7.720
  738POPC   C1B12583  24.981   9.924   8.695
  738POPC   C2B12584  24.763  10.162   8.364
  738POPC   C3B12585  24.791  10.070   7.926
  738POPC   C4B12586  24.818   9.942   7.474
  739POPC   NC312587   2.270   3.818   9.914
  739POPC   PO412588   2.043   3.283   9.531
  739POPC   GL112589   1.900   3.466   9.140
  739POPC   GL212590   1.759   3.804   9.217
  739POPC   C1A12591   1.846   3.317   8.717
  739POPC   D2A12592   2.141   3.399   8.420
  739POPC   C3A12593   1.995   3.461   8.026
  739POPC   C4A12594   2.212   3.667   7.728
  739POPC   C1B12595   1.928   3.822   8.773
  739POPC   C2B12596   1.807   3.839   8.333
  739POPC   C3B12597   1.765   3.876   7.877
  739POPC   C4B12598   1.895   3.902   7.417
  740POPC   NC312599  29.597   5.071   9.686
  740POPC   PO412600  30.055   4.585   9.701
  740POPC   GL112601  29.832   4.751   9.299
  740POPC   GL212602  29.848   5.121   9.244
  740POPC   C1A12603  29.849   4.817   8.818
  740POPC   D2A12604  29.749   4.756   8.358
  740POPC   C3A12605  30.025   4.920   8.027
  740POPC   C4A12606  30.060   5.314   7.767
  740POPC   C1B12607  29.730   5.334   8.873
  740POPC   C2B12608  29.844   5.247   8.470
  740POPC   C3B12609  29.719   5.440   8.132
  740POPC   C4B12610  29.753   5.718   7.805
  741POPC   NC312611  19.729  39.453   9.689
  741POPC   PO412612  19.559  38.822   9.605
  741POPC   GL112613  19.861  39.061   9.304
  741POPC   GL212614  19.816  39.427   9.195
  741POPC   C1A12615  20.069  39.122   8.877
  741POPC   D2A12616  20.013  39.105   8.412
  741POPC   C3A12617  19.785  39.188   8.007
  741POPC   C4A12618  19.586  38.885   7.741
  741POPC   C1B12619  19.822  39.565   8.770
  741POPC   C2B12620  20.079  39.632   8.405
  741POPC   C3B12621  20.161  39.548   7.976
  741POPC   C4B12622  20.221  39.405   7.544
  742POPC   NC312623  36.480  33.171   9.490
  742POPC   PO412624  36.753  32.694   9.109
  742POPC   GL112625  36.291  32.671   9.084
  742POPC   GL212626  36.097  32.946   9.197
  742POPC   C1A12627  35.935  32.680   8.779
  742POPC   D2A12628  35.813  32.895   8.375
  742POPC   C3A12629  36.009  32.751   7.968
  742POPC   C4A12630  35.962  32.776   7.487
  742POPC   C1B12631  36.308  33.080   8.789
  742POPC   C2B12632  36.328  32.992   8.351
  742POPC   C3B12633  36.101  33.260   8.087
  742POPC   C4B12634  36.088  33.223   7.682
  743POPC   NC312635  13.625  17.860   9.499
  743POPC   PO412636  13.480  18.557   9.506
  743POPC   GL112637  13.595  18.311   9.156
  743POPC   GL212638  13.362  18.063   9.123
  743POPC   C1A12639  13.701  18.372   8.711
  743POPC   D2A12640  13.927  18.197   8.345
  743POPC   C3A12641  13.772  18.326   7.955
  743POPC   C4A12642  13.429  18.556   7.926
  743POPC   C1B12643  13.452  17.926   8.716
  743POPC   C2B12644  13.401  18.144   8.334
  743POPC   C3B12645  13.303  18.060   7.958
  743POPC   C4B12646  13.635  17.914   7.685
  744POPC   NC312647  17.075  36.341   9.553
  744POPC   PO412648  16.473  35.989   9.572
  744POPC   GL112649  16.731  36.109   9.223
  744POPC   GL212650  17.030  35.922   9.096
  744POPC   C1A12651  16.851  36.373   8.878
  744POPC   D2A12652  16.977  36.588   8.498
  744POPC   C3A12653  16.845  36.380   8.123
  744POPC   C4A12654  16.697  36.330   7.701
  744POPC   C1B12655  16.726  35.809   8.770
  744POPC   C2B12656  16.744  35.763   8.308
  744POPC   C3B12657  17.021  35.917   7.963
  744POPC   C4B12658  17.100  35.937   7.484
  745POPC   NC312659   1.255  13.514   9.472
  745POPC   PO412660   1.596  14.031   9.255
  745POPC   GL112661   1.327  13.818   9.050
  745POPC   GL212662   1.019  13.861   9.120
  745POPC   C1A12663   1.300  13.930   8.675
  745POPC   D2A12664   1.500  13.996   8.335
  745POPC   C3A12665   1.411  13.667   8.093
  745POPC   C4A12666   1.372  13.739   7.670
  745POPC   C1B12667   0.903  13.623   8.776
  745POPC   C2B12668   0.974  13.694   8.359
  745POPC   C3B12669   0.811  13.527   8.015
  745POPC   C4B12670   0.889  13.573   7.615
  746POPC   NC312671  40.864  12.922   9.889
  746POPC   PO412672  40.435  12.709   9.427
  746POPC   GL112673  40.721  13.106   9.145
  746POPC   GL212674  41.062  13.118   9.056
  746POPC   C1A12675  40.662  13.293   8.738
  746POPC   D2A12676  40.591  13.025   8.357
  746POPC   C3A12677  40.711  12.967   7.921
  746POPC   C4A12678  40.512  12.659   7.630
  746POPC   C1B12679  40.945  12.869   8.714
  746POPC   C2B12680  40.967  12.600   8.420
  746POPC   C3B12681  40.652  12.449   8.162
  746POPC   C4B12682  40.956  12.524   7.884
  747POPC   NC312683   0.396  25.719   9.518
  747POPC   PO412684   0.487  26.408   9.550
  747POPC   GL112685   0.513  26.199   9.133
  747POPC   GL212686   0.586  25.843   9.075
  747POPC   C1A12687   0.269  26.157   8.727
  747POPC   D2A12688   0.311  26.355   8.347
  747POPC   C3A12689   0.185  26.098   8.045
  747POPC   C4A12690   0.223  25.988   7.662
  747POPC   C1B12691   0.738  25.967   8.711
  747POPC   C2B12692   0.612  25.930   8.307
  747POPC   C3B12693   0.678  26.010   7.897
  747POPC   C4B12694   0.670  25.662   7.624
  748POPC   NC312695  25.157  12.451   9.517
  748POPC   PO412696  25.458  11.900   9.654
  748POPC   GL112697  25.460  12.061   9.255
  748POPC   GL212698  25.360  11.727   9.118
  748POPC   C1A12699  25.421  12.278   8.871
  748POPC   D2A12700  25.135  12.159   8.552
  748POPC   C3A12701  25.278  12.096   8.132
  748POPC   C4A12702  25.069  12.188   7.749
  748POPC   C1B12703  25.097  11.623   8.747
  748POPC   C2B12704  24.922  11.744   8.332
  748POPC   C3B12705  25.061  11.679   7.913
  748POPC   C4B12706  25.451  11.836   7.700
  749POPC   NC312707   3.069  16.625   9.659
  749POPC   PO412708   3.647  16.823   9.605
  749POPC   GL112709   3.657  16.598   9.208
  749POPC   GL212710   3.386  16.346   9.302
  749POPC   C1A12711   3.730  16.801   8.785
  749POPC   D2A12712   3.563  17.040   8.452
  749POPC   C3A12713   3.544  16.793   8.140
  749POPC   C4A12714   3.814  16.609   7.831
  749POPC   C1B12715   3.265  16.392   8.881
  749POPC   C2B12716   3.361  16.424   8.461
  749POPC   C3B12717   3.155  16.431   8.052
  749POPC   C4B12718   3.348  16.277   7.661
  750POPC   NC312719  40.117  18.531   9.454
  750POPC   PO412720  39.625  18.054   9.476
  750POPC   GL112721  39.845  18.242   9.132
  750POPC   GL212722  39.692  18.582   9.096
  750POPC   C1A12723  40.061  18.348   8.738
  750POPC   D2A12724  39.895  18.237   8.314
  750POPC   C3A12725  40.159  18.127   7.956
  750POPC   C4A12726  40.284  18.225   7.541
  750POPC   C1B12727  39.667  18.654   8.650
  750POPC   C2B12728  40.002  18.729   8.373
  750POPC   C3B12729  40.112  18.640   7.944
  750POPC   C4B12730  39.714  18.463   7.872
  751POPC   NC312731  12.143  33.658   9.713
  751POPC   PO412732  12.155  33.046   9.552
  751POPC   GL112733  12.217  32.935   9.147
  751POPC   GL212734  11.848  32.936   9.138
  751POPC   C1A12735  12.101  32.680   8.791
  751POPC   D2A12736  11.916  32.659   8.399
  751POPC   C3A12737  12.221  32.669   8.062
  751POPC   C4A12738  12.243  32.881   7.661
  751POPC   C1B12739  11.907  33.169   8.790
  751POPC   C2B12740  12.227  33.117   8.515
  751POPC   C3B12741  12.205  33.178   8.102
  751POPC   C4B12742  12.286  33.390   7.755
  752POPC   NC312743  38.911  23.069   9.411
  752POPC   PO412744  39.428  22.696   9.687
  752POPC   GL112745  39.426  22.867   9.230
  752POPC   GL212746  39.151  22.798   9.058
  752POPC   C1A12747  39.541  22.936   8.775
  752POPC   D2A12748  39.262  23.097   8.432
  752POPC   C3A12749  39.388  23.086   8.004
  752POPC   C4A12750  39.399  22.928   7.570
  752POPC   C1B12751  39.064  22.671   8.649
  752POPC   C2B12752  39.256  22.592   8.262
  752POPC   C3B12753  39.035  22.735   7.898
  752POPC   C4B12754  38.891  22.710   7.487
  753POPC   NC312755  43.560  25.643   9.913
  753POPC   PO412756  43.376  26.194   9.546
  753POPC   GL112757  43.342  26.106   9.118
  753POPC   GL212758  43.010  26.139   9.146
  753POPC   C1A12759  43.259  25.959   8.701
  753POPC   D2A12760  43.019  25.877   8.331
  753POPC   C3A12761  43.145  26.064   7.966
  753POPC   C4A12762  43.463  25.991   7.706
  753POPC   C1B12763  42.955  26.401   8.777
  753POPC   C2B12764  42.825  26.394   8.335
  753POPC   C3B12765  42.812  26.418   7.867
  753POPC   C4B12766  42.706  26.144   7.495
  754POPC   NC312767  41.498  17.125   9.499
  754POPC   PO412768  41.237  16.531   9.486
  754POPC   GL112769  41.412  16.741   9.171
  754POPC   GL212770  41.766  16.672   9.232
  754POPC   C1A12771  41.567  16.903   8.815
  754POPC   D2A12772  41.629  16.767   8.418
  754POPC   C3A12773  41.394  16.941   8.092
  754POPC   C4A12774  41.362  16.629   7.768
  754POPC   C1B12775  41.884  16.456   8.817
  754POPC   C2B12776  42.071  16.492   8.397
  754POPC   C3B12777  42.048  16.864   8.120
  754POPC   C4B12778  41.795  16.869   7.755
  755POPC   NC312779  27.366   7.425   9.476
  755POPC   PO412780  27.195   6.787   9.285
  755POPC   GL112781  27.410   7.126   9.034
  755POPC   GL212782  27.741   7.253   9.142
  755POPC   C1A12783  27.508   7.514   8.769
  755POPC   D2A12784  27.308   7.823   8.486
  755POPC   C3A12785  27.339   7.672   8.034
  755POPC   C4A12786  27.556   7.385   7.731
  755POPC   C1B12787  27.971   7.563   8.976
  755POPC   C2B12788  27.998   7.570   8.552
  755POPC   C3B12789  27.821   7.440   8.177
  755POPC   C4B12790  28.037   7.480   7.789
  756POPC   NC312791  16.814   2.542   9.555
  756POPC   PO412792  16.457   3.053   9.549
  756POPC   GL112793  16.634   2.880   9.193
  756POPC   GL212794  16.983   2.937   9.277
  756POPC   C1A12795  16.561   2.653   8.800
  756POPC   D2A12796  16.744   2.567   8.403
  756POPC   C3A12797  16.574   2.676   8.003
  756POPC   C4A12798  16.643   2.536   7.564
  756POPC   C1B12799  17.064   2.774   8.853
  756POPC   C2B12800  17.040   2.966   8.435
  756POPC   C3B12801  17.039   2.904   7.976
  756POPC   C4B12802  17.056   3.303   7.745
  757POPC   NC312803  27.192  43.224   9.447
  757POPC   PO412804  26.799  42.709   9.555
  757POPC   GL112805  26.913  42.923   9.143
  757POPC   GL212806  26.835  43.304   9.098
  757POPC   C1A12807  26.793  42.956   8.713
  757POPC   D2A12808  26.798  43.154   8.325
  757POPC   C3A12809  26.951  42.824   7.985
  757POPC   C4A12810  26.973  42.849   7.489
  757POPC   C1B12811  27.120  43.361   8.752
  757POPC   C2B12812  27.232  43.449   8.321
  757POPC   C3B12813  27.057  43.314   7.917
  757POPC   C4B12814  27.126  43.498   7.528
  758POPC   NC312815  26.603  14.109   9.496
  758POPC   PO412816  26.741  14.760   9.597
  758POPC   GL112817  26.890  14.486   9.225
  758POPC   GL212818  26.567  14.447   9.106
  758POPC   C1A12819  26.897  14.326   8.768
  758POPC   D2A12820  26.713  14.295   8.398
  758POPC   C3A12821  26.980  14.410   8.090
  758POPC   C4A12822  27.027  14.509   7.689
  758POPC   C1B12823  26.482  14.703   8.736
  758POPC   C2B12824  26.347  14.637   8.296
  758POPC   C3B12825  26.479  14.411   7.933
  758POPC   C4B12826  26.566  14.574   7.506
  759POPC   NC312827  42.038  37.612   9.379
  759POPC   PO412828  42.719  37.422   9.531
  759POPC   GL112829  42.433  37.337   9.143
  759POPC   GL212830  42.458  37.656   9.038
  759POPC   C1A12831  42.205  37.478   8.670
  759POPC   D2A12832  42.339  37.712   8.275
  759POPC   C3A12833  42.286  37.586   7.841
  759POPC   C4A12834  42.354  37.449   7.421
  759POPC   C1B12835  42.452  37.960   8.718
  759POPC   C2B12836  42.552  38.198   8.350
  759POPC   C3B12837  42.528  38.057   7.930
  759POPC   C4B12838  42.681  37.825   7.594
  760POPC   NC312839  24.853  43.496   9.532
  760POPC   PO412840  24.140  43.283   9.612
  760POPC   GL112841  24.415  43.292   9.264
  760POPC   GL212842  24.309  42.981   9.059
  760POPC   C1A12843  24.498  43.378   8.836
  760POPC   D2A12844  24.388  43.075   8.508
  760POPC   C3A12845  24.528  43.220   8.141
  760POPC   C4A12846  24.297  43.214   7.777
  760POPC   C1B12847  24.722  42.888   8.840
  760POPC   C2B12848  24.834  42.736   8.426
  760POPC   C3B12849  24.555  42.690   8.047
  760POPC   C4B12850  24.441  42.761   7.601
  761POPC   NC312851  26.768  10.686   9.283
  761POPC   PO412852  27.232  10.387   9.661
  761POPC   GL112853  27.087  10.314   9.165
  761POPC   GL212854  26.664  10.261   9.049
  761POPC   C1A12855  26.996  10.454   8.706
  761POPC   D2A12856  27.103  10.819   8.407
  761POPC   C3A12857  27.167  10.616   8.008
  761POPC   C4A12858  26.977  10.202   7.828
  761POPC   C1B12859  26.471  10.609   8.709
  761POPC   C2B12860  26.553  10.823   8.292
  761POPC   C3B12861  26.689  10.665   7.874
  761POPC   C4B12862  26.586  10.753   7.386
  762POPC   NC312863  44.010  34.070   9.513
  762POPC   PO412864  43.840  33.486   9.476
  762POPC   GL112865  43.927  33.737   9.115
  762POPC   GL212866  44.242  33.785   9.101
  762POPC   C1A12867  44.052  33.690   8.663
  762POPC   D2A12868  44.188  33.915   8.396
  762POPC   C3A12869  43.968  33.750   8.098
  762POPC   C4A12870  44.009  33.774   7.691
  762POPC   C1B12871  44.240  33.335   8.957
  762POPC   C2B12872  44.352  33.232   8.594
  762POPC   C3B12873  44.299  33.395   8.233
  762POPC   C4B12874  44.198  33.307   7.848
  763POPC   NC312875   3.173  27.792   9.639
  763POPC   PO412876   2.513  27.918   9.696
  763POPC   GL112877   2.696  27.820   9.254
  763POPC   GL212878   3.044  27.834   9.137
  763POPC   C1A12879   2.746  27.546   8.844
  763POPC   D2A12880   2.969  27.498   8.427
  763POPC   C3A12881   2.744  27.529   8.015
  763POPC   C4A12882   2.541  27.210   7.722
  763POPC   C1B12883   3.010  27.992   8.690
  763POPC   C2B12884   3.034  27.981   8.212
  763POPC   C3B12885   2.990  27.929   7.764
  763POPC   C4B12886   2.688  27.675   7.503
  764POPC   NC312887  18.350  33.242   9.489
  764POPC   PO412888  17.858  32.817   9.754
  764POPC   GL112889  18.010  32.856   9.305
  764POPC   GL212890  18.380  32.824   9.181
  764POPC   C1A12891  17.957  32.769   8.877
  764POPC   D2A12892  17.937  32.886   8.458
  764POPC   C3A12893  18.214  32.940   8.114
  764POPC   C4A12894  18.001  33.051   7.753
  764POPC   C1B12895  18.310  33.131   8.789
  764POPC   C2B12896  18.164  33.387   8.389
  764POPC   C3B12897  18.244  33.477   7.923
  764POPC   C4B12898  18.636  33.438   7.670
  765POPC   NC312899  40.286  32.561   9.392
  765POPC   PO412900  40.919  32.218   9.370
  765POPC   GL112901  40.664  32.164   9.051
  765POPC   GL212902  40.558  32.468   8.974
  765POPC   C1A12903  40.715  32.117   8.612
  765POPC   D2A12904  41.132  32.117   8.384
  765POPC   C3A12905  41.046  31.898   8.006
  765POPC   C4A12906  40.702  32.075   7.808
  765POPC   C1B12907  41.002  32.502   8.769
  765POPC   C2B12908  41.043  32.679   8.374
  765POPC   C3B12909  40.911  32.487   8.018
  765POPC   C4B12910  40.779  32.531   7.605
  766POPC   NC312911  37.807  27.323   9.429
  766POPC   PO412912  37.333  27.787   9.509
  766POPC   GL112913  37.508  27.663   9.135
  766POPC   GL212914  37.850  27.706   9.116
  766POPC   C1A12915  37.413  27.506   8.740
  766POPC   D2A12916  37.698  27.316   8.425
  766POPC   C3A12917  37.541  27.390   8.012
  766POPC   C4A12918  37.511  27.763   7.773
  766POPC   C1B12919  38.053  27.496   8.773
  766POPC   C2B12920  38.257  27.516   8.380
  766POPC   C3B12921  38.051  27.477   7.990
  766POPC   C4B12922  37.954  27.576   7.581
  767POPC   NC312923  11.534   7.561   9.757
  767POPC   PO412924  10.882   7.390   9.653
  767POPC   GL112925  11.184   7.323   9.272
  767POPC   GL212926  11.357   7.634   9.230
  767POPC   C1A12927  11.408   7.314   8.822
  767POPC   D2A12928  11.320   7.156   8.395
  767POPC   C3A12929  11.538   7.081   8.012
  767POPC   C4A12930  11.232   7.199   7.737
  767POPC   C1B12931  11.580   7.809   8.861
  767POPC   C2B12932  11.615   7.682   8.402
  767POPC   C3B12933  11.518   7.605   7.954
  767POPC   C4B12934  11.638   7.891   7.625
  768POPC   NC312935  36.645  15.696   9.499
  768POPC   PO412936  37.336  15.821   9.502
  768POPC   GL112937  37.000  15.953   9.198
  768POPC   GL212938  36.618  15.996   9.091
  768POPC   C1A12939  37.025  16.088   8.775
  768POPC   D2A12940  37.350  16.119   8.447
  768POPC   C3A12941  37.125  16.306   8.119
  768POPC   C4A12942  36.986  16.065   7.766
  768POPC   C1B12943  36.617  15.608   8.843
  768POPC   C2B12944  36.620  15.452   8.431
  768POPC   C3B12945  36.811  15.586   8.060
  768POPC   C4B12946  36.556  15.769   7.780
  769POPC   NC312947   8.618  34.373   9.415
  769POPC   PO412948   8.094  34.751   9.511
  769POPC   GL112949   8.359  34.727   9.156
  769POPC   GL212950   8.207  34.368   9.094
  769POPC   C1A12951   8.492  34.594   8.742
  769POPC   D2A12952   8.352  34.437   8.333
  769POPC   C3A12953   8.036  34.695   8.145
  769POPC   C4A12954   8.237  34.789   7.784
  769POPC   C1B12955   7.977  34.376   8.686
  769POPC   C2B12956   7.888  34.196   8.281
  769POPC   C3B12957   7.913  34.310   7.832
  769POPC   C4B12958   7.776  34.649   7.612
  770POPC   NC312959  17.892  13.359   9.387
  770POPC   PO412960  18.443  13.798   9.464
  770POPC   GL112961  18.144  13.833   9.083
  770POPC   GL212962  17.981  14.188   9.024
  770POPC   C1A12963  18.204  13.667   8.637
  770POPC   D2A12964  18.478  13.350   8.404
  770POPC   C3A12965  18.350  13.281   7.982
  770POPC   C4A12966  17.968  13.322   7.779
  770POPC   C1B12967  18.338  14.153   8.727
  770POPC   C2B12968  18.392  14.172   8.340
  770POPC   C3B12969  18.365  13.801   8.129
  770POPC   C4B12970  18.222  13.761   7.730
  771POPC   NC312971  34.918  24.283   9.486
  771POPC   PO412972  35.506  24.704   9.565
  771POPC   GL112973  35.264  24.665   9.238
  771POPC   GL212974  35.353  24.323   9.150
  771POPC   C1A12975  35.152  24.667   8.815
  771POPC   D2A12976  35.318  24.490   8.416
  771POPC   C3A12977  35.195  24.662   8.003
  771POPC   C4A12978  35.378  24.691   7.574
  771POPC   C1B12979  35.125  24.148   8.760
  771POPC   C2B12980  34.871  24.278   8.384
  771POPC   C3B12981  34.860  24.283   7.938
  771POPC   C4B12982  35.084  24.210   7.557
  772POPC   NC312983  26.940  23.410   9.748
  772POPC   PO412984  27.029  24.064   9.649
  772POPC   GL112985  26.735  23.971   9.344
  772POPC   GL212986  26.768  23.632   9.309
  772POPC   C1A12987  26.737  23.899   8.901
  772POPC   D2A12988  26.605  23.776   8.500
  772POPC   C3A12989  26.845  23.899   8.176
  772POPC   C4A12990  26.798  23.849   7.758
  772POPC   C1B12991  26.653  23.413   8.861
  772POPC   C2B12992  26.964  23.429   8.448
  772POPC   C3B12993  27.113  23.425   7.997
  772POPC   C4B12994  26.887  23.368   7.595
  773POPC   NC312995  16.510  25.909   9.431
  773POPC   PO412996  16.920  26.430   9.670
  773POPC   GL112997  16.885  26.251   9.239
  773POPC   GL212998  16.890  25.930   9.083
  773POPC   C1A12999  16.922  26.372   8.784
  773POPC   D2A13000  16.704  26.354   8.379
  773POPC   C3A13001  16.889  26.352   7.973
  773POPC   C4A13002  17.136  26.033   7.821
  773POPC   C1B13003  16.514  26.025   8.783
  773POPC   C2B13004  16.305  25.770   8.442
  773POPC   C3B13005  16.392  25.802   7.990
  773POPC   C4B13006  16.304  25.826   7.548
  774POPC   NC313007  41.047  37.478   9.370
  774POPC   PO413008  40.601  37.967   9.547
  774POPC   GL113009  40.613  37.796   9.048
  774POPC   GL213010  40.962  37.767   8.981
  774POPC   C1A13011  40.639  37.746   8.563
  774POPC   D2A13012  40.354  37.679   8.196
  774POPC   C3A13013  40.567  37.460   7.863
  774POPC   C4A13014  41.015  37.384   7.788
  774POPC   C1B13015  41.173  37.760   8.618
  774POPC   C2B13016  41.051  37.652   8.231
  774POPC   C3B13017  40.869  37.884   7.935
  774POPC   C4B13018  40.978  37.864   7.527
  775POPC   NC313019   6.076  19.405   9.487
  775POPC   PO413020   5.589  19.039   9.565
  775POPC   GL113021   5.663  18.995   9.175
  775POPC   GL213022   5.460  18.719   9.105
  775POPC   C1A13023   5.884  19.194   8.851
  775POPC   D2A13024   6.012  19.023   8.477
  775POPC   C3A13025   5.941  19.185   8.105
  775POPC   C4A13026   6.277  19.108   7.834
  775POPC   C1B13027   5.730  18.687   8.772
  775POPC   C2B13028   5.601  18.748   8.375
  775POPC   C3B13029   5.773  18.713   8.012
  775POPC   C4B13030   5.818  18.944   7.671
  776POPC   NC313031  39.424  23.985   9.515
  776POPC   PO413032  39.288  23.352   9.296
  776POPC   GL113033  39.348  23.765   9.045
  776POPC   GL213034  39.655  23.986   9.062
  776POPC   C1A13035  39.220  23.812   8.602
  776POPC   D2A13036  39.425  23.583   8.253
  776POPC   C3A13037  39.111  23.521   7.942
  776POPC   C4A13038  38.844  23.847   7.856
  776POPC   C1B13039  39.681  24.012   8.608
  776POPC   C2B13040  39.651  24.085   8.174
  776POPC   C3B13041  39.484  23.859   7.820
  776POPC   C4B13042  39.514  23.431   7.622
  777POPC   NC313043  42.660   5.767   9.532
  777POPC   PO413044  42.056   5.435   9.405
  777POPC   GL113045  42.253   5.827   9.222
  777POPC   GL213046  41.984   5.988   9.060
  777POPC   C1A13047  42.430   6.047   8.841
  777POPC   D2A13048  42.387   5.909   8.384
  777POPC   C3A13049  42.554   6.010   7.959
  777POPC   C4A13050  42.682   5.740   7.612
  777POPC   C1B13051  42.070   5.694   8.746
  777POPC   C2B13052  41.992   5.548   8.299
  777POPC   C3B13053  42.085   5.766   7.918
  777POPC   C4B13054  42.056   6.184   7.949
  778POPC   NC313055  40.940  19.222   9.675
  778POPC   PO413056  40.499  18.802   9.399
  778POPC   GL113057  40.797  19.034   9.187
  778POPC   GL213058  40.530  19.212   9.001
  778POPC   C1A13059  40.934  18.938   8.757
  778POPC   D2A13060  40.783  19.076   8.342
  778POPC   C3A13061  40.802  18.841   7.930
  778POPC   C4A13062  40.914  18.847   7.470
  778POPC   C1B13063  40.889  19.433   8.829
  778POPC   C2B13064  41.178  19.370   8.475
  778POPC   C3B13065  41.026  19.479   8.066
  778POPC   C4B13066  40.854  19.304   7.678
  779POPC   NC313067   7.091   6.902   9.249
  779POPC   PO413068   7.740   6.703   9.533
  779POPC   GL113069   7.533   6.700   9.148
  779POPC   GL213070   7.524   6.343   9.201
  779POPC   C1A13071   7.336   6.784   8.689
  779POPC   D2A13072   7.437   7.022   8.297
  779POPC   C3A13073   7.184   6.938   7.920
  779POPC   C4A13074   7.283   6.880   7.483
  779POPC   C1B13075   7.694   6.402   8.786
  779POPC   C2B13076   7.479   6.358   8.446
  779POPC   C3B13077   7.476   6.554   8.087
  779POPC   C4B13078   7.365   6.448   7.707
  780POPC   NC313079  25.804  29.101   9.451
  780POPC   PO413080  26.456  29.357   9.484
  780POPC   GL113081  26.211  29.187   9.157
  780POPC   GL213082  25.954  29.445   9.073
  780POPC   C1A13083  26.286  28.953   8.777
  780POPC   D2A13084  26.220  29.190   8.402
  780POPC   C3A13085  26.218  29.089   8.010
  780POPC   C4A13086  26.154  29.350   7.678
  780POPC   C1B13087  25.803  29.125   8.775
  780POPC   C2B13088  25.753  28.928   8.356
  780POPC   C3B13089  25.722  29.086   7.940
  780POPC   C4B13090  25.820  29.014   7.494
  781POPC   NC313091  24.353  20.627   9.554
  781POPC   PO413092  24.826  20.367   9.201
  781POPC   GL113093  24.550  20.637   9.091
  781POPC   GL213094  24.697  20.963   9.123
  781POPC   C1A13095  24.256  20.522   8.803
  781POPC   D2A13096  24.311  20.311   8.428
  781POPC   C3A13097  24.406  20.604   8.147
  781POPC   C4A13098  24.376  20.382   7.758
  781POPC   C1B13099  24.633  20.888   8.662
  781POPC   C2B13100  24.803  20.525   8.462
  781POPC   C3B13101  24.839  20.381   8.025
  781POPC   C4B13102  24.698  20.779   7.759
  782POPC   NC313103  27.273  20.865   9.513
  782POPC   PO413104  27.478  20.290   9.497
  782POPC   GL113105  27.517  20.454   9.110
  782POPC   GL213106  27.549  20.750   9.091
  782POPC   C1A13107  27.703  20.405   8.716
  782POPC   D2A13108  27.919  20.708   8.448
  782POPC   C3A13109  27.776  20.722   8.012
  782POPC   C4A13110  27.644  20.432   7.689
  782POPC   C1B13111  27.459  21.005   8.746
  782POPC   C2B13112  27.616  21.120   8.354
  782POPC   C3B13113  27.390  21.117   7.982
  782POPC   C4B13114  27.244  20.973   7.621
  783POPC   NC313115  26.048  23.067   9.583
  783POPC   PO413116  25.558  23.048   9.233
  783POPC   GL113117  25.965  22.951   9.048
  783POPC   GL213118  26.299  23.095   9.128
  783POPC   C1A13119  25.950  22.647   8.686
  783POPC   D2A13120  25.663  22.618   8.316
  783POPC   C3A13121  25.908  22.769   7.965
  783POPC   C4A13122  26.008  23.176   7.730
  783POPC   C1B13123  26.203  23.167   8.674
  783POPC   C2B13124  26.414  23.082   8.300
  783POPC   C3B13125  26.588  23.432   8.089
  783POPC   C4B13126  26.407  23.519   7.740
  784POPC   NC313127  27.355  19.851   9.520
  784POPC   PO413128  28.014  19.999   9.441
  784POPC   GL113129  27.736  19.716   9.179
  784POPC   GL213130  27.621  19.971   9.096
  784POPC   C1A13131  27.609  19.586   8.769
  784POPC   D2A13132  27.774  19.472   8.397
  784POPC   C3A13133  27.511  19.563   8.063
  784POPC   C4A13134  27.553  19.751   7.673
  784POPC   C1B13135  27.342  20.035   8.819
  784POPC   C2B13136  27.304  19.900   8.413
  784POPC   C3B13137  27.452  20.093   8.059
  784POPC   C4B13138  27.226  20.175   7.715
  785POPC   NC313139  24.660  36.500   9.393
  785POPC   PO413140  24.249  35.909   9.405
  785POPC   GL113141  24.174  36.021   9.030
  785POPC   GL213142  24.251  36.363   9.060
  785POPC   C1A13143  24.258  35.875   8.620
  785POPC   D2A13144  24.574  35.804   8.320
  785POPC   C3A13145  24.340  35.913   7.970
  785POPC   C4A13146  24.539  36.005   7.627
  785POPC   C1B13147  24.108  36.406   8.652
  785POPC   C2B13148  24.399  36.302   8.338
  785POPC   C3B13149  24.600  36.391   7.963
  785POPC   C4B13150  24.348  36.520   7.638
  786POPC   NC313151  31.679  28.375   9.562
  786POPC   PO413152  31.214  28.844   9.514
  786POPC   GL113153  31.212  28.405   9.295
  786POPC   GL213154  31.198  28.555   9.006
  786POPC   C1A13155  31.472  28.142   8.941
  786POPC   D2A13156  31.585  28.281   8.532
  786POPC   C3A13157  31.590  28.165   8.096
  786POPC   C4A13158  31.549  28.373   7.732
  786POPC   C1B13159  31.059  28.259   8.686
  786POPC   C2B13160  30.919  28.346   8.275
  786POPC   C3B13161  31.037  28.296   7.854
  786POPC   C4B13162  31.165  28.658   7.597
  787POPC   NC313163   2.281   3.159   9.939
  787POPC   PO413164   2.100   2.639   9.523
  787POPC   GL113165   2.086   2.521   9.096
  787POPC   GL213166   2.360   2.759   9.071
  787POPC   C1A13167   1.771   2.489   8.726
  787POPC   D2A13168   1.672   2.830   8.399
  787POPC   C3A13169   2.044   2.972   8.144
  787POPC   C4A13170   2.073   3.063   7.703
  787POPC   C1B13171   2.141   2.827   8.656
  787POPC   C2B13172   2.070   2.495   8.282
  787POPC   C3B13173   2.212   2.565   7.842
  787POPC   C4B13174   2.263   2.399   7.408
  788POPC   NC313175  14.877   8.276   9.308
  788POPC   PO413176  15.011   7.631   9.237
  788POPC   GL113177  15.234   7.993   9.035
  788POPC   GL213178  15.320   8.371   9.097
  788POPC   C1A13179  15.091   8.192   8.650
  788POPC   D2A13180  14.760   8.016   8.371
  788POPC   C3A13181  14.909   8.075   7.953
  788POPC   C4A13182  15.298   7.927   7.805
  788POPC   C1B13183  15.333   8.666   8.772
  788POPC   C2B13184  15.473   8.510   8.393
  788POPC   C3B13185  15.742   8.573   8.049
  788POPC   C4B13186  15.605   8.353   7.696
  789POPC   NC313187  11.293  20.209   9.520
  789POPC   PO413188  11.516  20.823   9.330
  789POPC   GL113189  11.180  20.679   9.112
  789POPC   GL213190  11.136  20.332   9.067
  789POPC   C1A13191  11.301  20.675   8.730
  789POPC   D2A13192  11.154  20.580   8.386
  789POPC   C3A13193  11.153  20.795   8.037
  789POPC   C4A13194  11.130  20.606   7.659
  789POPC   C1B13195  11.488  20.172   8.823
  789POPC   C2B13196  11.435  20.073   8.383
  789POPC   C3B13197  11.425  20.343   8.038
  789POPC   C4B13198  11.606  20.408   7.659
  790POPC   NC313199  36.299  11.942   9.552
  790POPC   PO413200  35.624  12.068   9.380
  790POPC   GL113201  36.023  12.124   9.130
  790POPC   GL213202  36.292  11.863   9.064
  790POPC   C1A13203  35.971  12.329   8.740
  790POPC   D2A13204  35.893  12.130   8.410
  790POPC   C3A13205  35.868  12.293   8.054
  790POPC   C4A13206  35.983  12.176   7.655
  790POPC   C1B13207  36.412  12.037   8.686
  790POPC   C2B13208  36.243  11.766   8.380
  790POPC   C3B13209  36.192  11.883   7.993
  790POPC   C4B13210  36.427  11.945   7.603
  791POPC   NC313211  27.048  37.699   9.549
  791POPC   PO413212  26.489  38.200   9.546
  791POPC   GL113213  26.650  37.896   9.261
  791POPC   GL213214  26.955  38.004   9.113
  791POPC   C1A13215  26.716  37.587   8.940
  791POPC   D2A13216  26.669  37.480   8.521
  791POPC   C3A13217  26.928  37.670   8.216
  791POPC   C4A13218  26.851  37.719   7.783
  791POPC   C1B13219  26.898  38.016   8.628
  791POPC   C2B13220  27.271  38.028   8.294
  791POPC   C3B13221  27.314  37.977   7.845
  791POPC   C4B13222  27.123  37.963   7.413
  792POPC   NC313223   6.409   7.567   9.536
  792POPC   PO413224   6.647   6.896   9.353
  792POPC   GL113225   6.601   7.248   9.120
  792POPC   GL213226   6.580   7.615   9.071
  792POPC   C1A13227   6.764   7.232   8.721
  792POPC   D2A13228   6.991   7.269   8.353
  792POPC   C3A13229   6.800   7.276   8.000
  792POPC   C4A13230   6.677   7.045   7.687
  792POPC   C1B13231   6.376   7.841   8.743
  792POPC   C2B13232   6.414   7.954   8.345
  792POPC   C3B13233   6.199   7.769   8.018
  792POPC   C4B13234   6.315   7.675   7.612
  793POPC   NC313235  41.329   6.454   9.307
  793POPC   PO413236  40.720   6.724   9.470
  793POPC   GL113237  40.905   6.812   9.110
  793POPC   GL213238  40.677   7.064   9.022
  793POPC   C1A13239  40.821   6.692   8.693
  793POPC   D2A13240  40.588   6.720   8.329
  793POPC   C3A13241  40.885   6.649   8.028
  793POPC   C4A13242  40.849   6.558   7.591
  793POPC   C1B13243  40.564   7.151   8.595
  793POPC   C2B13244  40.516   7.194   8.130
  793POPC   C3B13245  40.533   6.930   7.753
  793POPC   C4B13246  40.485   6.789   7.302
  794POPC   NC313247  19.979  13.329   9.588
  794POPC   PO413248  19.653  12.781   9.877
  794POPC   GL113249  19.767  12.789   9.389
  794POPC   GL213250  20.110  12.884   9.337
  794POPC   C1A13251  19.730  13.063   8.991
  794POPC   D2A13252  19.573  13.043   8.556
  794POPC   C3A13253  19.766  13.061   8.124
  794POPC   C4A13254  19.652  12.938   7.706
  794POPC   C1B13255  20.122  12.769   8.893
  794POPC   C2B13256  20.106  12.987   8.514
  794POPC   C3B13257  20.280  12.943   8.100
  794POPC   C4B13258  20.171  12.854   7.678
  795POPC   NC313259  22.848  37.921   9.471
  795POPC   PO413260  22.754  37.314   9.255
  795POPC   GL113261  22.996  37.639   9.076
  795POPC   GL213262  22.848  37.563   8.777
  795POPC   C1A13263  22.928  38.048   8.829
  795POPC   D2A13264  22.613  37.991   8.517
  795POPC   C3A13265  22.898  37.878   8.198
  795POPC   C4A13266  22.873  37.961   7.771
  795POPC   C1B13267  23.209  37.356   8.663
  795POPC   C2B13268  23.236  37.424   8.219
  795POPC   C3B13269  23.009  37.473   7.846
  795POPC   C4B13270  23.076  37.381   7.383
  796POPC   NC313271  37.896  11.939   9.610
  796POPC   PO413272  37.374  11.718   9.224
  796POPC   GL113273  37.650  12.073   9.116
  796POPC   GL213274  37.420  12.409   9.113
  796POPC   C1A13275  37.896  12.163   8.733
  796POPC   D2A13276  37.855  12.295   8.270
  796POPC   C3A13277  37.752  11.931   8.032
  796POPC   C4A13278  38.005  11.718   7.721
  796POPC   C1B13279  37.374  12.268   8.725
  796POPC   C2B13280  37.380  12.428   8.341
  796POPC   C3B13281  37.370  12.278   7.930
  796POPC   C4B13282  37.169  12.162   7.531
  797POPC   NC313283  34.381  34.760   9.484
  797POPC   PO413284  35.044  34.471   9.486
  797POPC   GL113285  34.718  34.539   9.178
  797POPC   GL213286  34.917  34.781   9.031
  797POPC   C1A13287  34.450  34.733   8.803
  797POPC   D2A13288  34.326  34.927   8.382
  797POPC   C3A13289  34.406  34.674   7.999
  797POPC   C4A13290  34.499  34.390   7.625
  797POPC   C1B13291  34.881  34.460   8.717
  797POPC   C2B13292  34.662  34.357   8.373
  797POPC   C3B13293  34.864  34.434   7.976
  797POPC   C4B13294  34.934  34.695   7.611
  798POPC   NC313295   9.500   4.078   9.360
  798POPC   PO413296   9.879   4.610   9.400
  798POPC   GL113297   9.793   4.373   9.036
  798POPC   GL213298  10.055   4.114   9.045
  798POPC   C1A13299   9.483   4.212   8.706
  798POPC   D2A13300   9.258   4.113   8.333
  798POPC   C3A13301   9.422   4.329   8.011
  798POPC   C4A13302   9.655   4.694   7.921
  798POPC   C1B13303   9.977   4.091   8.633
  798POPC   C2B13304   9.846   4.310   8.291
  798POPC   C3B13305   9.909   4.233   7.863
  798POPC   C4B13306   9.618   4.152   7.556
  799POPC   NC313307  34.337  24.790   9.515
  799POPC   PO413308  34.775  25.381   9.490
  799POPC   GL113309  34.637  25.304   9.066
  799POPC   GL213310  34.259  25.316   8.939
  799POPC   C1A13311  34.639  25.430   8.642
  799POPC   D2A13312  34.538  25.182   8.297
  799POPC   C3A13313  34.614  25.438   7.985
  799POPC   C4A13314  34.752  25.440   7.583
  799POPC   C1B13315  34.130  24.994   8.632
  799POPC   C2B13316  34.155  24.818   8.218
  799POPC   C3B13317  34.120  25.119   7.873
  799POPC   C4B13318  34.295  25.210   7.440
  800POPC   NC313319   3.864  27.610   9.599
  800POPC   PO413320   3.325  27.338   9.756
  800POPC   GL113321   3.386  27.435   9.296
  800POPC   GL213322   3.539  27.767   9.241
  800POPC   C1A13323   3.310  27.538   8.833
  800POPC   D2A13324   3.431  27.773   8.458
  800POPC   C3A13325   3.333  27.588   8.046
  800POPC   C4A13326   3.455  27.751   7.656
  800POPC   C1B13327   3.801  27.726   8.843
  800POPC   C2B13328   3.889  27.555   8.406
  800POPC   C3B13329   3.842  27.694   7.963
  800POPC   C4B13330   3.968  27.719   7.499
  801POPC   NC313331  17.844  40.128   9.517
  801POPC   PO413332  17.142  40.025   9.428
  801POPC   GL113333  17.456  40.160   9.196
  801POPC   GL213334  17.702  39.872   9.087
  801POPC   C1A13335  17.444  40.268   8.808
  801POPC   D2A13336  17.567  40.112   8.442
  801POPC   C3A13337  17.340  40.193   8.073
  801POPC   C4A13338  17.583  39.928   7.818
  801POPC   C1B13339  17.340  39.762   8.804
  801POPC   C2B13340  17.190  39.760   8.382
  801POPC   C3B13341  17.246  39.553   7.989
  801POPC   C4B13342  17.256  39.657   7.531
  802POPC   NC313343   7.267  28.861  10.190
  802POPC   PO413344   7.460  28.958   9.542
  802POPC   GL113345   7.649  29.152   9.185
  802POPC   GL213346   7.785  29.513   9.222
  802POPC   C1A13347   7.537  29.035   8.761
  802POPC   D2A13348   7.324  28.929   8.378
  802POPC   C3A13349   7.496  29.023   7.970
  802POPC   C4A13350   7.346  29.204   7.544
  802POPC   C1B13351   7.615  29.527   8.820
  802POPC   C2B13352   7.429  29.448   8.405
  802POPC   C3B13353   7.467  29.525   7.969
  802POPC   C4B13354   7.787  29.376   7.737
  803POPC   NC313355  39.318  29.660   9.348
  803POPC   PO413356  39.443  29.004   9.558
  803POPC   GL113357  39.339  28.995   9.128
  803POPC   GL213358  39.317  29.314   8.995
  803POPC   C1A13359  39.298  28.922   8.667
  803POPC   D2A13360  39.123  28.614   8.443
  803POPC   C3A13361  39.092  28.813   8.102
  803POPC   C4A13362  39.246  28.804   7.698
  803POPC   C1B13363  38.989  29.339   8.711
  803POPC   C2B13364  39.096  29.295   8.292
  803POPC   C3B13365  39.142  29.304   7.855
  803POPC   C4B13366  38.951  29.358   7.474
  804POPC   NC313367  39.417  44.619   9.747
  804POPC   PO413368  38.994  44.969   9.556
  804POPC   GL113369  39.259  44.748   9.250
  804POPC   GL213370  39.497  44.476   9.272
  804POPC   C1A13371  39.295  44.882   8.831
  804POPC   D2A13372  39.520  44.836   8.453
  804POPC   C3A13373  39.224  44.861   8.074
  804POPC   C4A13374  38.872  44.887   7.750
  804POPC   C1B13375  39.454  44.386   8.823
  804POPC   C2B13376  39.514  44.321   8.406
  804POPC   C3B13377  39.652  44.553   8.055
  804POPC   C4B13378  39.330  44.464   7.778
  805POPC   NC313379  15.094  21.864   9.676
  805POPC   PO413380  15.388  22.316   9.285
  805POPC   GL113381  15.074  22.053   9.191
  805POPC   GL213382  14.903  22.246   9.011
  805POPC   C1A13383  15.120  21.828   8.780
  805POPC   D2A13384  15.170  22.053   8.399
  805POPC   C3A13385  15.228  21.859   8.003
  805POPC   C4A13386  15.586  21.913   7.760
  805POPC   C1B13387  14.851  22.606   8.747
  805POPC   C2B13388  15.072  22.558   8.360
  805POPC   C3B13389  14.912  22.311   8.020
  805POPC   C4B13390  14.979  22.098   7.640
  806POPC   NC313391   0.172  24.500   9.890
  806POPC   PO413392   0.677  24.271   9.515
  806POPC   GL113393   0.539  24.320   9.129
  806POPC   GL213394   0.210  24.336   9.222
  806POPC   C1A13395   0.489  24.540   8.746
  806POPC   D2A13396   0.368  24.730   8.359
  806POPC   C3A13397   0.597  24.639   7.985
  806POPC   C4A13398   0.534  24.480   7.587
  806POPC   C1B13399   0.122  24.178   8.774
  806POPC   C2B13400   0.036  24.328   8.376
  806POPC   C3B13401   0.228  24.281   7.986
  806POPC   C4B13402   0.215  24.056   7.646
  807POPC   NC313403  10.188   4.392   9.650
  807POPC   PO413404  10.779   4.122   9.537
  807POPC   GL113405  10.601   4.355   9.196
  807POPC   GL213406  10.314   4.542   9.159
  807POPC   C1A13407  10.510   4.171   8.802
  807POPC   D2A13408  10.823   3.938   8.534
  807POPC   C3A13409  10.804   4.098   8.112
  807POPC   C4A13410  10.437   4.232   7.841
  807POPC   C1B13411  10.167   4.560   8.736
  807POPC   C2B13412  10.326   4.487   8.322
  807POPC   C3B13413  10.404   4.734   7.972
  807POPC   C4B13414  10.130   4.645   7.686
  808POPC   NC313415  17.795  31.230   9.515
  808POPC   PO413416  17.229  31.535   9.584
  808POPC   GL113417  17.506  31.597   9.224
  808POPC   GL213418  17.576  31.269   9.051
  808POPC   C1A13419  17.640  31.702   8.789
  808POPC   D2A13420  17.628  31.406   8.449
  808POPC   C3A13421  17.669  31.557   8.030
  808POPC   C4A13422  17.675  31.681   7.574
  808POPC   C1B13423  17.297  31.039   8.756
  808POPC   C2B13424  17.150  31.132   8.380
  808POPC   C3B13425  17.346  31.156   7.985
  808POPC   C4B13426  17.446  31.080   7.566
  809POPC   NC313427  44.940  27.487   9.607
  809POPC   PO413428  44.368  27.864   9.495
  809POPC   GL113429  44.522  27.488   9.291
  809POPC   GL213430  44.765  27.684   9.154
  809POPC   C1A13431  44.738  27.273   8.895
  809POPC   D2A13432  44.708  27.538   8.522
  809POPC   C3A13433  44.674  27.389   8.091
  809POPC   C4A13434  44.539  27.524   7.699
  809POPC   C1B13435  44.528  27.925   8.839
  809POPC   C2B13436  44.511  28.023   8.405
  809POPC   C3B13437  44.331  27.791   8.078
  809POPC   C4B13438  44.272  27.985   7.710
  810POPC   NC313439   6.364  29.853   9.529
  810POPC   PO413440   6.937  29.698   9.279
  810POPC   GL113441   6.671  30.001   9.063
  810POPC   GL213442   6.920  30.234   9.036
  810POPC   C1A13443   6.574  30.262   8.679
  810POPC   D2A13444   6.690  30.191   8.259
  810POPC   C3A13445   6.349  30.174   7.962
  810POPC   C4A13446   6.244  30.229   7.529
  810POPC   C1B13447   7.002  29.964   8.643
  810POPC   C2B13448   7.110  29.875   8.173
  810POPC   C3B13449   7.031  29.657   7.734
  810POPC   C4B13450   7.023  29.508   7.271
  811POPC   NC313451  20.016  26.458   9.694
  811POPC   PO413452  19.778  27.062   9.553
  811POPC   GL113453  19.733  26.766   9.162
  811POPC   GL213454  20.037  26.594   9.194
  811POPC   C1A13455  19.621  26.733   8.690
  811POPC   D2A13456  19.825  27.033   8.394
  811POPC   C3A13457  19.902  26.891   7.983
  811POPC   C4A13458  19.675  26.573   7.734
  811POPC   C1B13459  20.128  26.747   8.769
  811POPC   C2B13460  20.230  26.671   8.326
  811POPC   C3B13461  20.218  26.503   7.894
  811POPC   C4B13462  20.136  26.597   7.451
  812POPC   NC313463   3.411  28.642   9.427
  812POPC   PO413464   3.867  28.061   9.593
  812POPC   GL113465   3.687  28.251   9.239
  812POPC   GL213466   3.851  28.541   9.142
  812POPC   C1A13467   3.479  28.133   8.850
  812POPC   D2A13468   3.421  28.294   8.430
  812POPC   C3A13469   3.489  28.115   8.019
  812POPC   C4A13470   3.413  28.368   7.642
  812POPC   C1B13471   3.816  28.737   8.781
  812POPC   C2B13472   3.609  28.822   8.422
  812POPC   C3B13473   3.649  28.607   8.063
  812POPC   C4B13474   3.785  28.731   7.677
  813POPC   NC313475  38.094  36.310   9.450
  813POPC   PO413476  37.438  36.180   9.404
  813POPC   GL113477  37.725  36.278   9.091
  813POPC   GL213478  37.871  35.952   9.025
  813POPC   C1A13479  37.805  36.328   8.656
  813POPC   D2A13480  37.905  35.991   8.383
  813POPC   C3A13481  37.795  36.105   7.986
  813POPC   C4A13482  37.527  36.387   7.744
  813POPC   C1B13483  37.499  35.918   8.747
  813POPC   C2B13484  37.368  36.091   8.336
  813POPC   C3B13485  37.337  35.902   7.917
  813POPC   C4B13486  37.640  35.791   7.607
  814POPC   NC313487   8.653  23.866   9.373
  814POPC   PO413488   9.159  23.434   9.493
  814POPC   GL113489   9.011  23.524   9.123
  814POPC   GL213490   9.128  23.851   9.144
  814POPC   C1A13491   9.245  23.518   8.755
  814POPC   D2A13492   9.220  23.754   8.408
  814POPC   C3A13493   9.200  23.542   8.051
  814POPC   C4A13494   8.897  23.589   7.784
  814POPC   C1B13495   9.050  24.056   8.760
  814POPC   C2B13496   8.810  24.094   8.402
  814POPC   C3B13497   9.006  24.039   8.055
  814POPC   C4B13498   8.938  24.073   7.670
  815POPC   NC313499  20.392   8.574   9.672
  815POPC   PO413500  20.958   8.211   9.495
  815POPC   GL113501  20.657   8.239   9.143
  815POPC   GL213502  20.320   8.414   9.169
  815POPC   C1A13503  20.702   8.105   8.716
  815POPC   D2A13504  20.808   8.389   8.386
  815POPC   C3A13505  20.707   8.307   7.944
  815POPC   C4A13506  20.873   8.196   7.531
  815POPC   C1B13507  20.373   8.480   8.702
  815POPC   C2B13508  20.334   8.521   8.249
  815POPC   C3B13509  20.314   8.608   7.803
  815POPC   C4B13510  20.482   8.499   7.388
  816POPC   NC313511  40.190  11.096   9.539
  816POPC   PO413512  39.841  11.682   9.628
  816POPC   GL113513  39.965  11.446   9.240
  816POPC   GL213514  39.810  11.140   9.198
  816POPC   C1A13515  40.185  11.255   8.850
  816POPC   D2A13516  40.041  11.082   8.451
  816POPC   C3A13517  40.171  11.133   8.042
  816POPC   C4A13518  40.235  11.525   7.850
  816POPC   C1B13519  39.687  11.256   8.814
  816POPC   C2B13520  39.541  11.110   8.448
  816POPC   C3B13521  39.672  11.308   8.080
  816POPC   C4B13522  39.808  11.232   7.690
  817POPC   NC313523  23.827  44.664   9.619
  817POPC   PO413524  23.378   0.060   9.426
  817POPC   GL113525  23.615  44.808   9.127
  817POPC   GL213526  23.544  44.502   9.177
  817POPC   C1A13527  23.505  44.783   8.668
  817POPC   D2A13528  23.319  44.751   8.240
  817POPC   C3A13529  23.583  44.706   7.848
  817POPC   C4A13530  23.500  44.798   7.384
  817POPC   C1B13531  23.756  44.352   8.782
  817POPC   C2B13532  23.605  44.338   8.359
  817POPC   C3B13533  23.671  44.198   7.950
  817POPC   C4B13534  23.864  44.317   7.608
  818POPC   NC313535  12.472  42.551   9.319
  818POPC   PO413536  12.104  42.166   9.713
  818POPC   GL113537  12.165  42.178   9.210
  818POPC   GL213538  11.871  42.269   9.012
  818POPC   C1A13539  12.282  42.299   8.720
  818POPC   D2A13540  12.004  42.297   8.338
  818POPC   C3A13541  12.217  42.249   7.964
  818POPC   C4A13542  11.947  42.308   7.641
  818POPC   C1B13543  11.836  42.627   8.674
  818POPC   C2B13544  12.155  42.790   8.460
  818POPC   C3B13545  12.106  42.753   8.041
  818POPC   C4B13546  12.388  42.732   7.739
  819POPC   NC313547  16.138  21.267   9.577
  819POPC   PO413548  15.602  21.696   9.635
  819POPC   GL113549  15.839  21.496   9.251
  819POPC   GL213550  15.966  21.776   9.078
  819POPC   C1A13551  15.925  21.181   8.917
  819POPC   D2A13552  15.977  21.328   8.484
  819POPC   C3A13553  16.080  21.111   8.095
  819POPC   C4A13554  15.903  21.179   7.708
  819POPC   C1B13555  15.640  21.930   8.769
  819POPC   C2B13556  15.539  21.694   8.369
  819POPC   C3B13557  15.822  21.559   8.029
  819POPC   C4B13558  16.059  21.702   7.633
  820POPC   NC313559  38.242   3.124   9.245
  820POPC   PO413560  38.636   2.666   9.647
  820POPC   GL113561  38.686   2.872   9.249
  820POPC   GL213562  38.801   3.208   9.263
  820POPC   C1A13563  38.601   2.744   8.819
  820POPC   D2A13564  38.625   2.697   8.381
  820POPC   C3A13565  38.270   2.688   8.108
  820POPC   C4A13566  38.232   2.450   7.732
  820POPC   C1B13567  38.699   3.250   8.808
  820POPC   C2B13568  38.383   3.124   8.492
  820POPC   C3B13569  38.496   3.145   8.058
  820POPC   C4B13570  38.266   3.043   7.713
  821POPC   NC313571   6.479  32.467   9.382
  821POPC   PO413572   7.036  32.052   9.419
  821POPC   GL113573   6.726  32.113   9.117
  821POPC   GL213574   6.883  32.453   9.105
  821POPC   C1A13575   6.501  32.255   8.740
  821POPC   D2A13576   6.710  32.201   8.325
  821POPC   C3A13577   6.531  32.207   7.938
  821POPC   C4A13578   6.385  32.048   7.545
  821POPC   C1B13579   7.006  32.365   8.712
  821POPC   C2B13580   6.973  32.637   8.359
  821POPC   C3B13581   6.982  32.539   7.927
  821POPC   C4B13582   6.976  32.241   7.663
  822POPC   NC313583   4.589   6.859   9.602
  822POPC   PO413584   4.038   6.464   9.489
  822POPC   GL113585   4.333   6.646   9.165
  822POPC   GL213586   4.477   6.966   9.128
  822POPC   C1A13587   4.361   6.643   8.719
  822POPC   D2A13588   4.059   6.810   8.411
  822POPC   C3A13589   4.087   6.668   7.979
  822POPC   C4A13590   4.357   6.542   7.649
  822POPC   C1B13591   4.366   7.151   8.754
  822POPC   C2B13592   4.539   7.011   8.388
  822POPC   C3B13593   4.625   6.825   7.989
  822POPC   C4B13594   4.688   6.913   7.534
  823POPC   NC313595  41.860  40.579   9.530
  823POPC   PO413596  41.427  41.058   9.578
  823POPC   GL113597  41.367  40.771   9.273
  823POPC   GL213598  41.686  40.899   9.160
  823POPC   C1A13599  41.317  40.657   8.835
  823POPC   D2A13600  41.405  40.864   8.435
  823POPC   C3A13601  41.322  40.620   8.049
  823POPC   C4A13602  41.517  40.646   7.626
  823POPC   C1B13603  41.822  40.828   8.762
  823POPC   C2B13604  41.885  41.016   8.352
  823POPC   C3B13605  41.741  40.907   7.972
  823POPC   C4B13606  41.839  41.022   7.519
  824POPC   NC313607   9.359   2.613   9.656
  824POPC   PO413608   8.739   2.894   9.626
  824POPC   GL113609   9.014   2.752   9.301
  824POPC   GL213610   8.873   2.470   9.316
  824POPC   C1A13611   9.153   2.696   8.872
  824POPC   D2A13612   9.174   2.945   8.507
  824POPC   C3A13613   9.070   2.746   8.112
  824POPC   C4A13614   9.151   2.948   7.724
  824POPC   C1B13615   8.704   2.469   8.899
  824POPC   C2B13616   8.693   2.624   8.469
  824POPC   C3B13617   8.585   2.460   8.059
  824POPC   C4B13618   8.769   2.609   7.687
  825POPC   NC313619  30.345  10.410   9.596
  825POPC   PO413620  29.660  10.554   9.516
  825POPC   GL113621  29.722  10.634   9.126
  825POPC   GL213622  30.027  10.438   9.139
  825POPC   C1A13623  29.741  10.720   8.687
  825POPC   D2A13624  29.895  10.531   8.323
  825POPC   C3A13625  29.881  10.686   7.937
  825POPC   C4A13626  29.884  10.454   7.586
  825POPC   C1B13627  30.182  10.478   8.731
  825POPC   C2B13628  30.401  10.316   8.378
  825POPC   C3B13629  30.257  10.315   7.966
  825POPC   C4B13630  30.379  10.574   7.672
  826POPC   NC313631  43.167   3.346   9.771
  826POPC   PO413632  43.809   3.581   9.890
  826POPC   GL113633  43.750   3.504   9.393
  826POPC   GL213634  43.776   3.800   9.180
  826POPC   C1A13635  43.829   3.372   8.918
  826POPC   D2A13636  43.879   3.506   8.479
  826POPC   C3A13637  43.787   3.293   8.100
  826POPC   C4A13638  43.895   3.449   7.692
  826POPC   C1B13639  43.537   3.765   8.794
  826POPC   C2B13640  43.558   3.953   8.389
  826POPC   C3B13641  43.765   3.970   7.975
  826POPC   C4B13642  43.587   3.871   7.564
  827POPC   NC313643  30.088  23.371   9.416
  827POPC   PO413644  29.812  24.058   9.438
  827POPC   GL113645  29.858  23.759   9.114
  827POPC   GL213646  29.593  23.503   9.166
  827POPC   C1A13647  30.098  23.722   8.726
  827POPC   D2A13648  30.289  23.621   8.319
  827POPC   C3A13649  29.974  23.712   7.995
  827POPC   C4A13650  29.989  23.962   7.637
  827POPC   C1B13651  29.647  23.453   8.736
  827POPC   C2B13652  29.532  23.612   8.346
  827POPC   C3B13653  29.553  23.416   7.968
  827POPC   C4B13654  29.678  23.462   7.545
  828POPC   NC313655   3.876  39.313   9.884
  828POPC   PO413656   3.502  38.837   9.583
  828POPC   GL113657   3.437  38.901   9.102
  828POPC   GL213658   3.519  39.263   9.046
  828POPC   C1A13659   3.419  38.979   8.641
  828POPC   D2A13660   3.733  39.178   8.346
  828POPC   C3A13661   3.798  39.044   7.932
  828POPC   C4A13662   3.427  38.910   7.754
  828POPC   C1B13663   3.476  39.491   8.683
  828POPC   C2B13664   3.214  39.400   8.337
  828POPC   C3B13665   3.445  39.417   7.973
  828POPC   C4B13666   3.867  39.607   8.041
  829POPC   NC313667  33.481  23.432   9.445
  829POPC   PO413668  34.047  23.566   9.778
  829POPC   GL113669  33.893  23.697   9.298
  829POPC   GL213670  33.780  23.472   9.044
  829POPC   C1A13671  33.734  23.952   8.926
  829POPC   D2A13672  33.590  23.870   8.492
  829POPC   C3A13673  33.860  23.727   8.134
  829POPC   C4A13674  33.672  23.627   7.734
  829POPC   C1B13675  33.954  23.506   8.657
  829POPC   C2B13676  33.976  23.238   8.312
  829POPC   C3B13677  33.995  23.265   7.889
  829POPC   C4B13678  34.166  23.603   7.610
  830POPC   NC313679   2.531  35.452   9.489
  830POPC   PO413680   3.196  35.428   9.686
  830POPC   GL113681   3.124  35.319   9.232
  830POPC   GL213682   2.815  35.120   9.165
  830POPC   C1A13683   3.036  35.332   8.763
  830POPC   D2A13684   2.834  35.381   8.368
  830POPC   C3A13685   2.858  35.264   7.936
  830POPC   C4A13686   2.709  35.570   7.623
  830POPC   C1B13687   2.617  34.998   8.719
  830POPC   C2B13688   2.601  34.922   8.258
  830POPC   C3B13689   2.330  34.916   7.902
  830POPC   C4B13690   2.467  35.123   7.536
  831POPC   NC313691  10.983  33.836   9.623
  831POPC   PO413692  11.690  33.688   9.612
  831POPC   GL113693  11.525  33.725   9.212
  831POPC   GL213694  11.214  33.886   9.163
  831POPC   C1A13695  11.527  33.535   8.821
  831POPC   D2A13696  11.288  33.530   8.441
  831POPC   C3A13697  11.414  33.633   8.016
  831POPC   C4A13698  11.109  33.595   7.709
  831POPC   C1B13699  11.332  34.034   8.745
  831POPC   C2B13700  11.167  34.052   8.300
  831POPC   C3B13701  11.277  34.149   7.851
  831POPC   C4B13702  11.376  33.952   7.429
  832POPC   NC313703  31.188  22.928   9.496
  832POPC   PO413704  30.503  22.718   9.601
  832POPC   GL113705  30.482  22.979   9.229
  832POPC   GL213706  30.807  22.843   9.160
  832POPC   C1A13707  30.468  22.868   8.787
  832POPC   D2A13708  30.719  22.699   8.498
  832POPC   C3A13709  30.538  22.700   8.102
  832POPC   C4A13710  30.632  22.838   7.697
  832POPC   C1B13711  30.994  23.059   8.831
  832POPC   C2B13712  31.077  23.098   8.422
  832POPC   C3B13713  31.000  22.985   8.019
  832POPC   C4B13714  31.240  23.134   7.631
  833POPC   NC313715  28.802   8.629   9.636
  833POPC   PO413716  29.245   9.168   9.712
  833POPC   GL113717  29.101   9.010   9.321
  833POPC   GL213718  29.141   9.314   9.140
  833POPC   C1A13719  29.296   8.781   8.981
  833POPC   D2A13720  29.361   8.807   8.557
  833POPC   C3A13721  29.401   8.754   8.126
  833POPC   C4A13722  29.209   8.782   7.734
  833POPC   C1B13723  28.938   9.092   8.783
  833POPC   C2B13724  28.950   9.016   8.339
  833POPC   C3B13725  29.065   9.198   7.940
  833POPC   C4B13726  29.008   9.177   7.487
  834POPC   NC313727  35.428   0.778   9.467
  834POPC   PO413728  35.123   0.204   9.381
  834POPC   GL113729  35.344   0.409   9.106
  834POPC   GL213730  35.078   0.710   9.114
  834POPC   C1A13731  35.417   0.260   8.686
  834POPC   D2A13732  35.080   0.210   8.362
  834POPC   C3A13733  35.203   0.151   7.931
  834POPC   C4A13734  35.652   0.062   7.815
  834POPC   C1B13735  35.363   0.772   8.761
  834POPC   C2B13736  35.353   0.660   8.345
  834POPC   C3B13737  35.600   0.534   8.017
  834POPC   C4B13738  35.473   0.480   7.577
  835POPC   NC313739  31.966  25.771   9.587
  835POPC   PO413740  32.306  26.342   9.595
  835POPC   GL113741  32.459  26.017   9.278
  835POPC   GL213742  32.202  25.786   9.127
  835POPC   C1A13743  32.483  26.089   8.835
  835POPC   D2A13744  32.465  26.385   8.516
  835POPC   C3A13745  32.565  26.271   8.087
  835POPC   C4A13746  32.391  26.003   7.769
  835POPC   C1B13747  32.057  25.658   8.709
  835POPC   C2B13748  32.169  25.778   8.278
  835POPC   C3B13749  32.019  25.647   7.868
  835POPC   C4B13750  31.937  25.748   7.395
  836POPC   NC313751  28.859  44.087   9.288
  836POPC   PO413752  29.413  43.702   9.521
  836POPC   GL113753  29.290  43.857   9.135
  836POPC   GL213754  29.066  43.604   9.117
  836POPC   C1A13755  29.074  43.892   8.717
  836POPC   D2A13756  29.328  43.873   8.408
  836POPC   C3A13757  29.169  43.944   8.066
  836POPC   C4A13758  29.364  44.072   7.693
  836POPC   C1B13759  29.385  43.474   8.775
  836POPC   C2B13760  29.491  43.379   8.316
  836POPC   C3B13761  29.283  43.463   7.908
  836POPC   C4B13762  28.980  43.736   7.658
  837POPC   NC313763  44.835  17.392   9.707
  837POPC   PO413764  44.683  16.702   9.633
  837POPC   GL113765  44.571  16.650   9.236
  837POPC   GL213766  44.874  16.835   9.145
  837POPC   C1A13767  44.407  16.745   8.838
  837POPC   D2A13768  44.633  16.703   8.467
  837POPC   C3A13769  44.492  16.903   8.120
  837POPC   C4A13770  44.548  16.649   7.828
  837POPC   C1B13771  44.792  17.082   8.796
  837POPC   C2B13772  44.961  17.105   8.414
  837POPC   C3B13773  44.849  17.264   8.064
  837POPC   C4B13774  44.808  17.134   7.682
  838POPC   NC313775  32.354  39.403   9.623
  838POPC   PO413776  32.374  38.748   9.509
  838POPC   GL113777  32.156  39.095   9.279
  838POPC   GL213778  32.432  39.163   9.124
  838POPC   C1A13779  32.028  39.337   8.892
  838POPC   D2A13780  32.288  39.351   8.545
  838POPC   C3A13781  32.136  39.282   8.137
  838POPC   C4A13782  32.193  39.370   7.743
  838POPC   C1B13783  32.617  39.001   8.727
  838POPC   C2B13784  32.523  38.956   8.289
  838POPC   C3B13785  32.540  39.027   7.876
  838POPC   C4B13786  32.773  39.104   7.502
  839POPC   NC313787  34.747  28.763   9.582
  839POPC   PO413788  34.449  29.334   9.819
  839POPC   GL113789  34.502  29.303   9.305
  839POPC   GL213790  34.676  29.034   9.181
  839POPC   C1A13791  34.345  29.181   8.841
  839POPC   D2A13792  34.256  29.299   8.406
  839POPC   C3A13793  34.414  29.110   8.016
  839POPC   C4A13794  34.460  29.232   7.559
  839POPC   C1B13795  34.853  29.072   8.780
  839POPC   C2B13796  34.769  29.207   8.370
  839POPC   C3B13797  34.912  29.170   7.927
  839POPC   C4B13798  34.733  28.841   7.684
  840POPC   NC313799   3.936   1.944   9.454
  840POPC   PO413800   4.611   1.963   9.547
  840POPC   GL113801   4.484   2.028   9.154
  840POPC   GL213802   4.231   2.253   9.130
  840POPC   C1A13803   4.516   1.847   8.760
  840POPC   D2A13804   4.299   1.750   8.399
  840POPC   C3A13805   4.467   1.946   8.047
  840POPC   C4A13806   4.362   1.847   7.620
  840POPC   C1B13807   4.064   2.074   8.757
  840POPC   C2B13808   3.933   2.124   8.324
  840POPC   C3B13809   4.046   2.189   7.875
  840POPC   C4B13810   4.141   2.261   7.428
  841POPC   NC313811  24.626  35.597   9.423
  841POPC   PO413812  24.140  35.144   9.481
  841POPC   GL113813  24.262  35.426   9.104
  841POPC   GL213814  24.303  35.168   8.876
  841POPC   C1A13815  24.612  35.525   8.762
  841POPC   D2A13816  24.618  35.255   8.390
  841POPC   C3A13817  24.619  35.440   7.951
  841POPC   C4A13818  24.694  35.521   7.516
  841POPC   C1B13819  24.703  34.944   8.845
  841POPC   C2B13820  24.914  34.819   8.459
  841POPC   C3B13821  24.849  34.973   8.028
  841POPC   C4B13822  24.717  34.912   7.605
  842POPC   NC313823  15.760   7.018   9.697
  842POPC   PO413824  15.869   7.674   9.607
  842POPC   GL113825  15.822   7.517   9.193
  842POPC   GL213826  15.769   7.166   9.217
  842POPC   C1A13827  15.897   7.615   8.760
  842POPC   D2A13828  16.205   7.521   8.434
  842POPC   C3A13829  16.098   7.630   8.037
  842POPC   C4A13830  15.716   7.643   7.845
  842POPC   C1B13831  15.823   7.035   8.801
  842POPC   C2B13832  15.690   7.254   8.424
  842POPC   C3B13833  15.857   7.175   8.029
  842POPC   C4B13834  15.728   7.150   7.623
  843POPC   NC313835   9.481  43.257   9.556
  843POPC   PO413836  10.012  42.821   9.509
  843POPC   GL113837   9.872  43.087   9.172
  843POPC   GL213838   9.533  43.036   9.117
  843POPC   C1A13839   9.825  43.254   8.755
  843POPC   D2A13840   9.829  43.089   8.340
  843POPC   C3A13841   9.814  43.395   8.011
  843POPC   C4A13842  10.018  43.462   7.585
  843POPC   C1B13843   9.521  42.839   8.753
  843POPC   C2B13844   9.342  42.844   8.394
  843POPC   C3B13845   9.512  42.841   8.003
  843POPC   C4B13846   9.775  43.019   7.677
  844POPC   NC313847  30.727  16.478   9.771
  844POPC   PO413848  30.324  16.644   9.274
  844POPC   GL113849  30.707  16.718   9.169
  844POPC   GL213850  30.840  17.027   9.305
  844POPC   C1A13851  30.707  16.619   8.734
  844POPC   D2A13852  30.724  16.392   8.360
  844POPC   C3A13853  30.730  16.536   7.933
  844POPC   C4A13854  31.038  16.402   7.629
  844POPC   C1B13855  30.863  17.099   8.837
  844POPC   C2B13856  30.777  16.983   8.376
  844POPC   C3B13857  30.981  16.986   7.983
  844POPC   C4B13858  30.940  16.923   7.554
  845POPC   NC313859  40.025  17.763   9.441
  845POPC   PO413860  40.576  17.369   9.417
  845POPC   GL113861  40.130  17.440   9.065
  845POPC   GL213862  39.713  17.650   9.086
  845POPC   C1A13863  39.819  17.361   8.698
  845POPC   D2A13864  39.671  17.180   8.339
  845POPC   C3A13865  39.940  17.290   8.022
  845POPC   C4A13866  40.093  17.259   7.607
  845POPC   C1B13867  39.883  17.867   8.737
  845POPC   C2B13868  39.993  17.738   8.324
  845POPC   C3B13869  39.800  17.769   7.946
  845POPC   C4B13870  39.739  18.050   7.607
  846POPC   NC313871  14.733  11.784  10.076
  846POPC   PO413872  14.386  12.141   9.580
  846POPC   GL113873  14.396  11.927   9.223
  846POPC   GL213874  14.168  12.170   9.094
  846POPC   C1A13875  14.599  11.991   8.862
  846POPC   D2A13876  14.390  12.229   8.591
  846POPC   C3A13877  14.530  12.126   8.204
  846POPC   C4A13878  14.535  12.122   7.777
  846POPC   C1B13879  13.951  12.445   8.813
  846POPC   C2B13880  14.085  12.581   8.389
  846POPC   C3B13881  14.183  12.419   7.990
  846POPC   C4B13882  14.038  12.066   7.699
  847POPC   NC313883  43.824   6.417   9.546
  847POPC   PO413884  44.236   6.911   9.509
  847POPC   GL113885  44.051   6.673   9.171
  847POPC   GL213886  44.199   6.363   9.150
  847POPC   C1A13887  43.777   6.464   8.866
  847POPC   D2A13888  43.569   6.581   8.486
  847POPC   C3A13889  43.815   6.403   8.159
  847POPC   C4A13890  43.775   6.651   7.799
  847POPC   C1B13891  44.267   6.621   8.719
  847POPC   C2B13892  44.159   6.748   8.314
  847POPC   C3B13893  44.262   6.710   7.887
  847POPC   C4B13894  44.304   6.922   7.487
  848POPC   NC313895   4.569  21.909   9.586
  848POPC   PO413896   3.977  22.147   9.494
  848POPC   GL113897   4.210  22.291   9.152
  848POPC   GL213898   4.458  22.023   9.109
  848POPC   C1A13899   4.169  22.212   8.716
  848POPC   D2A13900   4.159  22.032   8.329
  848POPC   C3A13901   4.001  22.297   8.000
  848POPC   C4A13902   4.245  22.422   7.661
  848POPC   C1B13903   4.693  21.985   8.735
  848POPC   C2B13904   4.680  22.200   8.342
  848POPC   C3B13905   4.514  22.077   7.956
  848POPC   C4B13906   4.610  21.792   7.596
  849POPC   NC313907  42.726  15.182   9.587
  849POPC   PO413908  42.110  14.963   9.518
  849POPC   GL113909  42.342  15.217   9.222
  849POPC   GL213910  42.553  14.918   9.190
  849POPC   C1A13911  42.395  15.338   8.771
  849POPC   D2A13912  42.713  15.302   8.431
  849POPC   C3A13913  42.533  15.278   8.003
  849POPC   C4A13914  42.304  15.376   7.609
  849POPC   C1B13915  42.595  14.879   8.766
  849POPC   C2B13916  42.393  14.884   8.351
  849POPC   C3B13917  42.412  14.763   7.898
  849POPC   C4B13918  42.534  14.911   7.452
  850POPC   NC313919  30.252  24.198   9.503
  850POPC   PO413920  30.935  24.338   9.540
  850POPC   GL113921  30.609  24.448   9.191
  850POPC   GL213922  30.591  24.150   9.125
  850POPC   C1A13923  30.458  24.446   8.746
  850POPC   D2A13924  30.738  24.486   8.414
  850POPC   C3A13925  30.579  24.610   8.044
  850POPC   C4A13926  30.829  24.809   7.780
  850POPC   C1B13927  30.962  24.207   8.823
  850POPC   C2B13928  31.140  24.163   8.373
  850POPC   C3B13929  30.922  24.229   7.969
  850POPC   C4B13930  30.473  24.169   7.812
  851POPC   NC313931  21.045   0.816   9.482
  851POPC   PO413932  21.646   0.494   9.572
  851POPC   GL113933  21.373   0.424   9.261
  851POPC   GL213934  21.574   0.202   9.083
  851POPC   C1A13935  21.290   0.612   8.893
  851POPC   D2A13936  21.092   0.586   8.497
  851POPC   C3A13937  21.351   0.497   8.148
  851POPC   C4A13938  21.247   0.392   7.738
  851POPC   C1B13939  21.754   0.378   8.751
  851POPC   C2B13940  21.731   0.706   8.473
  851POPC   C3B13941  21.821   0.724   8.037
  851POPC   C4B13942  21.770   0.343   7.825
  852POPC   NC313943  28.802  35.951   9.914
  852POPC   PO413944  28.324  36.192   9.526
  852POPC   GL113945  28.348  36.076   9.119
  852POPC   GL213946  28.444  36.418   9.048
  852POPC   C1A13947  28.615  36.016   8.742
  852POPC   D2A13948  28.834  35.832   8.384
  852POPC   C3A13949  28.624  35.968   7.988
  852POPC   C4A13950  28.182  35.809   7.843
  852POPC   C1B13951  28.149  36.323   8.715
  852POPC   C2B13952  28.202  36.135   8.301
  852POPC   C3B13953  28.254  36.326   7.880
  852POPC   C4B13954  28.425  36.129   7.519
  853POPC   NC313955   6.802  38.268   9.238
  853POPC   PO413956   6.816  38.907   9.434
  853POPC   GL113957   6.626  38.772   9.050
  853POPC   GL213958   6.277  38.647   9.161
  853POPC   C1A13959   6.768  38.584   8.642
  853POPC   D2A13960   6.680  38.144   8.481
  853POPC   C3A13961   6.583  38.145   8.008
  853POPC   C4A13962   6.684  38.304   7.587
  853POPC   C1B13963   6.302  38.417   8.756
  853POPC   C2B13964   6.388  38.523   8.301
  853POPC   C3B13965   6.442  38.671   7.849
  853POPC   C4B13966   6.357  38.617   7.364
  854POPC   NC313967   7.904  29.479   9.731
  854POPC   PO413968   8.383  29.968   9.578
  854POPC   GL113969   8.154  29.896   9.208
  854POPC   GL213970   8.253  30.166   9.017
  854POPC   C1A13971   8.122  29.672   8.830
  854POPC   D2A13972   7.928  29.648   8.449
  854POPC   C3A13973   8.127  29.519   8.092
  854POPC   C4A13974   8.293  29.685   7.741
  854POPC   C1B13975   8.202  30.143   8.581
  854POPC   C2B13976   8.136  30.029   8.187
  854POPC   C3B13977   8.204  30.187   7.844
  854POPC   C4B13978   8.190  30.093   7.431
  855POPC   NC313979  41.009  10.382   9.378
  855POPC   PO413980  40.478  10.728   9.544
  855POPC   GL113981  40.691  10.687   9.135
  855POPC   GL213982  40.508  10.382   9.080
  855POPC   C1A13983  40.867  10.518   8.731
  855POPC   D2A13984  40.882  10.309   8.333
  855POPC   C3A13985  41.177  10.525   8.095
  855POPC   C4A13986  41.042  10.813   7.775
  855POPC   C1B13987  40.533  10.142   8.693
  855POPC   C2B13988  40.391  10.135   8.289
  855POPC   C3B13989  40.545  10.427   7.964
  855POPC   C4B13990  40.872  10.307   7.768
  856POPC   NC313991  19.804  15.370   9.462
  856POPC   PO413992  19.802  14.697   9.552
  856POPC   GL113993  19.897  14.919   9.181
  856POPC   GL213994  19.591  14.955   9.048
  856POPC   C1A13995  20.014  15.244   8.854
  856POPC   D2A13996  20.171  15.202   8.464
  856POPC   C3A13997  20.007  15.290   8.085
  856POPC   C4A13998  19.724  15.373   7.751
  856POPC   C1B13999  19.589  15.034   8.671
  856POPC   C2B14000  19.613  15.256   8.363
  856POPC   C3B14001  19.596  14.973   8.018
  856POPC   C4B14002  19.293  14.960   7.694
  857POPC   NC314003  19.273  39.891   9.529
  857POPC   PO414004  18.608  39.809   9.405
  857POPC   GL114005  18.918  39.878   9.118
  857POPC   GL214006  19.254  40.039   9.054
  857POPC   C1A14007  18.896  40.026   8.690
  857POPC   D2A14008  19.138  40.301   8.416
  857POPC   C3A14009  19.028  40.237   8.003
  857POPC   C4A14010  18.736  40.302   7.678
  857POPC   C1B14011  19.294  39.625   8.863
  857POPC   C2B14012  19.038  39.549   8.484
  857POPC   C3B14013  19.069  39.708   8.076
  857POPC   C4B14014  19.036  39.867   7.650
  858POPC   NC314015  29.028  21.073   9.474
  858POPC   PO414016  29.382  21.657   9.609
  858POPC   GL114017  29.194  21.621   9.157
  858POPC   GL214018  28.904  21.410   9.099
  858POPC   C1A14019  29.196  21.559   8.690
  858POPC   D2A14020  29.103  21.770   8.309
  858POPC   C3A14021  29.350  21.706   7.961
  858POPC   C4A14022  29.040  21.510   7.773
  858POPC   C1B14023  28.818  21.172   8.723
  858POPC   C2B14024  29.054  21.178   8.344
  858POPC   C3B14025  29.258  21.078   7.973
  858POPC   C4B14026  29.018  21.017   7.615
  859POPC   NC314027  11.453  14.411   9.573
  859POPC   PO414028  11.579  13.800   9.340
  859POPC   GL114029  11.501  14.217   9.087
  859POPC   GL214030  11.423  14.619   9.124
  859POPC   C1A14031  11.459  14.221   8.648
  859POPC   D2A14032  11.196  14.349   8.297
  859POPC   C3A14033  11.267  14.277   7.864
  859POPC   C4A14034  10.979  13.963   7.719
  859POPC   C1B14035  11.301  14.710   8.723
  859POPC   C2B14036  11.539  14.718   8.353
  859POPC   C3B14037  11.592  14.719   7.921
  859POPC   C4B14038  11.455  14.661   7.503
  860POPC   NC314039  10.351  35.899   9.702
  860POPC   PO414040  10.950  36.042   9.485
  860POPC   GL114041  10.720  35.985   9.136
  860POPC   GL214042  10.449  36.248   9.102
  860POPC   C1A14043  10.832  36.157   8.760
  860POPC   D2A14044  10.637  36.288   8.436
  860POPC   C3A14045  10.624  35.996   8.113
  860POPC   C4A14046  10.728  36.112   7.700
  860POPC   C1B14047  10.265  35.933   8.807
  860POPC   C2B14048  10.211  35.775   8.356
  860POPC   C3B14049  10.164  35.904   7.884
  860POPC   C4B14050  10.258  36.125   7.475
  861POPC   NC314051  20.384  33.932   9.415
  861POPC   PO414052  21.014  33.542   9.520
  861POPC   GL114053  20.803  33.714   9.215
  861POPC   GL214054  20.523  33.526   9.156
  861POPC   C1A14055  20.778  33.849   8.810
  861POPC   D2A14056  21.039  33.897   8.465
  861POPC   C3A14057  20.795  33.954   8.122
  861POPC   C4A14058  20.732  33.930   7.705
  861POPC   C1B14059  20.382  33.529   8.734
  861POPC   C2B14060  20.392  33.806   8.413
  861POPC   C3B14061  20.409  33.628   8.001
  861POPC   C4B14062  20.091  33.689   7.710
  862POPC   NC314063   6.077   2.384   9.326
  862POPC   PO414064   6.660   2.061   9.527
  862POPC   GL114065   6.628   1.955   9.129
  862POPC   GL214066   6.265   1.945   9.158
  862POPC   C1A14067   6.749   2.054   8.691
  862POPC   D2A14068   7.005   1.803   8.378
  862POPC   C3A14069   6.850   1.762   7.957
  862POPC   C4A14070   6.938   1.739   7.517
  862POPC   C1B14071   6.191   2.089   8.751
  862POPC   C2B14072   6.352   2.248   8.406
  862POPC   C3B14073   6.588   2.190   8.064
  862POPC   C4B14074   6.462   2.004   7.694
  863POPC   NC314075  16.368  23.114   9.824
  863POPC   PO414076  16.041  22.605   9.550
  863POPC   GL114077  15.822  22.896   9.265
  863POPC   GL214078  16.114  23.090   9.172
  863POPC   C1A14079  15.807  22.969   8.808
  863POPC   D2A14080  16.086  22.804   8.486
  863POPC   C3A14081  15.911  22.723   8.059
  863POPC   C4A14082  15.984  22.800   7.616
  863POPC   C1B14083  16.193  23.293   8.745
  863POPC   C2B14084  16.277  23.252   8.315
  863POPC   C3B14085  16.171  23.167   7.889
  863POPC   C4B14086  16.247  23.174   7.434
  864POPC   NC314087  21.328  22.786   9.566
  864POPC   PO414088  21.016  22.315   9.447
  864POPC   GL114089  21.127  22.684   9.107
  864POPC   GL214090  21.186  23.082   9.138
  864POPC   C1A14091  21.423  22.849   8.760
  864POPC   D2A14092  21.609  23.055   8.378
  864POPC   C3A14093  21.523  22.825   7.996
  864POPC   C4A14094  21.699  22.714   7.590
  864POPC   C1B14095  20.936  23.041   8.775
  864POPC   C2B14096  21.087  22.990   8.356
  864POPC   C3B14097  21.178  23.230   7.988
  864POPC   C4B14098  21.334  23.082   7.584
  865POPC   NC314099  32.541  42.276   9.508
  865POPC   PO414100  33.123  42.579   9.661
  865POPC   GL114101  33.056  42.325   9.267
  865POPC   GL214102  32.761  42.439   9.076
  865POPC   C1A14103  33.199  42.283   8.831
  865POPC   D2A14104  32.864  42.476   8.570
  865POPC   C3A14105  32.876  42.492   8.145
  865POPC   C4A14106  33.160  42.320   7.823
  865POPC   C1B14107  32.767  42.032   8.790
  865POPC   C2B14108  32.927  42.001   8.328
  865POPC   C3B14109  32.750  42.018   7.884
  865POPC   C4B14110  32.701  42.101   7.397
  866POPC   NC314111  28.516   1.330   9.611
  866POPC   PO414112  27.917   0.964   9.719
  866POPC   GL114113  28.114   1.044   9.259
  866POPC   GL214114  28.471   1.161   9.142
  866POPC   C1A14115  28.114   1.264   8.820
  866POPC   D2A14116  28.261   1.168   8.371
  866POPC   C3A14117  28.124   1.247   7.923
  866POPC   C4A14118  28.281   0.937   7.547
  866POPC   C1B14119  28.727   1.194   8.780
  866POPC   C2B14120  28.804   1.292   8.338
  866POPC   C3B14121  28.633   1.148   7.944
  866POPC   C4B14122  28.643   1.302   7.488
  867POPC   NC314123  11.438  36.140   9.517
  867POPC   PO414124  11.477  35.502   9.242
  867POPC   GL114125  11.283  35.893   9.057
  867POPC   GL214126  11.195  36.266   9.099
  867POPC   C1A14127  11.326  36.040   8.645
  867POPC   D2A14128  11.119  36.154   8.301
  867POPC   C3A14129  11.351  36.036   7.984
  867POPC   C4A14130  11.231  36.120   7.620
  867POPC   C1B14131  11.593  36.391   8.891
  867POPC   C2B14132  11.636  36.542   8.481
  867POPC   C3B14133  11.447  36.526   8.080
  867POPC   C4B14134  11.643  36.401   7.705
  868POPC   NC314135   0.767  10.830   9.531
  868POPC   PO414136   1.432  10.568   9.596
  868POPC   GL114137   1.322  10.437   9.179
  868POPC   GL214138   1.414  10.103   9.116
  868POPC   C1A14139   1.246  10.512   8.747
  868POPC   D2A14140   1.061  10.445   8.349
  868POPC   C3A14141   1.267  10.596   8.045
  868POPC   C4A14142   1.240  10.611   7.615
  868POPC   C1B14143   1.431  10.017   8.724
  868POPC   C2B14144   1.499  10.157   8.344
  868POPC   C3B14145   1.568  10.206   7.957
  868POPC   C4B14146   1.429  10.128   7.608
  869POPC   NC314147  42.327  29.634   9.371
  869POPC   PO414148  42.090  28.952   9.528
  869POPC   GL114149  42.363  29.112   9.230
  869POPC   GL214150  42.119  29.123   9.014
  869POPC   C1A14151  42.588  29.010   8.847
  869POPC   D2A14152  42.590  29.038   8.408
  869POPC   C3A14153  42.387  29.293   8.101
  869POPC   C4A14154  42.604  29.207   7.705
  869POPC   C1B14155  42.182  29.274   8.619
  869POPC   C2B14156  41.948  29.088   8.305
  869POPC   C3B14157  41.912  29.175   7.886
  869POPC   C4B14158  41.970  29.178   7.465
  870POPC   NC314159  18.257  12.245   9.304
  870POPC   PO414160  18.015  11.626   9.300
  870POPC   GL114161  18.155  11.858   8.974
  870POPC   GL214162  18.489  11.856   9.055
  870POPC   C1A14163  18.149  12.143   8.620
  870POPC   D2A14164  18.177  12.227   8.160
  870POPC   C3A14165  18.147  11.948   7.787
  870POPC   C4A14166  17.984  12.071   7.355
  870POPC   C1B14167  18.637  12.114   8.725
  870POPC   C2B14168  18.688  12.064   8.294
  870POPC   C3B14169  18.632  12.121   7.871
  870POPC   C4B14170  18.882  12.332   7.581
  871POPC   NC314171  10.895  43.829   9.579
  871POPC   PO414172  10.198  43.675   9.472
  871POPC   GL114173  10.535  43.606   9.181
  871POPC   GL214174  10.895  43.658   9.092
  871POPC   C1A14175  10.514  43.594   8.729
  871POPC   D2A14176  10.294  43.400   8.370
  871POPC   C3A14177  10.232  43.688   8.028
  871POPC   C4A14178  10.467  43.758   7.682
  871POPC   C1B14179  10.720  44.036   8.946
  871POPC   C2B14180  10.659  44.080   8.519
  871POPC   C3B14181  10.750  43.933   8.107
  871POPC   C4B14182  10.591  44.219   7.811
  872POPC   NC314183  14.727  23.982   9.430
  872POPC   PO414184  14.338  24.518   9.427
  872POPC   GL114185  14.271  24.400   9.034
  872POPC   GL214186  14.635  24.320   9.041
  872POPC   C1A14187  14.173  24.604   8.671
  872POPC   D2A14188  14.471  24.825   8.410
  872POPC   C3A14189  14.358  24.908   7.998
  872POPC   C4A14190  14.276  24.586   7.722
  872POPC   C1B14191  14.623  24.378   8.609
  872POPC   C2B14192  14.364  24.341   8.261
  872POPC   C3B14193  14.685  24.490   8.037
  872POPC   C4B14194  14.868  24.628   7.681
  873POPC   NC314195   9.216   1.641   9.467
  873POPC   PO414196   9.807   1.760   9.584
  873POPC   GL114197   9.762   1.667   9.189
  873POPC   GL214198   9.518   1.916   9.100
  873POPC   C1A14199   9.927   1.759   8.784
  873POPC   D2A14200   9.745   2.036   8.470
  873POPC   C3A14201   9.807   1.903   8.062
  873POPC   C4A14202   9.832   2.177   7.733
  873POPC   C1B14203   9.413   1.709   8.729
  873POPC   C2B14204   9.468   1.584   8.330
  873POPC   C3B14205   9.330   1.773   7.953
  873POPC   C4B14206   9.494   1.799   7.569
  874POPC   NC314207  34.555  11.680   9.517
  874POPC   PO414208  34.783  12.361   9.624
  874POPC   GL114209  34.573  12.145   9.255
  874POPC   GL214210  34.630  11.833   9.052
  874POPC   C1A14211  34.485  12.283   8.825
  874POPC   D2A14212  34.544  12.492   8.439
  874POPC   C3A14213  34.432  12.297   8.065
  874POPC   C4A14214  34.354  12.233   7.648
  874POPC   C1B14215  34.581  11.835   8.607
  874POPC   C2B14216  34.822  12.028   8.289
  874POPC   C3B14217  34.676  11.828   7.956
  874POPC   C4B14218  34.278  11.736   7.863
  875POPC   NC314219  25.630  36.258   9.413
  875POPC   PO414220  26.176  35.857   9.362
  875POPC   GL114221  25.848  35.938   9.085
  875POPC   GL214222  25.947  36.302   9.046
  875POPC   C1A14223  25.731  36.065   8.675
  875POPC   D2A14224  25.938  36.255   8.327
  875POPC   C3A14225  25.901  35.998   7.941
  875POPC   C4A14226  26.092  35.589   7.766
  875POPC   C1B14227  26.266  36.171   8.768
  875POPC   C2B14228  26.480  36.366   8.439
  875POPC   C3B14229  26.373  36.240   8.051
  875POPC   C4B14230  26.364  36.028   7.740
  876POPC   NC314231  28.480  33.085   9.745
  876POPC   PO414232  27.917  33.512   9.793
  876POPC   GL114233  28.043  33.261   9.350
  876POPC   GL214234  28.372  33.089   9.236
  876POPC   C1A14235  28.038  33.174   8.861
  876POPC   D2A14236  28.120  32.980   8.414
  876POPC   C3A14237  28.376  33.107   8.006
  876POPC   C4A14238  28.451  32.939   7.521
  876POPC   C1B14239  28.510  32.953   8.799
  876POPC   C2B14240  28.590  32.796   8.362
  876POPC   C3B14241  28.505  32.619   7.935
  876POPC   C4B14242  28.817  32.560   7.608
  877POPC   NC314243  14.121  10.037   9.414
  877POPC   PO414244  14.589  10.538   9.695
  877POPC   GL114245  14.532  10.504   9.245
  877POPC   GL214246  14.719  10.226   9.121
  877POPC   C1A14247  14.645  10.654   8.803
  877POPC   D2A14248  14.588  10.776   8.330
  877POPC   C3A14249  14.199  10.680   8.117
  877POPC   C4A14250  14.116  10.514   7.712
  877POPC   C1B14251  14.361  10.229   8.817
  877POPC   C2B14252  14.176  10.244   8.412
  877POPC   C3B14253  14.347  10.169   8.030
  877POPC   C4B14254  14.693  10.388   7.858
  878POPC   NC314255   4.762  20.917   9.592
  878POPC   PO414256   5.306  20.541   9.280
  878POPC   GL114257   5.102  20.806   9.039
  878POPC   GL214258   4.758  20.851   9.086
  878POPC   C1A14259   5.051  20.576   8.663
  878POPC   D2A14260   5.124  20.694   8.258
  878POPC   C3A14261   4.990  20.435   7.914
  878POPC   C4A14262   5.172  20.282   7.526
  878POPC   C1B14263   4.785  21.014   8.633
  878POPC   C2B14264   4.756  21.024   8.181
  878POPC   C3B14265   5.082  20.937   7.818
  878POPC   C4B14266   4.951  20.733   7.438
  879POPC   NC314267  29.447  38.489   9.390
  879POPC   PO414268  28.789  38.263   9.472
  879POPC   GL114269  28.921  38.111   9.067
  879POPC   GL214270  29.132  38.400   8.977
  879POPC   C1A14271  29.094  38.038   8.625
  879POPC   D2A14272  29.306  38.366   8.356
  879POPC   C3A14273  29.148  38.555   7.947
  879POPC   C4A14274  29.026  38.417   7.536
  879POPC   C1B14275  29.102  38.779   8.699
  879POPC   C2B14276  29.275  38.921   8.309
  879POPC   C3B14277  29.502  38.951   7.918
  879POPC   C4B14278  29.467  38.796   7.519
  880POPC   NC314279  43.198   1.509   9.653
  880POPC   PO414280  43.424   0.817   9.590
  880POPC   GL114281  43.320   1.160   9.305
  880POPC   GL214282  42.981   1.171   9.176
  880POPC   C1A14283  43.390   1.203   8.871
  880POPC   D2A14284  43.207   0.963   8.538
  880POPC   C3A14285  43.113   1.130   8.148
  880POPC   C4A14286  43.308   1.315   7.774
  880POPC   C1B14287  42.896   1.309   8.742
  880POPC   C2B14288  42.680   1.439   8.407
  880POPC   C3B14289  42.596   1.192   8.091
  880POPC   C4B14290  42.804   1.094   7.721
  881POPC   NC314291  17.010   5.036   9.887
  881POPC   PO414292  16.441   5.328   9.762
  881POPC   GL114293  16.774   5.074   9.353
  881POPC   GL214294  16.896   5.230   9.098
  881POPC   C1A14295  16.587   4.910   8.846
  881POPC   D2A14296  16.550   5.078   8.391
  881POPC   C3A14297  16.393   4.859   8.018
  881POPC   C4A14298  16.566   4.929   7.625
  881POPC   C1B14299  17.051   5.062   8.708
  881POPC   C2B14300  17.087   4.919   8.300
  881POPC   C3B14301  16.895   5.159   7.976
  881POPC   C4B14302  16.490   5.347   7.903
  882POPC   NC314303  26.414  16.920   9.520
  882POPC   PO414304  26.859  16.270   9.626
  882POPC   GL114305  27.020  16.481   9.188
  882POPC   GL214306  27.059  16.843   9.107
  882POPC   C1A14307  26.982  16.530   8.721
  882POPC   D2A14308  27.005  16.849   8.404
  882POPC   C3A14309  26.781  16.736   8.027
  882POPC   C4A14310  26.615  16.319   7.952
  882POPC   C1B14311  26.674  16.934   8.807
  882POPC   C2B14312  26.493  16.978   8.384
  882POPC   C3B14313  26.485  17.186   7.984
  882POPC   C4B14314  26.463  17.143   7.519
  883POPC   NC314315  18.495  21.523   9.736
  883POPC   PO414316  17.918  21.740   9.596
  883POPC   GL114317  18.084  21.562   9.190
  883POPC   GL214318  18.453  21.508   9.215
  883POPC   C1A14319  17.922  21.441   8.772
  883POPC   D2A14320  17.910  21.707   8.394
  883POPC   C3A14321  18.126  21.538   8.034
  883POPC   C4A14322  18.122  21.431   7.592
  883POPC   C1B14323  18.426  21.406   8.755
  883POPC   C2B14324  18.448  21.126   8.353
  883POPC   C3B14325  18.466  21.164   7.902
  883POPC   C4B14326  18.606  21.579   7.776
  884POPC   NC314327   8.310  33.454   9.827
  884POPC   PO414328   8.660  33.927   9.560
  884POPC   GL114329   8.310  33.857   9.251
  884POPC   GL214330   7.959  33.932   9.271
  884POPC   C1A14331   8.341  33.731   8.799
  884POPC   D2A14332   8.353  33.927   8.379
  884POPC   C3A14333   8.167  33.891   7.959
  884POPC   C4A14334   8.261  33.675   7.576
  884POPC   C1B14335   7.856  33.881   8.817
  884POPC   C2B14336   7.695  33.738   8.407
  884POPC   C3B14337   7.614  33.902   7.957
  884POPC   C4B14338   7.756  33.750   7.546
  885POPC   NC314339  14.646  21.789   9.282
  885POPC   PO414340  14.788  22.275   9.652
  885POPC   GL114341  14.472  22.269   9.255
  885POPC   GL214342  14.151  22.060   9.182
  885POPC   C1A14343  14.446  22.262   8.782
  885POPC   D2A14344  14.520  22.449   8.363
  885POPC   C3A14345  14.383  22.206   8.009
  885POPC   C4A14346  14.523  22.340   7.608
  885POPC   C1B14347  14.176  21.834   8.815
  885POPC   C2B14348  14.156  21.959   8.412
  885POPC   C3B14349  13.936  21.832   8.071
  885POPC   C4B14350  14.113  21.828   7.686
  886POPC   NC314351  30.204   3.134   9.532
  886POPC   PO414352  29.659   2.768   9.369
  886POPC   GL114353  29.788   2.616   9.019
  886POPC   GL214354  30.092   2.508   9.204
  886POPC   C1A14355  29.675   2.766   8.613
  886POPC   D2A14356  29.933   3.084   8.442
  886POPC   C3A14357  30.173   2.939   8.092
  886POPC   C4A14358  29.939   2.986   7.717
  886POPC   C1B14359  30.187   2.414   8.784
  886POPC   C2B14360  29.944   2.335   8.425
  886POPC   C3B14361  29.877   2.517   8.035
  886POPC   C4B14362  30.094   2.429   7.674
  887POPC   NC314363   0.064  22.967   9.491
  887POPC   PO414364  44.403  23.048   9.420
  887POPC   GL114365  44.650  22.933   9.116
  887POPC   GL214366  44.404  22.682   9.031
  887POPC   C1A14367  44.887  22.630   8.906
  887POPC   D2A14368   0.121  22.635   8.519
  887POPC   C3A14369  44.883  22.844   8.214
  887POPC   C4A14370  44.641  22.707   7.879
  887POPC   C1B14371  44.516  22.871   8.612
  887POPC   C2B14372  44.370  23.006   8.193
  887POPC   C3B14373  44.639  23.241   7.917
  887POPC   C4B14374   0.017  23.210   7.691
  888POPC   NC314375  31.777  37.113   9.492
  888POPC   PO414376  32.242  36.592   9.525
  888POPC   GL114377  32.390  36.817   9.157
  888POPC   GL214378  32.062  36.933   9.088
  888POPC   C1A14379  32.431  36.700   8.738
  888POPC   D2A14380  32.148  36.870   8.476
  888POPC   C3A14381  32.048  36.741   8.064
  888POPC   C4A14382  32.288  36.797   7.707
  888POPC   C1B14383  32.291  37.232   8.842
  888POPC   C2B14384  32.247  37.422   8.455
  888POPC   C3B14385  32.153  37.247   8.084
  888POPC   C4B14386  32.357  37.300   7.733
  889POPC   NC314387   0.427   0.161   9.434
  889POPC   PO414388   0.685   0.756   9.548
  889POPC   GL114389   0.593   0.678   9.133
  889POPC   GL214390   0.705   0.989   9.039
  889POPC   C1A14391   0.457   0.488   8.737
  889POPC   D2A14392   0.623   0.270   8.363
  889POPC   C3A14393   0.422   0.354   7.970
  889POPC   C4A14394   0.519   0.374   7.526
  889POPC   C1B14395   0.672   0.927   8.606
  889POPC   C2B14396   0.504   0.777   8.247
  889POPC   C3B14397   0.537   0.850   7.803
  889POPC   C4B14398   0.427   0.832   7.335
  890POPC   NC314399  37.511  20.766   9.516
  890POPC   PO414400  38.142  20.347   9.536
  890POPC   GL114401  37.951  20.529   9.141
  890POPC   GL214402  37.797  20.859   9.104
  890POPC   C1A14403  37.786  20.531   8.712
  890POPC   D2A14404  37.858  20.853   8.402
  890POPC   C3A14405  37.959  20.732   7.982
  890POPC   C4A14406  37.730  20.469   7.748
  890POPC   C1B14407  37.386  20.850   8.871
  890POPC   C2B14408  37.363  21.020   8.454
  890POPC   C3B14409  37.425  20.772   8.079
  890POPC   C4B14410  37.181  20.760   7.702
  891POPC   NC314411   7.159  30.092   9.465
  891POPC   PO414412   7.731  30.568   9.340
  891POPC   GL114413   7.515  30.810   9.052
  891POPC   GL214414   7.169  30.710   9.120
  891POPC   C1A14415   7.489  30.742   8.628
  891POPC   D2A14416   7.740  30.391   8.432
  891POPC   C3A14417   7.746  30.400   7.985
  891POPC   C4A14418   7.515  30.694   7.781
  891POPC   C1B14419   7.130  31.053   8.820
  891POPC   C2B14420   7.243  31.149   8.400
  891POPC   C3B14421   7.138  30.995   8.007
  891POPC   C4B14422   6.998  30.796   7.648
  892POPC   NC314423   7.503  30.915   9.549
  892POPC   PO414424   7.333  31.546   9.552
  892POPC   GL114425   7.322  31.364   9.167
  892POPC   GL214426   7.671  31.277   9.222
  892POPC   C1A14427   7.232  31.554   8.723
  892POPC   D2A14428   7.325  31.641   8.252
  892POPC   C3A14429   7.090  31.494   7.875
  892POPC   C4A14430   6.900  31.763   7.548
  892POPC   C1B14431   7.728  31.527   8.880
  892POPC   C2B14432   7.709  31.385   8.447
  892POPC   C3B14433   7.614  31.224   8.012
  892POPC   C4B14434   7.859  31.063   7.659
  893POPC   NC314435  13.867  36.013   9.815
  893POPC   PO414436  13.583  36.523   9.430
  893POPC   GL114437  13.640  36.170   9.120
  893POPC   GL214438  13.885  35.902   9.179
  893POPC   C1A14439  13.503  36.157   8.672
  893POPC   D2A14440  13.557  36.461   8.303
  893POPC   C3A14441  13.443  36.335   7.872
  893POPC   C4A14442  13.723  36.154   7.540
  893POPC   C1B14443  14.104  35.822   8.786
  893POPC   C2B14444  13.941  35.750   8.378
  893POPC   C3B14445  13.749  35.926   8.036
  893POPC   C4B14446  14.078  35.770   7.759
  894POPC   NC314447  43.208  42.393   9.530
  894POPC   PO414448  42.896  41.797   9.371
  894POPC   GL114449  42.968  42.181   9.138
  894POPC   GL214450  43.205  42.061   8.943
  894POPC   C1A14451  42.936  42.446   8.738
  894POPC   D2A14452  43.101  42.217   8.385
  894POPC   C3A14453  43.174  42.379   7.969
  894POPC   C4A14454  43.107  42.628   7.567
  894POPC   C1B14455  42.825  41.947   8.717
  894POPC   C2B14456  42.809  41.778   8.321
  894POPC   C3B14457  42.814  42.030   7.983
  894POPC   C4B14458  42.947  42.134   7.559
  895POPC   NC314459   7.799  17.616   9.486
  895POPC   PO414460   8.427  17.331   9.494
  895POPC   GL114461   8.211  17.523   9.190
  895POPC   GL214462   7.975  17.268   9.149
  895POPC   C1A14463   8.101  17.697   8.825
  895POPC   D2A14464   8.173  17.824   8.413
  895POPC   C3A14465   7.972  17.685   8.048
  895POPC   C4A14466   8.237  17.487   7.767
  895POPC   C1B14467   7.859  17.258   8.751
  895POPC   C2B14468   8.034  17.320   8.372
  895POPC   C3B14469   7.913  17.149   7.966
  895POPC   C4B14470   7.775  17.279   7.517
  896POPC   NC314471   9.837  31.204   9.441
  896POPC   PO414472   9.262  31.644   9.362
  896POPC   GL114473   9.559  31.505   9.099
  896POPC   GL214474   9.841  31.693   9.183
  896POPC   C1A14475   9.535  31.596   8.670
  896POPC   D2A14476   9.239  31.613   8.357
  896POPC   C3A14477   9.431  31.807   8.021
  896POPC   C4A14478   9.623  31.567   7.714
  896POPC   C1B14479   9.979  31.398   8.817
  896POPC   C2B14480  10.107  31.321   8.396
  896POPC   C3B14481  10.019  31.326   7.955
  896POPC   C4B14482  10.104  31.536   7.551
  897POPC   NC314483   0.673   7.251   9.619
  897POPC   PO414484   0.170   6.867   9.482
  897POPC   GL114485   0.392   7.208   9.202
  897POPC   GL214486   0.217   7.505   9.091
  897POPC   C1A14487   0.624   7.356   8.827
  897POPC   D2A14488   0.578   7.199   8.411
  897POPC   C3A14489   0.445   7.417   8.030
  897POPC   C4A14490   0.549   7.551   7.630
  897POPC   C1B14491   0.262   7.703   8.716
  897POPC   C2B14492   0.116   7.719   8.296
  897POPC   C3B14493   0.286   7.912   7.914
  897POPC   C4B14494   0.315   8.065   7.483
  898POPC   NC314495  26.055  12.788   9.624
  898POPC   PO414496  25.762  13.386   9.486
  898POPC   GL114497  25.995  13.114   9.165
  898POPC   GL214498  26.180  12.762   9.146
  898POPC   C1A14499  25.807  12.888   8.804
  898POPC   D2A14500  25.823  12.580   8.508
  898POPC   C3A14501  25.961  12.797   8.128
  898POPC   C4A14502  25.975  12.667   7.709
  898POPC   C1B14503  26.269  12.643   8.739
  898POPC   C2B14504  26.450  12.684   8.321
  898POPC   C3B14505  26.393  12.477   7.917
  898POPC   C4B14506  26.310  12.343   7.462
  899POPC   NC314507  19.050  26.206   9.644
  899POPC   PO414508  19.543  25.836   9.417
  899POPC   GL114509  19.176  26.027   9.171
  899POPC   GL214510  19.315  25.822   8.942
  899POPC   C1A14511  18.892  26.017   8.756
  899POPC   D2A14512  18.608  26.210   8.449
  899POPC   C3A14513  18.749  26.299   8.019
  899POPC   C4A14514  18.890  26.185   7.607
  899POPC   C1B14515  19.345  26.255   8.747
  899POPC   C2B14516  19.141  26.396   8.381
  899POPC   C3B14517  19.326  26.249   8.003
  899POPC   C4B14518  19.457  25.986   7.693
  900POPC   NC314519  27.861  42.595   9.620
  900POPC   PO414520  27.365  42.101   9.796
  900POPC   GL114521  27.496  42.294   9.383
  900POPC   GL214522  27.640  42.054   9.144
  900POPC   C1A14523  27.601  42.541   8.991
  900POPC   D2A14524  27.598  42.569   8.526
  900POPC   C3A14525  27.881  42.447   8.203
  900POPC   C4A14526  27.817  42.453   7.746
  900POPC   C1B14527  27.459  42.111   8.714
  900POPC   C2B14528  27.543  42.076   8.268
  900POPC   C3B14529  27.510  42.022   7.815
  900POPC   C4B14530  27.807  41.991   7.507
  901POPC   NC314531  35.220  34.924   9.429
  901POPC   PO414532  35.118  35.636   9.460
  901POPC   GL114533  35.353  35.343   9.210
  901POPC   GL214534  35.680  35.416   9.157
  901POPC   C1A14535  35.294  35.296   8.795
  901POPC   D2A14536  35.205  35.614   8.486
  901POPC   C3A14537  35.144  35.398   8.126
  901POPC   C4A14538  35.186  35.533   7.735
  901POPC   C1B14539  35.781  35.212   8.783
  901POPC   C2B14540  35.591  35.275   8.382
  901POPC   C3B14541  35.655  35.466   8.020
  901POPC   C4B14542  35.664  35.368   7.597
  902POPC   NC314543   8.506  44.120   9.450
  902POPC   PO414544   7.836  44.242   9.401
  902POPC   GL114545   8.073  44.061   9.066
  902POPC   GL214546   8.224  43.763   8.997
  902POPC   C1A14547   8.033  44.023   8.611
  902POPC   D2A14548   8.156  43.741   8.272
  902POPC   C3A14549   7.922  43.822   7.915
  902POPC   C4A14550   7.978  43.845   7.490
  902POPC   C1B14551   8.539  43.914   8.758
  902POPC   C2B14552   8.622  43.916   8.354
  902POPC   C3B14553   8.530  44.068   7.987
  902POPC   C4B14554   8.478  43.871   7.632
  903POPC   NC314555  29.909  10.980   9.510
  903POPC   PO414556  29.703  11.574   9.288
  903POPC   GL114557  29.819  11.186   9.054
  903POPC   GL214558  30.095  10.944   8.964
  903POPC   C1A14559  29.617  11.215   8.693
  903POPC   D2A14560  29.710  11.392   8.315
  903POPC   C3A14561  29.980  11.178   8.054
  903POPC   C4A14562  29.930  11.396   7.687
  903POPC   C1B14563  30.117  11.120   8.575
  903POPC   C2B14564  30.191  11.532   8.394
  903POPC   C3B14565  30.316  11.585   7.997
  903POPC   C4B14566  30.422  11.225   7.719
  904POPC   NC314567  25.667  21.496   9.450
  904POPC   PO414568  25.059  21.160   9.480
  904POPC   GL114569  25.104  21.354   9.108
  904POPC   GL214570  25.204  21.690   9.194
  904POPC   C1A14571  25.405  21.364   8.770
  904POPC   D2A14572  25.584  21.373   8.354
  904POPC   C3A14573  25.234  21.324   8.075
  904POPC   C4A14574  25.234  21.108   7.680
  904POPC   C1B14575  25.074  21.762   8.742
  904POPC   C2B14576  25.327  21.839   8.403
  904POPC   C3B14577  25.510  21.768   8.019
  904POPC   C4B14578  25.243  21.660   7.699
  905POPC   NC314579  16.492  19.075   9.581
  905POPC   PO414580  16.940  18.661   9.760
  905POPC   GL114581  16.918  18.830   9.306
  905POPC   GL214582  16.827  19.185   9.185
  905POPC   C1A14583  16.769  18.772   8.880
  905POPC   D2A14584  16.640  19.113   8.631
  905POPC   C3A14585  16.673  19.046   8.192
  905POPC   C4A14586  16.732  19.091   7.739
  905POPC   C1B14587  16.990  19.458   8.829
  905POPC   C2B14588  17.073  19.293   8.427
  905POPC   C3B14589  16.952  19.437   8.034
  905POPC   C4B14590  17.147  19.513   7.664
  906POPC   NC314591  30.332  36.801   9.514
  906POPC   PO414592  29.797  37.184   9.637
  906POPC   GL114593  29.860  36.959   9.276
  906POPC   GL214594  29.647  37.175   9.107
  906POPC   C1A14595  29.858  36.793   8.843
  906POPC   D2A14596  29.775  36.968   8.436
  906POPC   C3A14597  29.885  36.719   8.063
  906POPC   C4A14598  30.158  36.733   7.692
  906POPC   C1B14599  29.421  37.179   8.766
  906POPC   C2B14600  29.293  37.063   8.351
  906POPC   C3B14601  29.529  37.084   7.982
  906POPC   C4B14602  29.861  37.195   7.671
  907POPC   NC314603   0.310  20.419   9.579
  907POPC   PO414604   0.139  21.003   9.519
  907POPC   GL114605   0.320  20.760   9.186
  907POPC   GL214606   0.598  20.507   9.174
  907POPC   C1A14607   0.343  20.803   8.769
  907POPC   D2A14608   0.529  20.854   8.393
  907POPC   C3A14609   0.349  20.731   8.040
  907POPC   C4A14610   0.527  20.516   7.700
  907POPC   C1B14611   0.793  20.214   8.876
  907POPC   C2B14612   0.668  20.291   8.444
  907POPC   C3B14613   0.855  20.289   8.028
  907POPC   C4B14614   0.964  20.261   7.579
  908POPC   NC314615  33.717  11.245   9.539
  908POPC   PO414616  34.071  11.727   9.402
  908POPC   GL114617  33.859  11.517   9.117
  908POPC   GL214618  33.907  11.162   9.084
  908POPC   C1A14619  33.845  11.598   8.692
  908POPC   D2A14620  34.161  11.606   8.396
  908POPC   C3A14621  33.999  11.382   8.118
  908POPC   C4A14622  33.846  11.481   7.726
  908POPC   C1B14623  34.065  11.072   8.711
  908POPC   C2B14624  34.109  10.924   8.319
  908POPC   C3B14625  34.248  10.770   7.953
  908POPC   C4B14626  34.243  10.804   7.456
  909POPC   NC314627   0.900  44.523   9.587
  909POPC   PO414628   0.263  44.349   9.609
  909POPC   GL114629   0.355  44.603   9.219
  909POPC   GL214630   0.659  44.706   9.170
  909POPC   C1A14631   0.437  44.569   8.718
  909POPC   D2A14632   0.575  44.285   8.371
  909POPC   C3A14633   0.514  44.456   7.961
  909POPC   C4A14634   0.059  44.558   7.832
  909POPC   C1B14635   0.642   0.015   8.839
  909POPC   C2B14636   0.235   0.029   8.600
  909POPC   C3B14637   0.277  44.844   8.202
  909POPC   C4B14638   0.412  44.900   7.734
  910POPC   NC314639   8.398   2.616   9.500
  910POPC   PO414640   8.112   3.195   9.492
  910POPC   GL114641   8.124   2.896   9.157
  910POPC   GL214642   8.017   2.531   9.125
  910POPC   C1A14643   8.314   2.803   8.781
  910POPC   D2A14644   8.245   2.968   8.386
  910POPC   C3A14645   8.539   2.961   8.043
  910POPC   C4A14646   8.420   2.993   7.619
  910POPC   C1B14647   8.249   2.274   8.808
  910POPC   C2B14648   8.187   2.446   8.413
  910POPC   C3B14649   8.114   2.662   8.008
  910POPC   C4B14650   8.117   2.597   7.601
  911POPC   NC314651  35.008   5.371   9.449
  911POPC   PO414652  35.624   5.105   9.227
  911POPC   GL114653  35.251   5.221   9.035
  911POPC   GL214654  35.085   4.912   9.208
  911POPC   C1A14655  35.208   5.310   8.575
  911POPC   D2A14656  35.442   5.025   8.348
  911POPC   C3A14657  35.596   5.164   7.987
  911POPC   C4A14658  35.678   4.940   7.649
  911POPC   C1B14659  34.992   4.875   8.764
  911POPC   C2B14660  34.962   4.833   8.329
  911POPC   C3B14661  35.193   4.792   7.935
  911POPC   C4B14662  34.965   4.589   7.598
  912POPC   NC314663  18.196   3.915   9.467
  912POPC   PO414664  18.408   4.631   9.538
  912POPC   GL114665  18.349   4.357   9.214
  912POPC   GL214666  18.035   4.307   9.056
  912POPC   C1A14667  18.509   4.131   8.872
  912POPC   D2A14668  18.596   3.996   8.465
  912POPC   C3A14669  18.291   4.130   8.151
  912POPC   C4A14670  18.341   4.410   7.834
  912POPC   C1B14671  18.136   4.371   8.595
  912POPC   C2B14672  17.955   4.536   8.190
  912POPC   C3B14673  18.008   4.778   7.790
  912POPC   C4B14674  18.078   4.502   7.390
  913POPC   NC314675  23.178  14.391   9.537
  913POPC   PO414676  22.552  14.714   9.610
  913POPC   GL114677  22.827  14.539   9.202
  913POPC   GL214678  23.020  14.193   9.110
  913POPC   C1A14679  23.132  14.602   8.832
  913POPC   D2A14680  23.100  14.484   8.365
  913POPC   C3A14681  22.790  14.674   8.051
  913POPC   C4A14682  22.747  14.546   7.608
  913POPC   C1B14683  22.749  14.262   8.763
  913POPC   C2B14684  22.674  14.175   8.358
  913POPC   C3B14685  22.847  14.183   7.979
  913POPC   C4B14686  22.625  14.037   7.679
  914POPC   NC314687  10.692  31.266   9.487
  914POPC   PO414688  10.095  31.564   9.597
  914POPC   GL114689  10.338  31.545   9.138
  914POPC   GL214690  10.683  31.589   9.103
  914POPC   C1A14691  10.414  31.649   8.670
  914POPC   D2A14692  10.596  31.408   8.284
  914POPC   C3A14693  10.495  31.560   7.901
  914POPC   C4A14694  10.470  31.978   7.854
  914POPC   C1B14695  10.866  31.410   8.718
  914POPC   C2B14696  11.100  31.529   8.337
  914POPC   C3B14697  10.993  31.725   7.953
  914POPC   C4B14698  10.923  31.572   7.560
  915POPC   NC314699   6.320  21.128   9.526
  915POPC   PO414700   5.728  21.474   9.385
  915POPC   GL114701   5.833  21.409   9.018
  915POPC   GL214702   6.191  21.443   9.117
  915POPC   C1A14703   6.000  21.575   8.672
  915POPC   D2A14704   6.036  21.731   8.312
  915POPC   C3A14705   5.980  21.510   7.992
  915POPC   C4A14706   5.815  21.547   7.598
  915POPC   C1B14707   6.391  21.252   8.799
  915POPC   C2B14708   6.290  21.225   8.376
  915POPC   C3B14709   6.413  21.072   8.009
  915POPC   C4B14710   6.049  21.036   7.796
  916POPC   NC314711  30.868  12.929   9.877
  916POPC   PO414712  30.970  12.811   9.233
  916POPC   GL114713  30.627  12.713   8.968
  916POPC   GL214714  30.659  13.058   8.877
  916POPC   C1A14715  30.602  12.413   8.641
  916POPC   D2A14716  30.606  12.449   8.209
  916POPC   C3A14717  30.947  12.660   8.112
  916POPC   C4A14718  31.199  12.631   7.748
  916POPC   C1B14719  30.575  12.900   8.501
  916POPC   C2B14720  30.219  12.735   8.369
  916POPC   C3B14721  30.311  12.819   7.955
  916POPC   C4B14722  30.691  12.783   7.696
  917POPC   NC314723  42.646   7.682   9.552
  917POPC   PO414724  41.942   7.703   9.547
  917POPC   GL114725  42.214   7.413   9.265
  917POPC   GL214726  42.507   7.464   9.115
  917POPC   C1A14727  42.105   7.328   8.815
  917POPC   D2A14728  42.286   7.293   8.437
  917POPC   C3A14729  42.094   7.388   8.026
  917POPC   C4A14730  42.198   7.313   7.575
  917POPC   C1B14731  42.722   7.193   8.851
  917POPC   C2B14732  42.823   7.266   8.453
  917POPC   C3B14733  42.632   7.504   8.143
  917POPC   C4B14734  42.654   7.423   7.746
  918POPC   NC314735  11.946  12.520   9.596
  918POPC   PO414736  12.007  13.208   9.766
  918POPC   GL114737  11.784  12.876   9.311
  918POPC   GL214738  12.163  12.758   9.222
  918POPC   C1A14739  11.897  12.815   8.808
  918POPC   D2A14740  11.850  12.609   8.396
  918POPC   C3A14741  11.807  12.823   7.995
  918POPC   C4A14742  12.182  13.034   7.829
  918POPC   C1B14743  12.369  12.566   8.889
  918POPC   C2B14744  12.342  12.449   8.488
  918POPC   C3B14745  12.278  12.589   8.101
  918POPC   C4B14746  12.204  12.505   7.693
  919POPC   NC314747   0.518   8.423   9.418
  919POPC   PO414748   0.534   7.693   9.455
  919POPC   GL114749   0.508   7.976   9.152
  919POPC   GL214750   0.878   8.045   9.158
  919POPC   C1A14751   0.421   8.191   8.748
  919POPC   D2A14752   0.117   8.242   8.402
  919POPC   C3A14753   0.291   8.441   8.032
  919POPC   C4A14754   0.683   8.392   7.809
  919POPC   C1B14755   0.791   7.839   8.761
  919POPC   C2B14756   0.613   7.796   8.344
  919POPC   C3B14757   0.811   7.905   7.942
  919POPC   C4B14758   0.807   7.973   7.483
  920POPC   NC314759  17.995  34.137   9.517
  920POPC   PO414760  18.482  33.643   9.658
  920POPC   GL114761  18.268  33.731   9.273
  920POPC   GL214762  18.320  34.081   9.126
  920POPC   C1A14763  18.294  33.680   8.823
  920POPC   D2A14764  18.379  34.002   8.527
  920POPC   C3A14765  18.543  33.845   8.147
  920POPC   C4A14766  18.455  33.922   7.726
  920POPC   C1B14767  18.012  34.235   8.841
  920POPC   C2B14768  17.927  34.219   8.442
  920POPC   C3B14769  17.991  33.852   8.221
  920POPC   C4B14770  17.929  33.916   7.829
  921POPC   NC314771   6.994  22.631   9.415
  921POPC   PO414772   6.610  23.171   9.454
  921POPC   GL114773   6.822  23.060   9.088
  921POPC   GL214774   6.575  22.815   9.055
  921POPC   C1A14775   6.685  23.084   8.641
  921POPC   D2A14776   6.423  23.000   8.280
  921POPC   C3A14777   6.661  23.146   7.944
  921POPC   C4A14778   6.831  22.739   7.877
  921POPC   C1B14779   6.229  22.835   8.763
  921POPC   C2B14780   6.137  22.577   8.418
  921POPC   C3B14781   6.347  22.552   8.030
  921POPC   C4B14782   6.292  22.863   7.782
  922POPC   NC314783  33.359  24.397   9.676
  922POPC   PO414784  32.677  24.537   9.535
  922POPC   GL114785  33.047  24.370   9.262
  922POPC   GL214786  33.135  24.696   9.193
  922POPC   C1A14787  33.282  24.224   8.858
  922POPC   D2A14788  33.277  24.359   8.414
  922POPC   C3A14789  32.949  24.250   8.104
  922POPC   C4A14790  33.097  24.283   7.679
  922POPC   C1B14791  32.927  24.573   8.776
  922POPC   C2B14792  32.855  24.699   8.341
  922POPC   C3B14793  33.101  24.704   7.934
  922POPC   C4B14794  33.402  24.709   7.575
  923POPC   NC314795   9.251  13.070   9.485
  923POPC   PO414796   8.832  12.495   9.471
  923POPC   GL114797   8.792  12.846   9.227
  923POPC   GL214798   9.092  12.930   9.030
  923POPC   C1A14799   8.619  12.890   8.823
  923POPC   D2A14800   8.974  12.895   8.521
  923POPC   C3A14801   8.765  13.011   8.148
  923POPC   C4A14802   8.836  12.874   7.760
  923POPC   C1B14803   9.351  13.214   8.783
  923POPC   C2B14804   9.544  13.144   8.394
  923POPC   C3B14805   9.262  13.015   8.061
  923POPC   C4B14806   9.187  13.226   7.650
  924POPC   NC314807  30.001  33.509   9.664
  924POPC   PO414808  29.523  33.885   9.577
  924POPC   GL114809  29.788  34.058   9.236
  924POPC   GL214810  30.088  33.871   9.262
  924POPC   C1A14811  29.734  34.236   8.836
  924POPC   D2A14812  29.881  34.135   8.420
  924POPC   C3A14813  29.682  34.100   8.006
  924POPC   C4A14814  29.812  33.698   7.805
  924POPC   C1B14815  30.259  34.176   8.952
  924POPC   C2B14816  30.378  34.170   8.470
  924POPC   C3B14817  30.204  34.211   8.031
  924POPC   C4B14818  30.158  34.037   7.620
  925POPC   NC314819  11.684   2.066   9.571
  925POPC   PO414820  12.329   2.242   9.404
  925POPC   GL114821  12.229   2.090   9.042
  925POPC   GL214822  11.926   1.938   9.128
  925POPC   C1A14823  12.308   2.183   8.627
  925POPC   D2A14824  12.136   2.162   8.231
  925POPC   C3A14825  12.126   1.790   7.977
  925POPC   C4A14826  12.246   1.632   7.551
  925POPC   C1B14827  11.886   1.857   8.701
  925POPC   C2B14828  11.637   2.049   8.385
  925POPC   C3B14829  11.685   2.152   7.952
  925POPC   C4B14830  11.745   1.821   7.642
  926POPC   NC314831  37.927  29.638   9.389
  926POPC   PO414832  37.389  30.050   9.529
  926POPC   GL114833  37.642  30.015   9.175
  926POPC   GL214834  37.482  29.697   9.101
  926POPC   C1A14835  37.939  29.936   8.819
  926POPC   D2A14836  37.924  29.778   8.398
  926POPC   C3A14837  37.813  30.107   8.121
  926POPC   C4A14838  37.658  30.108   7.715
  926POPC   C1B14839  37.454  29.861   8.693
  926POPC   C2B14840  37.340  30.018   8.302
  926POPC   C3B14841  37.480  29.745   8.017
  926POPC   C4B14842  37.276  29.518   7.770
  927POPC   NC314843  17.342  18.655   9.560
  927POPC   PO414844  17.832  19.091   9.552
  927POPC   GL114845  17.617  18.923   9.217
  927POPC   GL214846  17.344  19.146   9.280
  927POPC   C1A14847  17.646  18.756   8.804
  927POPC   D2A14848  17.526  18.993   8.429
  927POPC   C3A14849  17.755  18.931   8.056
  927POPC   C4A14850  17.709  18.805   7.674
  927POPC   C1B14851  17.208  18.993   8.871
  927POPC   C2B14852  17.095  18.747   8.499
  927POPC   C3B14853  17.132  18.873   8.096
  927POPC   C4B14854  17.256  19.024   7.741
  928POPC   NC314855  30.692   9.720   9.546
  928POPC   PO414856  30.801  10.366   9.726
  928POPC   GL114857  30.595  10.117   9.277
  928POPC   GL214858  30.805   9.814   9.064
  928POPC   C1A14859  30.449  10.057   8.826
  928POPC   D2A14860  30.632   9.868   8.440
  928POPC   C3A14861  30.402   9.837   8.062
  928POPC   C4A14862  30.553   9.955   7.673
  928POPC   C1B14863  30.617   9.469   8.763
  928POPC   C2B14864  30.519   9.393   8.295
  928POPC   C3B14865  30.691   9.447   7.855
  928POPC   C4B14866  30.702   9.548   7.401
  929POPC   NC314867   7.640  25.269   9.629
  929POPC   PO414868   7.194  24.908   9.574
  929POPC   GL114869   7.478  24.986   9.198
  929POPC   GL214870   7.567  25.344   9.105
  929POPC   C1A14871   7.460  25.015   8.733
  929POPC   D2A14872   7.657  25.088   8.354
  929POPC   C3A14873   7.443  25.125   7.956
  929POPC   C4A14874   7.061  25.341   7.795
  929POPC   C1B14875   7.671  25.504   8.665
  929POPC   C2B14876   7.847  25.544   8.240
  929POPC   C3B14877   7.775  25.522   7.804
  929POPC   C4B14878   7.565  25.308   7.473
  930POPC   NC314879  43.719  11.581   9.583
  930POPC   PO414880  44.304  11.405   9.790
  930POPC   GL114881  44.119  11.436   9.292
  930POPC   GL214882  44.263  11.145   9.097
  930POPC   C1A14883  43.752  11.492   8.926
  930POPC   D2A14884  43.545  11.370   8.468
  930POPC   C3A14885  43.659  11.385   7.971
  930POPC   C4A14886  43.682  11.470   7.466
  930POPC   C1B14887  44.261  11.477   8.818
  930POPC   C2B14888  44.017  11.534   8.493
  930POPC   C3B14889  44.051  11.656   8.135
  930POPC   C4B14890  44.124  11.481   7.749
  931POPC   NC314891   0.030   3.077   9.514
  931POPC   PO414892  44.310   2.856   9.625
  931POPC   GL114893  44.490   2.762   9.209
  931POPC   GL214894  44.848   2.686   9.132
  931POPC   C1A14895  44.472   2.594   8.786
  931POPC   D2A14896  44.529   2.858   8.426
  931POPC   C3A14897  44.706   2.710   8.087
  931POPC   C4A14898  44.486   2.642   7.755
  931POPC   C1B14899  44.804   3.007   8.832
  931POPC   C2B14900  44.911   3.194   8.419
  931POPC   C3B14901  44.700   3.213   8.030
  931POPC   C4B14902  44.864   2.993   7.694
  932POPC   NC314903  44.134  36.571   9.636
  932POPC   PO414904  43.576  36.913   9.457
  932POPC   GL114905  44.007  36.914   9.235
  932POPC   GL214906  44.001  37.220   9.055
  932POPC   C1A14907  44.228  36.851   8.796
  932POPC   D2A14908  44.021  36.724   8.428
  932POPC   C3A14909  44.133  36.842   8.038
  932POPC   C4A14910  44.103  36.927   7.626
  932POPC   C1B14911  43.715  36.947   8.783
  932POPC   C2B14912  43.509  36.781   8.356
  932POPC   C3B14913  43.646  36.801   7.902
  932POPC   C4B14914  43.636  37.090   7.518
  933POPC   NC314915  25.503   9.083   9.504
  933POPC   PO414916  24.853   8.818   9.593
  933POPC   GL114917  25.149   8.898   9.197
  933POPC   GL214918  25.264   9.230   9.068
  933POPC   C1A14919  25.223   8.720   8.801
  933POPC   D2A14920  25.236   8.973   8.443
  933POPC   C3A14921  25.153   8.757   8.052
  933POPC   C4A14922  25.341   8.806   7.654
  933POPC   C1B14923  25.186   9.450   8.672
  933POPC   C2B14924  25.233   9.575   8.241
  933POPC   C3B14925  25.399   9.227   7.993
  933POPC   C4B14926  25.624   9.250   7.608
  934POPC   NC314927  40.270  37.484   9.533
  934POPC   PO414928  39.919  38.061   9.409
  934POPC   GL114929  39.872  37.642   9.195
  934POPC   GL214930  40.175  37.475   9.009
  934POPC   C1A14931  39.716  37.532   8.792
  934POPC   D2A14932  39.974  37.423   8.453
  934POPC   C3A14933  39.784  37.523   8.076
  934POPC   C4A14934  40.053  37.641   7.781
  934POPC   C1B14935  40.162  37.818   8.719
  934POPC   C2B14936  40.290  38.145   8.418
  934POPC   C3B14937  40.357  38.152   7.961
  934POPC   C4B14938  40.467  37.884   7.595
  935POPC   NC314939  41.509  12.226   9.492
  935POPC   PO414940  41.709  11.619   9.437
  935POPC   GL114941  41.738  11.923   9.132
  935POPC   GL214942  41.372  11.940   8.991
  935POPC   C1A14943  41.754  12.135   8.761
  935POPC   D2A14944  41.434  11.977   8.459
  935POPC   C3A14945  41.595  11.786   8.117
  935POPC   C4A14946  41.478  11.840   7.712
  935POPC   C1B14947  41.282  12.347   8.784
  935POPC   C2B14948  41.538  12.471   8.403
  935POPC   C3B14949  41.558  12.316   7.948
  935POPC   C4B14950  41.244  12.268   7.569
  936POPC   NC314951   2.549   2.630   9.616
  936POPC   PO414952   3.228   2.935   9.514
  936POPC   GL114953   2.866   2.855   9.253
  936POPC   GL214954   2.827   2.486   9.198
  936POPC   C1A14955   2.764   2.947   8.834
  936POPC   D2A14956   3.092   3.120   8.574
  936POPC   C3A14957   3.069   3.003   8.156
  936POPC   C4A14958   2.958   3.066   7.736
  936POPC   C1B14959   2.607   2.385   8.810
  936POPC   C2B14960   2.543   2.625   8.435
  936POPC   C3B14961   2.649   2.744   8.018
  936POPC   C4B14962   2.714   2.480   7.655
  937POPC   NC314963  39.938  32.714   9.855
  937POPC   PO414964  40.006  32.173   9.549
  937POPC   GL114965  39.959  32.086   9.165
  937POPC   GL214966  39.885  32.425   9.109
  937POPC   C1A14967  40.226  32.082   8.851
  937POPC   D2A14968  40.222  31.965   8.483
  937POPC   C3A14969  40.407  32.163   8.193
  937POPC   C4A14970  40.072  32.136   7.928
  937POPC   C1B14971  40.087  32.554   8.765
  937POPC   C2B14972  40.045  32.462   8.378
  937POPC   C3B14973  40.196  32.614   8.016
  937POPC   C4B14974  39.825  32.540   7.750
  938POPC   NC314975  41.663  34.500   9.687
  938POPC   PO414976  41.289  34.664   9.177
  938POPC   GL114977  41.433  34.428   8.886
  938POPC   GL214978  41.728  34.357   9.138
  938POPC   C1A14979  41.466  34.742   8.531
  938POPC   D2A14980  41.748  34.909   8.245
  938POPC   C3A14981  41.604  34.706   7.901
  938POPC   C4A14982  41.313  34.607   7.549
  938POPC   C1B14983  41.885  34.633   8.802
  938POPC   C2B14984  41.925  34.457   8.421
  938POPC   C3B14985  41.875  34.211   8.062
  938POPC   C4B14986  41.829  34.338   7.649
  939POPC   NC314987  28.529  40.141   9.464
  939POPC   PO414988  28.305  39.643   9.790
  939POPC   GL114989  28.277  39.828   9.206
  939POPC   GL214990  28.676  39.894   9.063
  939POPC   C1A14991  28.346  40.107   8.753
  939POPC   D2A14992  28.237  40.279   8.284
  939POPC   C3A14993  28.254  40.098   7.833
  939POPC   C4A14994  28.075  40.064   7.389
  939POPC   C1B14995  28.635  39.682   8.697
  939POPC   C2B14996  28.588  39.907   8.330
  939POPC   C3B14997  28.760  39.910   7.942
  939POPC   C4B14998  28.578  39.806   7.544
  940POPC   NC314999  25.182  24.304   9.350
  940POPC   PO415000  25.611  24.668   9.623
  940POPC   GL115001  25.551  24.568   9.155
  940POPC   GL215002  25.278  24.779   9.119
  940POPC   C1A15003  25.376  24.318   8.767
  940POPC   D2A15004  25.442  24.100   8.378
  940POPC   C3A15005  25.129  24.184   8.058
  940POPC   C4A15006  25.132  24.303   7.576
  940POPC   C1B15007  25.355  24.822   8.718
  940POPC   C2B15008  25.406  24.616   8.356
  940POPC   C3B15009  25.549  24.470   8.000
  940POPC   C4B15010  25.511  24.652   7.631
  941POPC   NC315011  44.192  21.714   9.276
  941POPC   PO415012  44.646  22.088   9.557
  941POPC   GL115013  44.617  22.231   9.118
  941POPC   GL215014  44.291  22.139   8.980
  941POPC   C1A15015  44.740  22.221   8.659
  941POPC   D2A15016   0.060  22.158   8.321
  941POPC   C3A15017  44.921  22.269   7.892
  941POPC   C4A15018  44.870  22.067   7.490
  941POPC   C1B15019  44.429  21.810   8.694
  941POPC   C2B15020  44.624  21.832   8.319
  941POPC   C3B15021  44.567  21.898   7.893
  941POPC   C4B15022  44.387  21.950   7.520
  942POPC   NC315023  18.860  19.874   9.585
  942POPC   PO415024  19.395  19.398   9.514
  942POPC   GL115025  19.279  19.603   9.120
  942POPC   GL215026  19.083  19.932   9.113
  942POPC   C1A15027  19.159  19.649   8.670
  942POPC   D2A15028  18.951  19.782   8.283
  942POPC   C3A15029  19.062  19.645   7.868
  942POPC   C4A15030  19.284  19.543   7.486
  942POPC   C1B15031  18.801  20.053   8.753
  942POPC   C2B15032  18.729  20.242   8.323
  942POPC   C3B15033  18.829  20.236   7.850
  942POPC   C4B15034  18.763  20.268   7.344
  943POPC   NC315035  30.376  39.190   9.406
  943POPC   PO415036  30.993  39.312   9.590
  943POPC   GL115037  30.826  39.306   9.202
  943POPC   GL215038  30.811  38.931   9.181
  943POPC   C1A15039  30.676  39.250   8.790
  943POPC   D2A15040  30.744  39.034   8.435
  943POPC   C3A15041  30.694  39.228   8.060
  943POPC   C4A15042  30.452  39.157   7.703
  943POPC   C1B15043  31.088  38.955   8.820
  943POPC   C2B15044  31.256  38.913   8.427
  943POPC   C3B15045  31.037  38.820   8.059
  943POPC   C4B15046  30.911  38.944   7.648
  944POPC   NC315047  44.992   8.986   9.747
  944POPC   PO415048  44.460   9.004   9.436
  944POPC   GL115049  44.638   8.897   9.049
  944POPC   GL215050  44.976   9.033   9.072
  944POPC   C1A15051  44.763   8.911   8.611
  944POPC   D2A15052  44.832   8.664   8.261
  944POPC   C3A15053  44.529   8.875   8.034
  944POPC   C4A15054  44.535   9.247   7.821
  944POPC   C1B15055   0.221   9.106   8.706
  944POPC   C2B15056   0.231   9.004   8.257
  944POPC   C3B15057   0.001   9.017   7.845
  944POPC   C4B15058  44.983   8.877   7.396
  945POPC   NC315059  19.050  42.835   9.524
  945POPC   PO415060  19.498  43.321   9.739
  945POPC   GL115061  19.256  43.350   9.257
  945POPC   GL215062  18.924  43.165   9.169
  945POPC   C1A15063  19.252  43.174   8.779
  945POPC   D2A15064  19.279  43.280   8.343
  945POPC   C3A15065  19.193  43.047   7.968
  945POPC   C4A15066  18.872  43.098   7.653
  945POPC   C1B15067  18.876  42.855   8.859
  945POPC   C2B15068  18.928  42.889   8.432
  945POPC   C3B15069  18.783  42.761   8.044
  945POPC   C4B15070  18.831  42.590   7.637
  946POPC   NC315071  19.368  21.361   9.495
  946POPC   PO415072  19.851  20.910   9.559
  946POPC   GL115073  19.695  21.113   9.138
  946POPC   GL215074  19.707  21.485   9.140
  946POPC   C1A15075  19.744  21.186   8.665
  946POPC   D2A15076  19.809  21.211   8.189
  946POPC   C3A15077  19.865  21.210   7.766
  946POPC   C4A15078  19.596  21.433   7.568
  946POPC   C1B15079  19.736  21.786   8.833
  946POPC   C2B15080  19.858  21.657   8.427
  946POPC   C3B15081  19.989  21.672   7.993
  946POPC   C4B15082  20.035  21.656   7.527
  947POPC   NC315083   9.807   0.072   9.493
  947POPC   PO415084   9.839   0.761   9.576
  947POPC   GL115085   9.720   0.563   9.169
  947POPC   GL215086   9.943   0.296   9.041
  947POPC   C1A15087   9.710   0.658   8.730
  947POPC   D2A15088   9.895   0.636   8.341
  947POPC   C3A15089   9.705   0.777   7.969
  947POPC   C4A15090   9.801   0.676   7.568
  947POPC   C1B15091   9.558   0.161   8.807
  947POPC   C2B15092   9.516   0.057   8.373
  947POPC   C3B15093   9.777   0.225   8.039
  947POPC   C4B15094  10.066   0.073   7.728
  948POPC   NC315095  34.951  39.164   9.279
  948POPC   PO415096  35.247  39.552   9.731
  948POPC   GL115097  35.366  39.611   9.214
  948POPC   GL215098  35.532  39.355   9.010
  948POPC   C1A15099  35.164  39.638   8.768
  948POPC   D2A15100  34.957  39.424   8.424
  948POPC   C3A15101  35.262  39.239   8.169
  948POPC   C4A15102  35.438  39.353   7.790
  948POPC   C1B15103  35.427  39.033   8.690
  948POPC   C2B15104  35.597  38.845   8.311
  948POPC   C3B15105  35.500  38.850   7.872
  948POPC   C4B15106  35.065  38.967   7.769
  949POPC   NC315107  22.725   2.956   9.580
  949POPC   PO415108  22.768   2.325   9.329
  949POPC   GL115109  22.960   2.743   9.169
  949POPC   GL215110  23.328   2.815   9.222
  949POPC   C1A15111  22.792   3.019   8.842
  949POPC   D2A15112  22.572   2.866   8.469
  949POPC   C3A15113  22.831   2.910   8.121
  949POPC   C4A15114  22.790   2.721   7.710
  949POPC   C1B15115  23.284   2.862   8.766
  949POPC   C2B15116  23.398   2.803   8.316
  949POPC   C3B15117  23.278   2.877   7.872
  949POPC   C4B15118  23.182   2.852   7.420
  950POPC   NC315119  42.716  21.910   9.720
  950POPC   PO415120  42.220  22.244   9.431
  950POPC   GL115121  42.555  22.148   9.169
  950POPC   GL215122  42.565  22.487   9.090
  950POPC   C1A15123  42.519  21.964   8.721
  950POPC   D2A15124  42.206  22.041   8.378
  950POPC   C3A15125  42.328  21.913   7.967
  950POPC   C4A15126  42.543  22.032   7.624
  950POPC   C1B15127  42.259  22.429   8.782
  950POPC   C2B15128  42.239  22.571   8.380
  950POPC   C3B15129  42.138  22.421   8.012
  950POPC   C4B15130  42.075  22.245   7.660
  951POPC   NC315131  39.287  17.694   9.528
  951POPC   PO415132  39.790  17.281   9.433
  951POPC   GL115133  39.389  17.248   9.159
  951POPC   GL215134  39.062  17.439   9.155
  951POPC   C1A15135  39.265  17.264   8.700
  951POPC   D2A15136  39.167  17.241   8.251
  951POPC   C3A15137  39.426  17.403   7.939
  951POPC   C4A15138  39.335  17.754   7.745
  951POPC   C1B15139  38.744  17.589   8.901
  951POPC   C2B15140  38.839  17.579   8.468
  951POPC   C3B15141  38.944  17.659   8.031
  951POPC   C4B15142  38.907  17.445   7.597
  952POPC   NC315143  13.303  42.003   9.396
  952POPC   PO415144  12.612  42.149   9.507
  952POPC   GL115145  12.873  42.248   9.173
  952POPC   GL215146  12.630  42.047   9.016
  952POPC   C1A15147  12.923  42.560   8.819
  952POPC   D2A15148  12.688  42.590   8.412
  952POPC   C3A15149  12.943  42.638   7.998
  952POPC   C4A15150  13.316  42.717   7.661
  952POPC   C1B15151  12.798  42.070   8.647
  952POPC   C2B15152  12.700  42.100   8.252
  952POPC   C3B15153  12.636  41.896   7.901
  952POPC   C4B15154  12.656  42.281   7.700
  953POPC   NC315155   2.003   6.479   9.493
  953POPC   PO415156   1.916   7.092   9.403
  953POPC   GL115157   2.064   6.841   9.063
  953POPC   GL215158   2.216   6.476   9.047
  953POPC   C1A15159   1.961   6.928   8.645
  953POPC   D2A15160   1.632   7.005   8.319
  953POPC   C3A15161   1.745   6.799   7.960
  953POPC   C4A15162   1.962   6.828   7.621
  953POPC   C1B15163   1.881   6.422   8.773
  953POPC   C2B15164   1.816   6.527   8.367
  953POPC   C3B15165   2.056   6.410   7.991
  953POPC   C4B15166   1.877   6.328   7.605
  954POPC   NC315167   3.578  21.906   9.449
  954POPC   PO415168   3.357  22.543   9.474
  954POPC   GL115169   3.350  22.270   9.162
  954POPC   GL215170   3.696  22.275   9.086
  954POPC   C1A15171   3.348  22.163   8.727
  954POPC   D2A15172   3.676  22.203   8.421
  954POPC   C3A15173   3.471  22.274   8.029
  954POPC   C4A15174   3.388  22.410   7.628
  954POPC   C1B15175   3.790  21.895   8.837
  954POPC   C2B15176   3.805  21.683   8.434
  954POPC   C3B15177   3.753  21.843   8.028
  954POPC   C4B15178   3.561  21.920   7.642
  955POPC   NC315179  10.422  28.941   9.655
  955POPC   PO415180  11.002  29.188   9.531
  955POPC   GL115181  10.621  29.186   9.220
  955POPC   GL215182  10.307  28.966   9.170
  955POPC   C1A15183  10.594  29.120   8.760
  955POPC   D2A15184  10.732  29.035   8.321
  955POPC   C3A15185  10.601  29.242   7.941
  955POPC   C4A15186  10.836  29.498   7.663
  955POPC   C1B15187  10.125  28.896   8.796
  955POPC   C2B15188  10.235  29.002   8.402
  955POPC   C3B15189  10.136  29.048   7.997
  955POPC   C4B15190  10.223  29.201   7.578
  956POPC   NC315191  19.847  32.085   9.468
  956POPC   PO415192  19.725  32.693   9.681
  956POPC   GL115193  20.036  32.477   9.237
  956POPC   GL215194  19.845  32.192   8.986
  956POPC   C1A15195  20.276  32.315   8.806
  956POPC   D2A15196  20.110  31.994   8.492
  956POPC   C3A15197  20.240  32.048   8.050
  956POPC   C4A15198  20.057  32.273   7.717
  956POPC   C1B15199  19.586  31.942   8.723
  956POPC   C2B15200  19.435  31.879   8.341
  956POPC   C3B15201  19.536  31.970   7.939
  956POPC   C4B15202  19.426  31.741   7.559
  957POPC   NC315203  36.497  28.972   9.591
  957POPC   PO415204  35.833  29.188   9.459
  957POPC   GL115205  36.190  29.003   9.174
  957POPC   GL215206  36.520  28.790   9.116
  957POPC   C1A15207  36.259  29.008   8.737
  957POPC   D2A15208  35.987  29.076   8.406
  957POPC   C3A15209  36.215  29.258   8.085
  957POPC   C4A15210  35.965  29.268   7.704
  957POPC   C1B15211  36.595  28.637   8.646
  957POPC   C2B15212  36.319  28.711   8.266
  957POPC   C3B15213  36.216  28.838   7.820
  957POPC   C4B15214  36.390  28.927   7.415
  958POPC   NC315215   0.475  30.371   9.430
  958POPC   PO415216   0.028  30.819   9.364
  958POPC   GL115217   0.239  30.690   9.047
  958POPC   GL215218   0.530  30.811   9.156
  958POPC   C1A15219   0.207  30.346   8.755
  958POPC   D2A15220   0.450  30.304   8.368
  958POPC   C3A15221   0.389  30.613   8.103
  958POPC   C4A15222   0.172  30.608   7.755
  958POPC   C1B15223   0.650  30.609   8.761
  958POPC   C2B15224   0.877  30.630   8.383
  958POPC   C3B15225   0.867  30.850   8.027
  958POPC   C4B15226   0.616  30.857   7.695
  959POPC   NC315227  24.287   0.341   9.612
  959POPC   PO415228  24.920   0.597   9.485
  959POPC   GL115229  24.593   0.523   9.173
  959POPC   GL215230  24.498   0.151   9.171
  959POPC   C1A15231  24.480   0.732   8.779
  959POPC   D2A15232  24.278   0.941   8.417
  959POPC   C3A15233  24.133   0.617   8.155
  959POPC   C4A15234  24.402   0.503   7.860
  959POPC   C1B15235  24.342   0.212   8.742
  959POPC   C2B15236  24.492   0.201   8.299
  959POPC   C3B15237  24.418   0.018   7.898
  959POPC   C4B15238  23.960   0.155   7.844
  960POPC   NC315239   5.567   8.035   9.474
  960POPC   PO415240   4.869   8.212   9.632
  960POPC   GL115241   5.011   8.161   9.226
  960POPC   GL215242   4.863   7.845   9.195
  960POPC   C1A15243   5.021   8.356   8.813
  960POPC   D2A15244   5.229   8.272   8.412
  960POPC   C3A15245   5.038   8.375   8.005
  960POPC   C4A15246   5.310   8.564   7.685
  960POPC   C1B15247   5.059   7.855   8.802
  960POPC   C2B15248   4.816   7.982   8.465
  960POPC   C3B15249   4.845   7.834   8.070
  960POPC   C4B15250   4.971   7.932   7.700
  961POPC   NC315251  38.609  19.160   9.422
  961POPC   PO415252  38.184  18.642   9.519
  961POPC   GL115253  38.466  18.734   9.136
  961POPC   GL215254  38.771  18.952   9.002
  961POPC   C1A15255  38.329  18.908   8.758
  961POPC   D2A15256  38.232  19.151   8.392
  961POPC   C3A15257  38.383  18.993   8.025
  961POPC   C4A15258  38.410  19.218   7.674
  961POPC   C1B15259  38.612  19.328   8.776
  961POPC   C2B15260  38.701  19.453   8.386
  961POPC   C3B15261  38.821  19.294   8.000
  961POPC   C4B15262  38.852  18.973   7.713
  962POPC   NC315263  30.465  43.440   9.287
  962POPC   PO415264  30.919  43.665   9.760
  962POPC   GL115265  30.919  43.826   9.194
  962POPC   GL215266  30.618  43.827   9.036
  962POPC   C1A15267  30.948  44.175   8.873
  962POPC   D2A15268  31.129  44.393   8.494
  962POPC   C3A15269  31.036  44.212   8.086
  962POPC   C4A15270  30.963  44.212   7.647
  962POPC   C1B15271  30.791  43.689   8.718
  962POPC   C2B15272  30.976  43.875   8.446
  962POPC   C3B15273  30.848  43.737   8.090
  962POPC   C4B15274  30.767  43.721   7.704
  963POPC   NC315275  19.995  25.959   9.431
  963POPC   PO415276  19.569  26.354   9.658
  963POPC   GL115277  19.674  26.239   9.141
  963POPC   GL215278  19.812  25.877   8.979
  963POPC   C1A15279  19.873  26.308   8.696
  963POPC   D2A15280  19.771  26.432   8.252
  963POPC   C3A15281  19.890  26.114   7.923
  963POPC   C4A15282  20.200  25.943   7.604
  963POPC   C1B15283  19.659  25.874   8.570
  963POPC   C2B15284  19.290  25.863   8.378
  963POPC   C3B15285  19.469  25.643   8.061
  963POPC   C4B15286  19.831  25.607   7.760
  964POPC   NC315287   0.997  28.394   9.403
  964POPC   PO415288   0.389  27.974   9.398
  964POPC   GL115289   0.621  28.196   9.110
  964POPC   GL215290   0.646  28.546   9.073
  964POPC   C1A15291   0.436  28.292   8.696
  964POPC   D2A15292   0.500  28.043   8.334
  964POPC   C3A15293   0.277  28.179   7.978
  964POPC   C4A15294   0.473  28.190   7.566
  964POPC   C1B15295   0.799  28.738   8.721
  964POPC   C2B15296   0.766  28.509   8.357
  964POPC   C3B15297   0.662  28.532   7.946
  964POPC   C4B15298   0.326  28.643   7.706
  965POPC   NC315299  32.730  14.362   9.553
  965POPC   PO415300  31.997  14.257   9.523
  965POPC   GL115301  32.268  14.462   9.155
  965POPC   GL215302  32.607  14.311   9.082
  965POPC   C1A15303  32.308  14.341   8.690
  965POPC   D2A15304  32.628  14.219   8.386
  965POPC   C3A15305  32.360  14.147   8.047
  965POPC   C4A15306  32.150  14.340   7.727
  965POPC   C1B15307  32.754  14.575   8.761
  965POPC   C2B15308  32.609  14.742   8.362
  965POPC   C3B15309  32.542  14.626   7.935
  965POPC   C4B15310  32.664  14.301   7.636
  966POPC   NC315311  34.826  33.027   9.343
  966POPC   PO415312  35.309  33.187   9.855
  966POPC   GL115313  35.328  33.102   9.377
  966POPC   GL215314  35.228  33.410   9.170
  966POPC   C1A15315  35.484  32.970   8.950
  966POPC   D2A15316  35.256  32.949   8.544
  966POPC   C3A15317  35.359  32.845   8.112
  966POPC   C4A15318  35.603  32.997   7.790
  966POPC   C1B15319  34.953  33.327   8.772
  966POPC   C2B15320  34.814  33.139   8.362
  966POPC   C3B15321  34.916  33.178   7.911
  966POPC   C4B15322  35.129  32.934   7.588
  967POPC   NC315323  23.374  10.389   9.800
  967POPC   PO415324  23.672   9.883   9.458
  967POPC   GL115325  23.747   9.653   9.064
  967POPC   GL215326  24.085   9.655   8.951
  967POPC   C1A15327  23.700   9.721   8.626
  967POPC   D2A15328  23.813   9.739   8.216
  967POPC   C3A15329  23.540   9.790   7.869
  967POPC   C4A15330  23.425   9.719   7.454
  967POPC   C1B15331  23.966   9.275   8.729
  967POPC   C2B15332  23.968   9.242   8.304
  967POPC   C3B15333  24.139   9.440   7.956
  967POPC   C4B15334  23.925   9.544   7.576
  968POPC   NC315335   2.096  36.812   9.580
  968POPC   PO415336   1.646  36.324   9.352
  968POPC   GL115337   1.875  36.638   9.177
  968POPC   GL215338   2.256  36.588   9.142
  968POPC   C1A15339   1.859  36.892   8.852
  968POPC   D2A15340   1.679  36.833   8.482
  968POPC   C3A15341   1.831  36.985   8.118
  968POPC   C4A15342   1.796  36.811   7.730
  968POPC   C1B15343   2.358  36.855   8.796
  968POPC   C2B15344   2.278  36.779   8.360
  968POPC   C3B15345   2.298  36.907   7.924
  968POPC   C4B15346   2.233  36.818   7.475
  969POPC   NC315347   4.709  18.477   9.469
  969POPC   PO415348   5.332  18.139   9.628
  969POPC   GL115349   5.143  18.280   9.211
  969POPC   GL215350   4.978  17.953   9.156
  969POPC   C1A15351   5.131  18.550   8.775
  969POPC   D2A15352   5.102  18.714   8.330
  969POPC   C3A15353   5.332  18.459   8.015
  969POPC   C4A15354   5.482  18.555   7.588
  969POPC   C1B15355   4.882  18.117   8.780
  969POPC   C2B15356   5.113  18.180   8.410
  969POPC   C3B15357   4.887  18.185   8.036
  969POPC   C4B15358   5.004  18.301   7.647
  970POPC   NC315359  28.396  38.245   9.714
  970POPC   PO415360  28.074  38.838   9.500
  970POPC   GL115361  28.417  38.576   9.275
  970POPC   GL215362  28.368  38.225   9.086
  970POPC   C1A15363  28.650  38.588   8.887
  970POPC   D2A15364  28.632  38.293   8.542
  970POPC   C3A15365  28.661  38.468   8.120
  970POPC   C4A15366  28.513  38.386   7.723
  970POPC   C1B15367  28.184  37.927   8.735
  970POPC   C2B15368  28.224  38.033   8.336
  970POPC   C3B15369  28.147  38.354   8.089
  970POPC   C4B15370  27.860  38.319   7.760
  971POPC   NC315371  34.422  42.507   9.454
  971POPC   PO415372  35.038  42.070   9.414
  971POPC   GL115373  34.734  42.293   9.097
  971POPC   GL215374  34.356  42.223   9.054
  971POPC   C1A15375  34.612  42.531   8.713
  971POPC   D2A15376  34.520  42.819   8.355
  971POPC   C3A15377  34.687  42.592   8.022
  971POPC   C4A15378  34.628  42.236   7.766
  971POPC   C1B15379  34.353  42.060   8.670
  971POPC   C2B15380  34.458  42.161   8.277
  971POPC   C3B15381  34.290  41.918   7.978
  971POPC   C4B15382  34.129  42.107   7.643
  972POPC   NC315383   0.578  21.165   9.572
  972POPC   PO415384   0.310  21.709   9.353
  972POPC   GL115385   0.550  21.420   9.095
  972POPC   GL215386   0.715  21.072   9.088
  972POPC   C1A15387   0.386  21.379   8.704
  972POPC   D2A15388   0.116  21.142   8.461
  972POPC   C3A15389   0.231  21.233   8.052
  972POPC   C4A15390   0.423  21.521   7.789
  972POPC   C1B15391   0.837  21.176   8.657
  972POPC   C2B15392   0.691  21.323   8.241
  972POPC   C3B15393   0.881  21.366   7.839
  972POPC   C4B15394   0.740  21.471   7.382
  973POPC   NC315395  44.059  40.176   9.621
  973POPC   PO415396  43.529  40.237   9.279
  973POPC   GL115397  43.893  40.053   9.142
  973POPC   GL215398  44.170  40.300   9.123
  973POPC   C1A15399  43.787  39.852   8.766
  973POPC   D2A15400  43.925  39.751   8.360
  973POPC   C3A15401  43.742  39.989   8.012
  973POPC   C4A15402  43.613  40.421   7.894
  973POPC   C1B15403  44.341  40.267   8.687
  973POPC   C2B15404  44.236  40.302   8.252
  973POPC   C3B15405  44.132  40.309   7.809
  973POPC   C4B15406  44.177  40.477   7.389
  974POPC   NC315407   9.433  27.881   9.622
  974POPC   PO415408   9.884  27.435   9.692
  974POPC   GL115409   9.693  27.425   9.272
  974POPC   GL215410   9.733  27.765   9.199
  974POPC   C1A15411   9.520  27.474   8.830
  974POPC   D2A15412   9.572  27.735   8.488
  974POPC   C3A15413   9.317  27.829   8.166
  974POPC   C4A15414   9.306  27.732   7.744
  974POPC   C1B15415   9.942  27.870   8.812
  974POPC   C2B15416   9.930  28.045   8.379
  974POPC   C3B15417   9.936  27.939   7.971
  974POPC   C4B15418  10.275  28.160   7.789
  975POPC   NC315419  14.560  10.089   9.767
  975POPC   PO415420  14.274   9.604   9.523
  975POPC   GL115421  14.141   9.588   9.131
  975POPC   GL215422  14.430   9.807   9.067
  975POPC   C1A15423  14.038   9.774   8.737
  975POPC   D2A15424  14.410   9.800   8.521
  975POPC   C3A15425  14.440   9.663   8.155
  975POPC   C4A15426  14.229   9.724   7.793
  975POPC   C1B15427  14.600   9.478   8.879
  975POPC   C2B15428  14.598   9.293   8.524
  975POPC   C3B15429  14.716   9.213   8.142
  975POPC   C4B15430  14.644   9.400   7.773
  976POPC   NC315431   1.711  33.724   9.588
  976POPC   PO415432   1.057  33.975   9.595
  976POPC   GL115433   1.127  33.959   9.154
  976POPC   GL215434   1.481  34.045   9.126
  976POPC   C1A15435   1.089  33.796   8.729
  976POPC   D2A15436   1.342  33.603   8.407
  976POPC   C3A15437   1.160  33.676   8.024
  976POPC   C4A15438   1.063  33.473   7.660
  976POPC   C1B15439   1.640  33.840   8.760
  976POPC   C2B15440   1.703  34.013   8.375
  976POPC   C3B15441   1.623  33.901   7.971
  976POPC   C4B15442   1.552  33.583   7.695
  977POPC   NC315443  35.885  36.775   9.482
  977POPC   PO415444  36.548  36.846   9.568
  977POPC   GL115445  36.337  37.020   9.218
  977POPC   GL215446  36.010  36.949   9.031
  977POPC   C1A15447  36.402  37.237   8.872
  977POPC   D2A15448  36.370  37.138   8.466
  977POPC   C3A15449  36.250  36.872   8.187
  977POPC   C4A15450  36.363  36.861   7.772
  977POPC   C1B15451  36.031  36.744   8.636
  977POPC   C2B15452  35.750  36.712   8.283
  977POPC   C3B15453  35.892  36.643   7.888
  977POPC   C4B15454  35.900  37.047   7.729
  978POPC   NC315455  43.111   4.976   9.944
  978POPC   PO415456  43.689   5.186   9.635
  978POPC   GL115457  43.357   5.186   9.291
  978POPC   GL215458  43.089   4.934   9.295
  978POPC   C1A15459  43.177   5.262   8.866
  978POPC   D2A15460  42.853   5.144   8.575
  978POPC   C3A15461  42.912   5.168   8.111
  978POPC   C4A15462  42.915   4.981   7.679
  978POPC   C1B15463  43.155   4.763   8.840
  978POPC   C2B15464  43.305   4.909   8.438
  978POPC   C3B15465  43.433   5.030   8.025
  978POPC   C4B15466  43.377   4.795   7.667
  979POPC   NC315467   0.085   7.764   9.494
  979POPC   PO415468  44.613   7.368   9.671
  979POPC   GL115469  44.609   7.307   9.251
  979POPC   GL215470  44.875   7.128   9.109
  979POPC   C1A15471  44.547   7.535   8.863
  979POPC   D2A15472  44.692   7.493   8.450
  979POPC   C3A15473  44.473   7.624   8.100
  979POPC   C4A15474  44.367   7.897   7.794
  979POPC   C1B15475   0.090   7.204   8.678
  979POPC   C2B15476   0.008   7.189   8.203
  979POPC   C3B15477  44.911   7.508   7.856
  979POPC   C4B15478   0.050   7.629   7.425
  980POPC   NC315479  33.520   3.300   9.369
  980POPC   PO415480  33.680   2.752   9.749
  980POPC   GL115481  33.714   2.776   9.295
  980POPC   GL215482  33.973   2.998   9.198
  980POPC   C1A15483  33.746   2.595   8.883
  980POPC   D2A15484  33.708   2.792   8.473
  980POPC   C3A15485  33.882   2.672   8.098
  980POPC   C4A15486  33.593   2.589   7.734
  980POPC   C1B15487  33.810   3.178   8.816
  980POPC   C2B15488  33.831   3.285   8.402
  980POPC   C3B15489  33.642   3.129   8.038
  980POPC   C4B15490  33.903   3.005   7.707
  981POPC   NC315491   3.224   9.346   9.457
  981POPC   PO415492   3.599   9.941   9.536
  981POPC   GL115493   3.394   9.839   9.206
  981POPC   GL215494   3.131  10.105   9.167
  981POPC   C1A15495   3.467   9.523   8.861
  981POPC   D2A15496   3.677   9.339   8.517
  981POPC   C3A15497   3.734   9.539   8.124
  981POPC   C4A15498   3.541   9.606   7.733
  981POPC   C1B15499   3.231   9.957   8.753
  981POPC   C2B15500   3.327   9.734   8.395
  981POPC   C3B15501   3.422   9.988   8.074
  981POPC   C4B15502   3.226   9.999   7.698
  982POPC   NC315503   3.176   5.449   9.461
  982POPC   PO415504   2.631   4.971   9.548
  982POPC   GL115505   2.758   5.177   9.217
  982POPC   GL215506   3.053   5.009   9.239
  982POPC   C1A15507   2.788   5.322   8.793
  982POPC   D2A15508   2.922   5.399   8.356
  982POPC   C3A15509   2.804   5.447   7.871
  982POPC   C4A15510   3.049   5.491   7.466
  982POPC   C1B15511   2.943   4.829   8.874
  982POPC   C2B15512   2.742   4.917   8.472
  982POPC   C3B15513   2.850   4.974   8.056
  982POPC   C4B15514   2.504   4.970   7.762
  983POPC   NC315515   4.620   4.314   9.323
  983POPC   PO415516   4.093   4.625   9.433
  983POPC   GL115517   4.208   4.399   9.041
  983POPC   GL215518   4.113   4.098   9.072
  983POPC   C1A15519   4.414   4.241   8.650
  983POPC   D2A15520   4.404   4.026   8.234
  983POPC   C3A15521   4.573   4.329   7.931
  983POPC   C4A15522   4.540   4.442   7.478
  983POPC   C1B15523   4.011   3.877   8.720
  983POPC   C2B15524   3.792   4.013   8.360
  983POPC   C3B15525   3.832   4.216   7.986
  983POPC   C4B15526   4.135   4.089   7.714
  984POPC   NC315527  43.609  25.802   9.403
  984POPC   PO415528  44.147  26.287   9.548
  984POPC   GL115529  43.884  26.176   9.207
  984POPC   GL215530  44.075  25.880   9.213
  984POPC   C1A15531  43.781  26.006   8.801
  984POPC   D2A15532  43.901  26.237   8.466
  984POPC   C3A15533  43.758  26.160   8.103
  984POPC   C4A15534  43.918  26.169   7.729
  984POPC   C1B15535  44.308  25.904   8.886
  984POPC   C2B15536  44.227  25.838   8.476
  984POPC   C3B15537  44.255  26.002   8.084
  984POPC   C4B15538  44.408  25.925   7.688
  985POPC   NC315539  23.712  42.905   9.421
  985POPC   PO415540  23.713  43.603   9.349
  985POPC   GL115541  23.893  43.297   9.154
  985POPC   GL215542  23.556  43.205   9.034
  985POPC   C1A15543  23.974  43.279   8.747
  985POPC   D2A15544  23.670  43.482   8.499
  985POPC   C3A15545  23.662  43.272   8.146
  985POPC   C4A15546  23.802  43.208   7.752
  985POPC   C1B15547  23.517  43.009   8.634
  985POPC   C2B15548  23.302  42.951   8.254
  985POPC   C3B15549  23.412  42.861   7.799
  985POPC   C4B15550  23.548  42.925   7.349
  986POPC   NC315551  11.976  20.360   9.392
  986POPC   PO415552  11.897  20.970   9.685
  986POPC   GL115553  12.024  21.000   9.220
  986POPC   GL215554  12.398  20.981   9.216
  986POPC   C1A15555  11.838  20.894   8.776
  986POPC   D2A15556  11.716  20.550   8.460
  986POPC   C3A15557  11.801  20.720   8.052
  986POPC   C4A15558  11.801  20.893   7.638
  986POPC   C1B15559  12.309  20.722   8.862
  986POPC   C2B15560  12.197  20.772   8.428
  986POPC   C3B15561  12.361  20.625   8.057
  986POPC   C4B15562  12.165  20.554   7.682
  987POPC   NC315563   8.498   8.886   9.294
  987POPC   PO415564   7.884   9.152   9.455
  987POPC   GL115565   8.113   9.173   9.112
  987POPC   GL215566   8.100   8.866   8.987
  987POPC   C1A15567   8.177   9.382   8.735
  987POPC   D2A15568   8.388   9.388   8.345
  987POPC   C3A15569   8.248   9.112   8.026
  987POPC   C4A15570   8.240   9.309   7.644
  987POPC   C1B15571   8.311   8.899   8.613
  987POPC   C2B15572   8.289   8.656   8.250
  987POPC   C3B15573   8.203   8.544   7.839
  987POPC   C4B15574   8.022   8.870   7.589
  988POPC   NC315575   0.772  40.026   9.771
  988POPC   PO415576   0.219  39.960   9.307
  988POPC   GL115577   0.316  39.917   8.940
  988POPC   GL215578   0.112  39.675   8.883
  988POPC   C1A15579   0.465  40.062   8.592
  988POPC   D2A15580   0.635  40.174   8.216
  988POPC   C3A15581   0.325  40.169   7.901
  988POPC   C4A15582   0.616  40.312   7.645
  988POPC   C1B15583   0.329  39.533   8.584
  988POPC   C2B15584   0.353  39.727   8.235
  988POPC   C3B15585   0.208  39.680   7.869
  988POPC   C4B15586   0.085  39.509   7.558
  989POPC   NC315587  11.105  17.716   9.446
  989POPC   PO415588  11.533  17.193   9.639
  989POPC   GL115589  11.479  17.293   9.181
  989POPC   GL215590  11.524  17.671   9.122
  989POPC   C1A15591  11.586  17.344   8.722
  989POPC   D2A15592  11.605  17.191   8.286
  989POPC   C3A15593  11.433  17.396   7.930
  989POPC   C4A15594  11.628  17.766   7.764
  989POPC   C1B15595  11.195  17.674   8.778
  989POPC   C2B15596  11.034  17.601   8.349
  989POPC   C3B15597  11.124  17.779   7.939
  989POPC   C4B15598  11.177  17.661   7.479
  990POPC   NC315599   3.281  35.795   9.420
  990POPC   PO415600   3.531  36.438   9.510
  990POPC   GL115601   3.510  36.290   9.095
  990POPC   GL215602   3.626  35.947   9.084
  990POPC   C1A15603   3.715  36.411   8.720
  990POPC   D2A15604   4.021  36.357   8.395
  990POPC   C3A15605   3.857  36.313   8.001
  990POPC   C4A15606   3.504  36.056   7.869
  990POPC   C1B15607   3.366  35.946   8.706
  990POPC   C2B15608   3.195  35.857   8.271
  990POPC   C3B15609   3.164  35.680   7.824
  990POPC   C4B15610   3.151  35.657   7.359
  991POPC   NC315611  40.304  39.149   9.386
  991POPC   PO415612  40.992  39.355   9.476
  991POPC   GL115613  40.763  39.224   9.165
  991POPC   GL215614  40.607  39.532   9.155
  991POPC   C1A15615  40.808  39.174   8.747
  991POPC   D2A15616  41.043  39.185   8.392
  991POPC   C3A15617  40.735  39.042   8.156
  991POPC   C4A15618  40.661  39.003   7.764
  991POPC   C1B15619  40.918  39.667   8.848
  991POPC   C2B15620  40.788  39.629   8.424
  991POPC   C3B15621  40.759  39.521   7.997
  991POPC   C4B15622  40.562  39.482   7.602
  992POPC   NC315623  42.734  43.143   9.659
  992POPC   PO415624  42.765  42.489   9.481
  992POPC   GL115625  43.012  42.727   9.171
  992POPC   GL215626  42.962  43.091   9.197
  992POPC   C1A15627  43.195  42.904   8.766
  992POPC   D2A15628  43.270  42.711   8.367
  992POPC   C3A15629  43.185  42.893   8.002
  992POPC   C4A15630  43.247  43.120   7.627
  992POPC   C1B15631  42.852  43.384   8.856
  992POPC   C2B15632  42.977  43.281   8.430
  992POPC   C3B15633  43.162  43.402   8.043
  992POPC   C4B15634  42.917  43.512   7.687
  993POPC   NC315635  34.390  38.493   9.764
  993POPC   PO415636  34.891  38.240   9.410
  993POPC   GL115637  34.763  38.355   9.027
  993POPC   GL215638  34.629  38.630   9.116
  993POPC   C1A15639  34.583  38.267   8.663
  993POPC   D2A15640  34.771  38.163   8.330
  993POPC   C3A15641  34.482  38.217   8.022
  993POPC   C4A15642  34.793  38.307   7.776
  993POPC   C1B15643  34.319  38.681   8.766
  993POPC   C2B15644  34.445  38.647   8.293
  993POPC   C3B15645  34.482  38.725   7.805
  993POPC   C4B15646  34.396  38.778   7.329
  994POPC   NC315647  19.791  27.535   9.528
  994POPC   PO415648  19.225  27.893   9.614
  994POPC   GL115649  19.422  27.891   9.170
  994POPC   GL215650  19.776  27.925   9.179
  994POPC   C1A15651  19.580  27.842   8.718
  994POPC   D2A15652  19.793  27.605   8.366
  994POPC   C3A15653  19.574  27.555   7.969
  994POPC   C4A15654  19.702  27.749   7.602
  994POPC   C1B15655  20.002  28.108   8.809
  994POPC   C2B15656  20.197  27.942   8.428
  994POPC   C3B15657  20.163  27.807   7.998
  994POPC   C4B15658  20.035  27.411   7.790
  995POPC   NC315659   2.747   0.764   9.578
  995POPC   PO415660   2.452   0.136   9.454
  995POPC   GL115661   2.486   0.485   9.193
  995POPC   GL215662   2.830   0.460   9.167
  995POPC   C1A15663   2.565   0.646   8.760
  995POPC   D2A15664   2.653   0.469   8.366
  995POPC   C3A15665   2.599   0.675   7.986
  995POPC   C4A15666   2.421   0.525   7.602
  995POPC   C1B15667   2.800   0.185   8.815
  995POPC   C2B15668   3.063   0.186   8.435
  995POPC   C3B15669   2.946   0.164   8.001
  995POPC   C4B15670   2.966   0.454   7.684
  996POPC   NC315671  11.852   9.246   9.645
  996POPC   PO415672  12.093   9.826   9.531
  996POPC   GL115673  12.222   9.889   9.136
  996POPC   GL215674  12.305  10.235   9.163
  996POPC   C1A15675  11.983   9.674   8.794
  996POPC   D2A15676  11.996   9.411   8.414
  996POPC   C3A15677  12.068   9.626   8.026
  996POPC   C4A15678  12.317   9.910   7.753
  996POPC   C1B15679  12.041  10.186   8.762
  996POPC   C2B15680  11.895   9.979   8.355
  996POPC   C3B15681  11.885  10.138   7.904
  996POPC   C4B15682  11.644  10.170   7.493
  997POPC   NC315683  13.773  22.702   9.299
  997POPC   PO415684  13.515  23.362   9.470
  997POPC   GL115685  13.669  23.196   9.115
  997POPC   GL215686  13.318  23.093   9.041
  997POPC   C1A15687  13.904  23.095   8.744
  997POPC   D2A15688  13.700  23.016   8.357
  997POPC   C3A15689  13.830  22.867   7.943
  997POPC   C4A15690  14.070  23.141   7.663
  997POPC   C1B15691  13.307  22.669   8.851
  997POPC   C2B15692  13.501  22.547   8.492
  997POPC   C3B15693  13.360  22.717   8.131
  997POPC   C4B15694  13.326  22.962   7.765
  998POPC   NC315695  32.116  31.783   9.749
  998POPC   PO415696  32.019  32.387   9.629
  998POPC   GL115697  32.325  32.290   9.232
  998POPC   GL215698  32.460  31.911   9.194
  998POPC   C1A15699  32.392  32.487   8.779
  998POPC   D2A15700  32.344  32.533   8.293
  998POPC   C3A15701  32.450  32.378   7.847
  998POPC   C4A15702  32.458  32.533   7.398
  998POPC   C1B15703  32.576  32.007   8.730
  998POPC   C2B15704  32.322  32.022   8.319
  998POPC   C3B15705  32.179  31.952   7.861
  998POPC   C4B15706  32.392  31.982   7.429
  999POPC   NC315707   8.153   6.476   9.418
  999POPC   PO415708   8.456   7.023   9.292
  999POPC   GL115709   8.361   6.703   9.018
  999POPC   GL215710   8.023   6.718   9.015
  999POPC   C1A15711   8.289   6.404   8.693
  999POPC   D2A15712   8.451   6.137   8.359
  999POPC   C3A15713   8.456   6.470   8.070
  999POPC   C4A15714   8.265   6.582   7.697
  999POPC   C1B15715   7.789   6.934   8.768
  999POPC   C2B15716   7.838   6.729   8.429
  999POPC   C3B15717   7.949   6.759   8.045
  999POPC   C4B15718   7.747   6.798   7.687
 1000POPC   NC315719  38.155  28.903   9.516
 1000POPC   PO415720  37.563  29.368   9.487
 1000POPC   GL115721  37.781  29.101   9.224
 1000POPC   GL215722  37.492  28.905   9.068
 1000POPC   C1A15723  37.938  28.888   8.833
 1000POPC   D2A15724  37.641  28.814   8.474
 1000POPC   C3A15725  37.793  28.959   8.086
 1000POPC   C4A15726  37.739  29.330   7.873
 1000POPC   C1B15727  37.630  29.297   8.799
 1000POPC   C2B15728  37.572  29.401   8.393
 1000POPC   C3B15729  37.324  29.157   8.162
 1000POPC   C4B15730  37.306  29.022   7.791
 1001POPC   NC315731  26.290  35.388   9.368
 1001POPC   PO415732  25.606  35.147   9.467
 1001POPC   GL115733  25.807  35.387   9.134
 1001POPC   GL215734  25.938  35.088   8.968
 1001POPC   C1A15735  25.994  35.592   8.741
 1001POPC   D2A15736  26.052  35.585   8.286
 1001POPC   C3A15737  25.963  35.169   8.079
 1001POPC   C4A15738  25.783  35.157   7.666
 1001POPC   C1B15739  26.335  35.195   8.758
 1001POPC   C2B15740  26.435  35.212   8.363
 1001POPC   C3B15741  26.430  34.925   8.072
 1001POPC   C4B15742  26.384  35.161   7.735
 1002POPC   NC315743  11.883  10.921   9.457
 1002POPC   PO415744  12.427  11.213   9.324
 1002POPC   GL115745  12.036  11.276   9.114
 1002POPC   GL215746  11.860  11.610   9.072
 1002POPC   C1A15747  12.106  11.202   8.709
 1002POPC   D2A15748  12.284  11.412   8.372
 1002POPC   C3A15749  12.017  11.259   8.086
 1002POPC   C4A15750  12.012  11.047   7.749
 1002POPC   C1B15751  11.996  11.720   8.685
 1002POPC   C2B15752  11.776  11.670   8.293
 1002POPC   C3B15753  11.814  11.673   7.861
 1002POPC   C4B15754  12.261  11.613   7.779
 1003POPC   NC315755  16.744  13.137   9.716
 1003POPC   PO415756  16.508  13.751   9.693
 1003POPC   GL115757  16.587  13.471   9.321
 1003POPC   GL215758  16.953  13.427   9.321
 1003POPC   C1A15759  16.514  13.531   8.867
 1003POPC   D2A15760  16.336  13.384   8.460
 1003POPC   C3A15761  16.494  13.548   8.102
 1003POPC   C4A15762  16.685  13.791   7.801
 1003POPC   C1B15763  17.015  13.294   8.896
 1003POPC   C2B15764  16.885  13.471   8.509
 1003POPC   C3B15765  17.006  13.448   8.106
 1003POPC   C4B15766  16.821  13.296   7.758
 1004POPC   NC315767  32.079  29.035   9.573
 1004POPC   PO415768  32.684  28.926   9.421
 1004POPC   GL115769  32.369  29.076   9.172
 1004POPC   GL215770  32.368  29.419   9.345
 1004POPC   C1A15771  32.121  29.036   8.799
 1004POPC   D2A15772  32.339  28.974   8.383
 1004POPC   C3A15773  32.164  28.971   7.956
 1004POPC   C4A15774  32.331  28.955   7.497
 1004POPC   C1B15775  32.355  29.504   8.920
 1004POPC   C2B15776  32.182  29.472   8.536
 1004POPC   C3B15777  32.281  29.419   8.146
 1004POPC   C4B15778  32.239  29.405   7.713
 1005POPC   NC315779   1.414  27.270   9.583
 1005POPC   PO415780   1.122  27.957   9.422
 1005POPC   GL115781   1.121  27.649   9.117
 1005POPC   GL215782   1.396  27.408   9.114
 1005POPC   C1A15783   1.170  27.641   8.672
 1005POPC   D2A15784   1.205  27.504   8.256
 1005POPC   C3A15785   1.287  27.751   7.915
 1005POPC   C4A15786   1.099  27.713   7.541
 1005POPC   C1B15787   1.572  27.318   8.708
 1005POPC   C2B15788   1.712  27.582   8.358
 1005POPC   C3B15789   1.651  27.420   7.964
 1005POPC   C4B15790   1.538  27.463   7.530
 1006POPC   NC315791  18.406  16.275   9.546
 1006POPC   PO415792  18.071  15.670   9.597
 1006POPC   GL115793  18.256  15.904   9.228
 1006POPC   GL215794  18.610  15.774   9.179
 1006POPC   C1A15795  18.172  15.832   8.777
 1006POPC   D2A15796  18.310  15.699   8.348
 1006POPC   C3A15797  18.080  15.955   8.028
 1006POPC   C4A15798  18.207  15.816   7.628
 1006POPC   C1B15799  18.612  16.044   8.846
 1006POPC   C2B15800  18.430  16.192   8.465
 1006POPC   C3B15801  18.567  16.079   8.062
 1006POPC   C4B15802  18.517  16.234   7.650
 1007POPC   NC315803  31.395  26.374   9.425
 1007POPC   PO415804  31.641  27.000   9.543
 1007POPC   GL115805  31.666  26.743   9.213
 1007POPC   GL215806  31.336  26.813   9.110
 1007POPC   C1A15807  31.658  26.517   8.833
 1007POPC   D2A15808  31.523  26.689   8.461
 1007POPC   C3A15809  31.774  26.785   8.125
 1007POPC   C4A15810  31.765  26.598   7.758
 1007POPC   C1B15811  31.218  27.018   8.711
 1007POPC   C2B15812  31.055  26.827   8.319
 1007POPC   C3B15813  31.285  26.589   8.025
 1007POPC   C4B15814  31.365  26.969   7.873
 1008POPC   NC315815  21.607  34.646   9.474
 1008POPC   PO415816  21.003  34.344   9.230
 1008POPC   GL115817  21.412  34.360   9.082
 1008POPC   GL215818  21.461  34.726   9.000
 1008POPC   C1A15819  21.469  34.346   8.630
 1008POPC   D2A15820  21.686  34.520   8.263
 1008POPC   C3A15821  21.464  34.386   7.899
 1008POPC   C4A15822  20.979  34.370   7.846
 1008POPC   C1B15823  21.200  34.969   8.709
 1008POPC   C2B15824  21.038  35.080   8.289
 1008POPC   C3B15825  21.193  34.854   7.934
 1008POPC   C4B15826  21.629  34.913   7.819
 1009POPC   NC315827   1.663  31.874   9.805
 1009POPC   PO415828   1.941  32.481   9.507
 1009POPC   GL115829   1.782  32.445   9.084
 1009POPC   GL215830   2.086  32.262   9.024
 1009POPC   C1A15831   1.781  32.356   8.630
 1009POPC   D2A15832   2.115  32.271   8.344
 1009POPC   C3A15833   1.957  32.467   7.973
 1009POPC   C4A15834   1.620  32.672   7.707
 1009POPC   C1B15835   2.046  31.912   8.752
 1009POPC   C2B15836   2.114  31.755   8.365
 1009POPC   C3B15837   1.969  31.929   7.986
 1009POPC   C4B15838   2.130  31.716   7.698
 1010POPC   NC315839  13.162  18.930   9.412
 1010POPC   PO415840  12.690  19.464   9.498
 1010POPC   GL115841  12.895  19.318   9.160
 1010POPC   GL215842  12.774  19.003   9.066
 1010POPC   C1A15843  12.977  19.413   8.756
 1010POPC   D2A15844  12.808  19.518   8.361
 1010POPC   C3A15845  13.001  19.345   8.021
 1010POPC   C4A15846  12.713  19.213   7.703
 1010POPC   C1B15847  13.038  18.870   8.768
 1010POPC   C2B15848  12.927  19.012   8.407
 1010POPC   C3B15849  12.720  18.864   8.065
 1010POPC   C4B15850  13.072  18.888   7.816
 1011POPC   NC315851  39.680  30.245   9.475
 1011POPC   PO415852  39.085  29.961   9.594
 1011POPC   GL115853  39.170  30.094   9.152
 1011POPC   GL215854  38.942  29.794   9.024
 1011POPC   C1A15855  39.305  30.034   8.710
 1011POPC   D2A15856  39.147  30.099   8.277
 1011POPC   C3A15857  39.285  30.227   7.891
 1011POPC   C4A15858  39.040  30.307   7.505
 1011POPC   C1B15859  38.866  29.796   8.565
 1011POPC   C2B15860  38.835  29.709   8.104
 1011POPC   C3B15861  39.077  29.795   7.743
 1011POPC   C4B15862  39.512  29.717   7.787
 1012POPC   NC315863  22.396  34.522   9.543
 1012POPC   PO415864  21.778  34.187   9.526
 1012POPC   GL115865  21.971  34.451   9.166
 1012POPC   GL215866  22.278  34.676   9.081
 1012POPC   C1A15867  21.901  34.574   8.747
 1012POPC   D2A15868  21.969  34.169   8.526
 1012POPC   C3A15869  22.025  34.155   8.087
 1012POPC   C4A15870  22.003  34.559   7.861
 1012POPC   C1B15871  22.371  34.403   8.740
 1012POPC   C2B15872  22.256  34.591   8.326
 1012POPC   C3B15873  22.435  34.827   7.944
 1012POPC   C4B15874  22.449  34.672   7.474
 1013POPC   NC315875   6.025  43.687   9.425
 1013POPC   PO415876   6.518  44.190   9.352
 1013POPC   GL115877   6.137  44.161   9.119
 1013POPC   GL215878   5.825  43.945   9.042
 1013POPC   C1A15879   6.105  44.123   8.688
 1013POPC   D2A15880   5.875  43.928   8.382
 1013POPC   C3A15881   6.138  43.739   8.087
 1013POPC   C4A15882   6.068  43.892   7.694
 1013POPC   C1B15883   5.494  43.800   8.747
 1013POPC   C2B15884   5.393  43.732   8.317
 1013POPC   C3B15885   5.567  43.951   7.949
 1013POPC   C4B15886   5.583  43.846   7.498
 1014POPC   NC315887  16.102  41.933   9.427
 1014POPC   PO415888  16.102  42.617   9.458
 1014POPC   GL115889  15.965  42.354   9.120
 1014POPC   GL215890  15.698  42.100   9.130
 1014POPC   C1A15891  16.159  42.167   8.753
 1014POPC   D2A15892  16.276  42.129   8.326
 1014POPC   C3A15893  16.117  42.522   8.205
 1014POPC   C4A15894  16.038  42.641   7.793
 1014POPC   C1B15895  15.643  42.232   8.731
 1014POPC   C2B15896  15.436  42.282   8.377
 1014POPC   C3B15897  15.661  42.361   8.015
 1014POPC   C4B15898  16.005  42.147   7.841
 1015POPC   NC315899   7.189  41.402   9.442
 1015POPC   PO415900   7.276  41.998   9.440
 1015POPC   GL115901   7.157  41.787   9.101
 1015POPC   GL215902   7.440  41.562   9.045
 1015POPC   C1A15903   7.005  41.512   8.790
 1015POPC   D2A15904   7.248  41.381   8.462
 1015POPC   C3A15905   7.176  41.643   8.123
 1015POPC   C4A15906   7.271  41.559   7.702
 1015POPC   C1B15907   7.679  41.370   8.754
 1015POPC   C2B15908   7.768  41.471   8.344
 1015POPC   C3B15909   7.711  41.361   7.921
 1015POPC   C4B15910   7.629  41.240   7.508
 1016POPC   NC315911  12.690  10.841   9.413
 1016POPC   PO415912  12.982  10.181   9.582
 1016POPC   GL115913  12.914  10.443   9.189
 1016POPC   GL215914  12.973  10.788   8.988
 1016POPC   C1A15915  12.623  10.453   8.841
 1016POPC   D2A15916  12.472  10.292   8.457
 1016POPC   C3A15917  12.640  10.479   8.090
 1016POPC   C4A15918  12.672  10.291   7.695
 1016POPC   C1B15919  12.628  10.962   8.716
 1016POPC   C2B15920  12.434  10.927   8.269
 1016POPC   C3B15921  12.521  10.882   7.787
 1016POPC   C4B15922  12.711  10.845   7.337
 1017POPC   NC315923  15.565  23.438   9.468
 1017POPC   PO415924  15.143  23.971   9.654
 1017POPC   GL115925  15.127  23.673   9.311
 1017POPC   GL215926  14.851  23.459   9.222
 1017POPC   C1A15927  15.262  23.676   8.893
 1017POPC   D2A15928  15.467  23.870   8.526
 1017POPC   C3A15929  15.336  23.765   8.092
 1017POPC   C4A15930  15.329  23.544   7.681
 1017POPC   C1B15931  14.753  23.628   8.813
 1017POPC   C2B15932  14.993  23.613   8.443
 1017POPC   C3B15933  14.889  23.529   8.014
 1017POPC   C4B15934  14.867  23.743   7.622
 1018POPC   NC315935  31.812  42.710   9.556
 1018POPC   PO415936  32.093  42.083   9.586
 1018POPC   GL115937  32.178  42.270   9.148
 1018POPC   GL215938  32.022  42.576   9.031
 1018POPC   C1A15939  32.384  42.405   8.742
 1018POPC   D2A15940  32.450  42.156   8.400
 1018POPC   C3A15941  32.388  42.342   8.035
 1018POPC   C4A15942  32.633  42.482   7.709
 1018POPC   C1B15943  31.900  42.242   8.704
 1018POPC   C2B15944  31.948  42.176   8.248
 1018POPC   C3B15945  31.994  42.167   7.786
 1018POPC   C4B15946  32.144  42.513   7.538
 1019POPC   NC315947  16.724  17.117   9.707
 1019POPC   PO415948  16.865  17.730   9.664
 1019POPC   GL115949  16.694  17.665   9.234
 1019POPC   GL215950  16.943  17.832   9.018
 1019POPC   C1A15951  16.531  17.602   8.781
 1019POPC   D2A15952  16.782  17.594   8.400
 1019POPC   C3A15953  16.624  17.649   7.970
 1019POPC   C4A15954  16.763  17.579   7.553
 1019POPC   C1B15955  16.964  17.365   8.868
 1019POPC   C2B15956  17.036  17.137   8.445
 1019POPC   C3B15957  17.010  17.268   8.018
 1019POPC   C4B15958  16.915  17.094   7.623
 1020POPC   NC315959   7.668  12.904   9.450
 1020POPC   PO415960   7.078  12.658   9.595
 1020POPC   GL115961   7.185  12.973   9.216
 1020POPC   GL215962   7.358  12.735   9.054
 1020POPC   C1A15963   7.300  13.115   8.743
 1020POPC   D2A15964   7.278  12.779   8.400
 1020POPC   C3A15965   7.392  12.862   7.964
 1020POPC   C4A15966   7.233  13.022   7.546
 1020POPC   C1B15967   7.671  12.652   8.748
 1020POPC   C2B15968   7.809  12.765   8.335
 1020POPC   C3B15969   7.784  12.535   7.952
 1020POPC   C4B15970   7.978  12.447   7.571
 1021POPC   NC315971  22.395   5.691   9.817
 1021POPC   PO415972  21.881   6.079   9.709
 1021POPC   GL115973  22.195   5.970   9.348
 1021POPC   GL215974  22.375   5.630   9.299
 1021POPC   C1A15975  22.319   5.998   8.897
 1021POPC   D2A15976  22.186   6.079   8.455
 1021POPC   C3A15977  22.408   5.993   8.093
 1021POPC   C4A15978  22.489   5.950   7.666
 1021POPC   C1B15979  22.054   5.554   9.009
 1021POPC   C2B15980  22.119   5.597   8.582
 1021POPC   C3B15981  22.037   5.630   8.146
 1021POPC   C4B15982  22.248   5.518   7.754
 1022POPC   NC315983  16.342  29.754   9.619
 1022POPC   PO415984  16.975  30.117   9.572
 1022POPC   GL115985  16.879  30.139   9.226
 1022POPC   GL215986  16.658  29.854   9.212
 1022POPC   C1A15987  16.998  30.131   8.856
 1022POPC   D2A15988  16.955  29.914   8.496
 1022POPC   C3A15989  17.141  30.112   8.169
 1022POPC   C4A15990  16.974  30.155   7.781
 1022POPC   C1B15991  16.494  30.160   8.905
 1022POPC   C2B15992  16.444  30.003   8.501
 1022POPC   C3B15993  16.620  29.936   8.109
 1022POPC   C4B15994  16.437  30.187   7.788
 1023POPC   NC315995  24.755  21.541   9.506
 1023POPC   PO415996  24.215  21.081   9.542
 1023POPC   GL115997  24.404  21.363   9.202
 1023POPC   GL215998  24.243  21.670   9.162
 1023POPC   C1A15999  24.686  21.378   8.831
 1023POPC   D2A16000  24.943  21.284   8.497
 1023POPC   C3A16001  24.707  21.176   8.116
 1023POPC   C4A16002  24.764  21.330   7.697
 1023POPC   C1B16003  24.193  21.447   8.750
 1023POPC   C2B16004  24.258  21.193   8.413
 1023POPC   C3B16005  24.233  21.417   8.075
 1023POPC   C4B16006  24.088  21.468   7.702
 1024POPC   NC316007  33.543  30.037   9.513
 1024POPC   PO416008  34.100  29.639   9.428
 1024POPC   GL116009  33.793  29.744   9.110
 1024POPC   GL216010  33.696  30.110   9.049
 1024POPC   C1A16011  33.923  29.857   8.692
 1024POPC   D2A16012  33.644  30.014   8.389
 1024POPC   C3A16013  33.816  30.134   8.017
 1024POPC   C4A16014  33.958  29.889   7.676
 1024POPC   C1B16015  33.509  30.377   8.734
 1024POPC   C2B16016  33.341  30.423   8.319
 1024POPC   C3B16017  33.325  30.300   7.920
 1024POPC   C4B16018  33.454  29.895   7.728
 1025POPC   NC316019  25.848  43.539   9.625
 1025POPC   PO416020  26.150  44.144   9.570
 1025POPC   GL116021  26.144  43.995   9.177
 1025POPC   GL216022  25.962  43.698   9.170
 1025POPC   C1A16023  26.140  44.018   8.746
 1025POPC   D2A16024  26.349  43.738   8.473
 1025POPC   C3A16025  26.243  43.813   8.035
 1025POPC   C4A16026  25.975  44.033   7.719
 1025POPC   C1B16027  25.999  43.531   8.807
 1025POPC   C2B16028  25.860  43.652   8.429
 1025POPC   C3B16029  25.717  43.727   8.046
 1025POPC   C4B16030  25.929  43.520   7.736
 1026POPC   NC316031  18.595   9.492   9.447
 1026POPC   PO416032  19.292   9.613   9.631
 1026POPC   GL116033  19.240   9.839   9.249
 1026POPC   GL216034  18.854   9.895   9.166
 1026POPC   C1A16035  19.234   9.678   8.860
 1026POPC   D2A16036  19.432   9.730   8.486
 1026POPC   C3A16037  19.219   9.566   8.136
 1026POPC   C4A16038  18.935   9.583   7.818
 1026POPC   C1B16039  18.911  10.046   8.716
 1026POPC   C2B16040  19.029  10.040   8.287
 1026POPC   C3B16041  18.765  10.043   7.920
 1026POPC   C4B16042  18.583   9.870   7.552
 1027POPC   NC316043  38.241  20.788   9.462
 1027POPC   PO416044  38.863  20.421   9.640
 1027POPC   GL116045  38.683  20.586   9.271
 1027POPC   GL216046  38.519  20.287   9.141
 1027POPC   C1A16047  38.603  20.702   8.834
 1027POPC   D2A16048  38.594  20.472   8.433
 1027POPC   C3A16049  38.501  20.785   8.129
 1027POPC   C4A16050  38.851  20.991   7.878
 1027POPC   C1B16051  38.250  20.308   8.781
 1027POPC   C2B16052  38.113  20.366   8.325
 1027POPC   C3B16053  38.294  20.318   7.900
 1027POPC   C4B16054  38.177  20.260   7.459
 1028POPC   NC316055  29.363  36.948   9.556
 1028POPC   PO416056  28.767  36.624   9.394
 1028POPC   GL116057  29.061  36.880   9.132
 1028POPC   GL216058  29.410  36.726   9.110
 1028POPC   C1A16059  28.944  37.007   8.725
 1028POPC   D2A16060  28.770  36.906   8.326
 1028POPC   C3A16061  29.005  36.974   7.924
 1028POPC   C4A16062  28.799  37.116   7.523
 1028POPC   C1B16063  29.341  36.672   8.684
 1028POPC   C2B16064  29.157  36.570   8.291
 1028POPC   C3B16065  29.377  36.563   7.905
 1028POPC   C4B16066  29.634  36.751   7.575
 1029POPC   NC316067  25.374  24.019   9.724
 1029POPC   PO416068  24.931  23.508   9.472
 1029POPC   GL116069  25.142  23.820   9.180
 1029POPC   GL216070  24.936  24.049   8.992
 1029POPC   C1A16071  25.413  23.804   8.814
 1029POPC   D2A16072  25.585  23.592   8.441
 1029POPC   C3A16073  25.419  23.717   8.043
 1029POPC   C4A16074  25.510  24.023   7.737
 1029POPC   C1B16075  24.869  23.668   8.788
 1029POPC   C2B16076  25.075  23.685   8.423
 1029POPC   C3B16077  24.874  23.652   8.056
 1029POPC   C4B16078  25.028  23.823   7.715
 1030POPC   NC316079  24.605  34.108   9.327
 1030POPC   PO416080  24.303  33.574   9.575
 1030POPC   GL116081  24.411  33.512   9.168
 1030POPC   GL216082  24.738  33.647   9.085
 1030POPC   C1A16083  24.284  33.736   8.788
 1030POPC   D2A16084  24.302  34.014   8.410
 1030POPC   C3A16085  24.225  33.763   8.023
 1030POPC   C4A16086  24.548  33.581   7.751
 1030POPC   C1B16087  24.751  33.928   8.712
 1030POPC   C2B16088  24.812  34.187   8.353
 1030POPC   C3B16089  25.015  34.087   7.985
 1030POPC   C4B16090  24.949  33.976   7.561
 1031POPC   NC316091  28.498  12.056   9.520
 1031POPC   PO416092  28.534  12.629   9.225
 1031POPC   GL116093  28.532  12.222   9.033
 1031POPC   GL216094  28.218  11.975   9.111
 1031POPC   C1A16095  28.604  12.309   8.598
 1031POPC   D2A16096  28.329  12.315   8.258
 1031POPC   C3A16097  28.540  11.999   8.089
 1031POPC   C4A16098  28.660  11.702   7.823
 1031POPC   C1B16099  28.180  12.019   8.683
 1031POPC   C2B16100  28.139  11.805   8.300
 1031POPC   C3B16101  28.081  11.951   7.877
 1031POPC   C4B16102  27.963  12.190   7.510
 1032POPC   NC316103  37.178  43.008   9.456
 1032POPC   PO416104  36.511  43.168   9.579
 1032POPC   GL116105  36.717  43.023   9.196
 1032POPC   GL216106  36.942  43.315   9.115
 1032POPC   C1A16107  36.929  42.854   8.812
 1032POPC   D2A16108  37.200  42.995   8.469
 1032POPC   C3A16109  37.113  42.842   8.061
 1032POPC   C4A16110  36.866  42.998   7.754
 1032POPC   C1B16111  37.266  43.390   8.794
 1032POPC   C2B16112  37.229  43.589   8.431
 1032POPC   C3B16113  37.136  43.353   8.093
 1032POPC   C4B16114  37.222  43.390   7.676
 1033POPC   NC316115  26.302   2.333   9.449
 1033POPC   PO416116  26.053   2.924   9.633
 1033POPC   GL116117  26.004   2.705   9.240
 1033POPC   GL216118  25.838   2.975   9.139
 1033POPC   C1A16119  25.967   2.544   8.812
 1033POPC   D2A16120  26.189   2.307   8.475
 1033POPC   C3A16121  26.064   2.484   8.081
 1033POPC   C4A16122  25.940   2.552   7.647
 1033POPC   C1B16123  26.135   3.053   8.833
 1033POPC   C2B16124  26.036   3.098   8.408
 1033POPC   C3B16125  26.212   3.190   8.041
 1033POPC   C4B16126  26.107   3.086   7.657
 1034POPC   NC316127   7.283  40.757   9.513
 1034POPC   PO416128   7.647  41.395   9.499
 1034POPC   GL116129   7.556  41.065   9.170
 1034POPC   GL216130   7.211  41.072   9.081
 1034POPC   C1A16131   7.482  40.800   8.766
 1034POPC   D2A16132   7.744  40.668   8.435
 1034POPC   C3A16133   7.595  40.640   8.043
 1034POPC   C4A16134   7.482  40.296   7.813
 1034POPC   C1B16135   7.016  40.976   8.717
 1034POPC   C2B16136   7.184  40.887   8.312
 1034POPC   C3B16137   7.091  41.155   7.959
 1034POPC   C4B16138   7.140  41.109   7.505
 1035POPC   NC316139  15.307  25.214   9.435
 1035POPC   PO416140  14.746  25.546   9.441
 1035POPC   GL116141  15.009  25.416   9.101
 1035POPC   GL216142  15.359  25.588   9.107
 1035POPC   C1A16143  15.180  25.287   8.714
 1035POPC   D2A16144  15.291  25.107   8.335
 1035POPC   C3A16145  15.137  25.360   7.975
 1035POPC   C4A16146  15.221  25.085   7.649
 1035POPC   C1B16147  15.622  25.514   8.759
 1035POPC   C2B16148  15.485  25.567   8.345
 1035POPC   C3B16149  15.617  25.420   7.937
 1035POPC   C4B16150  15.548  25.450   7.490
 1036POPC   NC316151  41.322  16.096   9.621
 1036POPC   PO416152  41.791  15.629   9.618
 1036POPC   GL116153  41.801  15.962   9.248
 1036POPC   GL216154  41.524  16.226   9.176
 1036POPC   C1A16155  41.684  15.944   8.791
 1036POPC   D2A16156  41.616  15.628   8.477
 1036POPC   C3A16157  41.547  15.809   8.085
 1036POPC   C4A16158  41.666  15.667   7.661
 1036POPC   C1B16159  41.368  16.388   8.774
 1036POPC   C2B16160  41.585  16.271   8.394
 1036POPC   C3B16161  41.761  16.325   7.990
 1036POPC   C4B16162  41.479  16.142   7.697
 1037POPC   NC316163   5.454  35.614   9.311
 1037POPC   PO416164   4.899  35.378   9.613
 1037POPC   GL116165   5.005  35.415   9.172
 1037POPC   GL216166   5.228  35.161   9.135
 1037POPC   C1A16167   5.013  35.368   8.704
 1037POPC   D2A16168   5.119  35.550   8.299
 1037POPC   C3A16169   4.867  35.368   7.954
 1037POPC   C4A16170   5.025  35.271   7.522
 1037POPC   C1B16171   5.249  34.902   8.764
 1037POPC   C2B16172   5.214  35.037   8.349
 1037POPC   C3B16173   5.336  35.169   7.962
 1037POPC   C4B16174   5.459  34.976   7.603
 1038POPC   NC316175   3.830  17.258   9.801
 1038POPC   PO416176   3.669  17.819   9.380
 1038POPC   GL116177   3.801  17.404   9.190
 1038POPC   GL216178   3.572  17.119   9.172
 1038POPC   C1A16179   3.841  17.330   8.748
 1038POPC   D2A16180   3.637  17.580   8.400
 1038POPC   C3A16181   3.777  17.573   7.957
 1038POPC   C4A16182   3.674  17.723   7.514
 1038POPC   C1B16183   3.351  17.394   8.868
 1038POPC   C2B16184   3.143  17.328   8.476
 1038POPC   C3B16185   3.322  17.316   8.088
 1038POPC   C4B16186   3.303  17.627   7.839
 1039POPC   NC316187   0.270   2.102   9.512
 1039POPC   PO416188   0.948   2.260   9.643
 1039POPC   GL116189   0.851   2.047   9.219
 1039POPC   GL216190   0.546   1.855   9.171
 1039POPC   C1A16191   0.683   2.188   8.796
 1039POPC   D2A16192   0.412   2.301   8.453
 1039POPC   C3A16193   0.623   2.331   8.048
 1039POPC   C4A16194   0.775   2.020   7.742
 1039POPC   C1B16195   0.253   1.847   8.827
 1039POPC   C2B16196   0.348   1.752   8.409
 1039POPC   C3B16197   0.320   1.924   8.017
 1039POPC   C4B16198  45.000   1.944   7.673
 1040POPC   NC316199  29.223   2.859   9.466
 1040POPC   PO416200  29.190   2.270   9.520
 1040POPC   GL116201  29.287   2.473   9.080
 1040POPC   GL216202  29.328   2.839   8.990
 1040POPC   C1A16203  29.054   2.535   8.678
 1040POPC   D2A16204  29.022   2.756   8.272
 1040POPC   C3A16205  29.193   2.599   7.876
 1040POPC   C4A16206  29.087   2.717   7.436
 1040POPC   C1B16207  29.132   3.045   8.718
 1040POPC   C2B16208  29.367   3.140   8.387
 1040POPC   C3B16209  29.553   2.921   8.083
 1040POPC   C4B16210  29.411   3.042   7.692
 1041POPC   NC316211   7.707  22.001   9.724
 1041POPC   PO416212   7.313  22.511   9.721
 1041POPC   GL116213   7.215  22.183   9.356
 1041POPC   GL216214   7.501  22.048   9.225
 1041POPC   C1A16215   7.213  22.231   8.879
 1041POPC   D2A16216   7.233  22.382   8.443
 1041POPC   C3A16217   7.325  22.176   8.117
 1041POPC   C4A16218   7.161  22.339   7.763
 1041POPC   C1B16219   7.696  22.113   8.803
 1041POPC   C2B16220   7.769  22.263   8.403
 1041POPC   C3B16221   7.829  22.066   8.043
 1041POPC   C4B16222   7.650  22.178   7.713
 1042POPC   NC316223  41.233  34.261   9.369
 1042POPC   PO416224  41.660  33.809   9.539
 1042POPC   GL116225  41.691  33.590   9.156
 1042POPC   GL216226  41.507  33.886   9.052
 1042POPC   C1A16227  41.468  33.458   8.764
 1042POPC   D2A16228  41.317  33.553   8.357
 1042POPC   C3A16229  41.567  33.802   8.107
 1042POPC   C4A16230  41.622  33.646   7.701
 1042POPC   C1B16231  41.620  33.976   8.632
 1042POPC   C2B16232  41.455  34.256   8.376
 1042POPC   C3B16233  41.297  34.310   7.998
 1042POPC   C4B16234  41.375  34.115   7.630
 1043POPC   NC316235   5.491  42.910   9.760
 1043POPC   PO416236   6.011  43.189   9.364
 1043POPC   GL116237   5.834  43.158   9.009
 1043POPC   GL216238   5.655  43.462   9.099
 1043POPC   C1A16239   5.910  42.847   8.695
 1043POPC   D2A16240   5.796  42.742   8.282
 1043POPC   C3A16241   5.892  42.983   7.925
 1043POPC   C4A16242   5.495  43.010   7.740
 1043POPC   C1B16243   5.932  43.528   8.701
 1043POPC   C2B16244   5.790  43.387   8.288
 1043POPC   C3B16245   5.721  43.472   7.854
 1043POPC   C4B16246   6.007  43.438   7.503
 1044POPC   NC316247  15.070  33.300   9.430
 1044POPC   PO416248  14.957  32.678   9.487
 1044POPC   GL116249  15.215  32.893   9.110
 1044POPC   GL216250  15.289  33.252   8.974
 1044POPC   C1A16251  15.106  32.927   8.648
 1044POPC   D2A16252  15.303  33.044   8.282
 1044POPC   C3A16253  15.203  32.791   7.951
 1044POPC   C4A16254  14.976  32.855   7.618
 1044POPC   C1B16255  14.860  33.355   8.774
 1044POPC   C2B16256  14.730  33.259   8.345
 1044POPC   C3B16257  14.895  33.250   7.936
 1044POPC   C4B16258  14.933  33.322   7.452
 1045POPC   NC316259   6.482  14.000   9.587
 1045POPC   PO416260   7.026  14.300   9.512
 1045POPC   GL116261   6.743  14.275   9.172
 1045POPC   GL216262   6.382  14.385   9.211
 1045POPC   C1A16263   6.930  14.281   8.773
 1045POPC   D2A16264   7.038  14.049   8.456
 1045POPC   C3A16265   6.911  14.281   8.095
 1045POPC   C4A16266   6.798  14.433   7.710
 1045POPC   C1B16267   6.296  14.248   8.777
 1045POPC   C2B16268   6.518  14.156   8.401
 1045POPC   C3B16269   6.418  14.173   7.949
 1045POPC   C4B16270   6.284  14.470   7.616
 1046POPC   NC316271  10.759  21.751   9.471
 1046POPC   PO416272  10.428  22.305   9.683
 1046POPC   GL116273  10.517  22.171   9.212
 1046POPC   GL216274  10.694  22.493   9.160
 1046POPC   C1A16275  10.427  21.943   8.762
 1046POPC   D2A16276  10.505  21.769   8.290
 1046POPC   C3A16277  10.307  21.944   7.860
 1046POPC   C4A16278  10.455  21.942   7.405
 1046POPC   C1B16279  10.587  22.451   8.740
 1046POPC   C2B16280  10.489  22.270   8.354
 1046POPC   C3B16281  10.726  22.164   7.995
 1046POPC   C4B16282  10.628  22.397   7.575
 1047POPC   NC316283  21.285  33.134   9.550
 1047POPC   PO416284  21.819  32.598   9.495
 1047POPC   GL116285  21.551  32.858   9.254
 1047POPC   GL216286  21.697  33.158   9.163
 1047POPC   C1A16287  21.211  32.947   8.931
 1047POPC   D2A16288  21.258  32.978   8.499
 1047POPC   C3A16289  20.993  33.011   8.157
 1047POPC   C4A16290  21.152  32.829   7.774
 1047POPC   C1B16291  21.689  32.864   8.781
 1047POPC   C2B16292  21.806  32.913   8.391
 1047POPC   C3B16293  21.797  32.676   8.024
 1047POPC   C4B16294  21.863  32.805   7.609
 1048POPC   NC316295   0.501  13.252   9.493
 1048POPC   PO416296   0.637  12.635   9.571
 1048POPC   GL116297   0.654  12.870   9.147
 1048POPC   GL216298   0.753  13.237   9.068
 1048POPC   C1A16299   0.446  12.981   8.745
 1048POPC   D2A16300   0.587  13.184   8.341
 1048POPC   C3A16301   0.355  13.000   7.971
 1048POPC   C4A16302   0.295  12.982   7.512
 1048POPC   C1B16303   0.951  13.067   8.701
 1048POPC   C2B16304   0.844  12.726   8.453
 1048POPC   C3B16305   0.767  12.653   8.010
 1048POPC   C4B16306   0.796  13.007   7.713
 1049POPC   NC316307  22.136  10.971   9.290
 1049POPC   PO416308  21.943  10.377   9.505
 1049POPC   GL116309  21.825  10.615   9.130
 1049POPC   GL216310  22.153  10.536   9.048
 1049POPC   C1A16311  21.890  10.812   8.715
 1049POPC   D2A16312  22.126  10.593   8.455
 1049POPC   C3A16313  22.087  10.770   8.066
 1049POPC   C4A16314  21.944  10.733   7.660
 1049POPC   C1B16315  22.060  10.214   8.838
 1049POPC   C2B16316  21.937  10.058   8.480
 1049POPC   C3B16317  22.027  10.249   8.106
 1049POPC   C4B16318  22.037  10.154   7.735
 1050POPC   NC316319  12.290  21.953   9.457
 1050POPC   PO416320  11.967  22.472   9.766
 1050POPC   GL116321  12.034  22.377   9.298
 1050POPC   GL216322  11.924  22.061   9.093
 1050POPC   C1A16323  12.044  22.484   8.848
 1050POPC   D2A16324  11.939  22.239   8.494
 1050POPC   C3A16325  12.152  22.298   8.091
 1050POPC   C4A16326  11.960  22.337   7.674
 1050POPC   C1B16327  12.238  21.856   8.798
 1050POPC   C2B16328  12.186  21.691   8.389
 1050POPC   C3B16329  12.394  21.613   7.995
 1050POPC   C4B16330  12.564  21.985   7.800
 1051POPC   NC316331  35.651  39.374   9.534
 1051POPC   PO416332  36.368  39.142   9.542
 1051POPC   GL116333  36.072  39.235   9.162
 1051POPC   GL216334  35.862  38.972   9.127
 1051POPC   C1A16335  35.951  39.182   8.667
 1051POPC   D2A16336  36.160  39.135   8.227
 1051POPC   C3A16337  35.917  39.212   7.785
 1051POPC   C4A16338  35.728  39.439   7.370
 1051POPC   C1B16339  36.266  38.836   8.878
 1051POPC   C2B16340  36.524  38.890   8.515
 1051POPC   C3B16341  36.510  38.743   8.099
 1051POPC   C4B16342  36.366  38.960   7.745
 1052POPC   NC316343  35.743  25.079   9.431
 1052POPC   PO416344  36.292  25.431   9.435
 1052POPC   GL116345  36.084  25.277   9.107
 1052POPC   GL216346  36.220  24.942   9.171
 1052POPC   C1A16347  35.905  25.049   8.780
 1052POPC   D2A16348  35.980  25.023   8.367
 1052POPC   C3A16349  35.872  25.373   8.135
 1052POPC   C4A16350  35.927  25.216   7.724
 1052POPC   C1B16351  36.469  25.072   8.809
 1052POPC   C2B16352  36.452  25.276   8.425
 1052POPC   C3B16353  36.336  25.188   8.026
 1052POPC   C4B16354  36.372  25.465   7.682
 1053POPC   NC316355  24.461  33.163   9.618
 1053POPC   PO416356  24.701  32.590   9.563
 1053POPC   GL116357  24.631  32.849   9.244
 1053POPC   GL216358  24.297  32.900   9.197
 1053POPC   C1A16359  24.677  33.151   8.898
 1053POPC   D2A16360  24.620  33.424   8.564
 1053POPC   C3A16361  24.740  33.269   8.174
 1053POPC   C4A16362  24.705  33.102   7.788
 1053POPC   C1B16363  24.136  33.184   8.900
 1053POPC   C2B16364  24.118  33.312   8.487
 1053POPC   C3B16365  24.251  33.234   8.077
 1053POPC   C4B16366  24.113  33.292   7.670
 1054POPC   NC316367  38.735  44.566   9.569
 1054POPC   PO416368  38.252   0.044   9.461
 1054POPC   GL116369  38.409  44.759   9.125
 1054POPC   GL216370  38.774  44.663   9.083
 1054POPC   C1A16371  38.490  44.745   8.663
 1054POPC   D2A16372  38.708  44.905   8.290
 1054POPC   C3A16373  38.400  44.854   7.935
 1054POPC   C4A16374  38.282  44.480   7.709
 1054POPC   C1B16375  38.955  44.469   8.730
 1054POPC   C2B16376  39.019  44.397   8.312
 1054POPC   C3B16377  38.729  44.470   8.022
 1054POPC   C4B16378  38.814  44.370   7.638
 1055POPC   NC316379  32.201  41.640   9.461
 1055POPC   PO416380  32.571  41.091   9.645
 1055POPC   GL116381  32.441  41.285   9.211
 1055POPC   GL216382  32.627  41.536   8.992
 1055POPC   C1A16383  32.217  41.339   8.796
 1055POPC   D2A16384  32.449  41.297   8.464
 1055POPC   C3A16385  32.242  41.326   8.136
 1055POPC   C4A16386  32.464  41.356   7.754
 1055POPC   C1B16387  32.296  41.848   8.831
 1055POPC   C2B16388  32.133  41.747   8.449
 1055POPC   C3B16389  32.287  41.817   8.029
 1055POPC   C4B16390  32.331  41.811   7.590
 1056POPC   NC316391  37.587  39.605   9.712
 1056POPC   PO416392  37.801  38.988   9.589
 1056POPC   GL116393  37.623  39.301   9.274
 1056POPC   GL216394  37.973  39.395   9.184
 1056POPC   C1A16395  37.410  39.442   8.823
 1056POPC   D2A16396  37.132  39.409   8.451
 1056POPC   C3A16397  37.336  39.532   8.062
 1056POPC   C4A16398  37.458  39.404   7.621
 1056POPC   C1B16399  37.811  39.153   8.822
 1056POPC   C2B16400  37.606  39.209   8.412
 1056POPC   C3B16401  37.730  39.167   7.997
 1056POPC   C4B16402  38.053  39.030   7.767
 1057POPC   NC316403  25.871  20.202   9.655
 1057POPC   PO416404  26.362  20.568   9.512
 1057POPC   GL116405  25.994  20.465   9.217
 1057POPC   GL216406  25.961  20.708   8.952
 1057POPC   C1A16407  25.936  20.223   8.809
 1057POPC   D2A16408  26.214  20.293   8.447
 1057POPC   C3A16409  26.027  20.425   8.039
 1057POPC   C4A16410  26.256  20.334   7.663
 1057POPC   C1B16411  26.277  20.812   8.599
 1057POPC   C2B16412  26.429  21.030   8.231
 1057POPC   C3B16413  26.098  21.125   7.926
 1057POPC   C4B16414  25.886  20.789   7.642
 1058POPC   NC316415  33.739  28.543   9.426
 1058POPC   PO416416  33.896  27.906   9.275
 1058POPC   GL116417  33.882  28.234   9.049
 1058POPC   GL216418  33.547  28.264   8.977
 1058POPC   C1A16419  33.975  28.385   8.662
 1058POPC   D2A16420  34.185  28.272   8.297
 1058POPC   C3A16421  34.016  28.495   7.946
 1058POPC   C4A16422  34.198  28.801   7.673
 1058POPC   C1B16423  33.636  27.979   8.653
 1058POPC   C2B16424  33.668  28.162   8.261
 1058POPC   C3B16425  33.536  28.377   7.881
 1058POPC   C4B16426  33.555  28.220   7.446
 1059POPC   NC316427  27.798  36.220   9.506
 1059POPC   PO416428  27.711  35.522   9.530
 1059POPC   GL116429  27.500  35.794   9.203
 1059POPC   GL216430  27.773  36.007   9.048
 1059POPC   C1A16431  27.343  35.956   8.786
 1059POPC   D2A16432  27.526  35.928   8.375
 1059POPC   C3A16433  27.319  36.054   7.993
 1059POPC   C4A16434  27.317  35.906   7.556
 1059POPC   C1B16435  27.614  36.371   8.792
 1059POPC   C2B16436  27.753  36.394   8.366
 1059POPC   C3B16437  27.803  36.138   7.992
 1059POPC   C4B16438  27.633  36.281   7.630
 1060POPC   NC316439  20.233   9.080   9.356
 1060POPC   PO416440  20.729   8.879   9.774
 1060POPC   GL116441  20.693   8.742   9.280
 1060POPC   GL216442  20.466   8.885   8.986
 1060POPC   C1A16443  20.851   8.630   8.851
 1060POPC   D2A16444  20.640   8.886   8.503
 1060POPC   C3A16445  20.733   8.810   8.093
 1060POPC   C4A16446  20.754   8.850   7.685
 1060POPC   C1B16447  20.335   9.256   8.730
 1060POPC   C2B16448  20.168   9.258   8.327
 1060POPC   C3B16449  20.285   9.074   7.984
 1060POPC   C4B16450  20.458   9.290   7.674
 1061POPC   NC316451  38.153  30.568   9.363
 1061POPC   PO416452  38.741  30.959   9.527
 1061POPC   GL116453  38.412  30.960   9.219
 1061POPC   GL216454  38.570  30.651   9.050
 1061POPC   C1A16455  38.399  31.031   8.771
 1061POPC   D2A16456  38.494  30.660   8.521
 1061POPC   C3A16457  38.578  30.639   8.073
 1061POPC   C4A16458  38.352  30.861   7.763
 1061POPC   C1B16459  38.338  30.276   8.836
 1061POPC   C2B16460  38.141  30.264   8.480
 1061POPC   C3B16461  38.097  30.513   8.154
 1061POPC   C4B16462  38.202  30.286   7.800
 1062POPC   NC316463  26.234  18.646   9.393
 1062POPC   PO416464  25.867  19.269   9.487
 1062POPC   GL116465  25.938  19.016   9.168
 1062POPC   GL216466  25.744  18.727   9.264
 1062POPC   C1A16467  26.131  19.180   8.817
 1062POPC   D2A16468  26.247  19.028   8.429
 1062POPC   C3A16469  26.243  19.315   8.099
 1062POPC   C4A16470  25.906  19.244   7.808
 1062POPC   C1B16471  25.536  18.861   8.883
 1062POPC   C2B16472  25.565  18.736   8.474
 1062POPC   C3B16473  25.605  18.891   8.065
 1062POPC   C4B16474  25.759  18.771   7.687
 1063POPC   NC316475   6.197   6.625   9.492
 1063POPC   PO416476   5.480   6.737   9.565
 1063POPC   GL116477   5.713   6.757   9.214
 1063POPC   GL216478   5.600   7.062   9.114
 1063POPC   C1A16479   5.818   6.510   8.841
 1063POPC   D2A16480   6.030   6.548   8.435
 1063POPC   C3A16481   5.760   6.423   8.078
 1063POPC   C4A16482   5.931   6.381   7.657
 1063POPC   C1B16483   5.837   7.008   8.750
 1063POPC   C2B16484   5.981   7.048   8.332
 1063POPC   C3B16485   5.984   6.853   7.906
 1063POPC   C4B16486   5.868   6.856   7.419
 1064POPC   NC316487  25.464   4.818   9.509
 1064POPC   PO416488  25.421   5.496   9.382
 1064POPC   GL116489  25.478   5.203   9.115
 1064POPC   GL216490  25.140   5.130   9.139
 1064POPC   C1A16491  25.438   5.109   8.692
 1064POPC   D2A16492  25.701   5.169   8.346
 1064POPC   C3A16493  25.420   5.154   8.010
 1064POPC   C4A16494  25.442   5.299   7.523
 1064POPC   C1B16495  24.936   5.285   8.804
 1064POPC   C2B16496  24.914   5.126   8.409
 1064POPC   C3B16497  24.754   5.238   8.060
 1064POPC   C4B16498  25.002   5.210   7.738
 1065POPC   NC316499  31.024  23.817   9.510
 1065POPC   PO416500  30.377  23.733   9.447
 1065POPC   GL116501  30.693  23.669   9.146
 1065POPC   GL216502  30.839  23.368   9.205
 1065POPC   C1A16503  30.602  23.851   8.721
 1065POPC   D2A16504  30.614  24.018   8.315
 1065POPC   C3A16505  30.685  23.749   7.966
 1065POPC   C4A16506  30.374  23.629   7.690
 1065POPC   C1B16507  30.573  23.350   8.796
 1065POPC   C2B16508  30.502  23.157   8.387
 1065POPC   C3B16509  30.533  23.243   8.002
 1065POPC   C4B16510  30.788  23.321   7.685
 1066POPC   NC316511  12.953  26.316   9.455
 1066POPC   PO416512  12.519  25.773   9.533
 1066POPC   GL116513  12.701  25.960   9.145
 1066POPC   GL216514  12.648  26.315   9.052
 1066POPC   C1A16515  12.993  26.048   8.781
 1066POPC   D2A16516  12.999  25.780   8.426
 1066POPC   C3A16517  12.983  25.962   8.070
 1066POPC   C4A16518  12.685  25.790   7.837
 1066POPC   C1B16519  12.472  26.086   8.682
 1066POPC   C2B16520  12.522  26.104   8.235
 1066POPC   C3B16521  12.407  26.256   7.837
 1066POPC   C4B16522  12.676  26.516   7.578
 1067POPC   NC316523   2.957   8.068   9.343
 1067POPC   PO416524   3.634   8.074   9.561
 1067POPC   GL116525   3.491   8.127   9.164
 1067POPC   GL216526   3.361   7.781   9.147
 1067POPC   C1A16527   3.544   8.381   8.778
 1067POPC   D2A16528   3.797   8.386   8.424
 1067POPC   C3A16529   3.639   8.486   8.012
 1067POPC   C4A16530   3.542   8.298   7.622
 1067POPC   C1B16531   3.236   7.975   8.747
 1067POPC   C2B16532   3.322   8.143   8.351
 1067POPC   C3B16533   3.492   7.968   8.006
 1067POPC   C4B16534   3.449   7.766   7.626
 1068POPC   NC316535  28.831   4.429   9.660
 1068POPC   PO416536  29.288   4.003   9.428
 1068POPC   GL116537  29.292   4.365   9.171
 1068POPC   GL216538  28.985   4.261   9.045
 1068POPC   C1A16539  29.427   4.436   8.725
 1068POPC   D2A16540  29.265   4.592   8.307
 1068POPC   C3A16541  29.176   4.380   7.922
 1068POPC   C4A16542  29.172   4.465   7.475
 1068POPC   C1B16543  28.926   4.369   8.629
 1068POPC   C2B16544  28.755   4.215   8.270
 1068POPC   C3B16545  28.669   4.488   7.984
 1068POPC   C4B16546  28.739   4.668   7.654
 1069POPC   NC316547  35.203  27.884   9.442
 1069POPC   PO416548  35.568  27.362   9.687
 1069POPC   GL116549  35.417  27.345   9.251
 1069POPC   GL216550  35.420  27.658   9.038
 1069POPC   C1A16551  35.313  27.206   8.828
 1069POPC   D2A16552  35.133  27.431   8.478
 1069POPC   C3A16553  35.177  27.341   8.066
 1069POPC   C4A16554  35.277  27.320   7.648
 1069POPC   C1B16555  35.133  27.877   8.719
 1069POPC   C2B16556  35.059  27.869   8.229
 1069POPC   C3B16557  35.365  27.790   7.907
 1069POPC   C4B16558  35.397  27.791   7.472
 1070POPC   NC316559  40.348  30.124   9.454
 1070POPC   PO416560  39.750  29.781   9.465
 1070POPC   GL116561  40.003  29.916   9.117
 1070POPC   GL216562  40.144  30.258   9.009
 1070POPC   C1A16563  40.246  29.630   8.866
 1070POPC   D2A16564  40.097  29.440   8.494
 1070POPC   C3A16565  40.133  29.770   8.226
 1070POPC   C4A16566  40.164  29.836   7.814
 1070POPC   C1B16567  39.721  30.319   8.830
 1070POPC   C2B16568  39.577  30.390   8.402
 1070POPC   C3B16569  39.731  30.092   8.098
 1070POPC   C4B16570  39.810  30.127   7.668
 1071POPC   NC316571   7.937   3.981   9.345
 1071POPC   PO416572   8.448   3.812   9.795
 1071POPC   GL116573   8.387   3.682   9.309
 1071POPC   GL216574   8.432   3.344   9.140
 1071POPC   C1A16575   8.458   3.757   8.848
 1071POPC   D2A16576   8.623   3.617   8.452
 1071POPC   C3A16577   8.347   3.662   8.119
 1071POPC   C4A16578   8.200   3.699   7.700
 1071POPC   C1B16579   8.109   3.297   8.802
 1071POPC   C2B16580   7.958   3.392   8.368
 1071POPC   C3B16581   8.102   3.230   7.957
 1071POPC   C4B16582   7.981   3.263   7.533
 1072POPC   NC316583  39.956  31.076   9.445
 1072POPC   PO416584  40.443  30.564   9.547
 1072POPC   GL116585  40.290  30.770   9.186
 1072POPC   GL216586  39.933  30.716   9.079
 1072POPC   C1A16587  40.325  30.745   8.750
 1072POPC   D2A16588  40.106  30.417   8.486
 1072POPC   C3A16589  40.052  30.484   8.053
 1072POPC   C4A16590  40.254  30.377   7.678
 1072POPC   C1B16591  39.810  30.799   8.685
 1072POPC   C2B16592  40.040  30.964   8.362
 1072POPC   C3B16593  40.226  30.954   7.980
 1072POPC   C4B16594  39.930  30.823   7.650
 1073POPC   NC316595  28.745  39.145   9.438
 1073POPC   PO416596  29.444  39.019   9.458
 1073POPC   GL116597  29.185  39.222   9.164
 1073POPC   GL216598  29.157  39.575   9.223
 1073POPC   C1A16599  29.002  39.328   8.770
 1073POPC   D2A16600  28.837  39.248   8.373
 1073POPC   C3A16601  29.107  39.331   8.032
 1073POPC   C4A16602  29.100  39.124   7.667
 1073POPC   C1B16603  29.468  39.525   8.866
 1073POPC   C2B16604  29.436  39.399   8.442
 1073POPC   C3B16605  29.620  39.419   8.033
 1073POPC   C4B16606  29.539  39.528   7.615
 1074POPC   NC316607   7.200  12.171   9.674
 1074POPC   PO416608   7.883  12.416   9.410
 1074POPC   GL116609   7.465  12.287   9.252
 1074POPC   GL216610   7.324  11.928   9.237
 1074POPC   C1A16611   7.357  12.227   8.814
 1074POPC   D2A16612   7.544  12.301   8.401
 1074POPC   C3A16613   7.315  12.285   8.051
 1074POPC   C4A16614   7.133  12.064   7.718
 1074POPC   C1B16615   7.238  11.675   8.860
 1074POPC   C2B16616   7.315  11.835   8.439
 1074POPC   C3B16617   7.417  11.748   8.021
 1074POPC   C4B16618   7.282  11.590   7.597
 1075POPC   NC316619  14.054   2.607   9.522
 1075POPC   PO416620  13.571   2.922   9.468
 1075POPC   GL116621  13.450   2.827   9.084
 1075POPC   GL216622  13.664   2.527   9.111
 1075POPC   C1A16623  13.440   3.039   8.683
 1075POPC   D2A16624  13.706   2.982   8.290
 1075POPC   C3A16625  13.538   2.770   7.912
 1075POPC   C4A16626  13.276   2.634   7.590
 1075POPC   C1B16627  13.656   2.572   8.661
 1075POPC   C2B16628  13.667   2.400   8.253
 1075POPC   C3B16629  13.914   2.414   7.870
 1075POPC   C4B16630  13.773   2.533   7.475
 1076POPC   NC316631  37.752  42.058   9.373
 1076POPC   PO416632  37.526  42.706   9.423
 1076POPC   GL116633  37.776  42.575   9.090
 1076POPC   GL216634  37.585  42.269   8.953
 1076POPC   C1A16635  37.908  42.547   8.669
 1076POPC   D2A16636  37.760  42.186   8.455
 1076POPC   C3A16637  37.870  42.231   8.049
 1076POPC   C4A16638  37.928  42.472   7.712
 1076POPC   C1B16639  37.380  42.582   8.741
 1076POPC   C2B16640  37.518  42.627   8.309
 1076POPC   C3B16641  37.352  42.366   7.974
 1076POPC   C4B16642  37.051  42.510   7.641
 1077POPC   NC316643  40.417  35.906   9.577
 1077POPC   PO416644  39.904  36.302   9.539
 1077POPC   GL116645  39.935  36.247   9.111
 1077POPC   GL216646  39.624  36.387   9.050
 1077POPC   C1A16647  39.880  36.081   8.693
 1077POPC   D2A16648  39.680  36.166   8.310
 1077POPC   C3A16649  39.992  36.155   8.005
 1077POPC   C4A16650  40.245  35.850   7.841
 1077POPC   C1B16651  39.682  36.586   8.627
 1077POPC   C2B16652  39.751  36.631   8.154
 1077POPC   C3B16653  39.838  36.525   7.704
 1077POPC   C4B16654  39.753  36.409   7.245
 1078POPC   NC316655   2.085  26.602   9.523
 1078POPC   PO416656   1.843  27.265   9.373
 1078POPC   GL116657   2.063  26.969   9.136
 1078POPC   GL216658   1.824  26.721   9.126
 1078POPC   C1A16659   2.179  26.877   8.704
 1078POPC   D2A16660   2.035  27.041   8.290
 1078POPC   C3A16661   2.179  26.852   7.901
 1078POPC   C4A16662   1.891  26.672   7.561
 1078POPC   C1B16663   1.684  26.765   8.744
 1078POPC   C2B16664   1.857  26.485   8.457
 1078POPC   C3B16665   1.781  26.564   8.058
 1078POPC   C4B16666   1.613  26.933   7.903
 1079POPC   NC316667  42.157  11.793   9.436
 1079POPC   PO416668  41.983  12.464   9.551
 1079POPC   GL116669  42.174  12.319   9.163
 1079POPC   GL216670  42.477  12.129   9.206
 1079POPC   C1A16671  42.271  12.214   8.734
 1079POPC   D2A16672  42.042  12.313   8.397
 1079POPC   C3A16673  42.046  12.055   8.136
 1079POPC   C4A16674  42.060  12.255   7.781
 1079POPC   C1B16675  42.767  12.297   8.907
 1079POPC   C2B16676  42.776  12.448   8.467
 1079POPC   C3B16677  42.820  12.343   8.032
 1079POPC   C4B16678  42.559  12.213   7.715
 1080POPC   NC316679  42.514   9.297   9.457
 1080POPC   PO416680  42.395   8.593   9.498
 1080POPC   GL116681  42.206   8.681   9.153
 1080POPC   GL216682  42.189   9.038   9.162
 1080POPC   C1A16683  42.318   8.800   8.741
 1080POPC   D2A16684  42.133   8.880   8.350
 1080POPC   C3A16685  42.392   8.734   8.017
 1080POPC   C4A16686  42.636   8.608   7.675
 1080POPC   C1B16687  42.281   9.301   8.782
 1080POPC   C2B16688  42.460   9.268   8.396
 1080POPC   C3B16689  42.288   9.224   7.984
 1080POPC   C4B16690  42.426   9.094   7.569
 1081POPC   NC316691   1.991  25.679   9.519
 1081POPC   PO416692   1.679  26.288   9.510
 1081POPC   GL116693   1.967  26.193   9.144
 1081POPC   GL216694   1.934  25.821   9.033
 1081POPC   C1A16695   2.156  26.136   8.703
 1081POPC   D2A16696   2.003  25.823   8.368
 1081POPC   C3A16697   2.152  25.900   7.945
 1081POPC   C4A16698   2.191  26.325   7.778
 1081POPC   C1B16699   1.664  26.028   8.720
 1081POPC   C2B16700   1.545  26.097   8.277
 1081POPC   C3B16701   1.701  26.127   7.831
 1081POPC   C4B16702   1.533  26.105   7.418
 1082POPC   NC316703  27.943  38.405   9.383
 1082POPC   PO416704  27.324  38.082   9.507
 1082POPC   GL116705  27.462  38.122   9.061
 1082POPC   GL216706  27.825  38.111   9.011
 1082POPC   C1A16707  27.519  38.388   8.696
 1082POPC   D2A16708  27.673  38.388   8.283
 1082POPC   C3A16709  27.429  38.507   7.970
 1082POPC   C4A16710  27.606  38.771   7.649
 1082POPC   C1B16711  28.044  38.409   8.674
 1082POPC   C2B16712  28.025  38.767   8.353
 1082POPC   C3B16713  28.051  38.823   7.887
 1082POPC   C4B16714  28.157  38.667   7.480
 1083POPC   NC316715   7.999  16.892   9.489
 1083POPC   PO416716   8.532  16.476   9.512
 1083POPC   GL116717   8.343  16.630   9.171
 1083POPC   GL216718   8.412  16.978   9.144
 1083POPC   C1A16719   8.078  16.748   8.827
 1083POPC   D2A16720   7.918  16.838   8.430
 1083POPC   C3A16721   8.072  16.640   8.060
 1083POPC   C4A16722   7.845  16.371   7.784
 1083POPC   C1B16723   8.379  17.168   8.733
 1083POPC   C2B16724   8.416  16.980   8.300
 1083POPC   C3B16725   8.386  16.975   7.832
 1083POPC   C4B16726   8.022  16.812   7.575
 1084POPC   NC316727  30.411   7.656   9.542
 1084POPC   PO416728  30.834   8.202   9.728
 1084POPC   GL116729  30.752   8.212   9.260
 1084POPC   GL216730  30.501   7.956   9.126
 1084POPC   C1A16731  30.838   8.314   8.811
 1084POPC   D2A16732  30.742   8.260   8.347
 1084POPC   C3A16733  30.948   7.897   8.133
 1084POPC   C4A16734  31.102   7.825   7.716
 1084POPC   C1B16735  30.227   7.924   8.747
 1084POPC   C2B16736  30.101   8.039   8.307
 1084POPC   C3B16737  30.441   8.070   7.961
 1084POPC   C4B16738  30.632   8.425   7.767
 1085POPC   NC316739  44.360  18.254   9.531
 1085POPC   PO416740   0.058  18.280   9.463
 1085POPC   GL116741  44.727  18.157   9.165
 1085POPC   GL216742  44.442  18.389   9.042
 1085POPC   C1A16743  44.679  17.976   8.772
 1085POPC   D2A16744  44.575  18.101   8.368
 1085POPC   C3A16745  44.805  18.066   8.012
 1085POPC   C4A16746  44.709  18.127   7.601
 1085POPC   C1B16747  44.764  18.491   8.739
 1085POPC   C2B16748  44.672  18.649   8.330
 1085POPC   C3B16749  44.575  18.509   7.933
 1085POPC   C4B16750   0.031  18.493   7.737
 1086POPC   NC316751  42.927   6.381   9.500
 1086POPC   PO416752  43.505   6.763   9.532
 1086POPC   GL116753  43.178   6.741   9.189
 1086POPC   GL216754  43.021   6.414   9.011
 1086POPC   C1A16755  43.095   6.845   8.752
 1086POPC   D2A16756  43.000   6.663   8.337
 1086POPC   C3A16757  42.900   6.980   8.037
 1086POPC   C4A16758  43.031   7.083   7.653
 1086POPC   C1B16759  43.338   6.198   8.771
 1086POPC   C2B16760  43.419   6.090   8.315
 1086POPC   C3B16761  43.338   6.424   7.983
 1086POPC   C4B16762  42.965   6.553   7.769
 1087POPC   NC316763  39.123  35.172   9.521
 1087POPC   PO416764  39.744  35.426   9.488
 1087POPC   GL116765  39.433  35.334   9.152
 1087POPC   GL216766  39.125  35.472   9.040
 1087POPC   C1A16767  39.236  35.073   8.782
 1087POPC   D2A16768  39.093  35.205   8.365
 1087POPC   C3A16769  39.416  35.220   8.041
 1087POPC   C4A16770  39.354  35.055   7.676
 1087POPC   C1B16771  39.075  35.721   8.658
 1087POPC   C2B16772  38.921  35.694   8.228
 1087POPC   C3B16773  38.983  35.444   7.855
 1087POPC   C4B16774  38.993  35.546   7.389
 1088POPC   NC316775  37.687  17.215   9.869
 1088POPC   PO416776  37.341  17.747   9.479
 1088POPC   GL116777  37.671  17.648   9.224
 1088POPC   GL216778  37.664  17.275   9.316
 1088POPC   C1A16779  37.759  17.825   8.798
 1088POPC   D2A16780  37.594  17.844   8.388
 1088POPC   C3A16781  37.814  17.675   8.067
 1088POPC   C4A16782  37.579  17.465   7.764
 1088POPC   C1B16783  37.798  17.316   8.887
 1088POPC   C2B16784  37.813  17.375   8.486
 1088POPC   C3B16785  37.732  17.145   8.138
 1088POPC   C4B16786  37.734  16.982   7.730
 1089POPC   NC316787   3.987   3.403   9.381
 1089POPC   PO416788   4.378   3.945   9.487
 1089POPC   GL116789   4.370   3.669   9.112
 1089POPC   GL216790   4.280   3.342   8.968
 1089POPC   C1A16791   4.500   3.707   8.678
 1089POPC   D2A16792   4.377   3.457   8.317
 1089POPC   C3A16793   4.064   3.637   8.100
 1089POPC   C4A16794   4.189   3.577   7.701
 1089POPC   C1B16795   4.273   3.008   8.679
 1089POPC   C2B16796   4.464   2.897   8.316
 1089POPC   C3B16797   4.405   3.092   7.910
 1089POPC   C4B16798   4.644   3.119   7.520
 1090POPC   NC316799  20.600   0.032   9.440
 1090POPC   PO416800  20.250  44.459   9.512
 1090POPC   GL116801  20.518  44.586   9.186
 1090POPC   GL216802  20.461  44.916   8.965
 1090POPC   C1A16803  20.519  44.438   8.798
 1090POPC   D2A16804  20.423  44.693   8.466
 1090POPC   C3A16805  20.717  44.657   8.176
 1090POPC   C4A16806  20.603  44.586   7.777
 1090POPC   C1B16807  20.855  44.839   8.678
 1090POPC   C2B16808  21.018   0.076   8.294
 1090POPC   C3B16809  20.850   0.062   7.882
 1090POPC   C4B16810  21.060  44.774   7.676
 1091POPC   NC316811  42.745  24.115   9.551
 1091POPC   PO416812  42.472  23.504   9.391
 1091POPC   GL116813  42.561  23.720   9.088
 1091POPC   GL216814  42.322  23.951   9.110
 1091POPC   C1A16815  42.537  23.493   8.705
 1091POPC   D2A16816  42.719  23.410   8.318
 1091POPC   C3A16817  42.374  23.387   8.030
 1091POPC   C4A16818  42.272  23.595   7.679
 1091POPC   C1B16819  42.088  23.736   8.811
 1091POPC   C2B16820  42.096  23.579   8.428
 1091POPC   C3B16821  42.026  23.792   8.072
 1091POPC   C4B16822  41.956  23.989   7.698
 1092POPC   NC316823  11.557  23.240   9.514
 1092POPC   PO416824  11.377  22.588   9.825
 1092POPC   GL116825  11.253  22.624   9.324
 1092POPC   GL216826  11.295  22.969   9.134
 1092POPC   C1A16827  11.109  22.597   8.857
 1092POPC   D2A16828  11.212  22.951   8.555
 1092POPC   C3A16829  11.183  22.849   8.096
 1092POPC   C4A16830  11.354  22.961   7.672
 1092POPC   C1B16831  11.598  23.244   8.873
 1092POPC   C2B16832  11.727  23.300   8.454
 1092POPC   C3B16833  11.566  23.216   8.073
 1092POPC   C4B16834  11.727  23.329   7.694
 1093POPC   NC316835  33.395  30.673   9.801
 1093POPC   PO416836  32.947  30.974   9.501
 1093POPC   GL116837  33.048  30.725   9.201
 1093POPC   GL216838  32.864  30.500   9.075
 1093POPC   C1A16839  33.161  30.803   8.790
 1093POPC   D2A16840  32.961  30.734   8.434
 1093POPC   C3A16841  33.093  30.935   8.064
 1093POPC   C4A16842  33.252  30.928   7.646
 1093POPC   C1B16843  33.023  30.287   8.704
 1093POPC   C2B16844  32.842  30.254   8.307
 1093POPC   C3B16845  32.728  30.589   8.005
 1093POPC   C4B16846  32.897  30.585   7.596
 1094POPC   NC316847   8.677  41.009   9.392
 1094POPC   PO416848   9.227  40.569   9.579
 1094POPC   GL116849   9.096  40.743   9.183
 1094POPC   GL216850   8.794  40.622   9.077
 1094POPC   C1A16851   9.123  40.888   8.759
 1094POPC   D2A16852   8.983  40.701   8.372
 1094POPC   C3A16853   9.086  40.970   8.020
 1094POPC   C4A16854   9.160  41.215   7.666
 1094POPC   C1B16855   8.584  40.452   8.727
 1094POPC   C2B16856   8.612  40.208   8.372
 1094POPC   C3B16857   8.798  40.345   8.011
 1094POPC   C4B16858   8.850  40.655   7.706
 1095POPC   NC316859  18.072  26.055   9.500
 1095POPC   PO416860  18.800  25.809   9.519
 1095POPC   GL116861  18.576  25.884   9.143
 1095POPC   GL216862  18.506  26.226   9.028
 1095POPC   C1A16863  18.371  25.807   8.750
 1095POPC   D2A16864  18.290  25.589   8.371
 1095POPC   C3A16865  18.417  25.888   8.052
 1095POPC   C4A16866  18.391  25.870   7.606
 1095POPC   C1B16867  18.163  26.300   8.706
 1095POPC   C2B16868  18.115  26.271   8.262
 1095POPC   C3B16869  18.103  26.237   7.829
 1095POPC   C4B16870  18.419  26.372   7.514
 1096POPC   NC316871  20.745  25.790   9.544
 1096POPC   PO416872  20.367  26.256   9.491
 1096POPC   GL116873  20.404  25.933   9.145
 1096POPC   GL216874  20.221  26.161   9.010
 1096POPC   C1A16875  20.332  25.799   8.680
 1096POPC   D2A16876  20.684  25.749   8.359
 1096POPC   C3A16877  20.639  25.871   7.897
 1096POPC   C4A16878  20.692  25.814   7.427
 1096POPC   C1B16879  20.431  26.315   8.684
 1096POPC   C2B16880  20.484  26.221   8.268
 1096POPC   C3B16881  20.757  26.355   7.953
 1096POPC   C4B16882  20.560  26.312   7.564
 1097POPC   NC316883  32.531  12.528   9.508
 1097POPC   PO416884  32.216  13.263   9.494
 1097POPC   GL116885  32.222  13.175   9.069
 1097POPC   GL216886  32.392  12.883   9.162
 1097POPC   C1A16887  32.212  12.917   8.683
 1097POPC   D2A16888  32.082  12.708   8.287
 1097POPC   C3A16889  32.278  12.998   8.071
 1097POPC   C4A16890  32.254  13.218   7.719
 1097POPC   C1B16891  32.605  12.652   8.868
 1097POPC   C2B16892  32.556  12.598   8.456
 1097POPC   C3B16893  32.648  12.646   8.050
 1097POPC   C4B16894  32.456  12.721   7.665
 1098POPC   NC316895  13.701  32.776   9.435
 1098POPC   PO416896  13.472  32.124   9.569
 1098POPC   GL116897  13.662  32.103   9.153
 1098POPC   GL216898  13.594  32.431   9.097
 1098POPC   C1A16899  13.651  32.144   8.695
 1098POPC   D2A16900  13.577  32.015   8.316
 1098POPC   C3A16901  13.789  32.099   8.007
 1098POPC   C4A16902  13.791  31.924   7.642
 1098POPC   C1B16903  13.609  32.655   8.727
 1098POPC   C2B16904  13.766  32.507   8.343
 1098POPC   C3B16905  13.723  32.591   7.919
 1098POPC   C4B16906  13.636  32.435   7.550
 1099POPC   NC316907  17.421  28.292   9.722
 1099POPC   PO416908  18.016  28.180   9.503
 1099POPC   GL116909  17.654  28.175   9.265
 1099POPC   GL216910  17.335  28.349   9.212
 1099POPC   C1A16911  17.552  28.069   8.857
 1099POPC   D2A16912  17.417  28.056   8.460
 1099POPC   C3A16913  17.737  28.244   8.186
 1099POPC   C4A16914  17.663  28.263   7.767
 1099POPC   C1B16915  17.256  28.557   8.789
 1099POPC   C2B16916  17.363  28.553   8.331
 1099POPC   C3B16917  17.200  28.219   8.012
 1099POPC   C4B16918  17.092  28.191   7.548
 1100POPC   NC316919   3.616  29.415   9.488
 1100POPC   PO416920   3.819  28.845   9.527
 1100POPC   GL116921   3.627  29.052   9.114
 1100POPC   GL216922   3.366  29.363   9.033
 1100POPC   C1A16923   3.701  29.255   8.697
 1100POPC   D2A16924   3.644  29.452   8.322
 1100POPC   C3A16925   3.803  29.146   8.047
 1100POPC   C4A16926   3.673  29.228   7.672
 1100POPC   C1B16927   3.217  29.116   8.637
 1100POPC   C2B16928   3.267  29.144   8.157
 1100POPC   C3B16929   3.312  28.885   7.798
 1100POPC   C4B16930   3.357  28.841   7.363
 1101POPC   NC316931  31.396   0.771  10.081
 1101POPC   PO416932  31.444   0.349   9.541
 1101POPC   GL116933  31.474   0.109   9.133
 1101POPC   GL216934  31.110   0.116   9.171
 1101POPC   C1A16935  31.574   0.156   8.699
 1101POPC   D2A16936  31.497   0.524   8.456
 1101POPC   C3A16937  31.312   0.527   8.060
 1101POPC   C4A16938  31.499   0.661   7.690
 1101POPC   C1B16939  31.126   0.409   8.838
 1101POPC   C2B16940  31.034   0.292   8.425
 1101POPC   C3B16941  30.963   0.135   8.004
 1101POPC   C4B16942  31.021   0.385   7.646
 1102POPC   NC316943  29.266  41.226   9.502
 1102POPC   PO416944  28.888  41.721   9.666
 1102POPC   GL116945  28.990  41.599   9.269
 1102POPC   GL216946  29.355  41.643   9.228
 1102POPC   C1A16947  29.039  41.391   8.890
 1102POPC   D2A16948  29.063  41.472   8.478
 1102POPC   C3A16949  28.819  41.386   8.126
 1102POPC   C4A16950  28.795  41.553   7.710
 1102POPC   C1B16951  29.328  41.818   8.807
 1102POPC   C2B16952  29.432  41.792   8.379
 1102POPC   C3B16953  29.170  41.739   8.014
 1102POPC   C4B16954  29.149  41.957   7.626
 1103POPC   NC316955   2.391  16.857  10.085
 1103POPC   PO416956   2.658  16.741   9.478
 1103POPC   GL116957   2.795  16.813   9.113
 1103POPC   GL216958   3.150  16.799   9.191
 1103POPC   C1A16959   2.750  16.697   8.711
 1103POPC   D2A16960   2.554  16.906   8.361
 1103POPC   C3A16961   2.633  16.607   8.045
 1103POPC   C4A16962   2.842  16.582   7.675
 1103POPC   C1B16963   3.209  16.907   8.788
 1103POPC   C2B16964   3.074  16.842   8.367
 1103POPC   C3B16965   3.022  16.941   7.976
 1103POPC   C4B16966   3.332  16.772   7.700
 1104POPC   NC316967  16.009  38.007   9.654
 1104POPC   PO416968  15.844  37.421   9.359
 1104POPC   GL116969  15.848  37.820   9.190
 1104POPC   GL216970  16.168  37.973   9.163
 1104POPC   C1A16971  15.874  37.773   8.766
 1104POPC   D2A16972  16.136  37.738   8.465
 1104POPC   C3A16973  15.880  37.741   8.130
 1104POPC   C4A16974  15.960  37.492   7.794
 1104POPC   C1B16975  16.308  38.124   8.760
 1104POPC   C2B16976  16.549  38.005   8.375
 1104POPC   C3B16977  16.386  37.788   8.009
 1104POPC   C4B16978  16.290  37.872   7.589
 1105POPC   NC316979  12.211  30.779   9.438
 1105POPC   PO416980  11.923  30.299   9.595
 1105POPC   GL116981  11.862  30.547   9.144
 1105POPC   GL216982  11.916  30.899   9.020
 1105POPC   C1A16983  11.718  30.597   8.681
 1105POPC   D2A16984  11.839  30.773   8.275
 1105POPC   C3A16985  11.971  30.594   7.862
 1105POPC   C4A16986  12.003  30.792   7.453
 1105POPC   C1B16987  12.191  30.826   8.650
 1105POPC   C2B16988  12.350  30.654   8.232
 1105POPC   C3B16989  12.491  30.658   7.788
 1105POPC   C4B16990  12.518  30.879   7.379
 1106POPC   NC316991  27.874  23.137   9.451
 1106POPC   PO416992  27.201  22.953   9.517
 1106POPC   GL116993  27.375  22.808   9.089
 1106POPC   GL216994  27.732  22.778   9.096
 1106POPC   C1A16995  27.552  23.016   8.699
 1106POPC   D2A16996  27.485  23.218   8.324
 1106POPC   C3A16997  27.338  22.902   8.027
 1106POPC   C4A16998  27.264  23.036   7.611
 1106POPC   C1B16999  27.996  22.766   8.703
 1106POPC   C2B17000  27.922  22.860   8.238
 1106POPC   C3B17001  27.768  23.101   7.865
 1106POPC   C4B17002  27.648  22.723   7.626
 1107POPC   NC317003  32.866  17.894   9.420
 1107POPC   PO417004  32.783  18.577   9.505
 1107POPC   GL117005  32.937  18.317   9.141
 1107POPC   GL217006  32.614  18.180   9.065
 1107POPC   C1A17007  32.989  17.989   8.774
 1107POPC   D2A17008  32.818  18.008   8.329
 1107POPC   C3A17009  33.108  17.990   7.975
 1107POPC   C4A17010  33.316  18.310   7.707
 1107POPC   C1B17011  32.755  18.425   8.676
 1107POPC   C2B17012  32.703  18.507   8.251
 1107POPC   C3B17013  32.659  18.283   7.865
 1107POPC   C4B17014  32.856  18.409   7.502
 1108POPC   NC317015  13.665   0.749   9.791
 1108POPC   PO417016  13.538   1.403   9.502
 1108POPC   GL117017  13.655   1.366   9.088
 1108POPC   GL217018  13.342   1.194   9.012
 1108POPC   C1A17019  13.796   1.128   8.700
 1108POPC   D2A17020  14.002   1.065   8.292
 1108POPC   C3A17021  13.772   0.971   7.900
 1108POPC   C4A17022  13.664   1.228   7.564
 1108POPC   C1B17023  13.425   1.484   8.669
 1108POPC   C2B17024  13.605   1.501   8.280
 1108POPC   C3B17025  13.368   1.289   7.981
 1108POPC   C4B17026  13.261   0.968   7.707
 1109POPC   NC317027   8.696  36.204   9.423
 1109POPC   PO417028   9.209  35.759   9.520
 1109POPC   GL117029   9.119  36.048   9.204
 1109POPC   GL217030   8.983  35.817   9.012
 1109POPC   C1A17031   8.881  36.279   8.834
 1109POPC   D2A17032   8.817  36.199   8.415
 1109POPC   C3A17033   8.803  36.437   8.041
 1109POPC   C4A17034   8.626  36.112   7.826
 1109POPC   C1B17035   9.309  36.047   8.745
 1109POPC   C2B17036   9.318  35.911   8.386
 1109POPC   C3B17037   9.142  36.034   8.043
 1109POPC   C4B17038   9.285  36.273   7.757
 1110POPC   NC317039  15.471  38.513   9.712
 1110POPC   PO417040  16.060  38.474   9.696
 1110POPC   GL117041  15.813  38.347   9.336
 1110POPC   GL217042  15.729  38.652   9.219
 1110POPC   C1A17043  15.808  38.252   8.904
 1110POPC   D2A17044  15.898  38.196   8.464
 1110POPC   C3A17045  15.658  38.222   8.104
 1110POPC   C4A17046  15.898  38.139   7.778
 1110POPC   C1B17047  15.704  38.717   8.766
 1110POPC   C2B17048  15.907  38.686   8.345
 1110POPC   C3B17049  15.803  38.717   7.917
 1110POPC   C4B17050  15.752  38.689   7.472
 1111POPC   NC317051  40.520  38.388   9.742
 1111POPC   PO417052  41.042  38.599   9.415
 1111POPC   GL117053  40.687  38.545   9.168
 1111POPC   GL217054  40.836  38.222   9.174
 1111POPC   C1A17055  40.607  38.659   8.720
 1111POPC   D2A17056  40.398  38.657   8.295
 1111POPC   C3A17057  40.733  38.534   8.026
 1111POPC   C4A17058  40.748  38.310   7.676
 1111POPC   C1B17059  40.810  38.191   8.748
 1111POPC   C2B17060  40.975  38.166   8.360
 1111POPC   C3B17061  41.235  38.384   8.100
 1111POPC   C4B17062  41.270  38.246   7.714
 1112POPC   NC317063  36.770  10.599   9.604
 1112POPC   PO417064  36.884   9.904   9.680
 1112POPC   GL117065  36.608  10.099   9.267
 1112POPC   GL217066  36.514  10.477   9.172
 1112POPC   C1A17067  36.689  10.211   8.778
 1112POPC   D2A17068  36.720  10.523   8.399
 1112POPC   C3A17069  36.672  10.404   7.927
 1112POPC   C4A17070  36.897  10.221   7.549
 1112POPC   C1B17071  36.753  10.756   8.891
 1112POPC   C2B17072  36.913  10.979   8.499
 1112POPC   C3B17073  36.936  10.874   8.061
 1112POPC   C4B17074  36.978  10.853   7.638
 1113POPC   NC317075  16.158   8.019   9.689
 1113POPC   PO417076  15.557   8.396   9.545
 1113POPC   GL117077  15.708   8.069   9.236
 1113POPC   GL217078  16.037   7.983   9.184
 1113POPC   C1A17079  15.662   8.090   8.762
 1113POPC   D2A17080  15.775   7.906   8.335
 1113POPC   C3A17081  15.974   8.109   7.957
 1113POPC   C4A17082  15.926   7.966   7.519
 1113POPC   C1B17083  16.152   8.242   8.827
 1113POPC   C2B17084  16.109   8.400   8.391
 1113POPC   C3B17085  16.307   8.504   7.982
 1113POPC   C4B17086  16.266   8.329   7.548
 1114POPC   NC317087  19.407  26.769   9.551
 1114POPC   PO417088  18.812  26.575   9.794
 1114POPC   GL117089  18.883  26.510   9.281
 1114POPC   GL217090  19.236  26.592   9.118
 1114POPC   C1A17091  18.845  26.536   8.814
 1114POPC   D2A17092  18.868  26.887   8.556
 1114POPC   C3A17093  18.893  26.829   8.128
 1114POPC   C4A17094  19.089  26.636   7.798
 1114POPC   C1B17095  19.287  27.036   8.894
 1114POPC   C2B17096  19.317  27.107   8.476
 1114POPC   C3B17097  19.407  26.800   8.188
 1114POPC   C4B17098  19.435  27.035   7.862
 1115POPC   NC317099  22.218  39.615   9.572
 1115POPC   PO417100  22.164  38.929   9.615
 1115POPC   GL117101  22.280  39.026   9.213
 1115POPC   GL217102  22.341  39.375   9.135
 1115POPC   C1A17103  22.068  39.082   8.812
 1115POPC   D2A17104  22.026  39.297   8.453
 1115POPC   C3A17105  22.351  39.283   8.143
 1115POPC   C4A17106  22.184  39.194   7.764
 1115POPC   C1B17107  22.439  39.530   8.705
 1115POPC   C2B17108  22.234  39.758   8.372
 1115POPC   C3B17109  21.959  39.580   8.028
 1115POPC   C4B17110  22.205  39.715   7.707
 1116POPC   NC317111   1.603  11.048   9.563
 1116POPC   PO417112   0.940  11.292   9.501
 1116POPC   GL117113   0.986  11.154   9.131
 1116POPC   GL217114   1.250  10.945   9.195
 1116POPC   C1A17115   1.166  11.292   8.756
 1116POPC   D2A17116   1.041  11.216   8.375
 1116POPC   C3A17117   1.230  11.451   8.086
 1116POPC   C4A17118   1.031  11.426   7.710
 1116POPC   C1B17119   1.525  10.934   8.839
 1116POPC   C2B17120   1.551  11.070   8.387
 1116POPC   C3B17121   1.485  11.039   7.933
 1116POPC   C4B17122   1.369  11.096   7.511
 1117POPC   NC317123  17.092  40.480   9.540
 1117POPC   PO417124  16.522  40.147   9.485
 1117POPC   GL117125  16.630  40.106   9.074
 1117POPC   GL217126  16.979  40.087   8.961
 1117POPC   C1A17127  16.624  40.302   8.681
 1117POPC   D2A17128  16.849  40.170   8.327
 1117POPC   C3A17129  16.571  40.230   7.995
 1117POPC   C4A17130  16.694  40.203   7.590
 1117POPC   C1B17131  16.765  39.788   8.690
 1117POPC   C2B17132  16.710  39.657   8.264
 1117POPC   C3B17133  16.797  39.767   7.839
 1117POPC   C4B17134  16.784  39.738   7.367
 1118POPC   NC317135   0.728   1.213   9.527
 1118POPC   PO417136   0.199   1.629   9.524
 1118POPC   GL117137   0.346   1.377   9.194
 1118POPC   GL217138   0.246   1.054   9.269
 1118POPC   C1A17139   0.487   1.385   8.784
 1118POPC   D2A17140   0.322   1.244   8.412
 1118POPC   C3A17141   0.507   1.349   8.027
 1118POPC   C4A17142   0.475   1.610   7.668
 1118POPC   C1B17143   0.183   0.931   8.823
 1118POPC   C2B17144  44.907   0.939   8.437
 1118POPC   C3B17145   0.096   1.002   8.032
 1118POPC   C4B17146   0.201   1.178   7.626
 1119POPC   NC317147  44.026  39.194   9.565
 1119POPC   PO417148  43.800  39.789   9.665
 1119POPC   GL117149  43.873  39.535   9.209
 1119POPC   GL217150  43.807  39.142   9.121
 1119POPC   C1A17151  43.988  39.393   8.745
 1119POPC   D2A17152  43.736  39.265   8.384
 1119POPC   C3A17153  43.797  39.429   7.986
 1119POPC   C4A17154  44.202  39.395   7.780
 1119POPC   C1B17155  43.551  39.004   8.779
 1119POPC   C2B17156  43.546  38.801   8.350
 1119POPC   C3B17157  43.475  39.015   7.965
 1119POPC   C4B17158  43.540  38.823   7.578
 1120POPC   NC317159   7.215  11.117   9.508
 1120POPC   PO417160   7.707  10.668   9.588
 1120POPC   GL117161   7.747  10.634   9.146
 1120POPC   GL217162   7.423  10.476   9.108
 1120POPC   C1A17163   7.693  10.690   8.697
 1120POPC   D2A17164   7.721  10.952   8.332
 1120POPC   C3A17165   7.581  10.739   7.969
 1120POPC   C4A17166   7.655  10.318   7.704
 1120POPC   C1B17167   7.337  10.259   8.720
 1120POPC   C2B17168   7.366  10.277   8.252
 1120POPC   C3B17169   7.191  10.423   7.861
 1120POPC   C4B17170   7.224  10.821   7.645
 1121POPC   NC317171   7.085   8.291   9.405
 1121POPC   PO417172   6.521   8.036   9.502
 1121POPC   GL117173   6.460   8.155   9.119
 1121POPC   GL217174   6.800   8.074   8.979
 1121POPC   C1A17175   6.423   8.377   8.731
 1121POPC   D2A17176   6.254   8.537   8.317
 1121POPC   C3A17177   6.328   8.289   7.954
 1121POPC   C4A17178   6.524   8.137   7.600
 1121POPC   C1B17179   6.863   7.740   8.628
 1121POPC   C2B17180   6.896   7.760   8.171
 1121POPC   C3B17181   6.799   7.692   7.724
 1121POPC   C4B17182   6.834   7.862   7.290
 1122POPC   NC317183   4.902  31.355   9.577
 1122POPC   PO417184   5.539  31.561   9.574
 1122POPC   GL117185   5.317  31.481   9.187
 1122POPC   GL217186   5.116  31.184   9.144
 1122POPC   C1A17187   5.079  31.637   8.847
 1122POPC   D2A17188   4.901  31.540   8.451
 1122POPC   C3A17189   5.111  31.623   8.075
 1122POPC   C4A17190   4.819  31.869   7.895
 1122POPC   C1B17191   5.304  31.183   8.725
 1122POPC   C2B17192   5.205  31.158   8.284
 1122POPC   C3B17193   5.185  31.148   7.835
 1122POPC   C4B17194   4.900  31.387   7.596
 1123POPC   NC317195  33.339  25.507   9.609
 1123POPC   PO417196  33.203  26.137   9.656
 1123POPC   GL117197  33.106  25.863   9.269
 1123POPC   GL217198  33.081  26.173   9.156
 1123POPC   C1A17199  32.943  25.875   8.802
 1123POPC   D2A17200  32.705  25.908   8.402
 1123POPC   C3A17201  32.925  25.900   8.018
 1123POPC   C4A17202  32.868  25.875   7.575
 1123POPC   C1B17203  33.179  26.367   8.790
 1123POPC   C2B17204  32.956  26.368   8.439
 1123POPC   C3B17205  33.076  26.391   8.057
 1123POPC   C4B17206  33.170  26.267   7.665
 1124POPC   NC317207  29.489  15.062   9.446
 1124POPC   PO417208  29.052  15.517   9.468
 1124POPC   GL117209  29.098  15.220   9.094
 1124POPC   GL217210  29.098  14.833   9.122
 1124POPC   C1A17211  28.934  15.064   8.677
 1124POPC   D2A17212  28.979  15.148   8.242
 1124POPC   C3A17213  29.291  15.445   8.106
 1124POPC   C4A17214  29.160  15.300   7.719
 1124POPC   C1B17215  29.447  14.919   8.812
 1124POPC   C2B17216  29.485  15.092   8.426
 1124POPC   C3B17217  29.388  14.925   8.041
 1124POPC   C4B17218  29.532  14.938   7.666
 1125POPC   NC317219  27.992   4.537   9.283
 1125POPC   PO417220  27.556   4.166   9.587
 1125POPC   GL117221  27.576   4.176   9.165
 1125POPC   GL217222  27.485   4.535   9.189
 1125POPC   C1A17223  27.759   4.277   8.740
 1125POPC   D2A17224  27.835   4.416   8.319
 1125POPC   C3A17225  27.802   4.095   8.011
 1125POPC   C4A17226  27.454   4.013   7.738
 1125POPC   C1B17227  27.258   4.395   8.845
 1125POPC   C2B17228  27.361   4.522   8.474
 1125POPC   C3B17229  27.364   4.383   8.077
 1125POPC   C4B17230  27.666   4.521   7.791
 1126POPC   NC317231  36.427  14.721   9.463
 1126POPC   PO417232  37.097  14.384   9.579
 1126POPC   GL117233  36.911  14.403   9.174
 1126POPC   GL217234  36.722  14.707   9.057
 1126POPC   C1A17235  36.730  14.234   8.814
 1126POPC   D2A17236  36.985  14.228   8.468
 1126POPC   C3A17237  36.720  14.359   8.178
 1126POPC   C4A17238  36.811  14.220   7.810
 1126POPC   C1B17239  37.072  14.650   8.761
 1126POPC   C2B17240  37.015  14.747   8.341
 1126POPC   C3B17241  36.985  14.723   7.912
 1126POPC   C4B17242  37.242  14.451   7.693
 1127POPC   NC317243   6.416   9.415   9.478
 1127POPC   PO417244   6.997   9.005   9.421
 1127POPC   GL117245   6.837   9.299   9.076
 1127POPC   GL217246   6.476   9.390   8.979
 1127POPC   C1A17247   6.855   9.504   8.648
 1127POPC   D2A17248   6.827   9.485   8.180
 1127POPC   C3A17249   6.542   9.789   8.039
 1127POPC   C4A17250   6.423   9.947   7.671
 1127POPC   C1B17251   6.343   9.657   8.622
 1127POPC   C2B17252   6.159   9.506   8.253
 1127POPC   C3B17253   6.324   9.352   7.878
 1127POPC   C4B17254   6.379   9.470   7.424
 1128POPC   NC317255  24.968   5.574   9.444
 1128POPC   PO417256  25.549   5.980   9.658
 1128POPC   GL117257  25.338   6.205   9.253
 1128POPC   GL217258  25.231   5.901   9.144
 1128POPC   C1A17259  25.223   6.223   8.771
 1128POPC   D2A17260  24.986   6.111   8.376
 1128POPC   C3A17261  25.176   6.123   7.929
 1128POPC   C4A17262  25.248   6.128   7.454
 1128POPC   C1B17263  25.317   5.657   8.771
 1128POPC   C2B17264  25.245   5.511   8.376
 1128POPC   C3B17265  25.334   5.637   7.979
 1128POPC   C4B17266  25.111   5.680   7.617
 1129POPC   NC317267  19.207  41.959   9.613
 1129POPC   PO417268  18.830  41.378   9.610
 1129POPC   GL117269  19.020  41.429   9.185
 1129POPC   GL217270  19.158  41.757   9.155
 1129POPC   C1A17271  19.199  41.439   8.741
 1129POPC   D2A17272  18.932  41.296   8.423
 1129POPC   C3A17273  19.085  41.319   8.048
 1129POPC   C4A17274  19.397  41.620   7.901
 1129POPC   C1B17275  18.940  41.865   8.801
 1129POPC   C2B17276  19.149  41.865   8.407
 1129POPC   C3B17277  18.919  41.859   8.069
 1129POPC   C4B17278  18.906  41.661   7.741
 1130POPC   NC317279  18.504   3.208   9.482
 1130POPC   PO417280  17.905   3.538   9.506
 1130POPC   GL117281  18.182   3.459   9.188
 1130POPC   GL217282  18.079   3.104   9.156
 1130POPC   C1A17283  18.395   3.619   8.817
 1130POPC   D2A17284  18.202   3.675   8.427
 1130POPC   C3A17285  18.486   3.672   8.081
 1130POPC   C4A17286  18.389   3.523   7.697
 1130POPC   C1B17287  17.987   3.294   8.757
 1130POPC   C2B17288  17.796   3.293   8.388
 1130POPC   C3B17289  18.079   3.327   8.066
 1130POPC   C4B17290  17.985   3.769   7.944
 1131POPC   NC317291  32.773  43.951   9.427
 1131POPC   PO417292  33.461  43.768   9.507
 1131POPC   GL117293  33.165  43.729   9.183
 1131POPC   GL217294  33.380  43.662   8.955
 1131POPC   C1A17295  32.874  43.657   8.814
 1131POPC   D2A17296  32.885  43.829   8.407
 1131POPC   C3A17297  32.964  43.632   8.023
 1131POPC   C4A17298  32.952  43.777   7.595
 1131POPC   C1B17299  33.185  44.057   8.778
 1131POPC   C2B17300  33.111  44.290   8.380
 1131POPC   C3B17301  32.992  44.159   7.946
 1131POPC   C4B17302  33.246  44.163   7.539
 1132POPC   NC317303  32.709  24.050   9.523
 1132POPC   PO417304  33.431  23.939   9.565
 1132POPC   GL117305  33.250  23.816   9.154
 1132POPC   GL217306  32.879  23.929   9.047
 1132POPC   C1A17307  33.187  23.621   8.742
 1132POPC   D2A17308  32.792  23.502   8.493
 1132POPC   C3A17309  32.628  23.772   8.182
 1132POPC   C4A17310  32.794  23.881   7.762
 1132POPC   C1B17311  32.886  24.019   8.596
 1132POPC   C2B17312  33.131  23.816   8.281
 1132POPC   C3B17313  33.292  23.875   7.929
 1132POPC   C4B17314  33.270  23.849   7.481
 1133POPC   NC317315   1.583  41.869   9.579
 1133POPC   PO417316   1.217  41.287   9.411
 1133POPC   GL117317   1.482  41.416   9.118
 1133POPC   GL217318   1.471  41.779   9.097
 1133POPC   C1A17319   1.308  41.477   8.709
 1133POPC   D2A17320   1.078  41.699   8.401
 1133POPC   C3A17321   1.316  41.591   8.083
 1133POPC   C4A17322   1.377  41.586   7.664
 1133POPC   C1B17323   1.322  41.996   8.749
 1133POPC   C2B17324   1.522  42.040   8.372
 1133POPC   C3B17325   1.711  41.900   8.001
 1133POPC   C4B17326   1.647  42.001   7.590
 1134POPC   NC317327  33.365  43.321   9.451
 1134POPC   PO417328  32.758  43.487   9.421
 1134POPC   GL117329  33.011  43.232   9.115
 1134POPC   GL217330  33.099  42.906   9.265
 1134POPC   C1A17331  33.185  43.265   8.719
 1134POPC   D2A17332  32.840  43.293   8.432
 1134POPC   C3A17333  32.773  43.155   8.022
 1134POPC   C4A17334  32.853  43.294   7.591
 1134POPC   C1B17335  33.181  42.778   8.868
 1134POPC   C2B17336  33.166  42.857   8.430
 1134POPC   C3B17337  33.302  42.762   8.045
 1134POPC   C4B17338  33.012  42.816   7.728
 1135POPC   NC317339  40.231  33.559   9.407
 1135POPC   PO417340  40.114  34.152   9.320
 1135POPC   GL117341  39.886  33.941   9.054
 1135POPC   GL217342  40.156  33.742   8.932
 1135POPC   C1A17343  39.744  33.808   8.638
 1135POPC   D2A17344  40.108  33.702   8.361
 1135POPC   C3A17345  40.078  33.886   7.947
 1135POPC   C4A17346  39.639  33.856   7.753
 1135POPC   C1B17347  39.874  33.375   8.858
 1135POPC   C2B17348  39.657  33.302   8.480
 1135POPC   C3B17349  39.687  33.476   8.081
 1135POPC   C4B17350  39.964  33.457   7.739
 1136POPC   NC317351  29.525  19.263   9.627
 1136POPC   PO417352  28.988  18.893   9.484
 1136POPC   GL117353  29.180  19.189   9.236
 1136POPC   GL217354  29.462  19.010   9.175
 1136POPC   C1A17355  29.234  19.267   8.791
 1136POPC   D2A17356  29.028  19.331   8.400
 1136POPC   C3A17357  29.200  19.215   7.997
 1136POPC   C4A17358  28.897  19.380   7.706
 1136POPC   C1B17359  29.375  18.765   8.801
 1136POPC   C2B17360  29.343  18.901   8.385
 1136POPC   C3B17361  29.388  18.738   7.964
 1136POPC   C4B17362  29.074  18.821   7.659
 1137POPC   NC317363  32.586  18.996   9.460
 1137POPC   PO417364  32.034  18.666   9.561
 1137POPC   GL117365  32.202  18.875   9.170
 1137POPC   GL217366  32.036  19.187   9.014
 1137POPC   C1A17367  32.404  18.950   8.774
 1137POPC   D2A17368  32.099  19.014   8.478
 1137POPC   C3A17369  32.165  19.238   8.136
 1137POPC   C4A17370  32.236  19.092   7.722
 1137POPC   C1B17371  31.687  19.168   8.742
 1137POPC   C2B17372  31.682  19.277   8.309
 1137POPC   C3B17373  31.772  19.309   7.828
 1137POPC   C4B17374  31.831  19.419   7.381
 1138POPC   NC317375  10.242  18.499   9.403
 1138POPC   PO417376  10.746  18.005   9.562
 1138POPC   GL117377  10.552  18.100   9.180
 1138POPC   GL217378  10.694  17.760   9.079
 1138POPC   C1A17379  10.437  18.350   8.799
 1138POPC   D2A17380  10.374  18.210   8.401
 1138POPC   C3A17381  10.430  18.428   8.068
 1138POPC   C4A17382  10.176  18.602   7.806
 1138POPC   C1B17383  10.796  17.985   8.701
 1138POPC   C2B17384  10.914  18.123   8.287
 1138POPC   C3B17385  10.779  18.118   7.849
 1138POPC   C4B17386  10.564  18.347   7.583
 1139POPC   NC317387  11.398   3.013   9.425
 1139POPC   PO417388  10.814   2.682   9.460
 1139POPC   GL117389  11.057   2.620   9.097
 1139POPC   GL217390  11.435   2.583   9.168
 1139POPC   C1A17391  11.037   2.936   8.780
 1139POPC   D2A17392  10.795   2.994   8.395
 1139POPC   C3A17393  11.033   2.830   8.083
 1139POPC   C4A17394  11.208   2.944   7.710
 1139POPC   C1B17395  11.576   2.825   8.818
 1139POPC   C2B17396  11.408   2.923   8.434
 1139POPC   C3B17397  11.550   2.857   8.063
 1139POPC   C4B17398  11.668   2.759   7.657
 1140POPC   NC317399  15.723   2.296   9.435
 1140POPC   PO417400  15.925   1.632   9.513
 1140POPC   GL117401  15.704   1.786   9.188
 1140POPC   GL217402  15.910   2.077   9.032
 1140POPC   C1A17403  15.851   1.635   8.812
 1140POPC   D2A17404  16.146   1.850   8.563
 1140POPC   C3A17405  16.121   1.832   8.120
 1140POPC   C4A17406  15.990   1.844   7.681
 1140POPC   C1B17407  16.151   2.335   8.739
 1140POPC   C2B17408  16.183   2.483   8.326
 1140POPC   C3B17409  15.995   2.310   7.944
 1140POPC   C4B17410  15.781   2.354   7.538
 1141POPC   NC317411  41.654  36.686   9.429
 1141POPC   PO417412  41.081  37.096   9.649
 1141POPC   GL117413  41.328  37.047   9.273
 1141POPC   GL217414  41.224  36.702   9.155
 1141POPC   C1A17415  41.465  37.079   8.826
 1141POPC   D2A17416  41.502  36.799   8.439
 1141POPC   C3A17417  41.673  36.948   8.042
 1141POPC   C4A17418  41.505  37.223   7.726
 1141POPC   C1B17419  41.260  36.478   8.775
 1141POPC   C2B17420  41.335  36.282   8.379
 1141POPC   C3B17421  41.345  36.491   8.006
 1141POPC   C4B17422  41.400  36.743   7.647
 1142POPC   NC317423   9.692  16.854   9.516
 1142POPC   PO417424  10.151  16.311   9.471
 1142POPC   GL117425   9.991  16.648   9.164
 1142POPC   GL217426   9.604  16.623   9.094
 1142POPC   C1A17427   9.890  16.730   8.702
 1142POPC   D2A17428   9.706  16.474   8.359
 1142POPC   C3A17429   9.786  16.614   7.953
 1142POPC   C4A17430  10.022  16.987   7.825
 1142POPC   C1B17431   9.368  16.632   8.723
 1142POPC   C2B17432   9.326  16.800   8.312
 1142POPC   C3B17433   9.328  16.807   7.885
 1142POPC   C4B17434   9.210  17.139   7.629
 1143POPC   NC317435  23.902  37.122   9.588
 1143POPC   PO417436  23.496  36.657   9.391
 1143POPC   GL117437  23.621  37.029   9.141
 1143POPC   GL217438  24.000  37.155   9.107
 1143POPC   C1A17439  23.473  36.898   8.739
 1143POPC   D2A17440  23.676  36.749   8.366
 1143POPC   C3A17441  23.432  36.743   8.028
 1143POPC   C4A17442  23.281  37.059   7.757
 1143POPC   C1B17443  24.010  36.948   8.714
 1143POPC   C2B17444  24.106  37.018   8.262
 1143POPC   C3B17445  23.921  36.800   7.893
 1143POPC   C4B17446  23.980  36.852   7.430
 1144POPC   NC317447  43.441  40.723   9.412
 1144POPC   PO417448  42.768  40.799   9.415
 1144POPC   GL117449  43.045  40.913   9.087
 1144POPC   GL217450  43.149  40.565   9.041
 1144POPC   C1A17451  43.242  40.908   8.672
 1144POPC   D2A17452  43.374  40.658   8.303
 1144POPC   C3A17453  43.446  40.917   7.924
 1144POPC   C4A17454  43.199  41.233   7.734
 1144POPC   C1B17455  42.790  40.585   8.785
 1144POPC   C2B17456  42.673  40.384   8.452
 1144POPC   C3B17457  42.809  40.363   8.090
 1144POPC   C4B17458  43.110  40.540   7.871
 1145POPC   NC317459  13.820  35.283   9.516
 1145POPC   PO417460  13.506  35.884   9.577
 1145POPC   GL117461  13.456  35.638   9.179
 1145POPC   GL217462  13.488  35.273   9.111
 1145POPC   C1A17463  13.642  35.586   8.761
 1145POPC   D2A17464  13.433  35.510   8.382
 1145POPC   C3A17465  13.620  35.431   7.985
 1145POPC   C4A17466  13.627  35.641   7.621
 1145POPC   C1B17467  13.531  35.018   8.732
 1145POPC   C2B17468  13.440  34.997   8.303
 1145POPC   C3B17469  13.713  34.905   7.978
 1145POPC   C4B17470  13.603  35.066   7.615
 1146POPC   NC317471   8.741  12.051   9.377
 1146POPC   PO417472   8.212  11.711   9.434
 1146POPC   GL117473   8.328  11.960   9.077
 1146POPC   GL217474   8.243  12.295   9.077
 1146POPC   C1A17475   8.446  12.089   8.655
 1146POPC   D2A17476   8.503  12.097   8.210
 1146POPC   C3A17477   8.315  12.214   7.888
 1146POPC   C4A17478   8.581  11.937   7.691
 1146POPC   C1B17479   7.951  12.199   8.726
 1146POPC   C2B17480   8.048  12.294   8.328
 1146POPC   C3B17481   7.846  12.038   8.034
 1146POPC   C4B17482   7.631  12.077   7.669
 1147POPC   NC317483  26.290  29.784   9.565
 1147POPC   PO417484  25.649  29.613   9.578
 1147POPC   GL117485  25.872  29.912   9.282
 1147POPC   GL217486  26.191  30.022   9.136
 1147POPC   C1A17487  25.830  29.877   8.807
 1147POPC   D2A17488  25.891  29.554   8.511
 1147POPC   C3A17489  25.873  29.597   8.047
 1147POPC   C4A17490  25.975  29.842   7.627
 1147POPC   C1B17491  26.319  29.950   8.720
 1147POPC   C2B17492  26.192  29.913   8.277
 1147POPC   C3B17493  26.385  30.006   7.875
 1147POPC   C4B17494  26.407  30.057   7.401
 1148POPC   NC317495  43.573  33.166   9.627
 1148POPC   PO417496  44.070  32.802   9.683
 1148POPC   GL117497  43.970  32.770   9.261
 1148POPC   GL217498  43.840  33.077   9.174
 1148POPC   C1A17499  44.090  32.818   8.817
 1148POPC   D2A17500  43.889  33.058   8.501
 1148POPC   C3A17501  44.049  32.920   8.145
 1148POPC   C4A17502  43.884  32.896   7.750
 1148POPC   C1B17503  43.705  33.367   8.855
 1148POPC   C2B17504  43.643  33.507   8.432
 1148POPC   C3B17505  43.712  33.311   8.064
 1148POPC   C4B17506  43.712  33.371   7.664
 1149POPC   NC317507  38.281  37.264   9.601
 1149POPC   PO417508  38.518  36.535   9.479
 1149POPC   GL117509  38.439  36.898   9.229
 1149POPC   GL217510  38.668  36.816   8.979
 1149POPC   C1A17511  38.285  37.155   8.881
 1149POPC   D2A17512  38.062  37.099   8.491
 1149POPC   C3A17513  38.261  37.020   8.128
 1149POPC   C4A17514  38.205  36.902   7.714
 1149POPC   C1B17515  38.837  37.082   8.683
 1149POPC   C2B17516  38.791  37.067   8.230
 1149POPC   C3B17517  38.652  36.789   7.914
 1149POPC   C4B17518  38.633  36.892   7.442
 1150POPC   NC317519   5.784   9.140   9.543
 1150POPC   PO417520   5.684   8.437   9.696
 1150POPC   GL117521   5.894   8.723   9.274
 1150POPC   GL217522   6.065   9.060   9.127
 1150POPC   C1A17523   5.654   8.928   8.849
 1150POPC   D2A17524   5.420   8.787   8.436
 1150POPC   C3A17525   5.629   8.828   8.010
 1150POPC   C4A17526   5.746   8.796   7.555
 1150POPC   C1B17527   6.080   9.175   8.683
 1150POPC   C2B17528   6.050   9.009   8.248
 1150POPC   C3B17529   6.180   8.857   7.834
 1150POPC   C4B17530   6.278   8.958   7.355
 1151POPC   NC317531  27.985  22.153   9.588
 1151POPC   PO417532  28.584  22.158   9.533
 1151POPC   GL117533  28.301  22.197   9.186
 1151POPC   GL217534  28.053  21.907   9.146
 1151POPC   C1A17535  28.399  22.241   8.766
 1151POPC   D2A17536  28.333  22.475   8.409
 1151POPC   C3A17537  28.386  22.311   7.995
 1151POPC   C4A17538  28.018  22.416   7.770
 1151POPC   C1B17539  27.988  21.935   8.707
 1151POPC   C2B17540  28.287  21.938   8.354
 1151POPC   C3B17541  28.421  21.756   7.960
 1151POPC   C4B17542  28.155  21.552   7.671
 1152POPC   NC317543  21.674   4.115   9.492
 1152POPC   PO417544  22.338   4.325   9.606
 1152POPC   GL117545  22.360   4.314   9.191
 1152POPC   GL217546  22.034   4.455   9.150
 1152POPC   C1A17547  22.283   4.088   8.795
 1152POPC   D2A17548  22.216   4.269   8.393
 1152POPC   C3A17549  21.899   4.210   8.108
 1152POPC   C4A17550  22.135   4.141   7.774
 1152POPC   C1B17551  22.318   4.603   8.785
 1152POPC   C2B17552  22.503   4.684   8.360
 1152POPC   C3B17553  22.541   4.367   7.979
 1152POPC   C4B17554  22.398   4.513   7.553
 1153POPC   NC317555  20.049  14.324   9.654
 1153POPC   PO417556  19.302  14.302   9.560
 1153POPC   GL117557  19.626  14.402   9.176
 1153POPC   GL217558  19.953  14.268   9.163
 1153POPC   C1A17559  19.788  14.566   8.764
 1153POPC   D2A17560  19.936  14.770   8.367
 1153POPC   C3A17561  19.917  14.571   7.961
 1153POPC   C4A17562  19.656  14.626   7.633
 1153POPC   C1B17563  19.761  14.056   8.797
 1153POPC   C2B17564  19.805  13.993   8.372
 1153POPC   C3B17565  19.663  14.139   7.982
 1153POPC   C4B17566  19.872  14.186   7.593
 1154POPC   NC317567  25.775  15.393   9.250
 1154POPC   PO417568  25.948  15.862   9.692
 1154POPC   GL117569  25.937  15.888   9.215
 1154POPC   GL217570  25.667  16.046   9.048
 1154POPC   C1A17571  25.956  15.757   8.756
 1154POPC   D2A17572  26.211  15.581   8.452
 1154POPC   C3A17573  26.051  15.822   8.141
 1154POPC   C4A17574  25.852  15.763   7.779
 1154POPC   C1B17575  25.546  16.137   8.653
 1154POPC   C2B17576  25.704  16.200   8.272
 1154POPC   C3B17577  25.536  16.134   7.908
 1154POPC   C4B17578  25.548  16.088   7.459
 1155POPC   NC317579   3.828  18.949   9.517
 1155POPC   PO417580   3.274  19.318   9.531
 1155POPC   GL117581   3.428  19.130   9.165
 1155POPC   GL217582   3.707  19.326   9.148
 1155POPC   C1A17583   3.525  19.105   8.708
 1155POPC   D2A17584   3.484  19.010   8.267
 1155POPC   C3A17585   3.332  19.289   7.998
 1155POPC   C4A17586   3.112  19.062   7.776
 1155POPC   C1B17587   3.996  19.287   8.829
 1155POPC   C2B17588   3.991  19.108   8.426
 1155POPC   C3B17589   3.885  19.233   8.004
 1155POPC   C4B17590   3.630  18.954   7.767
 1156POPC   NC317591  38.926  26.328   9.699
 1156POPC   PO417592  39.454  25.975   9.546
 1156POPC   GL117593  39.250  26.212   9.248
 1156POPC   GL217594  38.883  26.177   9.205
 1156POPC   C1A17595  39.347  26.217   8.806
 1156POPC   D2A17596  39.497  26.313   8.382
 1156POPC   C3A17597  39.291  26.381   7.975
 1156POPC   C4A17598  38.914  26.239   7.786
 1156POPC   C1B17599  38.896  25.913   8.829
 1156POPC   C2B17600  39.032  26.037   8.398
 1156POPC   C3B17601  39.286  25.889   8.053
 1156POPC   C4B17602  39.140  25.811   7.633
 1157POPC   NC317603  35.917  30.438   9.472
 1157POPC   PO417604  36.185  31.096   9.533
 1157POPC   GL117605  35.978  30.893   9.215
 1157POPC   GL217606  36.261  30.684   9.177
 1157POPC   C1A17607  35.826  30.708   8.838
 1157POPC   D2A17608  35.772  30.626   8.394
 1157POPC   C3A17609  35.768  30.885   8.004
 1157POPC   C4A17610  36.116  31.027   7.755
 1157POPC   C1B17611  36.344  30.818   8.798
 1157POPC   C2B17612  36.452  30.701   8.414
 1157POPC   C3B17613  36.258  30.672   8.076
 1157POPC   C4B17614  36.432  30.620   7.699
 1158POPC   NC317615  28.607  29.407   9.813
 1158POPC   PO417616  28.115  29.050   9.567
 1158POPC   GL117617  28.244  28.883   9.134
 1158POPC   GL217618  28.611  28.805   9.094
 1158POPC   C1A17619  28.261  28.751   8.719
 1158POPC   D2A17620  28.255  29.053   8.399
 1158POPC   C3A17621  28.238  28.920   8.022
 1158POPC   C4A17622  28.347  28.973   7.639
 1158POPC   C1B17623  28.689  29.047   8.698
 1158POPC   C2B17624  28.678  29.328   8.316
 1158POPC   C3B17625  28.483  29.391   7.912
 1158POPC   C4B17626  28.704  29.310   7.515
 1159POPC   NC317627   7.863  23.738   9.218
 1159POPC   PO417628   7.329  23.355   9.506
 1159POPC   GL117629   7.336  23.583   9.126
 1159POPC   GL217630   7.356  23.947   9.189
 1159POPC   C1A17631   7.514  23.538   8.705
 1159POPC   D2A17632   7.383  23.456   8.304
 1159POPC   C3A17633   7.624  23.470   7.937
 1159POPC   C4A17634   7.427  23.552   7.569
 1159POPC   C1B17635   7.263  24.004   8.730
 1159POPC   C2B17636   7.279  24.189   8.289
 1159POPC   C3B17637   7.381  23.953   7.912
 1159POPC   C4B17638   7.390  24.041   7.465
 1160POPC   NC317639  10.108  29.883   9.538
 1160POPC   PO417640   9.377  29.896   9.494
 1160POPC   GL117641   9.715  30.041   9.237
 1160POPC   GL217642   9.863  29.719   9.113
 1160POPC   C1A17643   9.758  30.131   8.822
 1160POPC   D2A17644   9.782  29.901   8.457
 1160POPC   C3A17645   9.724  30.183   8.119
 1160POPC   C4A17646  10.019  30.050   7.804
 1160POPC   C1B17647   9.487  29.676   8.864
 1160POPC   C2B17648   9.416  29.538   8.427
 1160POPC   C3B17649   9.572  29.711   8.020
 1160POPC   C4B17650   9.386  29.597   7.633
 1161POPC   NC317651  25.326  30.438   9.429
 1161POPC   PO417652  24.998  31.066   9.500
 1161POPC   GL117653  25.202  30.870   9.160
 1161POPC   GL217654  25.562  30.857   9.256
 1161POPC   C1A17655  25.079  30.625   8.783
 1161POPC   D2A17656  25.277  30.636   8.391
 1161POPC   C3A17657  25.167  30.730   8.005
 1161POPC   C4A17658  25.320  30.590   7.600
 1161POPC   C1B17659  25.589  30.748   8.819
 1161POPC   C2B17660  25.770  30.693   8.396
 1161POPC   C3B17661  25.687  30.801   7.956
 1161POPC   C4B17662  25.417  31.089   7.698
 1162POPC   NC317663  37.525  32.050   9.559
 1162POPC   PO417664  37.674  32.689   9.499
 1162POPC   GL117665  37.803  32.414   9.135
 1162POPC   GL217666  37.775  32.040   9.117
 1162POPC   C1A17667  37.553  32.324   8.753
 1162POPC   D2A17668  37.583  32.106   8.357
 1162POPC   C3A17669  37.449  32.310   7.965
 1162POPC   C4A17670  37.596  32.124   7.577
 1162POPC   C1B17671  37.993  32.061   8.704
 1162POPC   C2B17672  38.056  32.316   8.330
 1162POPC   C3B17673  37.966  32.332   7.877
 1162POPC   C4B17674  38.105  32.058   7.492
 1163POPC   NC317675  41.838  43.373   9.590
 1163POPC   PO417676  41.142  43.487   9.545
 1163POPC   GL117677  41.367  43.346   9.126
 1163POPC   GL217678  41.746  43.217   9.044
 1163POPC   C1A17679  41.414  43.206   8.664
 1163POPC   D2A17680  41.759  43.348   8.387
 1163POPC   C3A17681  41.640  43.249   7.964
 1163POPC   C4A17682  41.377  43.004   7.676
 1163POPC   C1B17683  41.796  42.869   8.714
 1163POPC   C2B17684  41.630  42.813   8.304
 1163POPC   C3B17685  41.827  42.759   7.923
 1163POPC   C4B17686  41.886  43.026   7.577
 1164POPC   NC317687  12.387   1.773   9.438
 1164POPC   PO417688  13.049   2.073   9.541
 1164POPC   GL117689  12.924   2.193   9.153
 1164POPC   GL217690  12.719   1.939   9.113
 1164POPC   C1A17691  12.804   2.239   8.732
 1164POPC   D2A17692  13.048   2.235   8.401
 1164POPC   C3A17693  12.858   2.099   8.039
 1164POPC   C4A17694  12.972   2.210   7.628
 1164POPC   C1B17695  12.535   1.716   8.765
 1164POPC   C2B17696  12.526   1.802   8.328
 1164POPC   C3B17697  12.612   1.633   7.920
 1164POPC   C4B17698  12.747   1.770   7.482
 1165POPC   NC317699  16.223  27.363   9.919
 1165POPC   PO417700  16.100  27.907   9.624
 1165POPC   GL117701  16.022  27.632   9.289
 1165POPC   GL217702  16.341  27.545   9.275
 1165POPC   C1A17703  15.878  27.446   8.878
 1165POPC   D2A17704  15.915  27.606   8.455
 1165POPC   C3A17705  15.842  27.431   8.043
 1165POPC   C4A17706  15.535  27.502   7.751
 1165POPC   C1B17707  16.343  27.635   8.842
 1165POPC   C2B17708  16.422  27.701   8.419
 1165POPC   C3B17709  16.274  27.706   8.008
 1165POPC   C4B17710  16.025  27.743   7.676
 1166POPC   NC317711   7.911  39.338   9.433
 1166POPC   PO417712   8.524  39.059   9.460
 1166POPC   GL117713   8.335  39.295   9.134
 1166POPC   GL217714   8.113  39.022   9.096
 1166POPC   C1A17715   8.107  39.421   8.763
 1166POPC   D2A17716   8.019  39.208   8.375
 1166POPC   C3A17717   8.097  39.459   8.005
 1166POPC   C4A17718   7.942  39.533   7.610
 1166POPC   C1B17719   8.303  38.924   8.745
 1166POPC   C2B17720   8.431  38.811   8.354
 1166POPC   C3B17721   8.312  39.013   8.005
 1166POPC   C4B17722   8.304  39.171   7.600
 1167POPC   NC317723   2.447  17.917   9.582
 1167POPC   PO417724   2.711  18.501   9.453
 1167POPC   GL117725   2.680  18.426   9.058
 1167POPC   GL217726   2.758  18.080   9.154
 1167POPC   C1A17727   2.889  18.434   8.668
 1167POPC   D2A17728   3.059  18.639   8.315
 1167POPC   C3A17729   2.994  18.270   8.078
 1167POPC   C4A17730   2.818  18.187   7.712
 1167POPC   C1B17731   2.497  17.927   8.847
 1167POPC   C2B17732   2.642  17.999   8.423
 1167POPC   C3B17733   2.416  17.979   8.015
 1167POPC   C4B17734   2.370  17.966   7.568
 1168POPC   NC317735  28.121  33.741   9.449
 1168POPC   PO417736  27.548  33.522   9.285
 1168POPC   GL117737  27.779  33.874   9.082
 1168POPC   GL217738  27.641  34.231   9.091
 1168POPC   C1A17739  27.810  33.890   8.644
 1168POPC   D2A17740  27.510  33.686   8.344
 1168POPC   C3A17741  27.747  33.529   7.997
 1168POPC   C4A17742  27.782  33.606   7.556
 1168POPC   C1B17743  27.411  34.204   8.676
 1168POPC   C2B17744  27.646  34.189   8.253
 1168POPC   C3B17745  27.749  34.042   7.814
 1168POPC   C4B17746  27.644  34.075   7.343
 1169POPC   NC317747  13.099   1.244   9.474
 1169POPC   PO417748  12.484   1.301   9.403
 1169POPC   GL117749  12.832   1.429   9.098
 1169POPC   GL217750  13.152   1.661   9.182
 1169POPC   C1A17751  12.926   1.315   8.696
 1169POPC   D2A17752  12.657   1.297   8.353
 1169POPC   C3A17753  12.814   1.117   7.968
 1169POPC   C4A17754  12.634   1.235   7.585
 1169POPC   C1B17755  13.054   1.804   8.749
 1169POPC   C2B17756  13.046   1.668   8.298
 1169POPC   C3B17757  13.102   1.681   7.824
 1169POPC   C4B17758  13.170   1.409   7.453
 1170POPC   NC317759  32.697   6.093   9.382
 1170POPC   PO417760  32.332   5.544   9.473
 1170POPC   GL117761  32.332   5.592   9.078
 1170POPC   GL217762  32.221   5.930   9.085
 1170POPC   C1A17763  32.360   5.704   8.660
 1170POPC   D2A17764  32.195   5.582   8.283
 1170POPC   C3A17765  32.391   5.681   7.911
 1170POPC   C4A17766  32.395   6.089   7.815
 1170POPC   C1B17767  31.872   5.851   8.752
 1170POPC   C2B17768  31.843   5.967   8.322
 1170POPC   C3B17769  31.903   5.815   7.918
 1170POPC   C4B17770  32.069   5.801   7.508
 1171POPC   NC317771  42.245  15.729   9.506
 1171POPC   PO417772  42.188  16.317   9.406
 1171POPC   GL117773  42.304  16.056   9.080
 1171POPC   GL217774  42.467  15.742   9.059
 1171POPC   C1A17775  42.180  16.019   8.675
 1171POPC   D2A17776  41.979  15.968   8.322
 1171POPC   C3A17777  42.063  15.724   7.977
 1171POPC   C4A17778  42.058  15.983   7.614
 1171POPC   C1B17779  42.629  15.794   8.659
 1171POPC   C2B17780  42.514  15.766   8.232
 1171POPC   C3B17781  42.531  15.798   7.787
 1171POPC   C4B17782  42.462  15.801   7.353
 1172POPC   NC317783   3.455   8.522   9.518
 1172POPC   PO417784   3.663   9.159   9.511
 1172POPC   GL117785   3.477   8.927   9.162
 1172POPC   GL217786   3.735   8.692   9.116
 1172POPC   C1A17787   3.415   8.888   8.703
 1172POPC   D2A17788   3.231   9.159   8.385
 1172POPC   C3A17789   3.432   9.139   8.000
 1172POPC   C4A17790   3.374   8.815   7.712
 1172POPC   C1B17791   3.916   8.928   8.751
 1172POPC   C2B17792   3.793   8.891   8.296
 1172POPC   C3B17793   3.879   8.966   7.851
 1172POPC   C4B17794   4.009   9.369   7.728
 1173POPC   NC317795   3.464   2.550   9.399
 1173POPC   PO417796   3.471   1.886   9.428
 1173POPC   GL117797   3.417   2.080   9.081
 1173POPC   GL217798   3.721   2.254   9.082
 1173POPC   C1A17799   3.604   1.890   8.725
 1173POPC   D2A17800   3.779   1.630   8.394
 1173POPC   C3A17801   3.655   1.837   8.003
 1173POPC   C4A17802   3.410   1.779   7.652
 1173POPC   C1B17803   3.575   2.389   8.699
 1173POPC   C2B17804   3.422   2.202   8.352
 1173POPC   C3B17805   3.582   2.372   8.010
 1173POPC   C4B17806   3.609   2.251   7.615
 1174POPC   NC317807   3.459  40.197   9.532
 1174POPC   PO417808   3.609  39.439   9.517
 1174POPC   GL117809   3.489  39.797   9.139
 1174POPC   GL217810   3.274  40.125   9.082
 1174POPC   C1A17811   3.563  40.006   8.690
 1174POPC   D2A17812   3.461  39.849   8.269
 1174POPC   C3A17813   3.612  40.078   7.913
 1174POPC   C4A17814   3.579  40.194   7.464
 1174POPC   C1B17815   3.125  40.328   8.711
 1174POPC   C2B17816   3.254  40.316   8.307
 1174POPC   C3B17817   3.124  40.180   7.896
 1174POPC   C4B17818   3.072  40.196   7.444
 1175POPC   NC317819  37.355   6.007   9.533
 1175POPC   PO417820  37.965   5.961   9.560
 1175POPC   GL117821  37.726   5.773   9.205
 1175POPC   GL217822  37.446   5.514   9.274
 1175POPC   C1A17823  37.702   5.906   8.760
 1175POPC   D2A17824  37.752   5.807   8.315
 1175POPC   C3A17825  37.785   6.116   7.973
 1175POPC   C4A17826  38.127   6.231   7.692
 1175POPC   C1B17827  37.271   5.689   8.888
 1175POPC   C2B17828  37.149   5.817   8.456
 1175POPC   C3B17829  37.307   5.871   8.045
 1175POPC   C4B17830  37.567   5.673   7.765
 1176POPC   NC317831  12.440  34.497   9.547
 1176POPC   PO417832  11.786  34.680   9.523
 1176POPC   GL117833  11.975  34.721   9.139
 1176POPC   GL217834  12.051  34.361   9.143
 1176POPC   C1A17835  12.139  34.629   8.720
 1176POPC   D2A17836  11.921  34.779   8.393
 1176POPC   C3A17837  12.080  34.663   8.038
 1176POPC   C4A17838  11.988  34.802   7.668
 1176POPC   C1B17839  12.379  34.199   8.850
 1176POPC   C2B17840  12.577  34.336   8.487
 1176POPC   C3B17841  12.462  34.342   8.066
 1176POPC   C4B17842  12.374  34.472   7.644
 1177POPC   NC317843   7.754  19.200   9.318
 1177POPC   PO417844   7.319  18.669   9.501
 1177POPC   GL117845   7.399  18.872   9.124
 1177POPC   GL217846   7.685  18.673   9.084
 1177POPC   C1A17847   7.280  19.123   8.735
 1177POPC   D2A17848   7.248  18.969   8.294
 1177POPC   C3A17849   7.222  19.234   7.960
 1177POPC   C4A17850   7.640  19.351   7.775
 1177POPC   C1B17851   7.540  18.690   8.654
 1177POPC   C2B17852   7.686  18.685   8.234
 1177POPC   C3B17853   7.556  18.856   7.839
 1177POPC   C4B17854   7.666  18.763   7.379
 1178POPC   NC317855  39.677  23.219   9.514
 1178POPC   PO417856  40.015  22.671   9.380
 1178POPC   GL117857  40.236  22.835   9.061
 1178POPC   GL217858  40.443  22.566   8.948
 1178POPC   C1A17859  40.057  23.093   8.732
 1178POPC   D2A17860  39.766  23.220   8.418
 1178POPC   C3A17861  39.882  23.117   8.021
 1178POPC   C4A17862  39.894  23.001   7.618
 1178POPC   C1B17863  40.519  22.892   8.646
 1178POPC   C2B17864  40.305  22.974   8.285
 1178POPC   C3B17865  40.166  22.704   7.948
 1178POPC   C4B17866  40.334  22.714   7.528
 1179POPC   NC317867  13.874  21.304   9.555
 1179POPC   PO417868  13.523  21.939   9.755
 1179POPC   GL117869  13.724  21.747   9.368
 1179POPC   GL217870  13.460  21.523   9.257
 1179POPC   C1A17871  13.823  21.485   8.943
 1179POPC   D2A17872  13.786  21.608   8.530
 1179POPC   C3A17873  13.653  21.364   8.189
 1179POPC   C4A17874  13.717  21.467   7.749
 1179POPC   C1B17875  13.264  21.622   8.871
 1179POPC   C2B17876  13.245  21.647   8.428
 1179POPC   C3B17877  13.330  21.703   7.982
 1179POPC   C4B17878  13.260  21.591   7.534
 1180POPC   NC317879  16.507  28.059   9.496
 1180POPC   PO417880  16.637  27.389   9.688
 1180POPC   GL117881  16.842  27.508   9.271
 1180POPC   GL217882  16.948  27.879   9.223
 1180POPC   C1A17883  16.798  27.412   8.816
 1180POPC   D2A17884  16.701  27.260   8.391
 1180POPC   C3A17885  16.736  27.524   8.049
 1180POPC   C4A17886  17.034  27.756   7.851
 1180POPC   C1B17887  17.030  28.062   8.806
 1180POPC   C2B17888  16.916  27.892   8.386
 1180POPC   C3B17889  16.675  28.062   8.045
 1180POPC   C4B17890  16.580  27.926   7.665
 1181POPC   NC317891   3.304  43.583   9.396
 1181POPC   PO417892   2.836  43.092   9.527
 1181POPC   GL117893   2.679  42.945   9.182
 1181POPC   GL217894   2.491  42.649   9.260
 1181POPC   C1A17895   2.452  43.104   8.823
 1181POPC   D2A17896   2.343  43.289   8.419
 1181POPC   C3A17897   2.476  43.134   8.021
 1181POPC   C4A17898   2.901  43.195   7.830
 1181POPC   C1B17899   2.681  42.621   8.822
 1181POPC   C2B17900   2.603  42.805   8.434
 1181POPC   C3B17901   2.793  42.750   8.061
 1181POPC   C4B17902   2.600  42.741   7.701
 1182POPC   NC317903  43.604  30.914   9.396
 1182POPC   PO417904  44.148  30.488   9.567
 1182POPC   GL117905  43.935  30.449   9.157
 1182POPC   GL217906  43.833  30.759   8.970
 1182POPC   C1A17907  44.032  30.410   8.693
 1182POPC   D2A17908  43.948  30.793   8.427
 1182POPC   C3A17909  43.944  30.745   7.983
 1182POPC   C4A17910  43.989  30.393   7.689
 1182POPC   C1B17911  43.515  31.022   8.707
 1182POPC   C2B17912  43.516  31.199   8.289
 1182POPC   C3B17913  43.544  31.049   7.832
 1182POPC   C4B17914  43.862  30.873   7.494
 1183POPC   NC317915   7.558  36.902   9.440
 1183POPC   PO417916   7.008  36.505   9.421
 1183POPC   GL117917   7.175  36.849   9.084
 1183POPC   GL217918   7.465  37.093   8.995
 1183POPC   C1A17919   7.063  37.121   8.708
 1183POPC   D2A17920   7.041  37.421   8.371
 1183POPC   C3A17921   7.187  37.326   7.955
 1183POPC   C4A17922   7.089  37.030   7.636
 1183POPC   C1B17923   7.585  36.929   8.616
 1183POPC   C2B17924   7.338  36.929   8.266
 1183POPC   C3B17925   7.276  36.637   7.923
 1183POPC   C4B17926   7.470  36.702   7.518
 1184POPC   NC317927  22.134  35.486   9.604
 1184POPC   PO417928  22.035  34.830   9.510
 1184POPC   GL117929  22.114  35.176   9.170
 1184POPC   GL217930  22.119  35.567   9.116
 1184POPC   C1A17931  21.976  35.231   8.738
 1184POPC   D2A17932  22.213  35.174   8.352
 1184POPC   C3A17933  21.955  35.302   8.018
 1184POPC   C4A17934  22.047  35.518   7.646
 1184POPC   C1B17935  22.394  35.526   8.801
 1184POPC   C2B17936  22.474  35.648   8.397
 1184POPC   C3B17937  22.480  35.500   7.979
 1184POPC   C4B17938  22.493  35.742   7.595
 1185POPC   NC317939  20.666  32.588   9.645
 1185POPC   PO417940  20.327  32.055   9.396
 1185POPC   GL117941  20.650  32.293   9.178
 1185POPC   GL217942  20.541  32.637   9.162
 1185POPC   C1A17943  20.800  32.119   8.775
 1185POPC   D2A17944  20.628  31.891   8.397
 1185POPC   C3A17945  20.760  32.023   7.964
 1185POPC   C4A17946  20.537  32.139   7.580
 1185POPC   C1B17947  20.683  32.617   8.753
 1185POPC   C2B17948  20.478  32.484   8.354
 1185POPC   C3B17949  20.545  32.536   7.916
 1185POPC   C4B17950  20.349  32.658   7.551
 1186POPC   NC317951  17.066  11.247   9.957
 1186POPC   PO417952  16.453  11.328   9.575
 1186POPC   GL117953  16.686  11.226   9.182
 1186POPC   GL217954  16.946  10.941   9.252
 1186POPC   C1A17955  16.590  11.360   8.738
 1186POPC   D2A17956  16.288  11.325   8.377
 1186POPC   C3A17957  16.410  11.411   7.935
 1186POPC   C4A17958  16.760  11.578   7.655
 1186POPC   C1B17959  17.077  11.128   8.849
 1186POPC   C2B17960  16.900  11.069   8.446
 1186POPC   C3B17961  16.895  11.291   8.060
 1186POPC   C4B17962  16.887  11.088   7.648
 1187POPC   NC317963  13.691  39.575   9.845
 1187POPC   PO417964  13.571  39.035   9.519
 1187POPC   GL117965  13.435  39.116   9.113
 1187POPC   GL217966  13.623  38.820   9.040
 1187POPC   C1A17967  13.451  39.425   8.748
 1187POPC   D2A17968  13.701  39.454   8.338
 1187POPC   C3A17969  13.491  39.363   7.927
 1187POPC   C4A17970  13.218  39.443   7.550
 1187POPC   C1B17971  13.607  38.934   8.623
 1187POPC   C2B17972  13.615  38.970   8.229
 1187POPC   C3B17973  13.624  38.806   7.889
 1187POPC   C4B17974  13.496  39.019   7.549
 1188POPC   NC317975  28.930  21.829   9.540
 1188POPC   PO417976  29.157  22.541   9.516
 1188POPC   GL117977  29.229  22.277   9.145
 1188POPC   GL217978  29.448  22.041   9.300
 1188POPC   C1A17979  29.116  22.115   8.707
 1188POPC   D2A17980  28.782  22.183   8.369
 1188POPC   C3A17981  28.866  22.049   7.933
 1188POPC   C4A17982  28.883  22.281   7.521
 1188POPC   C1B17983  29.551  21.869   8.894
 1188POPC   C2B17984  29.562  21.893   8.463
 1188POPC   C3B17985  29.403  22.190   8.166
 1188POPC   C4B17986  29.328  22.168   7.729
 1189POPC   NC317987  40.548  34.266   9.286
 1189POPC   PO417988  41.060  34.602   9.643
 1189POPC   GL117989  40.817  34.646   9.168
 1189POPC   GL217990  40.522  34.803   9.129
 1189POPC   C1A17991  40.923  34.328   8.775
 1189POPC   D2A17992  41.009  34.512   8.408
 1189POPC   C3A17993  40.790  34.372   8.087
 1189POPC   C4A17994  40.880  34.412   7.699
 1189POPC   C1B17995  40.533  34.616   8.690
 1189POPC   C2B17996  40.578  34.809   8.293
 1189POPC   C3B17997  40.529  34.748   7.856
 1189POPC   C4B17998  40.412  34.248   7.750
 1190POPC   NC317999  28.859   3.839   9.291
 1190POPC   PO418000  28.986   3.249   9.540
 1190POPC   GL118001  29.146   3.402   9.121
 1190POPC   GL218002  29.420   3.672   9.086
 1190POPC   C1A18003  29.138   3.545   8.681
 1190POPC   D2A18004  29.070   3.548   8.257
 1190POPC   C3A18005  29.032   3.196   8.004
 1190POPC   C4A18006  29.123   3.493   7.729
 1190POPC   C1B18007  29.463   3.932   8.728
 1190POPC   C2B18008  29.234   4.019   8.363
 1190POPC   C3B18009  29.390   3.910   7.939
 1190POPC   C4B18010  29.260   3.935   7.516
 1191POPC   NC318011  12.219  11.590   9.492
 1191POPC   PO418012  12.371  12.335   9.501
 1191POPC   GL118013  12.101  12.181   9.194
 1191POPC   GL218014  12.299  11.891   9.112
 1191POPC   C1A18015  11.937  12.278   8.792
 1191POPC   D2A18016  11.968  12.125   8.369
 1191POPC   C3A18017  11.847  12.257   7.964
 1191POPC   C4A18018  12.013  12.027   7.567
 1191POPC   C1B18019  12.433  12.037   8.773
 1191POPC   C2B18020  12.403  11.906   8.389
 1191POPC   C3B18021  12.340  12.088   7.998
 1191POPC   C4B18022  12.536  12.094   7.617
 1192POPC   NC318023  20.692  14.850   9.525
 1192POPC   PO418024  20.520  14.236   9.612
 1192POPC   GL118025  20.529  14.117   9.171
 1192POPC   GL218026  20.692  14.405   9.053
 1192POPC   C1A18027  20.871  13.973   8.862
 1192POPC   D2A18028  21.067  14.138   8.427
 1192POPC   C3A18029  20.720  14.173   8.092
 1192POPC   C4A18030  20.361  14.270   7.797
 1192POPC   C1B18031  20.590  14.306   8.607
 1192POPC   C2B18032  20.274  14.368   8.315
 1192POPC   C3B18033  20.387  14.698   8.063
 1192POPC   C4B18034  20.547  14.745   7.666
 1193POPC   NC318035  19.438   2.594   9.508
 1193POPC   PO418036  18.915   2.970   9.497
 1193POPC   GL118037  19.059   2.674   9.142
 1193POPC   GL218038  19.400   2.679   9.014
 1193POPC   C1A18039  18.856   2.660   8.743
 1193POPC   D2A18040  18.593   2.792   8.406
 1193POPC   C3A18041  18.681   2.649   8.001
 1193POPC   C4A18042  18.931   2.834   7.702
 1193POPC   C1B18043  19.401   2.855   8.628
 1193POPC   C2B18044  19.128   2.799   8.261
 1193POPC   C3B18045  19.379   2.837   7.893
 1193POPC   C4B18046  19.393   2.705   7.458
 1194POPC   NC318047  24.820   4.356   9.508
 1194POPC   PO418048  25.481   4.385   9.652
 1194POPC   GL118049  25.291   4.419   9.224
 1194POPC   GL218050  25.402   4.698   9.027
 1194POPC   C1A18051  25.131   4.242   8.817
 1194POPC   D2A18052  24.969   4.102   8.403
 1194POPC   C3A18053  25.263   4.319   8.107
 1194POPC   C4A18054  25.568   4.291   7.757
 1194POPC   C1B18055  25.044   4.751   8.779
 1194POPC   C2B18056  24.901   4.617   8.386
 1194POPC   C3B18057  25.064   4.774   7.999
 1194POPC   C4B18058  25.384   4.768   7.690
 1195POPC   NC318059  41.823  22.447   9.302
 1195POPC   PO418060  41.681  21.855   9.312
 1195POPC   GL118061  41.386  21.960   8.972
 1195POPC   GL218062  41.294  22.313   9.137
 1195POPC   C1A18063  41.347  21.964   8.515
 1195POPC   D2A18064  41.701  22.232   8.321
 1195POPC   C3A18065  41.789  22.004   7.996
 1195POPC   C4A18066  41.358  21.957   7.907
 1195POPC   C1B18067  41.425  22.413   8.745
 1195POPC   C2B18068  41.191  22.439   8.387
 1195POPC   C3B18069  41.256  22.461   7.975
 1195POPC   C4B18070  41.664  22.492   7.812
 1196POPC   NC318071  29.329   3.564   9.601
 1196POPC   PO418072  29.993   3.508   9.774
 1196POPC   GL118073  29.887   3.489   9.300
 1196POPC   GL218074  29.619   3.248   9.272
 1196POPC   C1A18075  30.107   3.382   8.882
 1196POPC   D2A18076  30.321   3.452   8.473
 1196POPC   C3A18077  30.087   3.454   8.112
 1196POPC   C4A18078  30.044   3.503   7.703
 1196POPC   C1B18079  29.602   3.283   8.818
 1196POPC   C2B18080  29.676   3.549   8.431
 1196POPC   C3B18081  29.587   3.438   7.979
 1196POPC   C4B18082  29.568   3.511   7.501
 1197POPC   NC318083   7.715  38.143   9.349
 1197POPC   PO418084   7.647  37.381   9.381
 1197POPC   GL118085   7.433  37.736   9.159
 1197POPC   GL218086   7.575  38.020   8.893
 1197POPC   C1A18087   7.204  37.696   8.776
 1197POPC   D2A18088   7.306  37.864   8.405
 1197POPC   C3A18089   7.440  37.801   8.015
 1197POPC   C4A18090   7.837  37.871   7.832
 1197POPC   C1B18091   7.717  37.603   8.776
 1197POPC   C2B18092   7.540  37.397   8.462
 1197POPC   C3B18093   7.683  37.332   8.077
 1197POPC   C4B18094   7.806  37.356   7.676
 1198POPC   NC318095  19.826  37.043   9.383
 1198POPC   PO418096  20.027  36.428   9.387
 1198POPC   GL118097  19.773  36.629   9.035
 1198POPC   GL218098  19.532  36.937   9.001
 1198POPC   C1A18099  19.921  36.902   8.676
 1198POPC   D2A18100  19.921  37.044   8.247
 1198POPC   C3A18101  19.945  36.708   7.963
 1198POPC   C4A18102  19.924  36.720   7.525
 1198POPC   C1B18103  19.433  36.689   8.668
 1198POPC   C2B18104  19.492  36.769   8.252
 1198POPC   C3B18105  19.472  36.858   7.823
 1198POPC   C4B18106  19.438  36.560   7.511
 1199POPC   NC318107  10.103  12.952   9.361
 1199POPC   PO418108   9.525  12.756   9.692
 1199POPC   GL118109   9.550  12.722   9.236
 1199POPC   GL218110   9.646  13.033   9.135
 1199POPC   C1A18111   9.473  12.704   8.754
 1199POPC   D2A18112   9.781  12.644   8.377
 1199POPC   C3A18113   9.734  12.859   7.961
 1199POPC   C4A18114   9.394  12.768   7.641
 1199POPC   C1B18115   9.913  12.984   8.740
 1199POPC   C2B18116  10.097  13.070   8.319
 1199POPC   C3B18117  10.091  13.232   7.903
 1199POPC   C4B18118  10.058  13.188   7.440
 1200POPC   NC318119  38.728   4.753   9.393
 1200POPC   PO418120  39.381   4.641   9.313
 1200POPC   GL118121  39.291   5.069   9.157
 1200POPC   GL218122  38.934   5.147   9.111
 1200POPC   C1A18123  39.254   5.246   8.741
 1200POPC   D2A18124  39.525   5.224   8.426
 1200POPC   C3A18125  39.364   5.244   8.015
 1200POPC   C4A18126  39.397   4.981   7.645
 1200POPC   C1B18127  38.871   4.855   8.752
 1200POPC   C2B18128  38.750   4.963   8.330
 1200POPC   C3B18129  38.919   4.993   7.898
 1200POPC   C4B18130  38.938   5.096   7.445
 1201POPC   NC318131  21.567  29.675   9.563
 1201POPC   PO418132  21.075  30.045   9.751
 1201POPC   GL118133  21.175  29.934   9.279
 1201POPC   GL218134  20.904  29.783   9.079
 1201POPC   C1A18135  21.326  29.969   8.811
 1201POPC   D2A18136  21.402  29.833   8.372
 1201POPC   C3A18137  21.442  30.076   7.944
 1201POPC   C4A18138  21.578  29.754   7.640
 1201POPC   C1B18139  20.983  29.576   8.711
 1201POPC   C2B18140  21.074  29.424   8.300
 1201POPC   C3B18141  21.144  29.675   7.951
 1201POPC   C4B18142  20.943  29.853   7.620
 1202POPC   NC318143  33.462   3.285   9.906
 1202POPC   PO418144  33.999   3.438   9.481
 1202POPC   GL118145  33.834   3.628   9.127
 1202POPC   GL218146  34.095   3.870   9.046
 1202POPC   C1A18147  33.782   3.720   8.685
 1202POPC   D2A18148  34.062   3.743   8.339
 1202POPC   C3A18149  33.764   3.658   8.038
 1202POPC   C4A18150  33.596   3.488   7.681
 1202POPC   C1B18151  34.227   3.489   8.801
 1202POPC   C2B18152  34.382   3.352   8.413
 1202POPC   C3B18153  34.222   3.267   8.039
 1202POPC   C4B18154  34.107   3.475   7.702
 1203POPC   NC318155   6.760  15.228   9.482
 1203POPC   PO418156   6.156  14.995   9.604
 1203POPC   GL118157   6.388  14.946   9.213
 1203POPC   GL218158   6.746  14.793   9.228
 1203POPC   C1A18159   6.443  15.135   8.805
 1203POPC   D2A18160   6.765  15.150   8.541
 1203POPC   C3A18161   6.743  15.181   8.133
 1203POPC   C4A18162   6.996  15.298   7.851
 1203POPC   C1B18163   6.633  14.672   8.828
 1203POPC   C2B18164   6.718  14.649   8.406
 1203POPC   C3B18165   6.504  14.715   8.022
 1203POPC   C4B18166   6.578  15.000   7.683
 1204POPC   NC318167  42.269  32.037   9.361
 1204POPC   PO418168  42.041  31.619   9.758
 1204POPC   GL118169  42.042  31.612   9.248
 1204POPC   GL218170  42.354  31.579   9.129
 1204POPC   C1A18171  42.081  31.430   8.760
 1204POPC   D2A18172  42.233  31.640   8.385
 1204POPC   C3A18173  42.357  31.373   8.078
 1204POPC   C4A18174  42.236  31.308   7.662
 1204POPC   C1B18175  42.597  31.574   8.765
 1204POPC   C2B18176  42.712  31.856   8.448
 1204POPC   C3B18177  42.586  31.839   8.036
 1204POPC   C4B18178  42.720  31.535   7.731
 1205POPC   NC318179  35.804  14.240   9.518
 1205POPC   PO418180  36.510  14.267   9.435
 1205POPC   GL118181  36.198  14.386   9.141
 1205POPC   GL218182  35.855  14.261   9.022
 1205POPC   C1A18183  36.185  14.656   8.805
 1205POPC   D2A18184  35.979  14.744   8.442
 1205POPC   C3A18185  36.232  14.526   8.136
 1205POPC   C4A18186  36.497  14.658   7.784
 1205POPC   C1B18187  36.148  14.077   8.731
 1205POPC   C2B18188  36.034  13.931   8.326
 1205POPC   C3B18189  36.061  14.110   7.910
 1205POPC   C4B18190  36.160  14.055   7.514
 1206POPC   NC318191  18.946  33.488   9.560
 1206POPC   PO418192  19.258  34.160   9.486
 1206POPC   GL118193  19.122  33.860   9.238
 1206POPC   GL218194  18.770  33.939   9.335
 1206POPC   C1A18195  19.259  33.748   8.825
 1206POPC   D2A18196  19.375  33.950   8.439
 1206POPC   C3A18197  19.088  33.830   8.120
 1206POPC   C4A18198  19.121  33.592   7.756
 1206POPC   C1B18199  18.770  33.996   8.883
 1206POPC   C2B18200  18.858  34.164   8.467
 1206POPC   C3B18201  18.792  34.287   8.055
 1206POPC   C4B18202  18.938  34.105   7.693
 1207POPC   NC318203   0.618   5.594   9.409
 1207POPC   PO418204   0.465   5.014   9.676
 1207POPC   GL118205   0.411   5.136   9.229
 1207POPC   GL218206   0.055   5.102   9.055
 1207POPC   C1A18207   0.481   5.229   8.807
 1207POPC   D2A18208   0.496   4.973   8.443
 1207POPC   C3A18209   0.699   5.201   8.142
 1207POPC   C4A18210   0.753   5.340   7.752
 1207POPC   C1B18211   0.020   5.087   8.617
 1207POPC   C2B18212   0.099   5.174   8.188
 1207POPC   C3B18213   0.305   5.086   7.788
 1207POPC   C4B18214   0.203   4.896   7.384
 1208POPC   NC318215   3.361  25.149   9.576
 1208POPC   PO418216   3.775  25.697   9.484
 1208POPC   GL118217   3.648  25.431   9.111
 1208POPC   GL218218   3.323  25.261   9.102
 1208POPC   C1A18219   3.520  25.346   8.659
 1208POPC   D2A18220   3.348  25.261   8.262
 1208POPC   C3A18221   3.564  25.293   7.906
 1208POPC   C4A18222   3.730  25.004   7.618
 1208POPC   C1B18223   3.190  24.999   8.787
 1208POPC   C2B18224   3.198  24.796   8.424
 1208POPC   C3B18225   3.061  24.893   8.024
 1208POPC   C4B18226   3.115  25.163   7.715
 1209POPC   NC318227   4.072  16.664   9.530
 1209POPC   PO418228   4.646  16.495   9.274
 1209POPC   GL118229   4.230  16.595   9.049
 1209POPC   GL218230   4.086  16.951   9.121
 1209POPC   C1A18231   4.218  16.598   8.602
 1209POPC   D2A18232   4.559  16.794   8.345
 1209POPC   C3A18233   4.543  16.710   7.891
 1209POPC   C4A18234   4.528  16.707   7.428
 1209POPC   C1B18235   4.287  17.082   8.747
 1209POPC   C2B18236   4.069  17.034   8.364
 1209POPC   C3B18237   3.926  17.095   7.963
 1209POPC   C4B18238   4.184  17.016   7.636
 1210POPC   NC318239  44.226  14.128   9.536
 1210POPC   PO418240  43.537  14.407   9.584
 1210POPC   GL118241  43.788  14.250   9.251
 1210POPC   GL218242  44.089  14.423   9.148
 1210POPC   C1A18243  43.783  14.203   8.795
 1210POPC   D2A18244  43.524  14.540   8.581
 1210POPC   C3A18245  43.543  14.412   8.162
 1210POPC   C4A18246  43.644  14.147   7.801
 1210POPC   C1B18247  43.989  14.694   8.820
 1210POPC   C2B18248  44.000  14.521   8.412
 1210POPC   C3B18249  44.026  14.429   7.985
 1210POPC   C4B18250  44.386  14.494   7.732
 1211POPC   NC318251   2.211  33.281   9.467
 1211POPC   PO418252   2.108  33.974   9.656
 1211POPC   GL118253   1.975  33.937   9.198
 1211POPC   GL218254   1.939  33.587   9.156
 1211POPC   C1A18255   2.046  34.131   8.773
 1211POPC   D2A18256   2.295  34.110   8.427
 1211POPC   C3A18257   2.117  33.894   8.113
 1211POPC   C4A18258   2.081  33.952   7.713
 1211POPC   C1B18259   2.033  33.321   8.828
 1211POPC   C2B18260   1.967  33.546   8.482
 1211POPC   C3B18261   1.780  33.447   8.138
 1211POPC   C4B18262   2.047  33.463   7.804
 1212POPC   NC318263   4.048  10.979   9.385
 1212POPC   PO418264   4.383  11.479   9.702
 1212POPC   GL118265   4.622  11.386   9.255
 1212POPC   GL218266   4.792  11.150   9.306
 1212POPC   C1A18267   4.564  11.417   8.768
 1212POPC   D2A18268   4.489  11.541   8.336
 1212POPC   C3A18269   4.105  11.364   8.177
 1212POPC   C4A18270   3.945  11.427   7.776
 1212POPC   C1B18271   4.879  11.055   8.892
 1212POPC   C2B18272   4.712  11.014   8.461
 1212POPC   C3B18273   4.690  11.142   8.053
 1212POPC   C4B18274   4.461  11.434   7.798
 1213POPC   NC318275  15.214   3.695   9.624
 1213POPC   PO418276  15.703   3.456   9.461
 1213POPC   GL118277  15.374   3.505   9.141
 1213POPC   GL218278  14.994   3.504   9.193
 1213POPC   C1A18279  15.383   3.760   8.771
 1213POPC   D2A18280  15.228   3.704   8.347
 1213POPC   C3A18281  15.340   3.407   8.007
 1213POPC   C4A18282  15.176   3.615   7.663
 1213POPC   C1B18283  14.997   3.383   8.741
 1213POPC   C2B18284  14.956   3.245   8.306
 1213POPC   C3B18285  14.771   3.409   7.910
 1213POPC   C4B18286  14.718   3.479   7.426
 1214POPC   NC318287  32.481  21.967   9.513
 1214POPC   PO418288  31.810  22.042   9.450
 1214POPC   GL118289  32.127  21.985   9.148
 1214POPC   GL218290  32.310  22.270   9.105
 1214POPC   C1A18291  32.316  21.899   8.734
 1214POPC   D2A18292  32.493  21.966   8.313
 1214POPC   C3A18293  32.236  22.097   7.982
 1214POPC   C4A18294  32.160  21.873   7.628
 1214POPC   C1B18295  32.183  22.391   8.678
 1214POPC   C2B18296  32.426  22.499   8.315
 1214POPC   C3B18297  32.441  22.552   7.871
 1214POPC   C4B18298  32.445  22.275   7.513
 1215POPC   NC318299  36.421  41.261   9.501
 1215POPC   PO418300  35.976  41.723   9.395
 1215POPC   GL118301  36.096  41.681   9.011
 1215POPC   GL218302  36.194  41.362   9.056
 1215POPC   C1A18303  36.015  41.499   8.614
 1215POPC   D2A18304  35.975  41.255   8.262
 1215POPC   C3A18305  35.918  41.577   7.972
 1215POPC   C4A18306  35.770  41.717   7.551
 1215POPC   C1B18307  36.527  41.366   8.759
 1215POPC   C2B18308  36.662  41.330   8.352
 1215POPC   C3B18309  36.421  41.349   8.018
 1215POPC   C4B18310  36.590  41.249   7.656
 1216POPC   NC318311  31.139  15.735   9.529
 1216POPC   PO418312  31.777  16.135   9.560
 1216POPC   GL118313  31.539  15.933   9.242
 1216POPC   GL218314  31.615  15.572   9.216
 1216POPC   C1A18315  31.426  16.108   8.840
 1216POPC   D2A18316  31.516  16.345   8.474
 1216POPC   C3A18317  31.465  16.134   8.049
 1216POPC   C4A18318  31.501  16.220   7.612
 1216POPC   C1B18319  31.751  15.705   8.818
 1216POPC   C2B18320  31.740  15.896   8.425
 1216POPC   C3B18321  31.922  15.877   8.015
 1216POPC   C4B18322  31.690  15.762   7.633
 1217POPC   NC318323  41.840  41.328   9.559
 1217POPC   PO418324  41.284  41.772   9.470
 1217POPC   GL118325  41.488  41.451   9.218
 1217POPC   GL218326  41.785  41.681   9.190
 1217POPC   C1A18327  41.626  41.326   8.817
 1217POPC   D2A18328  41.410  41.571   8.492
 1217POPC   C3A18329  41.510  41.326   8.158
 1217POPC   C4A18330  41.514  41.313   7.741
 1217POPC   C1B18331  42.007  41.666   8.811
 1217POPC   C2B18332  41.908  41.565   8.408
 1217POPC   C3B18333  41.741  41.792   8.037
 1217POPC   C4B18334  41.998  41.957   7.695
 1218POPC   NC318335  41.008  14.269   9.296
 1218POPC   PO418336  40.538  14.678   9.469
 1218POPC   GL118337  40.670  14.589   9.066
 1218POPC   GL218338  41.007  14.743   9.071
 1218POPC   C1A18339  40.686  14.281   8.720
 1218POPC   D2A18340  40.410  14.102   8.418
 1218POPC   C3A18341  40.655  14.057   8.056
 1218POPC   C4A18342  40.678  14.375   7.752
 1218POPC   C1B18343  40.940  14.741   8.632
 1218POPC   C2B18344  40.783  14.553   8.251
 1218POPC   C3B18345  41.086  14.595   7.936
 1218POPC   C4B18346  41.302  14.888   7.771
 1219POPC   NC318347  29.371  42.458   9.509
 1219POPC   PO418348  28.764  42.328   9.609
 1219POPC   GL118349  28.923  42.416   9.224
 1219POPC   GL218350  29.105  42.104   9.217
 1219POPC   C1A18351  29.212  42.473   8.845
 1219POPC   D2A18352  29.093  42.549   8.412
 1219POPC   C3A18353  29.114  42.282   8.053
 1219POPC   C4A18354  29.355  42.464   7.744
 1219POPC   C1B18355  28.885  42.083   8.821
 1219POPC   C2B18356  28.935  41.974   8.426
 1219POPC   C3B18357  28.654  41.869   8.123
 1219POPC   C4B18358  28.699  42.104   7.799
 1220POPC   NC318359   5.481  38.943   9.396
 1220POPC   PO418360   5.972  39.353   9.732
 1220POPC   GL118361   5.832  39.325   9.299
 1220POPC   GL218362   5.917  39.037   9.115
 1220POPC   C1A18363   5.957  39.472   8.867
 1220POPC   D2A18364   5.857  39.586   8.440
 1220POPC   C3A18365   5.828  39.366   8.093
 1220POPC   C4A18366   5.700  39.350   7.661
 1220POPC   C1B18367   5.569  39.125   8.752
 1220POPC   C2B18368   5.413  39.148   8.295
 1220POPC   C3B18369   5.600  38.932   7.917
 1220POPC   C4B18370   5.570  38.898   7.440
 1221POPC   NC318371   3.838  31.008   9.905
 1221POPC   PO418372   3.392  30.545   9.496
 1221POPC   GL118373   3.564  30.680   9.099
 1221POPC   GL218374   3.230  30.597   9.007
 1221POPC   C1A18375   3.881  30.672   8.752
 1221POPC   D2A18376   3.940  30.358   8.407
 1221POPC   C3A18377   3.929  30.515   7.981
 1221POPC   C4A18378   3.780  30.588   7.560
 1221POPC   C1B18379   3.388  30.777   8.620
 1221POPC   C2B18380   3.636  30.785   8.293
 1221POPC   C3B18381   3.435  30.679   7.940
 1221POPC   C4B18382   3.295  30.920   7.634
 1222POPC   NC318383  14.700  37.061   9.541
 1222POPC   PO418384  14.174  36.628   9.540
 1222POPC   GL118385  14.300  36.867   9.197
 1222POPC   GL218386  14.250  37.184   9.272
 1222POPC   C1A18387  14.525  37.041   8.831
 1222POPC   D2A18388  14.712  36.841   8.461
 1222POPC   C3A18389  14.592  36.978   8.048
 1222POPC   C4A18390  14.270  36.916   7.735
 1222POPC   C1B18391  14.036  37.210   8.885
 1222POPC   C2B18392  14.175  37.185   8.457
 1222POPC   C3B18393  14.036  37.238   8.050
 1222POPC   C4B18394  14.136  37.423   7.661
 1223POPC   NC318395  39.000  31.371   9.454
 1223POPC   PO418396  39.617  31.440   9.493
 1223POPC   GL118397  39.535  31.767   9.144
 1223POPC   GL218398  39.168  31.828   9.183
 1223POPC   C1A18399  39.396  31.742   8.679
 1223POPC   D2A18400  39.163  31.366   8.495
 1223POPC   C3A18401  39.223  31.215   8.072
 1223POPC   C4A18402  39.403  31.452   7.776
 1223POPC   C1B18403  38.911  31.665   8.827
 1223POPC   C2B18404  38.866  31.785   8.415
 1223POPC   C3B18405  39.163  31.734   8.110
 1223POPC   C4B18406  39.053  31.778   7.677
 1224POPC   NC318407  12.285  19.728   9.345
 1224POPC   PO418408  11.712  19.996   9.557
 1224POPC   GL118409  11.888  19.922   9.101
 1224POPC   GL218410  11.969  19.571   8.956
 1224POPC   C1A18411  12.101  19.995   8.683
 1224POPC   D2A18412  12.004  20.144   8.255
 1224POPC   C3A18413  12.182  19.849   7.944
 1224POPC   C4A18414  12.477  20.168   7.803
 1224POPC   C1B18415  11.689  19.684   8.641
 1224POPC   C2B18416  11.773  19.701   8.232
 1224POPC   C3B18417  11.686  19.930   7.882
 1224POPC   C4B18418  11.771  19.580   7.657
 1225POPC   NC318419  26.261  13.592   9.339
 1225POPC   PO418420  26.042  14.058   9.730
 1225POPC   GL118421  25.837  13.819   9.191
 1225POPC   GL218422  25.787  14.014   8.936
 1225POPC   C1A18423  26.060  13.645   8.731
 1225POPC   D2A18424  25.941  13.291   8.469
 1225POPC   C3A18425  26.133  13.289   8.062
 1225POPC   C4A18426  25.885  13.182   7.732
 1225POPC   C1B18427  25.768  14.002   8.498
 1225POPC   C2B18428  25.894  13.724   8.161
 1225POPC   C3B18429  25.822  13.691   7.703
 1225POPC   C4B18430  25.618  13.826   7.254
 1226POPC   NC318431  38.303  39.730   9.455
 1226POPC   PO418432  38.853  40.115   9.467
 1226POPC   GL118433  38.641  39.998   9.146
 1226POPC   GL218434  38.772  39.671   9.136
 1226POPC   C1A18435  38.390  40.087   8.781
 1226POPC   D2A18436  38.425  40.221   8.358
 1226POPC   C3A18437  38.148  40.019   8.064
 1226POPC   C4A18438  37.951  40.100   7.674
 1226POPC   C1B18439  38.534  39.619   8.808
 1226POPC   C2B18440  38.428  39.703   8.399
 1226POPC   C3B18441  38.642  39.802   8.027
 1226POPC   C4B18442  38.426  39.840   7.660
 1227POPC   NC318443  22.647   1.120   9.746
 1227POPC   PO418444  23.198   0.934   9.332
 1227POPC   GL118445  22.965   0.977   8.971
 1227POPC   GL218446  22.599   0.957   9.122
 1227POPC   C1A18447  23.081   1.137   8.592
 1227POPC   D2A18448  22.938   1.416   8.302
 1227POPC   C3A18449  23.131   1.362   7.907
 1227POPC   C4A18450  23.084   1.140   7.492
 1227POPC   C1B18451  22.529   1.111   8.700
 1227POPC   C2B18452  22.687   0.975   8.303
 1227POPC   C3B18453  22.771   0.999   7.859
 1227POPC   C4B18454  22.545   0.975   7.459
 1228POPC   NC318455  39.817   1.779   9.503
 1228POPC   PO418456  40.260   2.312   9.429
 1228POPC   GL118457  40.054   2.068   9.152
 1228POPC   GL218458  39.733   2.177   9.071
 1228POPC   C1A18459  40.162   1.804   8.820
 1228POPC   D2A18460  40.017   1.656   8.431
 1228POPC   C3A18461  40.244   1.734   8.066
 1228POPC   C4A18462  40.111   1.628   7.724
 1228POPC   C1B18463  39.698   1.974   8.692
 1228POPC   C2B18464  39.556   2.075   8.293
 1228POPC   C3B18465  39.723   1.797   8.005
 1228POPC   C4B18466  39.617   1.554   7.641
 1229POPC   NC318467  25.244  28.527   9.334
 1229POPC   PO418468  25.431  27.949   9.543
 1229POPC   GL118469  25.614  28.038   9.139
 1229POPC   GL218470  25.755  28.388   9.126
 1229POPC   C1A18471  25.470  28.111   8.749
 1229POPC   D2A18472  25.272  28.221   8.398
 1229POPC   C3A18473  25.319  28.000   8.031
 1229POPC   C4A18474  25.057  27.969   7.703
 1229POPC   C1B18475  25.556  28.673   8.789
 1229POPC   C2B18476  25.253  28.746   8.453
 1229POPC   C3B18477  25.251  28.574   8.033
 1229POPC   C4B18478  25.493  28.682   7.711
 1230POPC   NC318479  27.714   3.071   9.558
 1230POPC   PO418480  27.466   2.408   9.534
 1230POPC   GL118481  27.442   2.638   9.125
 1230POPC   GL218482  27.734   2.486   9.003
 1230POPC   C1A18483  27.585   2.944   8.758
 1230POPC   D2A18484  27.747   3.272   8.465
 1230POPC   C3A18485  27.688   3.157   8.026
 1230POPC   C4A18486  27.349   2.920   7.835
 1230POPC   C1B18487  27.791   2.475   8.553
 1230POPC   C2B18488  27.634   2.655   8.180
 1230POPC   C3B18489  27.728   2.580   7.762
 1230POPC   C4B18490  27.773   2.565   7.315
 1231POPC   NC318491  32.095  36.132   9.547
 1231POPC   PO418492  32.409  35.665   9.184
 1231POPC   GL118493  32.133  36.000   9.056
 1231POPC   GL218494  32.300  36.316   9.075
 1231POPC   C1A18495  31.919  36.015   8.664
 1231POPC   D2A18496  32.053  35.836   8.275
 1231POPC   C3A18497  32.369  35.989   7.981
 1231POPC   C4A18498  32.338  36.044   7.529
 1231POPC   C1B18499  31.953  36.506   8.829
 1231POPC   C2B18500  31.764  36.441   8.421
 1231POPC   C3B18501  31.889  36.252   8.037
 1231POPC   C4B18502  31.973  36.402   7.651
 1232POPC   NC318503  27.123  33.548   9.433
 1232POPC   PO418504  26.701  34.040   9.403
 1232POPC   GL118505  26.902  34.009   9.021
 1232POPC   GL218506  27.239  33.863   9.031
 1232POPC   C1A18507  26.683  33.904   8.653
 1232POPC   D2A18508  26.473  33.666   8.400
 1232POPC   C3A18509  26.601  33.736   7.979
 1232POPC   C4A18510  26.788  34.057   7.791
 1232POPC   C1B18511  27.020  33.561   8.757
 1232POPC   C2B18512  26.986  33.619   8.315
 1232POPC   C3B18513  27.168  33.714   7.905
 1232POPC   C4B18514  27.013  33.510   7.525
 1233POPC   NC318515   6.000  34.868   9.389
 1233POPC   PO418516   5.420  34.755   9.408
 1233POPC   GL118517   5.672  34.454   9.185
 1233POPC   GL218518   6.057  34.475   9.078
 1233POPC   C1A18519   5.662  34.542   8.781
 1233POPC   D2A18520   5.680  34.838   8.474
 1233POPC   C3A18521   5.833  34.613   8.137
 1233POPC   C4A18522   5.696  34.462   7.745
 1233POPC   C1B18523   6.155  34.777   8.722
 1233POPC   C2B18524   6.411  34.942   8.363
 1233POPC   C3B18525   6.407  34.796   7.946
 1233POPC   C4B18526   6.182  34.520   7.691
 1234POPC   NC318527  32.738  13.364   9.498
 1234POPC   PO418528  33.480  13.591   9.573
 1234POPC   GL118529  33.163  13.574   9.264
 1234POPC   GL218530  33.079  13.217   9.171
 1234POPC   C1A18531  32.972  13.623   8.864
 1234POPC   D2A18532  32.844  13.745   8.451
 1234POPC   C3A18533  32.999  13.490   8.133
 1234POPC   C4A18534  33.179  13.623   7.766
 1234POPC   C1B18535  32.730  13.160   8.811
 1234POPC   C2B18536  32.724  13.079   8.337
 1234POPC   C3B18537  32.733  13.135   7.854
 1234POPC   C4B18538  32.745  13.453   7.535
 1235POPC   NC318539  31.293  34.821   9.416
 1235POPC   PO418540  31.707  34.391   9.705
 1235POPC   GL118541  31.543  34.362   9.236
 1235POPC   GL218542  31.260  34.473   9.023
 1235POPC   C1A18543  31.706  34.518   8.810
 1235POPC   D2A18544  31.776  34.596   8.372
 1235POPC   C3A18545  31.460  34.443   8.116
 1235POPC   C4A18546  31.478  34.452   7.694
 1235POPC   C1B18547  31.297  34.851   8.767
 1235POPC   C2B18548  31.378  34.900   8.364
 1235POPC   C3B18549  31.361  34.934   7.909
 1235POPC   C4B18550  31.393  35.113   7.504
 1236POPC   NC318551   0.813  24.695   9.363
 1236POPC   PO418552   0.565  25.266   9.520
 1236POPC   GL118553   0.381  25.328   9.136
 1236POPC   GL218554   0.032  25.383   9.067
 1236POPC   C1A18555   0.276  25.092   8.739
 1236POPC   D2A18556   0.089  25.239   8.363
 1236POPC   C3A18557   0.298  25.098   7.977
 1236POPC   C4A18558   0.721  25.157   7.808
 1236POPC   C1B18559   0.273  25.616   8.744
 1236POPC   C2B18560   0.157  25.737   8.383
 1236POPC   C3B18561   0.322  25.603   7.995
 1236POPC   C4B18562   0.203  25.436   7.576
 1237POPC   NC318563  16.916  39.631   9.349
 1237POPC   PO418564  16.699  39.229   9.841
 1237POPC   GL118565  16.902  39.110   9.345
 1237POPC   GL218566  16.645  39.027   9.040
 1237POPC   C1A18567  17.072  39.217   8.865
 1237POPC   D2A18568  16.845  39.157   8.441
 1237POPC   C3A18569  16.999  39.079   8.022
 1237POPC   C4A18570  16.914  39.301   7.629
 1237POPC   C1B18571  16.475  39.366   8.737
 1237POPC   C2B18572  16.242  39.491   8.398
 1237POPC   C3B18573  16.421  39.334   8.003
 1237POPC   C4B18574  16.433  39.480   7.601
 1238POPC   NC318575  11.823   0.167   9.361
 1238POPC   PO418576  12.317   0.558   9.650
 1238POPC   GL118577  12.289   0.527   9.198
 1238POPC   GL218578  12.262   0.186   9.101
 1238POPC   C1A18579  12.169   0.597   8.740
 1238POPC   D2A18580  12.250   0.344   8.346
 1238POPC   C3A18581  12.062   0.419   7.942
 1238POPC   C4A18582  12.176   0.290   7.524
 1238POPC   C1B18583  11.958   0.126   8.734
 1238POPC   C2B18584  11.823   0.031   8.328
 1238POPC   C3B18585  11.611   0.187   8.041
 1238POPC   C4B18586  11.654   0.186   7.642
 1239POPC   NC318587  20.169  17.828   9.530
 1239POPC   PO418588  19.730  17.382   9.427
 1239POPC   GL118589  19.939  17.300   9.041
 1239POPC   GL218590  20.077  17.593   9.082
 1239POPC   C1A18591  19.887  17.311   8.607
 1239POPC   D2A18592  19.514  17.432   8.447
 1239POPC   C3A18593  19.646  17.482   8.040
 1239POPC   C4A18594  19.724  17.137   7.820
 1239POPC   C1B18595  20.248  17.639   8.707
 1239POPC   C2B18596  20.053  17.753   8.307
 1239POPC   C3B18597  20.135  17.607   7.879
 1239POPC   C4B18598  20.121  17.865   7.498
 1240POPC   NC318599  12.294  15.153   9.348
 1240POPC   PO418600  11.650  14.860   9.542
 1240POPC   GL118601  11.840  15.022   9.161
 1240POPC   GL218602  11.647  15.053   8.890
 1240POPC   C1A18603  12.137  14.946   8.782
 1240POPC   D2A18604  12.123  15.158   8.394
 1240POPC   C3A18605  12.283  15.111   8.013
 1240POPC   C4A18606  11.931  15.084   7.794
 1240POPC   C1B18607  11.939  15.417   8.787
 1240POPC   C2B18608  11.884  15.610   8.389
 1240POPC   C3B18609  11.631  15.569   8.000
 1240POPC   C4B18610  11.776  15.517   7.584
 1241POPC   NC318611  41.030   3.943   9.598
 1241POPC   PO418612  40.854   4.519   9.967
 1241POPC   GL118613  40.873   4.382   9.452
 1241POPC   GL218614  41.182   4.415   9.330
 1241POPC   C1A18615  40.734   4.316   8.963
 1241POPC   D2A18616  40.794   4.606   8.561
 1241POPC   C3A18617  40.672   4.488   8.122
 1241POPC   C4A18618  40.724   4.097   7.909
 1241POPC   C1B18619  41.212   4.489   8.868
 1241POPC   C2B18620  41.268   4.291   8.460
 1241POPC   C3B18621  41.175   4.305   8.038
 1241POPC   C4B18622  41.250   4.313   7.607
 1242POPC   NC318623   8.669  15.350   9.765
 1242POPC   PO418624   9.282  15.016   9.656
 1242POPC   GL118625   8.969  14.937   9.331
 1242POPC   GL218626   8.885  15.283   9.266
 1242POPC   C1A18627   8.913  14.776   8.906
 1242POPC   D2A18628   8.782  14.987   8.528
 1242POPC   C3A18629   8.928  14.847   8.132
 1242POPC   C4A18630   8.899  14.979   7.694
 1242POPC   C1B18631   8.947  15.378   8.830
 1242POPC   C2B18632   8.758  15.479   8.402
 1242POPC   C3B18633   8.965  15.405   8.007
 1242POPC   C4B18634   8.816  15.516   7.600
 1243POPC   NC318635  28.600  18.602   9.526
 1243POPC   PO418636  28.269  19.155   9.595
 1243POPC   GL118637  28.407  19.025   9.213
 1243POPC   GL218638  28.199  18.729   9.207
 1243POPC   C1A18639  28.562  19.109   8.792
 1243POPC   D2A18640  28.673  18.920   8.375
 1243POPC   C3A18641  28.547  19.063   7.940
 1243POPC   C4A18642  28.573  18.782   7.556
 1243POPC   C1B18643  28.085  18.832   8.811
 1243POPC   C2B18644  27.897  18.813   8.432
 1243POPC   C3B18645  28.086  18.831   8.040
 1243POPC   C4B18646  28.119  18.985   7.621
 1244POPC   NC318647  32.629   7.026   9.455
 1244POPC   PO418648  32.904   7.706   9.447
 1244POPC   GL118649  33.010   7.351   9.175
 1244POPC   GL218650  32.801   7.319   8.959
 1244POPC   C1A18651  33.219   7.148   8.769
 1244POPC   D2A18652  33.293   7.286   8.366
 1244POPC   C3A18653  33.242   7.074   7.970
 1244POPC   C4A18654  32.984   7.282   7.673
 1244POPC   C1B18655  33.084   7.656   8.753
 1244POPC   C2B18656  33.042   7.731   8.315
 1244POPC   C3B18657  32.772   7.485   8.081
 1244POPC   C4B18658  32.491   7.707   7.854
 1245POPC   NC318659  29.345   6.694   9.526
 1245POPC   PO418660  28.636   6.775   9.592
 1245POPC   GL118661  28.897   6.749   9.226
 1245POPC   GL218662  29.012   6.438   9.203
 1245POPC   C1A18663  29.136   6.723   8.805
 1245POPC   D2A18664  29.286   6.695   8.375
 1245POPC   C3A18665  29.147   6.846   7.928
 1245POPC   C4A18666  28.952   6.731   7.486
 1245POPC   C1B18667  29.334   6.269   8.940
 1245POPC   C2B18668  29.394   6.193   8.500
 1245POPC   C3B18669  29.189   6.282   8.089
 1245POPC   C4B18670  29.283   6.406   7.671
 1246POPC   NC318671   2.279  40.540   9.333
 1246POPC   PO418672   1.731  40.774   9.470
 1246POPC   GL118673   1.820  40.728   9.082
 1246POPC   GL218674   1.480  40.647   8.966
 1246POPC   C1A18675   2.010  40.639   8.706
 1246POPC   D2A18676   1.910  40.441   8.326
 1246POPC   C3A18677   2.254  40.447   8.059
 1246POPC   C4A18678   2.289  40.584   7.653
 1246POPC   C1B18679   1.642  41.052   8.743
 1246POPC   C2B18680   1.906  41.048   8.368
 1246POPC   C3B18681   1.916  40.832   7.964
 1246POPC   C4B18682   1.558  40.719   7.712
 1247POPC   NC318683  30.692   8.632   9.571
 1247POPC   PO418684  30.557   9.307   9.430
 1247POPC   GL118685  30.738   8.949   9.184
 1247POPC   GL218686  30.485   8.656   9.106
 1247POPC   C1A18687  30.929   8.830   8.810
 1247POPC   D2A18688  30.843   9.044   8.459
 1247POPC   C3A18689  30.727   8.883   8.052
 1247POPC   C4A18690  31.016   8.769   7.759
 1247POPC   C1B18691  30.386   8.967   8.798
 1247POPC   C2B18692  30.316   8.923   8.366
 1247POPC   C3B18693  30.270   9.106   7.938
 1247POPC   C4B18694  30.520   9.059   7.540
 1248POPC   NC318695  37.504  43.920   9.510
 1248POPC   PO418696  38.183  44.048   9.512
 1248POPC   GL118697  37.867  43.877   9.099
 1248POPC   GL218698  37.473  43.777   9.043
 1248POPC   C1A18699  37.727  43.703   8.634
 1248POPC   D2A18700  37.633  43.687   8.146
 1248POPC   C3A18701  37.876  43.927   7.884
 1248POPC   C4A18702  37.987  43.987   7.441
 1248POPC   C1B18703  37.341  44.047   8.683
 1248POPC   C2B18704  37.395  44.149   8.238
 1248POPC   C3B18705  37.392  44.049   7.803
 1248POPC   C4B18706  37.511  44.186   7.358
 1249POPC   NC318707   7.703   7.510   9.499
 1249POPC   PO418708   7.148   7.227   9.564
 1249POPC   GL118709   7.449   7.246   9.144
 1249POPC   GL218710   7.604   7.591   9.025
 1249POPC   C1A18711   7.342   7.312   8.709
 1249POPC   D2A18712   7.395   7.619   8.350
 1249POPC   C3A18713   7.264   7.458   7.936
 1249POPC   C4A18714   7.089   7.333   7.515
 1249POPC   C1B18715   7.844   7.433   8.694
 1249POPC   C2B18716   7.952   7.207   8.319
 1249POPC   C3B18717   7.751   7.244   7.951
 1249POPC   C4B18718   7.709   7.660   7.815
 1250POPC   NC318719   0.601  23.031   9.858
 1250POPC   PO418720   0.149  23.423   9.470
 1250POPC   GL118721   0.295  23.206   9.145
 1250POPC   GL218722   0.635  23.106   9.325
 1250POPC   C1A18723   0.105  23.082   8.761
 1250POPC   D2A18724   0.397  23.110   8.408
 1250POPC   C3A18725   0.332  22.959   8.008
 1250POPC   C4A18726   0.350  22.547   7.849
 1250POPC   C1B18727   0.678  23.098   8.865
 1250POPC   C2B18728   0.901  23.092   8.511
 1250POPC   C3B18729   0.833  22.845   8.139
 1250POPC   C4B18730   0.727  22.863   7.713
 1251POPC   NC318731  14.656  25.976   9.649
 1251POPC   PO418732  15.359  26.271   9.535
 1251POPC   GL118733  15.271  26.112   9.126
 1251POPC   GL218734  14.982  25.922   9.179
 1251POPC   C1A18735  15.295  25.916   8.724
 1251POPC   D2A18736  15.243  26.100   8.336
 1251POPC   C3A18737  15.424  25.919   7.992
 1251POPC   C4A18738  15.287  25.885   7.577
 1251POPC   C1B18739  14.804  25.730   8.783
 1251POPC   C2B18740  14.979  25.661   8.385
 1251POPC   C3B18741  14.926  25.814   7.979
 1251POPC   C4B18742  14.729  25.795   7.611
 1252POPC   NC318743  19.264  43.711   9.719
 1252POPC   PO418744  18.613  43.934   9.587
 1252POPC   GL118745  18.917  43.907   9.249
 1252POPC   GL218746  18.761  43.636   9.160
 1252POPC   C1A18747  19.150  44.024   8.855
 1252POPC   D2A18748  19.364  43.937   8.438
 1252POPC   C3A18749  19.228  44.114   8.050
 1252POPC   C4A18750  18.946  43.992   7.747
 1252POPC   C1B18751  18.925  43.548   8.767
 1252POPC   C2B18752  18.791  43.396   8.377
 1252POPC   C3B18753  18.953  43.506   7.970
 1252POPC   C4B18754  18.773  43.572   7.536
 1253POPC   NC318755  23.067  42.683   9.821
 1253POPC   PO418756  23.238  41.961   9.648
 1253POPC   GL118757  23.216  42.236   9.234
 1253POPC   GL218758  22.931  42.462   9.182
 1253POPC   C1A18759  23.184  42.304   8.782
 1253POPC   D2A18760  23.410  42.514   8.466
 1253POPC   C3A18761  23.163  42.498   8.084
 1253POPC   C4A18762  23.102  42.128   7.888
 1253POPC   C1B18763  22.693  42.520   8.814
 1253POPC   C2B18764  22.766  42.373   8.421
 1253POPC   C3B18765  22.612  42.503   8.042
 1253POPC   C4B18766  22.817  42.492   7.661
 1254POPC   NC318767  22.015  30.527   9.466
 1254POPC   PO418768  22.550  30.988   9.506
 1254POPC   GL118769  22.293  30.865   9.206
 1254POPC   GL218770  22.470  30.563   9.198
 1254POPC   C1A18771  22.048  30.934   8.832
 1254POPC   D2A18772  21.957  30.713   8.438
 1254POPC   C3A18773  22.165  30.876   8.065
 1254POPC   C4A18774  22.047  30.883   7.632
 1254POPC   C1B18775  22.240  30.461   8.840
 1254POPC   C2B18776  22.166  30.224   8.499
 1254POPC   C3B18777  22.243  30.239   8.090
 1254POPC   C4B18778  22.329  30.478   7.771
 1255POPC   NC318779  32.859   0.762   9.493
 1255POPC   PO418780  33.380   0.260   9.457
 1255POPC   GL118781  33.127   0.455   9.151
 1255POPC   GL218782  32.754   0.345   9.185
 1255POPC   C1A18783  33.299   0.640   8.775
 1255POPC   D2A18784  33.432   0.818   8.391
 1255POPC   C3A18785  33.284   0.588   8.052
 1255POPC   C4A18786  33.155   0.793   7.710
 1255POPC   C1B18787  32.840   0.328   8.753
 1255POPC   C2B18788  32.875   0.683   8.463
 1255POPC   C3B18789  32.766   0.715   8.039
 1255POPC   C4B18790  32.854   0.299   7.866
 1256POPC   NC318791  22.012  16.551   9.427
 1256POPC   PO418792  22.611  16.632   9.807
 1256POPC   GL118793  22.485  16.801   9.329
 1256POPC   GL218794  22.341  16.555   9.071
 1256POPC   C1A18795  22.463  16.972   8.861
 1256POPC   D2A18796  22.171  16.948   8.535
 1256POPC   C3A18797  22.349  16.826   8.136
 1256POPC   C4A18798  22.275  16.965   7.704
 1256POPC   C1B18799  22.302  16.467   8.640
 1256POPC   C2B18800  21.942  16.562   8.338
 1256POPC   C3B18801  21.867  16.779   7.963
 1256POPC   C4B18802  21.984  16.513   7.660
 1257POPC   NC318803  33.274   7.473   9.601
 1257POPC   PO418804  33.928   7.228   9.414
 1257POPC   GL118805  33.809   7.444   9.078
 1257POPC   GL218806  33.475   7.538   9.110
 1257POPC   C1A18807  33.735   7.293   8.647
 1257POPC   D2A18808  33.756   7.167   8.206
 1257POPC   C3A18809  33.855   7.466   7.893
 1257POPC   C4A18810  33.937   7.525   7.463
 1257POPC   C1B18811  33.600   7.769   8.751
 1257POPC   C2B18812  33.595   7.680   8.306
 1257POPC   C3B18813  33.349   7.581   7.929
 1257POPC   C4B18814  33.468   7.392   7.562
 1258POPC   NC318815  11.917  41.049   9.436
 1258POPC   PO418816  11.994  40.400   9.396
 1258POPC   GL118817  12.116  40.728   9.098
 1258POPC   GL218818  11.786  40.906   8.960
 1258POPC   C1A18819  12.249  40.936   8.710
 1258POPC   D2A18820  11.899  40.995   8.397
 1258POPC   C3A18821  11.719  40.738   8.077
 1258POPC   C4A18822  11.589  40.952   7.709
 1258POPC   C1B18823  11.923  40.549   8.668
 1258POPC   C2B18824  12.219  40.585   8.310
 1258POPC   C3B18825  12.202  40.758   7.912
 1258POPC   C4B18826  12.036  40.784   7.522
 1259POPC   NC318827  36.211  42.062   9.595
 1259POPC   PO418828  36.575  42.521   9.322
 1259POPC   GL118829  36.328  42.180   9.084
 1259POPC   GL218830  35.993  42.185   9.123
 1259POPC   C1A18831  36.198  42.020   8.654
 1259POPC   D2A18832  36.346  41.762   8.306
 1259POPC   C3A18833  36.226  41.987   7.947
 1259POPC   C4A18834  35.856  42.178   7.755
 1259POPC   C1B18835  35.911  42.433   8.728
 1259POPC   C2B18836  35.965  42.357   8.276
 1259POPC   C3B18837  36.077  42.618   7.923
 1259POPC   C4B18838  35.972  42.581   7.463
 1260POPC   NC318839   1.379  32.906   9.479
 1260POPC   PO418840   1.426  33.556   9.271
 1260POPC   GL118841   1.177  33.277   9.002
 1260POPC   GL218842   1.138  32.921   9.032
 1260POPC   C1A18843   1.205  33.096   8.565
 1260POPC   D2A18844   1.475  32.889   8.262
 1260POPC   C3A18845   1.416  33.132   7.916
 1260POPC   C4A18846   1.260  33.002   7.534
 1260POPC   C1B18847   0.811  32.800   8.733
 1260POPC   C2B18848   0.883  32.597   8.328
 1260POPC   C3B18849   0.987  32.820   7.931
 1260POPC   C4B18850   0.769  32.792   7.514
 1261POPC   NC318851  18.847  18.124   9.525
 1261POPC   PO418852  19.233  18.631   9.540
 1261POPC   GL118853  19.167  18.372   9.160
 1261POPC   GL218854  19.507  18.473   9.110
 1261POPC   C1A18855  18.940  18.058   8.830
 1261POPC   D2A18856  18.726  18.036   8.401
 1261POPC   C3A18857  18.704  18.469   8.229
 1261POPC   C4A18858  19.002  18.662   7.951
 1261POPC   C1B18859  19.422  18.268   8.713
 1261POPC   C2B18860  19.192  18.279   8.329
 1261POPC   C3B18861  19.367  18.312   7.932
 1261POPC   C4B18862  19.293  18.232   7.523
 1262POPC   NC318863  44.176  31.510   9.283
 1262POPC   PO418864  44.688  31.287   9.703
 1262POPC   GL118865  44.820  31.298   9.288
 1262POPC   GL218866  44.738  31.645   9.163
 1262POPC   C1A18867  44.658  31.198   8.889
 1262POPC   D2A18868  44.612  31.495   8.563
 1262POPC   C3A18869  44.666  31.438   8.101
 1262POPC   C4A18870  44.395  31.653   7.787
 1262POPC   C1B18871  44.895  31.880   8.785
 1262POPC   C2B18872  44.921  31.844   8.333
 1262POPC   C3B18873  44.866  31.890   7.888
 1262POPC   C4B18874  44.896  31.841   7.410
 1263POPC   NC318875  27.852  37.411   9.449
 1263POPC   PO418876  27.801  36.695   9.457
 1263POPC   GL118877  27.776  36.968   9.111
 1263POPC   GL218878  27.449  37.119   9.123
 1263POPC   C1A18879  27.829  36.813   8.684
 1263POPC   D2A18880  27.415  36.785   8.407
 1263POPC   C3A18881  27.432  36.587   8.016
 1263POPC   C4A18882  27.841  36.639   7.896
 1263POPC   C1B18883  27.523  37.212   8.682
 1263POPC   C2B18884  27.793  37.122   8.287
 1263POPC   C3B18885  27.707  37.128   7.871
 1263POPC   C4B18886  27.353  36.992   7.620
 1264POPC   NC318887   6.855   2.505   9.458
 1264POPC   PO418888   6.246   2.860   9.420
 1264POPC   GL118889   6.564   2.789   9.122
 1264POPC   GL218890   6.493   2.433   9.041
 1264POPC   C1A18891   6.851   2.654   8.775
 1264POPC   D2A18892   6.815   2.543   8.355
 1264POPC   C3A18893   6.824   2.889   8.072
 1264POPC   C4A18894   7.049   3.005   7.725
 1264POPC   C1B18895   6.341   2.678   8.668
 1264POPC   C2B18896   6.355   2.714   8.205
 1264POPC   C3B18897   6.482   2.619   7.783
 1264POPC   C4B18898   6.347   2.444   7.363
 1265POPC   NC318899   9.796   7.425   9.528
 1265POPC   PO418900   9.311   7.004   9.234
 1265POPC   GL118901   9.583   7.354   9.070
 1265POPC   GL218902   9.965   7.300   9.065
 1265POPC   C1A18903   9.746   7.701   8.806
 1265POPC   D2A18904   9.935   7.701   8.402
 1265POPC   C3A18905   9.690   7.529   8.077
 1265POPC   C4A18906   9.950   7.612   7.749
 1265POPC   C1B18907   9.906   7.241   8.658
 1265POPC   C2B18908   9.846   7.042   8.321
 1265POPC   C3B18909  10.022   7.150   7.972
 1265POPC   C4B18910   9.826   7.130   7.601
 1266POPC   NC318911  15.780  12.529   9.663
 1266POPC   PO418912  16.316  12.996   9.625
 1266POPC   GL118913  16.180  12.750   9.276
 1266POPC   GL218914  15.852  12.838   9.209
 1266POPC   C1A18915  16.179  12.695   8.827
 1266POPC   D2A18916  16.160  12.889   8.423
 1266POPC   C3A18917  16.093  12.730   7.993
 1266POPC   C4A18918  16.054  12.970   7.578
 1266POPC   C1B18919  15.677  12.896   8.793
 1266POPC   C2B18920  15.643  12.761   8.351
 1266POPC   C3B18921  15.633  12.999   7.972
 1266POPC   C4B18922  15.558  12.864   7.583
 1267POPC   NC318923  27.469  10.806   9.664
 1267POPC   PO418924  28.105  10.643   9.595
 1267POPC   GL118925  27.840  10.821   9.295
 1267POPC   GL218926  27.584  10.550   9.222
 1267POPC   C1A18927  27.930  10.816   8.861
 1267POPC   D2A18928  27.897  10.537   8.492
 1267POPC   C3A18929  27.755  10.716   8.094
 1267POPC   C4A18930  27.782  10.533   7.680
 1267POPC   C1B18931  27.461  10.644   8.789
 1267POPC   C2B18932  27.419  10.406   8.389
 1267POPC   C3B18933  27.491  10.210   7.967
 1267POPC   C4B18934  27.388  10.247   7.514
 1268POPC   NC318935  40.499  15.812   9.525
 1268POPC   PO418936  40.931  16.174   9.851
 1268POPC   GL118937  40.865  16.124   9.300
 1268POPC   GL218938  40.740  15.834   9.088
 1268POPC   C1A18939  40.760  16.206   8.777
 1268POPC   D2A18940  40.516  15.976   8.418
 1268POPC   C3A18941  40.587  16.050   7.981
 1268POPC   C4A18942  40.976  16.248   7.801
 1268POPC   C1B18943  41.167  15.925   8.944
 1268POPC   C2B18944  41.208  15.946   8.515
 1268POPC   C3B18945  41.020  15.836   8.138
 1268POPC   C4B18946  41.168  15.733   7.747
 1269POPC   NC318947  27.899  12.857   9.439
 1269POPC   PO418948  27.114  12.775   9.450
 1269POPC   GL118949  27.438  12.953   9.162
 1269POPC   GL218950  27.552  12.646   9.131
 1269POPC   C1A18951  27.707  12.970   8.758
 1269POPC   D2A18952  27.835  13.229   8.417
 1269POPC   C3A18953  27.773  12.982   8.042
 1269POPC   C4A18954  27.920  12.585   7.869
 1269POPC   C1B18955  27.459  12.518   8.731
 1269POPC   C2B18956  27.484  12.660   8.334
 1269POPC   C3B18957  27.398  12.629   7.923
 1269POPC   C4B18958  27.522  12.431   7.556
 1270POPC   NC318959   4.686  30.595   9.572
 1270POPC   PO418960   3.992  30.731   9.593
 1270POPC   GL118961   4.274  30.864   9.256
 1270POPC   GL218962   4.631  30.973   9.237
 1270POPC   C1A18963   4.229  31.046   8.849
 1270POPC   D2A18964   4.001  31.117   8.488
 1270POPC   C3A18965   4.101  31.019   8.091
 1270POPC   C4A18966   3.791  31.033   7.788
 1270POPC   C1B18967   4.545  30.667   8.875
 1270POPC   C2B18968   4.331  30.681   8.475
 1270POPC   C3B18969   4.467  30.663   8.061
 1270POPC   C4B18970   4.312  30.645   7.666
 1271POPC   NC318971   3.091   3.354   9.347
 1271POPC   PO418972   2.578   3.497   9.713
 1271POPC   GL118973   2.606   3.380   9.224
 1271POPC   GL218974   2.794   3.711   9.112
 1271POPC   C1A18975   2.569   3.421   8.746
 1271POPC   D2A18976   2.594   3.132   8.381
 1271POPC   C3A18977   2.479   3.251   7.972
 1271POPC   C4A18978   2.627   3.419   7.598
 1271POPC   C1B18979   3.062   3.604   8.755
 1271POPC   C2B18980   3.056   3.563   8.296
 1271POPC   C3B18981   2.962   3.653   7.865
 1271POPC   C4B18982   2.882   3.775   7.363
 1272POPC   NC318983  28.471  25.438   9.605
 1272POPC   PO418984  28.230  24.953   9.191
 1272POPC   GL118985  28.303  25.385   9.124
 1272POPC   GL218986  28.008  25.552   9.044
 1272POPC   C1A18987  28.545  25.572   8.817
 1272POPC   D2A18988  28.672  25.376   8.422
 1272POPC   C3A18989  28.457  25.408   8.031
 1272POPC   C4A18990  28.494  25.370   7.590
 1272POPC   C1B18991  28.126  25.330   8.613
 1272POPC   C2B18992  28.159  25.048   8.220
 1272POPC   C3B18993  28.071  25.138   7.771
 1272POPC   C4B18994  27.980  24.869   7.398
 1273POPC   NC318995  36.528   9.587   9.551
 1273POPC   PO418996  35.917   9.834   9.433
 1273POPC   GL118997  36.121   9.755   9.082
 1273POPC   GL218998  36.208   9.439   9.094
 1273POPC   C1A18999  35.930   9.760   8.690
 1273POPC   D2A19000  35.876  10.002   8.338
 1273POPC   C3A19001  36.098   9.886   8.000
 1273POPC   C4A19002  36.025   9.822   7.595
 1273POPC   C1B19003  36.099   9.274   8.693
 1273POPC   C2B19004  35.985   9.438   8.279
 1273POPC   C3B19005  36.111   9.368   7.849
 1273POPC   C4B19006  36.352   9.437   7.460
 1274POPC   NC319007  44.510  13.387   9.481
 1274POPC   PO419008  44.737  14.049   9.501
 1274POPC   GL119009  44.535  13.799   9.203
 1274POPC   GL219010  44.800  13.836   9.009
 1274POPC   C1A19011  44.497  13.508   8.803
 1274POPC   D2A19012  44.508  13.674   8.363
 1274POPC   C3A19013  44.556  13.345   8.012
 1274POPC   C4A19014  44.933  13.262   7.775
 1274POPC   C1B19015  44.338  14.019   8.796
 1274POPC   C2B19016  44.103  14.016   8.387
 1274POPC   C3B19017  44.306  14.020   7.978
 1274POPC   C4B19018  44.293  14.018   7.524
 1275POPC   NC319019  12.691  17.357   9.591
 1275POPC   PO419020  13.182  17.811   9.603
 1275POPC   GL119021  12.899  17.916   9.256
 1275POPC   GL219022  12.749  17.582   9.124
 1275POPC   C1A19023  12.958  17.910   8.827
 1275POPC   D2A19024  12.681  17.642   8.562
 1275POPC   C3A19025  12.698  17.592   8.098
 1275POPC   C4A19026  12.860  17.486   7.663
 1275POPC   C1B19027  12.532  17.261   8.871
 1275POPC   C2B19028  12.373  17.204   8.416
 1275POPC   C3B19029  12.501  17.145   7.970
 1275POPC   C4B19030  12.353  17.402   7.655
 1276POPC   NC319031  17.933  20.369   9.301
 1276POPC   PO419032  18.272  20.943   9.513
 1276POPC   GL119033  18.368  20.640   9.158
 1276POPC   GL219034  18.084  20.545   8.877
 1276POPC   C1A19035  18.560  20.547   8.749
 1276POPC   D2A19036  18.274  20.615   8.399
 1276POPC   C3A19037  18.377  20.451   8.040
 1276POPC   C4A19038  18.546  20.643   7.696
 1276POPC   C1B19039  18.171  20.970   8.759
 1276POPC   C2B19040  17.944  21.100   8.347
 1276POPC   C3B19041  18.051  20.865   7.950
 1276POPC   C4B19042  18.011  20.472   7.703
 1277POPC   NC319043   2.847  38.199   9.536
 1277POPC   PO419044   2.541  37.535   9.437
 1277POPC   GL119045   2.529  37.846   9.129
 1277POPC   GL219046   2.864  37.942   9.106
 1277POPC   C1A19047   2.634  37.782   8.684
 1277POPC   D2A19048   2.617  37.882   8.266
 1277POPC   C3A19049   2.673  37.537   7.995
 1277POPC   C4A19050   2.799  37.535   7.581
 1277POPC   C1B19051   3.115  38.078   8.779
 1277POPC   C2B19052   3.265  37.922   8.396
 1277POPC   C3B19053   3.065  37.918   8.038
 1277POPC   C4B19054   2.953  38.102   7.678
 1278POPC   NC319055  22.050  33.759   9.604
 1278POPC   PO419056  22.596  34.088   9.539
 1278POPC   GL119057  22.278  33.901   9.176
 1278POPC   GL219058  21.999  33.609   9.143
 1278POPC   C1A19059  22.395  33.600   8.821
 1278POPC   D2A19060  22.305  33.787   8.422
 1278POPC   C3A19061  22.350  33.582   8.056
 1278POPC   C4A19062  22.219  33.709   7.685
 1278POPC   C1B19063  21.885  33.701   8.747
 1278POPC   C2B19064  21.851  33.470   8.377
 1278POPC   C3B19065  21.817  33.625   7.993
 1278POPC   C4B19066  21.743  33.951   7.706
 1279POPC   NC319067   0.013  10.764   9.405
 1279POPC   PO419068   0.605  10.399   9.608
 1279POPC   GL119069   0.505  10.540   9.174
 1279POPC   GL219070   0.833  10.644   9.061
 1279POPC   C1A19071   0.260  10.745   8.810
 1279POPC   D2A19072   0.174  10.857   8.361
 1279POPC   C3A19073   0.350  10.544   8.079
 1279POPC   C4A19074   0.744  10.526   7.862
 1279POPC   C1B19075   0.718  10.624   8.649
 1279POPC   C2B19076   0.697  10.861   8.276
 1279POPC   C3B19077   0.955  10.979   7.920
 1279POPC   C4B19078   0.872  10.978   7.481
 1280POPC   NC319079  21.276  30.407   9.559
 1280POPC   PO419080  21.740  30.900   9.486
 1280POPC   GL119081  21.558  30.650   9.159
 1280POPC   GL219082  21.523  30.300   9.136
 1280POPC   C1A19083  21.251  30.595   8.816
 1280POPC   D2A19084  21.172  30.784   8.426
 1280POPC   C3A19085  21.326  30.594   8.046
 1280POPC   C4A19086  21.164  30.622   7.639
 1280POPC   C1B19087  21.725  30.361   8.758
 1280POPC   C2B19088  21.686  30.285   8.331
 1280POPC   C3B19089  21.816  30.502   7.947
 1280POPC   C4B19090  21.677  30.504   7.510
 1281POPC   NC319091   2.210  27.591   9.455
 1281POPC   PO419092   1.536  27.710   9.652
 1281POPC   GL119093   1.781  27.727   9.187
 1281POPC   GL219094   1.568  27.857   8.961
 1281POPC   C1A19095   2.014  27.563   8.777
 1281POPC   D2A19096   2.278  27.543   8.368
 1281POPC   C3A19097   2.146  27.448   7.930
 1281POPC   C4A19098   1.966  27.181   7.577
 1281POPC   C1B19099   1.803  28.039   8.688
 1281POPC   C2B19100   1.815  28.222   8.332
 1281POPC   C3B19101   2.012  27.956   8.079
 1281POPC   C4B19102   1.801  27.845   7.731
 1282POPC   NC319103  18.261  19.552   9.333
 1282POPC   PO419104  18.305  20.265   9.570
 1282POPC   GL119105  18.352  20.127   9.116
 1282POPC   GL219106  18.061  19.931   9.066
 1282POPC   C1A19107  18.277  20.117   8.645
 1282POPC   D2A19108  18.464  19.799   8.410
 1282POPC   C3A19109  18.511  19.843   7.982
 1282POPC   C4A19110  18.373  20.124   7.643
 1282POPC   C1B19111  18.060  19.616   8.719
 1282POPC   C2B19112  17.983  19.784   8.302
 1282POPC   C3B19113  18.014  20.036   7.990
 1282POPC   C4B19114  18.097  19.696   7.697
 1283POPC   NC319115  30.556  34.858   9.476
 1283POPC   PO419116  31.021  34.346   9.444
 1283POPC   GL119117  30.754  34.505   9.166
 1283POPC   GL219118  30.893  34.828   9.090
 1283POPC   C1A19119  30.617  34.515   8.755
 1283POPC   D2A19120  30.481  34.658   8.333
 1283POPC   C3A19121  30.663  34.413   7.991
 1283POPC   C4A19122  30.487  34.456   7.571
 1283POPC   C1B19123  30.784  34.984   8.675
 1283POPC   C2B19124  30.697  35.129   8.257
 1283POPC   C3B19125  30.595  34.891   7.861
 1283POPC   C4B19126  30.830  34.835   7.441
 1284POPC   NC319127  28.029  19.557   9.545
 1284POPC   PO419128  28.611  19.819   9.507
 1284POPC   GL119129  28.469  19.577   9.138
 1284POPC   GL219130  28.232  19.733   9.085
 1284POPC   C1A19131  28.538  19.620   8.692
 1284POPC   D2A19132  28.708  19.752   8.309
 1284POPC   C3A19133  28.503  19.626   7.933
 1284POPC   C4A19134  28.482  19.807   7.544
 1284POPC   C1B19135  28.051  19.855   8.725
 1284POPC   C2B19136  28.184  19.756   8.323
 1284POPC   C3B19137  27.933  19.858   7.988
 1284POPC   C4B19138  27.984  20.068   7.572
 1285POPC   NC319139  33.873  31.719   9.606
 1285POPC   PO419140  33.939  31.062   9.411
 1285POPC   GL119141  33.770  31.356   9.118
 1285POPC   GL219142  33.901  31.711   9.086
 1285POPC   C1A19143  33.873  31.364   8.694
 1285POPC   D2A19144  33.852  31.595   8.339
 1285POPC   C3A19145  33.937  31.345   8.021
 1285POPC   C4A19146  34.135  31.368   7.662
 1285POPC   C1B19147  33.521  31.820   8.857
 1285POPC   C2B19148  33.296  31.861   8.452
 1285POPC   C3B19149  33.476  31.812   8.052
 1285POPC   C4B19150  33.791  31.739   7.720
 1286POPC   NC319151  21.273  42.497   9.636
 1286POPC   PO419152  21.223  43.124   9.473
 1286POPC   GL119153  21.427  42.787   9.239
 1286POPC   GL219154  21.205  42.862   9.023
 1286POPC   C1A19155  21.647  42.773   8.818
 1286POPC   D2A19156  21.556  43.072   8.494
 1286POPC   C3A19157  21.541  42.891   8.117
 1286POPC   C4A19158  21.579  42.977   7.706
 1286POPC   C1B19159  21.011  42.982   8.661
 1286POPC   C2B19160  21.087  43.106   8.270
 1286POPC   C3B19161  21.247  43.361   7.978
 1286POPC   C4B19162  20.956  43.625   7.714
 1287POPC   NC319163  29.607  27.262   9.527
 1287POPC   PO419164  28.907  27.506   9.562
 1287POPC   GL119165  29.146  27.588   9.174
 1287POPC   GL219166  29.386  27.330   9.078
 1287POPC   C1A19167  29.013  27.589   8.746
 1287POPC   D2A19168  28.808  27.734   8.359
 1287POPC   C3A19169  29.020  27.670   7.945
 1287POPC   C4A19170  29.329  27.829   7.596
 1287POPC   C1B19171  29.328  27.167   8.681
 1287POPC   C2B19172  29.140  27.292   8.336
 1287POPC   C3B19173  29.164  27.120   7.997
 1287POPC   C4B19174  29.380  27.348   7.746
 1288POPC   NC319175  10.814  16.021   9.261
 1288POPC   PO419176  10.383  15.914   9.795
 1288POPC   GL119177  10.351  15.751   9.320
 1288POPC   GL219178  10.327  15.998   9.115
 1288POPC   C1A19179  10.452  15.579   8.849
 1288POPC   D2A19180  10.665  15.649   8.390
 1288POPC   C3A19181  10.594  15.936   8.020
 1288POPC   C4A19182  10.835  15.918   7.595
 1288POPC   C1B19183  10.559  16.046   8.689
 1288POPC   C2B19184  10.713  16.333   8.396
 1288POPC   C3B19185  10.636  16.571   8.039
 1288POPC   C4B19186  10.662  16.380   7.649
 1289POPC   NC319187  14.215  36.196   9.410
 1289POPC   PO419188  14.963  36.272   9.431
 1289POPC   GL119189  14.651  36.162   9.122
 1289POPC   GL219190  14.474  35.826   9.174
 1289POPC   C1A19191  14.363  36.283   8.766
 1289POPC   D2A19192  14.014  36.249   8.459
 1289POPC   C3A19193  14.170  36.206   8.034
 1289POPC   C4A19194  14.413  36.408   7.726
 1289POPC   C1B19195  14.624  35.821   8.757
 1289POPC   C2B19196  14.443  35.912   8.371
 1289POPC   C3B19197  14.524  35.720   7.982
 1289POPC   C4B19198  14.654  35.945   7.634
 1290POPC   NC319199  31.690   9.904   9.367
 1290POPC   PO419200  31.101  10.143   9.355
 1290POPC   GL119201  31.303   9.944   9.039
 1290POPC   GL219202  31.303   9.605   9.217
 1290POPC   C1A19203  31.522  10.159   8.723
 1290POPC   D2A19204  31.400  10.159   8.314
 1290POPC   C3A19205  31.743  10.014   8.093
 1290POPC   C4A19206  31.446  10.051   7.767
 1290POPC   C1B19207  31.602   9.494   8.880
 1290POPC   C2B19208  31.547   9.674   8.507
 1290POPC   C3B19209  31.478   9.583   8.106
 1290POPC   C4B19210  31.736   9.616   7.752
 1291POPC   NC319211  31.697  33.969   9.542
 1291POPC   PO419212  31.195  33.605   9.799
 1291POPC   GL119213  31.301  33.760   9.334
 1291POPC   GL219214  31.556  33.555   9.155
 1291POPC   C1A19215  31.343  33.961   8.909
 1291POPC   D2A19216  31.442  33.654   8.535
 1291POPC   C3A19217  31.347  33.690   8.123
 1291POPC   C4A19218  31.401  33.438   7.747
 1291POPC   C1B19219  31.804  33.788   8.833
 1291POPC   C2B19220  31.721  34.096   8.512
 1291POPC   C3B19221  31.765  34.034   8.081
 1291POPC   C4B19222  31.525  33.948   7.708
 1292POPC   NC319223   3.128   3.676   9.815
 1292POPC   PO419224   3.536   3.423   9.357
 1292POPC   GL119225   3.513   3.589   8.994
 1292POPC   GL219226   3.785   3.423   8.918
 1292POPC   C1A19227   3.517   3.615   8.543
 1292POPC   D2A19228   3.509   3.277   8.296
 1292POPC   C3A19229   3.384   3.370   7.907
 1292POPC   C4A19230   3.232   3.454   7.518
 1292POPC   C1B19231   3.962   3.394   8.565
 1292POPC   C2B19232   3.989   3.126   8.242
 1292POPC   C3B19233   3.872   3.212   7.837
 1292POPC   C4B19234   3.735   3.385   7.448
 1293POPC   NC319235  33.530   7.049   9.304
 1293POPC   PO419236  33.991   6.472   9.348
 1293POPC   GL119237  33.697   6.621   9.068
 1293POPC   GL219238  33.394   6.557   9.269
 1293POPC   C1A19239  33.786   6.784   8.653
 1293POPC   D2A19240  34.172   6.958   8.435
 1293POPC   C3A19241  34.135   6.878   7.988
 1293POPC   C4A19242  33.993   6.538   7.701
 1293POPC   C1B19243  33.259   6.631   8.813
 1293POPC   C2B19244  33.333   6.767   8.400
 1293POPC   C3B19245  33.623   6.694   8.046
 1293POPC   C4B19246  33.724   6.980   7.694
 1294POPC   NC319247  41.585  27.297   9.548
 1294POPC   PO419248  41.470  28.021   9.399
 1294POPC   GL119249  41.475  27.634   9.131
 1294POPC   GL219250  41.808  27.480   9.128
 1294POPC   C1A19251  41.589  27.612   8.691
 1294POPC   D2A19252  41.665  27.854   8.335
 1294POPC   C3A19253  41.396  27.737   8.017
 1294POPC   C4A19254  41.448  27.421   7.721
 1294POPC   C1B19255  41.991  27.308   8.760
 1294POPC   C2B19256  41.861  27.322   8.361
 1294POPC   C3B19257  41.867  27.531   7.989
 1294POPC   C4B19258  41.936  27.316   7.610
 1295POPC   NC319259  36.750  37.277   9.472
 1295POPC   PO419260  37.016  36.680   9.385
 1295POPC   GL119261  36.893  36.991   9.076
 1295POPC   GL219262  37.172  37.199   9.160
 1295POPC   C1A19263  36.834  36.969   8.626
 1295POPC   D2A19264  36.816  36.698   8.258
 1295POPC   C3A19265  36.840  36.875   7.876
 1295POPC   C4A19266  36.750  37.216   7.612
 1295POPC   C1B19267  37.279  37.287   8.741
 1295POPC   C2B19268  37.257  37.125   8.316
 1295POPC   C3B19269  37.320  36.809   7.985
 1295POPC   C4B19270  37.231  37.009   7.589
 1296POPC   NC319271  15.311   5.384   9.574
 1296POPC   PO419272  15.097   4.730   9.614
 1296POPC   GL119273  15.297   4.940   9.262
 1296POPC   GL219274  15.007   5.116   9.235
 1296POPC   C1A19275  15.352   5.288   8.914
 1296POPC   D2A19276  15.421   5.533   8.524
 1296POPC   C3A19277  15.393   5.246   8.165
 1296POPC   C4A19278  15.264   5.090   7.760
 1296POPC   C1B19279  14.910   4.991   8.809
 1296POPC   C2B19280  15.038   4.899   8.386
 1296POPC   C3B19281  14.871   4.724   8.015
 1296POPC   C4B19282  14.841   4.868   7.600
 1297POPC   NC319283  14.341   3.226   9.490
 1297POPC   PO419284  14.756   3.791   9.582
 1297POPC   GL119285  14.474   3.657   9.197
 1297POPC   GL219286  14.161   3.857   9.117
 1297POPC   C1A19287  14.438   3.600   8.742
 1297POPC   D2A19288  14.473   3.246   8.457
 1297POPC   C3A19289  14.262   3.271   8.066
 1297POPC   C4A19290  14.281   3.503   7.707
 1297POPC   C1B19291  13.965   3.862   8.766
 1297POPC   C2B19292  14.019   3.650   8.367
 1297POPC   C3B19293  14.033   3.849   7.997
 1297POPC   C4B19294  14.151   3.989   7.641
 1298POPC   NC319295  40.937   4.938   9.633
 1298POPC   PO419296  41.666   4.873   9.533
 1298POPC   GL119297  41.836   5.037   9.133
 1298POPC   GL219298  41.564   5.205   8.970
 1298POPC   C1A19299  42.005   5.192   8.758
 1298POPC   D2A19300  41.853   5.060   8.376
 1298POPC   C3A19301  41.961   4.980   7.975
 1298POPC   C4A19302  41.912   5.332   7.739
 1298POPC   C1B19303  41.598   5.540   8.666
 1298POPC   C2B19304  41.478   5.459   8.275
 1298POPC   C3B19305  41.460   5.106   8.034
 1298POPC   C4B19306  41.477   5.064   7.602
 1299POPC   NC319307  38.683  22.376   9.456
 1299POPC   PO419308  38.125  21.969   9.541
 1299POPC   GL119309  38.373  22.044   9.185
 1299POPC   GL219310  38.238  22.381   9.196
 1299POPC   C1A19311  38.569  22.073   8.761
 1299POPC   D2A19312  38.352  22.152   8.372
 1299POPC   C3A19313  38.590  21.920   8.095
 1299POPC   C4A19314  38.623  21.984   7.694
 1299POPC   C1B19315  38.092  22.272   8.820
 1299POPC   C2B19316  37.962  22.557   8.532
 1299POPC   C3B19317  38.041  22.498   8.110
 1299POPC   C4B19318  38.161  22.126   7.852
 1300POPC   NC319319  39.079  33.769   9.595
 1300POPC   PO419320  39.828  33.764   9.570
 1300POPC   GL119321  39.459  33.741   9.237
 1300POPC   GL219322  39.080  33.692   9.109
 1300POPC   C1A19323  39.394  34.086   8.940
 1300POPC   D2A19324  39.179  34.095   8.562
 1300POPC   C3A19325  39.362  34.036   8.177
 1300POPC   C4A19326  39.302  34.248   7.814
 1300POPC   C1B19327  39.290  33.613   8.761
 1300POPC   C2B19328  39.241  33.555   8.346
 1300POPC   C3B19329  39.179  33.634   7.917
 1300POPC   C4B19330  39.078  33.867   7.565
 1301POPC   NC319331  39.092   1.714   9.515
 1301POPC   PO419332  39.513   2.149   9.516
 1301POPC   GL119333  39.206   2.096   9.175
 1301POPC   GL219334  39.034   1.825   9.021
 1301POPC   C1A19335  39.278   2.240   8.753
 1301POPC   D2A19336  39.080   2.465   8.419
 1301POPC   C3A19337  39.122   2.218   8.043
 1301POPC   C4A19338  39.463   2.156   7.758
 1301POPC   C1B19339  39.328   1.632   8.783
 1301POPC   C2B19340  39.344   1.597   8.351
 1301POPC   C3B19341  39.216   1.695   7.948
 1301POPC   C4B19342  39.029   1.918   7.643
 1302POPC   NC319343  34.082  29.198   9.587
 1302POPC   PO419344  33.529  28.853   9.678
 1302POPC   GL119345  33.611  29.007   9.235
 1302POPC   GL219346  33.910  29.197   9.117
 1302POPC   C1A19347  33.613  28.841   8.810
 1302POPC   D2A19348  33.968  28.898   8.540
 1302POPC   C3A19349  33.908  29.002   8.105
 1302POPC   C4A19350  33.550  28.973   7.824
 1302POPC   C1B19351  33.705  29.357   8.756
 1302POPC   C2B19352  33.776  29.511   8.362
 1302POPC   C3B19353  34.067  29.681   8.132
 1302POPC   C4B19354  34.057  29.403   7.799
 1303POPC   NC319355  28.138  43.545   9.476
 1303POPC   PO419356  27.635  43.014   9.489
 1303POPC   GL119357  27.632  43.225   9.120
 1303POPC   GL219358  27.964  43.330   9.061
 1303POPC   C1A19359  27.521  43.025   8.750
 1303POPC   D2A19360  27.251  42.939   8.418
 1303POPC   C3A19361  27.459  42.767   8.074
 1303POPC   C4A19362  27.387  42.982   7.732
 1303POPC   C1B19363  27.970  43.269   8.643
 1303POPC   C2B19364  27.684  43.213   8.281
 1303POPC   C3B19365  27.560  43.429   7.894
 1303POPC   C4B19366  27.741  43.256   7.505
 1304POPC   NC319367  22.369   2.209   9.516
 1304POPC   PO419368  21.722   1.925   9.453
 1304POPC   GL119369  22.127   1.845   9.217
 1304POPC   GL219370  21.878   1.646   9.039
 1304POPC   C1A19371  22.459   2.011   8.846
 1304POPC   D2A19372  22.538   2.295   8.472
 1304POPC   C3A19373  22.530   2.080   8.074
 1304POPC   C4A19374  22.673   2.181   7.663
 1304POPC   C1B19375  21.963   2.041   8.792
 1304POPC   C2B19376  22.112   2.018   8.409
 1304POPC   C3B19377  22.091   1.787   8.051
 1304POPC   C4B19378  22.096   2.092   7.759
 1305POPC   NC319379  18.684  21.029   9.301
 1305POPC   PO419380  19.258  20.908   9.333
 1305POPC   GL119381  19.181  21.248   9.061
 1305POPC   GL219382  18.880  21.342   8.980
 1305POPC   C1A19383  19.333  21.466   8.757
 1305POPC   D2A19384  19.346  21.355   8.344
 1305POPC   C3A19385  19.474  21.616   8.034
 1305POPC   C4A19386  19.154  21.659   7.764
 1305POPC   C1B19387  18.888  21.263   8.598
 1305POPC   C2B19388  18.819  21.465   8.260
 1305POPC   C3B19389  18.954  21.251   7.990
 1305POPC   C4B19390  18.893  21.096   7.596
 1306POPC   NC319391  29.372  18.610   9.473
 1306POPC   PO419392  28.847  18.159   9.516
 1306POPC   GL119393  28.976  18.412   9.180
 1306POPC   GL219394  29.306  18.322   9.053
 1306POPC   C1A19395  28.933  18.467   8.733
 1306POPC   D2A19396  29.209  18.406   8.379
 1306POPC   C3A19397  28.988  18.418   8.016
 1306POPC   C4A19398  28.931  18.328   7.601
 1306POPC   C1B19399  29.575  18.261   8.691
 1306POPC   C2B19400  29.495  17.958   8.357
 1306POPC   C3B19401  29.592  17.928   7.952
 1306POPC   C4B19402  29.439  18.261   7.697
 1307POPC   NC319403   3.598  41.208   9.518
 1307POPC   PO419404   3.322  40.616   9.703
 1307POPC   GL119405   3.573  40.678   9.288
 1307POPC   GL219406   3.583  41.004   9.060
 1307POPC   C1A19407   3.576  40.559   8.835
 1307POPC   D2A19408   3.506  40.800   8.442
 1307POPC   C3A19409   3.678  40.555   8.117
 1307POPC   C4A19410   3.764  40.583   7.702
 1307POPC   C1B19411   3.646  41.280   8.695
 1307POPC   C2B19412   3.667  41.306   8.233
 1307POPC   C3B19413   3.580  41.028   7.874
 1307POPC   C4B19414   3.622  40.966   7.380
 1308POPC   NC319415  21.374  23.367   9.532
 1308POPC   PO419416  21.591  23.948   9.591
 1308POPC   GL119417  21.355  23.921   9.175
 1308POPC   GL219418  21.433  23.620   9.107
 1308POPC   C1A19419  21.313  23.923   8.708
 1308POPC   D2A19420  20.978  23.868   8.401
 1308POPC   C3A19421  21.044  23.755   7.961
 1308POPC   C4A19422  21.342  24.063   7.773
 1308POPC   C1B19423  21.441  23.366   8.781
 1308POPC   C2B19424  21.318  23.485   8.413
 1308POPC   C3B19425  21.513  23.741   8.127
 1308POPC   C4B19426  21.483  23.556   7.713
 1309POPC   NC319427  10.378   3.894   9.394
 1309POPC   PO419428  10.613   3.313   9.552
 1309POPC   GL119429  10.701   3.492   9.173
 1309POPC   GL219430  10.394   3.469   9.069
 1309POPC   C1A19431  10.787   3.440   8.718
 1309POPC   D2A19432  10.522   3.437   8.317
 1309POPC   C3A19433  10.671   3.633   7.917
 1309POPC   C4A19434  10.874   3.920   7.623
 1309POPC   C1B19435  10.317   3.711   8.733
 1309POPC   C2B19436  10.348   3.941   8.327
 1309POPC   C3B19437  10.176   3.805   7.954
 1309POPC   C4B19438   9.915   3.761   7.566
 1310POPC   NC319439  32.028  20.278   9.526
 1310POPC   PO419440  31.477  19.958   9.544
 1310POPC   GL119441  31.345  19.794   9.143
 1310POPC   GL219442  31.457  20.099   9.043
 1310POPC   C1A19443  31.467  19.724   8.706
 1310POPC   D2A19444  31.464  19.963   8.332
 1310POPC   C3A19445  31.451  19.646   8.035
 1310POPC   C4A19446  31.297  19.517   7.651
 1310POPC   C1B19447  31.870  20.119   8.878
 1310POPC   C2B19448  31.913  20.221   8.470
 1310POPC   C3B19449  31.832  20.253   8.066
 1310POPC   C4B19450  31.458  20.118   7.815
 1311POPC   NC319451  33.884  32.704   9.434
 1311POPC   PO419452  33.739  33.340   9.453
 1311POPC   GL119453  33.578  33.245   9.054
 1311POPC   GL219454  33.843  33.001   8.989
 1311POPC   C1A19455  33.633  33.237   8.597
 1311POPC   D2A19456  33.830  32.964   8.329
 1311POPC   C3A19457  33.662  32.978   7.949
 1311POPC   C4A19458  33.617  33.272   7.621
 1311POPC   C1B19459  34.115  32.686   8.780
 1311POPC   C2B19460  34.137  32.483   8.356
 1311POPC   C3B19461  34.066  32.632   7.933
 1311POPC   C4B19462  34.062  32.998   7.663
 1312POPC   NC319463  23.725   2.954   9.573
 1312POPC   PO419464  23.528   2.271   9.516
 1312POPC   GL119465  23.731   2.462   9.131
 1312POPC   GL219466  23.835   2.838   9.102
 1312POPC   C1A19467  23.706   2.550   8.679
 1312POPC   D2A19468  23.878   2.422   8.289
 1312POPC   C3A19469  23.582   2.470   7.970
 1312POPC   C4A19470  23.577   2.582   7.563
 1312POPC   C1B19471  24.060   2.923   8.739
 1312POPC   C2B19472  23.874   2.985   8.334
 1312POPC   C3B19473  23.807   2.924   7.875
 1312POPC   C4B19474  23.643   3.057   7.416
 1313POPC   NC319475   8.810  13.921   9.399
 1313POPC   PO419476   9.338  13.527   9.462
 1313POPC   GL119477   9.131  13.607   9.081
 1313POPC   GL219478   8.862  13.386   9.203
 1313POPC   C1A19479   8.925  13.799   8.687
 1313POPC   D2A19480   8.692  13.966   8.328
 1313POPC   C3A19481   8.846  13.972   7.903
 1313POPC   C4A19482   9.224  13.860   7.726
 1313POPC   C1B19483   8.841  13.323   8.768
 1313POPC   C2B19484   9.060  13.374   8.385
 1313POPC   C3B19485   8.905  13.479   7.969
 1313POPC   C4B19486   8.564  13.304   7.727
 1314POPC   NC319487  35.227  27.005   9.735
 1314POPC   PO419488  35.707  26.921   9.306
 1314POPC   GL119489  35.421  26.691   9.112
 1314POPC   GL219490  35.127  26.885   9.221
 1314POPC   C1A19491  35.258  26.691   8.707
 1314POPC   D2A19492  35.285  26.957   8.371
 1314POPC   C3A19493  35.457  26.920   7.960
 1314POPC   C4A19494  35.464  26.551   7.721
 1314POPC   C1B19495  34.854  26.967   8.870
 1314POPC   C2B19496  34.770  27.058   8.458
 1314POPC   C3B19497  34.859  26.789   8.103
 1314POPC   C4B19498  35.010  26.820   7.704
 1315POPC   NC319499  19.293   0.887   9.571
 1315POPC   PO419500  18.758   1.298   9.431
 1315POPC   GL119501  19.087   1.254   9.171
 1315POPC   GL219502  19.091   0.912   9.115
 1315POPC   C1A19503  18.996   1.411   8.768
 1315POPC   D2A19504  19.233   1.445   8.379
 1315POPC   C3A19505  19.024   1.415   7.984
 1315POPC   C4A19506  18.770   1.395   7.639
 1315POPC   C1B19507  19.135   0.653   8.771
 1315POPC   C2B19508  19.208   0.776   8.383
 1315POPC   C3B19509  19.129   0.690   7.989
 1315POPC   C4B19510  19.081   0.978   7.675
 1316POPC   NC319511  18.063   2.310   9.487
 1316POPC   PO419512  18.683   1.997   9.502
 1316POPC   GL119513  18.458   2.118   9.148
 1316POPC   GL219514  18.105   2.147   9.017
 1316POPC   C1A19515  18.558   2.237   8.737
 1316POPC   D2A19516  18.411   2.323   8.317
 1316POPC   C3A19517  18.617   2.024   8.037
 1316POPC   C4A19518  18.507   1.838   7.626
 1316POPC   C1B19519  18.096   1.739   8.814
 1316POPC   C2B19520  18.062   1.657   8.378
 1316POPC   C3B19521  18.109   1.962   8.067
 1316POPC   C4B19522  17.927   2.045   7.691
 1317POPC   NC319523  21.460  16.228   9.592
 1317POPC   PO419524  21.187  15.645   9.546
 1317POPC   GL119525  21.460  15.894   9.170
 1317POPC   GL219526  21.575  16.272   9.117
 1317POPC   C1A19527  21.365  16.065   8.711
 1317POPC   D2A19528  21.272  15.932   8.254
 1317POPC   C3A19529  21.247  16.154   7.847
 1317POPC   C4A19530  21.277  16.155   7.381
 1317POPC   C1B19531  21.823  16.291   8.752
 1317POPC   C2B19532  21.742  16.093   8.358
 1317POPC   C3B19533  21.710  16.255   8.003
 1317POPC   C4B19534  21.726  16.081   7.619
 1318POPC   NC319535  28.717  19.365   9.507
 1318POPC   PO419536  29.332  19.667   9.508
 1318POPC   GL119537  29.010  19.676   9.162
 1318POPC   GL219538  28.799  19.966   9.067
 1318POPC   C1A19539  29.074  19.751   8.716
 1318POPC   D2A19540  29.158  19.999   8.381
 1318POPC   C3A19541  29.152  19.710   8.041
 1318POPC   C4A19542  29.232  19.749   7.605
 1318POPC   C1B19543  28.695  20.157   8.692
 1318POPC   C2B19544  28.722  20.277   8.266
 1318POPC   C3B19545  28.835  20.048   7.877
 1318POPC   C4B19546  28.896  20.075   7.424
 1319POPC   NC319547  17.689  14.316   9.591
 1319POPC   PO419548  17.012  14.497   9.520
 1319POPC   GL119549  17.347  14.341   9.211
 1319POPC   GL219550  17.604  14.606   9.143
 1319POPC   C1A19551  17.456  14.291   8.752
 1319POPC   D2A19552  17.464  14.570   8.354
 1319POPC   C3A19553  17.306  14.361   7.952
 1319POPC   C4A19554  16.899  14.263   7.771
 1319POPC   C1B19555  17.854  14.623   8.755
 1319POPC   C2B19556  17.991  14.587   8.321
 1319POPC   C3B19557  17.782  14.585   7.945
 1319POPC   C4B19558  17.689  14.246   7.639
 1320POPC   NC319559  22.773   4.504   9.662
 1320POPC   PO419560  22.838   3.830   9.582
 1320POPC   GL119561  22.871   4.184   9.262
 1320POPC   GL219562  22.846   4.588   9.187
 1320POPC   C1A19563  22.771   4.233   8.843
 1320POPC   D2A19564  22.744   4.244   8.435
 1320POPC   C3A19565  22.692   3.880   8.192
 1320POPC   C4A19566  22.692   3.925   7.761
 1320POPC   C1B19567  22.792   4.772   8.803
 1320POPC   C2B19568  23.005   4.715   8.440
 1320POPC   C3B19569  22.927   4.658   8.044
 1320POPC   C4B19570  22.886   4.549   7.607
 1321POPC   NC319571  44.460  40.858   9.606
 1321POPC   PO419572  43.826  40.788   9.665
 1321POPC   GL119573  43.932  40.747   9.258
 1321POPC   GL219574  44.172  40.957   9.193
 1321POPC   C1A19575  43.762  40.879   8.854
 1321POPC   D2A19576  43.873  40.696   8.465
 1321POPC   C3A19577  43.927  40.967   8.135
 1321POPC   C4A19578  43.955  40.789   7.760
 1321POPC   C1B19579  44.267  40.737   8.826
 1321POPC   C2B19580  44.370  40.839   8.395
 1321POPC   C3B19581  44.416  40.700   7.978
 1321POPC   C4B19582  44.445  40.894   7.610
 1322POPC   NC319583   1.693  14.158   9.682
 1322POPC   PO419584   2.121  14.557   9.457
 1322POPC   GL119585   1.786  14.494   9.156
 1322POPC   GL219586   1.568  14.782   9.258
 1322POPC   C1A19587   1.913  14.411   8.687
 1322POPC   D2A19588   2.236  14.330   8.330
 1322POPC   C3A19589   2.073  14.204   7.925
 1322POPC   C4A19590   1.602  14.170   7.852
 1322POPC   C1B19591   1.867  14.897   8.888
 1322POPC   C2B19592   1.746  14.940   8.445
 1322POPC   C3B19593   1.800  14.649   8.085
 1322POPC   C4B19594   2.072  14.672   7.737
 1323POPC   NC319595   5.436   1.338   9.442
 1323POPC   PO419596   5.916   0.851   9.459
 1323POPC   GL119597   5.792   1.132   9.104
 1323POPC   GL219598   5.943   1.485   9.089
 1323POPC   C1A19599   5.654   1.106   8.662
 1323POPC   D2A19600   5.456   1.109   8.273
 1323POPC   C3A19601   5.737   0.889   8.017
 1323POPC   C4A19602   6.026   1.108   7.737
 1323POPC   C1B19603   6.121   1.234   8.720
 1323POPC   C2B19604   6.024   1.206   8.285
 1323POPC   C3B19605   5.848   1.503   7.995
 1323POPC   C4B19606   6.097   1.627   7.621
 1324POPC   NC319607  25.778   7.069   9.464
 1324POPC   PO419608  25.988   7.706   9.607
 1324POPC   GL119609  26.056   7.452   9.192
 1324POPC   GL219610  25.817   7.224   8.996
 1324POPC   C1A19611  26.047   7.653   8.790
 1324POPC   D2A19612  26.250   7.840   8.454
 1324POPC   C3A19613  26.220   7.544   8.122
 1324POPC   C4A19614  26.037   7.609   7.714
 1324POPC   C1B19615  25.594   7.406   8.663
 1324POPC   C2B19616  25.636   7.540   8.237
 1324POPC   C3B19617  25.625   7.305   7.842
 1324POPC   C4B19618  25.810   7.263   7.433
 1325POPC   NC319619  35.848  44.051   9.384
 1325POPC   PO419620  36.512  44.164   9.488
 1325POPC   GL119621  36.525  44.021   9.076
 1325POPC   GL219622  36.176  43.863   9.021
 1325POPC   C1A19623  36.447  43.990   8.618
 1325POPC   D2A19624  36.122  43.803   8.329
 1325POPC   C3A19625  36.159  43.988   7.926
 1325POPC   C4A19626  36.583  44.147   7.857
 1325POPC   C1B19627  36.072  43.486   8.747
 1325POPC   C2B19628  36.142  43.282   8.351
 1325POPC   C3B19629  36.126  43.473   7.912
 1325POPC   C4B19630  35.976  43.671   7.538
 1326POPC   NC319631  37.922   0.754   9.585
 1326POPC   PO419632  37.532   0.226   9.561
 1326POPC   GL119633  37.765   0.387   9.223
 1326POPC   GL219634  37.585   0.711   9.208
 1326POPC   C1A19635  37.698   0.401   8.782
 1326POPC   D2A19636  37.598   0.234   8.391
 1326POPC   C3A19637  37.735   0.467   8.078
 1326POPC   C4A19638  37.973   0.371   7.734
 1326POPC   C1B19639  37.314   0.735   8.853
 1326POPC   C2B19640  37.488   0.770   8.447
 1326POPC   C3B19641  37.302   0.812   8.067
 1326POPC   C4B19642  37.495   0.695   7.690
 1327POPC   NC319643  14.825   7.309   9.495
 1327POPC   PO419644  14.293   7.216   9.806
 1327POPC   GL119645  14.410   7.410   9.238
 1327POPC   GL219646  14.184   7.636   9.124
 1327POPC   C1A19647  14.515   7.179   8.802
 1327POPC   D2A19648  14.335   7.143   8.363
 1327POPC   C3A19649  14.448   7.261   7.928
 1327POPC   C4A19650  14.784   7.596   7.839
 1327POPC   C1B19651  14.332   7.642   8.727
 1327POPC   C2B19652  14.022   7.560   8.450
 1327POPC   C3B19653  14.126   7.609   8.098
 1327POPC   C4B19654  14.289   7.725   7.766
 1328POPC   NC319655  27.783  26.014   9.596
 1328POPC   PO419656  27.182  25.820   9.419
 1328POPC   GL119657  27.525  25.846   9.156
 1328POPC   GL219658  27.541  26.184   9.186
 1328POPC   C1A19659  27.631  25.801   8.724
 1328POPC   D2A19660  27.742  25.883   8.308
 1328POPC   C3A19661  27.421  25.772   7.979
 1328POPC   C4A19662  27.328  25.977   7.598
 1328POPC   C1B19663  27.692  26.317   8.823
 1328POPC   C2B19664  27.541  26.401   8.418
 1328POPC   C3B19665  27.585  26.259   8.002
 1328POPC   C4B19666  27.862  26.092   7.726
 1329POPC   NC319667  22.772   9.618   9.592
 1329POPC   PO419668  22.930  10.260   9.614
 1329POPC   GL119669  22.895  10.038   9.190
 1329POPC   GL219670  22.716   9.735   9.090
 1329POPC   C1A19671  23.066   9.995   8.747
 1329POPC   D2A19672  22.874   9.877   8.342
 1329POPC   C3A19673  23.033   9.857   7.897
 1329POPC   C4A19674  22.968   9.924   7.440
 1329POPC   C1B19675  22.922   9.498   8.758
 1329POPC   C2B19676  22.907   9.305   8.350
 1329POPC   C3B19677  22.673   9.506   8.045
 1329POPC   C4B19678  22.664   9.577   7.644
 1330POPC   NC319679  20.149  16.307   9.508
 1330POPC   PO419680  19.634  15.841   9.493
 1330POPC   GL119681  19.741  16.155   9.160
 1330POPC   GL219682  19.530  16.416   9.028
 1330POPC   C1A19683  19.725  16.012   8.731
 1330POPC   D2A19684  19.885  15.668   8.494
 1330POPC   C3A19685  19.707  15.729   8.108
 1330POPC   C4A19686  20.075  15.759   7.922
 1330POPC   C1B19687  19.859  16.499   8.686
 1330POPC   C2B19688  19.976  16.306   8.296
 1330POPC   C3B19689  19.797  16.219   7.886
 1330POPC   C4B19690  19.410  16.309   7.632
 1331POPC   NC319691  31.856  21.249   9.359
 1331POPC   PO419692  32.529  21.451   9.493
 1331POPC   GL119693  32.497  21.611   9.119
 1331POPC   GL219694  32.136  21.488   8.995
 1331POPC   C1A19695  32.566  21.464   8.732
 1331POPC   D2A19696  32.271  21.523   8.390
 1331POPC   C3A19697  32.456  21.463   7.983
 1331POPC   C4A19698  32.370  21.437   7.512
 1331POPC   C1B19699  32.215  21.104   8.708
 1331POPC   C2B19700  32.236  21.057   8.241
 1331POPC   C3B19701  31.994  21.269   7.925
 1331POPC   C4B19702  31.965  21.133   7.515
 1332POPC   NC319703  38.713  27.972   9.320
 1332POPC   PO419704  38.504  28.569   9.485
 1332POPC   GL119705  38.348  28.439   9.098
 1332POPC   GL219706  38.188  28.093   9.155
 1332POPC   C1A19707  38.405  28.597   8.674
 1332POPC   D2A19708  38.631  28.569   8.277
 1332POPC   C3A19709  38.314  28.747   8.044
 1332POPC   C4A19710  37.979  28.529   7.847
 1332POPC   C1B19711  38.322  28.079   8.708
 1332POPC   C2B19712  38.283  28.169   8.265
 1332POPC   C3B19713  38.430  28.279   7.855
 1332POPC   C4B19714  38.617  28.126   7.482
 1333POPC   NC319715  23.826  40.280   9.698
 1333POPC   PO419716  23.448  40.730   9.553
 1333POPC   GL119717  23.646  40.565   9.178
 1333POPC   GL219718  23.544  40.227   9.165
 1333POPC   C1A19719  23.760  40.754   8.752
 1333POPC   D2A19720  23.511  40.902   8.387
 1333POPC   C3A19721  23.631  41.169   8.019
 1333POPC   C4A19722  23.789  41.038   7.602
 1333POPC   C1B19723  23.774  40.223   8.781
 1333POPC   C2B19724  23.805  40.411   8.378
 1333POPC   C3B19725  23.838  40.663   8.014
 1333POPC   C4B19726  23.965  40.558   7.590
 1334POPC   NC319727  22.193  11.528   9.712
 1334POPC   PO419728  21.729  11.069   9.469
 1334POPC   GL119729  21.938  11.416   9.185
 1334POPC   GL219730  22.132  11.711   9.236
 1334POPC   C1A19731  22.275  11.391   8.836
 1334POPC   D2A19732  22.302  11.076   8.542
 1334POPC   C3A19733  22.403  11.177   8.146
 1334POPC   C4A19734  22.291  11.111   7.718
 1334POPC   C1B19735  21.942  11.751   8.801
 1334POPC   C2B19736  22.099  11.587   8.391
 1334POPC   C3B19737  22.167  11.583   7.945
 1334POPC   C4B19738  22.450  11.696   7.593
 1335POPC   NC319739  37.283  12.109   9.485
 1335POPC   PO419740  36.705  11.754   9.644
 1335POPC   GL119741  36.816  11.945   9.220
 1335POPC   GL219742  36.625  12.266   9.139
 1335POPC   C1A19743  36.965  11.942   8.764
 1335POPC   D2A19744  37.256  11.931   8.358
 1335POPC   C3A19745  37.199  11.792   7.930
 1335POPC   C4A19746  36.909  11.726   7.579
 1335POPC   C1B19747  36.881  12.438   8.794
 1335POPC   C2B19748  36.877  12.291   8.372
 1335POPC   C3B19749  36.791  12.120   7.972
 1335POPC   C4B19750  36.712  12.414   7.661
 1336POPC   NC319751  13.331  42.988   9.558
 1336POPC   PO419752  13.807  43.506   9.490
 1336POPC   GL119753  13.656  43.283   9.141
 1336POPC   GL219754  13.615  42.939   9.144
 1336POPC   C1A19755  13.747  43.196   8.729
 1336POPC   D2A19756  13.563  43.328   8.393
 1336POPC   C3A19757  13.825  43.328   8.081
 1336POPC   C4A19758  13.619  43.348   7.733
 1336POPC   C1B19759  13.475  42.743   8.766
 1336POPC   C2B19760  13.608  42.816   8.365
 1336POPC   C3B19761  13.757  42.846   7.934
 1336POPC   C4B19762  13.841  42.640   7.568
 1337POPC   NC319763  30.690  39.748   9.546
 1337POPC   PO419764  30.584  40.454   9.643
 1337POPC   GL119765  30.798  40.215   9.289
 1337POPC   GL219766  30.578  40.008   9.102
 1337POPC   C1A19767  31.031  40.110   8.886
 1337POPC   D2A19768  30.863  40.166   8.453
 1337POPC   C3A19769  30.930  40.004   8.014
 1337POPC   C4A19770  30.680  40.113   7.651
 1337POPC   C1B19771  30.683  39.758   8.729
 1337POPC   C2B19772  30.586  39.677   8.280
 1337POPC   C3B19773  30.551  39.649   7.803
 1337POPC   C4B19774  30.434  39.721   7.357
 1338POPC   NC319775  29.833  44.213   9.474
 1338POPC   PO419776  30.402  43.854   9.504
 1338POPC   GL119777  30.131  43.924   9.157
 1338POPC   GL219778  29.822  43.730   9.203
 1338POPC   C1A19779  30.194  43.733   8.758
 1338POPC   D2A19780  30.414  43.826   8.387
 1338POPC   C3A19781  30.124  44.090   8.149
 1338POPC   C4A19782  29.925  44.146   7.739
 1338POPC   C1B19783  29.691  43.930   8.815
 1338POPC   C2B19784  29.819  43.781   8.416
 1338POPC   C3B19785  29.675  43.793   8.006
 1338POPC   C4B19786  29.616  43.663   7.561
 1339POPC   NC319787   5.142  12.330   9.574
 1339POPC   PO419788   4.846  12.929   9.520
 1339POPC   GL119789   4.991  12.692   9.201
 1339POPC   GL219790   4.644  12.771   9.068
 1339POPC   C1A19791   5.389  12.715   8.947
 1339POPC   D2A19792   5.514  13.028   8.639
 1339POPC   C3A19793   5.409  12.926   8.195
 1339POPC   C4A19794   5.207  12.886   7.808
 1339POPC   C1B19795   4.916  12.769   8.710
 1339POPC   C2B19796   4.888  12.947   8.348
 1339POPC   C3B19797   4.763  13.041   7.982
 1339POPC   C4B19798   4.724  12.612   7.794
 1340POPC   NC319799  23.357   3.720   9.453
 1340POPC   PO419800  23.818   3.399   9.696
 1340POPC   GL119801  23.605   3.319   9.236
 1340POPC   GL219802  23.590   3.647   9.003
 1340POPC   C1A19803  23.642   3.210   8.786
 1340POPC   D2A19804  23.642   3.536   8.483
 1340POPC   C3A19805  23.716   3.425   8.090
 1340POPC   C4A19806  23.437   3.352   7.764
 1340POPC   C1B19807  23.920   3.882   8.729
 1340POPC   C2B19808  24.124   3.715   8.345
 1340POPC   C3B19809  24.059   3.798   7.931
 1340POPC   C4B19810  23.722   3.782   7.694
 1341POPC   NC319811  43.392   1.893   9.269
 1341POPC   PO419812  42.838   2.154   9.546
 1341POPC   GL119813  42.792   1.956   9.150
 1341POPC   GL219814  43.003   1.681   9.052
 1341POPC   C1A19815  42.961   2.121   8.767
 1341POPC   D2A19816  43.297   2.248   8.493
 1341POPC   C3A19817  43.178   2.102   8.094
 1341POPC   C4A19818  43.343   1.828   7.820
 1341POPC   C1B19819  43.266   1.674   8.677
 1341POPC   C2B19820  43.198   1.612   8.274
 1341POPC   C3B19821  42.929   1.591   7.943
 1341POPC   C4B19822  43.023   1.675   7.473
 1342POPC   NC319823  36.830  13.933   9.512
 1342POPC   PO419824  36.524  13.353   9.711
 1342POPC   GL119825  36.706  13.365   9.264
 1342POPC   GL219826  36.375  13.290   9.112
 1342POPC   C1A19827  36.952  13.418   8.860
 1342POPC   D2A19828  36.901  13.271   8.431
 1342POPC   C3A19829  36.762  13.433   8.037
 1342POPC   C4A19830  37.046  13.751   7.890
 1342POPC   C1B19831  36.527  13.711   8.920
 1342POPC   C2B19832  36.662  13.804   8.493
 1342POPC   C3B19833  36.503  13.890   8.085
 1342POPC   C4B19834  36.562  13.795   7.666
 1343POPC   NC319835  32.903  35.071   9.554
 1343POPC   PO419836  33.318  35.608   9.413
 1343POPC   GL119837  33.105  35.336   9.138
 1343POPC   GL219838  33.086  35.617   8.959
 1343POPC   C1A19839  33.000  35.132   8.734
 1343POPC   D2A19840  32.811  35.187   8.300
 1343POPC   C3A19841  33.045  35.076   7.926
 1343POPC   C4A19842  33.188  34.849   7.498
 1343POPC   C1B19843  32.841  35.608   8.661
 1343POPC   C2B19844  33.122  35.604   8.336
 1343POPC   C3B19845  33.104  35.585   7.922
 1343POPC   C4B19846  32.675  35.460   7.843
 1344POPC   NC319847  10.717  28.023   9.389
 1344POPC   PO419848  10.340  28.512   9.496
 1344POPC   GL119849  10.400  28.468   9.085
 1344POPC   GL219850  10.390  28.133   8.991
 1344POPC   C1A19851  10.521  28.575   8.679
 1344POPC   D2A19852  10.555  28.341   8.316
 1344POPC   C3A19853  10.498  28.644   8.029
 1344POPC   C4A19854  10.660  28.474   7.672
 1344POPC   C1B19855  10.795  28.114   8.738
 1344POPC   C2B19856  10.980  28.025   8.327
 1344POPC   C3B19857  10.809  28.034   7.915
 1344POPC   C4B19858  10.934  28.091   7.481
 1345POPC   NC319859  18.100  23.199   9.659
 1345POPC   PO419860  18.293  23.864   9.440
 1345POPC   GL119861  18.310  23.786   9.038
 1345POPC   GL219862  18.219  23.459   9.098
 1345POPC   C1A19863  18.466  23.855   8.640
 1345POPC   D2A19864  18.443  23.634   8.260
 1345POPC   C3A19865  18.109  23.765   7.977
 1345POPC   C4A19866  18.321  23.795   7.552
 1345POPC   C1B19867  18.110  23.472   8.650
 1345POPC   C2B19868  18.061  23.285   8.221
 1345POPC   C3B19869  18.292  23.335   7.813
 1345POPC   C4B19870  18.295  23.291   7.360
 1346POPC   NC319871  24.135   9.853   9.433
 1346POPC   PO419872  24.680  10.149   9.655
 1346POPC   GL119873  24.579   9.916   9.227
 1346POPC   GL219874  24.531   9.624   9.205
 1346POPC   C1A19875  24.450   9.946   8.774
 1346POPC   D2A19876  24.254   9.669   8.475
 1346POPC   C3A19877  24.330   9.891   8.116
 1346POPC   C4A19878  24.031   9.973   7.836
 1346POPC   C1B19879  24.660   9.480   8.777
 1346POPC   C2B19880  24.741   9.637   8.346
 1346POPC   C3B19881  24.676   9.578   7.895
 1346POPC   C4B19882  24.393   9.728   7.593
 1347POPC   NC319883   3.655  38.325   9.649
 1347POPC   PO419884   3.108  38.523   9.290
 1347POPC   GL119885   3.442  38.400   9.036
 1347POPC   GL219886   3.782  38.480   9.183
 1347POPC   C1A19887   3.401  38.462   8.601
 1347POPC   D2A19888   3.540  38.668   8.255
 1347POPC   C3A19889   3.432  38.341   7.997
 1347POPC   C4A19890   3.380  38.420   7.597
 1347POPC   C1B19891   3.890  38.430   8.753
 1347POPC   C2B19892   3.851  38.259   8.324
 1347POPC   C3B19893   3.932  38.541   7.987
 1347POPC   C4B19894   3.839  38.624   7.555
 1348POPC   NC319895  16.980  37.938   9.423
 1348POPC   PO419896  16.471  37.566   9.618
 1348POPC   GL119897  16.593  37.675   9.167
 1348POPC   GL219898  16.696  38.033   9.034
 1348POPC   C1A19899  16.708  37.627   8.711
 1348POPC   D2A19900  17.046  37.642   8.378
 1348POPC   C3A19901  16.865  37.569   7.941
 1348POPC   C4A19902  16.481  37.336   7.775
 1348POPC   C1B19903  16.973  38.098   8.649
 1348POPC   C2B19904  17.000  38.101   8.152
 1348POPC   C3B19905  16.739  38.059   7.749
 1348POPC   C4B19906  16.588  38.119   7.256
 1349POPC   NC319907   1.560  28.107   9.416
 1349POPC   PO419908   2.209  28.008   9.220
 1349POPC   GL119909   2.011  28.356   9.121
 1349POPC   GL219910   1.685  28.386   9.023
 1349POPC   C1A19911   2.076  28.489   8.711
 1349POPC   D2A19912   2.260  28.480   8.340
 1349POPC   C3A19913   2.060  28.581   7.971
 1349POPC   C4A19914   2.121  28.255   7.682
 1349POPC   C1B19915   1.627  28.706   8.735
 1349POPC   C2B19916   1.671  28.716   8.298
 1349POPC   C3B19917   1.577  28.717   7.846
 1349POPC   C4B19918   1.786  28.579   7.457
 1350POPC   NC319919  38.248   2.251   9.513
 1350POPC   PO419920  38.777   1.972   9.729
 1350POPC   GL119921  38.645   2.033   9.260
 1350POPC   GL219922  38.650   2.366   9.218
 1350POPC   C1A19923  38.573   1.810   8.774
 1350POPC   D2A19924  38.807   1.716   8.329
 1350POPC   C3A19925  38.582   1.832   7.909
 1350POPC   C4A19926  38.220   1.957   7.566
 1350POPC   C1B19927  38.785   2.268   8.819
 1350POPC   C2B19928  38.637   2.188   8.408
 1350POPC   C3B19929  38.643   2.338   8.002
 1350POPC   C4B19930  38.653   2.226   7.562
 1351POPC   NC319931  25.818   6.082   9.309
 1351POPC   PO419932  26.256   5.681   9.551
 1351POPC   GL119933  25.965   5.620   9.146
 1351POPC   GL219934  26.109   5.895   8.917
 1351POPC   C1A19935  25.804   5.556   8.702
 1351POPC   D2A19936  25.986   5.796   8.361
 1351POPC   C3A19937  25.978   5.673   7.923
 1351POPC   C4A19938  26.069   6.082   7.718
 1351POPC   C1B19939  25.715   6.073   8.704
 1351POPC   C2B19940  25.479   5.985   8.384
 1351POPC   C3B19941  25.655   6.026   8.033
 1351POPC   C4B19942  25.620   5.822   7.600
 1352POPC   NC319943  33.651  25.065   9.534
 1352POPC   PO419944  33.038  25.162   9.511
 1352POPC   GL119945  33.137  25.221   9.103
 1352POPC   GL219946  32.854  25.166   8.845
 1352POPC   C1A19947  33.264  25.486   8.789
 1352POPC   D2A19948  33.029  25.505   8.436
 1352POPC   C3A19949  33.270  25.534   8.094
 1352POPC   C4A19950  33.109  25.436   7.724
 1352POPC   C1B19951  33.191  24.981   8.646
 1352POPC   C2B19952  33.258  25.057   8.251
 1352POPC   C3B19953  32.841  25.118   8.026
 1352POPC   C4B19954  32.531  24.767   7.914
 1353POPC   NC319955  14.982  35.814   9.360
 1353POPC   PO419956  14.974  35.154   9.564
 1353POPC   GL119957  15.121  35.200   9.135
 1353POPC   GL219958  15.478  35.126   9.110
 1353POPC   C1A19959  15.025  35.455   8.755
 1353POPC   D2A19960  14.878  35.621   8.359
 1353POPC   C3A19961  14.996  35.511   7.940
 1353POPC   C4A19962  14.899  35.509   7.482
 1353POPC   C1B19963  15.418  35.142   8.647
 1353POPC   C2B19964  15.060  35.079   8.339
 1353POPC   C3B19965  15.013  35.026   7.893
 1353POPC   C4B19966  15.301  35.244   7.606
 1354POPC   NC319967  12.356  40.152   9.504
 1354POPC   PO419968  11.669  39.877   9.490
 1354POPC   GL119969  12.009  39.850   9.150
 1354POPC   GL219970  12.202  40.134   9.030
 1354POPC   C1A19971  12.114  39.766   8.696
 1354POPC   D2A19972  12.268  39.561   8.293
 1354POPC   C3A19973  12.078  39.765   7.940
 1354POPC   C4A19974  11.651  39.794   7.866
 1354POPC   C1B19975  12.328  40.223   8.656
 1354POPC   C2B19976  12.021  40.106   8.328
 1354POPC   C3B19977  12.029  40.277   7.932
 1354POPC   C4B19978  12.483  40.320   7.860
 1355POPC   NC319979  31.294  43.717   9.500
 1355POPC   PO419980  31.906  43.771   9.327
 1355POPC   GL119981  31.541  43.795   9.071
 1355POPC   GL219982  31.369  43.473   9.073
 1355POPC   C1A19983  31.412  44.024   8.727
 1355POPC   D2A19984  31.615  44.250   8.391
 1355POPC   C3A19985  31.527  44.077   8.025
 1355POPC   C4A19986  31.274  43.834   7.761
 1355POPC   C1B19987  31.265  43.500   8.664
 1355POPC   C2B19988  31.342  43.586   8.221
 1355POPC   C3B19989  31.161  43.357   7.887
 1355POPC   C4B19990  31.141  43.426   7.443
 1356POPC   NC319991  27.994   0.519   9.296
 1356POPC   PO419992  27.334   0.179   9.506
 1356POPC   GL119993  27.524   0.273   9.080
 1356POPC   GL219994  27.855   0.236   8.903
 1356POPC   C1A19995  27.407   0.397   8.650
 1356POPC   D2A19996  27.106   0.588   8.336
 1356POPC   C3A19997  27.251   0.681   7.939
 1356POPC   C4A19998  27.621   0.564   7.737
 1356POPC   C1B19999  27.894   0.638   8.623
 1356POPC   C2B20000  27.625   0.689   8.285
 1356POPC   C3B20001  27.491   0.261   8.147
 1356POPC   C4B20002  27.734   0.007   7.861
 1357POPC   NC320003   9.527   3.372   9.474
 1357POPC   PO420004   9.922   3.936   9.492
 1357POPC   GL120005   9.892   3.623   9.175
 1357POPC   GL220006  10.004   3.255   9.296
 1357POPC   C1A20007   9.736   3.653   8.741
 1357POPC   D2A20008  10.008   3.514   8.388
 1357POPC   C3A20009   9.795   3.484   8.033
 1357POPC   C4A20010   9.584   3.849   7.981
 1357POPC   C1B20011   9.956   3.211   8.845
 1357POPC   C2B20012   9.650   3.167   8.508
 1357POPC   C3B20013   9.462   3.107   8.096
 1357POPC   C4B20014   9.298   3.456   7.822
 1358POPC   NC320015  20.848  12.836   9.537
 1358POPC   PO420016  20.430  13.292   9.507
 1358POPC   GL120017  20.528  13.103   9.118
 1358POPC   GL220018  20.577  12.783   9.115
 1358POPC   C1A20019  20.618  13.002   8.678
 1358POPC   D2A20020  20.924  13.115   8.419
 1358POPC   C3A20021  20.847  13.035   8.042
 1358POPC   C4A20022  20.607  13.115   7.729
 1358POPC   C1B20023  20.533  12.490   8.770
 1358POPC   C2B20024  20.259  12.488   8.446
 1358POPC   C3B20025  20.361  12.457   8.042
 1358POPC   C4B20026  20.639  12.614   7.760
 1359POPC   NC320027  28.783  14.355   9.488
 1359POPC   PO420028  29.467  14.610   9.405
 1359POPC   GL120029  29.268  14.204   9.233
 1359POPC   GL220030  29.472  13.977   8.988
 1359POPC   C1A20031  28.974  14.199   8.878
 1359POPC   D2A20032  29.015  14.255   8.421
 1359POPC   C3A20033  28.958  14.640   8.174
 1359POPC   C4A20034  29.077  14.681   7.709
 1359POPC   C1B20035  29.448  14.382   8.781
 1359POPC   C2B20036  29.485  14.559   8.395
 1359POPC   C3B20037  29.360  14.373   8.022
 1359POPC   C4B20038  29.533  14.445   7.632
 1360POPC   NC320039  38.654  15.293   9.369
 1360POPC   PO420040  39.254  15.072   9.642
 1360POPC   GL120041  39.302  15.057   9.197
 1360POPC   GL220042  38.988  15.006   9.127
 1360POPC   C1A20043  39.465  15.137   8.793
 1360POPC   D2A20044  39.307  15.274   8.403
 1360POPC   C3A20045  39.554  15.172   8.037
 1360POPC   C4A20046  39.449  15.254   7.639
 1360POPC   C1B20047  38.930  15.173   8.744
 1360POPC   C2B20048  38.921  14.949   8.360
 1360POPC   C3B20049  39.069  15.042   7.992
 1360POPC   C4B20050  39.108  14.878   7.628
 1361POPC   NC320051  16.202  29.011   9.506
 1361POPC   PO420052  15.916  29.575   9.533
 1361POPC   GL120053  16.112  29.358   9.157
 1361POPC   GL220054  16.007  28.997   9.040
 1361POPC   C1A20055  16.323  29.268   8.749
 1361POPC   D2A20056  16.354  29.505   8.356
 1361POPC   C3A20057  16.164  29.245   8.010
 1361POPC   C4A20058  15.862  29.313   7.683
 1361POPC   C1B20059  15.945  28.956   8.577
 1361POPC   C2B20060  15.752  28.982   8.154
 1361POPC   C3B20061  15.587  28.864   7.739
 1361POPC   C4B20062  15.440  28.724   7.324
 1362POPC   NC320063  22.100  14.719   9.536
 1362POPC   PO420064  21.735  14.175   9.453
 1362POPC   GL120065  22.024  14.318   9.107
 1362POPC   GL220066  22.168  14.674   9.048
 1362POPC   C1A20067  22.234  14.331   8.683
 1362POPC   D2A20068  22.441  14.611   8.395
 1362POPC   C3A20069  22.345  14.422   7.964
 1362POPC   C4A20070  22.126  14.065   7.733
 1362POPC   C1B20071  22.073  14.842   8.653
 1362POPC   C2B20072  21.943  14.568   8.298
 1362POPC   C3B20073  21.805  14.643   7.914
 1362POPC   C4B20074  21.798  14.393   7.555
 1363POPC   NC320075  14.517  35.162   9.766
 1363POPC   PO420076  14.149  35.715   9.593
 1363POPC   GL120077  14.300  35.372   9.338
 1363POPC   GL220078  14.050  35.422   9.097
 1363POPC   C1A20079  14.522  35.343   8.932
 1363POPC   D2A20080  14.371  35.421   8.506
 1363POPC   C3A20081  14.589  35.231   8.171
 1363POPC   C4A20082  14.558  35.216   7.729
 1363POPC   C1B20083  14.008  35.165   8.772
 1363POPC   C2B20084  13.888  35.247   8.370
 1363POPC   C3B20085  14.097  35.235   7.952
 1363POPC   C4B20086  14.068  34.874   7.606
 1364POPC   NC320087  43.462  21.857   9.573
 1364POPC   PO420088  42.978  22.280   9.628
 1364POPC   GL120089  43.287  22.206   9.249
 1364POPC   GL220090  43.081  21.945   9.207
 1364POPC   C1A20091  43.406  22.016   8.809
 1364POPC   D2A20092  43.152  21.937   8.451
 1364POPC   C3A20093  43.193  22.044   8.025
 1364POPC   C4A20094  42.975  22.254   7.727
 1364POPC   C1B20095  42.944  22.204   8.859
 1364POPC   C2B20096  42.718  22.409   8.543
 1364POPC   C3B20097  42.648  22.400   8.086
 1364POPC   C4B20098  42.511  22.527   7.652
 1365POPC   NC320099   4.399  39.854   9.527
 1365POPC   PO420100   3.962  40.340   9.432
 1365POPC   GL120101   4.303  40.223   9.104
 1365POPC   GL220102   4.347  39.857   9.025
 1365POPC   C1A20103   4.257  40.201   8.643
 1365POPC   D2A20104   3.959  40.047   8.332
 1365POPC   C3A20105   4.077  40.262   7.978
 1365POPC   C4A20106   4.187  40.331   7.581
 1365POPC   C1B20107   4.563  39.765   8.654
 1365POPC   C2B20108   4.400  39.785   8.239
 1365POPC   C3B20109   4.503  39.980   7.890
 1365POPC   C4B20110   4.902  39.890   7.772
 1366POPC   NC320111  11.495  25.057   9.401
 1366POPC   PO420112  11.368  24.451   9.559
 1366POPC   GL120113  11.242  24.611   9.170
 1366POPC   GL220114  11.040  24.927   9.181
 1366POPC   C1A20115  11.265  24.336   8.809
 1366POPC   D2A20116  11.315  24.184   8.393
 1366POPC   C3A20117  11.249  24.535   8.092
 1366POPC   C4A20118  11.275  24.415   7.684
 1366POPC   C1B20119  11.007  24.775   8.743
 1366POPC   C2B20120  10.934  24.931   8.323
 1366POPC   C3B20121  10.817  24.780   7.905
 1366POPC   C4B20122  10.859  24.590   7.502
 1367POPC   NC320123  15.748  35.502   9.388
 1367POPC   PO420124  16.350  35.494   9.531
 1367POPC   GL120125  16.177  35.405   9.102
 1367POPC   GL220126  15.862  35.377   8.922
 1367POPC   C1A20127  16.161  35.675   8.689
 1367POPC   D2A20128  15.800  35.550   8.401
 1367POPC   C3A20129  15.970  35.415   8.024
 1367POPC   C4A20130  16.175  35.734   7.852
 1367POPC   C1B20131  15.926  35.074   8.610
 1367POPC   C2B20132  15.775  34.986   8.221
 1367POPC   C3B20133  15.472  35.236   8.080
 1367POPC   C4B20134  15.512  35.631   7.894
 1368POPC   NC320135  19.124  22.052   9.597
 1368POPC   PO420136  18.886  21.351   9.555
 1368POPC   GL120137  19.031  21.715   9.256
 1368POPC   GL220138  18.841  22.055   9.182
 1368POPC   C1A20139  19.237  21.938   8.896
 1368POPC   D2A20140  19.398  21.881   8.467
 1368POPC   C3A20141  19.283  22.203   8.208
 1368POPC   C4A20142  19.251  22.162   7.771
 1368POPC   C1B20143  18.713  21.824   8.860
 1368POPC   C2B20144  18.907  21.893   8.504
 1368POPC   C3B20145  18.846  21.952   8.096
 1368POPC   C4B20146  18.756  22.058   7.717
 1369POPC   NC320147  41.867   0.259   9.513
 1369POPC   PO420148  41.491   0.795   9.422
 1369POPC   GL120149  41.638   0.535   9.134
 1369POPC   GL220150  41.438   0.255   9.171
 1369POPC   C1A20151  41.768   0.656   8.759
 1369POPC   D2A20152  41.562   0.712   8.398
 1369POPC   C3A20153  41.761   0.559   8.051
 1369POPC   C4A20154  41.580   0.652   7.692
 1369POPC   C1B20155  41.416   0.285   8.710
 1369POPC   C2B20156  41.439   0.193   8.279
 1369POPC   C3B20157  41.229   0.099   7.901
 1369POPC   C4B20158  41.582   0.157   7.630
 1370POPC   NC320159  41.776  24.354   9.611
 1370POPC   PO420160  41.739  24.803   9.108
 1370POPC   GL120161  41.581  24.361   9.090
 1370POPC   GL220162  41.838  24.094   9.185
 1370POPC   C1A20163  41.415  24.337   8.663
 1370POPC   D2A20164  41.336  24.331   8.219
 1370POPC   C3A20165  41.286  24.648   7.871
 1370POPC   C4A20166  41.443  24.603   7.438
 1370POPC   C1B20167  41.995  24.234   8.813
 1370POPC   C2B20168  41.860  24.140   8.429
 1370POPC   C3B20169  41.879  24.313   8.076
 1370POPC   C4B20170  41.859  24.534   7.718
 1371POPC   NC320171  42.132  26.971   9.641
 1371POPC   PO420172  42.540  26.468   9.551
 1371POPC   GL120173  42.387  26.682   9.213
 1371POPC   GL220174  42.046  26.631   9.250
 1371POPC   C1A20175  42.527  26.705   8.777
 1371POPC   D2A20176  42.720  26.924   8.438
 1371POPC   C3A20177  42.557  26.815   8.037
 1371POPC   C4A20178  42.562  26.756   7.570
 1371POPC   C1B20179  42.003  26.794   8.844
 1371POPC   C2B20180  42.144  26.878   8.452
 1371POPC   C3B20181  42.023  26.759   8.056
 1371POPC   C4B20182  42.043  26.800   7.616
 1372POPC   NC320183  36.009   2.832   9.468
 1372POPC   PO420184  36.634   2.532   9.656
 1372POPC   GL120185  36.467   2.741   9.237
 1372POPC   GL220186  36.203   2.580   9.040
 1372POPC   C1A20187  36.391   2.991   8.824
 1372POPC   D2A20188  36.226   2.703   8.517
 1372POPC   C3A20189  36.215   2.823   8.084
 1372POPC   C4A20190  36.472   2.925   7.710
 1372POPC   C1B20191  35.866   2.877   8.831
 1372POPC   C2B20192  35.829   3.083   8.421
 1372POPC   C3B20193  35.698   3.009   7.996
 1372POPC   C4B20194  35.898   2.771   7.666
 1373POPC   NC320195   6.348  42.572   9.372
 1373POPC   PO420196   6.411  41.854   9.509
 1373POPC   GL120197   6.714  42.072   9.187
 1373POPC   GL220198   6.658  42.405   9.007
 1373POPC   C1A20199   6.878  42.027   8.729
 1373POPC   D2A20200   6.600  42.182   8.425
 1373POPC   C3A20201   6.726  42.387   8.074
 1373POPC   C4A20202   6.620  42.265   7.698
 1373POPC   C1B20203   6.420  42.645   8.676
 1373POPC   C2B20204   6.233  42.510   8.285
 1373POPC   C3B20205   6.244  42.605   7.847
 1373POPC   C4B20206   6.225  42.595   7.398
 1374POPC   NC320207   6.135  13.438   9.395
 1374POPC   PO420208   6.760  13.622   9.681
 1374POPC   GL120209   6.789  13.766   9.268
 1374POPC   GL220210   6.588  13.509   9.177
 1374POPC   C1A20211   6.639  13.879   8.848
 1374POPC   D2A20212   6.706  13.679   8.473
 1374POPC   C3A20213   6.787  13.788   8.085
 1374POPC   C4A20214   6.651  13.793   7.683
 1374POPC   C1B20215   6.493  13.336   8.776
 1374POPC   C2B20216   6.722  13.194   8.411
 1374POPC   C3B20217   6.619  13.304   7.960
 1374POPC   C4B20218   6.765  13.272   7.528
 1375POPC   NC320219   8.439  21.271   9.742
 1375POPC   PO420220   7.840  21.260   9.404
 1375POPC   GL120221   8.115  21.316   9.097
 1375POPC   GL220222   8.449  21.344   9.179
 1375POPC   C1A20223   8.164  21.513   8.731
 1375POPC   D2A20224   8.159  21.347   8.351
 1375POPC   C3A20225   7.948  21.542   8.040
 1375POPC   C4A20226   8.132  21.489   7.659
 1375POPC   C1B20227   8.447  21.093   8.764
 1375POPC   C2B20228   8.614  21.074   8.336
 1375POPC   C3B20229   8.535  20.986   7.878
 1375POPC   C4B20230   8.634  21.026   7.440
 1376POPC   NC320231  14.948  40.873   9.466
 1376POPC   PO420232  15.385  40.449   9.468
 1376POPC   GL120233  15.228  40.635   9.113
 1376POPC   GL220234  15.332  40.935   9.115
 1376POPC   C1A20235  14.963  40.745   8.747
 1376POPC   D2A20236  15.106  40.645   8.310
 1376POPC   C3A20237  14.905  40.851   7.948
 1376POPC   C4A20238  14.919  40.928   7.496
 1376POPC   C1B20239  15.471  40.818   8.703
 1376POPC   C2B20240  15.424  41.056   8.325
 1376POPC   C3B20241  15.412  40.898   7.912
 1376POPC   C4B20242  15.333  41.175   7.608
 1377POPC   NC320243   1.425   5.234   9.516
 1377POPC   PO420244   1.590   4.678   9.353
 1377POPC   GL120245   1.310   5.007   9.101
 1377POPC   GL220246   0.960   5.079   9.249
 1377POPC   C1A20247   1.190   5.292   8.756
 1377POPC   D2A20248   1.127   5.449   8.317
 1377POPC   C3A20249   1.216   5.204   7.939
 1377POPC   C4A20250   1.182   5.312   7.468
 1377POPC   C1B20251   0.861   4.896   8.849
 1377POPC   C2B20252   0.991   4.842   8.423
 1377POPC   C3B20253   0.781   4.704   8.037
 1377POPC   C4B20254   0.974   4.849   7.690
 1378POPC   NC320255   4.406   6.187   9.370
 1378POPC   PO420256   4.407   5.535   9.490
 1378POPC   GL120257   4.393   5.580   9.081
 1378POPC   GL220258   4.599   5.847   8.993
 1378POPC   C1A20259   4.158   5.673   8.733
 1378POPC   D2A20260   4.063   5.883   8.382
 1378POPC   C3A20261   4.247   5.631   8.066
 1378POPC   C4A20262   4.565   5.744   7.804
 1378POPC   C1B20263   4.440   6.132   8.671
 1378POPC   C2B20264   4.294   6.322   8.286
 1378POPC   C3B20265   4.230   6.113   7.891
 1378POPC   C4B20266   4.400   6.061   7.460
 1379POPC   NC320267  15.941   3.023   9.479
 1379POPC   PO420268  16.189   2.335   9.391
 1379POPC   GL120269  16.128   2.676   9.140
 1379POPC   GL220270  15.776   2.678   9.068
 1379POPC   C1A20271  16.101   2.870   8.736
 1379POPC   D2A20272  15.881   3.005   8.384
 1379POPC   C3A20273  16.133   2.922   8.039
 1379POPC   C4A20274  16.171   2.686   7.662
 1379POPC   C1B20275  15.680   2.538   8.649
 1379POPC   C2B20276  15.618   2.572   8.210
 1379POPC   C3B20277  15.686   2.778   7.819
 1379POPC   C4B20278  15.405   2.768   7.479
 1380POPC   NC320279  20.811  40.287   9.556
 1380POPC   PO420280  20.825  39.665   9.472
 1380POPC   GL120281  20.693  39.775   9.075
 1380POPC   GL220282  20.587  40.094   9.121
 1380POPC   C1A20283  20.795  39.897   8.682
 1380POPC   D2A20284  20.607  39.987   8.324
 1380POPC   C3A20285  20.787  39.910   7.950
 1380POPC   C4A20286  20.480  39.832   7.706
 1380POPC   C1B20287  20.530  40.337   8.736
 1380POPC   C2B20288  20.508  40.475   8.324
 1380POPC   C3B20289  20.448  40.322   7.921
 1380POPC   C4B20290  20.468  40.307   7.476
 1381POPC   NC320291  20.484   9.298   9.804
 1381POPC   PO420292  20.777   9.878   9.786
 1381POPC   GL120293  20.554   9.830   9.363
 1381POPC   GL220294  20.443  10.141   9.195
 1381POPC   C1A20295  20.493   9.723   8.895
 1381POPC   D2A20296  20.485   9.665   8.428
 1381POPC   C3A20297  20.682   9.330   8.184
 1381POPC   C4A20298  20.936   9.352   7.814
 1381POPC   C1B20299  20.813  10.127   8.967
 1381POPC   C2B20300  20.770  10.113   8.544
 1381POPC   C3B20301  20.692  10.075   8.116
 1381POPC   C4B20302  20.615   9.751   7.828
 1382POPC   NC320303  37.040   1.225   9.592
 1382POPC   PO420304  36.530   1.660   9.519
 1382POPC   GL120305  36.744   1.333   9.187
 1382POPC   GL220306  37.093   1.392   9.107
 1382POPC   C1A20307  36.730   1.058   8.821
 1382POPC   D2A20308  36.970   0.921   8.462
 1382POPC   C3A20309  36.895   1.164   8.079
 1382POPC   C4A20310  36.987   0.978   7.695
 1382POPC   C1B20311  37.128   1.655   8.754
 1382POPC   C2B20312  36.979   1.632   8.369
 1382POPC   C3B20313  37.156   1.634   7.989
 1382POPC   C4B20314  36.985   1.496   7.660
 1383POPC   NC320315  10.052  34.227   9.647
 1383POPC   PO420316   9.766  34.929   9.523
 1383POPC   GL120317   9.784  34.693   9.169
 1383POPC   GL220318   9.789  34.329   9.178
 1383POPC   C1A20319   9.767  34.653   8.736
 1383POPC   D2A20320  10.076  34.702   8.424
 1383POPC   C3A20321   9.921  34.725   8.011
 1383POPC   C4A20322   9.562  34.615   7.794
 1383POPC   C1B20323  10.024  34.225   8.768
 1383POPC   C2B20324   9.821  34.268   8.372
 1383POPC   C3B20325   9.788  34.156   7.963
 1383POPC   C4B20326   9.970  34.334   7.602
 1384POPC   NC320327  32.676  27.383   9.429
 1384POPC   PO420328  32.990  28.020   9.497
 1384POPC   GL120329  33.005  27.700   9.163
 1384POPC   GL220330  33.286  27.785   8.965
 1384POPC   C1A20331  33.086  27.330   8.847
 1384POPC   D2A20332  33.181  27.346   8.383
 1384POPC   C3A20333  32.848  27.256   8.080
 1384POPC   C4A20334  32.952  27.102   7.656
 1384POPC   C1B20335  33.013  27.785   8.619
 1384POPC   C2B20336  33.170  27.862   8.203
 1384POPC   C3B20337  33.219  27.542   7.882
 1384POPC   C4B20338  32.848  27.605   7.682
 1385POPC   NC320339  44.437  20.116   9.622
 1385POPC   PO420340  44.655  19.524   9.468
 1385POPC   GL120341  44.705  19.882   9.233
 1385POPC   GL220342  44.384  19.924   9.150
 1385POPC   C1A20343  44.862  19.889   8.844
 1385POPC   D2A20344  44.728  19.697   8.509
 1385POPC   C3A20345  44.830  19.913   8.140
 1385POPC   C4A20346  44.944  19.819   7.730
 1385POPC   C1B20347  44.351  20.052   8.747
 1385POPC   C2B20348  44.324  19.931   8.317
 1385POPC   C3B20349  44.409  19.869   7.871
 1385POPC   C4B20350  44.369  20.086   7.449
 1386POPC   NC320351  42.201  44.341   9.726
 1386POPC   PO420352  42.131  44.897   9.397
 1386POPC   GL120353  42.220  44.838   9.011
 1386POPC   GL220354  42.158  44.533   9.024
 1386POPC   C1A20355  42.150  44.779   8.596
 1386POPC   D2A20356  42.413  44.586   8.336
 1386POPC   C3A20357  42.302  44.719   7.930
 1386POPC   C4A20358  42.582  44.872   7.624
 1386POPC   C1B20359  42.493  44.337   8.795
 1386POPC   C2B20360  42.498  44.075   8.412
 1386POPC   C3B20361  42.400  44.184   8.001
 1386POPC   C4B20362  42.199  44.329   7.633
 1387POPC   NC320363  36.111   3.816   9.613
 1387POPC   PO420364  36.434   3.225   9.431
 1387POPC   GL120365  36.078   3.439   9.213
 1387POPC   GL220366  35.933   3.800   9.155
 1387POPC   C1A20367  35.930   3.441   8.786
 1387POPC   D2A20368  35.676   3.591   8.420
 1387POPC   C3A20369  35.917   3.490   8.068
 1387POPC   C4A20370  36.028   3.463   7.640
 1387POPC   C1B20371  35.965   3.948   8.770
 1387POPC   C2B20372  36.129   3.869   8.357
 1387POPC   C3B20373  36.194   3.907   7.911
 1387POPC   C4B20374  36.507   3.662   7.695
 1388POPC   NC320375  10.315  27.369   9.813
 1388POPC   PO420376  10.874  27.595   9.544
 1388POPC   GL120377  10.566  27.383   9.256
 1388POPC   GL220378  10.204  27.307   9.278
 1388POPC   C1A20379  10.392  27.627   8.891
 1388POPC   D2A20380  10.381  27.905   8.534
 1388POPC   C3A20381  10.345  27.689   8.155
 1388POPC   C4A20382  10.504  27.655   7.749
 1388POPC   C1B20383  10.320  27.129   8.869
 1388POPC   C2B20384  10.412  27.233   8.466
 1388POPC   C3B20385  10.321  27.168   8.050
 1388POPC   C4B20386  10.045  27.376   7.777
 1389POPC   NC320387  13.607  41.417   9.562
 1389POPC   PO420388  13.767  41.986   9.321
 1389POPC   GL120389  13.576  41.688   9.051
 1389POPC   GL220390  13.562  41.315   9.080
 1389POPC   C1A20391  13.567  41.822   8.605
 1389POPC   D2A20392  13.593  41.987   8.183
 1389POPC   C3A20393  13.630  41.658   7.885
 1389POPC   C4A20394  13.537  41.205   7.885
 1389POPC   C1B20395  13.661  41.325   8.674
 1389POPC   C2B20396  13.832  41.435   8.313
 1389POPC   C3B20397  14.037  41.278   7.955
 1389POPC   C4B20398  14.079  41.285   7.520
 1390POPC   NC320399  32.157  34.387   9.671
 1390POPC   PO420400  32.616  34.720   9.449
 1390POPC   GL120401  32.397  34.432   9.197
 1390POPC   GL220402  32.034  34.504   9.201
 1390POPC   C1A20403  32.617  34.344   8.812
 1390POPC   D2A20404  32.632  34.745   8.571
 1390POPC   C3A20405  32.581  34.740   8.134
 1390POPC   C4A20406  32.491  34.482   7.770
 1390POPC   C1B20407  32.103  34.195   8.876
 1390POPC   C2B20408  32.213  34.385   8.514
 1390POPC   C3B20409  32.160  34.353   8.113
 1390POPC   C4B20410  31.990  34.362   7.698
 1391POPC   NC320411  27.342   4.607   9.677
 1391POPC   PO420412  26.645   4.462   9.591
 1391POPC   GL120413  26.602   4.487   9.157
 1391POPC   GL220414  26.888   4.255   9.160
 1391POPC   C1A20415  26.741   4.481   8.719
 1391POPC   D2A20416  26.957   4.224   8.421
 1391POPC   C3A20417  26.859   4.436   8.063
 1391POPC   C4A20418  26.448   4.586   8.004
 1391POPC   C1B20419  26.620   3.997   8.885
 1391POPC   C2B20420  26.453   4.014   8.472
 1391POPC   C3B20421  26.555   4.042   8.071
 1391POPC   C4B20422  26.619   3.823   7.727
 1392POPC   NC320423  29.497  11.731   9.660
 1392POPC   PO420424  28.925  12.016   9.800
 1392POPC   GL120425  29.007  12.053   9.318
 1392POPC   GL220426  29.217  11.754   9.205
 1392POPC   C1A20427  28.961  12.011   8.838
 1392POPC   D2A20428  28.895  11.766   8.446
 1392POPC   C3A20429  29.039  11.962   8.037
 1392POPC   C4A20430  28.846  12.200   7.744
 1392POPC   C1B20431  29.368  11.701   8.754
 1392POPC   C2B20432  29.398  11.783   8.333
 1392POPC   C3B20433  29.460  11.713   7.894
 1392POPC   C4B20434  29.458  12.148   7.743
 1393POPC   NC320435  23.043  35.107   9.429
 1393POPC   PO420436  22.553  35.666   9.529
 1393POPC   GL120437  22.759  35.501   9.184
 1393POPC   GL220438  22.682  35.171   9.069
 1393POPC   C1A20439  22.919  35.538   8.775
 1393POPC   D2A20440  22.976  35.641   8.400
 1393POPC   C3A20441  23.180  35.538   8.063
 1393POPC   C4A20442  22.933  35.529   7.697
 1393POPC   C1B20443  23.099  35.083   8.789
 1393POPC   C2B20444  23.146  35.126   8.369
 1393POPC   C3B20445  22.886  35.113   7.991
 1393POPC   C4B20446  23.030  35.042   7.578
 1394POPC   NC320447   4.799  23.260   9.245
 1394POPC   PO420448   5.043  22.966   9.752
 1394POPC   GL120449   5.070  22.819   9.274
 1394POPC   GL220450   5.249  23.068   9.111
 1394POPC   C1A20451   4.861  22.784   8.804
 1394POPC   D2A20452   4.785  22.980   8.356
 1394POPC   C3A20453   4.986  22.910   7.931
 1394POPC   C4A20454   4.901  23.173   7.545
 1394POPC   C1B20455   5.342  22.891   8.739
 1394POPC   C2B20456   5.320  23.065   8.330
 1394POPC   C3B20457   5.406  23.224   7.935
 1394POPC   C4B20458   5.362  22.994   7.559
 1395POPC   NC320459  17.676  33.318   9.875
 1395POPC   PO420460  17.510  33.964   9.543
 1395POPC   GL120461  17.446  33.912   9.106
 1395POPC   GL220462  17.275  34.247   9.067
 1395POPC   C1A20463  17.674  33.680   8.741
 1395POPC   D2A20464  17.650  33.326   8.430
 1395POPC   C3A20465  17.730  33.428   8.008
 1395POPC   C4A20466  17.475  33.665   7.754
 1395POPC   C1B20467  17.468  34.145   8.664
 1395POPC   C2B20468  17.488  33.944   8.260
 1395POPC   C3B20469  17.458  34.158   7.864
 1395POPC   C4B20470  17.592  34.053   7.423
 1396POPC   NC320471  35.313   8.562   9.252
 1396POPC   PO420472  35.419   9.125   9.463
 1396POPC   GL120473  35.440   9.149   9.052
 1396POPC   GL220474  35.680   9.433   9.000
 1396POPC   C1A20475  35.257   8.878   8.712
 1396POPC   D2A20476  35.237   8.598   8.376
 1396POPC   C3A20477  35.451   8.743   8.040
 1396POPC   C4A20478  35.467   8.662   7.637
 1396POPC   C1B20479  35.618   9.259   8.606
 1396POPC   C2B20480  35.346   9.174   8.320
 1396POPC   C3B20481  35.294   9.237   7.952
 1396POPC   C4B20482  35.659   9.122   7.747
 1397POPC   NC320483  30.604  22.244   9.739
 1397POPC   PO420484  30.899  22.327   9.151
 1397POPC   GL120485  30.764  21.978   8.931
 1397POPC   GL220486  30.434  21.946   9.031
 1397POPC   C1A20487  30.986  21.902   8.557
 1397POPC   D2A20488  30.803  22.220   8.325
 1397POPC   C3A20489  30.893  22.337   7.948
 1397POPC   C4A20490  30.924  22.166   7.551
 1397POPC   C1B20491  30.378  22.226   8.641
 1397POPC   C2B20492  30.324  22.041   8.251
 1397POPC   C3B20493  30.467  22.004   7.867
 1397POPC   C4B20494  30.447  22.387   7.701
 1398POPC   NC320495  35.172  13.909   9.574
 1398POPC   PO420496  34.999  13.314   9.410
 1398POPC   GL120497  35.356  13.539   9.204
 1398POPC   GL220498  35.454  13.912   9.146
 1398POPC   C1A20499  35.208  13.611   8.801
 1398POPC   D2A20500  35.101  13.369   8.467
 1398POPC   C3A20501  35.037  13.608   8.105
 1398POPC   C4A20502  35.217  13.769   7.745
 1398POPC   C1B20503  35.657  13.839   8.761
 1398POPC   C2B20504  35.417  13.861   8.392
 1398POPC   C3B20505  35.601  13.937   8.032
 1398POPC   C4B20506  35.694  13.873   7.614
 1399POPC   NC320507  39.716  29.370   9.691
 1399POPC   PO420508  40.302  29.048   9.549
 1399POPC   GL120509  40.154  29.179   9.154
 1399POPC   GL220510  39.796  29.279   9.183
 1399POPC   C1A20511  40.250  29.015   8.756
 1399POPC   D2A20512  40.371  29.046   8.344
 1399POPC   C3A20513  40.098  29.039   8.021
 1399POPC   C4A20514  39.905  29.424   7.940
 1399POPC   C1B20515  39.766  28.933   8.852
 1399POPC   C2B20516  39.807  28.985   8.426
 1399POPC   C3B20517  39.551  29.087   8.069
 1399POPC   C4B20518  39.586  29.201   7.627
 1400POPC   NC320519  11.809  10.196   9.430
 1400POPC   PO420520  12.265  10.659   9.506
 1400POPC   GL120521  12.232  10.771   9.094
 1400POPC   GL220522  11.920  10.576   9.086
 1400POPC   C1A20523  12.190  10.684   8.664
 1400POPC   D2A20524  11.962  10.478   8.348
 1400POPC   C3A20525  12.107  10.624   8.017
 1400POPC   C4A20526  12.197  10.469   7.651
 1400POPC   C1B20527  11.684  10.669   8.744
 1400POPC   C2B20528  11.771  10.944   8.412
 1400POPC   C3B20529  11.623  10.869   8.037
 1400POPC   C4B20530  11.717  10.624   7.681
 1401POPC   NC320531   0.316  35.064   9.539
 1401POPC   PO420532   0.237  35.760   9.496
 1401POPC   GL120533   0.349  35.443   9.193
 1401POPC   GL220534   0.685  35.328   9.298
 1401POPC   C1A20535   0.446  35.189   8.806
 1401POPC   D2A20536   0.700  35.053   8.451
 1401POPC   C3A20537   0.465  35.124   8.059
 1401POPC   C4A20538   0.130  35.469   7.947
 1401POPC   C1B20539   0.794  35.564   8.939
 1401POPC   C2B20540   0.759  35.553   8.503
 1401POPC   C3B20541   0.590  35.624   8.096
 1401POPC   C4B20542   0.720  35.683   7.692
 1402POPC   NC320543  35.074  37.359   9.441
 1402POPC   PO420544  35.447  37.848   9.695
 1402POPC   GL120545  35.387  37.840   9.287
 1402POPC   GL220546  35.691  37.957   9.208
 1402POPC   C1A20547  35.331  37.752   8.860
 1402POPC   D2A20548  35.205  37.889   8.456
 1402POPC   C3A20549  35.224  37.556   8.141
 1402POPC   C4A20550  35.192  37.765   7.752
 1402POPC   C1B20551  35.880  37.795   8.833
 1402POPC   C2B20552  35.671  37.677   8.457
 1402POPC   C3B20553  35.601  37.865   8.044
 1402POPC   C4B20554  35.623  37.503   7.776
 1403POPC   NC320555   3.926   4.211   9.536
 1403POPC   PO420556   3.444   4.704   9.644
 1403POPC   GL120557   3.359   4.570   9.194
 1403POPC   GL220558   3.693   4.417   9.102
 1403POPC   C1A20559   3.355   4.551   8.722
 1403POPC   D2A20560   3.499   4.465   8.288
 1403POPC   C3A20561   3.255   4.425   7.927
 1403POPC   C4A20562   3.106   4.130   7.629
 1403POPC   C1B20563   3.542   4.079   8.827
 1403POPC   C2B20564   3.276   4.044   8.452
 1403POPC   C3B20565   3.375   3.916   8.040
 1403POPC   C4B20566   3.689   3.772   7.763
 1404POPC   NC320567  17.145  33.663   9.458
 1404POPC   PO420568  16.507  33.449   9.586
 1404POPC   GL120569  16.482  33.749   9.211
 1404POPC   GL220570  16.803  33.971   9.153
 1404POPC   C1A20571  16.498  33.827   8.754
 1404POPC   D2A20572  16.663  33.926   8.326
 1404POPC   C3A20573  17.021  33.704   8.189
 1404POPC   C4A20574  16.987  33.520   7.791
 1404POPC   C1B20575  16.973  34.035   8.715
 1404POPC   C2B20576  17.063  34.236   8.299
 1404POPC   C3B20577  16.942  34.119   7.887
 1404POPC   C4B20578  16.689  34.154   7.540
 1405POPC   NC320579  23.967  16.942   9.503
 1405POPC   PO420580  23.482  16.523   9.469
 1405POPC   GL120581  23.630  16.767   9.129
 1405POPC   GL220582  23.960  16.814   9.016
 1405POPC   C1A20583  23.565  16.655   8.715
 1405POPC   D2A20584  23.814  16.687   8.388
 1405POPC   C3A20585  23.577  16.512   8.065
 1405POPC   C4A20586  23.617  16.581   7.647
 1405POPC   C1B20587  24.205  16.954   8.688
 1405POPC   C2B20588  24.131  17.064   8.270
 1405POPC   C3B20589  24.045  16.836   7.908
 1405POPC   C4B20590  24.006  16.911   7.490
 1406POPC   NC320591  22.564  15.170   9.660
 1406POPC   PO420592  23.221  14.898   9.493
 1406POPC   GL120593  22.958  15.034   9.180
 1406POPC   GL220594  22.569  14.992   9.187
 1406POPC   C1A20595  23.072  15.100   8.758
 1406POPC   D2A20596  23.373  14.926   8.484
 1406POPC   C3A20597  23.140  15.024   8.145
 1406POPC   C4A20598  22.971  15.022   7.731
 1406POPC   C1B20599  22.625  15.292   8.903
 1406POPC   C2B20600  22.570  15.158   8.481
 1406POPC   C3B20601  22.641  15.241   8.060
 1406POPC   C4B20602  22.634  15.376   7.637
 1407POPC   NC320603   5.420  22.579   9.633
 1407POPC   PO420604   4.979  22.053   9.707
 1407POPC   GL120605   5.147  22.120   9.275
 1407POPC   GL220606   4.938  21.804   9.228
 1407POPC   C1A20607   5.262  22.365   8.839
 1407POPC   D2A20608   5.093  22.558   8.401
 1407POPC   C3A20609   5.074  22.388   7.967
 1407POPC   C4A20610   5.379  22.367   7.595
 1407POPC   C1B20611   5.199  21.835   8.855
 1407POPC   C2B20612   5.166  22.033   8.447
 1407POPC   C3B20613   4.995  21.871   8.073
 1407POPC   C4B20614   5.113  21.955   7.691
 1408POPC   NC320615  43.775  13.239   9.458
 1408POPC   PO420616  44.377  12.883   9.465
 1408POPC   GL120617  44.099  12.944   9.165
 1408POPC   GL220618  44.144  13.303   9.115
 1408POPC   C1A20619  44.038  12.661   8.811
 1408POPC   D2A20620  43.952  12.495   8.391
 1408POPC   C3A20621  43.676  12.772   8.146
 1408POPC   C4A20622  43.677  12.797   7.724
 1408POPC   C1B20623  43.835  13.185   8.804
 1408POPC   C2B20624  43.986  13.013   8.449
 1408POPC   C3B20625  44.092  13.058   8.032
 1408POPC   C4B20626  43.759  13.257   7.895
 1409POPC   NC320627   2.540  41.582   9.533
 1409POPC   PO420628   3.169  41.453   9.557
 1409POPC   GL120629   2.927  41.650   9.211
 1409POPC   GL220630   2.781  41.309   9.156
 1409POPC   C1A20631   2.775  41.649   8.779
 1409POPC   D2A20632   2.916  41.768   8.362
 1409POPC   C3A20633   2.649  41.464   8.171
 1409POPC   C4A20634   2.452  41.347   7.797
 1409POPC   C1B20635   3.162  41.335   8.873
 1409POPC   C2B20636   3.183  41.255   8.425
 1409POPC   C3B20637   3.049  41.186   8.002
 1409POPC   C4B20638   2.950  40.979   7.646
 1410POPC   NC320639  25.439  18.056   9.529
 1410POPC   PO420640  25.131  18.651   9.534
 1410POPC   GL120641  25.284  18.492   9.160
 1410POPC   GL220642  25.581  18.275   9.082
 1410POPC   C1A20643  25.180  18.508   8.746
 1410POPC   D2A20644  24.990  18.231   8.465
 1410POPC   C3A20645  25.154  18.299   8.075
 1410POPC   C4A20646  25.285  18.600   7.778
 1410POPC   C1B20647  25.285  18.012   8.855
 1410POPC   C2B20648  25.329  17.779   8.472
 1410POPC   C3B20649  25.577  17.803   8.106
 1410POPC   C4B20650  25.425  17.982   7.778
 1411POPC   NC320651   0.777   2.773   9.620
 1411POPC   PO420652   0.096   2.602   9.557
 1411POPC   GL120653   0.398   2.753   9.246
 1411POPC   GL220654   0.727   2.557   9.167
 1411POPC   C1A20655   0.296   2.832   8.820
 1411POPC   D2A20656   0.043   2.685   8.475
 1411POPC   C3A20657   0.197   2.886   8.089
 1411POPC   C4A20658   0.355   2.762   7.698
 1411POPC   C1B20659   0.809   2.869   8.841
 1411POPC   C2B20660   0.632   2.910   8.405
 1411POPC   C3B20661   0.782   2.824   7.962
 1411POPC   C4B20662   0.806   2.512   7.604
 1412POPC   NC320663  17.682   3.038   9.568
 1412POPC   PO420664  17.265   2.467   9.488
 1412POPC   GL120665  17.471   2.734   9.194
 1412POPC   GL220666  17.815   2.651   9.188
 1412POPC   C1A20667  17.607   2.951   8.814
 1412POPC   D2A20668  17.549   2.765   8.409
 1412POPC   C3A20669  17.698   2.917   8.027
 1412POPC   C4A20670  17.467   2.984   7.641
 1412POPC   C1B20671  17.731   2.430   8.805
 1412POPC   C2B20672  17.905   2.365   8.394
 1412POPC   C3B20673  17.751   2.413   7.987
 1412POPC   C4B20674  17.824   2.599   7.591
 1413POPC   NC320675  24.470  15.014   9.563
 1413POPC   PO420676  25.103  15.339   9.614
 1413POPC   GL120677  24.793  15.266   9.196
 1413POPC   GL220678  24.417  15.297   9.142
 1413POPC   C1A20679  24.645  15.256   8.713
 1413POPC   D2A20680  24.559  15.598   8.456
 1413POPC   C3A20681  24.383  15.425   8.098
 1413POPC   C4A20682  24.424  15.054   7.893
 1413POPC   C1B20683  24.299  14.932   8.912
 1413POPC   C2B20684  24.320  14.898   8.449
 1413POPC   C3B20685  23.999  15.033   8.160
 1413POPC   C4B20686  23.953  14.868   7.731
 1414POPC   NC320687  29.533  34.353   9.553
 1414POPC   PO420688  30.114  34.690   9.526
 1414POPC   GL120689  29.973  34.576   9.142
 1414POPC   GL220690  29.626  34.648   9.162
 1414POPC   C1A20691  30.107  34.583   8.693
 1414POPC   D2A20692  29.907  34.698   8.315
 1414POPC   C3A20693  30.123  34.713   7.932
 1414POPC   C4A20694  29.975  34.505   7.586
 1414POPC   C1B20695  29.652  34.775   8.778
 1414POPC   C2B20696  29.683  35.112   8.560
 1414POPC   C3B20697  29.584  35.103   8.171
 1414POPC   C4B20698  29.646  34.877   7.806
 1415POPC   NC320699  34.214  30.682   9.530
 1415POPC   PO420700  34.642  31.196   9.542
 1415POPC   GL120701  34.592  30.874   9.241
 1415POPC   GL220702  34.485  31.084   9.020
 1415POPC   C1A20703  34.630  30.619   8.870
 1415POPC   D2A20704  34.526  30.715   8.459
 1415POPC   C3A20705  34.644  30.413   8.170
 1415POPC   C4A20706  34.549  30.518   7.769
 1415POPC   C1B20707  34.172  30.928   8.779
 1415POPC   C2B20708  34.066  30.979   8.353
 1415POPC   C3B20709  34.365  31.020   8.006
 1415POPC   C4B20710  34.386  30.937   7.546
 1416POPC   NC320711   7.651   3.205   9.380
 1416POPC   PO420712   7.301   2.611   9.466
 1416POPC   GL120713   7.496   2.536   9.094
 1416POPC   GL220714   7.629   2.859   9.010
 1416POPC   C1A20715   7.350   2.587   8.695
 1416POPC   D2A20716   7.251   2.848   8.364
 1416POPC   C3A20717   7.279   2.631   7.978
 1416POPC   C4A20718   6.951   2.418   7.789
 1416POPC   C1B20719   7.812   2.791   8.603
 1416POPC   C2B20720   7.724   2.946   8.181
 1416POPC   C3B20721   7.681   2.886   7.720
 1416POPC   C4B20722   7.578   3.029   7.274
 1417POPC   NC320723  39.114  21.275   9.473
 1417POPC   PO420724  39.526  21.832   9.621
 1417POPC   GL120725  39.423  21.601   9.217
 1417POPC   GL220726  39.675  21.317   9.302
 1417POPC   C1A20727  39.176  21.660   8.794
 1417POPC   D2A20728  39.061  21.770   8.323
 1417POPC   C3A20729  39.066  21.426   8.047
 1417POPC   C4A20730  39.119  21.395   7.587
 1417POPC   C1B20731  39.481  21.177   8.907
 1417POPC   C2B20732  39.263  21.238   8.513
 1417POPC   C3B20733  39.494  21.191   8.137
 1417POPC   C4B20734  39.448  21.024   7.734
 1418POPC   NC320735  35.528  41.800   9.424
 1418POPC   PO420736  35.134  41.369   9.698
 1418POPC   GL120737  35.289  41.395   9.250
 1418POPC   GL220738  35.151  41.688   9.085
 1418POPC   C1A20739  35.526  41.406   8.840
 1418POPC   D2A20740  35.544  41.549   8.401
 1418POPC   C3A20741  35.465  41.241   8.117
 1418POPC   C4A20742  35.621  41.251   7.736
 1418POPC   C1B20743  35.393  41.912   8.760
 1418POPC   C2B20744  35.527  42.057   8.354
 1418POPC   C3B20745  35.490  41.885   7.956
 1418POPC   C4B20746  35.244  41.606   7.723
 1419POPC   NC320747   1.287  40.837   9.491
 1419POPC   PO420748   1.106  40.192   9.473
 1419POPC   GL120749   0.968  40.471   9.097
 1419POPC   GL220750   0.981  40.841   9.078
 1419POPC   C1A20751   0.878  40.546   8.634
 1419POPC   D2A20752   1.198  40.593   8.288
 1419POPC   C3A20753   1.082  40.527   7.846
 1419POPC   C4A20754   1.101  40.840   7.519
 1419POPC   C1B20755   1.124  40.996   8.667
 1419POPC   C2B20756   1.368  41.120   8.301
 1419POPC   C3B20757   1.314  41.133   7.859
 1419POPC   C4B20758   1.510  41.145   7.407
 1420POPC   NC320759   5.547  20.975   9.294
 1420POPC   PO420760   6.118  20.589   9.441
 1420POPC   GL120761   5.919  20.648   9.071
 1420POPC   GL220762   6.055  20.958   9.098
 1420POPC   C1A20763   5.665  20.577   8.701
 1420POPC   D2A20764   5.629  20.751   8.306
 1420POPC   C3A20765   5.514  20.599   7.909
 1420POPC   C4A20766   5.932  20.555   7.852
 1420POPC   C1B20767   5.931  21.021   8.688
 1420POPC   C2B20768   5.759  21.240   8.359
 1420POPC   C3B20769   5.555  21.151   7.986
 1420POPC   C4B20770   5.607  21.087   7.571
 1421POPC   NC320771  41.033   9.669   9.728
 1421POPC   PO420772  40.589  10.004   9.406
 1421POPC   GL120773  40.882   9.973   9.096
 1421POPC   GL220774  40.966   9.642   9.159
 1421POPC   C1A20775  41.009   9.946   8.676
 1421POPC   D2A20776  41.181   9.906   8.251
 1421POPC   C3A20777  40.802   9.868   7.992
 1421POPC   C4A20778  40.402   9.969   7.790
 1421POPC   C1B20779  40.803   9.475   8.746
 1421POPC   C2B20780  40.561   9.625   8.380
 1421POPC   C3B20781  40.481   9.463   7.965
 1421POPC   C4B20782  40.845   9.438   7.684
 1422POPC   NC320783   9.649  14.835   9.435
 1422POPC   PO420784   9.900  15.448   9.579
 1422POPC   GL120785   9.703  15.353   9.190
 1422POPC   GL220786   9.390  15.197   9.178
 1422POPC   C1A20787   9.652  15.430   8.754
 1422POPC   D2A20788   9.749  15.036   8.530
 1422POPC   C3A20789   9.796  15.169   8.175
 1422POPC   C4A20790   9.800  15.318   7.806
 1422POPC   C1B20791   9.324  15.043   8.801
 1422POPC   C2B20792   9.259  15.175   8.389
 1422POPC   C3B20793   9.358  15.046   7.970
 1422POPC   C4B20794   9.319  15.271   7.627
 1423POPC   NC320795  18.581  35.951   9.462
 1423POPC   PO420796  18.572  35.293   9.451
 1423POPC   GL120797  18.347  35.492   9.111
 1423POPC   GL220798  18.084  35.764   9.230
 1423POPC   C1A20799  18.280  35.296   8.673
 1423POPC   D2A20800  18.408  35.075   8.303
 1423POPC   C3A20801  18.241  35.271   7.935
 1423POPC   C4A20802  18.480  35.432   7.568
 1423POPC   C1B20803  17.900  35.556   8.865
 1423POPC   C2B20804  17.825  35.474   8.424
 1423POPC   C3B20805  17.871  35.620   7.972
 1423POPC   C4B20806  17.965  35.455   7.540
 1424POPC   NC320807  10.777  32.926   9.447
 1424POPC   PO420808  10.070  33.134   9.465
 1424POPC   GL120809  10.353  33.110   9.195
 1424POPC   GL220810  10.387  32.784   9.137
 1424POPC   C1A20811  10.534  33.255   8.824
 1424POPC   D2A20812  10.559  33.024   8.445
 1424POPC   C3A20813  10.607  33.219   8.021
 1424POPC   C4A20814  10.465  33.120   7.600
 1424POPC   C1B20815  10.681  32.692   8.837
 1424POPC   C2B20816  10.782  32.465   8.471
 1424POPC   C3B20817  10.758  32.718   8.109
 1424POPC   C4B20818  10.894  32.836   7.740
 1425POPC   NC320819  37.748  30.242   9.718
 1425POPC   PO420820  37.884  30.919   9.519
 1425POPC   GL120821  37.760  30.933   9.149
 1425POPC   GL220822  37.957  31.184   9.020
 1425POPC   C1A20823  37.597  30.580   8.927
 1425POPC   D2A20824  37.638  30.357   8.540
 1425POPC   C3A20825  37.554  30.549   8.117
 1425POPC   C4A20826  37.799  30.598   7.742
 1425POPC   C1B20827  37.951  30.846   8.685
 1425POPC   C2B20828  38.143  30.983   8.331
 1425POPC   C3B20829  37.927  30.993   8.023
 1425POPC   C4B20830  37.757  31.184   7.726
 1426POPC   NC320831  34.730   1.464   9.486
 1426POPC   PO420832  34.151   1.227   9.694
 1426POPC   GL120833  34.408   1.145   9.245
 1426POPC   GL220834  34.629   1.351   8.996
 1426POPC   C1A20835  34.325   1.008   8.825
 1426POPC   D2A20836  34.290   1.123   8.407
 1426POPC   C3A20837  34.610   1.206   8.099
 1426POPC   C4A20838  34.422   1.180   7.691
 1426POPC   C1B20839  34.434   1.577   8.612
 1426POPC   C2B20840  34.379   1.682   8.150
 1426POPC   C3B20841  34.647   1.630   7.783
 1426POPC   C4B20842  34.925   1.258   7.647
 1427POPC   NC320843   4.176  31.948   9.924
 1427POPC   PO420844   4.692  32.134   9.463
 1427POPC   GL120845   4.537  32.328   9.057
 1427POPC   GL220846   4.271  32.544   9.173
 1427POPC   C1A20847   4.527  32.233   8.642
 1427POPC   D2A20848   4.337  32.318   8.269
 1427POPC   C3A20849   4.319  32.035   7.940
 1427POPC   C4A20850   4.541  32.086   7.536
 1427POPC   C1B20851   4.061  32.509   8.802
 1427POPC   C2B20852   3.853  32.432   8.431
 1427POPC   C3B20853   3.955  32.551   8.030
 1427POPC   C4B20854   4.183  32.444   7.669
 1428POPC   NC320855  16.477  22.437   9.523
 1428POPC   PO420856  17.074  22.184   9.561
 1428POPC   GL120857  16.851  22.175   9.157
 1428POPC   GL220858  16.707  22.468   9.074
 1428POPC   C1A20859  16.860  21.952   8.742
 1428POPC   D2A20860  16.647  21.980   8.311
 1428POPC   C3A20861  16.908  22.134   7.951
 1428POPC   C4A20862  16.892  22.104   7.451
 1428POPC   C1B20863  16.565  22.361   8.678
 1428POPC   C2B20864  16.306  22.388   8.292
 1428POPC   C3B20865  16.308  22.468   7.850
 1428POPC   C4B20866  16.697  22.497   7.681
 1429POPC   NC320867  31.176  21.967   9.216
 1429POPC   PO420868  31.434  22.443   9.644
 1429POPC   GL120869  31.476  22.355   9.181
 1429POPC   GL220870  31.801  22.382   9.044
 1429POPC   C1A20871  31.411  22.256   8.705
 1429POPC   D2A20872  31.725  22.444   8.421
 1429POPC   C3A20873  31.715  22.274   8.004
 1429POPC   C4A20874  31.429  22.289   7.619
 1429POPC   C1B20875  31.832  22.016   8.752
 1429POPC   C2B20876  31.907  21.898   8.335
 1429POPC   C3B20877  31.758  21.773   7.918
 1429POPC   C4B20878  31.694  21.911   7.463
 1430POPC   NC320879   0.672  36.738   9.556
 1430POPC   PO420880   0.203  37.241   9.541
 1430POPC   GL120881   0.225  36.846   9.262
 1430POPC   GL220882  44.983  36.556   9.188
 1430POPC   C1A20883   0.395  36.731   8.860
 1430POPC   D2A20884   0.615  36.968   8.533
 1430POPC   C3A20885   0.828  36.909   8.134
 1430POPC   C4A20886   0.782  37.044   7.744
 1430POPC   C1B20887   0.020  36.405   8.727
 1430POPC   C2B20888   0.322  36.528   8.379
 1430POPC   C3B20889   0.322  36.876   8.074
 1430POPC   C4B20890   0.014  36.823   7.769
 1431POPC   NC320891  42.604  10.140   9.422
 1431POPC   PO420892  42.159   9.562   9.346
 1431POPC   GL120893  42.346   9.834   9.101
 1431POPC   GL220894  42.107  10.120   9.124
 1431POPC   C1A20895  42.526   9.761   8.706
 1431POPC   D2A20896  42.753   9.948   8.364
 1431POPC   C3A20897  42.561   9.671   8.091
 1431POPC   C4A20898  42.443   9.603   7.693
 1431POPC   C1B20899  42.320  10.211   8.727
 1431POPC   C2B20900  42.247  10.052   8.301
 1431POPC   C3B20901  42.238  10.039   7.849
 1431POPC   C4B20902  42.122   9.907   7.431
 1432POPC   NC320903  31.387  41.182   9.452
 1432POPC   PO420904  31.278  41.867   9.553
 1432POPC   GL120905  31.583  41.814   9.252
 1432POPC   GL220906  31.353  41.593   9.111
 1432POPC   C1A20907  31.774  41.748   8.845
 1432POPC   D2A20908  31.609  41.848   8.434
 1432POPC   C3A20909  31.788  41.630   8.090
 1432POPC   C4A20910  31.952  41.460   7.714
 1432POPC   C1B20911  31.162  41.655   8.722
 1432POPC   C2B20912  31.315  41.445   8.346
 1432POPC   C3B20913  31.284  41.628   7.955
 1432POPC   C4B20914  31.049  41.610   7.555
 1433POPC   NC320915   5.307  41.312   9.452
 1433POPC   PO420916   4.771  41.663   9.321
 1433POPC   GL120917   5.176  41.685   9.140
 1433POPC   GL220918   5.376  42.006   9.160
 1433POPC   C1A20919   5.154  41.424   8.781
 1433POPC   D2A20920   4.864  41.512   8.444
 1433POPC   C3A20921   5.038  41.376   8.058
 1433POPC   C4A20922   4.948  41.640   7.713
 1433POPC   C1B20923   5.511  41.806   8.769
 1433POPC   C2B20924   5.383  41.633   8.377
 1433POPC   C3B20925   5.116  41.876   8.148
 1433POPC   C4B20926   5.326  42.093   7.862
 1434POPC   NC320927  11.719   3.274   9.865
 1434POPC   PO420928  12.249   3.699   9.806
 1434POPC   GL120929  12.165   3.577   9.328
 1434POPC   GL220930  12.384   3.280   9.193
 1434POPC   C1A20931  12.105   3.775   8.911
 1434POPC   D2A20932  11.842   3.841   8.552
 1434POPC   C3A20933  11.991   3.669   8.149
 1434POPC   C4A20934  11.711   3.527   7.804
 1434POPC   C1B20935  12.171   3.250   8.788
 1434POPC   C2B20936  11.935   3.036   8.445
 1434POPC   C3B20937  11.971   3.137   8.016
 1434POPC   C4B20938  12.257   3.387   7.769
 1435POPC   NC320939  15.308  19.790   9.354
 1435POPC   PO420940  14.655  19.662   9.312
 1435POPC   GL120941  14.888  19.954   9.078
 1435POPC   GL220942  15.121  20.245   9.175
 1435POPC   C1A20943  14.940  19.832   8.671
 1435POPC   D2A20944  15.027  19.558   8.337
 1435POPC   C3A20945  14.876  19.800   7.985
 1435POPC   C4A20946  15.113  19.853   7.635
 1435POPC   C1B20947  15.333  20.156   8.765
 1435POPC   C2B20948  15.328  19.985   8.328
 1435POPC   C3B20949  15.337  20.224   7.940
 1435POPC   C4B20950  15.456  20.177   7.506
 1436POPC   NC320951  38.288   5.647   9.482
 1436POPC   PO420952  38.870   5.993   9.295
 1436POPC   GL120953  38.585   5.754   9.070
 1436POPC   GL220954  38.242   5.949   9.082
 1436POPC   C1A20955  38.688   5.617   8.666
 1436POPC   D2A20956  38.827   5.466   8.277
 1436POPC   C3A20957  38.613   5.683   7.954
 1436POPC   C4A20958  38.651   6.065   7.700
 1436POPC   C1B20959  38.187   5.724   8.711
 1436POPC   C2B20960  38.273   5.857   8.301
 1436POPC   C3B20961  38.108   5.727   7.913
 1436POPC   C4B20962  38.322   5.741   7.529
 1437POPC   NC320963  14.643  23.080   9.579
 1437POPC   PO420964  14.199  22.633   9.472
 1437POPC   GL120965  14.371  22.785   9.113
 1437POPC   GL220966  14.362  23.157   9.147
 1437POPC   C1A20967  14.237  22.719   8.692
 1437POPC   D2A20968  14.224  22.930   8.303
 1437POPC   C3A20969  14.314  22.703   7.927
 1437POPC   C4A20970  14.099  22.645   7.517
 1437POPC   C1B20971  14.567  23.109   8.747
 1437POPC   C2B20972  14.585  23.297   8.355
 1437POPC   C3B20973  14.498  23.184   7.924
 1437POPC   C4B20974  14.531  22.929   7.515
 1438POPC   NC320975  21.566  32.189   9.470
 1438POPC   PO420976  21.098  32.679   9.513
 1438POPC   GL120977  21.235  32.447   9.145
 1438POPC   GL220978  21.615  32.422   9.026
 1438POPC   C1A20979  21.179  32.486   8.716
 1438POPC   D2A20980  21.458  32.521   8.399
 1438POPC   C3A20981  21.326  32.359   8.019
 1438POPC   C4A20982  21.522  32.431   7.655
 1438POPC   C1B20983  21.528  32.118   8.721
 1438POPC   C2B20984  21.577  31.978   8.306
 1438POPC   C3B20985  21.673  31.976   7.869
 1438POPC   C4B20986  21.820  31.909   7.435
 1439POPC   NC320987   7.060  39.762   9.362
 1439POPC   PO420988   7.439  40.319   9.557
 1439POPC   GL120989   7.463  40.077   9.169
 1439POPC   GL220990   7.704  39.790   9.233
 1439POPC   C1A20991   7.531  40.277   8.756
 1439POPC   D2A20992   7.594  40.191   8.325
 1439POPC   C3A20993   7.340  39.885   8.140
 1439POPC   C4A20994   6.992  39.936   7.862
 1439POPC   C1B20995   7.798  39.841   8.804
 1439POPC   C2B20996   7.863  39.740   8.374
 1439POPC   C3B20997   7.823  39.917   7.951
 1439POPC   C4B20998   7.521  39.845   7.615
 1440POPC   NC320999  38.769  20.797   9.886
 1440POPC   PO421000  39.376  20.932   9.630
 1440POPC   GL121001  39.164  20.790   9.262
 1440POPC   GL221002  39.451  20.623   9.158
 1440POPC   C1A21003  39.124  20.804   8.804
 1440POPC   D2A21004  38.936  20.864   8.405
 1440POPC   C3A21005  39.230  20.738   8.095
 1440POPC   C4A21006  39.170  20.594   7.648
 1440POPC   C1B21007  39.479  20.384   8.775
 1440POPC   C2B21008  39.601  20.373   8.332
 1440POPC   C3B21009  39.569  20.419   7.903
 1440POPC   C4B21010  39.713  20.627   7.551
 1441POPC   NC321011  14.121  33.592   9.549
 1441POPC   PO421012  14.834  33.669   9.542
 1441POPC   GL121013  14.513  33.714   9.202
 1441POPC   GL221014  14.243  33.995   9.226
 1441POPC   C1A21015  14.533  33.766   8.759
 1441POPC   D2A21016  14.745  33.750   8.334
 1441POPC   C3A21017  14.459  33.611   7.984
 1441POPC   C4A21018  14.495  33.621   7.478
 1441POPC   C1B21019  14.072  34.061   8.823
 1441POPC   C2B21020  14.158  33.881   8.436
 1441POPC   C3B21021  14.008  33.895   8.053
 1441POPC   C4B21022  14.182  33.990   7.676
 1442POPC   NC321023  41.447  42.261   9.480
 1442POPC   PO421024  41.547  43.010   9.462
 1442POPC   GL121025  41.504  42.678   9.120
 1442POPC   GL221026  41.653  42.327   9.015
 1442POPC   C1A21027  41.353  42.567   8.683
 1442POPC   D2A21028  41.132  42.638   8.284
 1442POPC   C3A21029  41.318  42.535   7.887
 1442POPC   C4A21030  41.660  42.295   7.787
 1442POPC   C1B21031  41.599  42.049   8.658
 1442POPC   C2B21032  41.430  42.186   8.264
 1442POPC   C3B21033  41.245  42.013   7.885
 1442POPC   C4B21034  41.491  41.800   7.566
 1443POPC   NC321035  27.043  24.500   9.470
 1443POPC   PO421036  26.393  24.409   9.389
 1443POPC   GL121037  26.641  24.364   9.031
 1443POPC   GL221038  26.932  24.548   8.987
 1443POPC   C1A21039  26.759  24.284   8.591
 1443POPC   D2A21040  26.963  24.423   8.262
 1443POPC   C3A21041  26.725  24.366   7.915
 1443POPC   C4A21042  26.398  24.457   7.653
 1443POPC   C1B21043  26.786  24.834   8.667
 1443POPC   C2B21044  26.870  24.954   8.237
 1443POPC   C3B21045  27.109  24.773   7.909
 1443POPC   C4B21046  27.141  24.789   7.478
 1444POPC   NC321047  39.655  26.544   9.395
 1444POPC   PO421048  40.290  26.487   9.569
 1444POPC   GL121049  40.135  26.768   9.218
 1444POPC   GL221050  39.816  26.949   9.147
 1444POPC   C1A21051  40.228  26.919   8.805
 1444POPC   D2A21052  40.165  27.106   8.398
 1444POPC   C3A21053  40.188  26.846   8.025
 1444POPC   C4A21054  39.916  26.869   7.643
 1444POPC   C1B21055  39.764  27.170   8.772
 1444POPC   C2B21056  39.642  27.187   8.359
 1444POPC   C3B21057  39.819  27.250   7.954
 1444POPC   C4B21058  39.797  27.361   7.494
 1445POPC   NC321059   8.547   8.045   9.533
 1445POPC   PO421060   8.979   8.592   9.368
 1445POPC   GL121061   9.011   8.317   9.006
 1445POPC   GL221062   8.752   8.087   9.059
 1445POPC   C1A21063   9.048   8.323   8.573
 1445POPC   D2A21064   8.960   8.097   8.203
 1445POPC   C3A21065   9.098   8.183   7.792
 1445POPC   C4A21066   9.172   7.982   7.377
 1445POPC   C1B21067   8.561   8.441   8.777
 1445POPC   C2B21068   8.752   8.708   8.434
 1445POPC   C3B21069   8.743   8.537   8.000
 1445POPC   C4B21070   8.660   8.383   7.590
 1446POPC   NC321071  24.667  37.258   9.533
 1446POPC   PO421072  24.245  36.717   9.452
 1446POPC   GL121073  24.421  36.844   9.084
 1446POPC   GL221074  24.732  36.985   9.099
 1446POPC   C1A21075  24.604  36.637   8.701
 1446POPC   D2A21076  24.579  36.816   8.272
 1446POPC   C3A21077  24.847  37.061   8.013
 1446POPC   C4A21078  24.814  36.763   7.679
 1446POPC   C1B21079  24.488  37.126   8.684
 1446POPC   C2B21080  24.549  37.364   8.332
 1446POPC   C3B21081  24.409  37.367   7.952
 1446POPC   C4B21082  24.359  36.997   7.772
 1447POPC   NC321083  43.394  36.471   9.535
 1447POPC   PO421084  43.330  35.807   9.442
 1447POPC   GL121085  43.057  36.134   9.251
 1447POPC   GL221086  43.367  36.193   9.069
 1447POPC   C1A21087  42.967  36.373   8.846
 1447POPC   D2A21088  43.195  36.261   8.441
 1447POPC   C3A21089  43.116  36.464   8.048
 1447POPC   C4A21090  42.996  36.357   7.628
 1447POPC   C1B21091  43.158  35.875   8.776
 1447POPC   C2B21092  43.206  35.680   8.352
 1447POPC   C3B21093  43.351  35.958   8.024
 1447POPC   C4B21094  43.269  35.940   7.593
 1448POPC   NC321095  22.370   3.878   9.454
 1448POPC   PO421096  22.361   3.257   9.634
 1448POPC   GL121097  22.213   3.418   9.236
 1448POPC   GL221098  22.561   3.391   9.172
 1448POPC   C1A21099  22.103   3.590   8.807
 1448POPC   D2A21100  22.242   3.749   8.398
 1448POPC   C3A21101  22.012   3.640   8.030
 1448POPC   C4A21102  21.924   3.208   7.862
 1448POPC   C1B21103  22.629   3.542   8.760
 1448POPC   C2B21104  22.678   3.371   8.366
 1448POPC   C3B21105  22.478   3.417   7.956
 1448POPC   C4B21106  22.364   3.191   7.561
 1449POPC   NC321107  20.432  11.940   9.383
 1449POPC   PO421108  20.865  12.438   9.310
 1449POPC   GL121109  20.772  12.063   9.028
 1449POPC   GL221110  20.872  11.732   9.242
 1449POPC   C1A21111  20.367  11.982   8.743
 1449POPC   D2A21112  20.250  11.990   8.291
 1449POPC   C3A21113  20.632  12.010   8.021
 1449POPC   C4A21114  20.934  12.186   7.756
 1449POPC   C1B21115  20.796  11.584   8.848
 1449POPC   C2B21116  20.696  11.728   8.463
 1449POPC   C3B21117  20.492  11.529   8.154
 1449POPC   C4B21118  20.681  11.538   7.788
 1450POPC   NC321119  41.303  38.212   9.455
 1450POPC   PO421120  41.775  38.704   9.588
 1450POPC   GL121121  41.556  38.595   9.234
 1450POPC   GL221122  41.766  38.326   9.170
 1450POPC   C1A21123  41.537  38.634   8.808
 1450POPC   D2A21124  41.856  38.557   8.516
 1450POPC   C3A21125  41.756  38.412   8.125
 1450POPC   C4A21126  41.616  38.613   7.791
 1450POPC   C1B21127  41.941  38.074   8.852
 1450POPC   C2B21128  42.018  38.073   8.418
 1450POPC   C3B21129  41.984  37.980   7.975
 1450POPC   C4B21130  41.762  38.154   7.619
 1451POPC   NC321131  31.590  14.906   9.861
 1451POPC   PO421132  31.267  15.281   9.450
 1451POPC   GL121133  31.382  14.949   9.185
 1451POPC   GL221134  31.705  15.082   9.066
 1451POPC   C1A21135  31.333  14.946   8.733
 1451POPC   D2A21136  31.142  15.208   8.413
 1451POPC   C3A21137  31.147  15.061   7.975
 1451POPC   C4A21138  31.343  15.353   7.669
 1451POPC   C1B21139  32.015  15.264   8.766
 1451POPC   C2B21140  32.028  15.465   8.357
 1451POPC   C3B21141  31.788  15.381   7.971
 1451POPC   C4B21142  31.851  15.296   7.505
 1452POPC   NC321143  38.558  32.092   9.530
 1452POPC   PO421144  38.542  32.772   9.605
 1452POPC   GL121145  38.325  32.513   9.238
 1452POPC   GL221146  38.269  32.128   9.138
 1452POPC   C1A21147  38.375  32.453   8.773
 1452POPC   D2A21148  38.656  32.333   8.415
 1452POPC   C3A21149  38.463  32.290   8.003
 1452POPC   C4A21150  38.376  32.454   7.590
 1452POPC   C1B21151  38.496  31.957   8.781
 1452POPC   C2B21152  38.368  31.903   8.357
 1452POPC   C3B21153  38.574  31.791   7.975
 1452POPC   C4B21154  38.615  32.006   7.611
 1453POPC   NC321155  10.615  20.111   9.540
 1453POPC   PO421156  10.080  19.636   9.562
 1453POPC   GL121157  10.311  19.783   9.232
 1453POPC   GL221158  10.229  20.109   9.179
 1453POPC   C1A21159  10.260  19.699   8.790
 1453POPC   D2A21160  10.189  19.916   8.414
 1453POPC   C3A21161  10.504  19.983   8.143
 1453POPC   C4A21162  10.569  19.883   7.742
 1453POPC   C1B21163  10.484  20.148   8.847
 1453POPC   C2B21164  10.326  20.419   8.550
 1453POPC   C3B21165  10.117  20.372   8.184
 1453POPC   C4B21166  10.312  20.371   7.806
 1454POPC   NC321167  17.170  32.009   9.562
 1454POPC   PO421168  17.714  32.359   9.332
 1454POPC   GL121169  17.406  32.117   9.093
 1454POPC   GL221170  17.193  32.364   9.198
 1454POPC   C1A21171  17.367  32.105   8.638
 1454POPC   D2A21172  17.606  31.981   8.312
 1454POPC   C3A21173  17.473  32.049   7.905
 1454POPC   C4A21174  17.709  32.194   7.584
 1454POPC   C1B21175  17.225  32.552   8.836
 1454POPC   C2B21176  17.037  32.485   8.437
 1454POPC   C3B21177  17.218  32.500   8.029
 1454POPC   C4B21178  17.127  32.393   7.612
 1455POPC   NC321179  38.653  27.882   9.856
 1455POPC   PO421180  38.115  27.650   9.547
 1455POPC   GL121181  38.353  27.546   9.182
 1455POPC   GL221182  38.325  27.191   9.091
 1455POPC   C1A21183  38.573  27.638   8.776
 1455POPC   D2A21184  38.798  27.589   8.364
 1455POPC   C3A21185  38.696  27.876   8.032
 1455POPC   C4A21186  38.392  27.772   7.754
 1455POPC   C1B21187  38.617  27.141   8.725
 1455POPC   C2B21188  38.727  27.053   8.304
 1455POPC   C3B21189  38.525  27.273   7.998
 1455POPC   C4B21190  38.390  27.292   7.602
 1456POPC   NC321191   3.595  13.131   9.544
 1456POPC   PO421192   3.087  12.723   9.450
 1456POPC   GL121193   3.257  13.042   9.167
 1456POPC   GL221194   3.500  12.794   9.130
 1456POPC   C1A21195   3.478  13.105   8.739
 1456POPC   D2A21196   3.712  12.922   8.369
 1456POPC   C3A21197   3.451  12.924   7.980
 1456POPC   C4A21198   3.488  13.178   7.599
 1456POPC   C1B21199   3.713  12.590   8.772
 1456POPC   C2B21200   4.012  12.510   8.400
 1456POPC   C3B21201   3.852  12.565   8.010
 1456POPC   C4B21202   3.455  12.408   7.810
 1457POPC   NC321203  10.235  24.146   9.523
 1457POPC   PO421204   9.652  24.547   9.535
 1457POPC   GL121205   9.825  24.584   9.164
 1457POPC   GL221206   9.529  24.776   9.071
 1457POPC   C1A21207   9.922  24.317   8.812
 1457POPC   D2A21208   9.872  24.525   8.402
 1457POPC   C3A21209   9.920  24.328   8.016
 1457POPC   C4A21210   9.721  24.221   7.640
 1457POPC   C1B21211   9.349  24.934   8.707
 1457POPC   C2B21212   9.484  24.872   8.317
 1457POPC   C3B21213   9.605  24.810   7.906
 1457POPC   C4B21214   9.379  24.742   7.509
 1458POPC   NC321215  19.618  23.016   9.482
 1458POPC   PO421216  20.168  22.660   9.461
 1458POPC   GL121217  20.076  22.927   9.110
 1458POPC   GL221218  19.719  22.882   9.004
 1458POPC   C1A21219  20.081  22.878   8.667
 1458POPC   D2A21220  19.702  22.724   8.474
 1458POPC   C3A21221  19.742  22.839   8.074
 1458POPC   C4A21222  20.058  22.867   7.790
 1458POPC   C1B21223  19.452  23.155   8.767
 1458POPC   C2B21224  19.302  23.156   8.352
 1458POPC   C3B21225  19.393  23.178   7.940
 1458POPC   C4B21226  19.596  22.948   7.574
 1459POPC   NC321227  30.230  42.559   9.698
 1459POPC   PO421228  29.757  42.211   9.593
 1459POPC   GL121229  29.970  42.192   9.213
 1459POPC   GL221230  29.687  42.015   9.105
 1459POPC   C1A21231  30.059  42.545   8.941
 1459POPC   D2A21232  30.182  42.727   8.549
 1459POPC   C3A21233  30.077  42.456   8.212
 1459POPC   C4A21234  29.846  42.494   7.846
 1459POPC   C1B21235  29.688  42.244   8.715
 1459POPC   C2B21236  29.575  42.290   8.292
 1459POPC   C3B21237  29.569  42.041   7.946
 1459POPC   C4B21238  29.740  42.040   7.578
 1460POPC   NC321239  32.601  37.716   9.533
 1460POPC   PO421240  31.909  37.527   9.647
 1460POPC   GL121241  31.937  37.449   9.163
 1460POPC   GL221242  32.245  37.625   9.162
 1460POPC   C1A21243  31.911  37.665   8.767
 1460POPC   D2A21244  32.046  37.934   8.438
 1460POPC   C3A21245  32.174  37.768   8.050
 1460POPC   C4A21246  31.923  37.617   7.749
 1460POPC   C1B21247  32.406  37.801   8.784
 1460POPC   C2B21248  32.572  37.851   8.368
 1460POPC   C3B21249  32.660  37.964   7.960
 1460POPC   C4B21250  32.451  37.786   7.604
 1461POPC   NC321251  19.797  28.523   9.683
 1461POPC   PO421252  20.157  27.987   9.536
 1461POPC   GL121253  20.009  28.373   9.254
 1461POPC   GL221254  19.634  28.431   9.178
 1461POPC   C1A21255  20.032  28.623   8.872
 1461POPC   D2A21256  20.054  28.623   8.401
 1461POPC   C3A21257  19.886  28.246   8.163
 1461POPC   C4A21258  19.927  28.167   7.716
 1461POPC   C1B21259  19.568  28.404   8.710
 1461POPC   C2B21260  19.536  28.599   8.284
 1461POPC   C3B21261  19.605  28.547   7.850
 1461POPC   C4B21262  19.454  28.414   7.428
 1462POPC   NC321263  13.679  10.910   9.276
 1462POPC   PO421264  13.597  11.559   9.382
 1462POPC   GL121265  13.781  11.393   9.033
 1462POPC   GL221266  13.660  11.118   8.827
 1462POPC   C1A21267  13.710  11.557   8.613
 1462POPC   D2A21268  13.509  11.367   8.302
 1462POPC   C3A21269  13.823  11.151   8.116
 1462POPC   C4A21270  13.899  10.969   7.751
 1462POPC   C1B21271  13.454  10.865   8.553
 1462POPC   C2B21272  13.193  10.971   8.245
 1462POPC   C3B21273  13.367  11.036   7.883
 1462POPC   C4B21274  13.509  11.374   7.718
 1463POPC   NC321275  13.904  34.450   9.663
 1463POPC   PO421276  13.524  34.928   9.474
 1463POPC   GL121277  13.732  34.734   9.148
 1463POPC   GL221278  13.816  34.364   9.166
 1463POPC   C1A21279  13.540  34.499   8.765
 1463POPC   D2A21280  13.709  34.578   8.362
 1463POPC   C3A21281  13.385  34.508   8.033
 1463POPC   C4A21282  13.302  34.442   7.573
 1463POPC   C1B21283  14.034  34.580   8.787
 1463POPC   C2B21284  14.187  34.391   8.426
 1463POPC   C3B21285  14.073  34.419   8.002
 1463POPC   C4B21286  13.762  34.313   7.767
 1464POPC   NC321287   8.663  33.469   9.345
 1464POPC   PO421288   8.245  33.020   9.620
 1464POPC   GL121289   8.073  33.053   9.200
 1464POPC   GL221290   8.169  33.371   9.187
 1464POPC   C1A21291   8.156  32.863   8.813
 1464POPC   D2A21292   7.951  32.827   8.431
 1464POPC   C3A21293   8.178  32.960   8.106
 1464POPC   C4A21294   8.504  32.971   7.829
 1464POPC   C1B21295   7.964  33.382   8.806
 1464POPC   C2B21296   8.093  33.409   8.402
 1464POPC   C3B21297   7.915  33.463   8.011
 1464POPC   C4B21298   8.045  33.224   7.691
 1465POPC   NC321299  33.898   1.566   9.457
 1465POPC   PO421300  33.978   2.297   9.480
 1465POPC   GL121301  34.031   2.030   9.152
 1465POPC   GL221302  33.683   1.905   9.116
 1465POPC   C1A21303  33.961   2.130   8.735
 1465POPC   D2A21304  33.693   2.245   8.382
 1465POPC   C3A21305  33.876   2.189   7.966
 1465POPC   C4A21306  33.768   2.122   7.525
 1465POPC   C1B21307  33.653   1.739   8.690
 1465POPC   C2B21308  33.879   1.732   8.280
 1465POPC   C3B21309  33.898   1.717   7.794
 1465POPC   C4B21310  33.712   1.651   7.346
 1466POPC   NC321311  28.598  41.992   9.895
 1466POPC   PO421312  28.404  41.539   9.388
 1466POPC   GL121313  28.573  41.665   8.984
 1466POPC   GL221314  28.397  42.006   8.916
 1466POPC   C1A21315  28.582  41.632   8.582
 1466POPC   D2A21316  28.290  41.435   8.372
 1466POPC   C3A21317  28.343  41.450   7.966
 1466POPC   C4A21318  28.347  41.753   7.670
 1466POPC   C1B21319  28.083  41.700   8.791
 1466POPC   C2B21320  27.819  41.657   8.422
 1466POPC   C3B21321  27.906  41.740   7.987
 1466POPC   C4B21322  27.929  41.489   7.618
 1467POPC   NC321323   6.672  12.594   9.397
 1467POPC   PO421324   6.546  11.964   9.587
 1467POPC   GL121325   6.783  12.088   9.250
 1467POPC   GL221326   6.484  12.218   9.084
 1467POPC   C1A21327   6.863  12.025   8.808
 1467POPC   D2A21328   6.987  12.249   8.448
 1467POPC   C3A21329   6.783  12.107   8.092
 1467POPC   C4A21330   6.660  11.899   7.708
 1467POPC   C1B21331   6.213  12.338   8.732
 1467POPC   C2B21332   6.305  12.427   8.267
 1467POPC   C3B21333   6.440  12.369   7.809
 1467POPC   C4B21334   6.331  12.472   7.379
 1468POPC   NC321335  11.539  40.343   9.432
 1468POPC   PO421336  10.928  40.100   9.609
 1468POPC   GL121337  11.139  40.117   9.170
 1468POPC   GL221338  11.398  39.850   9.061
 1468POPC   C1A21339  11.177  40.139   8.691
 1468POPC   D2A21340  11.347  39.873   8.327
 1468POPC   C3A21341  11.118  39.853   7.924
 1468POPC   C4A21342  10.881  40.218   7.779
 1468POPC   C1B21343  11.688  40.074   8.764
 1468POPC   C2B21344  11.569  40.332   8.384
 1468POPC   C3B21345  11.503  40.266   7.962
 1468POPC   C4B21346  11.378  40.106   7.562
 1469POPC   NC321347  35.831   9.382   9.479
 1469POPC   PO421348  35.412   9.896   9.640
 1469POPC   GL121349  35.396   9.837   9.176
 1469POPC   GL221350  35.168   9.596   9.060
 1469POPC   C1A21351  35.193  10.039   8.776
 1469POPC   D2A21352  35.030   9.910   8.343
 1469POPC   C3A21353  35.228   9.919   7.919
 1469POPC   C4A21354  35.564  10.016   7.633
 1469POPC   C1B21355  35.222   9.546   8.657
 1469POPC   C2B21356  35.500   9.675   8.333
 1469POPC   C3B21357  35.652   9.610   7.920
 1469POPC   C4B21358  35.376   9.528   7.557
 1470POPC   NC321359  25.509  11.448   9.682
 1470POPC   PO421360  24.958  11.188   9.409
 1470POPC   GL121361  25.193  11.203   9.067
 1470POPC   GL221362  25.512  11.213   9.216
 1470POPC   C1A21363  25.128  11.113   8.645
 1470POPC   D2A21364  25.303  11.035   8.244
 1470POPC   C3A21365  24.993  11.013   7.927
 1470POPC   C4A21366  25.006  11.299   7.565
 1470POPC   C1B21367  25.645  11.388   8.819
 1470POPC   C2B21368  25.735  11.427   8.367
 1470POPC   C3B21369  25.560  11.368   7.937
 1470POPC   C4B21370  25.442  11.017   7.692
 1471POPC   NC321371  24.503  30.987   9.578
 1471POPC   PO421372  24.268  30.386   9.565
 1471POPC   GL121373  24.488  30.415   9.179
 1471POPC   GL221374  24.729  30.673   9.227
 1471POPC   C1A21375  24.574  30.503   8.746
 1471POPC   D2A21376  24.598  30.368   8.321
 1471POPC   C3A21377  24.375  30.661   8.050
 1471POPC   C4A21378  24.354  30.780   7.617
 1471POPC   C1B21379  24.751  30.994   8.899
 1471POPC   C2B21380  24.669  30.931   8.457
 1471POPC   C3B21381  24.752  31.054   8.035
 1471POPC   C4B21382  24.867  30.919   7.655
 1472POPC   NC321383   2.936  25.921   9.741
 1472POPC   PO421384   2.399  26.228   9.464
 1472POPC   GL121385   2.557  26.138   9.062
 1472POPC   GL221386   2.679  25.764   9.063
 1472POPC   C1A21387   2.524  26.486   8.745
 1472POPC   D2A21388   2.353  26.568   8.316
 1472POPC   C3A21389   2.544  26.200   8.126
 1472POPC   C4A21390   2.774  26.047   7.770
 1472POPC   C1B21391   3.032  25.554   8.790
 1472POPC   C2B21392   3.131  25.705   8.393
 1472POPC   C3B21393   3.087  25.621   7.952
 1472POPC   C4B21394   2.975  25.597   7.505
 1473POPC   NC321395  15.643  10.371   9.602
 1473POPC   PO421396  16.037  10.808   9.337
 1473POPC   GL121397  15.911  10.460   9.146
 1473POPC   GL221398  15.642  10.270   9.098
 1473POPC   C1A21399  16.067  10.331   8.776
 1473POPC   D2A21400  15.916  10.199   8.399
 1473POPC   C3A21401  16.265  10.122   8.147
 1473POPC   C4A21402  16.300  10.477   7.875
 1473POPC   C1B21403  15.620  10.588   8.733
 1473POPC   C2B21404  15.493  10.513   8.303
 1473POPC   C3B21405  15.721  10.357   7.946
 1473POPC   C4B21406  15.894  10.563   7.595
 1474POPC   NC321407  18.131  19.336   9.823
 1474POPC   PO421408  18.452  19.132   9.314
 1474POPC   GL121409  18.363  19.142   8.955
 1474POPC   GL221410  18.026  19.190   9.040
 1474POPC   C1A21411  18.476  18.911   8.584
 1474POPC   D2A21412  18.305  18.817   8.187
 1474POPC   C3A21413  18.619  18.990   7.940
 1474POPC   C4A21414  18.643  19.371   7.789
 1474POPC   C1B21415  17.993  19.062   8.629
 1474POPC   C2B21416  17.941  19.296   8.331
 1474POPC   C3B21417  18.195  19.328   8.030
 1474POPC   C4B21418  18.167  19.025   7.722
 1475POPC   NC321419  39.568  24.787   9.523
 1475POPC   PO421420  39.006  24.299   9.451
 1475POPC   GL121421  39.365  24.431   9.197
 1475POPC   GL221422  39.297  24.791   9.117
 1475POPC   C1A21423  39.334  24.294   8.804
 1475POPC   D2A21424  39.014  24.285   8.500
 1475POPC   C3A21425  39.152  24.174   8.104
 1475POPC   C4A21426  39.406  24.440   7.828
 1475POPC   C1B21427  39.165  24.752   8.742
 1475POPC   C2B21428  39.359  24.636   8.361
 1475POPC   C3B21429  39.052  24.673   8.082
 1475POPC   C4B21430  39.048  24.880   7.741
 1476POPC   NC321431  29.799  35.017   9.544
 1476POPC   PO421432  30.036  35.625   9.500
 1476POPC   GL121433  29.839  35.485   9.128
 1476POPC   GL221434  29.632  35.173   9.098
 1476POPC   C1A21435  29.979  35.518   8.691
 1476POPC   D2A21436  29.736  35.574   8.326
 1476POPC   C3A21437  29.960  35.700   8.000
 1476POPC   C4A21438  29.772  35.736   7.636
 1476POPC   C1B21439  30.059  35.055   8.937
 1476POPC   C2B21440  30.255  35.074   8.550
 1476POPC   C3B21441  30.085  35.168   8.168
 1476POPC   C4B21442  29.969  35.251   7.757
 1477POPC   NC321443  25.664  16.218   9.522
 1477POPC   PO421444  25.982  16.727   9.549
 1477POPC   GL121445  26.057  16.787   9.136
 1477POPC   GL221446  26.010  16.424   9.095
 1477POPC   C1A21447  26.089  16.842   8.696
 1477POPC   D2A21448  25.994  17.108   8.363
 1477POPC   C3A21449  26.002  16.922   7.964
 1477POPC   C4A21450  26.321  16.708   7.781
 1477POPC   C1B21451  26.037  16.317   8.658
 1477POPC   C2B21452  26.148  16.474   8.237
 1477POPC   C3B21453  26.011  16.312   7.838
 1477POPC   C4B21454  25.807  16.526   7.487
 1478POPC   NC321455  43.332  17.136   9.495
 1478POPC   PO421456  42.716  17.057   9.441
 1478POPC   GL121457  42.938  16.892   9.094
 1478POPC   GL221458  43.290  16.940   9.034
 1478POPC   C1A21459  42.910  16.662   8.711
 1478POPC   D2A21460  43.115  16.493   8.355
 1478POPC   C3A21461  43.054  16.739   7.988
 1478POPC   C4A21462  42.779  16.764   7.624
 1478POPC   C1B21463  43.504  17.059   8.674
 1478POPC   C2B21464  43.517  16.947   8.237
 1478POPC   C3B21465  43.486  16.943   7.799
 1478POPC   C4B21466  43.342  16.955   7.361
 1479POPC   NC321467  42.176  26.175   9.471
 1479POPC   PO421468  41.934  25.779   9.006
 1479POPC   GL121469  42.396  25.870   9.079
 1479POPC   GL221470  42.507  26.217   9.088
 1479POPC   C1A21471  42.731  25.924   8.760
 1479POPC   D2A21472  42.494  25.937   8.407
 1479POPC   C3A21473  42.613  25.969   8.005
 1479POPC   C4A21474  42.315  25.904   7.685
 1479POPC   C1B21475  42.244  26.292   8.738
 1479POPC   C2B21476  42.313  26.415   8.309
 1479POPC   C3B21477  42.300  26.382   7.861
 1479POPC   C4B21478  42.236  26.353   7.428
 1480POPC   NC321479   0.772  32.184   9.473
 1480POPC   PO421480   0.176  32.440   9.470
 1480POPC   GL121481   0.442  32.383   9.135
 1480POPC   GL221482   0.311  32.048   9.030
 1480POPC   C1A21483   0.517  32.370   8.703
 1480POPC   D2A21484   0.157  32.258   8.508
 1480POPC   C3A21485   0.262  32.188   8.098
 1480POPC   C4A21486   0.554  32.481   7.883
 1480POPC   C1B21487   0.399  31.825   8.636
 1480POPC   C2B21488   0.687  31.967   8.300
 1480POPC   C3B21489   0.867  31.927   7.878
 1480POPC   C4B21490   0.645  32.124   7.506
 1481POPC   NC321491  14.197   8.424   9.591
 1481POPC   PO421492  14.663   7.948   9.557
 1481POPC   GL121493  14.417   8.101   9.210
 1481POPC   GL221494  14.100   8.147   9.160
 1481POPC   C1A21495  14.436   8.167   8.770
 1481POPC   D2A21496  14.380   8.379   8.402
 1481POPC   C3A21497  14.395   8.172   8.026
 1481POPC   C4A21498  14.577   8.378   7.708
 1481POPC   C1B21499  13.935   7.949   8.787
 1481POPC   C2B21500  13.963   8.078   8.350
 1481POPC   C3B21501  13.916   8.048   7.908
 1481POPC   C4B21502  14.175   8.129   7.494
 1482POPC   NC321503   7.402   9.259   9.422
 1482POPC   PO421504   7.265   8.608   9.704
 1482POPC   GL121505   7.345   8.684   9.226
 1482POPC   GL221506   7.614   8.880   9.132
 1482POPC   C1A21507   7.237   8.940   8.820
 1482POPC   D2A21508   7.005   9.045   8.486
 1482POPC   C3A21509   7.198   8.983   8.113
 1482POPC   C4A21510   7.226   9.222   7.756
 1482POPC   C1B21511   7.705   9.169   8.787
 1482POPC   C2B21512   7.884   9.087   8.391
 1482POPC   C3B21513   7.714   9.045   7.987
 1482POPC   C4B21514   7.716   9.277   7.621
 1483POPC   NC321515  40.016  40.095   9.538
 1483POPC   PO421516  40.308  39.519   9.678
 1483POPC   GL121517  40.154  39.741   9.199
 1483POPC   GL221518  40.105  40.109   9.054
 1483POPC   C1A21519  39.891  39.761   8.777
 1483POPC   D2A21520  39.887  39.667   8.344
 1483POPC   C3A21521  39.880  40.005   8.079
 1483POPC   C4A21522  39.886  40.008   7.623
 1483POPC   C1B21523  39.917  40.360   8.743
 1483POPC   C2B21524  40.006  40.457   8.310
 1483POPC   C3B21525  40.217  40.342   7.887
 1483POPC   C4B21526  40.208  40.366   7.423
 1484POPC   NC321527   1.938  24.933   9.362
 1484POPC   PO421528   1.584  24.403   9.605
 1484POPC   GL121529   1.884  24.427   9.238
 1484POPC   GL221530   1.720  24.620   9.043
 1484POPC   C1A21531   2.035  24.313   8.785
 1484POPC   D2A21532   2.033  24.050   8.398
 1484POPC   C3A21533   2.121  24.301   8.016
 1484POPC   C4A21534   2.002  24.199   7.608
 1484POPC   C1B21535   1.792  24.787   8.656
 1484POPC   C2B21536   2.045  24.729   8.281
 1484POPC   C3B21537   1.808  24.783   7.911
 1484POPC   C4B21538   1.731  24.625   7.476
 1485POPC   NC321539  43.517  27.388   9.516
 1485POPC   PO421540  42.975  27.701   9.793
 1485POPC   GL121541  42.956  27.509   9.327
 1485POPC   GL221542  43.207  27.350   9.108
 1485POPC   C1A21543  42.855  27.639   8.875
 1485POPC   D2A21544  42.853  27.502   8.442
 1485POPC   C3A21545  43.033  27.734   8.075
 1485POPC   C4A21546  43.298  28.053   7.866
 1485POPC   C1B21547  43.326  27.297   8.676
 1485POPC   C2B21548  43.247  27.259   8.225
 1485POPC   C3B21549  43.400  27.407   7.829
 1485POPC   C4B21550  43.359  27.216   7.377
 1486POPC   NC321551   5.894  42.003   9.641
 1486POPC   PO421552   5.893  42.653   9.503
 1486POPC   GL121553   5.816  42.317   9.206
 1486POPC   GL221554   6.117  42.116   9.190
 1486POPC   C1A21555   5.746  42.284   8.756
 1486POPC   D2A21556   5.555  42.156   8.357
 1486POPC   C3A21557   5.789  42.312   8.002
 1486POPC   C4A21558   5.738  42.539   7.618
 1486POPC   C1B21559   6.245  42.165   8.796
 1486POPC   C2B21560   6.082  42.035   8.417
 1486POPC   C3B21561   6.243  42.054   8.022
 1486POPC   C4B21562   6.109  42.158   7.636
 1487POPC   NC321563   2.755  10.815   9.879
 1487POPC   PO421564   2.648  11.309   9.493
 1487POPC   GL121565   2.756  11.327   9.105
 1487POPC   GL221566   2.895  11.014   9.072
 1487POPC   C1A21567   2.794  11.429   8.680
 1487POPC   D2A21568   2.859  11.437   8.237
 1487POPC   C3A21569   2.518  11.238   8.002
 1487POPC   C4A21570   2.325  11.362   7.617
 1487POPC   C1B21571   2.562  10.934   8.773
 1487POPC   C2B21572   2.428  10.797   8.379
 1487POPC   C3B21573   2.675  10.749   8.019
 1487POPC   C4B21574   2.502  10.876   7.644
 1488POPC   NC321575  18.428  11.670   9.519
 1488POPC   PO421576  18.339  10.978   9.584
 1488POPC   GL121577  18.368  11.213   9.181
 1488POPC   GL221578  18.069  11.103   8.982
 1488POPC   C1A21579  18.405  11.437   8.787
 1488POPC   D2A21580  18.381  11.707   8.462
 1488POPC   C3A21581  18.553  11.511   8.096
 1488POPC   C4A21582  18.365  11.285   7.765
 1488POPC   C1B21583  18.406  10.933   8.698
 1488POPC   C2B21584  18.379  10.981   8.256
 1488POPC   C3B21585  18.224  10.831   7.889
 1488POPC   C4B21586  18.493  10.801   7.560
 1489POPC   NC321587  38.474  43.746   9.679
 1489POPC   PO421588  39.033  44.180   9.633
 1489POPC   GL121589  38.647  44.124   9.323
 1489POPC   GL221590  38.532  43.796   9.186
 1489POPC   C1A21591  38.454  44.277   8.928
 1489POPC   D2A21592  38.549  44.254   8.478
 1489POPC   C3A21593  38.298  44.161   8.121
 1489POPC   C4A21594  38.363  43.900   7.767
 1489POPC   C1B21595  38.307  43.802   8.780
 1489POPC   C2B21596  38.144  43.717   8.357
 1489POPC   C3B21597  38.071  43.385   8.074
 1489POPC   C4B21598  38.035  43.496   7.651
 1490POPC   NC321599  20.218   0.522   9.672
 1490POPC   PO421600  20.895   0.374   9.521
 1490POPC   GL121601  20.739   0.509   9.168
 1490POPC   GL221602  20.385   0.434   9.193
 1490POPC   C1A21603  20.713   0.337   8.760
 1490POPC   D2A21604  20.555   0.232   8.342
 1490POPC   C3A21605  20.804   0.517   8.085
 1490POPC   C4A21606  20.837   0.699   7.718
 1490POPC   C1B21607  20.366   0.718   8.881
 1490POPC   C2B21608  20.522   0.756   8.458
 1490POPC   C3B21609  20.314   0.646   8.085
 1490POPC   C4B21610  20.368   0.900   7.771
 1491POPC   NC321611  19.460  13.925   9.356
 1491POPC   PO421612  20.033  13.797   9.619
 1491POPC   GL121613  19.862  13.659   9.220
 1491POPC   GL221614  20.102  13.789   9.084
 1491POPC   C1A21615  19.734  13.541   8.790
 1491POPC   D2A21616  19.936  13.482   8.402
 1491POPC   C3A21617  19.710  13.569   8.042
 1491POPC   C4A21618  19.864  13.383   7.666
 1491POPC   C1B21619  20.309  13.908   8.728
 1491POPC   C2B21620  20.306  13.854   8.301
 1491POPC   C3B21621  20.093  13.877   7.933
 1491POPC   C4B21622  20.166  13.808   7.488
 1492POPC   NC321623  40.051  41.415   9.363
 1492POPC   PO421624  39.466  41.778   9.350
 1492POPC   GL121625  39.769  41.719   9.026
 1492POPC   GL221626  40.101  41.886   9.074
 1492POPC   C1A21627  39.795  41.399   8.708
 1492POPC   D2A21628  39.632  41.346   8.295
 1492POPC   C3A21629  39.711  41.591   7.929
 1492POPC   C4A21630  39.763  41.342   7.578
 1492POPC   C1B21631  40.236  41.672   8.696
 1492POPC   C2B21632  40.177  41.394   8.315
 1492POPC   C3B21633  40.187  41.476   7.850
 1492POPC   C4B21634  40.056  41.764   7.544
 1493POPC   NC321635  33.300  22.540   9.491
 1493POPC   PO421636  32.935  22.023   9.544
 1493POPC   GL121637  32.796  22.099   9.127
 1493POPC   GL221638  32.945  22.432   9.098
 1493POPC   C1A21639  32.680  22.235   8.709
 1493POPC   D2A21640  32.936  22.204   8.319
 1493POPC   C3A21641  32.777  22.176   7.910
 1493POPC   C4A21642  32.685  21.799   7.696
 1493POPC   C1B21643  33.198  22.259   8.768
 1493POPC   C2B21644  33.373  22.454   8.386
 1493POPC   C3B21645  33.518  22.442   7.958
 1493POPC   C4B21646  33.288  22.330   7.621
 1494POPC   NC321647  42.623  27.835   9.533
 1494POPC   PO421648  42.038  27.415   9.593
 1494POPC   GL121649  42.313  27.471   9.247
 1494POPC   GL221650  42.210  27.145   9.168
 1494POPC   C1A21651  42.334  27.696   8.827
 1494POPC   D2A21652  42.178  27.761   8.394
 1494POPC   C3A21653  42.502  27.657   8.079
 1494POPC   C4A21654  42.281  27.672   7.731
 1494POPC   C1B21655  42.513  27.210   8.842
 1494POPC   C2B21656  42.387  27.311   8.439
 1494POPC   C3B21657  42.256  27.215   8.030
 1494POPC   C4B21658  42.578  27.260   7.738
 1495POPC   NC321659  12.443  13.260   9.514
 1495POPC   PO421660  13.105  13.012   9.542
 1495POPC   GL121661  13.039  12.786   9.178
 1495POPC   GL221662  12.685  12.814   9.235
 1495POPC   C1A21663  12.847  12.678   8.749
 1495POPC   D2A21664  12.594  12.893   8.423
 1495POPC   C3A21665  12.697  12.868   8.009
 1495POPC   C4A21666  12.725  12.504   7.812
 1495POPC   C1B21667  12.572  13.090   8.892
 1495POPC   C2B21668  12.380  13.332   8.563
 1495POPC   C3B21669  12.473  13.352   8.125
 1495POPC   C4B21670  12.606  13.301   7.719
 1496POPC   NC321671   1.285  30.630   9.628
 1496POPC   PO421672   0.768  31.076   9.523
 1496POPC   GL121673   1.027  30.734   9.213
 1496POPC   GL221674   1.430  30.773   9.165
 1496POPC   C1A21675   1.145  30.523   8.812
 1496POPC   D2A21676   1.324  30.321   8.454
 1496POPC   C3A21677   1.230  30.485   8.010
 1496POPC   C4A21678   1.105  30.728   7.606
 1496POPC   C1B21679   1.609  30.717   8.741
 1496POPC   C2B21680   1.367  30.836   8.388
 1496POPC   C3B21681   1.382  30.980   7.976
 1496POPC   C4B21682   1.616  30.739   7.692
 1497POPC   NC321683  20.004  33.057   9.714
 1497POPC   PO421684  19.430  33.406   9.447
 1497POPC   GL121685  19.813  33.284   9.232
 1497POPC   GL221686  19.976  32.974   9.221
 1497POPC   C1A21687  19.944  33.279   8.807
 1497POPC   D2A21688  19.753  33.362   8.423
 1497POPC   C3A21689  19.976  33.325   8.072
 1497POPC   C4A21690  19.715  33.140   7.813
 1497POPC   C1B21691  20.004  32.762   8.816
 1497POPC   C2B21692  20.016  32.896   8.387
 1497POPC   C3B21693  20.047  32.766   7.953
 1497POPC   C4B21694  19.824  32.711   7.545
 1498POPC   NC321695  27.433   5.475   9.554
 1498POPC   PO421696  27.769   4.833   9.563
 1498POPC   GL121697  27.729   5.023   9.207
 1498POPC   GL221698  27.388   5.112   9.196
 1498POPC   C1A21699  27.590   4.855   8.811
 1498POPC   D2A21700  27.417   5.064   8.478
 1498POPC   C3A21701  27.491   4.886   8.118
 1498POPC   C4A21702  27.572   5.003   7.704
 1498POPC   C1B21703  27.142   5.380   8.922
 1498POPC   C2B21704  26.955   5.344   8.522
 1498POPC   C3B21705  27.120   5.303   8.114
 1498POPC   C4B21706  27.251   5.423   7.669
 1499POPC   NC321707  11.816   4.841   9.308
 1499POPC   PO421708  11.312   5.219   9.650
 1499POPC   GL121709  11.392   5.140   9.193
 1499POPC   GL221710  11.130   4.918   9.152
 1499POPC   C1A21711  11.397   5.246   8.722
 1499POPC   D2A21712  11.656   5.187   8.318
 1499POPC   C3A21713  11.509   5.232   7.931
 1499POPC   C4A21714  11.108   5.388   7.943
 1499POPC   C1B21715  11.125   4.811   8.701
 1499POPC   C2B21716  11.193   4.962   8.257
 1499POPC   C3B21717  11.265   4.775   7.804
 1499POPC   C4B21718  11.081   4.704   7.329
 1500POPC   NC321719   1.375  39.258   9.556
 1500POPC   PO421720   0.882  38.797   9.383
 1500POPC   GL121721   1.225  39.021   9.152
 1500POPC   GL221722   1.024  39.309   9.154
 1500POPC   C1A21723   1.421  39.323   8.815
 1500POPC   D2A21724   1.289  39.417   8.370
 1500POPC   C3A21725   1.332  39.169   7.953
 1500POPC   C4A21726   1.386  39.234   7.497
 1500POPC   C1B21727   0.982  39.083   8.722
 1500POPC   C2B21728   1.011  38.960   8.288
 1500POPC   C3B21729   0.832  39.141   7.887
 1500POPC   C4B21730   0.899  39.136   7.441
 1501POPC   NC321731  35.133   9.502   9.543
 1501POPC   PO421732  34.607   8.943   9.606
 1501POPC   GL121733  34.585   9.087   9.195
 1501POPC   GL221734  34.943   9.004   9.160
 1501POPC   C1A21735  34.352   9.084   8.800
 1501POPC   D2A21736  34.481   9.302   8.421
 1501POPC   C3A21737  34.453   9.098   8.012
 1501POPC   C4A21738  34.052   9.235   7.806
 1501POPC   C1B21739  34.865   9.195   8.757
 1501POPC   C2B21740  34.880   8.984   8.327
 1501POPC   C3B21741  34.976   8.856   7.885
 1501POPC   C4B21742  34.712   8.880   7.490
 1502POPC   NC321743  28.317  36.708   9.478
 1502POPC   PO421744  28.285  37.412   9.618
 1502POPC   GL121745  28.519  37.222   9.251
 1502POPC   GL221746  28.284  37.012   9.086
 1502POPC   C1A21747  28.538  37.301   8.771
 1502POPC   D2A21748  28.340  37.170   8.360
 1502POPC   C3A21749  28.573  37.256   7.973
 1502POPC   C4A21750  28.534  37.547   7.636
 1502POPC   C1B21751  28.384  36.794   8.710
 1502POPC   C2B21752  28.197  36.672   8.321
 1502POPC   C3B21753  28.276  36.857   7.947
 1502POPC   C4B21754  28.376  36.767   7.525
 1503POPC   NC321755  31.689  18.364   9.478
 1503POPC   PO421756  31.351  17.781   9.503
 1503POPC   GL121757  31.299  18.131   9.179
 1503POPC   GL221758  31.616  18.269   8.991
 1503POPC   C1A21759  31.206  18.114   8.743
 1503POPC   D2A21760  31.522  18.233   8.457
 1503POPC   C3A21761  31.391  18.114   8.060
 1503POPC   C4A21762  31.660  17.978   7.702
 1503POPC   C1B21763  31.337  18.608   8.814
 1503POPC   C2B21764  31.156  18.587   8.414
 1503POPC   C3B21765  31.337  18.620   8.026
 1503POPC   C4B21766  31.304  18.385   7.636
 1504POPC   NC321767  36.581  32.443   9.455
 1504POPC   PO421768  37.077  31.896   9.616
 1504POPC   GL121769  36.991  32.168   9.247
 1504POPC   GL221770  37.289  32.350   9.184
 1504POPC   C1A21771  36.948  32.178   8.768
 1504POPC   D2A21772  36.706  32.223   8.399
 1504POPC   C3A21773  36.907  32.369   8.034
 1504POPC   C4A21774  36.752  32.399   7.604
 1504POPC   C1B21775  37.324  31.911   8.950
 1504POPC   C2B21776  37.259  31.756   8.543
 1504POPC   C3B21777  37.172  31.873   8.120
 1504POPC   C4B21778  37.084  32.012   7.708
 1505POPC   NC321779   4.556  13.990   9.410
 1505POPC   PO421780   4.091  13.391   9.483
 1505POPC   GL121781   4.384  13.566   9.186
 1505POPC   GL221782   4.668  13.323   9.210
 1505POPC   C1A21783   4.417  13.711   8.760
 1505POPC   D2A21784   4.496  13.910   8.358
 1505POPC   C3A21785   4.245  13.687   8.008
 1505POPC   C4A21786   4.364  13.300   7.772
 1505POPC   C1B21787   4.620  13.218   8.773
 1505POPC   C2B21788   4.554  13.372   8.343
 1505POPC   C3B21789   4.756  13.583   8.017
 1505POPC   C4B21790   4.574  13.742   7.616
 1506POPC   NC321791   2.315   7.308   9.537
 1506POPC   PO421792   1.657   7.634   9.330
 1506POPC   GL121793   1.818   7.381   8.983
 1506POPC   GL221794   2.145   7.451   9.086
 1506POPC   C1A21795   1.925   7.427   8.524
 1506POPC   D2A21796   2.208   7.662   8.216
 1506POPC   C3A21797   2.191   7.530   7.792
 1506POPC   C4A21798   1.933   7.328   7.496
 1506POPC   C1B21799   2.343   7.248   8.814
 1506POPC   C2B21800   2.367   7.165   8.389
 1506POPC   C3B21801   2.188   7.071   8.011
 1506POPC   C4B21802   2.396   7.088   7.593
 1507POPC   NC321803  23.820  11.921   9.792
 1507POPC   PO421804  24.465  11.975   9.557
 1507POPC   GL121805  24.496  11.931   9.150
 1507POPC   GL221806  24.404  12.267   9.027
 1507POPC   C1A21807  24.712  11.961   8.769
 1507POPC   D2A21808  24.607  12.208   8.435
 1507POPC   C3A21809  24.664  12.081   8.026
 1507POPC   C4A21810  24.601  12.479   7.762
 1507POPC   C1B21811  24.194  12.035   8.761
 1507POPC   C2B21812  24.071  12.192   8.402
 1507POPC   C3B21813  24.208  12.317   8.042
 1507POPC   C4B21814  24.294  12.051   7.682
 1508POPC   NC321815  34.391   6.228   9.531
 1508POPC   PO421816  34.860   5.809   9.367
 1508POPC   GL121817  34.643   6.082   9.075
 1508POPC   GL221818  34.262   6.080   9.068
 1508POPC   C1A21819  34.569   5.996   8.637
 1508POPC   D2A21820  34.803   5.686   8.429
 1508POPC   C3A21821  34.690   5.719   8.031
 1508POPC   C4A21822  34.782   6.065   7.786
 1508POPC   C1B21823  34.348   5.646   8.923
 1508POPC   C2B21824  34.284   5.547   8.493
 1508POPC   C3B21825  34.183   5.837   8.153
 1508POPC   C4B21826  34.263   6.031   7.735
 1509POPC   NC321827   2.012   4.705   9.526
 1509POPC   PO421828   1.886   5.389   9.539
 1509POPC   GL121829   1.863   5.098   9.199
 1509POPC   GL221830   2.227   5.052   9.219
 1509POPC   C1A21831   1.699   4.986   8.768
 1509POPC   D2A21832   1.492   5.107   8.376
 1509POPC   C3A21833   1.742   5.001   8.035
 1509POPC   C4A21834   2.071   5.287   7.788
 1509POPC   C1B21835   2.418   4.903   8.867
 1509POPC   C2B21836   2.296   4.661   8.498
 1509POPC   C3B21837   2.182   4.688   8.077
 1509POPC   C4B21838   2.022   4.785   7.670
 1510POPC   NC321839  16.581  40.572   9.305
 1510POPC   PO421840  17.034  41.004   9.481
 1510POPC   GL121841  16.959  40.918   9.057
 1510POPC   GL221842  16.931  40.600   8.934
 1510POPC   C1A21843  16.999  40.966   8.588
 1510POPC   D2A21844  16.787  40.674   8.313
 1510POPC   C3A21845  16.944  40.572   7.904
 1510POPC   C4A21846  17.009  40.961   7.690
 1510POPC   C1B21847  16.531  40.856   8.738
 1510POPC   C2B21848  16.377  41.029   8.340
 1510POPC   C3B21849  16.471  40.823   7.926
 1510POPC   C4B21850  16.553  40.950   7.495
 1511POPC   NC321851   3.077  42.667   9.509
 1511POPC   PO421852   2.736  42.028   9.541
 1511POPC   GL121853   2.787  42.204   9.163
 1511POPC   GL221854   3.126  42.231   9.163
 1511POPC   C1A21855   2.768  42.136   8.730
 1511POPC   D2A21856   2.812  42.330   8.363
 1511POPC   C3A21857   2.789  42.165   7.976
 1511POPC   C4A21858   2.528  42.244   7.613
 1511POPC   C1B21859   3.186  42.428   8.776
 1511POPC   C2B21860   3.143  42.700   8.442
 1511POPC   C3B21861   3.250  42.582   7.996
 1511POPC   C4B21862   3.008  42.473   7.631
 1512POPC   NC321863  28.533  23.531   9.523
 1512POPC   PO421864  28.618  24.193   9.478
 1512POPC   GL121865  28.487  23.913   9.153
 1512POPC   GL221866  28.287  23.593   9.093
 1512POPC   C1A21867  28.426  23.880   8.717
 1512POPC   D2A21868  28.449  23.561   8.435
 1512POPC   C3A21869  28.194  23.805   8.179
 1512POPC   C4A21870  28.413  23.875   7.834
 1512POPC   C1B21871  28.029  23.438   8.751
 1512POPC   C2B21872  27.996  23.346   8.327
 1512POPC   C3B21873  28.227  23.355   7.941
 1512POPC   C4B21874  28.089  23.324   7.493
 1513POPC   NC321875   8.374  38.572   9.521
 1513POPC   PO421876   7.735  38.885   9.412
 1513POPC   GL121877   7.963  38.535   9.095
 1513POPC   GL221878   8.312  38.502   9.031
 1513POPC   C1A21879   8.081  38.488   8.599
 1513POPC   D2A21880   7.918  38.681   8.214
 1513POPC   C3A21881   8.232  38.545   7.912
 1513POPC   C4A21882   8.710  38.571   7.966
 1513POPC   C1B21883   8.493  38.177   8.766
 1513POPC   C2B21884   8.451  38.046   8.323
 1513POPC   C3B21885   8.334  38.056   7.883
 1513POPC   C4B21886   8.078  38.227   7.543
 1514POPC   NC321887  37.267  21.573   9.524
 1514POPC   PO421888  37.884  21.139   9.525
 1514POPC   GL121889  37.664  21.364   9.249
 1514POPC   GL221890  37.884  21.628   9.126
 1514POPC   C1A21891  37.586  21.297   8.838
 1514POPC   D2A21892  37.804  21.357   8.464
 1514POPC   C3A21893  37.607  21.258   8.055
 1514POPC   C4A21894  37.612  21.022   7.674
 1514POPC   C1B21895  38.087  21.239   8.902
 1514POPC   C2B21896  38.295  21.138   8.516
 1514POPC   C3B21897  38.123  21.194   8.115
 1514POPC   C4B21898  38.120  21.149   7.720
 1515POPC   NC321899  44.295  31.507   9.809
 1515POPC   PO421900  44.054  31.042   9.377
 1515POPC   GL121901  43.829  31.250   9.047
 1515POPC   GL221902  43.508  31.334   9.132
 1515POPC   C1A21903  43.982  31.264   8.623
 1515POPC   D2A21904  44.165  31.419   8.228
 1515POPC   C3A21905  43.995  31.297   7.818
 1515POPC   C4A21906  44.019  31.363   7.366
 1515POPC   C1B21907  43.570  31.595   8.778
 1515POPC   C2B21908  43.753  31.662   8.388
 1515POPC   C3B21909  43.593  31.609   7.985
 1515POPC   C4B21910  43.732  31.741   7.601
 1516POPC   NC321911  33.428  31.047   9.385
 1516POPC   PO421912  33.782  30.490   9.648
 1516POPC   GL121913  33.846  30.575   9.207
 1516POPC   GL221914  33.526  30.590   9.180
 1516POPC   C1A21915  34.021  30.433   8.799
 1516POPC   D2A21916  33.863  30.506   8.394
 1516POPC   C3A21917  34.138  30.531   8.071
 1516POPC   C4A21918  34.052  30.415   7.623
 1516POPC   C1B21919  33.670  30.863   8.807
 1516POPC   C2B21920  33.503  30.894   8.409
 1516POPC   C3B21921  33.597  30.766   8.011
 1516POPC   C4B21922  33.932  30.884   7.782
 1517POPC   NC321923  25.701   8.049   9.645
 1517POPC   PO421924  25.538   8.612   9.446
 1517POPC   GL121925  25.916   8.307   9.258
 1517POPC   GL221926  25.867   7.930   9.176
 1517POPC   C1A21927  26.125   8.205   8.849
 1517POPC   D2A21928  26.066   8.536   8.563
 1517POPC   C3A21929  25.982   8.465   8.143
 1517POPC   C4A21930  26.313   8.320   7.886
 1517POPC   C1B21931  25.610   7.902   8.811
 1517POPC   C2B21932  25.783   8.064   8.444
 1517POPC   C3B21933  25.870   7.978   8.022
 1517POPC   C4B21934  25.951   8.148   7.597
 1518POPC   NC321935  13.210  22.296   9.644
 1518POPC   PO421936  12.711  21.837   9.567
 1518POPC   GL121937  12.903  22.024   9.229
 1518POPC   GL221938  13.025  22.375   9.189
 1518POPC   C1A21939  12.782  21.950   8.831
 1518POPC   D2A21940  12.623  22.136   8.444
 1518POPC   C3A21941  12.939  21.985   8.163
 1518POPC   C4A21942  13.059  22.072   7.729
 1518POPC   C1B21943  12.828  22.452   8.841
 1518POPC   C2B21944  12.982  22.527   8.455
 1518POPC   C3B21945  12.880  22.462   8.063
 1518POPC   C4B21946  12.944  22.609   7.714
 1519POPC   NC321947  36.660  36.390   9.480
 1519POPC   PO421948  35.969  36.149   9.423
 1519POPC   GL121949  35.723  36.224   9.063
 1519POPC   GL221950  36.065  36.378   8.973
 1519POPC   C1A21951  35.707  36.335   8.628
 1519POPC   D2A21952  36.008  36.283   8.317
 1519POPC   C3A21953  35.956  36.121   7.922
 1519POPC   C4A21954  35.888  36.144   7.458
 1519POPC   C1B21955  36.102  35.981   8.722
 1519POPC   C2B21956  36.373  35.904   8.352
 1519POPC   C3B21957  36.470  35.933   7.908
 1519POPC   C4B21958  36.391  36.014   7.459
 1520POPC   NC321959  22.317  40.597   9.730
 1520POPC   PO421960  21.965  41.123   9.439
 1520POPC   GL121961  22.224  40.779   9.209
 1520POPC   GL221962  22.087  40.482   9.235
 1520POPC   C1A21963  22.356  40.854   8.770
 1520POPC   D2A21964  22.477  40.760   8.348
 1520POPC   C3A21965  22.507  40.924   7.922
 1520POPC   C4A21966  22.530  40.884   7.416
 1520POPC   C1B21967  21.887  40.650   8.853
 1520POPC   C2B21968  21.817  40.797   8.445
 1520POPC   C3B21969  21.983  40.772   8.051
 1520POPC   C4B21970  22.137  40.708   7.661
 1521POPC   NC321971  40.521   1.333  10.012
 1521POPC   PO421972  40.946   1.123   9.606
 1521POPC   GL121973  40.880   1.168   9.172
 1521POPC   GL221974  40.527   1.265   9.210
 1521POPC   C1A21975  40.744   0.922   8.795
 1521POPC   D2A21976  40.572   0.798   8.387
 1521POPC   C3A21977  40.759   0.891   7.986
 1521POPC   C4A21978  40.753   0.918   7.540
 1521POPC   C1B21979  40.557   1.473   8.826
 1521POPC   C2B21980  40.711   1.337   8.478
 1521POPC   C3B21981  40.720   1.472   8.118
 1521POPC   C4B21982  40.874   1.365   7.736
 1522POPC   NC321983  35.605  21.442   9.379
 1522POPC   PO421984  36.174  21.162   9.508
 1522POPC   GL121985  36.136  21.545   9.208
 1522POPC   GL221986  36.450  21.629   9.049
 1522POPC   C1A21987  36.053  21.815   8.799
 1522POPC   D2A21988  36.081  21.654   8.349
 1522POPC   C3A21989  35.790  21.577   7.989
 1522POPC   C4A21990  35.722  21.539   7.537
 1522POPC   C1B21991  36.645  21.579   8.611
 1522POPC   C2B21992  36.535  21.553   8.163
 1522POPC   C3B21993  36.278  21.266   7.936
 1522POPC   C4B21994  36.341  20.989   7.584
 1523POPC   NC321995   5.338  14.305   9.455
 1523POPC   PO421996   4.723  14.402   9.556
 1523POPC   GL121997   4.896  14.355   9.166
 1523POPC   GL221998   5.055  14.703   9.162
 1523POPC   C1A21999   4.795  14.192   8.753
 1523POPC   D2A22000   5.018  14.278   8.389
 1523POPC   C3A22001   4.893  14.310   8.016
 1523POPC   C4A22002   4.957  13.995   7.789
 1523POPC   C1B22003   5.225  14.524   8.776
 1523POPC   C2B22004   5.327  14.705   8.325
 1523POPC   C3B22005   5.165  14.703   7.875
 1523POPC   C4B22006   5.216  14.841   7.446
 1524POPC   NC322007  35.042  43.292   9.480
 1524POPC   PO422008  34.506  42.962   9.499
 1524POPC   GL122009  34.514  43.176   9.106
 1524POPC   GL222010  34.386  42.883   8.992
 1524POPC   C1A22011  34.670  43.219   8.668
 1524POPC   D2A22012  34.886  43.253   8.287
 1524POPC   C3A22013  34.744  43.089   7.927
 1524POPC   C4A22014  34.630  43.158   7.518
 1524POPC   C1B22015  34.182  43.085   8.645
 1524POPC   C2B22016  34.286  43.319   8.300
 1524POPC   C3B22017  34.250  43.072   7.957
 1524POPC   C4B22018  34.138  43.018   7.562
 1525POPC   NC322019  32.530  24.946   9.784
 1525POPC   PO422020  32.130  25.368   9.434
 1525POPC   GL122021  32.368  25.302   9.116
 1525POPC   GL222022  32.680  25.515   9.185
 1525POPC   C1A22023  32.250  25.160   8.729
 1525POPC   D2A22024  32.021  25.237   8.353
 1525POPC   C3A22025  32.215  25.177   7.941
 1525POPC   C4A22026  32.238  25.351   7.524
 1525POPC   C1B22027  32.556  25.567   8.739
 1525POPC   C2B22028  32.523  25.408   8.312
 1525POPC   C3B22029  32.588  25.533   7.859
 1525POPC   C4B22030  32.723  25.414   7.409
 1526POPC   NC322031  29.691   4.329   9.553
 1526POPC   PO422032  30.292   4.316   9.265
 1526POPC   GL122033  30.023   4.377   8.986
 1526POPC   GL222034  29.756   4.161   9.071
 1526POPC   C1A22035  29.902   4.329   8.578
 1526POPC   D2A22036  29.650   4.256   8.236
 1526POPC   C3A22037  29.704   4.494   7.861
 1526POPC   C4A22038  30.066   4.428   7.605
 1526POPC   C1B22039  29.983   3.871   8.775
 1526POPC   C2B22040  30.130   3.925   8.332
 1526POPC   C3B22041  29.948   3.969   7.925
 1526POPC   C4B22042  29.761   3.999   7.517
 1527POPC   NC322043  28.040   9.128   9.845
 1527POPC   PO422044  28.417   9.696   9.521
 1527POPC   GL122045  28.238   9.853   9.169
 1527POPC   GL222046  28.482  10.102   9.070
 1527POPC   C1A22047  28.263   9.712   8.752
 1527POPC   D2A22048  28.496   9.664   8.409
 1527POPC   C3A22049  28.308   9.654   8.059
 1527POPC   C4A22050  28.336   9.676   7.650
 1527POPC   C1B22051  28.661  10.083   8.674
 1527POPC   C2B22052  28.842  10.008   8.270
 1527POPC   C3B22053  28.623  10.076   7.875
 1527POPC   C4B22054  28.823  10.265   7.505
 1528POPC   NC322055  28.037  14.635   9.816
 1528POPC   PO422056  28.359  14.218   9.351
 1528POPC   GL122057  28.515  14.487   9.068
 1528POPC   GL222058  28.234  14.345   8.879
 1528POPC   C1A22059  28.641  14.540   8.651
 1528POPC   D2A22060  28.310  14.471   8.375
 1528POPC   C3A22061  28.487  14.534   8.021
 1528POPC   C4A22062  28.734  14.302   7.771
 1528POPC   C1B22063  28.503  14.019   8.739
 1528POPC   C2B22064  28.605  13.932   8.330
 1528POPC   C3B22065  28.327  14.061   8.012
 1528POPC   C4B22066  28.303  14.080   7.571
 1529POPC   NC322067  34.082  33.683   9.470
 1529POPC   PO422068  33.475  33.973   9.580
 1529POPC   GL122069  33.763  34.051   9.242
 1529POPC   GL222070  33.712  33.736   9.121
 1529POPC   C1A22071  33.808  34.059   8.753
 1529POPC   D2A22072  33.697  33.759   8.418
 1529POPC   C3A22073  33.887  33.887   8.041
 1529POPC   C4A22074  33.719  34.031   7.666
 1529POPC   C1B22075  33.976  33.567   8.813
 1529POPC   C2B22076  34.108  33.428   8.410
 1529POPC   C3B22077  33.986  33.382   7.995
 1529POPC   C4B22078  33.981  33.621   7.608
 1530POPC   NC322079  18.916  36.429   9.618
 1530POPC   PO422080  18.200  36.218   9.531
 1530POPC   GL122081  18.429  36.405   9.211
 1530POPC   GL222082  18.384  36.113   9.018
 1530POPC   C1A22083  18.382  36.527   8.766
 1530POPC   D2A22084  18.262  36.253   8.440
 1530POPC   C3A22085  18.431  36.339   8.044
 1530POPC   C4A22086  18.176  36.484   7.721
 1530POPC   C1B22087  18.339  35.810   8.705
 1530POPC   C2B22088  18.270  35.725   8.279
 1530POPC   C3B22089  18.351  35.848   7.852
 1530POPC   C4B22090  18.392  35.883   7.375
 1531POPC   NC322091  26.517  28.880   9.460
 1531POPC   PO422092  27.215  29.085   9.464
 1531POPC   GL122093  27.041  29.040   9.060
 1531POPC   GL222094  26.724  29.181   9.092
 1531POPC   C1A22095  26.867  29.065   8.635
 1531POPC   D2A22096  26.687  28.997   8.252
 1531POPC   C3A22097  26.988  28.822   7.952
 1531POPC   C4A22098  27.330  28.723   7.658
 1531POPC   C1B22099  26.472  29.417   8.775
 1531POPC   C2B22100  26.588  29.623   8.428
 1531POPC   C3B22101  26.495  29.515   8.045
 1531POPC   C4B22102  26.662  29.177   7.774
 1532POPC   NC322103   5.300  19.431   9.440
 1532POPC   PO422104   4.879  18.916   9.428
 1532POPC   GL122105   4.997  18.973   9.029
 1532POPC   GL222106   4.938  19.312   9.060
 1532POPC   C1A22107   5.334  19.045   8.720
 1532POPC   D2A22108   5.441  19.246   8.312
 1532POPC   C3A22109   5.348  18.997   7.948
 1532POPC   C4A22110   5.031  18.788   7.742
 1532POPC   C1B22111   4.995  19.439   8.648
 1532POPC   C2B22112   4.806  19.447   8.247
 1532POPC   C3B22113   4.863  19.255   7.829
 1532POPC   C4B22114   5.102  19.433   7.463
 1533POPC   NC322115  27.624  11.835   9.582
 1533POPC   PO422116  28.029  12.398   9.573
 1533POPC   GL122117  27.737  12.176   9.221
 1533POPC   GL222118  27.338  12.185   9.192
 1533POPC   C1A22119  27.664  12.059   8.782
 1533POPC   D2A22120  27.824  12.255   8.388
 1533POPC   C3A22121  27.648  12.163   7.997
 1533POPC   C4A22122  27.524  11.927   7.646
 1533POPC   C1B22123  27.140  12.132   8.779
 1533POPC   C2B22124  27.311  12.149   8.377
 1533POPC   C3B22125  27.147  12.169   7.957
 1533POPC   C4B22126  27.029  11.894   7.607
 1534POPC   NC322127  17.827  21.263   9.529
 1534POPC   PO422128  17.234  21.510   9.482
 1534POPC   GL122129  17.559  21.564   9.210
 1534POPC   GL222130  17.536  21.235   9.075
 1534POPC   C1A22131  17.556  21.780   8.860
 1534POPC   D2A22132  17.458  21.514   8.514
 1534POPC   C3A22133  17.460  21.705   8.079
 1534POPC   C4A22134  17.301  21.928   7.723
 1534POPC   C1B22135  17.185  20.991   8.849
 1534POPC   C2B22136  17.001  21.061   8.424
 1534POPC   C3B22137  17.303  21.232   8.124
 1534POPC   C4B22138  17.709  21.268   7.879
 1535POPC   NC322139  13.927  18.813   9.519
 1535POPC   PO422140  13.688  19.438   9.437
 1535POPC   GL122141  13.446  19.224   9.091
 1535POPC   GL222142  13.531  18.841   9.033
 1535POPC   C1A22143  13.424  19.175   8.652
 1535POPC   D2A22144  13.434  18.846   8.370
 1535POPC   C3A22145  13.516  19.061   7.993
 1535POPC   C4A22146  13.349  19.328   7.652
 1535POPC   C1B22147  13.857  18.853   8.666
 1535POPC   C2B22148  13.917  18.779   8.191
 1535POPC   C3B22149  13.898  18.811   7.727
 1535POPC   C4B22150  13.923  18.669   7.270
 1536POPC   NC322151  11.178  39.677   9.510
 1536POPC   PO422152  11.669  39.176   9.546
 1536POPC   GL122153  11.400  39.238   9.178
 1536POPC   GL222154  11.069  39.432   9.072
 1536POPC   C1A22155  11.392  39.123   8.741
 1536POPC   D2A22156  11.184  39.388   8.474
 1536POPC   C3A22157  11.363  39.418   8.071
 1536POPC   C4A22158  11.324  39.422   7.645
 1536POPC   C1B22159  10.958  38.995   8.969
 1536POPC   C2B22160  10.937  38.912   8.503
 1536POPC   C3B22161  11.093  38.988   8.095
 1536POPC   C4B22162  10.957  39.060   7.687
 1537POPC   NC322163  30.004  28.172   9.525
 1537POPC   PO422164  30.215  28.855   9.476
 1537POPC   GL122165  30.046  28.497   9.133
 1537POPC   GL222166  29.730  28.240   9.099
 1537POPC   C1A22167  30.038  28.189   8.735
 1537POPC   D2A22168  29.746  28.168   8.402
 1537POPC   C3A22169  29.921  28.228   8.013
 1537POPC   C4A22170  29.997  28.427   7.609
 1537POPC   C1B22171  29.517  27.943   8.826
 1537POPC   C2B22172  29.393  27.755   8.422
 1537POPC   C3B22173  29.381  28.019   8.065
 1537POPC   C4B22174  29.513  28.285   7.729
 1538POPC   NC322175   2.118  37.751   9.445
 1538POPC   PO422176   1.729  37.100   9.507
 1538POPC   GL122177   1.948  37.315   9.173
 1538POPC   GL222178   1.766  37.634   9.105
 1538POPC   C1A22179   2.196  37.483   8.818
 1538POPC   D2A22180   2.179  37.663   8.398
 1538POPC   C3A22181   2.002  37.469   8.006
 1538POPC   C4A22182   1.592  37.346   7.786
 1538POPC   C1B22183   1.731  37.719   8.667
 1538POPC   C2B22184   1.570  37.642   8.237
 1538POPC   C3B22185   1.674  37.908   7.874
 1538POPC   C4B22186   1.637  38.006   7.424
 1539POPC   NC322187   9.213  44.051   9.759
 1539POPC   PO422188   8.918  44.444   9.296
 1539POPC   GL122189   9.241  44.200   9.175
 1539POPC   GL222190   9.233  43.888   9.268
 1539POPC   C1A22191   9.343  44.133   8.794
 1539POPC   D2A22192   9.085  44.042   8.504
 1539POPC   C3A22193   9.120  43.971   8.108
 1539POPC   C4A22194   8.970  44.019   7.727
 1539POPC   C1B22195   8.993  43.739   8.884
 1539POPC   C2B22196   8.937  43.538   8.438
 1539POPC   C3B22197   8.764  43.562   7.989
 1539POPC   C4B22198   8.957  43.556   7.569
 1540POPC   NC322199  41.732   7.341   9.334
 1540POPC   PO422200  41.169   7.568   9.578
 1540POPC   GL122201  41.336   7.779   9.203
 1540POPC   GL222202  41.663   7.863   9.172
 1540POPC   C1A22203  41.377   7.622   8.783
 1540POPC   D2A22204  41.255   7.520   8.356
 1540POPC   C3A22205  41.505   7.363   8.051
 1540POPC   C4A22206  41.420   7.268   7.613
 1540POPC   C1B22207  41.863   7.828   8.787
 1540POPC   C2B22208  41.790   7.567   8.443
 1540POPC   C3B22209  41.789   7.794   8.046
 1540POPC   C4B22210  41.813   7.625   7.677
 1541POPC   NC322211   9.788   9.237   9.749
 1541POPC   PO422212   9.491   9.711   9.390
 1541POPC   GL122213   9.824   9.821   9.099
 1541POPC   GL222214   9.926  10.185   9.081
 1541POPC   C1A22215   9.867   9.675   8.673
 1541POPC   D2A22216  10.008   9.724   8.248
 1541POPC   C3A22217   9.720   9.549   7.945
 1541POPC   C4A22218   9.698   9.383   7.538
 1541POPC   C1B22219   9.608  10.133   8.740
 1541POPC   C2B22220   9.574   9.985   8.330
 1541POPC   C3B22221   9.709  10.059   7.920
 1541POPC   C4B22222   9.946   9.850   7.596
 1542POPC   NC322223  24.714   1.715   9.417
 1542POPC   PO422224  24.276   2.229   9.513
 1542POPC   GL122225  24.470   2.104   9.163
 1542POPC   GL222226  24.292   1.862   9.114
 1542POPC   C1A22227  24.651   2.158   8.771
 1542POPC   D2A22228  24.725   2.428   8.410
 1542POPC   C3A22229  24.866   2.281   8.021
 1542POPC   C4A22230  24.855   2.148   7.595
 1542POPC   C1B22231  24.121   1.977   8.765
 1542POPC   C2B22232  24.341   1.822   8.430
 1542POPC   C3B22233  24.502   1.916   8.057
 1542POPC   C4B22234  24.392   1.966   7.681
 1543POPC   NC322235  36.646   6.147   9.467
 1543POPC   PO422236  37.044   5.573   9.593
 1543POPC   GL122237  36.939   5.808   9.237
 1543POPC   GL222238  36.597   5.720   9.180
 1543POPC   C1A22239  36.835   6.007   8.826
 1543POPC   D2A22240  36.657   6.041   8.397
 1543POPC   C3A22241  36.902   6.162   7.981
 1543POPC   C4A22242  37.051   6.156   7.543
 1543POPC   C1B22243  36.387   5.712   8.768
 1543POPC   C2B22244  36.464   5.526   8.358
 1543POPC   C3B22245  36.763   5.676   8.062
 1543POPC   C4B22246  36.650   5.858   7.666
 1544POPC   NC322247  40.092  26.191   9.867
 1544POPC   PO422248  40.201  25.716   9.488
 1544POPC   GL122249  39.886  25.971   9.244
 1544POPC   GL222250  40.036  26.269   9.168
 1544POPC   C1A22251  39.808  25.993   8.793
 1544POPC   D2A22252  40.113  25.943   8.475
 1544POPC   C3A22253  39.969  25.928   8.051
 1544POPC   C4A22254  40.296  25.773   7.802
 1544POPC   C1B22255  39.893  26.520   8.789
 1544POPC   C2B22256  39.809  26.713   8.380
 1544POPC   C3B22257  39.830  26.457   7.994
 1544POPC   C4B22258  40.013  26.329   7.588
 1545POPC   NC322259  32.776  31.401   9.487
 1545POPC   PO422260  33.458  31.516   9.512
 1545POPC   GL122261  33.153  31.597   9.175
 1545POPC   GL222262  33.039  31.234   9.075
 1545POPC   C1A22263  32.920  31.601   8.769
 1545POPC   D2A22264  32.949  31.242   8.482
 1545POPC   C3A22265  32.973  31.450   8.075
 1545POPC   C4A22266  32.897  31.271   7.682
 1545POPC   C1B22267  33.367  31.309   8.783
 1545POPC   C2B22268  33.415  31.378   8.365
 1545POPC   C3B22269  33.449  31.281   7.967
 1545POPC   C4B22270  33.324  31.535   7.658
 1546POPC   NC322271  22.893   1.305   9.341
 1546POPC   PO422272  22.227   1.066   9.536
 1546POPC   GL122273  22.134   1.164   9.101
 1546POPC   GL222274  22.372   1.414   9.115
 1546POPC   C1A22275  21.975   1.141   8.671
 1546POPC   D2A22276  22.200   1.255   8.305
 1546POPC   C3A22277  21.988   1.289   7.954
 1546POPC   C4A22278  21.885   1.071   7.618
 1546POPC   C1B22279  22.250   1.572   8.714
 1546POPC   C2B22280  22.492   1.661   8.357
 1546POPC   C3B22281  22.551   1.473   7.964
 1546POPC   C4B22282  22.436   1.732   7.661
 1547POPC   NC322283  13.402  10.453   9.605
 1547POPC   PO422284  14.056  10.673   9.427
 1547POPC   GL122285  13.733  10.402   9.183
 1547POPC   GL222286  13.370  10.203   9.180
 1547POPC   C1A22287  13.837  10.316   8.787
 1547POPC   D2A22288  13.642  10.278   8.386
 1547POPC   C3A22289  13.678  10.637   8.126
 1547POPC   C4A22290  13.565  10.589   7.726
 1547POPC   C1B22291  13.330  10.454   8.833
 1547POPC   C2B22292  13.026  10.560   8.510
 1547POPC   C3B22293  13.176  10.508   8.080
 1547POPC   C4B22294  13.038  10.693   7.701
 1548POPC   NC322295  42.405  13.809   9.763
 1548POPC   PO422296  42.115  13.222   9.553
 1548POPC   GL122297  42.245  13.430   9.195
 1548POPC   GL222298  42.527  13.222   9.126
 1548POPC   C1A22299  42.110  13.627   8.803
 1548POPC   D2A22300  42.003  13.786   8.374
 1548POPC   C3A22301  42.102  13.636   7.966
 1548POPC   C4A22302  42.276  13.854   7.624
 1548POPC   C1B22303  42.572  13.364   8.681
 1548POPC   C2B22304  42.558  13.522   8.236
 1548POPC   C3B22305  42.540  13.413   7.789
 1548POPC   C4B22306  42.465  13.348   7.364
 1549POPC   NC322307  40.883  10.994   9.528
 1549POPC   PO422308  40.449  11.486   9.459
 1549POPC   GL122309  40.619  11.219   9.129
 1549POPC   GL222310  41.000  11.239   9.043
 1549POPC   C1A22311  40.653  11.375   8.690
 1549POPC   D2A22312  40.547  11.460   8.263
 1549POPC   C3A22313  40.677  11.125   7.977
 1549POPC   C4A22314  40.556  10.861   7.632
 1549POPC   C1B22315  41.136  11.561   8.675
 1549POPC   C2B22316  41.090  11.578   8.214
 1549POPC   C3B22317  41.139  11.329   7.821
 1549POPC   C4B22318  41.242  11.435   7.396
 1550POPC   NC322319  20.861  17.920   9.418
 1550POPC   PO422320  20.408  17.431   9.459
 1550POPC   GL122321  20.469  17.271   9.061
 1550POPC   GL222322  20.704  17.537   9.044
 1550POPC   C1A22323  20.578  17.241   8.647
 1550POPC   D2A22324  20.352  17.339   8.286
 1550POPC   C3A22325  20.599  17.334   7.891
 1550POPC   C4A22326  20.850  17.321   7.502
 1550POPC   C1B22327  20.711  17.840   8.728
 1550POPC   C2B22328  20.594  17.769   8.330
 1550POPC   C3B22329  20.706  17.829   7.936
 1550POPC   C4B22330  20.618  17.830   7.543
 1551POPC   NC322331  29.394  25.063   9.792
 1551POPC   PO422332  28.925  25.494   9.664
 1551POPC   GL122333  29.098  25.454   9.225
 1551POPC   GL222334  29.415  25.277   9.196
 1551POPC   C1A22335  29.240  25.513   8.765
 1551POPC   D2A22336  29.202  25.427   8.309
 1551POPC   C3A22337  28.944  25.120   8.074
 1551POPC   C4A22338  28.932  25.485   7.836
 1551POPC   C1B22339  29.509  25.059   8.758
 1551POPC   C2B22340  29.497  25.005   8.269
 1551POPC   C3B22341  29.375  25.155   7.820
 1551POPC   C4B22342  29.475  25.174   7.356
 1552POPC   NC322343   3.923  18.243   9.423
 1552POPC   PO422344   4.578  18.032   9.448
 1552POPC   GL122345   4.463  18.038   9.057
 1552POPC   GL222346   4.338  18.348   9.116
 1552POPC   C1A22347   4.214  18.079   8.673
 1552POPC   D2A22348   3.988  18.200   8.303
 1552POPC   C3A22349   4.310  18.282   8.003
 1552POPC   C4A22350   4.542  18.050   7.683
 1552POPC   C1B22351   4.589  18.555   8.827
 1552POPC   C2B22352   4.684  18.444   8.431
 1552POPC   C3B22353   4.645  18.672   8.058
 1552POPC   C4B22354   4.559  18.572   7.658
 1553POPC   NC322355   5.164  13.208   9.330
 1553POPC   PO422356   5.095  13.887   9.384
 1553POPC   GL122357   4.898  13.764   9.039
 1553POPC   GL222358   5.240  13.588   8.991
 1553POPC   C1A22359   4.898  13.646   8.605
 1553POPC   D2A22360   5.175  13.355   8.387
 1553POPC   C3A22361   5.238  13.404   7.935
 1553POPC   C4A22362   4.977  13.439   7.541
 1553POPC   C1B22363   5.286  13.967   8.732
 1553POPC   C2B22364   5.248  13.845   8.291
 1553POPC   C3B22365   5.423  13.938   7.940
 1553POPC   C4B22366   5.369  13.774   7.564
 1554POPC   NC322367  20.600  22.518   9.570
 1554POPC   PO422368  20.991  23.114   9.590
 1554POPC   GL122369  20.700  22.921   9.276
 1554POPC   GL222370  20.555  23.161   9.108
 1554POPC   C1A22371  20.536  22.710   8.874
 1554POPC   D2A22372  20.564  22.863   8.439
 1554POPC   C3A22373  20.514  22.742   8.003
 1554POPC   C4A22374  20.846  22.910   7.742
 1554POPC   C1B22375  20.427  23.263   8.720
 1554POPC   C2B22376  20.312  23.263   8.263
 1554POPC   C3B22377  20.422  23.228   7.810
 1554POPC   C4B22378  20.488  23.341   7.353
 1555POPC   NC322379  17.197  14.893   9.399
 1555POPC   PO422380  17.624  15.280   9.635
 1555POPC   GL122381  17.694  15.138   9.208
 1555POPC   GL222382  17.390  15.333   9.134
 1555POPC   C1A22383  17.570  15.042   8.761
 1555POPC   D2A22384  17.431  15.373   8.458
 1555POPC   C3A22385  17.340  15.304   8.038
 1555POPC   C4A22386  17.615  15.072   7.830
 1555POPC   C1B22387  17.086  15.200   8.794
 1555POPC   C2B22388  17.105  14.974   8.375
 1555POPC   C3B22389  17.154  14.837   7.935
 1555POPC   C4B22390  17.023  14.774   7.509
 1556POPC   NC322391  20.591  28.134   9.569
 1556POPC   PO422392  20.625  28.772   9.618
 1556POPC   GL122393  20.475  28.815   9.189
 1556POPC   GL222394  20.483  28.471   9.105
 1556POPC   C1A22395  20.569  28.826   8.726
 1556POPC   D2A22396  20.560  28.719   8.273
 1556POPC   C3A22397  20.883  28.524   7.990
 1556POPC   C4A22398  20.881  28.398   7.542
 1556POPC   C1B22399  20.434  28.347   8.662
 1556POPC   C2B22400  20.594  28.207   8.275
 1556POPC   C3B22401  20.353  28.336   7.944
 1556POPC   C4B22402  20.385  28.301   7.489
 1557POPC   NC322403  10.460  11.168   9.612
 1557POPC   PO422404  10.997  11.436   9.590
 1557POPC   GL122405  10.715  11.382   9.195
 1557POPC   GL222406  10.345  11.277   9.152
 1557POPC   C1A22407  10.600  11.394   8.748
 1557POPC   D2A22408  10.488  11.137   8.394
 1557POPC   C3A22409  10.603  11.331   8.018
 1557POPC   C4A22410  10.975  11.206   7.817
 1557POPC   C1B22411  10.168  11.082   8.816
 1557POPC   C2B22412   9.990  10.998   8.417
 1557POPC   C3B22413  10.088  10.960   7.965
 1557POPC   C4B22414  10.274  11.220   7.648
 1558POPC   NC322415   1.202  15.011   9.646
 1558POPC   PO422416   0.923  15.495   9.310
 1558POPC   GL122417   1.210  15.168   9.173
 1558POPC   GL222418   1.010  14.874   9.203
 1558POPC   C1A22419   1.361  14.955   8.818
 1558POPC   D2A22420   1.180  14.926   8.432
 1558POPC   C3A22421   1.360  15.115   8.082
 1558POPC   C4A22422   1.099  15.339   7.795
 1558POPC   C1B22423   0.810  14.834   8.814
 1558POPC   C2B22424   0.673  14.844   8.369
 1558POPC   C3B22425   0.873  14.923   7.954
 1558POPC   C4B22426   0.859  14.948   7.463
 1559POPC   NC322427  44.467  38.032   9.568
 1559POPC   PO422428  44.296  37.304   9.540
 1559POPC   GL122429  44.363  37.608   9.265
 1559POPC   GL222430  44.723  37.591   9.227
 1559POPC   C1A22431  44.377  37.844   8.897
 1559POPC   D2A22432  44.616  37.890   8.529
 1559POPC   C3A22433  44.443  37.801   8.133
 1559POPC   C4A22434  44.595  37.720   7.752
 1559POPC   C1B22435  44.828  37.443   8.783
 1559POPC   C2B22436  44.726  37.396   8.319
 1559POPC   C3B22437  44.953  37.349   7.894
 1559POPC   C4B22438  44.951  37.548   7.456
 1560POPC   NC322439  15.304  18.030   9.674
 1560POPC   PO422440  15.183  18.592   9.567
 1560POPC   GL122441  15.325  18.450   9.192
 1560POPC   GL222442  15.339  18.090   9.156
 1560POPC   C1A22443  15.438  18.608   8.799
 1560POPC   D2A22444  15.249  18.516   8.418
 1560POPC   C3A22445  15.383  18.619   8.059
 1560POPC   C4A22446  15.283  18.369   7.762
 1560POPC   C1B22447  15.054  18.215   8.787
 1560POPC   C2B22448  14.767  18.338   8.413
 1560POPC   C3B22449  14.754  18.340   7.946
 1560POPC   C4B22450  14.938  18.026   7.632
 1561POPC   NC322451  14.515  20.328   9.395
 1561POPC   PO422452  14.137  20.899   9.521
 1561POPC   GL122453  14.333  20.813   9.085
 1561POPC   GL222454  14.682  20.705   9.028
 1561POPC   C1A22455  14.439  20.849   8.616
 1561POPC   D2A22456  14.487  20.534   8.275
 1561POPC   C3A22457  14.211  20.607   7.933
 1561POPC   C4A22458  13.989  20.624   7.535
 1561POPC   C1B22459  14.821  20.355   8.744
 1561POPC   C2B22460  14.876  20.197   8.305
 1561POPC   C3B22461  14.841  20.342   7.889
 1561POPC   C4B22462  14.706  20.759   7.839
 1562POPC   NC322463  36.729   2.157   9.408
 1562POPC   PO422464  37.137   1.675   9.542
 1562POPC   GL122465  37.105   1.928   9.173
 1562POPC   GL222466  36.762   1.811   9.075
 1562POPC   C1A22467  36.957   2.147   8.783
 1562POPC   D2A22468  37.110   2.168   8.404
 1562POPC   C3A22469  36.901   2.062   8.063
 1562POPC   C4A22470  36.691   2.074   7.678
 1562POPC   C1B22471  36.609   1.600   8.758
 1562POPC   C2B22472  36.465   1.699   8.378
 1562POPC   C3B22473  36.625   1.657   7.983
 1562POPC   C4B22474  36.338   1.711   7.684
 1563POPC   NC322475  33.599  21.079   9.657
 1563POPC   PO422476  33.760  21.695   9.574
 1563POPC   GL122477  33.538  21.447   9.250
 1563POPC   GL222478  33.812  21.227   9.155
 1563POPC   C1A22479  33.501  21.504   8.778
 1563POPC   D2A22480  33.744  21.563   8.367
 1563POPC   C3A22481  33.591  21.507   7.936
 1563POPC   C4A22482  33.650  21.497   7.450
 1563POPC   C1B22483  33.910  21.185   8.678
 1563POPC   C2B22484  34.154  21.263   8.272
 1563POPC   C3B22485  34.071  21.325   7.823
 1563POPC   C4B22486  33.803  21.048   7.603
 1564POPC   NC322487  19.785  44.458   9.521
 1564POPC   PO422488  20.110   0.109   9.485
 1564POPC   GL122489  19.986  44.795   9.171
 1564POPC   GL222490  20.026  44.428   9.072
 1564POPC   C1A22491  19.715  44.793   8.817
 1564POPC   D2A22492  19.942  44.870   8.451
 1564POPC   C3A22493  19.810  44.813   7.993
 1564POPC   C4A22494  20.217  44.928   7.794
 1564POPC   C1B22495  20.027  44.408   8.663
 1564POPC   C2B22496  20.067  44.419   8.236
 1564POPC   C3B22497  20.049  44.372   7.837
 1564POPC   C4B22498  19.687  44.126   7.806
 1565POPC   NC322499  43.433  19.512   9.301
 1565POPC   PO422500  42.862  19.722   9.557
 1565POPC   GL122501  43.042  19.868   9.178
 1565POPC   GL222502  43.316  20.044   9.269
 1565POPC   C1A22503  43.110  19.775   8.722
 1565POPC   D2A22504  43.066  19.510   8.351
 1565POPC   C3A22505  43.072  19.735   7.964
 1565POPC   C4A22506  43.143  19.610   7.514
 1565POPC   C1B22507  43.365  20.205   8.854
 1565POPC   C2B22508  43.194  20.221   8.424
 1565POPC   C3B22509  43.218  20.221   7.972
 1565POPC   C4B22510  43.033  20.114   7.580
 1566POPC   NC322511  18.591  20.635   9.673
 1566POPC   PO422512  19.049  20.314   9.518
 1566POPC   GL122513  19.079  20.479   9.071
 1566POPC   GL222514  18.944  20.814   8.942
 1566POPC   C1A22515  19.065  20.489   8.606
 1566POPC   D2A22516  18.844  20.788   8.365
 1566POPC   C3A22517  18.967  20.738   7.960
 1566POPC   C4A22518  19.077  20.606   7.543
 1566POPC   C1B22519  19.283  20.943   8.667
 1566POPC   C2B22520  19.384  20.846   8.264
 1566POPC   C3B22521  19.391  21.058   7.879
 1566POPC   C4B22522  19.473  20.929   7.485
 1567POPC   NC322523  26.613  36.031   9.447
 1567POPC   PO422524  27.330  36.273   9.451
 1567POPC   GL122525  27.004  36.244   9.165
 1567POPC   GL222526  26.978  35.881   9.127
 1567POPC   C1A22527  26.896  36.213   8.737
 1567POPC   D2A22528  27.168  36.319   8.412
 1567POPC   C3A22529  26.881  36.276   8.090
 1567POPC   C4A22530  26.853  35.965   7.765
 1567POPC   C1B22531  26.642  35.757   8.805
 1567POPC   C2B22532  26.514  35.822   8.360
 1567POPC   C3B22533  26.576  35.582   7.969
 1567POPC   C4B22534  26.510  35.622   7.494
 1568POPC   NC322535  20.234  29.066   9.626
 1568POPC   PO422536  20.717  29.456   9.430
 1568POPC   GL122537  20.529  29.355   9.043
 1568POPC   GL222538  20.809  29.176   9.008
 1568POPC   C1A22539  20.556  29.326   8.572
 1568POPC   D2A22540  20.266  29.150   8.259
 1568POPC   C3A22541  20.478  29.084   7.936
 1568POPC   C4A22542  20.532  28.744   7.710
 1568POPC   C1B22543  21.021  29.065   8.669
 1568POPC   C2B22544  21.081  28.891   8.306
 1568POPC   C3B22545  20.987  29.039   7.934
 1568POPC   C4B22546  20.853  29.362   7.702
 1569POPC   NC322547   7.849  28.694   9.552
 1569POPC   PO422548   8.533  28.580   9.509
 1569POPC   GL122549   8.493  28.504   9.061
 1569POPC   GL222550   8.175  28.699   9.055
 1569POPC   C1A22551   8.428  28.631   8.603
 1569POPC   D2A22552   8.158  28.398   8.296
 1569POPC   C3A22553   8.106  28.525   7.877
 1569POPC   C4A22554   8.127  28.321   7.495
 1569POPC   C1B22555   7.913  28.692   8.666
 1569POPC   C2B22556   7.733  28.658   8.241
 1569POPC   C3B22557   7.610  28.409   7.878
 1569POPC   C4B22558   7.615  28.359   7.419
 1570POPC   NC322559  41.836  13.608   9.495
 1570POPC   PO422560  41.194  13.885   9.496
 1570POPC   GL122561  41.406  13.588   9.230
 1570POPC   GL222562  41.509  13.252   9.302
 1570POPC   C1A22563  41.612  13.768   8.885
 1570POPC   D2A22564  41.394  13.893   8.536
 1570POPC   C3A22565  41.547  13.819   8.126
 1570POPC   C4A22566  41.413  13.647   7.765
 1570POPC   C1B22567  41.666  13.268   8.891
 1570POPC   C2B22568  41.641  13.449   8.484
 1570POPC   C3B22569  41.731  13.305   8.066
 1570POPC   C4B22570  41.583  13.184   7.673
 1571POPC   NC322571  26.491  11.299   9.803
 1571POPC   PO422572  25.899  11.205   9.707
 1571POPC   GL122573  26.017  11.158   9.267
 1571POPC   GL222574  26.255  11.408   9.189
 1571POPC   C1A22575  26.085  11.093   8.822
 1571POPC   D2A22576  26.211  11.220   8.402
 1571POPC   C3A22577  26.001  11.082   8.032
 1571POPC   C4A22578  26.287  10.935   7.757
 1571POPC   C1B22579  26.159  11.608   8.802
 1571POPC   C2B22580  26.201  11.720   8.384
 1571POPC   C3B22581  26.219  11.540   7.969
 1571POPC   C4B22582  25.909  11.603   7.644
 1572POPC   NC322583  25.360  25.751   9.589
 1572POPC   PO422584  25.409  26.323   9.893
 1572POPC   GL122585  25.280  26.265   9.352
 1572POPC   GL222586  25.407  25.982   9.146
 1572POPC   C1A22587  25.360  26.345   8.833
 1572POPC   D2A22588  25.236  26.163   8.425
 1572POPC   C3A22589  25.360  26.144   8.024
 1572POPC   C4A22590  25.538  25.937   7.708
 1572POPC   C1B22591  25.521  25.836   8.747
 1572POPC   C2B22592  25.493  25.695   8.297
 1572POPC   C3B22593  25.341  25.495   7.888
 1572POPC   C4B22594  25.474  25.484   7.438
 1573POPC   NC322595  27.430   6.475   9.517
 1573POPC   PO422596  27.699   7.123   9.619
 1573POPC   GL122597  27.763   6.759   9.242
 1573POPC   GL222598  27.764   6.356   9.152
 1573POPC   C1A22599  27.724   6.754   8.789
 1573POPC   D2A22600  27.581   7.033   8.451
 1573POPC   C3A22601  27.712   6.939   8.005
 1573POPC   C4A22602  27.492   6.898   7.605
 1573POPC   C1B22603  27.873   6.254   8.712
 1573POPC   C2B22604  27.780   6.502   8.322
 1573POPC   C3B22605  27.578   6.440   7.883
 1573POPC   C4B22606  27.563   6.414   7.406
 1574POPC   NC322607  18.862  44.940   9.430
 1574POPC   PO422608  18.951   0.565   9.462
 1574POPC   GL122609  18.904   0.335   9.100
 1574POPC   GL222610  19.195   0.127   9.085
 1574POPC   C1A22611  18.905   0.176   8.675
 1574POPC   D2A22612  19.068   0.272   8.299
 1574POPC   C3A22613  18.784   0.303   7.988
 1574POPC   C4A22614  18.706   0.615   7.696
 1574POPC   C1B22615  19.432   0.224   8.738
 1574POPC   C2B22616  19.520   0.092   8.334
 1574POPC   C3B22617  19.485   0.272   7.940
 1574POPC   C4B22618  19.558   0.044   7.540
 1575POPC   NC322619  37.277   2.088   9.702
 1575POPC   PO422620  37.912   1.872   9.521
 1575POPC   GL122621  37.820   2.045   9.110
 1575POPC   GL222622  37.920   1.692   8.970
 1575POPC   C1A22623  37.484   2.038   8.773
 1575POPC   D2A22624  37.462   1.798   8.373
 1575POPC   C3A22625  37.435   2.074   8.016
 1575POPC   C4A22626  37.795   2.196   7.773
 1575POPC   C1B22627  37.791   1.465   8.594
 1575POPC   C2B22628  37.831   1.497   8.120
 1575POPC   C3B22629  37.630   1.684   7.747
 1575POPC   C4B22630  37.394   1.569   7.358
 1576POPC   NC322631   5.762   0.392   9.471
 1576POPC   PO422632   6.367   0.369   9.273
 1576POPC   GL122633   6.004   0.190   9.063
 1576POPC   GL222634   5.662   0.028   9.117
 1576POPC   C1A22635   5.849   0.530   8.813
 1576POPC   D2A22636   5.968   0.741   8.478
 1576POPC   C3A22637   6.073   0.493   8.150
 1576POPC   C4A22638   6.025   0.580   7.728
 1576POPC   C1B22639   5.478   0.198   8.768
 1576POPC   C2B22640   5.585   0.376   8.376
 1576POPC   C3B22641   5.602   0.400   7.962
 1576POPC   C4B22642   5.455   0.208   7.644
 1577POPC   NC322643  29.008  33.616   9.712
 1577POPC   PO422644  28.628  34.214   9.753
 1577POPC   GL122645  28.935  34.004   9.351
 1577POPC   GL222646  28.974  33.658   9.193
 1577POPC   C1A22647  29.172  34.012   8.878
 1577POPC   D2A22648  29.377  33.919   8.418
 1577POPC   C3A22649  29.301  33.727   7.967
 1577POPC   C4A22650  29.412  33.920   7.585
 1577POPC   C1B22651  28.787  33.695   8.747
 1577POPC   C2B22652  28.874  33.805   8.309
 1577POPC   C3B22653  28.789  33.752   7.856
 1577POPC   C4B22654  28.681  33.359   7.661
 1578POPC   NC322655   8.311  14.456   9.496
 1578POPC   PO422656   7.754  14.795   9.181
 1578POPC   GL122657   8.066  14.442   9.037
 1578POPC   GL222658   8.484  14.460   9.027
 1578POPC   C1A22659   7.917  14.360   8.633
 1578POPC   D2A22660   7.907  14.722   8.358
 1578POPC   C3A22661   7.987  14.602   7.949
 1578POPC   C4A22662   7.769  14.206   7.870
 1578POPC   C1B22663   8.385  14.174   8.675
 1578POPC   C2B22664   8.245  14.282   8.258
 1578POPC   C3B22665   8.298  14.205   7.823
 1578POPC   C4B22666   8.471  14.291   7.407
 1579POPC   NC322667  26.411  30.455   9.274
 1579POPC   PO422668  25.788  30.462   9.606
 1579POPC   GL122669  25.912  30.493   9.202
 1579POPC   GL222670  26.083  30.831   9.182
 1579POPC   C1A22671  25.936  30.372   8.790
 1579POPC   D2A22672  26.185  30.392   8.445
 1579POPC   C3A22673  25.977  30.346   8.036
 1579POPC   C4A22674  26.141  30.451   7.634
 1579POPC   C1B22675  26.148  30.852   8.722
 1579POPC   C2B22676  26.100  31.054   8.291
 1579POPC   C3B22677  26.202  30.900   7.890
 1579POPC   C4B22678  26.229  30.978   7.458
 1580POPC   NC322679   4.713  17.605   9.486
 1580POPC   PO422680   4.309  17.080   9.589
 1580POPC   GL122681   4.305  17.385   9.284
 1580POPC   GL222682   4.580  17.251   9.127
 1580POPC   C1A22683   4.244  17.602   8.897
 1580POPC   D2A22684   4.233  17.519   8.447
 1580POPC   C3A22685   4.220  17.777   8.086
 1580POPC   C4A22686   4.193  17.627   7.664
 1580POPC   C1B22687   4.811  17.102   8.768
 1580POPC   C2B22688   4.705  17.301   8.374
 1580POPC   C3B22689   4.448  17.227   8.026
 1580POPC   C4B22690   4.680  17.146   7.639
 1581POPC   NC322691   7.039  36.075   9.227
 1581POPC   PO422692   6.515  36.148   9.715
 1581POPC   GL122693   6.502  36.121   9.266
 1581POPC   GL222694   6.362  35.801   9.276
 1581POPC   C1A22695   6.537  36.242   8.800
 1581POPC   D2A22696   6.848  36.176   8.435
 1581POPC   C3A22697   6.752  36.379   8.007
 1581POPC   C4A22698   6.553  36.277   7.594
 1581POPC   C1B22699   6.358  35.741   8.829
 1581POPC   C2B22700   6.238  35.976   8.452
 1581POPC   C3B22701   6.389  36.031   8.041
 1581POPC   C4B22702   6.536  35.732   7.760
 1582POPC   NC322703  26.524  18.489   9.826
 1582POPC   PO422704  25.943  18.272   9.509
 1582POPC   GL122705  26.101  18.245   9.091
 1582POPC   GL222706  26.388  18.457   8.956
 1582POPC   C1A22707  25.918  18.178   8.689
 1582POPC   D2A22708  25.559  18.228   8.427
 1582POPC   C3A22709  25.675  18.353   8.014
 1582POPC   C4A22710  26.071  18.368   7.798
 1582POPC   C1B22711  26.038  18.668   8.748
 1582POPC   C2B22712  26.018  18.591   8.298
 1582POPC   C3B22713  26.203  18.821   7.960
 1582POPC   C4B22714  26.493  18.646   7.685
 1583POPC   NC322715  35.721  28.737   9.480
 1583POPC   PO422716  35.645  28.013   9.356
 1583POPC   GL122717  35.450  28.400   9.180
 1583POPC   GL222718  35.749  28.534   9.029
 1583POPC   C1A22719  35.312  28.675   8.807
 1583POPC   D2A22720  34.945  28.645   8.555
 1583POPC   C3A22721  34.975  28.700   8.135
 1583POPC   C4A22722  35.211  28.699   7.750
 1583POPC   C1B22723  35.603  28.237   8.717
 1583POPC   C2B22724  35.279  28.288   8.439
 1583POPC   C3B22725  35.285  28.290   8.032
 1583POPC   C4B22726  35.607  28.226   7.756
 1584POPC   NC322727  35.617   7.865   9.580
 1584POPC   PO422728  35.075   8.209   9.450
 1584POPC   GL122729  35.128   8.120   9.069
 1584POPC   GL222730  35.485   8.065   9.112
 1584POPC   C1A22731  35.010   8.278   8.711
 1584POPC   D2A22732  35.076   8.083   8.345
 1584POPC   C3A22733  35.202   8.268   7.963
 1584POPC   C4A22734  35.062   7.977   7.660
 1584POPC   C1B22735  35.514   8.210   8.664
 1584POPC   C2B22736  35.729   8.414   8.320
 1584POPC   C3B22737  35.727   8.328   7.884
 1584POPC   C4B22738  35.905   8.454   7.468
 1585POPC   NC322739  15.244   0.755   9.799
 1585POPC   PO422740  15.404   0.153   9.396
 1585POPC   GL122741  15.068   0.234   9.049
 1585POPC   GL222742  14.919   0.581   9.000
 1585POPC   C1A22743  15.008   0.259   8.632
 1585POPC   D2A22744  15.110   0.072   8.319
 1585POPC   C3A22745  14.950   0.274   8.049
 1585POPC   C4A22746  15.029   0.397   7.692
 1585POPC   C1B22747  15.210   0.735   8.674
 1585POPC   C2B22748  15.263   0.611   8.268
 1585POPC   C3B22749  15.342   0.763   7.862
 1585POPC   C4B22750  15.393   0.675   7.424
 1586POPC   NC322751   0.301  31.140   9.523
 1586POPC   PO422752   0.504  31.802   9.446
 1586POPC   GL122753   0.283  31.548   9.202
 1586POPC   GL222754   0.574  31.341   9.119
 1586POPC   C1A22755   0.101  31.421   8.832
 1586POPC   D2A22756   0.069  31.315   8.402
 1586POPC   C3A22757   0.331  31.590   8.158
 1586POPC   C4A22758   0.373  31.775   7.770
 1586POPC   C1B22759   0.482  31.099   8.748
 1586POPC   C2B22760   0.508  31.059   8.320
 1586POPC   C3B22761   0.282  31.126   7.942
 1586POPC   C4B22762   0.453  31.320   7.555
 1587POPC   NC322763  17.359  26.624   9.535
 1587POPC   PO422764  17.622  27.261   9.513
 1587POPC   GL122765  17.556  26.935   9.194
 1587POPC   GL222766  17.726  26.600   9.190
 1587POPC   C1A22767  17.335  26.822   8.844
 1587POPC   D2A22768  17.464  27.119   8.553
 1587POPC   C3A22769  17.488  26.973   8.150
 1587POPC   C4A22770  17.302  26.653   7.844
 1587POPC   C1B22771  17.835  26.702   8.786
 1587POPC   C2B22772  17.698  26.561   8.397
 1587POPC   C3B22773  17.829  26.642   7.967
 1587POPC   C4B22774  17.693  26.971   7.688
 1588POPC   NC322775   9.303  26.257   9.251
 1588POPC   PO422776   8.713  25.858   9.451
 1588POPC   GL122777   8.924  25.807   9.081
 1588POPC   GL222778   8.839  26.135   9.007
 1588POPC   C1A22779   9.170  25.885   8.707
 1588POPC   D2A22780   9.280  26.134   8.362
 1588POPC   C3A22781   9.101  26.007   7.972
 1588POPC   C4A22782   9.114  26.079   7.537
 1588POPC   C1B22783   8.678  26.006   8.589
 1588POPC   C2B22784   8.637  25.883   8.138
 1588POPC   C3B22785   8.650  26.100   7.743
 1588POPC   C4B22786   8.744  26.409   7.384
 1589POPC   NC322787  36.650  12.950   9.547
 1589POPC   PO422788  37.004  12.486   9.439
 1589POPC   GL122789  36.930  12.816   9.146
 1589POPC   GL222790  37.217  13.041   9.140
 1589POPC   C1A22791  36.681  12.976   8.818
 1589POPC   D2A22792  36.479  13.009   8.415
 1589POPC   C3A22793  36.646  12.808   8.069
 1589POPC   C4A22794  36.825  12.947   7.668
 1589POPC   C1B22795  37.278  12.776   8.787
 1589POPC   C2B22796  37.035  12.787   8.438
 1589POPC   C3B22797  37.149  12.749   8.024
 1589POPC   C4B22798  37.268  12.674   7.617
 1590POPC   NC322799  20.609  10.957   9.478
 1590POPC   PO422800  20.520  11.532   9.556
 1590POPC   GL122801  20.479  11.335   9.164
 1590POPC   GL222802  20.229  11.560   9.082
 1590POPC   C1A22803  20.676  11.043   8.816
 1590POPC   D2A22804  20.870  10.961   8.384
 1590POPC   C3A22805  20.681  11.031   7.974
 1590POPC   C4A22806  20.616  11.110   7.515
 1590POPC   C1B22807  20.332  11.400   8.665
 1590POPC   C2B22808  20.271  11.097   8.301
 1590POPC   C3B22809  20.208  11.192   7.827
 1590POPC   C4B22810  20.288  11.508   7.460
 1591POPC   NC322811  32.790   3.497   9.641
 1591POPC   PO422812  33.485   3.715   9.568
 1591POPC   GL122813  33.236   3.703   9.178
 1591POPC   GL222814  32.863   3.634   9.158
 1591POPC   C1A22815  33.300   3.553   8.746
 1591POPC   D2A22816  33.355   3.810   8.366
 1591POPC   C3A22817  33.186   3.672   7.950
 1591POPC   C4A22818  33.107   3.246   7.833
 1591POPC   C1B22819  32.854   3.821   8.743
 1591POPC   C2B22820  32.898   3.541   8.389
 1591POPC   C3B22821  32.691   3.504   8.021
 1591POPC   C4B22822  32.593   3.897   7.842
 1592POPC   NC322823  13.485  24.891   9.589
 1592POPC   PO422824  13.876  25.359   9.168
 1592POPC   GL122825  13.494  25.159   9.144
 1592POPC   GL222826  13.575  24.845   9.098
 1592POPC   C1A22827  13.317  25.189   8.739
 1592POPC   D2A22828  13.631  25.307   8.407
 1592POPC   C3A22829  13.612  25.393   7.956
 1592POPC   C4A22830  13.702  25.629   7.561
 1592POPC   C1B22831  13.737  24.872   8.696
 1592POPC   C2B22832  13.944  24.892   8.298
 1592POPC   C3B22833  13.872  24.886   7.863
 1592POPC   C4B22834  13.711  25.120   7.532
 1593POPC   NC322835   3.354  10.330   9.581
 1593POPC   PO422836   3.576  10.938   9.474
 1593POPC   GL122837   3.723  10.688   9.109
 1593POPC   GL222838   3.651  10.327   9.163
 1593POPC   C1A22839   3.731  10.534   8.677
 1593POPC   D2A22840   3.979  10.440   8.315
 1593POPC   C3A22841   3.681  10.459   8.007
 1593POPC   C4A22842   3.434  10.763   7.815
 1593POPC   C1B22843   3.736  10.026   8.844
 1593POPC   C2B22844   3.842   9.913   8.448
 1593POPC   C3B22845   3.952  10.017   8.035
 1593POPC   C4B22846   3.740  10.070   7.665
 1594POPC   NC322847   2.062   0.381   9.486
 1594POPC   PO422848   2.287   0.926   9.711
 1594POPC   GL122849   2.087   0.855   9.242
 1594POPC   GL222850   1.828   0.617   9.086
 1594POPC   C1A22851   2.069   0.907   8.743
 1594POPC   D2A22852   2.184   0.762   8.305
 1594POPC   C3A22853   1.963   0.557   7.934
 1594POPC   C4A22854   1.924   0.552   7.456
 1594POPC   C1B22855   2.113   0.388   8.798
 1594POPC   C2B22856   2.198   0.238   8.374
 1594POPC   C3B22857   2.266   0.157   7.936
 1594POPC   C4B22858   1.840   0.108   7.721
 1595POPC   NC322859  17.092  34.561   9.444
 1595POPC   PO422860  17.699  34.941   9.439
 1595POPC   GL122861  17.512  34.712   9.124
 1595POPC   GL222862  17.215  34.831   9.040
 1595POPC   C1A22863  17.667  34.621   8.717
 1595POPC   D2A22864  17.523  34.484   8.286
 1595POPC   C3A22865  17.578  34.671   7.900
 1595POPC   C4A22866  17.876  34.416   7.700
 1595POPC   C1B22867  17.181  34.587   8.659
 1595POPC   C2B22868  17.109  34.757   8.259
 1595POPC   C3B22869  17.034  34.642   7.861
 1595POPC   C4B22870  17.130  34.878   7.488
 1596POPC   NC322871  36.297  35.816   9.360
 1596POPC   PO422872  35.934  35.366   9.585
 1596POPC   GL122873  36.199  35.271   9.189
 1596POPC   GL222874  36.110  34.917   9.050
 1596POPC   C1A22875  36.296  35.325   8.759
 1596POPC   D2A22876  36.039  35.520   8.454
 1596POPC   C3A22877  36.175  35.504   8.045
 1596POPC   C4A22878  36.051  35.687   7.685
 1596POPC   C1B22879  36.119  34.868   8.632
 1596POPC   C2B22880  36.257  35.060   8.303
 1596POPC   C3B22881  36.375  35.039   7.897
 1596POPC   C4B22882  36.112  35.156   7.580
 1597POPC   NC322883  20.493  44.072   9.489
 1597POPC   PO422884  20.265  43.397   9.381
 1597POPC   GL122885  20.512  43.687   9.158
 1597POPC   GL222886  20.524  43.478   8.921
 1597POPC   C1A22887  20.663  43.939   8.777
 1597POPC   D2A22888  20.388  44.074   8.452
 1597POPC   C3A22889  20.484  44.183   8.052
 1597POPC   C4A22890  20.657  44.056   7.692
 1597POPC   C1B22891  20.906  43.485   8.698
 1597POPC   C2B22892  20.936  43.647   8.291
 1597POPC   C3B22893  20.562  43.671   8.041
 1597POPC   C4B22894  20.440  43.501   7.654
 1598POPC   NC322895  12.715  25.225   9.600
 1598POPC   PO422896  13.358  25.297   9.793
 1598POPC   GL122897  13.097  25.409   9.336
 1598POPC   GL222898  12.832  25.165   9.094
 1598POPC   C1A22899  12.986  25.565   8.896
 1598POPC   D2A22900  12.855  25.295   8.525
 1598POPC   C3A22901  13.128  25.321   8.158
 1598POPC   C4A22902  13.239  25.103   7.744
 1598POPC   C1B22903  12.513  25.002   8.779
 1598POPC   C2B22904  12.364  25.112   8.360
 1598POPC   C3B22905  12.499  24.974   7.989
 1598POPC   C4B22906  12.769  25.265   7.788
 1599POPC   NC322907  34.857  40.133   9.506
 1599POPC   PO422908  34.352  39.673   9.626
 1599POPC   GL122909  34.306  39.832   9.156
 1599POPC   GL222910  34.440  40.133   9.207
 1599POPC   C1A22911  34.390  39.970   8.720
 1599POPC   D2A22912  34.791  39.917   8.465
 1599POPC   C3A22913  34.643  39.919   8.042
 1599POPC   C4A22914  34.189  40.024   7.952
 1599POPC   C1B22915  34.739  40.281   8.872
 1599POPC   C2B22916  34.739  40.429   8.448
 1599POPC   C3B22917  35.028  40.282   8.150
 1599POPC   C4B22918  34.978  40.181   7.725
 1600POPC   NC322919  30.912  17.919   9.452
 1600POPC   PO422920  30.563  18.466   9.482
 1600POPC   GL122921  30.702  18.287   9.147
 1600POPC   GL222922  30.528  17.960   9.130
 1600POPC   C1A22923  30.831  18.489   8.797
 1600POPC   D2A22924  30.672  18.420   8.379
 1600POPC   C3A22925  30.905  18.366   8.011
 1600POPC   C4A22926  30.795  18.410   7.611
 1600POPC   C1B22927  30.703  18.012   8.719
 1600POPC   C2B22928  30.917  17.964   8.320
 1600POPC   C3B22929  30.715  17.899   7.902
 1600POPC   C4B22930  30.477  18.012   7.532
 1601POPC   NC322931  13.034  20.825   9.511
 1601POPC   PO422932  13.250  20.178   9.665
 1601POPC   GL122933  12.996  20.297   9.268
 1601POPC   GL222934  12.732  20.566   9.202
 1601POPC   C1A22935  12.971  20.329   8.813
 1601POPC   D2A22936  13.182  20.629   8.545
 1601POPC   C3A22937  13.150  20.674   8.086
 1601POPC   C4A22938  12.827  20.543   7.823
 1601POPC   C1B22939  12.798  20.860   8.860
 1601POPC   C2B22940  12.743  20.849   8.418
 1601POPC   C3B22941  12.739  21.003   8.015
 1601POPC   C4B22942  12.522  20.944   7.639
 1602POPC   NC322943  43.688   5.590   9.406
 1602POPC   PO422944  43.074   5.953   9.453
 1602POPC   GL122945  43.028   5.891   9.066
 1602POPC   GL222946  43.346   5.724   9.058
 1602POPC   C1A22947  42.889   5.970   8.671
 1602POPC   D2A22948  42.837   5.635   8.441
 1602POPC   C3A22949  42.935   5.704   8.086
 1602POPC   C4A22950  43.104   5.993   7.814
 1602POPC   C1B22951  43.304   5.688   8.645
 1602POPC   C2B22952  43.297   5.412   8.355
 1602POPC   C3B22953  43.399   5.541   7.971
 1602POPC   C4B22954  43.096   5.455   7.686
 1603POPC   NC322955  32.796  29.727   9.487
 1603POPC   PO422956  33.154  30.343   9.572
 1603POPC   GL122957  33.166  30.102   9.169
 1603POPC   GL222958  32.841  29.969   9.046
 1603POPC   C1A22959  33.330  29.877   8.798
 1603POPC   D2A22960  33.272  29.625   8.452
 1603POPC   C3A22961  33.109  29.870   8.113
 1603POPC   C4A22962  32.855  30.127   7.815
 1603POPC   C1B22963  32.800  29.677   8.690
 1603POPC   C2B22964  32.779  29.502   8.266
 1603POPC   C3B22965  32.623  29.690   7.864
 1603POPC   C4B22966  32.779  29.819   7.421
 1604POPC   NC322967  17.177  27.328   9.622
 1604POPC   PO422968  17.524  27.847   9.745
 1604POPC   GL122969  17.471  27.694   9.254
 1604POPC   GL222970  17.308  27.389   9.098
 1604POPC   C1A22971  17.721  27.576   8.832
 1604POPC   D2A22972  17.703  27.539   8.340
 1604POPC   C3A22973  17.506  27.812   8.025
 1604POPC   C4A22974  17.452  27.823   7.558
 1604POPC   C1B22975  17.247  27.598   8.674
 1604POPC   C2B22976  17.195  27.448   8.252
 1604POPC   C3B22977  17.367  27.358   7.839
 1604POPC   C4B22978  17.287  27.200   7.443
 1605POPC   NC322979  12.059   4.044   9.559
 1605POPC   PO422980  12.136   4.701   9.616
 1605POPC   GL122981  12.231   4.474   9.218
 1605POPC   GL222982  11.939   4.388   9.035
 1605POPC   C1A22983  12.377   4.259   8.816
 1605POPC   D2A22984  12.356   3.964   8.486
 1605POPC   C3A22985  12.281   4.109   8.082
 1605POPC   C4A22986  12.204   3.905   7.702
 1605POPC   C1B22987  12.000   4.424   8.544
 1605POPC   C2B22988  11.775   4.228   8.235
 1605POPC   C3B22989  11.742   4.035   7.882
 1605POPC   C4B22990  11.795   4.083   7.447
 1606POPC   NC322991  13.157   7.165   9.413
 1606POPC   PO422992  12.824   7.727   9.484
 1606POPC   GL122993  12.661   7.678   9.094
 1606POPC   GL222994  12.723   7.340   9.144
 1606POPC   C1A22995  12.766   7.517   8.674
 1606POPC   D2A22996  13.093   7.549   8.372
 1606POPC   C3A22997  13.020   7.522   7.936
 1606POPC   C4A22998  12.716   7.630   7.606
 1606POPC   C1B22999  12.837   7.015   8.849
 1606POPC   C2B23000  12.754   7.031   8.438
 1606POPC   C3B23001  12.570   7.005   8.079
 1606POPC   C4B23002  12.857   7.073   7.755
 1607POPC   NC323003  41.531   7.809   9.745
 1607POPC   PO423004  41.256   8.387   9.550
 1607POPC   GL123005  41.447   8.336   9.163
 1607POPC   GL223006  41.800   8.350   9.088
 1607POPC   C1A23007  41.462   8.184   8.761
 1607POPC   D2A23008  41.483   7.979   8.411
 1607POPC   C3A23009  41.542   8.238   8.081
 1607POPC   C4A23010  41.533   8.096   7.680
 1607POPC   C1B23011  41.839   8.631   8.790
 1607POPC   C2B23012  41.837   8.472   8.416
 1607POPC   C3B23013  41.860   8.606   7.989
 1607POPC   C4B23014  41.789   8.495   7.508
 1608POPC   NC323015  37.452   2.848   9.410
 1608POPC   PO423016  38.180   2.674   9.340
 1608POPC   GL123017  37.819   2.759   9.070
 1608POPC   GL223018  37.512   2.512   9.026
 1608POPC   C1A23019  37.630   2.881   8.679
 1608POPC   D2A23020  37.741   3.059   8.288
 1608POPC   C3A23021  37.456   3.006   7.970
 1608POPC   C4A23022  37.488   3.103   7.581
 1608POPC   C1B23023  37.190   2.605   8.696
 1608POPC   C2B23024  37.205   2.641   8.259
 1608POPC   C3B23025  37.609   2.551   8.091
 1608POPC   C4B23026  37.856   2.767   7.786
 1609POPC   NC323027  17.329  10.499   9.848
 1609POPC   PO423028  17.801  10.756   9.405
 1609POPC   GL123029  17.544  10.597   9.161
 1609POPC   GL223030  17.254  10.471   9.261
 1609POPC   C1A23031  17.540  10.381   8.823
 1609POPC   D2A23032  17.695  10.323   8.452
 1609POPC   C3A23033  17.475  10.459   8.094
 1609POPC   C4A23034  17.449  10.283   7.712
 1609POPC   C1B23035  17.099  10.626   8.859
 1609POPC   C2B23036  17.304  10.737   8.477
 1609POPC   C3B23037  17.174  10.865   8.057
 1609POPC   C4B23038  17.338  10.775   7.659
 1610POPC   NC323039   4.684   3.560   9.531
 1610POPC   PO423040   5.358   3.318   9.555
 1610POPC   GL123041   5.082   3.505   9.208
 1610POPC   GL223042   4.775   3.369   9.073
 1610POPC   C1A23043   5.102   3.648   8.771
 1610POPC   D2A23044   5.311   3.782   8.401
 1610POPC   C3A23045   5.287   3.556   8.051
 1610POPC   C4A23046   5.414   3.323   7.734
 1610POPC   C1B23047   4.730   3.256   8.654
 1610POPC   C2B23048   4.855   3.530   8.317
 1610POPC   C3B23049   4.718   3.517   7.884
 1610POPC   C4B23050   4.926   3.566   7.466
 1611POPC   NC323051  26.449  20.918   9.220
 1611POPC   PO423052  26.125  21.460   9.525
 1611POPC   GL123053  26.047  21.618   9.129
 1611POPC   GL223054  26.178  21.298   9.015
 1611POPC   C1A23055  26.196  21.691   8.709
 1611POPC   D2A23056  26.132  21.433   8.379
 1611POPC   C3A23057  26.016  21.646   8.039
 1611POPC   C4A23058  26.139  21.595   7.630
 1611POPC   C1B23059  25.875  21.151   8.733
 1611POPC   C2B23060  25.785  20.848   8.401
 1611POPC   C3B23061  25.603  20.974   8.014
 1611POPC   C4B23062  25.674  21.358   7.766
 1612POPC   NC323063  37.924  42.949   9.427
 1612POPC   PO423064  37.424  43.403   9.427
 1612POPC   GL123065  37.552  43.129   9.123
 1612POPC   GL223066  37.794  43.366   9.054
 1612POPC   C1A23067  37.658  42.999   8.727
 1612POPC   D2A23068  37.666  43.255   8.395
 1612POPC   C3A23069  37.597  43.166   7.979
 1612POPC   C4A23070  37.538  42.791   7.788
 1612POPC   C1B23071  38.079  43.324   8.737
 1612POPC   C2B23072  38.117  42.994   8.474
 1612POPC   C3B23073  37.960  42.821   8.114
 1612POPC   C4B23074  38.027  42.977   7.722
 1613POPC   NC323075  12.383  22.688   9.627
 1613POPC   PO423076  12.068  23.236   9.473
 1613POPC   GL123077  11.998  23.041   9.124
 1613POPC   GL223078  11.765  22.803   9.226
 1613POPC   C1A23079  12.069  23.001   8.698
 1613POPC   D2A23080  11.975  22.776   8.346
 1613POPC   C3A23081  12.054  23.057   8.021
 1613POPC   C4A23082  12.321  23.007   7.638
 1613POPC   C1B23083  11.619  22.746   8.789
 1613POPC   C2B23084  11.514  22.565   8.391
 1613POPC   C3B23085  11.642  22.621   7.958
 1613POPC   C4B23086  11.848  22.841   7.616
 1614POPC   NC323087  35.906  26.503   9.343
 1614POPC   PO423088  36.377  26.929   9.475
 1614POPC   GL123089  36.182  26.886   9.088
 1614POPC   GL223090  35.942  27.129   8.911
 1614POPC   C1A23091  36.332  26.890   8.688
 1614POPC   D2A23092  36.126  27.071   8.350
 1614POPC   C3A23093  36.367  26.959   8.020
 1614POPC   C4A23094  36.335  26.704   7.673
 1614POPC   C1B23095  35.771  26.769   8.682
 1614POPC   C2B23096  35.624  26.550   8.321
 1614POPC   C3B23097  35.915  26.709   8.025
 1614POPC   C4B23098  35.950  27.038   7.717
 1615POPC   NC323099  39.920  39.132   9.790
 1615POPC   PO423100  39.892  39.309   9.224
 1615POPC   GL123101  39.986  39.030   8.931
 1615POPC   GL223102  40.331  39.033   8.902
 1615POPC   C1A23103  39.865  38.981   8.521
 1615POPC   D2A23104  39.575  39.266   8.328
 1615POPC   C3A23105  39.754  39.274   7.928
 1615POPC   C4A23106  40.168  39.097   7.878
 1615POPC   C1B23107  40.346  39.441   8.699
 1615POPC   C2B23108  40.333  39.428   8.255
 1615POPC   C3B23109  40.164  39.624   7.890
 1615POPC   C4B23110  40.050  39.477   7.521
 1616POPC   NC323111  17.345  11.956   9.594
 1616POPC   PO423112  17.851  12.383   9.462
 1616POPC   GL123113  17.704  12.058   9.215
 1616POPC   GL223114  17.376  12.222   9.168
 1616POPC   C1A23115  17.641  12.008   8.779
 1616POPC   D2A23116  17.704  12.261   8.426
 1616POPC   C3A23117  17.688  12.044   8.046
 1616POPC   C4A23118  17.614  12.209   7.658
 1616POPC   C1B23119  17.143  12.234   8.787
 1616POPC   C2B23120  17.223  12.045   8.395
 1616POPC   C3B23121  17.200  12.202   7.980
 1616POPC   C4B23122  17.233  11.864   7.730
 1617POPC   NC323123   2.133  19.421   9.377
 1617POPC   PO423124   1.659  19.047   9.387
 1617POPC   GL123125   1.894  18.816   9.110
 1617POPC   GL223126   2.149  19.052   8.998
 1617POPC   C1A23127   1.940  18.624   8.732
 1617POPC   D2A23128   1.765  18.680   8.356
 1617POPC   C3A23129   1.964  18.712   7.971
 1617POPC   C4A23130   2.236  18.950   7.747
 1617POPC   C1B23131   1.868  19.123   8.681
 1617POPC   C2B23132   1.856  19.194   8.281
 1617POPC   C3B23133   1.738  19.439   7.988
 1617POPC   C4B23134   1.810  19.417   7.576
 1618POPC   NC323135  32.445   8.888   9.498
 1618POPC   PO423136  31.868   9.453   9.513
 1618POPC   GL123137  32.085   9.135   9.232
 1618POPC   GL223138  32.436   9.219   9.113
 1618POPC   C1A23139  32.184   8.826   8.864
 1618POPC   D2A23140  32.405   8.895   8.473
 1618POPC   C3A23141  32.189   8.790   8.067
 1618POPC   C4A23142  32.343   8.921   7.661
 1618POPC   C1B23143  32.114   9.316   8.778
 1618POPC   C2B23144  31.964   9.127   8.433
 1618POPC   C3B23145  31.850   9.218   8.045
 1618POPC   C4B23146  31.844   8.956   7.699
 1619POPC   NC323147   9.321  12.365   9.568
 1619POPC   PO423148   9.095  11.744   9.438
 1619POPC   GL123149   9.213  12.027   9.130
 1619POPC   GL223150   9.165  12.411   9.094
 1619POPC   C1A23151   9.180  12.096   8.718
 1619POPC   D2A23152   8.938  12.089   8.427
 1619POPC   C3A23153   9.099  12.038   8.048
 1619POPC   C4A23154   9.086  11.849   7.689
 1619POPC   C1B23155   8.792  12.419   8.833
 1619POPC   C2B23156   8.655  12.520   8.441
 1619POPC   C3B23157   8.961  12.532   8.129
 1619POPC   C4B23158   8.829  12.361   7.767
 1620POPC   NC323159  41.047  42.964   9.499
 1620POPC   PO423160  40.371  43.172   9.531
 1620POPC   GL123161  40.608  43.063   9.192
 1620POPC   GL223162  40.736  43.428   9.214
 1620POPC   C1A23163  40.481  43.037   8.744
 1620POPC   D2A23164  40.496  43.368   8.411
 1620POPC   C3A23165  40.604  43.131   8.032
 1620POPC   C4A23166  40.894  42.817   7.847
 1620POPC   C1B23167  40.939  43.254   8.861
 1620POPC   C2B23168  40.934  43.064   8.472
 1620POPC   C3B23169  41.149  43.176   8.118
 1620POPC   C4B23170  40.982  43.313   7.725
 1621POPC   NC323171  32.744  10.398   9.579
 1621POPC   PO423172  33.197  10.790   9.259
 1621POPC   GL123173  32.891  10.699   8.992
 1621POPC   GL223174  32.890  10.404   9.026
 1621POPC   C1A23175  32.787  10.886   8.599
 1621POPC   D2A23176  32.879  10.834   8.190
 1621POPC   C3A23177  33.090  10.505   8.017
 1621POPC   C4A23178  33.226  10.676   7.601
 1621POPC   C1B23179  32.952  10.370   8.583
 1621POPC   C2B23180  32.629  10.403   8.300
 1621POPC   C3B23181  32.648  10.187   7.926
 1621POPC   C4B23182  32.939  10.262   7.593
 1622POPC   NC323183  12.275  44.333   9.321
 1622POPC   PO423184  12.245  43.670   9.517
 1622POPC   GL123185  12.054  43.876   9.203
 1622POPC   GL223186  11.782  44.113   9.265
 1622POPC   C1A23187  12.150  43.887   8.792
 1622POPC   D2A23188  11.993  43.674   8.463
 1622POPC   C3A23189  12.127  43.784   8.029
 1622POPC   C4A23190  12.173  44.037   7.640
 1622POPC   C1B23191  11.752  44.236   8.808
 1622POPC   C2B23192  11.925  44.163   8.394
 1622POPC   C3B23193  11.855  44.279   7.979
 1622POPC   C4B23194  11.770  44.346   7.528
 1623POPC   NC323195  36.432  44.592   9.632
 1623POPC   PO423196  35.794  44.505   9.463
 1623POPC   GL123197  36.077  44.614   9.177
 1623POPC   GL223198  36.066  44.993   9.252
 1623POPC   C1A23199  35.932  44.442   8.770
 1623POPC   D2A23200  36.107  44.303   8.387
 1623POPC   C3A23201  36.208  44.494   7.996
 1623POPC   C4A23202  36.208  44.355   7.558
 1623POPC   C1B23203  35.876  44.946   8.830
 1623POPC   C2B23204  36.164  44.841   8.479
 1623POPC   C3B23205  36.088  44.980   8.072
 1623POPC   C4B23206  36.190  44.903   7.645
 1624POPC   NC323207  22.108  42.268   9.513
 1624POPC   PO423208  22.710  42.430   9.648
 1624POPC   GL123209  22.432  42.524   9.247
 1624POPC   GL223210  22.465  42.193   9.139
 1624POPC   C1A23211  22.164  42.430   8.836
 1624POPC   D2A23212  22.264  42.254   8.410
 1624POPC   C3A23213  22.135  42.262   7.962
 1624POPC   C4A23214  22.259  42.551   7.665
 1624POPC   C1B23215  22.581  42.004   8.757
 1624POPC   C2B23216  22.512  41.812   8.357
 1624POPC   C3B23217  22.590  41.975   7.919
 1624POPC   C4B23218  22.480  42.138   7.500
 1625POPC   NC323219  38.906  28.792   9.529
 1625POPC   PO423220  38.499  29.333   9.543
 1625POPC   GL123221  38.535  29.066   9.212
 1625POPC   GL223222  38.856  29.160   9.169
 1625POPC   C1A23223  38.368  29.172   8.804
 1625POPC   D2A23224  38.062  29.227   8.445
 1625POPC   C3A23225  38.223  29.274   8.005
 1625POPC   C4A23226  38.076  28.982   7.660
 1625POPC   C1B23227  38.807  28.881   8.810
 1625POPC   C2B23228  38.657  29.055   8.408
 1625POPC   C3B23229  38.697  29.090   7.985
 1625POPC   C4B23230  38.745  28.678   7.760
 1626POPC   NC323231  31.997  40.747   9.862
 1626POPC   PO423232  31.932  41.145   9.326
 1626POPC   GL123233  32.099  40.870   8.966
 1626POPC   GL223234  32.309  40.530   9.006
 1626POPC   C1A23235  32.249  40.839   8.588
 1626POPC   D2A23236  32.118  40.773   8.198
 1626POPC   C3A23237  32.109  40.979   7.813
 1626POPC   C4A23238  32.391  40.941   7.456
 1626POPC   C1B23239  31.978  40.384   8.752
 1626POPC   C2B23240  31.809  40.391   8.332
 1626POPC   C3B23241  32.015  40.358   7.931
 1626POPC   C4B23242  32.078  40.565   7.551
 1627POPC   NC323243  39.814   2.513   9.479
 1627POPC   PO423244  40.301   2.996   9.415
 1627POPC   GL123245  40.020   2.926   9.108
 1627POPC   GL223246  40.064   2.594   9.055
 1627POPC   C1A23247  40.079   2.892   8.660
 1627POPC   D2A23248  39.905   2.662   8.353
 1627POPC   C3A23249  39.795   2.954   8.058
 1627POPC   C4A23250  39.837   2.789   7.685
 1627POPC   C1B23251  40.070   2.325   8.714
 1627POPC   C2B23252  40.062   2.159   8.311
 1627POPC   C3B23253  39.932   2.311   7.913
 1627POPC   C4B23254  40.168   2.441   7.517
 1628POPC   NC323255  17.311  35.149   9.535
 1628POPC   PO423256  17.275  35.854   9.540
 1628POPC   GL123257  17.397  35.564   9.212
 1628POPC   GL223258  17.567  35.835   9.096
 1628POPC   C1A23259  17.506  35.235   8.881
 1628POPC   D2A23260  17.437  35.072   8.465
 1628POPC   C3A23261  17.655  35.153   8.058
 1628POPC   C4A23262  17.518  35.165   7.621
 1628POPC   C1B23263  17.426  35.721   8.696
 1628POPC   C2B23264  17.303  35.579   8.288
 1628POPC   C3B23265  17.389  35.586   7.845
 1628POPC   C4B23266  17.526  35.680   7.409
 1629POPC   NC323267   1.421  36.704   9.483
 1629POPC   PO423268   0.906  37.214   9.628
 1629POPC   GL123269   1.212  37.138   9.338
 1629POPC   GL223270   1.021  36.877   9.182
 1629POPC   C1A23271   1.390  37.109   8.909
 1629POPC   D2A23272   1.166  36.923   8.560
 1629POPC   C3A23273   1.322  37.051   8.173
 1629POPC   C4A23274   1.273  36.914   7.775
 1629POPC   C1B23275   0.895  36.601   8.859
 1629POPC   C2B23276   0.831  36.497   8.417
 1629POPC   C3B23277   1.007  36.455   7.984
 1629POPC   C4B23278   0.840  36.530   7.638
 1630POPC   NC323279  44.631  38.865   9.533
 1630POPC   PO423280  44.925  38.201   9.588
 1630POPC   GL123281  44.699  38.415   9.265
 1630POPC   GL223282  44.865  38.722   9.111
 1630POPC   C1A23283  44.763  38.277   8.857
 1630POPC   D2A23284  44.674  38.417   8.458
 1630POPC   C3A23285  44.831  38.173   8.145
 1630POPC   C4A23286  44.562  38.234   7.868
 1630POPC   C1B23287   0.006  38.735   8.689
 1630POPC   C2B23288   0.069  38.697   8.236
 1630POPC   C3B23289  44.739  38.687   7.996
 1630POPC   C4B23290  44.331  38.640   8.133
 1631POPC   NC323291  34.411  36.205   9.511
 1631POPC   PO423292  34.235  35.613   9.235
 1631POPC   GL123293  34.426  35.798   8.893
 1631POPC   GL223294  34.528  36.100   9.033
 1631POPC   C1A23295  34.826  35.892   8.693
 1631POPC   D2A23296  34.910  36.115   8.305
 1631POPC   C3A23297  34.837  35.814   7.998
 1631POPC   C4A23298  34.571  35.684   7.675
 1631POPC   C1B23299  34.490  36.262   8.630
 1631POPC   C2B23300  34.289  36.337   8.250
 1631POPC   C3B23301  34.585  36.281   7.912
 1631POPC   C4B23302  34.547  36.178   7.521
 1632POPC   NC323303  32.652   9.676   9.514
 1632POPC   PO423304  33.148  10.156   9.569
 1632POPC   GL123305  32.981   9.936   9.223
 1632POPC   GL223306  32.629  10.015   9.160
 1632POPC   C1A23307  32.989   9.863   8.794
 1632POPC   D2A23308  33.295   9.918   8.494
 1632POPC   C3A23309  33.102  10.011   8.111
 1632POPC   C4A23310  33.259   9.882   7.717
 1632POPC   C1B23311  32.522  10.138   8.767
 1632POPC   C2B23312  32.633   9.906   8.396
 1632POPC   C3B23313  32.745   9.643   8.066
 1632POPC   C4B23314  32.776   9.767   7.663
 1633POPC   NC323315   7.686  19.282   9.852
 1633POPC   PO423316   8.175  18.907   9.481
 1633POPC   GL123317   8.230  19.218   9.149
 1633POPC   GL223318   8.096  18.952   8.991
 1633POPC   C1A23319   8.369  19.209   8.686
 1633POPC   D2A23320   8.518  19.066   8.291
 1633POPC   C3A23321   8.476  19.239   7.902
 1633POPC   C4A23322   8.147  19.452   7.710
 1633POPC   C1B23323   7.860  19.090   8.656
 1633POPC   C2B23324   7.996  19.240   8.272
 1633POPC   C3B23325   8.064  18.946   8.000
 1633POPC   C4B23326   8.114  18.923   7.628
 1634POPC   NC323327  34.445  38.115   9.323
 1634POPC   PO423328  34.581  37.409   9.456
 1634POPC   GL123329  34.493  37.633   9.119
 1634POPC   GL223330  34.159  37.699   9.196
 1634POPC   C1A23331  34.728  37.784   8.760
 1634POPC   D2A23332  34.785  37.585   8.372
 1634POPC   C3A23333  34.742  37.790   7.960
 1634POPC   C4A23334  34.595  37.928   7.521
 1634POPC   C1B23335  34.203  37.904   8.773
 1634POPC   C2B23336  34.363  37.850   8.361
 1634POPC   C3B23337  34.235  37.727   7.936
 1634POPC   C4B23338  34.380  37.482   7.568
 1635POPC   NC323339  23.934  10.971   9.521
 1635POPC   PO423340  23.606  11.553   9.577
 1635POPC   GL123341  23.507  11.379   9.157
 1635POPC   GL223342  23.777  11.173   9.089
 1635POPC   C1A23343  23.425  11.517   8.710
 1635POPC   D2A23344  23.515  11.433   8.256
 1635POPC   C3A23345  23.244  11.444   7.863
 1635POPC   C4A23346  23.358  11.618   7.392
 1635POPC   C1B23347  24.099  11.083   8.827
 1635POPC   C2B23348  24.207  11.235   8.448
 1635POPC   C3B23349  23.984  11.228   8.094
 1635POPC   C4B23350  24.118  11.241   7.695
 1636POPC   NC323351   4.353  11.790   9.358
 1636POPC   PO423352   4.023  12.389   9.343
 1636POPC   GL123353   4.353  12.230   9.076
 1636POPC   GL223354   4.662  12.289   9.246
 1636POPC   C1A23355   4.372  11.953   8.704
 1636POPC   D2A23356   4.133  12.015   8.354
 1636POPC   C3A23357   4.184  11.831   7.963
 1636POPC   C4A23358   4.149  11.816   7.509
 1636POPC   C1B23359   4.756  12.292   8.775
 1636POPC   C2B23360   4.551  12.446   8.378
 1636POPC   C3B23361   4.341  12.318   7.981
 1636POPC   C4B23362   4.463  12.239   7.541
 1637POPC   NC323363   4.668  10.153   9.694
 1637POPC   PO423364   4.379   9.627   9.559
 1637POPC   GL123365   4.484   9.805   9.180
 1637POPC   GL223366   4.782  10.016   9.195
 1637POPC   C1A23367   4.209   9.744   8.817
 1637POPC   D2A23368   4.157   9.470   8.483
 1637POPC   C3A23369   4.264   9.625   8.091
 1637POPC   C4A23370   4.259   9.841   7.663
 1637POPC   C1B23371   4.620  10.050   8.767
 1637POPC   C2B23372   4.347  10.020   8.418
 1637POPC   C3B23373   4.478  10.111   8.057
 1637POPC   C4B23374   4.743  10.014   7.751
 1638POPC   NC323375   4.061  28.469   9.607
 1638POPC   PO423376   4.613  28.751   9.622
 1638POPC   GL123377   4.465  28.463   9.252
 1638POPC   GL223378   4.210  28.173   9.214
 1638POPC   C1A23379   4.505  28.274   8.815
 1638POPC   D2A23380   4.316  28.341   8.396
 1638POPC   C3A23381   4.521  28.243   7.984
 1638POPC   C4A23382   4.378  28.073   7.576
 1638POPC   C1B23383   3.989  28.217   8.798
 1638POPC   C2B23384   3.878  28.065   8.393
 1638POPC   C3B23385   4.001  28.204   7.998
 1638POPC   C4B23386   3.883  28.207   7.611
 1639POPC   NC323387  33.231  13.951   9.738
 1639POPC   PO423388  33.073  14.624   9.743
 1639POPC   GL123389  33.103  14.488   9.246
 1639POPC   GL223390  33.077  14.133   9.245
 1639POPC   C1A23391  33.268  14.568   8.806
 1639POPC   D2A23392  33.090  14.593   8.376
 1639POPC   C3A23393  33.090  14.481   7.943
 1639POPC   C4A23394  33.284  14.800   7.695
 1639POPC   C1B23395  33.012  14.129   8.812
 1639POPC   C2B23396  33.304  14.132   8.482
 1639POPC   C3B23397  33.213  13.996   8.094
 1639POPC   C4B23398  32.791  13.904   7.918
 1640POPC   NC323399   5.898  31.273   9.533
 1640POPC   PO423400   5.909  30.641   9.699
 1640POPC   GL123401   5.869  30.777   9.251
 1640POPC   GL223402   5.617  31.048   9.179
 1640POPC   C1A23403   6.025  30.598   8.844
 1640POPC   D2A23404   5.853  30.661   8.435
 1640POPC   C3A23405   5.885  30.395   8.090
 1640POPC   C4A23406   5.820  30.486   7.686
 1640POPC   C1B23407   5.813  31.090   8.780
 1640POPC   C2B23408   5.715  31.149   8.352
 1640POPC   C3B23409   5.714  30.914   7.966
 1640POPC   C4B23410   5.682  30.987   7.497
 1641POPC   NC323411  24.653   2.528   9.440
 1641POPC   PO423412  24.176   3.033   9.481
 1641POPC   GL123413  24.396   2.896   9.132
 1641POPC   GL223414  24.262   2.562   9.099
 1641POPC   C1A23415  24.618   2.862   8.727
 1641POPC   D2A23416  24.800   3.137   8.402
 1641POPC   C3A23417  24.711   2.985   8.039
 1641POPC   C4A23418  24.381   2.889   7.752
 1641POPC   C1B23419  24.258   2.474   8.668
 1641POPC   C2B23420  24.323   2.724   8.295
 1641POPC   C3B23421  24.324   2.420   7.976
 1641POPC   C4B23422  23.981   2.313   7.688
 1642POPC   NC323423  13.227   2.498   9.439
 1642POPC   PO423424  12.751   3.025   9.471
 1642POPC   GL123425  12.926   2.804   9.146
 1642POPC   GL223426  12.651   2.630   9.010
 1642POPC   C1A23427  13.088   2.670   8.745
 1642POPC   D2A23428  13.257   2.713   8.343
 1642POPC   C3A23429  13.013   2.602   8.024
 1642POPC   C4A23430  12.778   2.698   7.665
 1642POPC   C1B23431  12.661   3.051   8.783
 1642POPC   C2B23432  12.477   3.121   8.377
 1642POPC   C3B23433  12.694   3.081   8.007
 1642POPC   C4B23434  12.798   3.385   7.731
 1643POPC   NC323435  24.256  18.876   9.498
 1643POPC   PO423436  24.318  19.490   9.601
 1643POPC   GL123437  24.303  19.261   9.173
 1643POPC   GL223438  24.586  19.331   9.041
 1643POPC   C1A23439  24.331  19.061   8.709
 1643POPC   D2A23440  24.623  19.037   8.307
 1643POPC   C3A23441  24.404  18.970   7.881
 1643POPC   C4A23442  24.448  18.950   7.417
 1643POPC   C1B23443  24.684  19.422   8.679
 1643POPC   C2B23444  24.552  19.540   8.306
 1643POPC   C3B23445  24.613  19.440   7.894
 1643POPC   C4B23446  24.558  19.456   7.464
 1644POPC   NC323447  12.526   9.982   9.579
 1644POPC   PO423448  12.823   9.309   9.589
 1644POPC   GL123449  12.653   9.585   9.257
 1644POPC   GL223450  12.868   9.870   9.197
 1644POPC   C1A23451  12.592   9.712   8.817
 1644POPC   D2A23452  12.364   9.777   8.453
 1644POPC   C3A23453  12.607   9.678   8.112
 1644POPC   C4A23454  12.798   9.741   7.700
 1644POPC   C1B23455  12.989  10.078   8.838
 1644POPC   C2B23456  13.162  10.077   8.445
 1644POPC   C3B23457  12.959  10.063   8.063
 1644POPC   C4B23458  13.187  10.168   7.677
 1645POPC   NC323459   2.051  20.234   9.485
 1645POPC   PO423460   1.986  20.891   9.591
 1645POPC   GL123461   2.067  20.664   9.205
 1645POPC   GL223462   1.727  20.511   9.202
 1645POPC   C1A23463   2.264  20.568   8.796
 1645POPC   D2A23464   2.087  20.556   8.393
 1645POPC   C3A23465   2.233  20.762   8.028
 1645POPC   C4A23466   1.928  20.999   7.817
 1645POPC   C1B23467   1.754  20.428   8.783
 1645POPC   C2B23468   1.681  20.240   8.352
 1645POPC   C3B23469   1.832  20.437   7.956
 1645POPC   C4B23470   1.882  20.268   7.566
 1646POPC   NC323471  14.762  34.826   9.315
 1646POPC   PO423472  14.139  34.899   9.622
 1646POPC   GL123473  14.253  34.616   9.277
 1646POPC   GL223474  14.284  34.905   9.107
 1646POPC   C1A23475  14.476  34.370   8.915
 1646POPC   D2A23476  14.655  34.209   8.517
 1646POPC   C3A23477  14.495  34.135   8.091
 1646POPC   C4A23478  14.652  34.190   7.674
 1646POPC   C1B23479  14.447  34.880   8.695
 1646POPC   C2B23480  14.220  34.881   8.332
 1646POPC   C3B23481  14.396  34.799   7.972
 1646POPC   C4B23482  14.532  34.689   7.567
 1647POPC   NC323483  38.107  16.559   9.462
 1647POPC   PO423484  37.536  16.781   9.651
 1647POPC   GL123485  37.676  16.762   9.250
 1647POPC   GL223486  37.647  16.445   9.180
 1647POPC   C1A23487  37.753  16.814   8.825
 1647POPC   D2A23488  38.005  16.858   8.503
 1647POPC   C3A23489  37.956  16.694   8.103
 1647POPC   C4A23490  37.807  16.484   7.776
 1647POPC   C1B23491  37.370  16.470   8.822
 1647POPC   C2B23492  37.555  16.589   8.421
 1647POPC   C3B23493  37.442  16.710   8.045
 1647POPC   C4B23494  37.273  16.541   7.686
 1648POPC   NC323495  35.515  35.874   9.455
 1648POPC   PO423496  34.871  36.211   9.400
 1648POPC   GL123497  35.163  36.071   9.110
 1648POPC   GL223498  35.224  35.770   8.988
 1648POPC   C1A23499  35.245  36.181   8.689
 1648POPC   D2A23500  35.183  36.580   8.461
 1648POPC   C3A23501  35.189  36.480   8.031
 1648POPC   C4A23502  35.502  36.343   7.736
 1648POPC   C1B23503  35.620  35.758   8.780
 1648POPC   C2B23504  35.665  35.879   8.373
 1648POPC   C3B23505  35.363  35.933   8.065
 1648POPC   C4B23506  35.567  35.847   7.705
 1649POPC   NC323507   7.859  21.722   9.296
 1649POPC   PO423508   7.235  21.559   9.577
 1649POPC   GL123509   7.175  21.681   9.137
 1649POPC   GL223510   7.458  21.477   9.085
 1649POPC   C1A23511   7.296  21.767   8.703
 1649POPC   D2A23512   7.628  21.749   8.411
 1649POPC   C3A23513   7.461  21.701   8.007
 1649POPC   C4A23514   7.668  21.700   7.624
 1649POPC   C1B23515   7.684  21.329   8.730
 1649POPC   C2B23516   7.676  21.198   8.298
 1649POPC   C3B23517   7.531  21.224   7.876
 1649POPC   C4B23518   7.215  20.992   7.679
 1650POPC   NC323519  25.768  27.154   9.556
 1650POPC   PO423520  26.264  27.691   9.493
 1650POPC   GL123521  26.301  27.539   9.100
 1650POPC   GL223522  25.950  27.643   9.092
 1650POPC   C1A23523  26.226  27.677   8.665
 1650POPC   D2A23524  26.062  27.464   8.307
 1650POPC   C3A23525  26.310  27.517   7.951
 1650POPC   C4A23526  26.260  27.635   7.552
 1650POPC   C1B23527  25.729  27.668   8.701
 1650POPC   C2B23528  25.720  27.886   8.340
 1650POPC   C3B23529  25.861  27.799   7.944
 1650POPC   C4B23530  25.789  27.808   7.508
 1651POPC   NC323531   2.898  24.287   9.599
 1651POPC   PO423532   2.296  24.627   9.493
 1651POPC   GL123533   2.607  24.486   9.191
 1651POPC   GL223534   2.960  24.464   9.150
 1651POPC   C1A23535   2.673  24.210   8.828
 1651POPC   D2A23536   2.479  24.261   8.441
 1651POPC   C3A23537   2.673  24.243   8.052
 1651POPC   C4A23538   2.513  24.318   7.634
 1651POPC   C1B23539   3.180  24.457   8.815
 1651POPC   C2B23540   3.027  24.326   8.447
 1651POPC   C3B23541   3.155  24.404   8.055
 1651POPC   C4B23542   3.047  24.273   7.644
 1652POPC   NC323543  23.500  13.703   9.518
 1652POPC   PO423544  24.025  13.280   9.388
 1652POPC   GL123545  23.640  13.522   9.058
 1652POPC   GL223546  23.483  13.894   9.067
 1652POPC   C1A23547  23.514  13.652   8.615
 1652POPC   D2A23548  23.523  13.704   8.155
 1652POPC   C3A23549  23.840  13.585   7.900
 1652POPC   C4A23550  23.868  13.594   7.474
 1652POPC   C1B23551  23.356  14.143   8.728
 1652POPC   C2B23552  23.527  14.195   8.338
 1652POPC   C3B23553  23.352  14.126   7.932
 1652POPC   C4B23554  23.452  13.860   7.618
 1653POPC   NC323555   8.587  19.213   9.541
 1653POPC   PO423556   9.096  18.883   9.331
 1653POPC   GL123557   8.891  19.151   9.087
 1653POPC   GL223558   8.625  18.934   9.096
 1653POPC   C1A23559   8.874  19.165   8.641
 1653POPC   D2A23560   9.114  19.033   8.297
 1653POPC   C3A23561   8.966  19.039   7.899
 1653POPC   C4A23562   9.027  19.153   7.513
 1653POPC   C1B23563   8.545  18.704   8.755
 1653POPC   C2B23564   8.774  18.644   8.390
 1653POPC   C3B23565   8.641  18.678   7.979
 1653POPC   C4B23566   8.610  18.823   7.576
 1654POPC   NC323567  14.494  32.635   9.492
 1654POPC   PO423568  14.007  33.115   9.627
 1654POPC   GL123569  14.071  33.161   9.201
 1654POPC   GL223570  14.083  32.821   9.103
 1654POPC   C1A23571  14.323  33.257   8.814
 1654POPC   D2A23572  14.204  33.373   8.391
 1654POPC   C3A23573  14.310  33.107   8.058
 1654POPC   C4A23574  14.465  33.148   7.675
 1654POPC   C1B23575  14.454  32.746   8.854
 1654POPC   C2B23576  14.627  32.794   8.462
 1654POPC   C3B23577  14.696  32.782   8.050
 1654POPC   C4B23578  14.522  32.630   7.680
 1655POPC   NC323579   0.802   9.198   9.551
 1655POPC   PO423580   0.251   8.804   9.428
 1655POPC   GL123581   0.571   8.872   9.158
 1655POPC   GL223582   0.492   9.191   9.132
 1655POPC   C1A23583   0.525   8.694   8.757
 1655POPC   D2A23584   0.732   8.611   8.379
 1655POPC   C3A23585   0.741   8.977   8.164
 1655POPC   C4A23586   0.493   8.879   7.812
 1655POPC   C1B23587   0.716   9.265   8.751
 1655POPC   C2B23588   0.779   9.495   8.350
 1655POPC   C3B23589   0.837   9.628   7.956
 1655POPC   C4B23590   0.797   9.274   7.717
 1656POPC   NC323591  32.020  26.716   9.671
 1656POPC   PO423592  32.280  27.338   9.671
 1656POPC   GL123593  32.319  26.998   9.340
 1656POPC   GL223594  32.035  27.080   9.200
 1656POPC   C1A23595  32.234  26.659   8.977
 1656POPC   D2A23596  32.046  26.698   8.557
 1656POPC   C3A23597  32.260  26.680   8.170
 1656POPC   C4A23598  32.279  26.519   7.760
 1656POPC   C1B23599  32.233  27.135   8.787
 1656POPC   C2B23600  32.120  27.155   8.311
 1656POPC   C3B23601  32.178  27.045   7.842
 1656POPC   C4B23602  32.465  26.983   7.542
 1657POPC   NC323603   2.778  10.066   9.989
 1657POPC   PO423604   2.714   9.475   9.518
 1657POPC   GL123605   2.720   9.749   9.189
 1657POPC   GL223606   2.978   9.579   9.070
 1657POPC   C1A23607   2.732   9.977   8.815
 1657POPC   D2A23608   2.909  10.199   8.451
 1657POPC   C3A23609   2.876   9.964   8.068
 1657POPC   C4A23610   2.754   9.776   7.670
 1657POPC   C1B23611   2.950   9.500   8.681
 1657POPC   C2B23612   2.866   9.498   8.280
 1657POPC   C3B23613   3.080   9.489   7.916
 1657POPC   C4B23614   3.087   9.236   7.532
 1658POPC   NC323615  23.452  38.649   9.476
 1658POPC   PO423616  24.041  38.254   9.586
 1658POPC   GL123617  23.854  38.428   9.198
 1658POPC   GL223618  23.615  38.144   9.201
 1658POPC   C1A23619  23.915  38.667   8.776
 1658POPC   D2A23620  23.944  38.472   8.337
 1658POPC   C3A23621  23.942  38.699   7.942
 1658POPC   C4A23622  23.521  38.790   7.735
 1658POPC   C1B23623  23.683  38.216   8.758
 1658POPC   C2B23624  23.465  38.314   8.380
 1658POPC   C3B23625  23.625  38.304   7.961
 1658POPC   C4B23626  23.696  38.038   7.579
 1659POPC   NC323627   0.963  22.609   9.548
 1659POPC   PO423628   1.248  22.057   9.504
 1659POPC   GL123629   1.332  22.388   9.238
 1659POPC   GL223630   1.003  22.316   9.103
 1659POPC   C1A23631   1.419  22.341   8.828
 1659POPC   D2A23632   1.205  22.113   8.533
 1659POPC   C3A23633   1.253  22.279   8.164
 1659POPC   C4A23634   1.238  22.145   7.752
 1659POPC   C1B23635   0.890  21.918   8.910
 1659POPC   C2B23636   0.933  21.671   8.526
 1659POPC   C3B23637   1.052  21.782   8.104
 1659POPC   C4B23638   0.837  21.858   7.704
 1660POPC   NC323639  39.710   4.917   9.484
 1660POPC   PO423640  40.240   5.269   9.682
 1660POPC   GL123641  40.089   5.312   9.244
 1660POPC   GL223642  40.140   4.999   9.231
 1660POPC   C1A23643  39.823   5.194   8.852
 1660POPC   D2A23644  40.057   5.147   8.446
 1660POPC   C3A23645  39.868   5.124   8.080
 1660POPC   C4A23646  39.804   5.272   7.704
 1660POPC   C1B23647  40.295   4.960   8.846
 1660POPC   C2B23648  40.293   4.692   8.473
 1660POPC   C3B23649  40.262   4.800   8.038
 1660POPC   C4B23650  40.256   4.865   7.597
 1661POPC   NC323651  31.654  16.606   9.583
 1661POPC   PO423652  31.067  16.821   9.918
 1661POPC   GL123653  31.150  16.653   9.460
 1661POPC   GL223654  31.370  16.874   9.247
 1661POPC   C1A23655  31.143  16.516   8.996
 1661POPC   D2A23656  31.173  16.714   8.579
 1661POPC   C3A23657  31.188  16.552   8.155
 1661POPC   C4A23658  31.432  16.687   7.808
 1661POPC   C1B23659  31.623  16.680   8.892
 1661POPC   C2B23660  31.664  16.832   8.480
 1661POPC   C3B23661  31.920  16.905   8.179
 1661POPC   C4B23662  31.883  16.965   7.752
 1662POPC   NC323663  32.477  33.457   9.902
 1662POPC   PO423664  32.151  33.952   9.510
 1662POPC   GL123665  32.078  33.690   9.222
 1662POPC   GL223666  31.997  33.355   9.375
 1662POPC   C1A23667  32.293  33.679   8.803
 1662POPC   D2A23668  32.157  33.859   8.437
 1662POPC   C3A23669  32.325  33.669   8.121
 1662POPC   C4A23670  32.415  33.968   7.831
 1662POPC   C1B23671  31.957  33.298   8.934
 1662POPC   C2B23672  32.032  33.359   8.488
 1662POPC   C3B23673  31.824  33.488   8.115
 1662POPC   C4B23674  31.970  33.715   7.750
 1663POPC   NC323675   2.353   8.857   9.509
 1663POPC   PO423676   2.995   8.516   9.479
 1663POPC   GL123677   2.952   8.933   9.235
 1663POPC   GL223678   2.631   9.114   9.171
 1663POPC   C1A23679   2.925   8.991   8.778
 1663POPC   D2A23680   2.735   9.002   8.356
 1663POPC   C3A23681   2.946   8.982   7.979
 1663POPC   C4A23682   2.875   8.779   7.589
 1663POPC   C1B23683   2.489   9.269   8.788
 1663POPC   C2B23684   2.267   9.224   8.418
 1663POPC   C3B23685   2.436   9.351   8.059
 1663POPC   C4B23686   2.571   9.189   7.698
 1664POPC   NC323687  40.302   3.447   9.554
 1664POPC   PO423688  39.592   3.706   9.547
 1664POPC   GL123689  39.914   3.542   9.253
 1664POPC   GL223690  40.146   3.830   9.215
 1664POPC   C1A23691  40.134   3.381   8.872
 1664POPC   D2A23692  39.877   3.342   8.485
 1664POPC   C3A23693  39.955   3.434   8.052
 1664POPC   C4A23694  39.765   3.316   7.658
 1664POPC   C1B23695  39.874   3.809   8.822
 1664POPC   C2B23696  39.999   3.862   8.372
 1664POPC   C3B23697  40.243   3.836   7.982
 1664POPC   C4B23698  39.945   3.857   7.648
 1665POPC   NC323699  35.955  11.003   9.550
 1665POPC   PO423700  35.963  11.650   9.417
 1665POPC   GL123701  36.137  11.354   9.141
 1665POPC   GL223702  36.323  11.014   9.148
 1665POPC   C1A23703  36.048  11.445   8.743
 1665POPC   D2A23704  35.975  11.189   8.423
 1665POPC   C3A23705  36.079  11.370   8.060
 1665POPC   C4A23706  36.200  11.449   7.666
 1665POPC   C1B23707  36.418  11.088   8.695
 1665POPC   C2B23708  36.492  11.115   8.234
 1665POPC   C3B23709  36.433  10.872   7.846
 1665POPC   C4B23710  36.385  11.054   7.395
 1666POPC   NC323711   7.202  13.891   9.644
 1666POPC   PO423712   7.442  13.300   9.563
 1666POPC   GL123713   7.233  13.504   9.268
 1666POPC   GL223714   7.545  13.552   9.103
 1666POPC   C1A23715   7.045  13.555   8.860
 1666POPC   D2A23716   7.222  13.571   8.442
 1666POPC   C3A23717   7.117  13.338   8.108
 1666POPC   C4A23718   7.109  13.548   7.754
 1666POPC   C1B23719   7.685  13.459   8.665
 1666POPC   C2B23720   7.591  13.234   8.277
 1666POPC   C3B23721   7.580  13.312   7.821
 1666POPC   C4B23722   7.664  13.291   7.360
 1667POPC   NC323723  11.998  39.528   9.554
 1667POPC   PO423724  12.426  38.999   9.570
 1667POPC   GL123725  12.354  39.291   9.233
 1667POPC   GL223726  11.996  39.226   9.143
 1667POPC   C1A23727  12.339  39.330   8.769
 1667POPC   D2A23728  12.197  39.043   8.428
 1667POPC   C3A23729  12.335  39.095   7.996
 1667POPC   C4A23730  12.348  39.416   7.699
 1667POPC   C1B23731  11.733  39.493   8.881
 1667POPC   C2B23732  11.733  39.546   8.430
 1667POPC   C3B23733  11.868  39.305   8.080
 1667POPC   C4B23734  11.831  39.358   7.664
 1668POPC   NC323735  24.263   3.400   9.731
 1668POPC   PO423736  24.683   3.825   9.430
 1668POPC   GL123737  24.467   3.435   9.250
 1668POPC   GL223738  24.089   3.437   9.211
 1668POPC   C1A23739  24.617   3.364   8.842
 1668POPC   D2A23740  24.615   3.701   8.534
 1668POPC   C3A23741  24.631   3.555   8.132
 1668POPC   C4A23742  24.473   3.566   7.737
 1668POPC   C1B23743  24.114   3.423   8.789
 1668POPC   C2B23744  24.313   3.248   8.441
 1668POPC   C3B23745  24.207   3.261   8.042
 1668POPC   C4B23746  23.984   3.343   7.666
 1669POPC   NC323747  28.789  36.171   9.374
 1669POPC   PO423748  29.441  36.409   9.555
 1669POPC   GL123749  29.282  36.154   9.219
 1669POPC   GL223750  29.076  36.367   9.017
 1669POPC   C1A23751  29.127  35.904   8.845
 1669POPC   D2A23752  29.356  35.918   8.457
 1669POPC   C3A23753  29.162  36.096   8.108
 1669POPC   C4A23754  29.224  35.921   7.723
 1669POPC   C1B23755  28.823  36.503   8.703
 1669POPC   C2B23756  28.635  36.398   8.336
 1669POPC   C3B23757  28.694  36.560   7.946
 1669POPC   C4B23758  28.940  36.345   7.718
 1670POPC   NC323759  14.565  38.639   9.852
 1670POPC   PO423760  14.174  38.237   9.493
 1670POPC   GL123761  14.412  38.473   9.184
 1670POPC   GL223762  14.778  38.386   9.221
 1670POPC   C1A23763  14.585  38.597   8.773
 1670POPC   D2A23764  14.866  38.611   8.409
 1670POPC   C3A23765  14.649  38.858   8.095
 1670POPC   C4A23766  14.425  38.678   7.746
 1670POPC   C1B23767  14.791  38.153   8.814
 1670POPC   C2B23768  14.584  38.146   8.408
 1670POPC   C3B23769  14.575  38.211   7.964
 1670POPC   C4B23770  14.592  38.203   7.502
 1671POPC   NC323771  12.394   4.962   9.350
 1671POPC   PO423772  13.057   4.956   9.524
 1671POPC   GL123773  12.949   4.894   9.122
 1671POPC   GL223774  12.798   5.198   9.121
 1671POPC   C1A23775  13.006   5.050   8.681
 1671POPC   D2A23776  12.706   5.034   8.312
 1671POPC   C3A23777  12.900   4.955   7.892
 1671POPC   C4A23778  13.278   4.749   7.773
 1671POPC   C1B23779  12.541   5.253   8.770
 1671POPC   C2B23780  12.531   5.523   8.438
 1671POPC   C3B23781  12.429   5.622   8.053
 1671POPC   C4B23782  12.489   5.268   7.806
 1672POPC   NC323783  26.207   0.479   9.505
 1672POPC   PO423784  25.537   0.582   9.762
 1672POPC   GL123785  25.773   0.203   9.419
 1672POPC   GL223786  25.967   0.322   9.094
 1672POPC   C1A23787  25.715  44.901   9.022
 1672POPC   D2A23788  25.729  44.985   8.563
 1672POPC   C3A23789  25.794  44.932   8.107
 1672POPC   C4A23790  25.875   0.201   7.753
 1672POPC   C1B23791  26.187   0.067   8.767
 1672POPC   C2B23792  26.208   0.251   8.342
 1672POPC   C3B23793  26.239   0.501   7.936
 1672POPC   C4B23794  26.118   0.573   7.481
 1673POPC   NC323795  13.836  20.536   9.463
 1673POPC   PO423796  13.449  21.061   9.472
 1673POPC   GL123797  13.503  20.838   9.056
 1673POPC   GL223798  13.840  20.696   8.989
 1673POPC   C1A23799  13.624  20.868   8.583
 1673POPC   D2A23800  13.618  20.532   8.289
 1673POPC   C3A23801  13.672  20.683   7.932
 1673POPC   C4A23802  13.483  20.778   7.589
 1673POPC   C1B23803  14.035  20.520   8.591
 1673POPC   C2B23804  14.043  20.230   8.253
 1673POPC   C3B23805  13.894  20.219   7.835
 1673POPC   C4B23806  13.646  20.285   7.421
 1674POPC   NC323807  20.753  17.101   9.429
 1674POPC   PO423808  21.249  16.636   9.662
 1674POPC   GL123809  21.447  16.752   9.288
 1674POPC   GL223810  21.242  17.025   9.218
 1674POPC   C1A23811  21.513  16.705   8.830
 1674POPC   D2A23812  21.426  16.488   8.434
 1674POPC   C3A23813  21.385  16.654   8.035
 1674POPC   C4A23814  21.472  16.555   7.627
 1674POPC   C1B23815  21.051  16.982   8.834
 1674POPC   C2B23816  21.116  16.911   8.393
 1674POPC   C3B23817  21.025  16.998   7.918
 1674POPC   C4B23818  21.259  16.990   7.508
 1675POPC   NC323819   8.590   4.928   9.396
 1675POPC   PO423820   7.928   5.044   9.618
 1675POPC   GL123821   8.133   5.085   9.197
 1675POPC   GL223822   8.371   5.349   9.142
 1675POPC   C1A23823   8.236   4.885   8.800
 1675POPC   D2A23824   8.099   5.049   8.429
 1675POPC   C3A23825   8.177   4.976   8.024
 1675POPC   C4A23826   8.183   5.260   7.686
 1675POPC   C1B23827   8.573   5.277   8.726
 1675POPC   C2B23828   8.598   5.160   8.270
 1675POPC   C3B23829   8.643   5.108   7.813
 1675POPC   C4B23830   8.474   4.987   7.371
 1676POPC   NC323831  10.138   4.993   9.399
 1676POPC   PO423832   9.591   5.334   9.554
 1676POPC   GL123833   9.739   5.293   9.134
 1676POPC   GL223834   9.601   4.957   9.122
 1676POPC   C1A23835  10.001   5.105   8.764
 1676POPC   D2A23836   9.899   4.835   8.390
 1676POPC   C3A23837   9.993   5.055   8.009
 1676POPC   C4A23838   9.862   5.051   7.568
 1676POPC   C1B23839   9.501   5.100   8.697
 1676POPC   C2B23840   9.649   5.294   8.318
 1676POPC   C3B23841   9.551   5.331   7.874
 1676POPC   C4B23842   9.507   5.371   7.404
 1677POPC   NC323843  36.296  38.672   9.512
 1677POPC   PO423844  35.870  38.230   9.612
 1677POPC   GL123845  36.142  38.196   9.259
 1677POPC   GL223846  35.894  38.460   9.152
 1677POPC   C1A23847  36.182  38.236   8.804
 1677POPC   D2A23848  36.398  38.143   8.429
 1677POPC   C3A23849  36.196  38.275   8.082
 1677POPC   C4A23850  36.271  38.421   7.732
 1677POPC   C1B23851  35.814  38.642   8.744
 1677POPC   C2B23852  36.073  38.646   8.402
 1677POPC   C3B23853  35.981  38.740   7.974
 1677POPC   C4B23854  35.929  38.764   7.497
 1678POPC   NC323855  16.746   5.560   9.484
 1678POPC   PO423856  16.875   6.206   9.557
 1678POPC   GL123857  16.592   6.001   9.181
 1678POPC   GL223858  16.758   5.719   9.012
 1678POPC   C1A23859  16.486   5.955   8.682
 1678POPC   D2A23860  16.626   6.195   8.310
 1678POPC   C3A23861  16.710   6.078   7.896
 1678POPC   C4A23862  16.583   5.772   7.619
 1678POPC   C1B23863  16.743   5.486   8.623
 1678POPC   C2B23864  16.785   5.647   8.174
 1678POPC   C3B23865  17.039   5.646   7.779
 1678POPC   C4B23866  17.112   5.699   7.302
 1679POPC   NC323867  44.897  25.114   9.492
 1679POPC   PO423868  44.262  24.745   9.432
 1679POPC   GL123869  44.481  25.114   9.172
 1679POPC   GL223870  44.474  25.487   9.179
 1679POPC   C1A23871  44.684  25.191   8.749
 1679POPC   D2A23872  44.461  25.114   8.355
 1679POPC   C3A23873  44.732  25.176   8.015
 1679POPC   C4A23874  44.865  25.031   7.628
 1679POPC   C1B23875  44.207  25.398   8.790
 1679POPC   C2B23876  44.029  25.392   8.355
 1679POPC   C3B23877  44.291  25.485   7.980
 1679POPC   C4B23878  44.550  25.438   7.613
 1680POPC   NC323879  29.745  28.827   9.477
 1680POPC   PO423880  29.777  29.427   9.475
 1680POPC   GL123881  29.931  29.107   9.099
 1680POPC   GL223882  30.275  28.942   8.991
 1680POPC   C1A23883  29.822  29.035   8.655
 1680POPC   D2A23884  29.843  29.233   8.245
 1680POPC   C3A23885  30.055  29.132   7.880
 1680POPC   C4A23886  29.931  29.411   7.495
 1680POPC   C1B23887  30.163  28.676   8.661
 1680POPC   C2B23888  29.909  28.692   8.256
 1680POPC   C3B23889  29.720  28.772   7.837
 1680POPC   C4B23890  29.978  28.909   7.422
 1681POPC   NC323891  23.881  18.074   9.745
 1681POPC   PO423892  23.918  18.598   9.390
 1681POPC   GL123893  23.821  18.164   9.205
 1681POPC   GL223894  23.499  18.085   9.043
 1681POPC   C1A23895  23.931  18.045   8.763
 1681POPC   D2A23896  24.005  18.290   8.363
 1681POPC   C3A23897  23.991  18.177   7.930
 1681POPC   C4A23898  24.043  18.161   7.467
 1681POPC   C1B23899  23.638  18.450   8.741
 1681POPC   C2B23900  23.659  18.677   8.326
 1681POPC   C3B23901  23.652  18.566   7.898
 1681POPC   C4B23902  23.536  18.185   7.660
 1682POPC   NC323903   6.567  20.454   9.389
 1682POPC   PO423904   6.787  21.075   9.590
 1682POPC   GL123905   6.597  20.900   9.164
 1682POPC   GL223906   6.924  20.681   9.107
 1682POPC   C1A23907   6.377  20.733   8.768
 1682POPC   D2A23908   6.167  20.690   8.347
 1682POPC   C3A23909   6.400  20.469   8.014
 1682POPC   C4A23910   6.361  20.416   7.560
 1682POPC   C1B23911   6.829  20.498   8.695
 1682POPC   C2B23912   6.741  20.723   8.302
 1682POPC   C3B23913   6.788  20.751   7.837
 1682POPC   C4B23914   6.830  20.618   7.403
 1683POPC   NC323915  40.408   4.438   9.640
 1683POPC   PO423916  39.737   4.405   9.687
 1683POPC   GL123917  39.939   4.353   9.214
 1683POPC   GL223918  40.238   4.516   9.128
 1683POPC   C1A23919  40.116   4.238   8.748
 1683POPC   D2A23920  40.389   4.179   8.392
 1683POPC   C3A23921  40.111   4.316   8.052
 1683POPC   C4A23922  39.685   4.228   7.879
 1683POPC   C1B23923  39.881   4.680   8.805
 1683POPC   C2B23924  39.770   4.675   8.316
 1683POPC   C3B23925  39.798   4.711   7.823
 1683POPC   C4B23926  39.807   4.810   7.359
 1684POPC   NC323927  19.661  37.908   9.786
 1684POPC   PO423928  19.602  38.343   9.330
 1684POPC   GL123929  19.721  38.639   9.038
 1684POPC   GL223930  19.886  38.331   8.909
 1684POPC   C1A23931  19.661  38.669   8.597
 1684POPC   D2A23932  19.703  38.232   8.447
 1684POPC   C3A23933  19.857  38.172   8.054
 1684POPC   C4A23934  19.789  38.429   7.665
 1684POPC   C1B23935  20.166  38.642   8.744
 1684POPC   C2B23936  20.357  38.723   8.347
 1684POPC   C3B23937  20.154  38.601   7.989
 1684POPC   C4B23938  20.253  38.254   7.739
 1685POPC   NC323939  39.546  43.787   9.716
 1685POPC   PO423940  40.235  43.907   9.581
 1685POPC   GL123941  40.122  43.911   9.171
 1685POPC   GL223942  39.883  44.189   9.115
 1685POPC   C1A23943  40.329  43.858   8.800
 1685POPC   D2A23944  40.381  44.095   8.460
 1685POPC   C3A23945  40.340  43.866   8.094
 1685POPC   C4A23946  40.093  43.855   7.718
 1685POPC   C1B23947  39.841  44.033   8.713
 1685POPC   C2B23948  39.890  44.004   8.300
 1685POPC   C3B23949  39.717  44.072   7.936
 1685POPC   C4B23950  39.616  43.634   7.862
 1686POPC   NC323951  27.080  19.257   9.507
 1686POPC   PO423952  26.507  18.931   9.665
 1686POPC   GL123953  26.721  18.788   9.264
 1686POPC   GL223954  27.115  18.796   9.252
 1686POPC   C1A23955  26.586  18.926   8.842
 1686POPC   D2A23956  26.681  19.244   8.540
 1686POPC   C3A23957  26.678  19.060   8.118
 1686POPC   C4A23958  26.690  19.317   7.776
 1686POPC   C1B23959  27.096  19.016   8.854
 1686POPC   C2B23960  27.006  18.838   8.441
 1686POPC   C3B23961  27.144  18.867   8.021
 1686POPC   C4B23962  27.195  19.239   7.804
 1687POPC   NC323963  30.069   9.399   9.415
 1687POPC   PO423964  30.115   8.725   9.498
 1687POPC   GL123965  29.980   8.943   9.152
 1687POPC   GL223966  29.637   9.095   9.181
 1687POPC   C1A23967  29.847   8.905   8.741
 1687POPC   D2A23968  29.821   9.008   8.335
 1687POPC   C3A23969  29.936   8.727   8.052
 1687POPC   C4A23970  29.701   8.706   7.706
 1687POPC   C1B23971  29.471   9.271   8.756
 1687POPC   C2B23972  29.403   9.272   8.307
 1687POPC   C3B23973  29.599   9.201   7.887
 1687POPC   C4B23974  29.496   9.090   7.447
 1688POPC   NC323975  40.774   7.192   9.528
 1688POPC   PO423976  40.523   7.719   9.420
 1688POPC   GL123977  40.857   7.557   9.121
 1688POPC   GL223978  41.120   7.311   9.141
 1688POPC   C1A23979  40.858   7.551   8.669
 1688POPC   D2A23980  40.807   7.783   8.256
 1688POPC   C3A23981  40.664   7.660   7.810
 1688POPC   C4A23982  40.600   7.835   7.342
 1688POPC   C1B23983  41.119   7.119   8.729
 1688POPC   C2B23984  40.993   7.075   8.313
 1688POPC   C3B23985  40.981   7.219   7.888
 1688POPC   C4B23986  40.971   7.030   7.472
 1689POPC   NC323987  37.548   3.629   9.526
 1689POPC   PO423988  37.864   3.056   9.533
 1689POPC   GL123989  37.657   3.247   9.180
 1689POPC   GL223990  37.831   3.522   9.114
 1689POPC   C1A23991  37.386   3.299   8.821
 1689POPC   D2A23992  37.401   3.578   8.505
 1689POPC   C3A23993  37.461   3.480   8.113
 1689POPC   C4A23994  37.608   3.597   7.739
 1689POPC   C1B23995  37.890   3.351   8.720
 1689POPC   C2B23996  37.915   3.545   8.349
 1689POPC   C3B23997  38.075   3.523   7.949
 1689POPC   C4B23998  38.185   3.903   7.719
 1690POPC   NC323999  20.713   1.506   9.538
 1690POPC   PO424000  20.499   0.867   9.537
 1690POPC   GL124001  20.655   1.049   9.199
 1690POPC   GL224002  20.396   1.318   9.166
 1690POPC   C1A24003  20.850   0.903   8.830
 1690POPC   D2A24004  20.883   1.157   8.475
 1690POPC   C3A24005  20.762   1.078   8.072
 1690POPC   C4A24006  20.882   1.491   7.948
 1690POPC   C1B24007  20.434   1.217   8.742
 1690POPC   C2B24008  20.443   1.405   8.341
 1690POPC   C3B24009  20.382   1.416   7.887
 1690POPC   C4B24010  20.282   1.296   7.457
 1691POPC   NC324011  40.328  38.161   9.237
 1691POPC   PO424012  40.214  38.748   9.637
 1691POPC   GL124013  40.129  38.625   9.193
 1691POPC   GL224014  39.777  38.508   9.076
 1691POPC   C1A24015  40.112  38.553   8.719
 1691POPC   D2A24016  39.865  38.439   8.359
 1691POPC   C3A24017  39.945  38.608   7.953
 1691POPC   C4A24018  40.324  38.624   7.723
 1691POPC   C1B24019  39.755  38.124   8.786
 1691POPC   C2B24020  39.782  37.927   8.387
 1691POPC   C3B24021  39.853  38.076   7.979
 1691POPC   C4B24022  39.653  38.285   7.644
 1692POPC   NC324023   4.353  34.223   9.590
 1692POPC   PO424024   3.871  34.753   9.640
 1692POPC   GL124025   4.041  34.668   9.213
 1692POPC   GL224026   4.065  34.305   9.154
 1692POPC   C1A24027   4.048  34.590   8.732
 1692POPC   D2A24028   4.209  34.804   8.359
 1692POPC   C3A24029   4.100  34.814   7.891
 1692POPC   C4A24030   4.224  34.824   7.426
 1692POPC   C1B24031   4.469  34.332   8.910
 1692POPC   C2B24032   4.501  34.377   8.445
 1692POPC   C3B24033   4.425  34.437   7.970
 1692POPC   C4B24034   4.598  34.474   7.491
 1693POPC   NC324035   2.449  17.203   9.425
 1693POPC   PO424036   2.852  17.720   9.543
 1693POPC   GL124037   2.733  17.568   9.157
 1693POPC   GL224038   2.951  17.290   9.164
 1693POPC   C1A24039   2.942  17.703   8.767
 1693POPC   D2A24040   3.135  17.820   8.363
 1693POPC   C3A24041   2.869  17.766   8.032
 1693POPC   C4A24042   2.843  17.478   7.739
 1693POPC   C1B24043   2.729  17.218   8.767
 1693POPC   C2B24044   2.619  17.479   8.401
 1693POPC   C3B24045   2.407  17.450   8.004
 1693POPC   C4B24046   2.547  17.069   7.776
 1694POPC   NC324047  20.883  41.680   9.805
 1694POPC   PO424048  20.435  41.344   9.428
 1694POPC   GL124049  20.823  41.465   9.186
 1694POPC   GL224050  21.057  41.154   9.122
 1694POPC   C1A24051  20.753  41.689   8.768
 1694POPC   D2A24052  20.415  41.635   8.462
 1694POPC   C3A24053  20.516  41.764   8.050
 1694POPC   C4A24054  20.423  41.681   7.641
 1694POPC   C1B24055  20.793  41.200   8.753
 1694POPC   C2B24056  20.847  41.367   8.323
 1694POPC   C3B24057  20.696  41.328   7.879
 1694POPC   C4B24058  20.913  41.422   7.468
 1695POPC   NC324059  12.265  38.567   9.476
 1695POPC   PO424060  11.735  38.420   9.120
 1695POPC   GL124061  12.192  38.326   9.021
 1695POPC   GL224062  12.425  38.111   9.235
 1695POPC   C1A24063  12.395  38.501   8.641
 1695POPC   D2A24064  12.296  38.590   8.187
 1695POPC   C3A24065  11.915  38.769   7.962
 1695POPC   C4A24066  11.787  38.635   7.526
 1695POPC   C1B24067  12.594  38.049   8.803
 1695POPC   C2B24068  12.425  38.045   8.385
 1695POPC   C3B24069  12.376  38.133   7.944
 1695POPC   C4B24070  12.309  38.029   7.480
 1696POPC   NC324071  29.584  10.036   9.449
 1696POPC   PO424072  30.226   9.829   9.542
 1696POPC   GL124073  30.064   9.821   9.081
 1696POPC   GL224074  29.705   9.750   8.864
 1696POPC   C1A24075  30.154   9.666   8.643
 1696POPC   D2A24076  29.844   9.528   8.345
 1696POPC   C3A24077  29.914   9.639   7.923
 1696POPC   C4A24078  30.246   9.524   7.628
 1696POPC   C1B24079  29.844  10.114   8.718
 1696POPC   C2B24080  29.987  10.033   8.317
 1696POPC   C3B24081  29.754  10.139   7.979
 1696POPC   C4B24082  29.588   9.971   7.620
 1697POPC   NC324083  18.752  31.708   9.585
 1697POPC   PO424084  18.253  31.245   9.599
 1697POPC   GL124085  18.168  31.499   9.239
 1697POPC   GL224086  18.504  31.446   9.188
 1697POPC   C1A24087  18.049  31.391   8.810
 1697POPC   D2A24088  18.051  31.138   8.450
 1697POPC   C3A24089  18.152  31.335   8.071
 1697POPC   C4A24090  17.966  31.298   7.697
 1697POPC   C1B24091  18.560  31.602   8.809
 1697POPC   C2B24092  18.504  31.522   8.407
 1697POPC   C3B24093  18.564  31.657   7.994
 1697POPC   C4B24094  18.405  31.544   7.590
 1698POPC   NC324095  15.187  13.298   9.426
 1698POPC   PO424096  15.428  12.603   9.384
 1698POPC   GL124097  15.174  12.717   9.066
 1698POPC   GL224098  14.960  12.966   9.106
 1698POPC   C1A24099  15.207  12.793   8.647
 1698POPC   D2A24100  15.140  12.534   8.346
 1698POPC   C3A24101  15.222  12.678   7.958
 1698POPC   C4A24102  15.071  12.746   7.573
 1698POPC   C1B24103  14.772  13.034   8.695
 1698POPC   C2B24104  14.899  12.993   8.249
 1698POPC   C3B24105  14.906  13.144   7.841
 1698POPC   C4B24106  15.050  13.476   7.570
 1699POPC   NC324107  43.499   0.325   9.559
 1699POPC   PO424108  44.078   0.553   9.375
 1699POPC   GL124109  43.966   0.418   8.995
 1699POPC   GL224110  43.794   0.147   9.144
 1699POPC   C1A24111  44.164   0.185   8.645
 1699POPC   D2A24112  44.254   0.201   8.191
 1699POPC   C3A24113  43.953   0.507   8.070
 1699POPC   C4A24114  43.634   0.547   7.785
 1699POPC   C1B24115  43.528   0.230   8.790
 1699POPC   C2B24116  43.586   0.096   8.342
 1699POPC   C3B24117  43.772   0.044   7.906
 1699POPC   C4B24118  43.731   0.019   7.395
 1700POPC   NC324119  25.841  12.137   9.596
 1700POPC   PO424120  26.460  12.011   9.515
 1700POPC   GL124121  26.146  11.981   9.171
 1700POPC   GL224122  25.914  12.292   9.116
 1700POPC   C1A24123  26.189  12.133   8.722
 1700POPC   D2A24124  26.352  12.192   8.334
 1700POPC   C3A24125  26.123  12.039   7.971
 1700POPC   C4A24126  25.866  12.130   7.618
 1700POPC   C1B24127  25.756  11.915   8.841
 1700POPC   C2B24128  25.755  12.010   8.392
 1700POPC   C3B24129  25.727  12.338   8.073
 1700POPC   C4B24130  25.486  12.474   7.755
 1701POPC   NC324131  34.253  10.587   9.593
 1701POPC   PO424132  34.850  10.602   9.393
 1701POPC   GL124133  34.497  10.624   9.142
 1701POPC   GL224134  34.391  10.281   9.189
 1701POPC   C1A24135  34.316  10.609   8.728
 1701POPC   D2A24136  34.162  10.411   8.365
 1701POPC   C3A24137  34.413  10.301   7.999
 1701POPC   C4A24138  34.656  10.618   7.714
 1701POPC   C1B24139  34.693  10.222   8.856
 1701POPC   C2B24140  34.693  10.289   8.435
 1701POPC   C3B24141  34.914  10.310   8.028
 1701POPC   C4B24142  34.775  10.138   7.639
 1702POPC   NC324143   3.000  32.916   9.438
 1702POPC   PO424144   2.447  33.043   9.793
 1702POPC   GL124145   2.427  32.822   9.302
 1702POPC   GL224146   2.681  32.629   9.167
 1702POPC   C1A24147   2.588  32.954   8.793
 1702POPC   D2A24148   2.827  33.294   8.522
 1702POPC   C3A24149   2.702  33.270   8.065
 1702POPC   C4A24150   2.436  33.145   7.724
 1702POPC   C1B24151   3.036  32.664   8.834
 1702POPC   C2B24152   2.927  32.800   8.425
 1702POPC   C3B24153   3.022  32.888   8.003
 1702POPC   C4B24154   2.897  32.915   7.591
 1703POPC   NC324155  42.829   8.496   9.268
 1703POPC   PO424156  42.877   9.040   9.631
 1703POPC   GL124157  42.963   8.979   9.186
 1703POPC   GL224158  42.861   9.274   9.062
 1703POPC   C1A24159  42.823   8.918   8.709
 1703POPC   D2A24160  42.951   9.197   8.341
 1703POPC   C3A24161  42.828   9.048   7.929
 1703POPC   C4A24162  43.134   8.744   7.776
 1703POPC   C1B24163  43.257   9.157   8.772
 1703POPC   C2B24164  43.473   9.250   8.367
 1703POPC   C3B24165  43.270   9.328   7.936
 1703POPC   C4B24166  43.317   9.159   7.523
 1704POPC   NC324167  34.809  44.950   9.611
 1704POPC   PO424168  34.146  44.711   9.471
 1704POPC   GL124169  34.496  44.724   9.207
 1704POPC   GL224170  34.693   0.008   9.126
 1704POPC   C1A24171  34.514  44.700   8.766
 1704POPC   D2A24172  34.225  44.738   8.419
 1704POPC   C3A24173  34.317  44.617   8.008
 1704POPC   C4A24174  34.413  44.252   7.798
 1704POPC   C1B24175  34.970  44.952   8.804
 1704POPC   C2B24176  34.930  44.728   8.473
 1704POPC   C3B24177  34.753  44.833   8.151
 1704POPC   C4B24178  34.813  44.636   7.838
 1705POPC   NC324179  37.936  24.676   9.471
 1705POPC   PO424180  37.432  24.191   9.521
 1705POPC   GL124181  37.593  24.414   9.175
 1705POPC   GL224182  37.438  24.737   9.095
 1705POPC   C1A24183  37.633  24.269   8.771
 1705POPC   D2A24184  37.688  24.431   8.391
 1705POPC   C3A24185  37.709  24.213   8.057
 1705POPC   C4A24186  37.723  24.397   7.671
 1705POPC   C1B24187  37.792  24.763   8.788
 1705POPC   C2B24188  38.147  24.582   8.543
 1705POPC   C3B24189  38.132  24.525   8.085
 1705POPC   C4B24190  38.070  24.766   7.709
 1706POPC   NC324191   0.987  41.676   9.286
 1706POPC   PO424192   0.340  41.555   9.554
 1706POPC   GL124193   0.457  41.454   9.132
 1706POPC   GL224194   0.114  41.527   9.092
 1706POPC   C1A24195   0.688  41.433   8.691
 1706POPC   D2A24196   0.694  41.411   8.202
 1706POPC   C3A24197   0.882  41.623   7.827
 1706POPC   C4A24198   0.749  41.696   7.394
 1706POPC   C1B24199   0.024  41.407   8.754
 1706POPC   C2B24200   0.233  41.382   8.418
 1706POPC   C3B24201   0.207  41.604   8.051
 1706POPC   C4B24202   0.349  41.470   7.650
 1707POPC   NC324203  34.290  15.117   9.567
 1707POPC   PO424204  34.971  15.018   9.466
 1707POPC   GL124205  34.742  15.228   9.149
 1707POPC   GL224206  34.415  15.271   9.055
 1707POPC   C1A24207  34.739  15.028   8.748
 1707POPC   D2A24208  34.526  14.983   8.388
 1707POPC   C3A24209  34.715  15.052   8.020
 1707POPC   C4A24210  34.388  15.115   7.733
 1707POPC   C1B24211  34.770  15.539   8.769
 1707POPC   C2B24212  34.705  15.706   8.374
 1707POPC   C3B24213  34.463  15.579   8.049
 1707POPC   C4B24214  34.738  15.491   7.776
 1708POPC   NC324215  19.916   2.498   9.172
 1708POPC   PO424216  19.602   3.025   9.433
 1708POPC   GL124217  19.818   2.993   9.041
 1708POPC   GL224218  20.160   2.951   9.044
 1708POPC   C1A24219  19.922   2.966   8.604
 1708POPC   D2A24220  19.740   3.065   8.229
 1708POPC   C3A24221  19.793   2.664   8.073
 1708POPC   C4A24222  19.814   2.482   7.665
 1708POPC   C1B24223  20.338   2.628   8.719
 1708POPC   C2B24224  20.230   2.533   8.281
 1708POPC   C3B24225  20.228   2.737   7.851
 1708POPC   C4B24226  20.235   2.693   7.409
 1709POPC   NC324227  34.861  31.586   9.685
 1709POPC   PO424228  35.487  31.724   9.460
 1709POPC   GL124229  35.202  31.449   9.203
 1709POPC   GL224230  35.239  31.107   9.348
 1709POPC   C1A24231  35.255  31.455   8.732
 1709POPC   D2A24232  35.650  31.577   8.490
 1709POPC   C3A24233  35.521  31.701   8.064
 1709POPC   C4A24234  35.125  31.585   7.843
 1709POPC   C1B24235  35.506  31.086   8.963
 1709POPC   C2B24236  35.536  31.061   8.505
 1709POPC   C3B24237  35.365  31.215   8.143
 1709POPC   C4B24238  35.370  31.159   7.714
 1710POPC   NC324239  41.498  37.225   9.805
 1710POPC   PO424240  41.473  37.766   9.419
 1710POPC   GL124241  41.488  37.892   9.011
 1710POPC   GL224242  41.302  38.188   8.947
 1710POPC   C1A24243  41.672  37.677   8.646
 1710POPC   D2A24244  41.515  37.402   8.314
 1710POPC   C3A24245  41.805  37.507   8.005
 1710POPC   C4A24246  41.835  37.638   7.554
 1710POPC   C1B24247  41.499  38.171   8.546
 1710POPC   C2B24248  41.504  37.926   8.184
 1710POPC   C3B24249  41.405  37.769   7.780
 1710POPC   C4B24250  41.415  37.971   7.301
 1711POPC   NC324251  25.796   5.552   9.637
 1711POPC   PO424252  25.980   4.837   9.621
 1711POPC   GL124253  25.962   5.010   9.211
 1711POPC   GL224254  26.273   5.219   9.171
 1711POPC   C1A24255  25.861   4.809   8.810
 1711POPC   D2A24256  26.050   4.646   8.432
 1711POPC   C3A24257  26.099   4.942   8.098
 1711POPC   C4A24258  25.831   5.061   7.754
 1711POPC   C1B24259  26.175   5.215   8.692
 1711POPC   C2B24260  26.256   5.384   8.247
 1711POPC   C3B24261  26.271   5.308   7.733
 1711POPC   C4B24262  26.405   5.317   7.265
 1712POPC   NC324263  28.084  14.635   9.325
 1712POPC   PO424264  27.969  14.107   9.734
 1712POPC   GL124265  27.788  14.259   9.239
 1712POPC   GL224266  27.405  14.285   9.213
 1712POPC   C1A24267  27.819  14.557   8.759
 1712POPC   D2A24268  27.827  14.654   8.307
 1712POPC   C3A24269  27.983  14.425   7.924
 1712POPC   C4A24270  27.892  14.332   7.448
 1712POPC   C1B24271  27.343  14.506   8.826
 1712POPC   C2B24272  27.406  14.344   8.411
 1712POPC   C3B24273  27.468  14.453   7.966
 1712POPC   C4B24274  27.307  14.086   7.779
 1713POPC   NC324275   0.393  12.258   9.514
 1713POPC   PO424276   0.088  11.724   9.794
 1713POPC   GL124277   0.143  11.772   9.277
 1713POPC   GL224278   0.476  11.918   9.153
 1713POPC   C1A24279   0.213  11.752   8.766
 1713POPC   D2A24280   0.493  11.933   8.398
 1713POPC   C3A24281   0.394  12.227   8.029
 1713POPC   C4A24282   0.148  12.211   7.637
 1713POPC   C1B24283   0.729  12.140   8.815
 1713POPC   C2B24284   0.973  12.234   8.418
 1713POPC   C3B24285   1.136  12.257   8.021
 1713POPC   C4B24286   0.864  12.212   7.708
 1714POPC   NC324287  10.319   0.829   9.586
 1714POPC   PO424288  10.707   0.289   9.505
 1714POPC   GL124289  10.638   0.366   9.090
 1714POPC   GL224290  10.376   0.580   9.147
 1714POPC   C1A24291  10.368   0.258   8.718
 1714POPC   D2A24292  10.277   0.296   8.270
 1714POPC   C3A24293  10.614   0.530   8.060
 1714POPC   C4A24294  10.887   0.410   7.781
 1714POPC   C1B24295  10.211   0.761   8.793
 1714POPC   C2B24296  10.362   0.827   8.374
 1714POPC   C3B24297  10.229   0.803   7.881
 1714POPC   C4B24298  10.253   0.846   7.370
 1715POPC   NC324299  27.765  18.052   9.542
 1715POPC   PO424300  27.424  18.621   9.645
 1715POPC   GL124301  27.697  18.491   9.306
 1715POPC   GL224302  27.669  18.712   9.108
 1715POPC   C1A24303  27.703  18.223   8.930
 1715POPC   D2A24304  27.788  18.268   8.510
 1715POPC   C3A24305  27.537  18.096   8.211
 1715POPC   C4A24306  27.676  18.084   7.803
 1715POPC   C1B24307  27.403  18.611   8.754
 1715POPC   C2B24308  27.454  18.604   8.319
 1715POPC   C3B24309  27.634  18.583   7.914
 1715POPC   C4B24310  27.373  18.685   7.563
 1716POPC   NC324311  16.156  13.454   9.614
 1716POPC   PO424312  15.538  13.591   9.489
 1716POPC   GL124313  15.851  13.365   9.214
 1716POPC   GL224314  16.089  13.629   9.129
 1716POPC   C1A24315  16.065  13.203   8.842
 1716POPC   D2A24316  15.818  13.241   8.409
 1716POPC   C3A24317  16.074  13.262   8.007
 1716POPC   C4A24318  16.240  13.510   7.642
 1716POPC   C1B24319  15.841  13.644   8.725
 1716POPC   C2B24320  15.948  13.702   8.252
 1716POPC   C3B24321  15.818  13.776   7.819
 1716POPC   C4B24322  15.941  14.129   7.522
 1717POPC   NC324323  33.475   2.372   9.524
 1717POPC   PO424324  33.097   3.066   9.470
 1717POPC   GL124325  33.179   2.731   9.194
 1717POPC   GL224326  32.855   2.574   9.077
 1717POPC   C1A24327  33.336   2.912   8.813
 1717POPC   D2A24328  33.247   3.115   8.412
 1717POPC   C3A24329  33.122   2.787   8.135
 1717POPC   C4A24330  33.086   2.720   7.707
 1717POPC   C1B24331  32.871   2.712   8.636
 1717POPC   C2B24332  32.658   2.547   8.255
 1717POPC   C3B24333  32.641   2.462   7.800
 1717POPC   C4B24334  32.708   2.656   7.375
 1718POPC   NC324335  25.654  13.827   9.639
 1718POPC   PO424336  24.949  13.651   9.480
 1718POPC   GL124337  25.089  13.689   9.112
 1718POPC   GL224338  25.387  13.599   9.210
 1718POPC   C1A24339  24.914  13.658   8.721
 1718POPC   D2A24340  25.012  13.447   8.354
 1718POPC   C3A24341  25.062  13.815   8.119
 1718POPC   C4A24342  24.855  13.997   7.769
 1718POPC   C1B24343  25.577  13.567   8.831
 1718POPC   C2B24344  25.474  13.607   8.432
 1718POPC   C3B24345  25.457  13.488   8.014
 1718POPC   C4B24346  25.317  13.744   7.687
 1719POPC   NC324347   2.378  43.198   9.501
 1719POPC   PO424348   1.976  42.656   9.488
 1719POPC   GL124349   2.056  42.957   9.161
 1719POPC   GL224350   1.931  43.299   9.249
 1719POPC   C1A24351   1.973  42.941   8.728
 1719POPC   D2A24352   2.023  42.852   8.320
 1719POPC   C3A24353   1.666  42.883   7.963
 1719POPC   C4A24354   1.835  42.996   7.507
 1719POPC   C1B24355   2.056  43.448   8.847
 1719POPC   C2B24356   1.836  43.362   8.458
 1719POPC   C3B24357   1.977  43.272   8.030
 1719POPC   C4B24358   2.200  43.507   7.746
 1720POPC   NC324359  31.831  29.905   9.296
 1720POPC   PO424360  32.420  30.007   9.571
 1720POPC   GL124361  32.339  29.938   9.177
 1720POPC   GL224362  32.398  30.269   9.114
 1720POPC   C1A24363  32.230  29.956   8.726
 1720POPC   D2A24364  32.414  29.883   8.320
 1720POPC   C3A24365  32.108  29.839   7.932
 1720POPC   C4A24366  32.285  29.866   7.493
 1720POPC   C1B24367  32.538  30.358   8.723
 1720POPC   C2B24368  32.371  30.401   8.369
 1720POPC   C3B24369  32.372  30.248   7.977
 1720POPC   C4B24370  32.441  30.374   7.608
 1721POPC   NC324371  22.360  29.772   9.575
 1721POPC   PO424372  21.788  30.105   9.509
 1721POPC   GL124373  21.994  30.074   9.105
 1721POPC   GL224374  22.357  30.069   9.143
 1721POPC   C1A24375  21.834  29.854   8.719
 1721POPC   D2A24376  21.846  29.574   8.366
 1721POPC   C3A24377  21.903  29.861   8.030
 1721POPC   C4A24378  21.950  30.111   7.652
 1721POPC   C1B24379  22.360  29.832   8.765
 1721POPC   C2B24380  22.339  29.768   8.323
 1721POPC   C3B24381  22.460  29.797   7.918
 1721POPC   C4B24382  22.543  29.463   7.636
 1722POPC   NC324383   4.882  20.331   9.315
 1722POPC   PO424384   4.816  19.657   9.420
 1722POPC   GL124385   5.023  19.860   9.092
 1722POPC   GL224386   5.351  19.992   9.205
 1722POPC   C1A24387   5.040  19.971   8.659
 1722POPC   D2A24388   5.350  19.758   8.384
 1722POPC   C3A24389   5.183  19.628   7.972
 1722POPC   C4A24390   4.765  19.744   7.796
 1722POPC   C1B24391   5.519  20.099   8.790
 1722POPC   C2B24392   5.379  20.269   8.368
 1722POPC   C3B24393   5.399  20.093   7.948
 1722POPC   C4B24394   5.409  19.840   7.561
 1723POPC   NC324395  35.048   6.982   9.565
 1723POPC   PO424396  35.487   6.500   9.601
 1723POPC   GL124397  35.242   6.610   9.259
 1723POPC   GL224398  35.463   6.907   9.225
 1723POPC   C1A24399  35.330   6.541   8.839
 1723POPC   D2A24400  35.161   6.547   8.431
 1723POPC   C3A24401  35.428   6.397   8.148
 1723POPC   C4A24402  35.407   6.511   7.766
 1723POPC   C1B24403  35.420   7.080   8.820
 1723POPC   C2B24404  35.260   7.075   8.405
 1723POPC   C3B24405  35.197   6.930   8.009
 1723POPC   C4B24406  35.559   6.989   7.785
 1724POPC   NC324407  27.420  23.928   9.861
 1724POPC   PO424408  28.000  23.618   9.516
 1724POPC   GL124409  27.612  23.551   9.246
 1724POPC   GL224410  27.290  23.632   9.435
 1724POPC   C1A24411  27.508  23.527   8.787
 1724POPC   D2A24412  27.692  23.754   8.447
 1724POPC   C3A24413  27.676  23.599   8.037
 1724POPC   C4A24414  27.926  23.727   7.724
 1724POPC   C1B24415  27.216  23.862   9.054
 1724POPC   C2B24416  27.153  23.895   8.612
 1724POPC   C3B24417  27.320  24.060   8.265
 1724POPC   C4B24418  27.297  23.890   7.877
 1725POPC   NC324419  13.024  32.047   9.543
 1725POPC   PO424420  12.525  32.441   9.525
 1725POPC   GL124421  12.758  32.359   9.159
 1725POPC   GL224422  13.094  32.454   9.256
 1725POPC   C1A24423  12.743  32.115   8.751
 1725POPC   D2A24424  12.605  31.924   8.326
 1725POPC   C3A24425  12.815  32.179   7.989
 1725POPC   C4A24426  12.620  32.536   7.761
 1725POPC   C1B24427  13.118  32.479   8.815
 1725POPC   C2B24428  13.267  32.408   8.429
 1725POPC   C3B24429  13.303  32.339   8.014
 1725POPC   C4B24430  13.151  32.565   7.669
 1726POPC   NC324431  18.385  37.248   9.399
 1726POPC   PO424432  18.419  37.922   9.519
 1726POPC   GL124433  18.322  37.705   9.161
 1726POPC   GL224434  17.994  37.532   9.115
 1726POPC   C1A24435  18.360  37.535   8.759
 1726POPC   D2A24436  18.429  37.695   8.359
 1726POPC   C3A24437  18.423  37.418   8.027
 1726POPC   C4A24438  18.426  37.644   7.670
 1726POPC   C1B24439  17.935  37.890   8.887
 1726POPC   C2B24440  17.870  37.827   8.473
 1726POPC   C3B24441  18.000  37.731   8.061
 1726POPC   C4B24442  18.001  37.889   7.662
 1727POPC   NC324443  26.160  24.031   9.490
 1727POPC   PO424444  25.642  23.648   9.729
 1727POPC   GL124445  25.914  23.526   9.331
 1727POPC   GL224446  26.272  23.625   9.190
 1727POPC   C1A24447  25.894  23.556   8.863
 1727POPC   D2A24448  26.106  23.654   8.453
 1727POPC   C3A24449  25.883  23.921   8.151
 1727POPC   C4A24450  25.884  23.682   7.773
 1727POPC   C1B24451  26.250  23.962   8.834
 1727POPC   C2B24452  26.285  24.145   8.402
 1727POPC   C3B24453  26.365  23.988   7.988
 1727POPC   C4B24454  26.268  23.965   7.545
 1728POPC   NC324455  33.952  38.979   9.425
 1728POPC   PO424456  33.691  39.573   9.460
 1728POPC   GL124457  33.631  39.488   9.076
 1728POPC   GL224458  33.700  39.143   9.014
 1728POPC   C1A24459  33.598  39.489   8.665
 1728POPC   D2A24460  33.804  39.291   8.345
 1728POPC   C3A24461  33.668  39.368   7.942
 1728POPC   C4A24462  33.735  39.407   7.492
 1728POPC   C1B24463  34.078  39.309   8.808
 1728POPC   C2B24464  34.259  39.094   8.457
 1728POPC   C3B24465  34.093  38.955   8.065
 1728POPC   C4B24466  34.147  39.145   7.679
 1729POPC   NC324467  13.295  13.445   9.547
 1729POPC   PO424468  12.658  13.762   9.533
 1729POPC   GL124469  12.671  13.542   9.145
 1729POPC   GL224470  12.953  13.319   9.158
 1729POPC   C1A24471  12.795  13.578   8.736
 1729POPC   D2A24472  12.910  13.430   8.346
 1729POPC   C3A24473  12.922  13.644   7.940
 1729POPC   C4A24474  13.127  13.754   7.553
 1729POPC   C1B24475  13.075  13.139   8.753
 1729POPC   C2B24476  13.091  12.966   8.333
 1729POPC   C3B24477  13.081  13.179   7.915
 1729POPC   C4B24478  13.059  13.256   7.440
 1730POPC   NC324479   7.225   0.425   9.548
 1730POPC   PO424480   7.748   0.820   9.523
 1730POPC   GL124481   7.626   0.446   9.267
 1730POPC   GL224482   7.359   0.607   9.089
 1730POPC   C1A24483   7.688   0.196   8.892
 1730POPC   D2A24484   7.493   0.273   8.488
 1730POPC   C3A24485   7.582   0.262   8.032
 1730POPC   C4A24486   7.207   0.167   7.759
 1730POPC   C1B24487   7.299   0.739   8.685
 1730POPC   C2B24488   7.366   0.703   8.250
 1730POPC   C3B24489   7.308   0.669   7.827
 1730POPC   C4B24490   7.431   0.877   7.468
 1731POPC   NC324491  43.085  33.691   9.506
 1731POPC   PO424492  43.325  34.306   9.610
 1731POPC   GL124493  43.235  34.038   9.177
 1731POPC   GL224494  43.417  33.699   9.125
 1731POPC   C1A24495  43.053  34.048   8.733
 1731POPC   D2A24496  42.941  34.255   8.323
 1731POPC   C3A24497  42.995  33.992   8.000
 1731POPC   C4A24498  43.052  33.773   7.637
 1731POPC   C1B24499  43.559  33.922   8.751
 1731POPC   C2B24500  43.427  33.997   8.320
 1731POPC   C3B24501  43.503  33.812   7.920
 1731POPC   C4B24502  43.542  33.815   7.483
 1732POPC   NC324503  10.523  14.467   9.753
 1732POPC   PO424504  11.037  14.333   9.341
 1732POPC   GL124505  10.568  14.445   9.195
 1732POPC   GL224506  10.269  14.222   9.337
 1732POPC   C1A24507  10.375  14.742   8.836
 1732POPC   D2A24508  10.231  14.854   8.373
 1732POPC   C3A24509  10.458  14.572   8.049
 1732POPC   C4A24510  10.742  14.432   7.702
 1732POPC   C1B24511  10.170  14.215   8.885
 1732POPC   C2B24512  10.081  14.045   8.462
 1732POPC   C3B24513  10.050  14.248   8.046
 1732POPC   C4B24514  10.314  14.169   7.705
 1733POPC   NC324515  23.820  25.066   9.622
 1733POPC   PO424516  24.245  25.418   9.510
 1733POPC   GL124517  24.060  25.096   9.157
 1733POPC   GL224518  23.658  25.026   9.114
 1733POPC   C1A24519  23.927  25.123   8.711
 1733POPC   D2A24520  23.794  25.344   8.359
 1733POPC   C3A24521  23.865  25.185   7.963
 1733POPC   C4A24522  23.888  25.416   7.542
 1733POPC   C1B24523  23.412  25.037   8.673
 1733POPC   C2B24524  23.388  25.071   8.200
 1733POPC   C3B24525  23.264  25.108   7.771
 1733POPC   C4B24526  22.916  25.271   7.454
 1734POPC   NC324527  37.445  26.600   9.392
 1734POPC   PO424528  38.068  26.929   9.446
 1734POPC   GL124529  37.765  26.869   9.111
 1734POPC   GL224530  37.696  27.168   8.964
 1734POPC   C1A24531  37.747  26.550   8.756
 1734POPC   D2A24532  37.687  26.444   8.316
 1734POPC   C3A24533  37.634  26.866   8.140
 1734POPC   C4A24534  37.497  26.951   7.719
 1734POPC   C1B24535  37.388  26.922   8.734
 1734POPC   C2B24536  37.227  26.667   8.408
 1734POPC   C3B24537  37.272  26.542   7.980
 1734POPC   C4B24538  37.086  26.648   7.596
 1735POPC   NC324539  11.192  11.008   9.565
 1735POPC   PO424540  11.709  11.490   9.530
 1735POPC   GL124541  11.530  11.217   9.245
 1735POPC   GL224542  11.248  11.382   9.153
 1735POPC   C1A24543  11.577  11.162   8.831
 1735POPC   D2A24544  11.410  11.446   8.550
 1735POPC   C3A24545  11.376  11.367   8.114
 1735POPC   C4A24546  11.549  11.259   7.720
 1735POPC   C1B24547  11.057  11.654   8.852
 1735POPC   C2B24548  10.927  11.593   8.403
 1735POPC   C3B24549  10.954  11.702   7.974
 1735POPC   C4B24550  11.228  11.630   7.664
 1736POPC   NC324551  12.226   0.125   9.766
 1736POPC   PO424552  11.961  44.660   9.394
 1736POPC   GL124553  11.978  44.661   8.999
 1736POPC   GL224554  12.320  44.701   8.955
 1736POPC   C1A24555  12.026  44.636   8.554
 1736POPC   D2A24556  12.386  44.793   8.364
 1736POPC   C3A24557  12.247  44.937   7.970
 1736POPC   C4A24558  11.852  44.771   7.858
 1736POPC   C1B24559  12.397  44.343   8.681
 1736POPC   C2B24560  12.429  44.143   8.297
 1736POPC   C3B24561  12.359  44.426   7.976
 1736POPC   C4B24562  12.223  44.541   7.587
 1737POPC   NC324563  43.526  43.532   9.482
 1737POPC   PO424564  43.528  44.230   9.551
 1737POPC   GL124565  43.861  44.139   9.214
 1737POPC   GL224566  43.887  43.778   9.188
 1737POPC   C1A24567  43.949  44.037   8.745
 1737POPC   D2A24568  44.101  44.092   8.317
 1737POPC   C3A24569  43.814  44.091   7.999
 1737POPC   C4A24570  43.527  43.774   7.929
 1737POPC   C1B24571  43.905  43.543   8.842
 1737POPC   C2B24572  43.783  43.623   8.422
 1737POPC   C3B24573  43.999  43.584   8.062
 1737POPC   C4B24574  44.102  43.728   7.700
 1738POPC   NC324575   4.778   5.276   9.547
 1738POPC   PO424576   5.195   4.794   9.617
 1738POPC   GL124577   5.315   4.929   9.175
 1738POPC   GL224578   5.149   5.226   9.192
 1738POPC   C1A24579   5.149   4.984   8.748
 1738POPC   D2A24580   5.139   5.365   8.465
 1738POPC   C3A24581   5.289   5.358   8.039
 1738POPC   C4A24582   5.129   5.075   7.729
 1738POPC   C1B24583   4.835   5.394   8.885
 1738POPC   C2B24584   4.657   5.555   8.446
 1738POPC   C3B24585   4.767   5.344   8.027
 1738POPC   C4B24586   4.839   5.423   7.541
 1739POPC   NC324587  19.332  12.984   9.569
 1739POPC   PO424588  18.814  12.645   9.501
 1739POPC   GL124589  19.098  12.707   9.204
 1739POPC   GL224590  19.335  12.472   9.326
 1739POPC   C1A24591  19.128  12.887   8.788
 1739POPC   D2A24592  18.949  12.764   8.396
 1739POPC   C3A24593  18.845  13.096   8.098
 1739POPC   C4A24594  19.126  13.054   7.761
 1739POPC   C1B24595  19.529  12.591   8.933
 1739POPC   C2B24596  19.434  12.532   8.491
 1739POPC   C3B24597  19.361  12.708   8.075
 1739POPC   C4B24598  19.328  12.571   7.632
 1740POPC   NC324599  17.463  21.907   9.565
 1740POPC   PO424600  17.727  22.500   9.641
 1740POPC   GL124601  17.719  22.260   9.268
 1740POPC   GL224602  17.380  22.276   9.153
 1740POPC   C1A24603  17.772  22.251   8.808
 1740POPC   D2A24604  17.528  22.082   8.444
 1740POPC   C3A24605  17.783  22.101   8.070
 1740POPC   C4A24606  17.708  22.233   7.658
 1740POPC   C1B24607  17.128  22.401   8.787
 1740POPC   C2B24608  17.073  22.376   8.369
 1740POPC   C3B24609  17.350  22.411   8.008
 1740POPC   C4B24610  17.240  22.460   7.581
 1741POPC   NC324611   2.402   5.447   9.517
 1741POPC   PO424612   2.380   6.199   9.471
 1741POPC   GL124613   2.038   6.024   9.201
 1741POPC   GL224614   1.701   6.062   9.070
 1741POPC   C1A24615   2.071   5.902   8.772
 1741POPC   D2A24616   2.067   6.092   8.388
 1741POPC   C3A24617   1.839   5.948   8.037
 1741POPC   C4A24618   2.027   5.816   7.669
 1741POPC   C1B24619   1.615   5.669   8.826
 1741POPC   C2B24620   1.611   5.615   8.384
 1741POPC   C3B24621   1.613   5.504   7.942
 1741POPC   C4B24622   1.597   5.609   7.515
 1742POPC   NC324623   1.469  20.833   9.510
 1742POPC   PO424624   1.546  20.079   9.460
 1742POPC   GL124625   1.266  20.256   9.110
 1742POPC   GL224626   1.111  20.613   9.169
 1742POPC   C1A24627   1.258  20.375   8.663
 1742POPC   D2A24628   1.510  20.726   8.452
 1742POPC   C3A24629   1.447  20.770   8.028
 1742POPC   C4A24630   1.228  20.692   7.664
 1742POPC   C1B24631   0.876  20.695   8.776
 1742POPC   C2B24632   1.006  20.713   8.339
 1742POPC   C3B24633   0.849  20.866   7.951
 1742POPC   C4B24634   0.533  21.031   7.655
 1743POPC   NC324635   6.942  19.528   9.370
 1743POPC   PO424636   6.929  20.175   9.313
 1743POPC   GL124637   6.644  20.039   9.024
 1743POPC   GL224638   6.466  19.719   9.140
 1743POPC   C1A24639   6.783  19.845   8.627
 1743POPC   D2A24640   6.617  19.599   8.268
 1743POPC   C3A24641   6.860  19.747   7.908
 1743POPC   C4A24642   6.799  20.190   7.706
 1743POPC   C1B24643   6.302  19.790   8.734
 1743POPC   C2B24644   6.375  20.074   8.372
 1743POPC   C3B24645   6.389  19.964   7.933
 1743POPC   C4B24646   6.403  19.578   7.742
 1744POPC   NC324647  13.988  44.850   9.497
 1744POPC   PO424648  13.475  44.450   9.493
 1744POPC   GL124649  13.661  44.649   9.152
 1744POPC   GL224650  13.974  44.576   9.039
 1744POPC   C1A24651  13.561  44.656   8.720
 1744POPC   D2A24652  13.809  44.659   8.352
 1744POPC   C3A24653  13.581  44.615   8.001
 1744POPC   C4A24654  13.558  44.347   7.655
 1744POPC   C1B24655  13.980  44.962   8.769
 1744POPC   C2B24656  14.070   0.120   8.359
 1744POPC   C3B24657  14.236  44.915   8.004
 1744POPC   C4B24658  14.036  44.595   7.716
 1745POPC   NC324659   3.224  17.934   9.382
 1745POPC   PO424660   3.540  18.562   9.448
 1745POPC   GL124661   3.513  18.300   9.131
 1745POPC   GL224662   3.183  18.389   9.089
 1745POPC   C1A24663   3.668  18.186   8.736
 1745POPC   D2A24664   3.400  18.246   8.389
 1745POPC   C3A24665   3.531  18.020   8.060
 1745POPC   C4A24666   3.888  18.072   7.799
 1745POPC   C1B24667   3.395  18.623   8.748
 1745POPC   C2B24668   3.729  18.623   8.423
 1745POPC   C3B24669   3.666  18.508   8.000
 1745POPC   C4B24670   3.271  18.569   7.783
 1746POPC   NC324671  42.142  33.839   9.549
 1746POPC   PO424672  42.766  34.135   9.443
 1746POPC   GL124673  42.405  34.027   9.169
 1746POPC   GL224674  42.411  33.637   9.175
 1746POPC   C1A24675  42.059  33.856   8.860
 1746POPC   D2A24676  41.945  33.612   8.430
 1746POPC   C3A24677  42.096  33.741   7.984
 1746POPC   C4A24678  42.113  33.648   7.510
 1746POPC   C1B24679  42.572  33.777   8.774
 1746POPC   C2B24680  42.708  33.802   8.384
 1746POPC   C3B24681  42.703  33.583   8.021
 1746POPC   C4B24682  42.548  33.792   7.704
 1747POPC   NC324683  21.575   6.927   9.780
 1747POPC   PO424684  22.180   6.839   9.506
 1747POPC   GL124685  22.143   6.562   9.145
 1747POPC   GL224686  21.866   6.357   9.220
 1747POPC   C1A24687  22.138   6.552   8.683
 1747POPC   D2A24688  22.055   6.766   8.277
 1747POPC   C3A24689  22.425   6.838   8.023
 1747POPC   C4A24690  22.541   6.432   7.860
 1747POPC   C1B24691  21.814   6.175   8.803
 1747POPC   C2B24692  21.751   6.313   8.367
 1747POPC   C3B24693  21.976   6.299   7.980
 1747POPC   C4B24694  22.045   6.645   7.728
 1748POPC   NC324695  27.257  17.219   9.388
 1748POPC   PO424696  27.284  17.886   9.472
 1748POPC   GL124697  27.614  17.737   9.160
 1748POPC   GL224698  27.593  17.385   9.065
 1748POPC   C1A24699  27.881  17.741   8.776
 1748POPC   D2A24700  27.997  17.775   8.325
 1748POPC   C3A24701  27.697  17.634   8.026
 1748POPC   C4A24702  27.262  17.766   7.863
 1748POPC   C1B24703  27.803  17.155   8.760
 1748POPC   C2B24704  27.860  17.263   8.357
 1748POPC   C3B24705  27.764  17.076   7.952
 1748POPC   C4B24706  27.439  17.280   7.784
 1749POPC   NC324707  25.126  44.187   9.380
 1749POPC   PO424708  25.359  43.531   9.580
 1749POPC   GL124709  25.391  43.771   9.250
 1749POPC   GL224710  25.641  44.060   9.364
 1749POPC   C1A24711  25.062  43.763   8.900
 1749POPC   D2A24712  25.002  43.878   8.477
 1749POPC   C3A24713  24.943  43.600   8.123
 1749POPC   C4A24714  24.991  43.836   7.760
 1749POPC   C1B24715  25.660  44.022   8.916
 1749POPC   C2B24716  25.502  44.000   8.507
 1749POPC   C3B24717  25.318  44.037   8.104
 1749POPC   C4B24718  25.486  44.109   7.700
 1750POPC   NC324719   8.718  43.150   9.569
 1750POPC   PO424720   9.205  43.588   9.724
 1750POPC   GL124721   9.040  43.435   9.277
 1750POPC   GL224722   8.680  43.526   9.215
 1750POPC   C1A24723   9.111  43.234   8.842
 1750POPC   D2A24724   8.868  43.025   8.512
 1750POPC   C3A24725   8.990  43.091   8.093
 1750POPC   C4A24726   9.170  43.016   7.693
 1750POPC   C1B24727   8.588  43.389   8.801
 1750POPC   C2B24728   8.453  43.327   8.375
 1750POPC   C3B24729   8.481  43.088   8.002
 1750POPC   C4B24730   8.696  43.137   7.608
 1751POPC   NC324731  22.839   5.490   9.506
 1751POPC   PO424732  23.134   4.785   9.600
 1751POPC   GL124733  23.039   5.085   9.268
 1751POPC   GL224734  22.733   5.195   9.103
 1751POPC   C1A24735  23.172   5.110   8.841
 1751POPC   D2A24736  22.895   5.198   8.489
 1751POPC   C3A24737  23.133   5.097   8.121
 1751POPC   C4A24738  22.855   5.054   7.754
 1751POPC   C1B24739  22.594   5.515   8.807
 1751POPC   C2B24740  22.647   5.642   8.368
 1751POPC   C3B24741  22.723   5.539   7.918
 1751POPC   C4B24742  22.804   5.447   7.457
 1752POPC   NC324743  16.595  32.994   9.657
 1752POPC   PO424744  17.212  33.200   9.532
 1752POPC   GL124745  17.031  32.947   9.195
 1752POPC   GL224746  16.636  32.992   9.152
 1752POPC   C1A24747  16.995  32.989   8.750
 1752POPC   D2A24748  16.703  32.900   8.452
 1752POPC   C3A24749  16.752  32.721   8.054
 1752POPC   C4A24750  16.828  32.806   7.589
 1752POPC   C1B24751  16.717  33.374   8.935
 1752POPC   C2B24752  16.706  33.422   8.504
 1752POPC   C3B24753  16.659  33.267   8.102
 1752POPC   C4B24754  16.579  33.235   7.703
 1753POPC   NC324755   8.144  10.595   9.478
 1753POPC   PO424756   8.596  10.172   9.671
 1753POPC   GL124757   8.533  10.403   9.223
 1753POPC   GL224758   8.579  10.127   9.043
 1753POPC   C1A24759   8.236  10.639   8.864
 1753POPC   D2A24760   8.170  10.717   8.443
 1753POPC   C3A24761   7.946  10.464   8.183
 1753POPC   C4A24762   8.018  10.629   7.774
 1753POPC   C1B24763   8.606  10.349   8.690
 1753POPC   C2B24764   8.654  10.330   8.288
 1753POPC   C3B24765   8.423  10.446   7.996
 1753POPC   C4B24766   8.182  10.166   7.742
 1754POPC   NC324767  37.385  25.843   9.444
 1754POPC   PO424768  37.779  26.266   9.362
 1754POPC   GL124769  37.605  26.093   9.025
 1754POPC   GL224770  37.326  26.351   8.971
 1754POPC   C1A24771  37.916  26.066   8.681
 1754POPC   D2A24772  38.059  26.049   8.254
 1754POPC   C3A24773  37.838  26.065   7.889
 1754POPC   C4A24774  37.579  25.819   7.657
 1754POPC   C1B24775  37.347  26.163   8.599
 1754POPC   C2B24776  37.569  25.889   8.350
 1754POPC   C3B24777  37.373  26.069   8.049
 1754POPC   C4B24778  37.163  26.143   7.665
 1755POPC   NC324779  11.316  27.390   9.637
 1755POPC   PO424780  11.776  27.231   9.311
 1755POPC   GL124781  11.418  27.485   9.121
 1755POPC   GL224782  11.072  27.390   9.142
 1755POPC   C1A24783  11.222  27.661   8.728
 1755POPC   D2A24784  11.237  27.497   8.306
 1755POPC   C3A24785  11.486  27.674   7.988
 1755POPC   C4A24786  11.372  27.974   7.726
 1755POPC   C1B24787  10.815  27.361   8.795
 1755POPC   C2B24788  10.762  27.585   8.467
 1755POPC   C3B24789  10.788  27.392   8.097
 1755POPC   C4B24790  11.036  27.562   7.789
 1756POPC   NC324791   1.147  24.205   9.582
 1756POPC   PO424792   1.212  24.906   9.483
 1756POPC   GL124793   1.244  24.503   9.184
 1756POPC   GL224794   1.438  24.193   9.136
 1756POPC   C1A24795   0.990  24.364   8.826
 1756POPC   D2A24796   0.902  24.510   8.426
 1756POPC   C3A24797   1.160  24.338   8.123
 1756POPC   C4A24798   1.027  24.383   7.718
 1756POPC   C1B24799   1.492  24.347   8.692
 1756POPC   C2B24800   1.668  24.403   8.295
 1756POPC   C3B24801   1.595  24.321   7.878
 1756POPC   C4B24802   1.406  24.011   7.662
 1757POPC   NC324803  30.819  32.985   9.672
 1757POPC   PO424804  30.420  32.491   9.534
 1757POPC   GL124805  30.662  32.775   9.222
 1757POPC   GL224806  30.660  33.150   9.180
 1757POPC   C1A24807  30.869  32.832   8.790
 1757POPC   D2A24808  30.966  32.811   8.333
 1757POPC   C3A24809  30.668  32.766   7.964
 1757POPC   C4A24810  30.325  32.788   7.632
 1757POPC   C1B24811  30.650  33.284   8.703
 1757POPC   C2B24812  30.592  33.251   8.230
 1757POPC   C3B24813  30.576  33.249   7.766
 1757POPC   C4B24814  30.902  33.328   7.446
 1758POPC   NC324815  20.979  38.470   9.487
 1758POPC   PO424816  21.626  38.307   9.468
 1758POPC   GL124817  21.451  38.538   9.111
 1758POPC   GL224818  21.111  38.736   9.063
 1758POPC   C1A24819  21.647  38.433   8.706
 1758POPC   D2A24820  21.490  38.352   8.279
 1758POPC   C3A24821  21.743  38.428   7.893
 1758POPC   C4A24822  21.569  38.317   7.450
 1758POPC   C1B24823  21.172  38.599   8.640
 1758POPC   C2B24824  21.286  38.853   8.296
 1758POPC   C3B24825  21.339  38.723   7.896
 1758POPC   C4B24826  21.332  38.763   7.457
 1759POPC   NC324827  32.803  40.287   9.490
 1759POPC   PO424828  32.745  39.628   9.545
 1759POPC   GL124829  32.889  39.865   9.175
 1759POPC   GL224830  33.154  39.696   9.024
 1759POPC   C1A24831  32.998  40.149   8.807
 1759POPC   D2A24832  32.858  40.007   8.373
 1759POPC   C3A24833  33.133  40.101   8.003
 1759POPC   C4A24834  32.977  40.229   7.633
 1759POPC   C1B24835  33.135  39.684   8.653
 1759POPC   C2B24836  33.316  39.757   8.333
 1759POPC   C3B24837  33.203  39.595   7.985
 1759POPC   C4B24838  33.284  39.756   7.610
 1760POPC   NC324839   0.529  11.691   9.628
 1760POPC   PO424840   0.077  11.230   9.433
 1760POPC   GL124841   0.426  11.070   9.183
 1760POPC   GL224842   0.517  11.403   9.166
 1760POPC   C1A24843   0.640  11.116   8.759
 1760POPC   D2A24844   0.538  11.421   8.440
 1760POPC   C3A24845   0.599  11.338   8.020
 1760POPC   C4A24846   0.416  10.983   7.828
 1760POPC   C1B24847   0.768  11.620   8.860
 1760POPC   C2B24848   0.968  11.720   8.471
 1760POPC   C3B24849   0.864  11.810   8.044
 1760POPC   C4B24850   0.520  11.802   7.756
 1761POPC   NC324851   2.813  19.602   9.418
 1761POPC   PO424852   2.522  20.291   9.421
 1761POPC   GL124853   2.693  20.062   9.117
 1761POPC   GL224854   2.430  19.803   9.121
 1761POPC   C1A24855   2.939  19.948   8.724
 1761POPC   D2A24856   2.764  19.871   8.337
 1761POPC   C3A24857   2.929  19.975   7.932
 1761POPC   C4A24858   3.016  19.557   7.691
 1761POPC   C1B24859   2.404  20.050   8.722
 1761POPC   C2B24860   2.253  20.078   8.329
 1761POPC   C3B24861   2.405  19.900   7.983
 1761POPC   C4B24862   2.573  19.827   7.613
 1762POPC   NC324863  13.474  43.993   9.472
 1762POPC   PO424864  14.150  44.321   9.493
 1762POPC   GL124865  13.889  44.080   9.146
 1762POPC   GL224866  13.554  44.184   9.016
 1762POPC   C1A24867  13.712  43.726   8.867
 1762POPC   D2A24868  13.413  43.790   8.550
 1762POPC   C3A24869  13.648  43.812   8.164
 1762POPC   C4A24870  13.568  43.851   7.729
 1762POPC   C1B24871  13.814  44.211   8.662
 1762POPC   C2B24872  14.114  44.117   8.369
 1762POPC   C3B24873  14.016  44.122   7.931
 1762POPC   C4B24874  13.983  44.078   7.494
 1763POPC   NC324875  41.192  21.894   9.418
 1763POPC   PO424876  40.946  22.511   9.486
 1763POPC   GL124877  40.775  22.256   9.185
 1763POPC   GL224878  40.698  21.906   9.252
 1763POPC   C1A24879  40.913  22.106   8.812
 1763POPC   D2A24880  40.767  21.916   8.474
 1763POPC   C3A24881  40.936  22.066   8.168
 1763POPC   C4A24882  40.780  22.153   7.821
 1763POPC   C1B24883  40.542  21.707   8.875
 1763POPC   C2B24884  40.358  21.605   8.472
 1763POPC   C3B24885  40.420  21.840   8.083
 1763POPC   C4B24886  40.445  21.799   7.631
 1764POPC   NC324887   4.879   0.601   9.518
 1764POPC   PO424888   5.336   0.197   9.465
 1764POPC   GL124889   5.244   0.442   9.151
 1764POPC   GL224890   5.505   0.690   9.148
 1764POPC   C1A24891   4.984   0.364   8.786
 1764POPC   D2A24892   5.092   0.124   8.410
 1764POPC   C3A24893   5.084   0.291   7.987
 1764POPC   C4A24894   4.901   0.285   7.556
 1764POPC   C1B24895   5.359   0.703   8.718
 1764POPC   C2B24896   5.154   0.674   8.338
 1764POPC   C3B24897   5.240   0.777   7.916
 1764POPC   C4B24898   5.069   0.759   7.514
 1765POPC   NC324899  43.184   2.504   9.560
 1765POPC   PO424900  42.806   3.062   9.707
 1765POPC   GL124901  42.893   2.821   9.281
 1765POPC   GL224902  42.784   2.501   9.174
 1765POPC   C1A24903  43.172   2.792   8.862
 1765POPC   D2A24904  43.040   3.033   8.447
 1765POPC   C3A24905  43.290   3.079   8.047
 1765POPC   C4A24906  43.635   2.886   7.821
 1765POPC   C1B24907  42.671   2.792   8.825
 1765POPC   C2B24908  42.858   2.553   8.487
 1765POPC   C3B24909  43.127   2.609   8.148
 1765POPC   C4B24910  43.247   2.492   7.756
 1766POPC   NC324911  44.997   5.759   9.727
 1766POPC   PO424912   0.602   6.054   9.564
 1766POPC   GL124913   0.415   5.984   9.175
 1766POPC   GL224914   0.124   6.081   9.165
 1766POPC   C1A24915   0.630   5.923   8.798
 1766POPC   D2A24916   0.685   5.596   8.509
 1766POPC   C3A24917   0.747   5.732   8.102
 1766POPC   C4A24918   0.562   5.822   7.728
 1766POPC   C1B24919   0.104   5.939   8.732
 1766POPC   C2B24920   0.233   5.778   8.300
 1766POPC   C3B24921   0.158   5.578   7.879
 1766POPC   C4B24922  44.988   5.749   7.454
 1767POPC   NC324923  10.372  15.456   9.736
 1767POPC   PO424924  10.689  14.882   9.819
 1767POPC   GL124925  10.689  15.177   9.417
 1767POPC   GL224926  10.331  15.233   9.268
 1767POPC   C1A24927  10.745  15.173   8.957
 1767POPC   D2A24928  10.585  15.172   8.531
 1767POPC   C3A24929  10.776  15.218   8.102
 1767POPC   C4A24930  10.594  14.972   7.765
 1767POPC   C1B24931  10.113  15.197   8.866
 1767POPC   C2B24932  10.127  15.409   8.466
 1767POPC   C3B24933  10.273  15.321   8.050
 1767POPC   C4B24934  10.519  15.518   7.746
 1768POPC   NC324935  28.275  11.082   9.488
 1768POPC   PO424936  28.657  11.665   9.314
 1768POPC   GL124937  28.569  11.289   9.111
 1768POPC   GL224938  28.234  11.452   9.094
 1768POPC   C1A24939  28.358  11.076   8.784
 1768POPC   D2A24940  28.168  10.958   8.416
 1768POPC   C3A24941  28.460  10.941   8.139
 1768POPC   C4A24942  28.628  11.194   7.828
 1768POPC   C1B24943  28.461  11.590   8.703
 1768POPC   C2B24944  28.516  11.429   8.307
 1768POPC   C3B24945  28.170  11.347   8.064
 1768POPC   C4B24946  28.221  11.501   7.709
 1769POPC   NC324947  29.569  16.904   9.607
 1769POPC   PO424948  30.208  16.560   9.771
 1769POPC   GL124949  29.848  16.533   9.381
 1769POPC   GL224950  29.870  16.883   9.203
 1769POPC   C1A24951  29.796  16.484   8.892
 1769POPC   D2A24952  29.913  16.383   8.461
 1769POPC   C3A24953  30.085  16.705   8.172
 1769POPC   C4A24954  30.232  16.539   7.777
 1769POPC   C1B24955  29.666  16.972   8.778
 1769POPC   C2B24956  29.590  16.813   8.355
 1769POPC   C3B24957  29.571  16.984   7.928
 1769POPC   C4B24958  29.929  16.929   7.674
 1770POPC   NC324959  43.865   3.992  10.079
 1770POPC   PO424960  44.006   4.338   9.538
 1770POPC   GL124961  43.836   4.393   9.152
 1770POPC   GL224962  43.508   4.561   9.183
 1770POPC   C1A24963  43.866   4.149   8.781
 1770POPC   D2A24964  44.072   3.985   8.402
 1770POPC   C3A24965  44.147   4.323   8.111
 1770POPC   C4A24966  44.154   4.405   7.690
 1770POPC   C1B24967  43.640   4.646   8.760
 1770POPC   C2B24968  43.755   4.469   8.397
 1770POPC   C3B24969  43.704   4.582   8.011
 1770POPC   C4B24970  43.653   4.382   7.648
 1771POPC   NC324971  19.297  17.231   9.484
 1771POPC   PO424972  18.806  17.690   9.652
 1771POPC   GL124973  18.969  17.618   9.241
 1771POPC   GL224974  18.915  17.279   9.128
 1771POPC   C1A24975  19.218  17.610   8.849
 1771POPC   D2A24976  19.038  17.630   8.437
 1771POPC   C3A24977  19.144  17.419   8.070
 1771POPC   C4A24978  19.251  17.812   7.883
 1771POPC   C1B24979  19.054  17.135   8.702
 1771POPC   C2B24980  19.010  16.920   8.295
 1771POPC   C3B24981  18.875  17.024   7.864
 1771POPC   C4B24982  18.914  17.342   7.557
 1772POPC   NC324983  31.066   7.146   9.375
 1772POPC   PO424984  30.516   7.254   9.763
 1772POPC   GL124985  30.682   7.400   9.232
 1772POPC   GL224986  30.697   7.088   9.028
 1772POPC   C1A24987  30.666   7.568   8.781
 1772POPC   D2A24988  30.513   7.737   8.347
 1772POPC   C3A24989  30.632   7.565   7.914
 1772POPC   C4A24990  30.993   7.329   7.778
 1772POPC   C1B24991  30.524   6.998   8.641
 1772POPC   C2B24992  30.560   7.210   8.258
 1772POPC   C3B24993  30.584   7.011   7.845
 1772POPC   C4B24994  30.550   7.163   7.421
 1773POPC   NC324995  32.387  44.396   9.578
 1773POPC   PO424996  31.831  44.764   9.423
 1773POPC   GL124997  32.247  44.794   9.238
 1773POPC   GL224998  32.209  44.477   9.113
 1773POPC   C1A24999  32.504  44.892   8.833
 1773POPC   D2A25000  32.332  44.886   8.389
 1773POPC   C3A25001  32.482  44.919   7.970
 1773POPC   C4A25002  32.037  44.954   7.830
 1773POPC   C1B25003  32.061  44.646   8.763
 1773POPC   C2B25004  32.103  44.420   8.391
 1773POPC   C3B25005  32.248  44.479   7.994
 1773POPC   C4B25006  32.049  44.482   7.633
 1774POPC   NC325007  11.295  44.424   9.633
 1774POPC   PO425008  11.436   0.089   9.601
 1774POPC   GL125009  11.505  44.828   9.191
 1774POPC   GL225010  11.464  44.499   9.150
 1774POPC   C1A25011  11.574  44.774   8.729
 1774POPC   D2A25012  11.554  44.510   8.376
 1774POPC   C3A25013  11.381  44.689   8.031
 1774POPC   C4A25014  11.131   0.024   7.970
 1774POPC   C1B25015  11.143  44.538   8.816
 1774POPC   C2B25016  11.018  44.701   8.426
 1774POPC   C3B25017  10.871  44.573   8.042
 1774POPC   C4B25018  11.028  44.422   7.648
 1775POPC   NC325019  44.240  28.328   9.553
 1775POPC   PO425020  43.732  27.894   9.743
 1775POPC   GL125021  43.830  28.100   9.323
 1775POPC   GL225022  43.883  28.478   9.214
 1775POPC   C1A25023  44.029  28.069   8.904
 1775POPC   D2A25024  44.027  27.919   8.463
 1775POPC   C3A25025  44.039  28.203   8.132
 1775POPC   C4A25026  43.695  28.400   7.965
 1775POPC   C1B25027  44.154  28.615   8.854
 1775POPC   C2B25028  44.323  28.539   8.419
 1775POPC   C3B25029  44.155  28.672   8.005
 1775POPC   C4B25030  44.077  28.899   7.637
 1776POPC   NC325031   6.403   0.769   9.481
 1776POPC   PO425032   6.846   0.177   9.541
 1776POPC   GL125033   6.852   0.472   9.202
 1776POPC   GL225034   6.740   0.189   8.976
 1776POPC   C1A25035   6.817   0.656   8.806
 1776POPC   D2A25036   6.959   0.432   8.447
 1776POPC   C3A25037   6.785   0.550   8.079
 1776POPC   C4A25038   6.821   0.518   7.664
 1776POPC   C1B25039   6.459   0.336   8.617
 1776POPC   C2B25040   6.456   0.170   8.218
 1776POPC   C3B25041   6.410   0.263   7.793
 1776POPC   C4B25042   6.356   0.471   7.369
 1777POPC   NC325043   7.979   4.533   9.723
 1777POPC   PO425044   8.365   4.186   9.348
 1777POPC   GL125045   8.315   4.473   9.079
 1777POPC   GL225046   7.974   4.592   9.205
 1777POPC   C1A25047   8.365   4.309   8.658
 1777POPC   D2A25048   8.098   4.007   8.431
 1777POPC   C3A25049   8.077   4.105   7.994
 1777POPC   C4A25050   8.429   4.263   7.763
 1777POPC   C1B25051   7.872   4.438   8.788
 1777POPC   C2B25052   8.004   4.534   8.357
 1777POPC   C3B25053   7.846   4.559   7.940
 1777POPC   C4B25054   8.134   4.672   7.621
 1778POPC   NC325055  17.269  19.643   9.421
 1778POPC   PO425056  17.738  20.000   9.499
 1778POPC   GL125057  17.742  19.562   9.265
 1778POPC   GL225058  17.577  19.776   9.036
 1778POPC   C1A25059  17.595  19.321   8.855
 1778POPC   D2A25060  17.511  19.541   8.501
 1778POPC   C3A25061  17.466  19.378   8.085
 1778POPC   C4A25062  17.728  19.317   7.726
 1778POPC   C1B25063  17.726  19.992   8.677
 1778POPC   C2B25064  17.528  19.976   8.253
 1778POPC   C3B25065  17.588  19.808   7.821
 1778POPC   C4B25066  17.791  20.049   7.498
 1779POPC   NC325067  19.818  19.605   9.483
 1779POPC   PO425068  20.031  19.007   9.607
 1779POPC   GL125069  19.830  19.021   9.170
 1779POPC   GL225070  19.458  19.001   9.191
 1779POPC   C1A25071  19.945  19.020   8.714
 1779POPC   D2A25072  19.884  18.826   8.311
 1779POPC   C3A25073  19.970  18.991   7.907
 1779POPC   C4A25074  19.979  18.767   7.525
 1779POPC   C1B25075  19.464  19.222   8.790
 1779POPC   C2B25076  19.578  19.242   8.334
 1779POPC   C3B25077  19.561  19.329   7.879
 1779POPC   C4B25078  19.643  19.171   7.449
 1780POPC   NC325079   2.979   4.630   9.555
 1780POPC   PO425080   2.760   3.979   9.573
 1780POPC   GL125081   2.798   4.265   9.243
 1780POPC   GL225082   2.529   4.555   9.227
 1780POPC   C1A25083   3.035   4.142   8.892
 1780POPC   D2A25084   2.787   3.961   8.558
 1780POPC   C3A25085   2.870   4.060   8.125
 1780POPC   C4A25086   2.617   3.992   7.745
 1780POPC   C1B25087   2.655   4.442   8.788
 1780POPC   C2B25088   2.921   4.452   8.447
 1780POPC   C3B25089   2.667   4.509   8.084
 1780POPC   C4B25090   2.828   4.586   7.680
 1781POPC   NC325091  36.451   0.428   9.462
 1781POPC   PO425092  35.794   0.505   9.440
 1781POPC   GL125093  36.080   0.509   9.118
 1781POPC   GL225094  35.836   0.592   8.878
 1781POPC   C1A25095  36.240   0.285   8.766
 1781POPC   D2A25096  35.912   0.318   8.444
 1781POPC   C3A25097  36.119   0.509   8.132
 1781POPC   C4A25098  36.436   0.308   7.870
 1781POPC   C1B25099  36.241   0.790   8.689
 1781POPC   C2B25100  36.448   0.911   8.289
 1781POPC   C3B25101  36.379   0.818   7.813
 1781POPC   C4B25102  35.966   0.654   7.666
 1782POPC   NC325103  31.895   6.687   9.444
 1782POPC   PO425104  32.573   6.521   9.538
 1782POPC   GL125105  32.388   6.657   9.149
 1782POPC   GL225106  32.116   6.426   9.079
 1782POPC   C1A25107  32.245   6.764   8.717
 1782POPC   D2A25108  32.315   6.931   8.318
 1782POPC   C3A25109  32.101   6.805   7.973
 1782POPC   C4A25110  32.402   6.586   7.766
 1782POPC   C1B25111  32.184   6.251   8.666
 1782POPC   C2B25112  32.219   6.358   8.234
 1782POPC   C3B25113  31.951   6.324   7.873
 1782POPC   C4B25114  32.089   6.317   7.446
 1783POPC   NC325115   8.883  42.453   9.453
 1783POPC   PO425116   9.132  42.984   9.444
 1783POPC   GL125117   9.235  42.602   9.118
 1783POPC   GL225118   8.899  42.435   8.950
 1783POPC   C1A25119   9.352  42.350   8.727
 1783POPC   D2A25120   9.028  42.350   8.444
 1783POPC   C3A25121   9.064  42.550   8.074
 1783POPC   C4A25122   8.767  42.696   7.834
 1783POPC   C1B25123   8.984  41.977   8.864
 1783POPC   C2B25124   9.155  41.834   8.473
 1783POPC   C3B25125   9.040  42.003   8.071
 1783POPC   C4B25126   8.903  42.220   7.694
 1784POPC   NC325127  17.836  23.799   9.279
 1784POPC   PO425128  17.375  24.074   9.778
 1784POPC   GL125129  17.304  23.886   9.282
 1784POPC   GL225130  17.359  23.534   9.234
 1784POPC   C1A25131  17.446  23.965   8.805
 1784POPC   D2A25132  17.707  23.759   8.523
 1784POPC   C3A25133  17.581  23.731   8.121
 1784POPC   C4A25134  17.710  23.986   7.740
 1784POPC   C1B25135  17.491  23.387   8.822
 1784POPC   C2B25136  17.288  23.373   8.427
 1784POPC   C3B25137  17.335  23.256   8.004
 1784POPC   C4B25138  17.742  23.339   7.806
 1785POPC   NC325139  41.136  28.320   9.567
 1785POPC   PO425140  41.636  28.487   9.811
 1785POPC   GL125141  41.508  28.551   9.293
 1785POPC   GL225142  41.750  28.785   9.179
 1785POPC   C1A25143  41.305  28.589   8.832
 1785POPC   D2A25144  41.153  28.695   8.379
 1785POPC   C3A25145  41.339  28.551   7.968
 1785POPC   C4A25146  41.582  28.191   7.911
 1785POPC   C1B25147  41.797  28.522   8.850
 1785POPC   C2B25148  41.667  28.655   8.446
 1785POPC   C3B25149  41.835  28.652   8.061
 1785POPC   C4B25150  41.720  28.751   7.661
 1786POPC   NC325151  16.065   9.397   9.477
 1786POPC   PO425152  15.617   9.923   9.536
 1786POPC   GL125153  15.753   9.769   9.172
 1786POPC   GL225154  16.120   9.799   9.134
 1786POPC   C1A25155  15.759   9.883   8.764
 1786POPC   D2A25156  15.895   9.684   8.405
 1786POPC   C3A25157  15.669   9.604   8.051
 1786POPC   C4A25158  15.601   9.901   7.720
 1786POPC   C1B25159  16.283   9.870   8.712
 1786POPC   C2B25160  16.391   9.628   8.354
 1786POPC   C3B25161  16.223   9.599   7.958
 1786POPC   C4B25162  16.134   9.527   7.541
 1787POPC   NC325163  12.822  35.315   9.568
 1787POPC   PO425164  12.872  35.875   9.345
 1787POPC   GL125165  12.961  35.474   9.115
 1787POPC   GL225166  12.733  35.174   9.102
 1787POPC   C1A25167  13.079  35.245   8.731
 1787POPC   D2A25168  12.942  35.092   8.333
 1787POPC   C3A25169  13.124  35.316   7.995
 1787POPC   C4A25170  13.210  35.372   7.578
 1787POPC   C1B25171  12.590  35.421   8.767
 1787POPC   C2B25172  12.512  35.337   8.374
 1787POPC   C3B25173  12.630  35.401   7.995
 1787POPC   C4B25174  12.767  35.609   7.643
 1788POPC   NC325175  33.543  13.936   9.274
 1788POPC   PO425176  34.135  13.660   9.398
 1788POPC   GL125177  33.831  13.529   9.139
 1788POPC   GL225178  33.606  13.227   9.232
 1788POPC   C1A25179  33.843  13.715   8.738
 1788POPC   D2A25180  33.907  13.554   8.355
 1788POPC   C3A25181  33.749  13.828   8.042
 1788POPC   C4A25182  33.960  13.932   7.676
 1788POPC   C1B25183  33.439  13.400   8.844
 1788POPC   C2B25184  33.394  13.620   8.453
 1788POPC   C3B25185  33.505  13.390   8.080
 1788POPC   C4B25186  33.660  13.441   7.679
 1789POPC   NC325187  14.888   6.808   9.606
 1789POPC   PO425188  15.497   6.774   9.405
 1789POPC   GL125189  15.340   6.634   9.113
 1789POPC   GL225190  15.071   6.432   9.259
 1789POPC   C1A25191  15.330   6.870   8.755
 1789POPC   D2A25192  15.115   6.899   8.397
 1789POPC   C3A25193  15.381   6.993   8.080
 1789POPC   C4A25194  15.258   6.872   7.711
 1789POPC   C1B25195  14.983   6.493   8.804
 1789POPC   C2B25196  15.259   6.411   8.464
 1789POPC   C3B25197  15.157   6.488   8.037
 1789POPC   C4B25198  15.009   6.322   7.643
 1790POPC   NC325199   0.292   6.418   9.501
 1790POPC   PO425200   0.881   6.802   9.565
 1790POPC   GL125201   0.620   6.733   9.228
 1790POPC   GL225202   0.678   6.412   9.179
 1790POPC   C1A25203   0.479   6.868   8.816
 1790POPC   D2A25204   0.233   6.753   8.424
 1790POPC   C3A25205   0.401   6.897   8.039
 1790POPC   C4A25206   0.581   6.813   7.645
 1790POPC   C1B25207   0.391   6.377   8.835
 1790POPC   C2B25208   0.461   6.248   8.431
 1790POPC   C3B25209   0.319   6.368   8.060
 1790POPC   C4B25210   0.465   6.315   7.659
 1791POPC   NC325211  13.597  16.963   9.751
 1791POPC   PO425212  13.878  17.488   9.484
 1791POPC   GL125213  13.626  17.573   9.075
 1791POPC   GL225214  13.277  17.561   9.167
 1791POPC   C1A25215  13.639  17.467   8.608
 1791POPC   D2A25216  13.689  17.733   8.210
 1791POPC   C3A25217  13.909  17.532   7.852
 1791POPC   C4A25218  14.036  17.671   7.429
 1791POPC   C1B25219  13.146  17.447   8.755
 1791POPC   C2B25220  13.181  17.652   8.335
 1791POPC   C3B25221  13.320  17.552   7.888
 1791POPC   C4B25222  13.497  17.481   7.451
 1792POPC   NC325223  25.953  28.056   9.518
 1792POPC   PO425224  26.067  28.709   9.414
 1792POPC   GL125225  26.331  28.402   9.209
 1792POPC   GL225226  26.242  28.069   9.085
 1792POPC   C1A25227  26.426  28.466   8.777
 1792POPC   D2A25228  26.550  28.400   8.330
 1792POPC   C3A25229  26.438  28.632   7.962
 1792POPC   C4A25230  26.011  28.678   7.805
 1792POPC   C1B25231  25.984  28.143   8.736
 1792POPC   C2B25232  25.762  28.396   8.416
 1792POPC   C3B25233  25.723  28.307   7.996
 1792POPC   C4B25234  26.054  28.198   7.692
 1793POPC   NC325235  21.356  13.285   9.480
 1793POPC   PO425236  21.276  12.702   9.670
 1793POPC   GL125237  21.260  12.866   9.186
 1793POPC   GL225238  21.040  13.080   9.096
 1793POPC   C1A25239  21.072  12.728   8.738
 1793POPC   D2A25240  20.815  12.609   8.348
 1793POPC   C3A25241  21.103  12.595   8.003
 1793POPC   C4A25242  21.515  12.619   7.941
 1793POPC   C1B25243  21.350  13.182   8.736
 1793POPC   C2B25244  21.404  13.019   8.288
 1793POPC   C3B25245  21.342  13.076   7.856
 1793POPC   C4B25246  21.034  12.895   7.556
 1794POPC   NC325247  30.259  27.373   9.457
 1794POPC   PO425248  29.761  27.733   9.539
 1794POPC   GL125249  29.782  27.645   9.151
 1794POPC   GL225250  30.109  27.709   9.084
 1794POPC   C1A25251  29.742  27.499   8.732
 1794POPC   D2A25252  29.917  27.689   8.386
 1794POPC   C3A25253  29.712  27.638   8.002
 1794POPC   C4A25254  29.904  27.315   7.772
 1794POPC   C1B25255  30.380  27.815   8.747
 1794POPC   C2B25256  30.300  28.011   8.318
 1794POPC   C3B25257  30.188  27.800   7.933
 1794POPC   C4B25258  30.261  27.625   7.521
 1795POPC   NC325259  21.515   6.138   9.983
 1795POPC   PO425260  21.188   5.717   9.562
 1795POPC   GL125261  21.156   5.769   9.127
 1795POPC   GL225262  21.443   5.553   9.055
 1795POPC   C1A25263  21.349   5.965   8.760
 1795POPC   D2A25264  21.645   5.779   8.463
 1795POPC   C3A25265  21.591   5.920   8.040
 1795POPC   C4A25266  21.278   6.188   7.852
 1795POPC   C1B25267  21.200   5.498   8.650
 1795POPC   C2B25268  21.153   5.596   8.218
 1795POPC   C3B25269  21.300   5.546   7.800
 1795POPC   C4B25270  21.746   5.532   7.718
 1796POPC   NC325271  27.318  36.740   9.465
 1796POPC   PO425272  26.669  36.690   9.495
 1796POPC   GL125273  26.897  36.827   9.164
 1796POPC   GL225274  26.636  37.076   9.055
 1796POPC   C1A25275  27.097  36.684   8.787
 1796POPC   D2A25276  26.871  36.744   8.377
 1796POPC   C3A25277  26.959  36.751   7.911
 1796POPC   C4A25278  26.662  36.456   7.654
 1796POPC   C1B25279  27.014  37.186   8.811
 1796POPC   C2B25280  27.087  37.202   8.388
 1796POPC   C3B25281  26.765  37.204   8.064
 1796POPC   C4B25282  26.868  37.205   7.639
 1797POPC   NC325283   8.733  28.866   9.816
 1797POPC   PO425284   8.999  29.425   9.771
 1797POPC   GL125285   9.094  29.512   9.264
 1797POPC   GL225286   8.865  29.359   9.127
 1797POPC   C1A25287   9.278  29.199   8.878
 1797POPC   D2A25288   9.277  29.042   8.422
 1797POPC   C3A25289   8.947  28.925   8.107
 1797POPC   C4A25290   8.561  28.726   7.981
 1797POPC   C1B25291   8.985  29.586   8.751
 1797POPC   C2B25292   8.909  29.425   8.367
 1797POPC   C3B25293   9.108  29.401   8.006
 1797POPC   C4B25294   8.893  29.608   7.687
 1798POPC   NC325295  22.912  33.447   9.443
 1798POPC   PO425296  23.040  32.767   9.590
 1798POPC   GL125297  22.830  32.958   9.224
 1798POPC   GL225298  22.572  32.757   9.295
 1798POPC   C1A25299  22.767  33.084   8.765
 1798POPC   D2A25300  23.090  33.086   8.413
 1798POPC   C3A25301  23.043  33.275   7.986
 1798POPC   C4A25302  22.715  33.476   7.698
 1798POPC   C1B25303  22.693  32.586   8.876
 1798POPC   C2B25304  22.803  32.648   8.461
 1798POPC   C3B25305  22.726  32.879   8.075
 1798POPC   C4B25306  22.926  32.819   7.674
 1799POPC   NC325307  24.759  19.428   9.490
 1799POPC   PO425308  24.448  20.127   9.637
 1799POPC   GL125309  24.371  20.112   9.196
 1799POPC   GL225310  24.344  19.781   9.190
 1799POPC   C1A25311  24.525  19.992   8.763
 1799POPC   D2A25312  24.770  20.005   8.407
 1799POPC   C3A25313  24.515  19.978   8.052
 1799POPC   C4A25314  24.711  19.993   7.661
 1799POPC   C1B25315  24.209  19.605   8.798
 1799POPC   C2B25316  24.135  19.800   8.394
 1799POPC   C3B25317  24.105  19.592   7.998
 1799POPC   C4B25318  24.235  19.807   7.651
 1800POPC   NC325319  10.108  35.076   9.816
 1800POPC   PO425320  10.636  35.102   9.357
 1800POPC   GL125321  10.553  35.455   9.078
 1800POPC   GL225322  10.692  35.196   8.846
 1800POPC   C1A25323  10.675  35.657   8.668
 1800POPC   D2A25324  10.667  35.346   8.333
 1800POPC   C3A25325  10.428  35.472   8.000
 1800POPC   C4A25326  10.539  35.651   7.658
 1800POPC   C1B25327  10.314  35.105   8.656
 1800POPC   C2B25328  10.114  35.182   8.294
 1800POPC   C3B25329  10.390  34.959   8.042
 1800POPC   C4B25330  10.779  35.107   7.866
 1801POPC   NC325331  31.895   0.236   9.435
 1801POPC   PO425332  32.435   0.549   9.560
 1801POPC   GL125333  32.267   0.592   9.192
 1801POPC   GL225334  32.222   0.270   9.035
 1801POPC   C1A25335  32.464   0.681   8.812
 1801POPC   D2A25336  32.387   0.360   8.531
 1801POPC   C3A25337  32.363   0.395   8.098
 1801POPC   C4A25338  32.284   0.701   7.793
 1801POPC   C1B25339  31.945   0.531   8.787
 1801POPC   C2B25340  31.984   0.651   8.358
 1801POPC   C3B25341  31.846   0.420   7.991
 1801POPC   C4B25342  31.891   0.360   7.540
 1802POPC   NC325343  16.942  41.468   9.562
 1802POPC   PO425344  16.357  41.692   9.742
 1802POPC   GL125345  16.560  41.353   9.282
 1802POPC   GL225346  16.317  41.239   9.045
 1802POPC   C1A25347  16.782  41.351   8.869
 1802POPC   D2A25348  16.977  41.463   8.489
 1802POPC   C3A25349  16.871  41.220   8.122
 1802POPC   C4A25350  16.724  41.419   7.736
 1802POPC   C1B25351  16.306  41.478   8.676
 1802POPC   C2B25352  16.497  41.560   8.285
 1802POPC   C3B25353  16.610  41.855   7.995
 1802POPC   C4B25354  16.409  41.912   7.637
 1803POPC   NC325355  15.232  33.987   9.517
 1803POPC   PO425356  15.527  33.310   9.443
 1803POPC   GL125357  15.434  33.678   9.198
 1803POPC   GL225358  15.069  33.700   9.102
 1803POPC   C1A25359  15.461  33.765   8.775
 1803POPC   D2A25360  15.234  33.530   8.460
 1803POPC   C3A25361  15.250  33.655   8.035
 1803POPC   C4A25362  14.890  33.728   7.778
 1803POPC   C1B25363  15.009  34.038   8.853
 1803POPC   C2B25364  15.185  34.069   8.457
 1803POPC   C3B25365  15.022  34.115   8.078
 1803POPC   C4B25366  15.186  34.123   7.684
 1804POPC   NC325367  17.475  41.164   9.527
 1804POPC   PO425368  17.798  40.559   9.754
 1804POPC   GL125369  17.556  40.674   9.320
 1804POPC   GL225370  17.743  40.954   9.163
 1804POPC   C1A25371  17.417  40.775   8.845
 1804POPC   D2A25372  17.294  40.581   8.438
 1804POPC   C3A25373  17.322  40.847   8.096
 1804POPC   C4A25374  17.455  40.725   7.688
 1804POPC   C1B25375  17.885  41.013   8.759
 1804POPC   C2B25376  17.781  40.812   8.394
 1804POPC   C3B25377  17.814  40.976   7.998
 1804POPC   C4B25378  17.694  41.190   7.635
 1805POPC   NC325379  27.787  24.852  10.039
 1805POPC   PO425380  27.645  24.291   9.660
 1805POPC   GL125381  27.436  24.300   9.212
 1805POPC   GL225382  27.668  24.481   9.055
 1805POPC   C1A25383  27.318  24.389   8.711
 1805POPC   D2A25384  27.369  24.710   8.356
 1805POPC   C3A25385  27.501  24.458   8.002
 1805POPC   C4A25386  27.786  24.111   8.054
 1805POPC   C1B25387  27.786  24.703   8.687
 1805POPC   C2B25388  27.961  24.566   8.297
 1805POPC   C3B25389  27.935  24.671   7.873
 1805POPC   C4B25390  27.598  24.939   7.784
 1806POPC   NC325391  21.118   8.649   9.534
 1806POPC   PO425392  20.675   9.235   9.375
 1806POPC   GL125393  21.107   9.103   9.234
 1806POPC   GL225394  21.442   8.869   9.195
 1806POPC   C1A25395  21.173   9.023   8.801
 1806POPC   D2A25396  21.151   8.772   8.441
 1806POPC   C3A25397  21.198   9.024   8.083
 1806POPC   C4A25398  21.261   9.013   7.624
 1806POPC   C1B25399  21.503   8.620   8.780
 1806POPC   C2B25400  21.678   8.577   8.335
 1806POPC   C3B25401  21.599   8.759   7.932
 1806POPC   C4B25402  21.726   9.219   7.876
 1807POPC   NC325403  17.842  22.800   9.322
 1807POPC   PO425404  18.445  22.891   9.565
 1807POPC   GL125405  18.288  22.950   9.132
 1807POPC   GL225406  17.945  23.064   8.919
 1807POPC   C1A25407  18.441  23.079   8.755
 1807POPC   D2A25408  18.537  22.775   8.461
 1807POPC   C3A25409  18.402  22.899   8.083
 1807POPC   C4A25410  18.526  22.911   7.669
 1807POPC   C1B25411  18.092  22.664   8.720
 1807POPC   C2B25412  18.119  22.436   8.330
 1807POPC   C3B25413  18.000  22.545   7.936
 1807POPC   C4B25414  18.027  22.908   7.722
 1808POPC   NC325415   2.094   7.894   9.325
 1808POPC   PO425416   2.052   8.512   9.601
 1808POPC   GL125417   1.946   8.368   9.179
 1808POPC   GL225418   1.752   8.627   9.098
 1808POPC   C1A25419   2.104   8.370   8.726
 1808POPC   D2A25420   2.238   8.189   8.317
 1808POPC   C3A25421   2.146   8.357   7.917
 1808POPC   C4A25422   1.997   8.001   7.748
 1808POPC   C1B25423   1.602   8.434   8.722
 1808POPC   C2B25424   1.789   8.466   8.300
 1808POPC   C3B25425   1.631   8.325   7.904
 1808POPC   C4B25426   1.633   8.235   7.459
 1809POPC   NC325427   8.749   5.831   9.554
 1809POPC   PO425428   9.312   6.181   9.592
 1809POPC   GL125429   9.154   5.867   9.220
 1809POPC   GL225430   8.798   5.704   9.086
 1809POPC   C1A25431   9.112   5.931   8.767
 1809POPC   D2A25432   9.047   6.134   8.359
 1809POPC   C3A25433   8.822   6.036   8.007
 1809POPC   C4A25434   8.698   6.270   7.675
 1809POPC   C1B25435   8.578   5.799   8.738
 1809POPC   C2B25436   8.759   5.659   8.358
 1809POPC   C3B25437   8.550   5.596   7.959
 1809POPC   C4B25438   8.625   5.558   7.525
 1810POPC   NC325439   5.147  40.511   9.431
 1810POPC   PO425440   4.656  40.959   9.578
 1810POPC   GL125441   4.848  40.847   9.196
 1810POPC   GL225442   4.894  41.195   9.171
 1810POPC   C1A25443   5.022  40.668   8.782
 1810POPC   D2A25444   5.009  40.549   8.323
 1810POPC   C3A25445   5.200  40.856   8.018
 1810POPC   C4A25446   5.373  40.687   7.640
 1810POPC   C1B25447   4.724  41.117   8.785
 1810POPC   C2B25448   4.872  41.015   8.412
 1810POPC   C3B25449   4.700  40.978   8.030
 1810POPC   C4B25450   4.913  41.087   7.636
 1811POPC   NC325451   3.540  35.125   9.713
 1811POPC   PO425452   3.982  35.582   9.765
 1811POPC   GL125453   3.634  35.438   9.356
 1811POPC   GL225454   3.765  35.145   9.164
 1811POPC   C1A25455   3.506  35.466   8.881
 1811POPC   D2A25456   3.607  35.555   8.448
 1811POPC   C3A25457   3.329  35.348   8.175
 1811POPC   C4A25458   3.344  35.195   7.771
 1811POPC   C1B25459   3.864  35.072   8.748
 1811POPC   C2B25460   3.736  35.072   8.331
 1811POPC   C3B25461   3.832  35.280   7.957
 1811POPC   C4B25462   3.799  35.086   7.548
 1812POPC   NC325463  44.593  30.837   9.507
 1812POPC   PO425464  44.988  30.234   9.477
 1812POPC   GL125465  44.795  30.452   9.114
 1812POPC   GL225466  44.428  30.561   9.101
 1812POPC   C1A25467  44.799  30.710   8.768
 1812POPC   D2A25468   0.112  30.802   8.509
 1812POPC   C3A25469  44.892  30.837   8.141
 1812POPC   C4A25470  44.808  30.972   7.752
 1812POPC   C1B25471  44.301  30.848   8.800
 1812POPC   C2B25472  44.464  31.028   8.437
 1812POPC   C3B25473  44.385  31.005   8.034
 1812POPC   C4B25474  44.420  30.644   7.819
 1813POPC   NC325475  41.039   0.713   9.423
 1813POPC   PO425476  40.715   0.128   9.433
 1813POPC   GL125477  40.655   0.380   9.085
 1813POPC   GL225478  40.993   0.437   9.001
 1813POPC   C1A25479  40.611   0.321   8.640
 1813POPC   D2A25480  40.721   0.091   8.261
 1813POPC   C3A25481  40.724   0.375   7.913
 1813POPC   C4A25482  40.663   0.353   7.453
 1813POPC   C1B25483  41.223   0.742   8.786
 1813POPC   C2B25484  41.053   0.552   8.424
 1813POPC   C3B25485  41.195   0.581   8.033
 1813POPC   C4B25486  41.107   0.545   7.596
 1814POPC   NC325487  36.600  39.488   9.820
 1814POPC   PO425488  36.879  39.997   9.454
 1814POPC   GL125489  36.928  40.097   9.046
 1814POPC   GL225490  36.798  39.756   8.969
 1814POPC   C1A25491  37.139  39.944   8.677
 1814POPC   D2A25492  36.966  39.876   8.319
 1814POPC   C3A25493  37.068  40.098   7.975
 1814POPC   C4A25494  37.201  39.833   7.686
 1814POPC   C1B25495  36.590  40.018   8.651
 1814POPC   C2B25496  36.453  39.955   8.237
 1814POPC   C3B25497  36.691  39.765   7.909
 1814POPC   C4B25498  36.714  39.995   7.539
 1815POPC   NC325499  23.916  12.899   9.609
 1815POPC   PO425500  23.330  13.209   9.549
 1815POPC   GL125501  23.631  13.036   9.181
 1815POPC   GL225502  23.742  12.707   9.153
 1815POPC   C1A25503  23.753  13.055   8.743
 1815POPC   D2A25504  23.753  13.278   8.347
 1815POPC   C3A25505  23.569  13.166   7.969
 1815POPC   C4A25506  23.778  13.084   7.634
 1815POPC   C1B25507  23.971  12.556   8.817
 1815POPC   C2B25508  23.721  12.557   8.451
 1815POPC   C3B25509  23.789  12.651   8.026
 1815POPC   C4B25510  23.854  12.362   7.695
 1816POPC   NC325511  37.040  35.466   9.453
 1816POPC   PO425512  36.593  35.008   9.496
 1816POPC   GL125513  36.726  35.226   9.129
 1816POPC   GL225514  37.054  35.111   9.073
 1816POPC   C1A25515  36.824  35.311   8.681
 1816POPC   D2A25516  36.624  35.443   8.329
 1816POPC   C3A25517  36.858  35.589   7.982
 1816POPC   C4A25518  36.540  35.474   7.676
 1816POPC   C1B25519  37.186  34.930   8.678
 1816POPC   C2B25520  37.180  35.158   8.278
 1816POPC   C3B25521  36.911  35.086   7.905
 1816POPC   C4B25522  36.966  35.252   7.503
 1817POPC   NC325523  41.809  44.379   9.348
 1817POPC   PO425524  41.548  44.936   9.584
 1817POPC   GL125525  41.689  44.824   9.144
 1817POPC   GL225526  41.422  44.614   9.095
 1817POPC   C1A25527  41.598  44.818   8.682
 1817POPC   D2A25528  41.744  44.706   8.313
 1817POPC   C3A25529  41.538  44.702   7.966
 1817POPC   C4A25530  41.839  44.705   7.667
 1817POPC   C1B25531  41.241  44.409   8.754
 1817POPC   C2B25532  41.364  44.364   8.336
 1817POPC   C3B25533  41.319  44.191   7.926
 1817POPC   C4B25534  41.415  44.429   7.540
 1818POPC   NC325535  11.131  13.888   9.259
 1818POPC   PO425536  11.156  13.396   9.668
 1818POPC   GL125537  11.246  13.403   9.146
 1818POPC   GL225538  11.590  13.339   9.033
 1818POPC   C1A25539  11.351  13.596   8.687
 1818POPC   D2A25540  11.566  13.810   8.350
 1818POPC   C3A25541  11.309  13.781   8.048
 1818POPC   C4A25542  11.321  13.551   7.697
 1818POPC   C1B25543  11.461  13.094   8.759
 1818POPC   C2B25544  11.702  13.127   8.424
 1818POPC   C3B25545  11.644  13.364   8.090
 1818POPC   C4B25546  11.734  13.253   7.676
 1819POPC   NC325547  34.728  32.280   9.445
 1819POPC   PO425548  34.126  32.044   9.420
 1819POPC   GL125549  34.283  32.388   9.156
 1819POPC   GL225550  34.604  32.594   9.075
 1819POPC   C1A25551  34.451  32.297   8.713
 1819POPC   D2A25552  34.520  32.098   8.318
 1819POPC   C3A25553  34.490  32.324   7.927
 1819POPC   C4A25554  34.516  32.212   7.484
 1819POPC   C1B25555  34.830  32.682   8.714
 1819POPC   C2B25556  34.684  32.613   8.325
 1819POPC   C3B25557  34.908  32.649   7.968
 1819POPC   C4B25558  34.937  32.467   7.575
 1820POPC   NC325559  44.407  10.403   9.462
 1820POPC   PO425560   0.064  10.311   9.368
 1820POPC   GL125561  44.735  10.468   9.088
 1820POPC   GL225562  44.417  10.278   8.983
 1820POPC   C1A25563  44.777  10.631   8.710
 1820POPC   D2A25564   0.008  10.385   8.443
 1820POPC   C3A25565  44.882  10.368   8.006
 1820POPC   C4A25566  44.975  10.707   7.736
 1820POPC   C1B25567  44.274  10.669   8.763
 1820POPC   C2B25568  44.190  10.614   8.309
 1820POPC   C3B25569  44.436  10.606   7.909
 1820POPC   C4B25570  44.377  10.566   7.463
 1821POPC   NC325571  15.171   8.624   9.692
 1821POPC   PO425572  15.575   9.157   9.419
 1821POPC   GL125573  15.210   9.078   9.173
 1821POPC   GL225574  14.985   8.772   9.127
 1821POPC   C1A25575  15.033   9.175   8.788
 1821POPC   D2A25576  15.077   8.954   8.418
 1821POPC   C3A25577  15.210   9.123   8.044
 1821POPC   C4A25578  15.037   9.104   7.660
 1821POPC   C1B25579  14.777   8.637   8.711
 1821POPC   C2B25580  14.864   8.517   8.250
 1821POPC   C3B25581  15.044   8.590   7.816
 1821POPC   C4B25582  14.863   8.693   7.392
 1822POPC   NC325583  11.651  33.179   9.526
 1822POPC   PO425584  10.946  33.355   9.544
 1822POPC   GL125585  11.195  33.324   9.200
 1822POPC   GL225586  11.261  32.971   9.194
 1822POPC   C1A25587  11.058  33.222   8.795
 1822POPC   D2A25588  11.049  32.906   8.507
 1822POPC   C3A25589  11.093  33.126   8.137
 1822POPC   C4A25590  11.308  33.137   7.763
 1822POPC   C1B25591  11.471  32.893   8.809
 1822POPC   C2B25592  11.540  32.998   8.370
 1822POPC   C3B25593  11.748  32.893   7.980
 1822POPC   C4B25594  11.794  33.241   7.770
 1823POPC   NC325595  16.574   4.161   9.455
 1823POPC   PO425596  16.814   4.695   9.661
 1823POPC   GL125597  16.725   4.572   9.206
 1823POPC   GL225598  17.005   4.718   9.069
 1823POPC   C1A25599  16.479   4.369   8.810
 1823POPC   D2A25600  16.473   4.101   8.415
 1823POPC   C3A25601  16.520   4.252   7.970
 1823POPC   C4A25602  16.632   4.030   7.571
 1823POPC   C1B25603  16.929   4.565   8.677
 1823POPC   C2B25604  16.685   4.582   8.355
 1823POPC   C3B25605  16.848   4.626   7.963
 1823POPC   C4B25606  16.788   4.495   7.556
 1824POPC   NC325607  38.855  38.965   9.742
 1824POPC   PO425608  39.514  38.914   9.740
 1824POPC   GL125609  39.427  38.989   9.270
 1824POPC   GL225610  39.102  39.189   9.256
 1824POPC   C1A25611  39.387  39.109   8.798
 1824POPC   D2A25612  39.102  39.043   8.423
 1824POPC   C3A25613  39.312  38.978   8.025
 1824POPC   C4A25614  39.282  39.216   7.642
 1824POPC   C1B25615  38.869  39.238   8.848
 1824POPC   C2B25616  38.905  39.512   8.471
 1824POPC   C3B25617  39.058  39.456   8.059
 1824POPC   C4B25618  38.779  39.348   7.723
 1825POPC   NC325619  28.074  39.275   9.666
 1825POPC   PO425620  28.702  39.610   9.462
 1825POPC   GL125621  28.510  39.406   9.103
 1825POPC   GL225622  28.163  39.324   9.172
 1825POPC   C1A25623  28.516  39.129   8.781
 1825POPC   D2A25624  28.525  38.835   8.452
 1825POPC   C3A25625  28.481  39.036   8.056
 1825POPC   C4A25626  28.657  39.350   7.781
 1825POPC   C1B25627  28.155  39.531   8.767
 1825POPC   C2B25628  28.344  39.424   8.373
 1825POPC   C3B25629  28.305  39.620   7.996
 1825POPC   C4B25630  28.085  39.627   7.621
 1826POPC   NC325631  41.145  44.724   9.524
 1826POPC   PO425632  40.651  44.357   9.591
 1826POPC   GL125633  40.568  44.655   9.232
 1826POPC   GL225634  40.891  44.604   9.117
 1826POPC   C1A25635  40.576  44.816   8.780
 1826POPC   D2A25636  40.591  44.574   8.398
 1826POPC   C3A25637  40.523  44.699   7.962
 1826POPC   C4A25638  40.783  44.910   7.688
 1826POPC   C1B25639  41.080  44.917   8.854
 1826POPC   C2B25640  41.135  44.826   8.428
 1826POPC   C3B25641  41.024  44.628   8.054
 1826POPC   C4B25642  40.924  44.416   7.669
 1827POPC   NC325643  22.534  16.150   9.855
 1827POPC   PO425644  21.911  16.099   9.486
 1827POPC   GL125645  22.009  15.941   9.051
 1827POPC   GL225646  22.369  16.065   8.966
 1827POPC   C1A25647  22.088  15.851   8.601
 1827POPC   D2A25648  22.258  16.133   8.258
 1827POPC   C3A25649  22.153  16.021   7.880
 1827POPC   C4A25650  21.810  15.720   7.960
 1827POPC   C1B25651  22.559  15.755   8.740
 1827POPC   C2B25652  22.510  15.658   8.340
 1827POPC   C3B25653  22.588  15.763   7.947
 1827POPC   C4B25654  22.691  15.971   7.574
 1828POPC   NC325655   8.099  26.840   9.696
 1828POPC   PO425656   7.915  26.343   9.432
 1828POPC   GL125657   8.242  26.613   9.206
 1828POPC   GL225658   8.337  26.967   9.140
 1828POPC   C1A25659   8.350  26.610   8.745
 1828POPC   D2A25660   8.475  26.749   8.308
 1828POPC   C3A25661   8.164  26.640   7.943
 1828POPC   C4A25662   7.787  26.444   7.670
 1828POPC   C1B25663   8.618  27.045   8.759
 1828POPC   C2B25664   8.607  27.252   8.336
 1828POPC   C3B25665   8.403  27.129   7.930
 1828POPC   C4B25666   8.530  27.350   7.531
 1829POPC   NC325667   0.543  29.241   9.680
 1829POPC   PO425668   0.622  28.608   9.574
 1829POPC   GL125669   0.390  28.927   9.291
 1829POPC   GL225670   0.438  29.299   9.194
 1829POPC   C1A25671   0.294  28.956   8.838
 1829POPC   D2A25672   0.490  29.112   8.457
 1829POPC   C3A25673   0.298  29.043   8.054
 1829POPC   C4A25674   0.181  29.139   7.640
 1829POPC   C1B25675   0.319  29.482   8.797
 1829POPC   C2B25676   0.117  29.470   8.373
 1829POPC   C3B25677   0.224  29.566   7.947
 1829POPC   C4B25678   0.600  29.415   7.791
 1830POPC   NC325679   5.574  16.035   9.489
 1830POPC   PO425680   6.203  16.189   9.527
 1830POPC   GL125681   6.061  15.883   9.201
 1830POPC   GL225682   5.796  16.078   9.044
 1830POPC   C1A25683   6.018  15.749   8.743
 1830POPC   D2A25684   5.891  16.060   8.419
 1830POPC   C3A25685   5.889  15.983   7.997
 1830POPC   C4A25686   5.519  15.841   7.787
 1830POPC   C1B25687   6.126  16.268   8.818
 1830POPC   C2B25688   6.206  16.463   8.413
 1830POPC   C3B25689   5.990  16.503   7.987
 1830POPC   C4B25690   5.807  16.320   7.614
 1831POPC   NC325691  18.393  14.223   9.335
 1831POPC   PO425692  17.974  14.680   9.491
 1831POPC   GL125693  18.223  14.665   9.111
 1831POPC   GL225694  18.594  14.646   9.107
 1831POPC   C1A25695  18.351  14.657   8.677
 1831POPC   D2A25696  18.411  14.888   8.336
 1831POPC   C3A25697  18.440  14.582   8.012
 1831POPC   C4A25698  18.163  14.250   7.877
 1831POPC   C1B25699  18.797  14.380   8.716
 1831POPC   C2B25700  18.887  14.188   8.287
 1831POPC   C3B25701  18.667  14.118   7.854
 1831POPC   C4B25702  18.512  14.411   7.497
 1832POPC   NC325703  27.147  14.954   9.467
 1832POPC   PO425704  26.735  15.505   9.735
 1832POPC   GL125705  26.721  15.268   9.299
 1832POPC   GL225706  26.736  14.971   9.126
 1832POPC   C1A25707  26.995  15.369   8.899
 1832POPC   D2A25708  27.097  15.281   8.433
 1832POPC   C3A25709  26.845  15.352   8.040
 1832POPC   C4A25710  26.738  15.490   7.590
 1832POPC   C1B25711  26.973  14.859   8.773
 1832POPC   C2B25712  26.838  14.817   8.361
 1832POPC   C3B25713  26.702  14.854   7.966
 1832POPC   C4B25714  26.853  14.987   7.633
 1833POPC   NC325715  26.198   1.774   9.760
 1833POPC   PO425716  25.811   2.273   9.500
 1833POPC   GL125717  25.963   2.127   9.107
 1833POPC   GL225718  26.098   1.831   9.247
 1833POPC   C1A25719  25.848   1.951   8.681
 1833POPC   D2A25720  25.731   1.788   8.242
 1833POPC   C3A25721  25.913   2.040   7.874
 1833POPC   C4A25722  26.316   2.237   7.709
 1833POPC   C1B25723  26.300   1.750   8.859
 1833POPC   C2B25724  26.217   1.760   8.403
 1833POPC   C3B25725  26.360   1.819   7.992
 1833POPC   C4B25726  26.639   1.858   7.655
 1834POPC   NC325727  39.895  28.851   9.457
 1834POPC   PO425728  39.914  28.179   9.531
 1834POPC   GL125729  39.940  28.418   9.168
 1834POPC   GL225730  40.262  28.638   9.169
 1834POPC   C1A25731  39.864  28.202   8.790
 1834POPC   D2A25732  40.041  28.038   8.428
 1834POPC   C3A25733  39.836  28.187   8.093
 1834POPC   C4A25734  39.966  28.244   7.654
 1834POPC   C1B25735  40.343  28.394   8.813
 1834POPC   C2B25736  40.149  28.556   8.454
 1834POPC   C3B25737  40.195  28.540   8.031
 1834POPC   C4B25738  40.284  28.703   7.633
 1835POPC   NC325739  38.135   1.415   9.603
 1835POPC   PO425740  38.714   1.547   9.341
 1835POPC   GL125741  38.410   1.315   9.174
 1835POPC   GL225742  38.551   1.023   9.107
 1835POPC   C1A25743  38.253   1.267   8.773
 1835POPC   D2A25744  38.286   1.491   8.399
 1835POPC   C3A25745  38.299   1.246   8.023
 1835POPC   C4A25746  38.328   1.474   7.650
 1835POPC   C1B25747  38.668   0.894   8.750
 1835POPC   C2B25748  38.409   0.765   8.428
 1835POPC   C3B25749  38.198   0.725   8.057
 1835POPC   C4B25750  38.347   0.826   7.705
 1836POPC   NC325751  41.688  21.496   9.604
 1836POPC   PO425752  41.204  21.087   9.466
 1836POPC   GL125753  41.462  21.342   9.175
 1836POPC   GL225754  41.747  21.139   9.241
 1836POPC   C1A25755  41.531  21.499   8.742
 1836POPC   D2A25756  41.469  21.239   8.372
 1836POPC   C3A25757  41.402  21.456   7.992
 1836POPC   C4A25758  41.739  21.574   7.711
 1836POPC   C1B25759  41.682  21.030   8.810
 1836POPC   C2B25760  41.948  21.099   8.421
 1836POPC   C3B25761  41.796  21.130   7.980
 1836POPC   C4B25762  41.881  21.056   7.548
 1837POPC   NC325763  29.672  19.949   9.643
 1837POPC   PO425764  30.005  20.377   9.298
 1837POPC   GL125765  30.003  19.877   9.202
 1837POPC   GL225766  29.809  19.563   9.311
 1837POPC   C1A25767  30.128  19.496   8.918
 1837POPC   D2A25768  30.119  19.296   8.494
 1837POPC   C3A25769  30.062  19.648   8.248
 1837POPC   C4A25770  30.037  19.855   7.849
 1837POPC   C1B25771  29.603  19.629   8.909
 1837POPC   C2B25772  29.657  19.886   8.550
 1837POPC   C3B25773  29.614  19.864   8.111
 1837POPC   C4B25774  29.622  19.513   7.839
 1838POPC   NC325775   7.170  32.741   9.470
 1838POPC   PO425776   6.487  32.867   9.603
 1838POPC   GL125777   6.671  32.979   9.221
 1838POPC   GL225778   6.473  33.295   9.223
 1838POPC   C1A25779   6.688  32.807   8.791
 1838POPC   D2A25780   6.623  33.012   8.414
 1838POPC   C3A25781   6.602  32.854   7.998
 1838POPC   C4A25782   6.822  32.984   7.619
 1838POPC   C1B25783   6.324  33.189   8.820
 1838POPC   C2B25784   6.126  33.058   8.448
 1838POPC   C3B25785   6.255  33.210   8.096
 1838POPC   C4B25786   6.393  33.258   7.714
 1839POPC   NC325787  38.698  11.320   9.729
 1839POPC   PO425788  38.105  11.136   9.580
 1839POPC   GL125789  38.345  11.457   9.258
 1839POPC   GL225790  38.741  11.460   9.174
 1839POPC   C1A25791  38.401  11.530   8.781
 1839POPC   D2A25792  38.400  11.288   8.368
 1839POPC   C3A25793  38.412  11.476   7.950
 1839POPC   C4A25794  38.408  11.373   7.522
 1839POPC   C1B25795  38.718  11.140   8.803
 1839POPC   C2B25796  38.788  10.940   8.377
 1839POPC   C3B25797  38.649  11.031   7.946
 1839POPC   C4B25798  38.877  11.303   7.719
 1840POPC   NC325799  20.411  35.487   9.914
 1840POPC   PO425800  20.395  35.133   9.315
 1840POPC   GL125801  20.772  35.171   9.126
 1840POPC   GL225802  20.851  35.481   9.272
 1840POPC   C1A25803  20.796  35.278   8.710
 1840POPC   D2A25804  20.495  35.451   8.463
 1840POPC   C3A25805  20.432  35.273   8.061
 1840POPC   C4A25806  20.414  35.489   7.696
 1840POPC   C1B25807  20.796  35.744   8.920
 1840POPC   C2B25808  20.882  35.799   8.474
 1840POPC   C3B25809  20.815  35.637   8.056
 1840POPC   C4B25810  20.880  35.266   7.823
 1841POPC   NC325811  27.042  13.230   9.311
 1841POPC   PO425812  26.535  12.788   9.603
 1841POPC   GL125813  26.706  12.789   9.142
 1841POPC   GL225814  27.018  12.608   8.989
 1841POPC   C1A25815  26.694  12.929   8.709
 1841POPC   D2A25816  26.829  13.077   8.288
 1841POPC   C3A25817  26.544  13.005   7.937
 1841POPC   C4A25818  26.475  12.818   7.539
 1841POPC   C1B25819  27.198  12.957   8.686
 1841POPC   C2B25820  27.337  13.161   8.278
 1841POPC   C3B25821  27.205  13.112   7.820
 1841POPC   C4B25822  27.116  12.760   7.489
 1842POPC   NC325823  34.285  32.310   9.763
 1842POPC   PO425824  33.645  32.361   9.635
 1842POPC   GL125825  33.700  32.231   9.206
 1842POPC   GL225826  33.618  32.528   9.034
 1842POPC   C1A25827  33.938  32.174   8.813
 1842POPC   D2A25828  33.766  32.076   8.438
 1842POPC   C3A25829  34.030  32.039   8.094
 1842POPC   C4A25830  34.057  32.175   7.686
 1842POPC   C1B25831  33.658  32.567   8.612
 1842POPC   C2B25832  33.641  32.501   8.212
 1842POPC   C3B25833  33.602  32.274   7.885
 1842POPC   C4B25834  33.690  32.518   7.567
 1843POPC   NC325835  26.669  11.621   9.378
 1843POPC   PO425836  27.072  10.995   9.450
 1843POPC   GL125837  26.826  11.213   9.109
 1843POPC   GL225838  26.959  11.561   8.972
 1843POPC   C1A25839  26.577  11.315   8.745
 1843POPC   D2A25840  26.673  11.497   8.330
 1843POPC   C3A25841  26.900  11.187   8.077
 1843POPC   C4A25842  26.833  11.098   7.651
 1843POPC   C1B25843  27.316  11.659   8.734
 1843POPC   C2B25844  27.229  11.475   8.395
 1843POPC   C3B25845  27.177  11.660   8.043
 1843POPC   C4B25846  27.244  11.428   7.701
 1844POPC   NC325847  20.643  25.035   9.562
 1844POPC   PO425848  20.296  25.630   9.573
 1844POPC   GL125849  20.532  25.419   9.210
 1844POPC   GL225850  20.523  25.047   9.088
 1844POPC   C1A25851  20.646  25.396   8.756
 1844POPC   D2A25852  20.898  25.243   8.408
 1844POPC   C3A25853  20.709  25.365   8.031
 1844POPC   C4A25854  20.384  25.480   7.721
 1844POPC   C1B25855  20.806  24.882   8.771
 1844POPC   C2B25856  20.769  24.743   8.334
 1844POPC   C3B25857  20.856  24.876   7.917
 1844POPC   C4B25858  20.782  24.782   7.494
 1845POPC   NC325859   9.726  10.900   9.738
 1845POPC   PO425860  10.061  11.515   9.546
 1845POPC   GL125861   9.846  11.198   9.299
 1845POPC   GL225862   9.856  11.434   9.073
 1845POPC   C1A25863   9.673  11.058   8.847
 1845POPC   D2A25864   9.515  11.267   8.495
 1845POPC   C3A25865   9.620  11.132   8.088
 1845POPC   C4A25866   9.733  11.095   7.614
 1845POPC   C1B25867  10.018  11.573   8.698
 1845POPC   C2B25868   9.838  11.643   8.298
 1845POPC   C3B25869   9.881  11.507   7.870
 1845POPC   C4B25870   9.894  11.536   7.419
 1846POPC   NC325871   1.696   5.824   9.509
 1846POPC   PO425872   1.101   5.547   9.428
 1846POPC   GL125873   1.250   5.804   9.144
 1846POPC   GL225874   1.151   6.135   9.168
 1846POPC   C1A25875   1.129   5.817   8.718
 1846POPC   D2A25876   1.014   6.083   8.400
 1846POPC   C3A25877   1.267   5.879   8.075
 1846POPC   C4A25878   1.119   5.735   7.714
 1846POPC   C1B25879   1.354   6.266   8.794
 1846POPC   C2B25880   1.533   6.127   8.429
 1846POPC   C3B25881   1.503   6.322   7.983
 1846POPC   C4B25882   1.368   6.188   7.557
 1847POPC   NC325883  39.739  35.890   9.395
 1847POPC   PO425884  39.220  36.415   9.443
 1847POPC   GL125885  39.136  36.207   9.074
 1847POPC   GL225886  39.307  35.928   9.136
 1847POPC   C1A25887  39.335  36.167   8.681
 1847POPC   D2A25888  39.175  36.120   8.277
 1847POPC   C3A25889  39.389  36.334   7.914
 1847POPC   C4A25890  39.321  36.326   7.467
 1847POPC   C1B25891  39.563  35.689   8.818
 1847POPC   C2B25892  39.495  35.507   8.452
 1847POPC   C3B25893  39.422  35.731   8.065
 1847POPC   C4B25894  39.188  35.896   7.753
 1848POPC   NC325895  13.529   4.901   9.552
 1848POPC   PO425896  13.977   5.341   9.586
 1848POPC   GL125897  13.710   5.277   9.198
 1848POPC   GL225898  13.325   5.273   9.217
 1848POPC   C1A25899  13.776   5.098   8.762
 1848POPC   D2A25900  14.048   5.112   8.376
 1848POPC   C3A25901  13.909   4.965   7.968
 1848POPC   C4A25902  13.662   5.060   7.618
 1848POPC   C1B25903  13.412   5.483   8.823
 1848POPC   C2B25904  13.575   5.435   8.400
 1848POPC   C3B25905  13.390   5.194   8.078
 1848POPC   C4B25906  13.249   5.341   7.713
 1849POPC   NC325907   9.275   4.981   9.592
 1849POPC   PO425908   8.739   5.369   9.476
 1849POPC   GL125909   9.119   5.325   9.239
 1849POPC   GL225910   9.056   4.970   9.120
 1849POPC   C1A25911   9.086   5.381   8.808
 1849POPC   D2A25912   9.015   5.034   8.541
 1849POPC   C3A25913   9.119   5.223   8.173
 1849POPC   C4A25914   9.048   5.400   7.794
 1849POPC   C1B25915   9.263   4.665   8.839
 1849POPC   C2B25916   9.389   4.678   8.391
 1849POPC   C3B25917   9.146   4.760   7.990
 1849POPC   C4B25918   9.310   4.952   7.594
 1850POPC   NC325919  40.751  21.148   9.564
 1850POPC   PO425920  40.773  20.442   9.512
 1850POPC   GL125921  40.938  20.448   9.087
 1850POPC   GL225922  40.935  20.833   9.087
 1850POPC   C1A25923  40.845  20.528   8.663
 1850POPC   D2A25924  40.523  20.799   8.527
 1850POPC   C3A25925  40.403  20.739   8.133
 1850POPC   C4A25926  40.572  20.381   7.895
 1850POPC   C1B25927  41.158  21.095   8.807
 1850POPC   C2B25928  41.069  20.942   8.425
 1850POPC   C3B25929  40.905  20.685   8.143
 1850POPC   C4B25930  40.755  20.923   7.792
 1851POPC   NC325931   7.450   5.375   9.831
 1851POPC   PO425932   7.112   5.533   9.310
 1851POPC   GL125933   7.305   5.193   9.121
 1851POPC   GL225934   7.609   5.048   9.228
 1851POPC   C1A25935   7.305   4.917   8.783
 1851POPC   D2A25936   7.122   5.039   8.406
 1851POPC   C3A25937   7.331   5.107   8.035
 1851POPC   C4A25938   7.210   5.225   7.566
 1851POPC   C1B25939   7.767   5.144   8.809
 1851POPC   C2B25940   7.748   5.420   8.423
 1851POPC   C3B25941   7.780   5.380   7.984
 1851POPC   C4B25942   7.716   5.017   7.735
 1852POPC   NC325943  42.263   1.138   9.374
 1852POPC   PO425944  42.775   1.532   9.480
 1852POPC   GL125945  42.546   1.458   9.074
 1852POPC   GL225946  42.241   1.536   9.022
 1852POPC   C1A25947  42.377   1.154   8.712
 1852POPC   D2A25948  42.104   0.868   8.437
 1852POPC   C3A25949  42.184   0.885   8.013
 1852POPC   C4A25950  42.292   1.138   7.698
 1852POPC   C1B25951  42.071   1.587   8.667
 1852POPC   C2B25952  42.113   1.375   8.288
 1852POPC   C3B25953  41.954   1.517   7.916
 1852POPC   C4B25954  42.105   1.590   7.526
 1853POPC   NC325955   7.391  21.097   9.435
 1853POPC   PO425956   7.730  20.435   9.466
 1853POPC   GL125957   7.460  20.560   9.158
 1853POPC   GL225958   7.620  20.853   9.022
 1853POPC   C1A25959   7.320  20.353   8.787
 1853POPC   D2A25960   7.302  20.578   8.419
 1853POPC   C3A25961   7.120  20.372   8.083
 1853POPC   C4A25962   7.228  20.497   7.697
 1853POPC   C1B25963   7.811  20.473   8.781
 1853POPC   C2B25964   7.841  20.485   8.345
 1853POPC   C3B25965   7.631  20.750   8.040
 1853POPC   C4B25966   7.668  20.802   7.591
 1854POPC   NC325967  36.595  21.331   9.466
 1854POPC   PO425968  37.172  21.097   9.563
 1854POPC   GL125969  37.156  21.286   9.120
 1854POPC   GL225970  36.826  21.276   9.021
 1854POPC   C1A25971  37.149  21.533   8.706
 1854POPC   D2A25972  37.043  21.406   8.288
 1854POPC   C3A25973  36.961  21.598   7.915
 1854POPC   C4A25974  37.169  21.336   7.636
 1854POPC   C1B25975  36.888  21.083   8.659
 1854POPC   C2B25976  36.660  21.062   8.281
 1854POPC   C3B25977  36.782  21.078   7.854
 1854POPC   C4B25978  36.812  21.038   7.382
 1855POPC   NC325979  30.290   3.307  10.062
 1855POPC   PO425980  30.591   3.425   9.453
 1855POPC   GL125981  30.680   3.607   9.047
 1855POPC   GL225982  31.031   3.633   8.985
 1855POPC   C1A25983  30.504   3.873   8.701
 1855POPC   D2A25984  30.655   3.993   8.291
 1855POPC   C3A25985  30.532   3.698   7.948
 1855POPC   C4A25986  30.486   3.256   7.816
 1855POPC   C1B25987  30.994   3.756   8.609
 1855POPC   C2B25988  30.823   3.486   8.352
 1855POPC   C3B25989  30.979   3.335   8.022
 1855POPC   C4B25990  30.914   3.456   7.612
 1856POPC   NC325991  35.220  11.978   9.619
 1856POPC   PO425992  35.015  11.494   9.184
 1856POPC   GL125993  35.148  11.957   9.085
 1856POPC   GL225994  35.057  11.899   8.749
 1856POPC   C1A25995  35.453  12.213   8.768
 1856POPC   D2A25996  35.395  12.087   8.324
 1856POPC   C3A25997  35.375  12.255   7.903
 1856POPC   C4A25998  34.990  12.141   7.716
 1856POPC   C1B25999  35.383  11.618   8.588
 1856POPC   C2B26000  35.733  11.656   8.330
 1856POPC   C3B26001  35.686  11.837   7.935
 1856POPC   C4B26002  35.387  11.800   7.597
 1857POPC   NC326003  30.134  41.111   9.246
 1857POPC   PO426004  29.908  40.606   9.570
 1857POPC   GL126005  29.952  40.607   9.156
 1857POPC   GL226006  30.294  40.490   9.175
 1857POPC   C1A26007  29.806  40.462   8.739
 1857POPC   D2A26008  29.492  40.638   8.421
 1857POPC   C3A26009  29.661  40.878   8.055
 1857POPC   C4A26010  29.435  40.777   7.711
 1857POPC   C1B26011  30.250  40.730   8.763
 1857POPC   C2B26012  29.951  40.873   8.484
 1857POPC   C3B26013  30.110  40.668   8.136
 1857POPC   C4B26014  30.152  40.760   7.730
 1858POPC   NC326015  41.884  35.935   9.353
 1858POPC   PO426016  41.355  36.319   9.473
 1858POPC   GL126017  41.416  36.117   9.112
 1858POPC   GL226018  41.668  36.335   9.048
 1858POPC   C1A26019  41.547  35.927   8.702
 1858POPC   D2A26020  41.819  35.994   8.331
 1858POPC   C3A26021  41.598  36.020   7.963
 1858POPC   C4A26022  41.180  35.965   7.959
 1858POPC   C1B26023  41.793  36.412   8.636
 1858POPC   C2B26024  41.891  36.486   8.191
 1858POPC   C3B26025  41.781  36.439   7.760
 1858POPC   C4B26026  41.555  36.342   7.373
 1859POPC   NC326027  22.875  24.386   9.940
 1859POPC   PO426028  23.272  24.076   9.501
 1859POPC   GL126029  23.094  24.290   9.161
 1859POPC   GL226030  23.330  24.570   9.069
 1859POPC   C1A26031  22.855  24.351   8.779
 1859POPC   D2A26032  22.980  24.395   8.346
 1859POPC   C3A26033  23.045  24.699   8.022
 1859POPC   C4A26034  22.914  24.771   7.595
 1859POPC   C1B26035  23.439  24.223   8.791
 1859POPC   C2B26036  23.359  24.056   8.399
 1859POPC   C3B26037  23.328  24.239   8.014
 1859POPC   C4B26038  23.018  24.226   7.699
 1860POPC   NC326039  38.614  42.092   9.426
 1860POPC   PO426040  38.262  42.685   9.600
 1860POPC   GL126041  38.286  42.493   9.207
 1860POPC   GL226042  38.619  42.560   9.195
 1860POPC   C1A26043  38.396  42.406   8.749
 1860POPC   D2A26044  38.340  42.550   8.310
 1860POPC   C3A26045  38.408  42.330   7.907
 1860POPC   C4A26046  38.288  42.187   7.491
 1860POPC   C1B26047  38.863  42.597   8.842
 1860POPC   C2B26048  38.980  42.467   8.449
 1860POPC   C3B26049  38.826  42.625   8.083
 1860POPC   C4B26050  38.979  42.595   7.688
 1861POPC   NC326051  38.646  42.772   9.828
 1861POPC   PO426052  38.768  43.388   9.538
 1861POPC   GL126053  38.513  43.061   9.338
 1861POPC   GL226054  38.269  43.310   9.250
 1861POPC   C1A26055  38.383  42.905   8.907
 1861POPC   D2A26056  38.642  42.918   8.518
 1861POPC   C3A26057  38.479  43.038   8.119
 1861POPC   C4A26058  38.523  42.857   7.734
 1861POPC   C1B26059  38.576  43.371   8.914
 1861POPC   C2B26060  38.534  43.418   8.501
 1861POPC   C3B26061  38.561  43.554   8.108
 1861POPC   C4B26062  38.550  43.399   7.735
 1862POPC   NC326063  40.959  13.430   9.463
 1862POPC   PO426064  40.522  13.957   9.330
 1862POPC   GL126065  40.753  13.702   9.043
 1862POPC   GL226066  41.070  13.874   8.986
 1862POPC   C1A26067  40.805  13.779   8.574
 1862POPC   D2A26068  41.032  13.727   8.203
 1862POPC   C3A26069  40.743  13.506   7.976
 1862POPC   C4A26070  40.547  13.432   7.614
 1862POPC   C1B26071  41.186  13.494   8.773
 1862POPC   C2B26072  41.077  13.269   8.428
 1862POPC   C3B26073  41.202  13.272   8.027
 1862POPC   C4B26074  41.043  13.213   7.626
 1863POPC   NC326075  18.402   1.626   9.422
 1863POPC   PO426076  18.090   1.058   9.405
 1863POPC   GL126077  18.322   1.238   9.092
 1863POPC   GL226078  18.306   0.952   8.908
 1863POPC   C1A26079  18.442   1.382   8.677
 1863POPC   D2A26080  18.312   1.175   8.309
 1863POPC   C3A26081  18.407   1.484   8.011
 1863POPC   C4A26082  18.091   1.564   7.732
 1863POPC   C1B26083  18.723   0.976   8.781
 1863POPC   C2B26084  18.834   1.121   8.382
 1863POPC   C3B26085  18.699   1.026   7.998
 1863POPC   C4B26086  18.320   1.042   7.771
 1864POPC   NC326087  17.861  39.355   9.525
 1864POPC   PO426088  17.304  39.084   9.725
 1864POPC   GL126089  17.523  39.060   9.288
 1864POPC   GL226090  17.494  39.388   9.151
 1864POPC   C1A26091  17.550  38.957   8.858
 1864POPC   D2A26092  17.393  39.148   8.460
 1864POPC   C3A26093  17.513  38.985   8.072
 1864POPC   C4A26094  17.426  39.175   7.685
 1864POPC   C1B26095  17.716  39.428   8.753
 1864POPC   C2B26096  17.672  39.596   8.355
 1864POPC   C3B26097  17.767  39.454   7.952
 1864POPC   C4B26098  17.990  39.590   7.623
 1865POPC   NC326099  29.079  24.137   9.581
 1865POPC   PO426100  28.989  23.521   9.622
 1865POPC   GL126101  29.072  23.720   9.246
 1865POPC   GL226102  29.372  23.956   9.222
 1865POPC   C1A26103  28.883  23.718   8.849
 1865POPC   D2A26104  29.057  23.519   8.515
 1865POPC   C3A26105  29.089  23.610   8.093
 1865POPC   C4A26106  28.935  23.793   7.723
 1865POPC   C1B26107  29.365  23.867   8.817
 1865POPC   C2B26108  29.255  24.022   8.448
 1865POPC   C3B26109  29.258  24.085   8.045
 1865POPC   C4B26110  29.451  23.863   7.731
 1866POPC   NC326111  32.673  30.408   9.534
 1866POPC   PO426112  32.023  30.517   9.764
 1866POPC   GL126113  32.192  30.678   9.342
 1866POPC   GL226114  32.515  30.830   9.272
 1866POPC   C1A26115  32.177  30.674   8.857
 1866POPC   D2A26116  31.965  30.682   8.430
 1866POPC   C3A26117  32.209  30.746   8.034
 1866POPC   C4A26118  32.073  30.721   7.625
 1866POPC   C1B26119  32.641  30.949   8.854
 1866POPC   C2B26120  32.492  30.904   8.440
 1866POPC   C3B26121  32.591  31.093   8.061
 1866POPC   C4B26122  32.525  30.946   7.660
 1867POPC   NC326123  44.787   1.515   9.682
 1867POPC   PO426124  44.404   1.016   9.581
 1867POPC   GL126125  44.435   1.435   9.306
 1867POPC   GL226126  44.783   1.604   9.191
 1867POPC   C1A26127  44.395   1.515   8.838
 1867POPC   D2A26128  44.401   1.186   8.482
 1867POPC   C3A26129  44.581   1.251   8.064
 1867POPC   C4A26130  44.719   0.986   7.718
 1867POPC   C1B26131  44.950   1.403   8.822
 1867POPC   C2B26132  44.878   1.513   8.403
 1867POPC   C3B26133   0.037   1.503   7.991
 1867POPC   C4B26134  44.795   1.464   7.615
 1868POPC   NC326135  25.681  17.088   9.586
 1868POPC   PO426136  25.229  17.663   9.653
 1868POPC   GL126137  25.337  17.602   9.236
 1868POPC   GL226138  25.361  17.261   9.250
 1868POPC   C1A26139  25.171  17.452   8.830
 1868POPC   D2A26140  24.992  17.353   8.429
 1868POPC   C3A26141  25.168  17.510   8.067
 1868POPC   C4A26142  25.066  17.261   7.781
 1868POPC   C1B26143  25.608  17.143   8.889
 1868POPC   C2B26144  25.537  17.301   8.471
 1868POPC   C3B26145  25.622  17.263   8.042
 1868POPC   C4B26146  25.592  17.494   7.694
 1869POPC   NC326147  15.309  44.055   9.581
 1869POPC   PO426148  15.449  43.426   9.347
 1869POPC   GL126149  15.253  43.813   9.119
 1869POPC   GL226150  15.345  44.197   9.095
 1869POPC   C1A26151  15.233  43.925   8.681
 1869POPC   D2A26152  15.002  43.824   8.328
 1869POPC   C3A26153  15.133  43.873   7.910
 1869POPC   C4A26154  14.940  43.721   7.531
 1869POPC   C1B26155  15.542  44.339   8.707
 1869POPC   C2B26156  15.584  44.102   8.312
 1869POPC   C3B26157  15.468  44.261   7.899
 1869POPC   C4B26158  15.418  44.305   7.451
 1870POPC   NC326159  15.498  12.078   9.502
 1870POPC   PO426160  16.175  12.288   9.568
 1870POPC   GL126161  15.898  12.315   9.203
 1870POPC   GL226162  15.926  11.984   9.127
 1870POPC   C1A26163  15.733  12.397   8.768
 1870POPC   D2A26164  15.800  12.266   8.318
 1870POPC   C3A26165  15.682  12.435   7.882
 1870POPC   C4A26166  15.892  12.497   7.459
 1870POPC   C1B26167  16.231  11.733   8.834
 1870POPC   C2B26168  16.024  11.792   8.426
 1870POPC   C3B26169  16.034  11.929   7.997
 1870POPC   C4B26170  16.337  11.859   7.667
 1871POPC   NC326171  22.311   7.311   9.428
 1871POPC   PO426172  21.841   7.752   9.771
 1871POPC   GL126173  21.864   7.613   9.263
 1871POPC   GL226174  21.947   7.266   9.094
 1871POPC   C1A26175  21.809   7.608   8.761
 1871POPC   D2A26176  21.872   7.199   8.510
 1871POPC   C3A26177  21.900   7.234   8.076
 1871POPC   C4A26178  21.940   7.663   7.986
 1871POPC   C1B26179  22.276   7.342   8.764
 1871POPC   C2B26180  22.282   7.511   8.364
 1871POPC   C3B26181  22.421   7.448   7.960
 1871POPC   C4B26182  22.661   7.208   7.677
 1872POPC   NC326183  43.185  18.909   9.769
 1872POPC   PO426184  42.667  18.893   9.427
 1872POPC   GL126185  43.035  19.051   9.179
 1872POPC   GL226186  42.945  19.375   9.008
 1872POPC   C1A26187  43.316  19.046   8.794
 1872POPC   D2A26188  43.425  19.145   8.374
 1872POPC   C3A26189  43.181  19.085   8.048
 1872POPC   C4A26190  43.367  19.185   7.687
 1872POPC   C1B26191  42.656  19.506   8.640
 1872POPC   C2B26192  42.600  19.573   8.163
 1872POPC   C3B26193  42.803  19.345   7.816
 1872POPC   C4B26194  42.939  19.139   7.439
 1873POPC   NC326195  28.032  17.033   9.459
 1873POPC   PO426196  28.059  17.700   9.523
 1873POPC   GL126197  28.310  17.735   9.127
 1873POPC   GL226198  28.679  17.740   9.204
 1873POPC   C1A26199  28.378  17.570   8.686
 1873POPC   D2A26200  28.366  17.240   8.360
 1873POPC   C3A26201  28.162  17.379   7.979
 1873POPC   C4A26202  27.903  17.423   7.595
 1873POPC   C1B26203  28.879  17.526   8.842
 1873POPC   C2B26204  28.837  17.450   8.403
 1873POPC   C3B26205  28.612  17.599   8.030
 1873POPC   C4B26206  28.422  17.478   7.573
 1874POPC   NC326207  28.202  43.998   9.828
 1874POPC   PO426208  28.558  43.635   9.304
 1874POPC   GL126209  28.368  43.931   9.133
 1874POPC   GL226210  28.138  44.057   9.315
 1874POPC   C1A26211  28.387  43.981   8.728
 1874POPC   D2A26212  28.394  43.735   8.371
 1874POPC   C3A26213  28.619  43.895   8.027
 1874POPC   C4A26214  28.434  43.689   7.716
 1874POPC   C1B26215  28.044  44.309   8.928
 1874POPC   C2B26216  27.967  44.220   8.487
 1874POPC   C3B26217  28.072  44.042   8.066
 1874POPC   C4B26218  28.088  44.242   7.686
 1875POPC   NC326219  14.328  25.404   9.272
 1875POPC   PO426220  13.967  24.931   9.564
 1875POPC   GL126221  14.119  24.913   9.095
 1875POPC   GL226222  14.480  24.862   9.032
 1875POPC   C1A26223  14.199  25.170   8.657
 1875POPC   D2A26224  14.445  25.559   8.444
 1875POPC   C3A26225  14.516  25.462   7.995
 1875POPC   C4A26226  14.116  25.341   7.792
 1875POPC   C1B26227  14.694  25.158   8.782
 1875POPC   C2B26228  14.798  25.199   8.372
 1875POPC   C3B26229  14.847  24.977   8.040
 1875POPC   C4B26230  14.698  25.093   7.657
 1876POPC   NC326231  36.604  25.788   9.323
 1876POPC   PO426232  37.087  26.286   9.434
 1876POPC   GL126233  36.850  26.192   9.095
 1876POPC   GL226234  37.063  25.904   9.042
 1876POPC   C1A26235  36.799  26.132   8.663
 1876POPC   D2A26236  36.940  26.258   8.274
 1876POPC   C3A26237  36.743  26.009   7.967
 1876POPC   C4A26238  36.751  25.797   7.566
 1876POPC   C1B26239  37.249  25.670   8.718
 1876POPC   C2B26240  37.062  25.757   8.315
 1876POPC   C3B26241  37.128  25.679   7.870
 1876POPC   C4B26242  37.191  25.660   7.395
 1877POPC   NC326243  42.474  36.920   9.570
 1877POPC   PO426244  41.837  37.149   9.505
 1877POPC   GL126245  42.097  36.929   9.157
 1877POPC   GL226246  42.400  36.695   9.133
 1877POPC   C1A26247  42.313  36.983   8.731
 1877POPC   D2A26248  42.430  36.795   8.323
 1877POPC   C3A26249  42.400  37.096   7.946
 1877POPC   C4A26250  42.025  37.154   7.697
 1877POPC   C1B26251  42.454  36.466   8.760
 1877POPC   C2B26252  42.669  36.317   8.419
 1877POPC   C3B26253  42.603  36.433   7.989
 1877POPC   C4B26254  42.236  36.644   7.804
 1878POPC   NC326255  23.902  31.786   9.605
 1878POPC   PO426256  23.447  31.313   9.805
 1878POPC   GL126257  23.406  31.419   9.375
 1878POPC   GL226258  23.745  31.390   9.256
 1878POPC   C1A26259  23.392  31.425   8.905
 1878POPC   D2A26260  23.588  31.232   8.523
 1878POPC   C3A26261  23.390  31.239   8.140
 1878POPC   C4A26262  23.461  31.466   7.749
 1878POPC   C1B26263  23.948  31.327   8.862
 1878POPC   C2B26264  24.058  31.513   8.474
 1878POPC   C3B26265  23.855  31.465   8.095
 1878POPC   C4B26266  23.971  31.441   7.673
 1879POPC   NC326267  32.988  41.231   9.480
 1879POPC   PO426268  32.643  41.818   9.405
 1879POPC   GL126269  33.065  41.774   9.166
 1879POPC   GL226270  33.121  41.413   9.033
 1879POPC   C1A26271  33.213  41.776   8.720
 1879POPC   D2A26272  32.891  41.522   8.523
 1879POPC   C3A26273  32.853  41.544   8.078
 1879POPC   C4A26274  33.220  41.776   7.900
 1879POPC   C1B26275  33.313  41.257   8.644
 1879POPC   C2B26276  33.167  41.139   8.188
 1879POPC   C3B26277  33.167  41.289   7.728
 1879POPC   C4B26278  33.315  41.137   7.327
 1880POPC   NC326279  16.616  45.000   9.450
 1880POPC   PO426280  17.070  44.793   9.909
 1880POPC   GL126281  16.736  44.517   9.408
 1880POPC   GL226282  16.608  44.702   9.070
 1880POPC   C1A26283  16.870  44.316   8.932
 1880POPC   D2A26284  16.928  44.284   8.455
 1880POPC   C3A26285  16.826  44.567   8.109
 1880POPC   C4A26286  16.708  44.508   7.676
 1880POPC   C1B26287  16.759  44.773   8.647
 1880POPC   C2B26288  16.561  44.999   8.299
 1880POPC   C3B26289  16.405  44.851   7.913
 1880POPC   C4B26290  16.515  44.941   7.455
 1881POPC   NC326291  13.811  42.254   9.704
 1881POPC   PO426292  13.161  42.456   9.608
 1881POPC   GL126293  13.332  42.487   9.190
 1881POPC   GL226294  13.667  42.429   9.109
 1881POPC   C1A26295  13.318  42.243   8.784
 1881POPC   D2A26296  13.157  42.350   8.389
 1881POPC   C3A26297  13.423  42.455   8.069
 1881POPC   C4A26298  13.550  42.237   7.695
 1881POPC   C1B26299  13.794  42.385   8.634
 1881POPC   C2B26300  13.906  42.411   8.208
 1881POPC   C3B26301  14.030  42.250   7.835
 1881POPC   C4B26302  13.967  42.156   7.400
 1882POPC   NC326303  32.390   7.892   9.396
 1882POPC   PO426304  32.141   7.131   9.434
 1882POPC   GL126305  32.321   7.164   9.062
 1882POPC   GL226306  32.359   7.502   9.101
 1882POPC   C1A26307  32.386   7.298   8.647
 1882POPC   D2A26308  32.104   7.430   8.334
 1882POPC   C3A26309  32.239   7.293   7.953
 1882POPC   C4A26310  32.473   7.170   7.624
 1882POPC   C1B26311  32.159   7.774   8.750
 1882POPC   C2B26312  32.198   7.952   8.311
 1882POPC   C3B26313  31.998   7.766   7.915
 1882POPC   C4B26314  32.186   7.588   7.472
 1883POPC   NC326315  18.249  38.433   9.533
 1883POPC   PO426316  18.817  38.833   9.349
 1883POPC   GL126317  18.411  38.673   9.114
 1883POPC   GL226318  18.295  38.279   9.074
 1883POPC   C1A26319  18.345  38.605   8.685
 1883POPC   D2A26320  18.394  38.850   8.349
 1883POPC   C3A26321  18.381  38.616   7.996
 1883POPC   C4A26322  18.383  38.844   7.626
 1883POPC   C1B26323  18.385  38.073   8.723
 1883POPC   C2B26324  18.223  38.158   8.337
 1883POPC   C3B26325  18.394  38.095   7.947
 1883POPC   C4B26326  18.300  38.324   7.570
 1884POPC   NC326327  43.012  20.964   9.583
 1884POPC   PO426328  43.030  21.606   9.591
 1884POPC   GL126329  43.196  21.426   9.209
 1884POPC   GL226330  43.113  21.084   9.088
 1884POPC   C1A26331  43.048  21.609   8.838
 1884POPC   D2A26332  42.811  21.562   8.476
 1884POPC   C3A26333  43.094  21.519   8.138
 1884POPC   C4A26334  42.926  21.655   7.749
 1884POPC   C1B26335  43.106  21.152   8.637
 1884POPC   C2B26336  43.404  21.092   8.333
 1884POPC   C3B26337  43.453  21.202   7.932
 1884POPC   C4B26338  43.076  21.148   7.765
 1885POPC   NC326339   9.132  38.814   9.497
 1885POPC   PO426340   8.714  38.359   9.756
 1885POPC   GL126341   8.747  38.325   9.262
 1885POPC   GL226342   8.777  38.670   9.163
 1885POPC   C1A26343   8.984  38.308   8.844
 1885POPC   D2A26344   9.191  38.048   8.535
 1885POPC   C3A26345   8.996  38.178   8.136
 1885POPC   C4A26346   9.242  38.416   7.834
 1885POPC   C1B26347   9.053  38.823   8.813
 1885POPC   C2B26348   8.961  38.842   8.378
 1885POPC   C3B26349   9.176  38.890   7.998
 1885POPC   C4B26350   9.075  38.755   7.529
 1886POPC   NC326351   8.600  25.395   9.472
 1886POPC   PO426352   8.022  25.012   9.603
 1886POPC   GL126353   8.135  24.949   9.176
 1886POPC   GL226354   8.515  24.991   9.141
 1886POPC   C1A26355   7.993  25.118   8.770
 1886POPC   D2A26356   8.196  25.124   8.371
 1886POPC   C3A26357   7.996  25.036   7.984
 1886POPC   C4A26358   8.066  25.150   7.583
 1886POPC   C1B26359   8.464  25.347   8.818
 1886POPC   C2B26360   8.331  25.603   8.445
 1886POPC   C3B26361   8.293  25.491   7.980
 1886POPC   C4B26362   8.451  25.476   7.543
 1887POPC   NC326363   1.513  42.698   9.477
 1887POPC   PO426364   1.167  42.078   9.387
 1887POPC   GL126365   1.226  42.438   9.129
 1887POPC   GL226366   0.968  42.691   9.180
 1887POPC   C1A26367   1.278  42.510   8.678
 1887POPC   D2A26368   1.039  42.239   8.368
 1887POPC   C3A26369   1.181  42.072   7.984
 1887POPC   C4A26370   1.108  42.027   7.570
 1887POPC   C1B26371   0.792  42.703   8.757
 1887POPC   C2B26372   0.978  42.742   8.311
 1887POPC   C3B26373   1.199  42.600   7.917
 1887POPC   C4B26374   1.072  42.530   7.452
 1888POPC   NC326375   0.493  18.448   9.556
 1888POPC   PO426376   0.461  17.786   9.583
 1888POPC   GL126377   0.463  18.015   9.159
 1888POPC   GL226378   0.643  18.288   9.110
 1888POPC   C1A26379   0.201  18.063   8.761
 1888POPC   D2A26380   0.111  18.314   8.363
 1888POPC   C3A26381   0.331  18.146   7.971
 1888POPC   C4A26382   0.216  17.936   7.573
 1888POPC   C1B26383   0.519  18.474   8.730
 1888POPC   C2B26384   0.842  18.647   8.482
 1888POPC   C3B26385   0.785  18.855   8.124
 1888POPC   C4B26386   0.677  18.527   7.862
 1889POPC   NC326387   2.792  13.470   9.471
 1889POPC   PO426388   2.499  14.135   9.398
 1889POPC   GL126389   2.555  13.789   9.141
 1889POPC   GL226390   2.931  13.759   9.072
 1889POPC   C1A26391   2.489  13.617   8.750
 1889POPC   D2A26392   2.416  13.731   8.325
 1889POPC   C3A26393   2.705  13.504   8.082
 1889POPC   C4A26394   2.819  13.597   7.686
 1889POPC   C1B26395   2.974  13.358   8.863
 1889POPC   C2B26396   3.044  13.242   8.464
 1889POPC   C3B26397   2.977  13.064   8.110
 1889POPC   C4B26398   3.006  13.130   7.719
 1890POPC   NC326399   2.638  12.613   9.529
 1890POPC   PO426400   2.373  13.219   9.469
 1890POPC   GL126401   2.654  12.987   9.156
 1890POPC   GL226402   2.392  12.710   9.111
 1890POPC   C1A26403   2.957  12.835   8.801
 1890POPC   D2A26404   3.240  12.751   8.449
 1890POPC   C3A26405   3.061  12.551   8.093
 1890POPC   C4A26406   3.003  12.636   7.693
 1890POPC   C1B26407   2.464  12.757   8.697
 1890POPC   C2B26408   2.650  12.743   8.324
 1890POPC   C3B26409   2.569  12.849   7.883
 1890POPC   C4B26410   2.504  13.201   7.665
 1891POPC   NC326411  16.017  18.636   9.565
 1891POPC   PO426412  15.736  18.021   9.562
 1891POPC   GL126413  15.823  18.309   9.170
 1891POPC   GL226414  16.145  18.462   9.096
 1891POPC   C1A26415  15.864  18.348   8.691
 1891POPC   D2A26416  15.830  18.601   8.303
 1891POPC   C3A26417  15.813  18.300   7.915
 1891POPC   C4A26418  16.086  17.912   7.814
 1891POPC   C1B26419  16.331  18.585   8.709
 1891POPC   C2B26420  16.230  18.913   8.413
 1891POPC   C3B26421  16.280  18.786   7.996
 1891POPC   C4B26422  16.345  18.352   7.875
 1892POPC   NC326423  26.218  30.768   9.730
 1892POPC   PO426424  25.913  31.454   9.610
 1892POPC   GL126425  26.060  31.630   9.224
 1892POPC   GL226426  25.956  31.323   9.081
 1892POPC   C1A26427  26.045  31.768   8.808
 1892POPC   D2A26428  26.073  31.550   8.422
 1892POPC   C3A26429  26.071  31.710   8.047
 1892POPC   C4A26430  25.937  31.731   7.648
 1892POPC   C1B26431  25.775  31.212   8.671
 1892POPC   C2B26432  25.642  31.270   8.235
 1892POPC   C3B26433  25.864  31.279   7.845
 1892POPC   C4B26434  25.829  31.296   7.379
 1893POPC   NC326435   3.576  33.606   9.465
 1893POPC   PO426436   3.090  34.135   9.554
 1893POPC   GL126437   3.238  33.889   9.199
 1893POPC   GL226438   3.619  33.981   9.130
 1893POPC   C1A26439   3.360  33.709   8.795
 1893POPC   D2A26440   3.380  33.947   8.417
 1893POPC   C3A26441   3.515  33.843   8.014
 1893POPC   C4A26442   3.469  33.607   7.651
 1893POPC   C1B26443   3.708  34.191   8.754
 1893POPC   C2B26444   3.946  34.126   8.359
 1893POPC   C3B26445   3.849  34.248   7.940
 1893POPC   C4B26446   3.716  34.045   7.561
 1894POPC   NC326447   9.854  38.478   9.623
 1894POPC   PO426448   9.231  38.367   9.446
 1894POPC   GL126449   9.590  38.356   9.171
 1894POPC   GL226450   9.959  38.459   9.145
 1894POPC   C1A26451   9.495  38.471   8.768
 1894POPC   D2A26452   9.358  38.503   8.344
 1894POPC   C3A26453   9.522  38.117   8.130
 1894POPC   C4A26454   9.663  38.138   7.707
 1894POPC   C1B26455  10.012  38.576   8.771
 1894POPC   C2B26456   9.856  38.401   8.405
 1894POPC   C3B26457   9.758  38.546   7.989
 1894POPC   C4B26458  10.029  38.678   7.653
 1895POPC   NC326459  27.481  27.120   9.454
 1895POPC   PO426460  27.553  26.431   9.638
 1895POPC   GL126461  27.356  26.652   9.280
 1895POPC   GL226462  27.649  26.775   9.101
 1895POPC   C1A26463  27.258  26.627   8.823
 1895POPC   D2A26464  27.381  26.897   8.495
 1895POPC   C3A26465  27.375  26.762   8.091
 1895POPC   C4A26466  27.684  26.707   7.815
 1895POPC   C1B26467  27.858  26.783   8.691
 1895POPC   C2B26468  27.856  26.883   8.273
 1895POPC   C3B26469  27.848  27.218   7.980
 1895POPC   C4B26470  28.003  27.348   7.594
 1896POPC   NC326471  38.612  18.431   9.517
 1896POPC   PO426472  38.119  17.958   9.525
 1896POPC   GL126473  38.335  18.171   9.171
 1896POPC   GL226474  38.674  18.112   9.106
 1896POPC   C1A26475  38.413  18.389   8.760
 1896POPC   D2A26476  38.535  18.638   8.384
 1896POPC   C3A26477  38.324  18.465   8.029
 1896POPC   C4A26478  38.176  18.037   8.009
 1896POPC   C1B26479  38.824  18.043   8.706
 1896POPC   C2B26480  38.583  18.106   8.351
 1896POPC   C3B26481  38.699  18.107   7.945
 1896POPC   C4B26482  38.894  17.947   7.584
 1897POPC   NC326483  29.401  25.740   9.570
 1897POPC   PO426484  29.250  26.436   9.588
 1897POPC   GL126485  29.274  26.259   9.161
 1897POPC   GL226486  29.335  25.903   9.105
 1897POPC   C1A26487  29.235  26.203   8.703
 1897POPC   D2A26488  29.054  26.272   8.288
 1897POPC   C3A26489  29.134  25.978   7.935
 1897POPC   C4A26490  29.114  26.075   7.520
 1897POPC   C1B26491  28.931  25.882   8.959
 1897POPC   C2B26492  28.906  25.825   8.518
 1897POPC   C3B26493  28.711  25.839   8.152
 1897POPC   C4B26494  28.586  25.854   7.745
 1898POPC   NC326495  15.204  41.807   9.429
 1898POPC   PO426496  14.746  41.300   9.554
 1898POPC   GL126497  15.020  41.346   9.183
 1898POPC   GL226498  15.373  41.431   9.152
 1898POPC   C1A26499  15.128  41.246   8.747
 1898POPC   D2A26500  14.874  41.364   8.408
 1898POPC   C3A26501  15.071  41.350   8.020
 1898POPC   C4A26502  15.131  41.619   7.677
 1898POPC   C1B26503  15.384  41.714   8.811
 1898POPC   C2B26504  15.386  41.592   8.401
 1898POPC   C3B26505  15.346  41.851   8.065
 1898POPC   C4B26506  15.571  41.904   7.716
 1899POPC   NC326507  16.354  11.824   9.556
 1899POPC   PO426508  16.929  12.215   9.545
 1899POPC   GL126509  16.777  12.167   9.161
 1899POPC   GL226510  16.415  12.184   9.136
 1899POPC   C1A26511  16.719  11.909   8.797
 1899POPC   D2A26512  16.514  11.908   8.409
 1899POPC   C3A26513  16.783  11.883   8.063
 1899POPC   C4A26514  16.786  12.106   7.680
 1899POPC   C1B26515  16.202  12.209   8.737
 1899POPC   C2B26516  16.292  12.402   8.375
 1899POPC   C3B26517  16.413  12.263   8.014
 1899POPC   C4B26518  16.375  12.414   7.640
 1900POPC   NC326519   9.204  25.679   9.499
 1900POPC   PO426520   8.920  25.066   9.491
 1900POPC   GL126521   9.112  25.095   9.145
 1900POPC   GL226522   8.995  24.796   9.037
 1900POPC   C1A26523   9.090  25.385   8.824
 1900POPC   D2A26524   8.849  25.530   8.490
 1900POPC   C3A26525   9.051  25.523   8.092
 1900POPC   C4A26526   8.922  25.618   7.673
 1900POPC   C1B26527   8.804  24.985   8.701
 1900POPC   C2B26528   9.011  25.072   8.325
 1900POPC   C3B26529   9.135  25.044   7.895
 1900POPC   C4B26530   8.812  25.115   7.608
 1901POPC   NC326531   7.165  44.512   9.725
 1901POPC   PO426532   7.553   0.015   9.587
 1901POPC   GL126533   7.526  44.697   9.219
 1901POPC   GL226534   7.262  44.454   9.194
 1901POPC   C1A26535   7.559  44.586   8.774
 1901POPC   D2A26536   7.283  44.702   8.422
 1901POPC   C3A26537   7.418  44.771   7.992
 1901POPC   C4A26538   7.631  44.885   7.574
 1901POPC   C1B26539   7.099  44.251   8.799
 1901POPC   C2B26540   6.944  44.318   8.354
 1901POPC   C3B26541   7.131  44.346   7.942
 1901POPC   C4B26542   7.299  44.498   7.548
 1902POPC   NC326543  26.636  26.536   9.468
 1902POPC   PO426544  27.017  27.050   9.477
 1902POPC   GL126545  26.875  26.834   9.128
 1902POPC   GL226546  26.559  26.977   9.198
 1902POPC   C1A26547  26.755  26.600   8.761
 1902POPC   D2A26548  26.880  26.687   8.331
 1902POPC   C3A26549  26.613  26.555   7.994
 1902POPC   C4A26550  26.709  26.570   7.566
 1902POPC   C1B26551  26.537  27.056   8.789
 1902POPC   C2B26552  26.934  27.115   8.590
 1902POPC   C3B26553  27.074  27.161   8.156
 1902POPC   C4B26554  27.010  26.954   7.751
 1903POPC   NC326555   9.499  22.395   9.517
 1903POPC   PO426556  10.000  22.061   9.295
 1903POPC   GL126557   9.791  22.263   9.006
 1903POPC   GL226558   9.419  22.285   9.026
 1903POPC   C1A26559   9.869  22.071   8.637
 1903POPC   D2A26560  10.033  21.973   8.275
 1903POPC   C3A26561   9.814  22.078   7.899
 1903POPC   C4A26562   9.980  22.133   7.488
 1903POPC   C1B26563   9.393  21.929   8.754
 1903POPC   C2B26564   9.502  21.910   8.314
 1903POPC   C3B26565   9.337  22.197   8.043
 1903POPC   C4B26566   9.547  22.552   7.857
 1904POPC   NC326567  20.690   3.939   9.455
 1904POPC   PO426568  20.563   3.291   9.507
 1904POPC   GL126569  20.804   3.496   9.218
 1904POPC   GL226570  20.509   3.691   9.049
 1904POPC   C1A26571  20.931   3.467   8.818
 1904POPC   D2A26572  20.603   3.534   8.541
 1904POPC   C3A26573  20.577   3.410   8.128
 1904POPC   C4A26574  20.579   3.695   7.802
 1904POPC   C1B26575  20.365   3.966   8.691
 1904POPC   C2B26576  20.307   3.870   8.255
 1904POPC   C3B26577  20.205   4.035   7.845
 1904POPC   C4B26578  20.228   3.851   7.407
 1905POPC   NC326579  10.161  44.144   9.454
 1905POPC   PO426580   9.560  44.311   9.594
 1905POPC   GL126581   9.724  43.994   9.229
 1905POPC   GL226582   9.711  43.614   9.243
 1905POPC   C1A26583   9.829  43.995   8.775
 1905POPC   D2A26584   9.597  44.033   8.364
 1905POPC   C3A26585   9.857  44.132   8.015
 1905POPC   C4A26586   9.727  43.866   7.707
 1905POPC   C1B26587   9.478  43.617   8.858
 1905POPC   C2B26588   9.427  43.411   8.443
 1905POPC   C3B26589   9.293  43.493   8.016
 1905POPC   C4B26590   9.459  43.438   7.622
 1906POPC   NC326591  44.323  35.170   9.489
 1906POPC   PO426592  43.659  35.246   9.541
 1906POPC   GL126593  43.930  35.279   9.165
 1906POPC   GL226594  44.072  35.571   9.028
 1906POPC   C1A26595  44.199  35.116   8.833
 1906POPC   D2A26596  44.332  35.027   8.428
 1906POPC   C3A26597  44.107  35.249   8.123
 1906POPC   C4A26598  43.851  35.078   7.771
 1906POPC   C1B26599  43.973  35.531   8.586
 1906POPC   C2B26600  43.630  35.392   8.328
 1906POPC   C3B26601  43.562  35.488   7.905
 1906POPC   C4B26602  43.993  35.558   7.738
 1907POPC   NC326603  22.504  40.185   9.336
 1907POPC   PO426604  21.959  40.141   9.628
 1907POPC   GL126605  21.975  39.999   9.197
 1907POPC   GL226606  22.261  39.883   9.022
 1907POPC   C1A26607  21.832  40.089   8.781
 1907POPC   D2A26608  21.742  39.899   8.385
 1907POPC   C3A26609  21.945  40.074   8.022
 1907POPC   C4A26610  22.082  40.213   7.618
 1907POPC   C1B26611  22.291  40.295   8.765
 1907POPC   C2B26612  22.113  40.379   8.397
 1907POPC   C3B26613  22.333  40.407   8.021
 1907POPC   C4B26614  22.569  40.393   7.686
 1908POPC   NC326615  10.416  20.888   9.484
 1908POPC   PO426616  10.915  20.483   9.556
 1908POPC   GL126617  10.669  20.502   9.194
 1908POPC   GL226618  10.376  20.608   9.061
 1908POPC   C1A26619  10.800  20.541   8.770
 1908POPC   D2A26620  10.808  20.236   8.444
 1908POPC   C3A26621  10.778  20.430   8.006
 1908POPC   C4A26622  10.624  20.751   7.665
 1908POPC   C1B26623  10.450  20.899   8.734
 1908POPC   C2B26624  10.648  20.781   8.342
 1908POPC   C3B26625  10.326  20.845   8.062
 1908POPC   C4B26626  10.162  21.008   7.673
 1909POPC   NC326627  27.300   9.224   9.543
 1909POPC   PO426628  27.922   8.917   9.440
 1909POPC   GL126629  27.737   9.175   9.144
 1909POPC   GL226630  27.434   9.276   9.031
 1909POPC   C1A26631  27.914   9.177   8.765
 1909POPC   D2A26632  27.963   8.835   8.517
 1909POPC   C3A26633  27.789   9.065   8.211
 1909POPC   C4A26634  27.718   8.877   7.849
 1909POPC   C1B26635  27.473   8.876   8.742
 1909POPC   C2B26636  27.466   8.678   8.295
 1909POPC   C3B26637  27.250   8.673   7.895
 1909POPC   C4B26638  27.346   8.905   7.485
 1910POPC   NC326639  12.292  36.572   9.513
 1910POPC   PO426640  11.945  37.197   9.540
 1910POPC   GL126641  11.988  36.889   9.210
 1910POPC   GL226642  12.343  36.942   9.163
 1910POPC   C1A26643  12.043  36.767   8.770
 1910POPC   D2A26644  12.119  36.661   8.327
 1910POPC   C3A26645  11.823  36.873   8.056
 1910POPC   C4A26646  11.941  37.055   7.645
 1910POPC   C1B26647  12.368  37.188   8.784
 1910POPC   C2B26648  12.353  37.136   8.350
 1910POPC   C3B26649  12.335  37.000   7.964
 1910POPC   C4B26650  12.605  36.795   7.703
 1911POPC   NC326651   5.782  37.146   9.542
 1911POPC   PO426652   6.009  36.547   9.442
 1911POPC   GL126653   5.810  36.812   9.121
 1911POPC   GL226654   5.936  37.148   9.053
 1911POPC   C1A26655   5.714  36.832   8.688
 1911POPC   D2A26656   5.902  36.925   8.292
 1911POPC   C3A26657   5.963  36.647   7.937
 1911POPC   C4A26658   5.632  36.436   7.736
 1911POPC   C1B26659   6.028  37.285   8.646
 1911POPC   C2B26660   6.120  37.403   8.222
 1911POPC   C3B26661   5.811  37.284   7.937
 1911POPC   C4B26662   5.536  36.922   7.868
 1912POPC   NC326663  34.569   2.202   9.394
 1912POPC   PO426664  34.336   1.633   9.307
 1912POPC   GL126665  34.539   1.856   9.028
 1912POPC   GL226666  34.869   1.787   9.129
 1912POPC   C1A26667  34.475   2.117   8.679
 1912POPC   D2A26668  34.233   2.392   8.405
 1912POPC   C3A26669  34.373   2.299   8.017
 1912POPC   C4A26670  34.314   2.014   7.707
 1912POPC   C1B26671  34.969   2.026   8.807
 1912POPC   C2B26672  35.027   2.107   8.433
 1912POPC   C3B26673  34.794   2.007   8.118
 1912POPC   C4B26674  34.902   2.106   7.735
 1913POPC   NC326675  29.511  13.706   9.425
 1913POPC   PO426676  28.912  13.891   9.480
 1913POPC   GL126677  29.060  13.683   9.103
 1913POPC   GL226678  29.211  13.349   9.201
 1913POPC   C1A26679  29.077  13.763   8.638
 1913POPC   D2A26680  29.327  13.879   8.268
 1913POPC   C3A26681  29.026  13.867   7.909
 1913POPC   C4A26682  28.893  13.458   7.688
 1913POPC   C1B26683  29.415  13.419   8.797
 1913POPC   C2B26684  29.323  13.328   8.362
 1913POPC   C3B26685  29.350  13.476   7.954
 1913POPC   C4B26686  29.693  13.366   7.771
 1914POPC   NC326687  28.386   3.236   9.652
 1914POPC   PO426688  28.546   4.022   9.571
 1914POPC   GL126689  28.373   3.667   9.266
 1914POPC   GL226690  28.606   3.398   9.208
 1914POPC   C1A26691  28.167   3.387   8.927
 1914POPC   D2A26692  28.254   3.312   8.500
 1914POPC   C3A26693  28.110   3.510   8.127
 1914POPC   C4A26694  28.198   3.332   7.720
 1914POPC   C1B26695  28.622   3.568   8.767
 1914POPC   C2B26696  28.577   3.689   8.330
 1914POPC   C3B26697  28.638   3.546   7.899
 1914POPC   C4B26698  28.711   3.198   7.592
 1915POPC   NC326699  11.107  16.995   9.550
 1915POPC   PO426700  11.138  16.336   9.309
 1915POPC   GL126701  11.250  16.720   9.160
 1915POPC   GL226702  10.922  16.823   9.100
 1915POPC   C1A26703  11.472  16.855   8.833
 1915POPC   D2A26704  11.533  16.540   8.522
 1915POPC   C3A26705  11.378  16.587   8.126
 1915POPC   C4A26706  11.501  16.914   7.827
 1915POPC   C1B26707  11.006  16.666   8.700
 1915POPC   C2B26708  11.164  16.969   8.425
 1915POPC   C3B26709  11.032  16.991   8.030
 1915POPC   C4B26710  11.054  16.676   7.743
 1916POPC   NC326711  10.741   6.968   9.899
 1916POPC   PO426712  10.257   7.216   9.479
 1916POPC   GL126713  10.447   7.454   9.148
 1916POPC   GL226714  10.760   7.606   9.173
 1916POPC   C1A26715  10.309   7.555   8.745
 1916POPC   D2A26716  10.322   7.341   8.349
 1916POPC   C3A26717  10.416   7.517   7.946
 1916POPC   C4A26718  10.341   7.404   7.500
 1916POPC   C1B26719  10.871   7.346   8.829
 1916POPC   C2B26720  10.784   7.132   8.466
 1916POPC   C3B26721  10.858   7.298   8.092
 1916POPC   C4B26722  10.727   7.137   7.688
 1917POPC   NC326723  41.390  35.066   9.341
 1917POPC   PO426724  41.477  35.638   9.312
 1917POPC   GL126725  41.478  35.355   8.952
 1917POPC   GL226726  41.220  35.071   8.874
 1917POPC   C1A26727  41.532  35.265   8.552
 1917POPC   D2A26728  41.825  35.487   8.446
 1917POPC   C3A26729  41.863  35.578   8.028
 1917POPC   C4A26730  41.549  35.559   7.731
 1917POPC   C1B26731  41.062  35.493   8.715
 1917POPC   C2B26732  41.202  35.580   8.304
 1917POPC   C3B26733  41.393  35.226   8.066
 1917POPC   C4B26734  41.382  35.084   7.644
 1918POPC   NC326735   0.569  34.236   9.525
 1918POPC   PO426736   0.723  34.911   9.704
 1918POPC   GL126737   0.424  34.649   9.301
 1918POPC   GL226738   0.628  34.407   9.054
 1918POPC   C1A26739   0.223  34.686   8.888
 1918POPC   D2A26740   0.261  34.789   8.462
 1918POPC   C3A26741   0.194  34.586   8.071
 1918POPC   C4A26742   0.183  34.847   7.718
 1918POPC   C1B26743   0.780  34.529   8.639
 1918POPC   C2B26744   0.705  34.571   8.235
 1918POPC   C3B26745   0.668  34.613   7.835
 1918POPC   C4B26746   0.938  34.472   7.510
 1919POPC   NC326747  26.669  27.358   9.528
 1919POPC   PO426748  27.122  27.889   9.465
 1919POPC   GL126749  26.958  27.711   9.123
 1919POPC   GL226750  26.940  27.354   9.076
 1919POPC   C1A26751  27.117  27.812   8.747
 1919POPC   D2A26752  27.030  27.609   8.390
 1919POPC   C3A26753  26.990  27.791   8.009
 1919POPC   C4A26754  26.795  27.499   7.751
 1919POPC   C1B26755  26.689  27.528   8.756
 1919POPC   C2B26756  26.558  27.368   8.370
 1919POPC   C3B26757  26.597  27.079   8.053
 1919POPC   C4B26758  26.528  27.074   7.638
 1920POPC   NC326759  25.673   0.970   9.544
 1920POPC   PO426760  26.165   1.343   9.596
 1920POPC   GL126761  25.855   1.367   9.230
 1920POPC   GL226762  25.652   1.080   9.037
 1920POPC   C1A26763  25.991   1.360   8.792
 1920POPC   D2A26764  25.855   1.263   8.394
 1920POPC   C3A26765  26.183   1.334   8.101
 1920POPC   C4A26766  25.961   1.532   7.808
 1920POPC   C1B26767  25.942   0.834   8.771
 1920POPC   C2B26768  26.116   0.804   8.369
 1920POPC   C3B26769  25.934   0.906   7.997
 1920POPC   C4B26770  26.058   1.047   7.615
 1921POPC   NC326771  39.579  11.294   9.653
 1921POPC   PO426772  39.034  11.011   9.849
 1921POPC   GL126773  39.154  11.107   9.361
 1921POPC   GL226774  39.371  11.392   9.218
 1921POPC   C1A26775  39.209  11.099   8.865
 1921POPC   D2A26776  39.082  11.358   8.488
 1921POPC   C3A26777  39.166  11.182   8.100
 1921POPC   C4A26778  39.359  10.994   7.751
 1921POPC   C1B26779  39.329  11.604   8.851
 1921POPC   C2B26780  39.539  11.630   8.470
 1921POPC   C3B26781  39.314  11.678   8.100
 1921POPC   C4B26782  39.341  11.516   7.689
 1922POPC   NC326783  11.995  16.707   9.910
 1922POPC   PO426784  12.255  17.210   9.528
 1922POPC   GL126785  11.972  17.089   9.135
 1922POPC   GL226786  11.753  16.813   9.269
 1922POPC   C1A26787  11.944  16.953   8.652
 1922POPC   D2A26788  11.861  16.776   8.202
 1922POPC   C3A26789  12.170  16.773   7.894
 1922POPC   C4A26790  12.365  16.910   7.516
 1922POPC   C1B26791  11.854  16.487   8.926
 1922POPC   C2B26792  12.041  16.401   8.504
 1922POPC   C3B26793  12.042  16.312   8.051
 1922POPC   C4B26794  11.727  16.470   7.766
 1923POPC   NC326795  31.658   9.007   9.496
 1923POPC   PO426796  31.133   8.585   9.410
 1923POPC   GL126797  31.400   8.772   9.132
 1923POPC   GL226798  31.261   9.090   9.140
 1923POPC   C1A26799  31.655   8.993   8.827
 1923POPC   D2A26800  31.455   9.143   8.447
 1923POPC   C3A26801  31.608   8.800   8.201
 1923POPC   C4A26802  31.496   8.608   7.851
 1923POPC   C1B26803  31.111   9.358   8.809
 1923POPC   C2B26804  31.035   9.522   8.398
 1923POPC   C3B26805  31.095   9.245   8.062
 1923POPC   C4B26806  31.398   9.120   7.835
 1924POPC   NC326807   7.786  43.749   9.474
 1924POPC   PO426808   7.276  44.079   9.804
 1924POPC   GL126809   7.334  43.966   9.309
 1924POPC   GL226810   7.396  43.616   9.161
 1924POPC   C1A26811   7.544  44.021   8.859
 1924POPC   D2A26812   7.447  44.176   8.427
 1924POPC   C3A26813   7.238  43.889   8.138
 1924POPC   C4A26814   7.438  43.956   7.736
 1924POPC   C1B26815   7.745  43.546   8.827
 1924POPC   C2B26816   7.664  43.681   8.398
 1924POPC   C3B26817   7.534  43.483   8.017
 1924POPC   C4B26818   7.710  43.412   7.626
 1925POPC   NC326819   3.974   0.147   9.503
 1925POPC   PO426820   4.434   0.627   9.544
 1925POPC   GL126821   4.324   0.391   9.191
 1925POPC   GL226822   4.007   0.487   9.099
 1925POPC   C1A26823   4.437   0.336   8.760
 1925POPC   D2A26824   4.661   0.544   8.418
 1925POPC   C3A26825   4.592   0.391   8.010
 1925POPC   C4A26826   4.569   0.675   7.687
 1925POPC   C1B26827   3.969   0.113   8.845
 1925POPC   C2B26828   4.067   0.033   8.418
 1925POPC   C3B26829   3.881   0.087   8.005
 1925POPC   C4B26830   4.204   0.214   7.704
 1926POPC   NC326831   2.185  42.218   9.543
 1926POPC   PO426832   1.519  42.298   9.723
 1926POPC   GL126833   1.704  42.250   9.268
 1926POPC   GL226834   1.721  42.570   9.036
 1926POPC   C1A26835   1.812  42.109   8.843
 1926POPC   D2A26836   1.778  42.462   8.537
 1926POPC   C3A26837   1.805  42.407   8.100
 1926POPC   C4A26838   2.052  42.242   7.783
 1926POPC   C1B26839   2.160  42.488   8.895
 1926POPC   C2B26840   2.316  42.385   8.522
 1926POPC   C3B26841   2.363  42.474   8.100
 1926POPC   C4B26842   2.133  42.769   7.847
 1927POPC   NC326843  31.192  27.187   9.473
 1927POPC   PO426844  31.450  27.872   9.512
 1927POPC   GL126845  31.315  27.590   9.177
 1927POPC   GL226846  31.566  27.298   9.129
 1927POPC   C1A26847  31.396  27.579   8.739
 1927POPC   D2A26848  31.628  27.775   8.415
 1927POPC   C3A26849  31.473  27.669   8.033
 1927POPC   C4A26850  31.323  27.900   7.709
 1927POPC   C1B26851  31.713  27.043   8.785
 1927POPC   C2B26852  31.607  27.213   8.355
 1927POPC   C3B26853  31.755  27.282   7.910
 1927POPC   C4B26854  31.772  27.626   7.605
 1928POPC   NC326855  22.745  42.867   9.443
 1928POPC   PO426856  23.335  43.202   9.661
 1928POPC   GL126857  23.086  43.129   9.206
 1928POPC   GL226858  22.768  43.356   9.277
 1928POPC   C1A26859  23.069  42.864   8.805
 1928POPC   D2A26860  22.813  42.896   8.416
 1928POPC   C3A26861  22.901  42.940   7.952
 1928POPC   C4A26862  22.600  42.958   7.625
 1928POPC   C1B26863  22.777  43.304   8.836
 1928POPC   C2B26864  23.133  43.331   8.575
 1928POPC   C3B26865  23.156  43.425   8.163
 1928POPC   C4B26866  23.336  43.386   7.776
 1929POPC   NC326867  10.536  39.842   9.574
 1929POPC   PO426868  10.664  40.376   9.183
 1929POPC   GL126869  10.651  39.923   9.085
 1929POPC   GL226870  10.278  39.863   9.139
 1929POPC   C1A26871  10.810  39.782   8.689
 1929POPC   D2A26872  10.837  40.052   8.299
 1929POPC   C3A26873  10.482  40.279   8.099
 1929POPC   C4A26874  10.347  40.241   7.684
 1929POPC   C1B26875  10.312  39.669   8.753
 1929POPC   C2B26876  10.337  39.821   8.329
 1929POPC   C3B26877  10.523  39.802   7.916
 1929POPC   C4B26878  10.360  39.629   7.544
 1930POPC   NC326879  25.367  19.053   9.503
 1930POPC   PO426880  24.688  18.965   9.379
 1930POPC   GL126881  25.008  18.968   9.109
 1930POPC   GL226882  25.093  19.313   9.093
 1930POPC   C1A26883  25.055  19.027   8.677
 1930POPC   D2A26884  25.090  18.790   8.309
 1930POPC   C3A26885  25.069  19.091   7.993
 1930POPC   C4A26886  24.910  19.078   7.594
 1930POPC   C1B26887  25.445  19.375   8.830
 1930POPC   C2B26888  25.439  19.227   8.414
 1930POPC   C3B26889  25.455  19.417   8.017
 1930POPC   C4B26890  25.438  19.246   7.592
 1931POPC   NC326891  11.573  38.764   9.372
 1931POPC   PO426892  11.078  38.370   9.506
 1931POPC   GL126893  11.134  38.308   9.087
 1931POPC   GL226894  10.888  38.064   8.985
 1931POPC   C1A26895  11.233  38.596   8.770
 1931POPC   D2A26896  11.427  38.696   8.396
 1931POPC   C3A26897  11.291  38.502   8.030
 1931POPC   C4A26898  11.322  38.732   7.652
 1931POPC   C1B26899  11.245  38.084   8.645
 1931POPC   C2B26900  11.619  38.183   8.361
 1931POPC   C3B26901  11.726  38.274   7.907
 1931POPC   C4B26902  11.389  38.225   7.572
 1932POPC   NC326903  28.731  37.792   9.450
 1932POPC   PO426904  29.267  37.386   9.429
 1932POPC   GL126905  29.237  37.658   9.116
 1932POPC   GL226906  28.921  37.495   9.059
 1932POPC   C1A26907  29.514  37.691   8.768
 1932POPC   D2A26908  29.558  37.521   8.368
 1932POPC   C3A26909  29.291  37.812   8.184
 1932POPC   C4A26910  29.088  38.027   7.854
 1932POPC   C1B26911  29.048  37.511   8.637
 1932POPC   C2B26912  28.959  37.411   8.249
 1932POPC   C3B26913  29.009  37.511   7.844
 1932POPC   C4B26914  29.300  37.323   7.603
 1933POPC   NC326915   1.557   9.491   9.426
 1933POPC   PO426916   1.189   9.004   9.712
 1933POPC   GL126917   1.105   8.934   9.234
 1933POPC   GL226918   1.228   9.236   9.051
 1933POPC   C1A26919   1.000   8.858   8.782
 1933POPC   D2A26920   1.161   9.189   8.480
 1933POPC   C3A26921   1.195   9.182   8.026
 1933POPC   C4A26922   1.025   8.803   7.770
 1933POPC   C1B26923   1.481   8.940   8.815
 1933POPC   C2B26924   1.369   8.742   8.388
 1933POPC   C3B26925   1.547   8.823   7.965
 1933POPC   C4B26926   1.612   9.138   7.623
 1934POPC   NC326927   1.006  14.112   9.549
 1934POPC   PO426928   0.424  14.452   9.520
 1934POPC   GL126929   0.357  14.617   9.131
 1934POPC   GL226930   0.112  14.362   9.067
 1934POPC   C1A26931   0.434  14.494   8.694
 1934POPC   D2A26932   0.482  14.233   8.348
 1934POPC   C3A26933   0.717  14.428   8.042
 1934POPC   C4A26934   0.634  14.566   7.690
 1934POPC   C1B26935  44.963  14.659   8.793
 1934POPC   C2B26936   0.003  14.503   8.350
 1934POPC   C3B26937   0.206  14.507   7.948
 1934POPC   C4B26938   0.251  14.307   7.505
 1935POPC   NC326939  37.048   4.323   9.728
 1935POPC   PO426940  36.496   4.068   9.455
 1935POPC   GL126941  36.756   4.388   9.209
 1935POPC   GL226942  37.113   4.489   9.254
 1935POPC   C1A26943  36.828   4.383   8.762
 1935POPC   D2A26944  36.728   4.338   8.328
 1935POPC   C3A26945  36.671   3.987   8.086
 1935POPC   C4A26946  36.871   4.115   7.737
 1935POPC   C1B26947  37.244   4.657   8.861
 1935POPC   C2B26948  37.424   4.520   8.489
 1935POPC   C3B26949  37.214   4.402   8.120
 1935POPC   C4B26950  37.269   4.442   7.683
 1936POPC   NC326951  13.368  23.866   9.513
 1936POPC   PO426952  12.760  23.639   9.505
 1936POPC   GL126953  12.867  23.765   9.147
 1936POPC   GL226954  12.876  23.429   9.004
 1936POPC   C1A26955  12.816  23.981   8.767
 1936POPC   D2A26956  12.961  23.920   8.342
 1936POPC   C3A26957  12.573  23.870   8.121
 1936POPC   C4A26958  12.567  23.870   7.728
 1936POPC   C1B26959  12.531  23.318   8.701
 1936POPC   C2B26960  12.591  23.359   8.227
 1936POPC   C3B26961  12.948  23.543   7.957
 1936POPC   C4B26962  13.306  23.456   7.660
 1937POPC   NC326963   9.781   2.210   9.442
 1937POPC   PO426964   9.693   2.922   9.553
 1937POPC   GL126965   9.850   2.687   9.211
 1937POPC   GL226966   9.510   2.541   9.183
 1937POPC   C1A26967  10.019   2.685   8.775
 1937POPC   D2A26968   9.807   2.706   8.357
 1937POPC   C3A26969   9.974   2.643   7.945
 1937POPC   C4A26970  10.006   2.880   7.553
 1937POPC   C1B26971   9.576   2.378   8.814
 1937POPC   C2B26972   9.377   2.481   8.458
 1937POPC   C3B26973   9.529   2.354   8.097
 1937POPC   C4B26974   9.468   2.543   7.738
 1938POPC   NC326975   4.980  15.234   9.553
 1938POPC   PO426976   5.530  14.803   9.395
 1938POPC   GL126977   5.390  15.197   9.128
 1938POPC   GL226978   5.035  15.308   9.058
 1938POPC   C1A26979   5.379  15.504   8.750
 1938POPC   D2A26980   5.085  15.555   8.382
 1938POPC   C3A26981   5.142  15.153   8.167
 1938POPC   C4A26982   5.511  15.064   7.850
 1938POPC   C1B26983   5.145  15.026   8.705
 1938POPC   C2B26984   4.849  14.743   8.480
 1938POPC   C3B26985   4.723  14.858   8.098
 1938POPC   C4B26986   4.800  15.117   7.763
 1939POPC   NC326987   4.095  21.239   9.986
 1939POPC   PO426988   4.677  21.457   9.683
 1939POPC   GL126989   4.439  21.494   9.257
 1939POPC   GL226990   4.079  21.677   9.232
 1939POPC   C1A26991   4.340  21.174   8.888
 1939POPC   D2A26992   4.145  20.948   8.506
 1939POPC   C3A26993   4.252  21.139   8.108
 1939POPC   C4A26994   4.364  21.262   7.690
 1939POPC   C1B26995   4.250  21.679   8.794
 1939POPC   C2B26996   4.400  21.568   8.392
 1939POPC   C3B26997   4.229  21.650   7.981
 1939POPC   C4B26998   4.101  21.930   7.655
 1940POPC   NC326999  28.115   6.032   9.468
 1940POPC   PO427000  28.684   5.823   9.559
 1940POPC   GL127001  28.465   5.851   9.117
 1940POPC   GL227002  28.088   5.850   9.007
 1940POPC   C1A27003  28.431   6.026   8.676
 1940POPC   D2A27004  28.154   5.974   8.329
 1940POPC   C3A27005  28.419   6.101   8.001
 1940POPC   C4A27006  28.324   6.181   7.573
 1940POPC   C1B27007  28.161   5.585   8.693
 1940POPC   C2B27008  27.976   5.425   8.370
 1940POPC   C3B27009  28.137   5.413   7.974
 1940POPC   C4B27010  28.192   5.733   7.729
 1941POPC   NC327011  13.319  33.589   9.608
 1941POPC   PO427012  13.893  33.999   9.610
 1941POPC   GL127013  13.718  33.856   9.240
 1941POPC   GL227014  13.689  33.524   9.260
 1941POPC   C1A27015  13.558  33.960   8.828
 1941POPC   D2A27016  13.670  34.088   8.417
 1941POPC   C3A27017  13.466  33.930   8.041
 1941POPC   C4A27018  13.682  33.821   7.659
 1941POPC   C1B27019  13.915  33.582   8.860
 1941POPC   C2B27020  13.734  33.574   8.441
 1941POPC   C3B27021  13.728  33.463   8.016
 1941POPC   C4B27022  14.061  33.485   7.701
 1942POPC   NC327023  13.943  11.854   9.473
 1942POPC   PO427024  13.348  12.288   9.508
 1942POPC   GL127025  13.635  12.216   9.171
 1942POPC   GL227026  13.716  11.897   9.024
 1942POPC   C1A27027  13.477  12.222   8.751
 1942POPC   D2A27028  13.671  12.318   8.380
 1942POPC   C3A27029  13.680  12.470   7.960
 1942POPC   C4A27030  13.538  12.087   7.846
 1942POPC   C1B27031  13.965  11.974   8.669
 1942POPC   C2B27032  14.015  11.988   8.234
 1942POPC   C3B27033  13.815  11.687   8.006
 1942POPC   C4B27034  14.024  11.456   7.718
 1943POPC   NC327035  15.310  39.988   9.413
 1943POPC   PO427036  14.790  39.663   9.635
 1943POPC   GL127037  14.844  39.896   9.179
 1943POPC   GL227038  14.936  40.229   9.131
 1943POPC   C1A27039  14.943  39.844   8.753
 1943POPC   D2A27040  15.234  39.594   8.552
 1943POPC   C3A27041  15.240  39.649   8.128
 1943POPC   C4A27042  15.554  39.720   7.858
 1943POPC   C1B27043  15.196  40.287   8.741
 1943POPC   C2B27044  15.237  40.136   8.304
 1943POPC   C3B27045  15.056  40.196   7.861
 1943POPC   C4B27046  14.933  40.176   7.388
 1944POPC   NC327047  24.415   8.809   9.432
 1944POPC   PO427048  24.076   9.403   9.376
 1944POPC   GL127049  24.349   9.175   9.077
 1944POPC   GL227050  24.717   9.166   9.216
 1944POPC   C1A27051  24.304   8.843   8.776
 1944POPC   D2A27052  24.103   8.755   8.391
 1944POPC   C3A27053  24.286   8.913   8.052
 1944POPC   C4A27054  24.649   8.808   7.901
 1944POPC   C1B27055  24.793   8.980   8.839
 1944POPC   C2B27056  24.676   8.955   8.423
 1944POPC   C3B27057  24.882   9.191   8.149
 1944POPC   C4B27058  24.968   9.165   7.753
 1945POPC   NC327059  34.318  12.398   9.716
 1945POPC   PO427060  34.432  13.090   9.606
 1945POPC   GL127061  34.615  12.975   9.206
 1945POPC   GL227062  34.471  12.652   9.238
 1945POPC   C1A27063  34.713  13.127   8.789
 1945POPC   D2A27064  34.744  12.953   8.388
 1945POPC   C3A27065  34.834  13.141   8.023
 1945POPC   C4A27066  34.462  13.049   7.860
 1945POPC   C1B27067  34.845  12.632   8.930
 1945POPC   C2B27068  35.011  12.388   8.600
 1945POPC   C3B27069  35.034  12.514   8.180
 1945POPC   C4B27070  34.776  12.605   7.822
 1946POPC   NC327071  19.645  35.426   9.665
 1946POPC   PO427072  20.150  35.114   9.795
 1946POPC   GL127073  19.912  35.214   9.309
 1946POPC   GL227074  19.674  35.005   9.147
 1946POPC   C1A27075  20.011  35.332   8.837
 1946POPC   D2A27076  20.067  35.161   8.446
 1946POPC   C3A27077  19.958  35.408   8.117
 1946POPC   C4A27078  19.994  35.194   7.749
 1946POPC   C1B27079  19.535  35.186   8.779
 1946POPC   C2B27080  19.541  35.383   8.395
 1946POPC   C3B27081  19.507  35.248   7.944
 1946POPC   C4B27082  19.609  35.409   7.522
 1947POPC   NC327083  24.351  10.490   9.612
 1947POPC   PO427084  24.808  10.329   9.160
 1947POPC   GL127085  24.475  10.598   9.039
 1947POPC   GL227086  24.165  10.675   9.159
 1947POPC   C1A27087  24.277  10.628   8.634
 1947POPC   D2A27088  24.488  10.802   8.296
 1947POPC   C3A27089  24.655  10.578   7.939
 1947POPC   C4A27090  24.891  10.424   7.582
 1947POPC   C1B27091  24.043  10.275   8.936
 1947POPC   C2B27092  24.025  10.151   8.484
 1947POPC   C3B27093  24.185  10.389   8.116
 1947POPC   C4B27094  24.189  10.776   7.873
 1948POPC   NC327095  29.826  21.674   9.473
 1948POPC   PO427096  29.402  21.170   9.209
 1948POPC   GL127097  29.744  21.389   9.054
 1948POPC   GL227098  30.107  21.486   9.099
 1948POPC   C1A27099  29.758  21.417   8.653
 1948POPC   D2A27100  29.525  21.387   8.314
 1948POPC   C3A27101  29.730  21.320   7.948
 1948POPC   C4A27102  29.695  21.000   7.669
 1948POPC   C1B27103  30.259  21.384   8.711
 1948POPC   C2B27104  30.155  21.209   8.269
 1948POPC   C3B27105  30.222  21.434   7.862
 1948POPC   C4B27106  30.219  21.651   7.467
 1949POPC   NC327107   4.125  25.398   9.525
 1949POPC   PO427108   4.726  25.411   9.602
 1949POPC   GL127109   4.473  25.179   9.193
 1949POPC   GL227110   4.194  25.353   9.041
 1949POPC   C1A27111   4.342  24.990   8.732
 1949POPC   D2A27112   4.493  24.801   8.309
 1949POPC   C3A27113   4.513  25.089   7.931
 1949POPC   C4A27114   4.455  25.377   7.550
 1949POPC   C1B27115   4.006  25.459   8.671
 1949POPC   C2B27116   3.918  25.340   8.265
 1949POPC   C3B27117   4.068  25.333   7.867
 1949POPC   C4B27118   3.971  25.386   7.424
 1950POPC   NC327119  21.595   0.029   9.541
 1950POPC   PO427120  21.244  44.480   9.413
 1950POPC   GL127121  21.279  44.776   9.094
 1950POPC   GL227122  21.024   0.056   9.117
 1950POPC   C1A27123  21.422  44.663   8.682
 1950POPC   D2A27124  21.229  44.603   8.284
 1950POPC   C3A27125  21.489  44.485   7.915
 1950POPC   C4A27126  21.423  44.487   7.441
 1950POPC   C1B27127  21.255   0.145   8.725
 1950POPC   C2B27128  21.553   0.069   8.392
 1950POPC   C3B27129  21.425  44.988   7.996
 1950POPC   C4B27130  21.519  44.969   7.593
 1951POPC   NC327131   1.871  38.387   9.641
 1951POPC   PO427132   2.383  38.815   9.691
 1951POPC   GL127133   2.123  38.541   9.236
 1951POPC   GL227134   1.995  38.183   9.165
 1951POPC   C1A27135   2.060  38.521   8.783
 1951POPC   D2A27136   1.767  38.473   8.436
 1951POPC   C3A27137   1.876  38.418   8.024
 1951POPC   C4A27138   2.187  38.661   7.838
 1951POPC   C1B27139   2.176  38.023   8.800
 1951POPC   C2B27140   2.214  38.190   8.390
 1951POPC   C3B27141   2.177  37.982   8.005
 1951POPC   C4B27142   2.467  37.904   7.698
 1952POPC   NC327143   3.344  23.694   9.753
 1952POPC   PO427144   3.846  24.014   9.492
 1952POPC   GL127145   3.591  23.760   9.210
 1952POPC   GL227146   3.237  23.820   9.266
 1952POPC   C1A27147   3.631  23.633   8.780
 1952POPC   D2A27148   3.795  23.432   8.409
 1952POPC   C3A27149   3.777  23.709   8.069
 1952POPC   C4A27150   3.586  23.655   7.713
 1952POPC   C1B27151   3.197  23.938   8.824
 1952POPC   C2B27152   3.373  23.929   8.386
 1952POPC   C3B27153   3.241  23.916   7.947
 1952POPC   C4B27154   3.205  23.851   7.436
 1953POPC   NC327155   4.091   9.278   9.668
 1953POPC   PO427156   4.468   8.726   9.915
 1953POPC   GL127157   4.379   8.892   9.451
 1953POPC   GL227158   4.229   8.641   9.227
 1953POPC   C1A27159   4.366   9.084   8.999
 1953POPC   D2A27160   4.525   9.063   8.556
 1953POPC   C3A27161   4.281   9.097   8.161
 1953POPC   C4A27162   4.404   9.051   7.734
 1953POPC   C1B27163   4.112   8.461   8.834
 1953POPC   C2B27164   4.230   8.648   8.454
 1953POPC   C3B27165   4.174   8.597   8.045
 1953POPC   C4B27166   4.448   8.557   7.714
 1954POPC   NC327167  23.228  17.652   9.426
 1954POPC   PO427168  22.847  17.205   9.531
 1954POPC   GL127169  22.867  17.125   9.105
 1954POPC   GL227170  22.920  17.474   9.070
 1954POPC   C1A27171  22.812  17.281   8.632
 1954POPC   D2A27172  23.213  17.399   8.422
 1954POPC   C3A27173  23.118  17.356   8.003
 1954POPC   C4A27174  22.743  17.090   7.914
 1954POPC   C1B27175  23.040  17.760   8.726
 1954POPC   C2B27176  23.107  17.852   8.258
 1954POPC   C3B27177  23.070  17.873   7.819
 1954POPC   C4B27178  23.028  18.170   7.475
 1955POPC   NC327179  31.081  25.433   9.294
 1955POPC   PO427180  31.457  25.952   9.596
 1955POPC   GL127181  31.292  25.900   9.202
 1955POPC   GL227182  31.550  25.641   9.136
 1955POPC   C1A27183  31.267  26.125   8.815
 1955POPC   D2A27184  31.543  26.176   8.449
 1955POPC   C3A27185  31.448  26.065   8.041
 1955POPC   C4A27186  31.170  26.186   7.721
 1955POPC   C1B27187  31.760  26.012   8.953
 1955POPC   C2B27188  32.017  26.177   8.618
 1955POPC   C3B27189  31.984  26.264   8.169
 1955POPC   C4B27190  31.875  26.111   7.768
 1956POPC   NC327191  39.916  31.730   9.677
 1956POPC   PO427192  40.419  31.367   9.458
 1956POPC   GL127193  40.067  31.524   9.192
 1956POPC   GL227194  40.020  31.219   8.950
 1956POPC   C1A27195  39.921  31.692   8.797
 1956POPC   D2A27196  40.103  31.468   8.433
 1956POPC   C3A27197  40.108  31.659   8.075
 1956POPC   C4A27198  39.828  31.720   7.758
 1956POPC   C1B27199  39.673  31.293   8.642
 1956POPC   C2B27200  39.623  31.461   8.252
 1956POPC   C3B27201  39.831  31.250   7.939
 1956POPC   C4B27202  40.192  31.338   7.657
 1957POPC   NC327203  35.262  30.280   9.454
 1957POPC   PO427204  35.022  29.677   9.507
 1957POPC   GL127205  35.242  29.854   9.141
 1957POPC   GL227206  35.232  30.186   8.950
 1957POPC   C1A27207  35.428  29.771   8.745
 1957POPC   D2A27208  35.319  30.038   8.402
 1957POPC   C3A27209  35.529  29.816   8.080
 1957POPC   C4A27210  35.595  29.626   7.730
 1957POPC   C1B27211  35.644  30.241   8.759
 1957POPC   C2B27212  35.823  30.118   8.368
 1957POPC   C3B27213  35.634  30.307   8.035
 1957POPC   C4B27214  35.202  30.222   7.928
 1958POPC   NC327215  25.613   2.782   9.565
 1958POPC   PO427216  24.939   2.940   9.473
 1958POPC   GL127217  25.144   2.633   9.232
 1958POPC   GL227218  25.500   2.596   9.127
 1958POPC   C1A27219  25.040   2.528   8.819
 1958POPC   D2A27220  25.131   2.745   8.443
 1958POPC   C3A27221  25.268   2.604   8.059
 1958POPC   C4A27222  25.232   2.954   7.835
 1958POPC   C1B27223  25.515   2.811   8.772
 1958POPC   C2B27224  25.675   2.703   8.384
 1958POPC   C3B27225  25.740   2.875   7.982
 1958POPC   C4B27226  25.641   2.965   7.532
 1959POPC   NC327227  24.725  31.552   9.405
 1959POPC   PO427228  24.109  31.245   9.575
 1959POPC   GL127229  24.322  31.277   9.197
 1959POPC   GL227230  24.215  31.607   9.197
 1959POPC   C1A27231  24.470  31.408   8.779
 1959POPC   D2A27232  24.638  31.437   8.366
 1959POPC   C3A27233  24.349  31.359   8.030
 1959POPC   C4A27234  24.492  31.306   7.605
 1959POPC   C1B27235  24.228  31.887   8.885
 1959POPC   C2B27236  24.422  31.872   8.521
 1959POPC   C3B27237  24.385  31.876   8.119
 1959POPC   C4B27238  24.308  31.799   7.715
 1960POPC   NC327239  16.474  26.628   9.749
 1960POPC   PO427240  16.981  26.973   9.417
 1960POPC   GL127241  16.834  26.749   9.108
 1960POPC   GL227242  16.508  26.590   9.178
 1960POPC   C1A27243  16.842  26.893   8.707
 1960POPC   D2A27244  17.074  26.779   8.373
 1960POPC   C3A27245  16.982  27.014   8.032
 1960POPC   C4A27246  16.688  26.796   7.826
 1960POPC   C1B27247  16.436  26.611   8.735
 1960POPC   C2B27248  16.476  26.798   8.310
 1960POPC   C3B27249  16.220  26.673   7.953
 1960POPC   C4B27250  16.333  26.280   7.812
 1961POPC   NC327251  27.132   2.133   9.770
 1961POPC   PO427252  26.544   1.908   9.502
 1961POPC   GL127253  26.636   2.054   9.147
 1961POPC   GL227254  26.852   1.776   9.120
 1961POPC   C1A27255  26.638   2.087   8.726
 1961POPC   D2A27256  26.920   2.191   8.448
 1961POPC   C3A27257  26.646   2.278   8.122
 1961POPC   C4A27258  26.824   2.333   7.743
 1961POPC   C1B27259  27.071   1.780   8.755
 1961POPC   C2B27260  27.215   1.714   8.376
 1961POPC   C3B27261  27.039   1.910   8.029
 1961POPC   C4B27262  27.125   1.742   7.669
 1962POPC   NC327263  29.090   9.586   9.597
 1962POPC   PO427264  29.647   9.591   9.317
 1962POPC   GL127265  29.252   9.816   9.129
 1962POPC   GL227266  28.880   9.805   9.194
 1962POPC   C1A27267  29.171   9.931   8.712
 1962POPC   D2A27268  29.488   9.906   8.412
 1962POPC   C3A27269  29.381   9.731   8.063
 1962POPC   C4A27270  29.115   9.970   7.809
 1962POPC   C1B27271  28.809   9.590   8.816
 1962POPC   C2B27272  28.976   9.528   8.380
 1962POPC   C3B27273  28.801   9.608   7.946
 1962POPC   C4B27274  28.819   9.665   7.493
 1963POPC   NC327275  22.712  38.728   9.486
 1963POPC   PO427276  23.199  38.223   9.522
 1963POPC   GL127277  23.155  38.419   9.121
 1963POPC   GL227278  22.893  38.660   9.016
 1963POPC   C1A27279  23.348  38.631   8.776
 1963POPC   D2A27280  23.130  38.776   8.399
 1963POPC   C3A27281  23.075  38.452   8.085
 1963POPC   C4A27282  23.226  38.323   7.675
 1963POPC   C1B27283  22.739  38.505   8.600
 1963POPC   C2B27284  22.555  38.405   8.178
 1963POPC   C3B27285  22.702  38.462   7.749
 1963POPC   C4B27286  22.525  38.532   7.329
 1964POPC   NC327287  32.294  40.822   9.404
 1964POPC   PO427288  32.978  40.734   9.390
 1964POPC   GL127289  33.046  40.912   9.033
 1964POPC   GL227290  32.684  40.914   8.990
 1964POPC   C1A27291  33.193  40.769   8.644
 1964POPC   D2A27292  33.112  40.450   8.373
 1964POPC   C3A27293  33.019  40.611   7.967
 1964POPC   C4A27294  32.796  40.980   7.810
 1964POPC   C1B27295  32.710  40.600   8.687
 1964POPC   C2B27296  32.652  40.762   8.276
 1964POPC   C3B27297  32.476  40.612   7.888
 1964POPC   C4B27298  32.582  40.485   7.488
 1965POPC   NC327299  22.300  22.554   9.568
 1965POPC   PO427300  21.725  23.038   9.532
 1965POPC   GL127301  22.107  23.072   9.187
 1965POPC   GL227302  22.386  23.327   9.200
 1965POPC   C1A27303  22.326  22.918   8.769
 1965POPC   D2A27304  22.405  22.688   8.333
 1965POPC   C3A27305  22.122  22.792   7.959
 1965POPC   C4A27306  21.864  23.157   7.801
 1965POPC   C1B27307  22.248  23.422   8.766
 1965POPC   C2B27308  22.313  23.223   8.330
 1965POPC   C3B27309  22.436  23.170   7.887
 1965POPC   C4B27310  22.268  23.464   7.564
 1966POPC   NC327311  28.111  35.438   9.326
 1966POPC   PO427312  28.610  35.125   9.675
 1966POPC   GL127313  28.630  35.292   9.227
 1966POPC   GL227314  28.741  35.668   9.179
 1966POPC   C1A27315  28.381  35.175   8.822
 1966POPC   D2A27316  27.993  35.082   8.589
 1966POPC   C3A27317  28.208  35.010   8.214
 1966POPC   C4A27318  28.282  35.302   7.892
 1966POPC   C1B27319  28.809  35.472   8.769
 1966POPC   C2B27320  28.743  35.190   8.423
 1966POPC   C3B27321  28.745  35.435   8.049
 1966POPC   C4B27322  28.616  35.590   7.634
 1967POPC   NC327323  43.888  18.734   9.214
 1967POPC   PO427324  43.853  18.126   9.517
 1967POPC   GL127325  43.802  18.223   9.108
 1967POPC   GL227326  43.513  18.044   9.093
 1967POPC   C1A27327  43.954  18.285   8.676
 1967POPC   D2A27328  44.189  18.412   8.318
 1967POPC   C3A27329  44.018  18.471   7.920
 1967POPC   C4A27330  44.179  18.312   7.524
 1967POPC   C1B27331  43.439  18.232   8.722
 1967POPC   C2B27332  43.587  17.954   8.422
 1967POPC   C3B27333  43.616  17.825   8.029
 1967POPC   C4B27334  43.570  18.210   7.807
 1968POPC   NC327335  29.035   5.537   9.503
 1968POPC   PO427336  29.236   6.250   9.608
 1968POPC   GL127337  29.286   5.948   9.322
 1968POPC   GL227338  28.977   5.934   9.159
 1968POPC   C1A27339  29.395   5.746   8.922
 1968POPC   D2A27340  29.325   5.553   8.543
 1968POPC   C3A27341  29.329   5.786   8.162
 1968POPC   C4A27342  29.310   5.917   7.740
 1968POPC   C1B27343  28.962   5.983   8.718
 1968POPC   C2B27344  28.823   5.789   8.334
 1968POPC   C3B27345  28.840   5.836   7.888
 1968POPC   C4B27346  28.815   6.241   7.689
 1969POPC   NC327347   3.066  15.383   9.688
 1969POPC   PO427348   3.676  15.059   9.361
 1969POPC   GL127349   3.810  15.052   8.985
 1969POPC   GL227350   3.844  15.417   9.037
 1969POPC   C1A27351   3.657  14.968   8.575
 1969POPC   D2A27352   3.844  15.153   8.217
 1969POPC   C3A27353   3.742  14.984   7.823
 1969POPC   C4A27354   3.337  14.904   7.646
 1969POPC   C1B27355   3.717  15.475   8.639
 1969POPC   C2B27356   3.468  15.506   8.278
 1969POPC   C3B27357   3.342  15.318   7.911
 1969POPC   C4B27358   3.450  15.368   7.440
 1970POPC   NC327359  28.156   8.509   9.431
 1970POPC   PO427360  27.591   8.114   9.544
 1970POPC   GL127361  27.543   8.304   9.128
 1970POPC   GL227362  27.887   8.321   9.056
 1970POPC   C1A27363  27.409   8.321   8.665
 1970POPC   D2A27364  27.121   8.242   8.275
 1970POPC   C3A27365  27.330   8.163   7.864
 1970POPC   C4A27366  27.642   8.436   7.637
 1970POPC   C1B27367  27.989   8.037   8.767
 1970POPC   C2B27368  27.775   8.021   8.412
 1970POPC   C3B27369  27.812   8.235   8.058
 1970POPC   C4B27370  27.767   7.932   7.735
 1971POPC   NC327371  11.231  42.934   9.412
 1971POPC   PO427372  11.898  43.126   9.523
 1971POPC   GL127373  11.643  42.997   9.143
 1971POPC   GL227374  11.418  43.304   9.098
 1971POPC   C1A27375  11.387  42.851   8.787
 1971POPC   D2A27376  11.206  43.057   8.446
 1971POPC   C3A27377  11.182  42.894   8.036
 1971POPC   C4A27378  10.924  43.005   7.674
 1971POPC   C1B27379  11.203  43.492   8.724
 1971POPC   C2B27380  11.094  43.544   8.268
 1971POPC   C3B27381  11.240  43.378   7.862
 1971POPC   C4B27382  11.415  43.137   7.516
 1972POPC   NC327383   2.176  21.300   9.724
 1972POPC   PO427384   1.778  21.701   9.473
 1972POPC   GL127385   1.882  21.483   9.118
 1972POPC   GL227386   2.228  21.444   9.207
 1972POPC   C1A27387   1.835  21.399   8.670
 1972POPC   D2A27388   1.718  21.186   8.283
 1972POPC   C3A27389   1.813  21.475   7.955
 1972POPC   C4A27390   2.065  21.471   7.613
 1972POPC   C1B27391   2.197  21.087   8.919
 1972POPC   C2B27392   2.187  21.076   8.459
 1972POPC   C3B27393   2.297  21.284   8.034
 1972POPC   C4B27394   2.424  21.077   7.629
 1973POPC   NC327395  34.196   9.160   9.560
 1973POPC   PO427396  33.649   8.683   9.490
 1973POPC   GL127397  33.772   8.773   9.138
 1973POPC   GL227398  34.118   8.816   9.197
 1973POPC   C1A27399  33.819   9.036   8.798
 1973POPC   D2A27400  33.985   9.119   8.396
 1973POPC   C3A27401  33.638   9.095   8.123
 1973POPC   C4A27402  33.657   8.898   7.763
 1973POPC   C1B27403  34.143   8.583   8.829
 1973POPC   C2B27404  34.209   8.562   8.396
 1973POPC   C3B27405  34.086   8.758   8.029
 1973POPC   C4B27406  34.203   8.790   7.613
 1974POPC   NC327407  36.267   8.484   9.541
 1974POPC   PO427408  36.269   9.175   9.521
 1974POPC   GL127409  35.958   8.995   9.176
 1974POPC   GL227410  36.237   8.871   9.017
 1974POPC   C1A27411  35.799   8.808   8.752
 1974POPC   D2A27412  35.849   8.940   8.298
 1974POPC   C3A27413  35.988   8.771   7.913
 1974POPC   C4A27414  36.108   8.964   7.533
 1974POPC   C1B27415  36.296   8.818   8.563
 1974POPC   C2B27416  36.372   9.081   8.215
 1974POPC   C3B27417  36.542   9.029   7.788
 1974POPC   C4B27418  36.577   8.991   7.309
 1975POPC   NC327419  35.426   3.862   9.548
 1975POPC   PO427420  35.190   4.526   9.592
 1975POPC   GL127421  35.172   4.375   9.211
 1975POPC   GL227422  35.461   4.202   9.158
 1975POPC   C1A27423  35.139   4.389   8.781
 1975POPC   D2A27424  35.304   4.480   8.382
 1975POPC   C3A27425  35.097   4.300   8.033
 1975POPC   C4A27426  35.311   4.231   7.674
 1975POPC   C1B27427  35.633   4.331   8.773
 1975POPC   C2B27428  35.690   4.133   8.387
 1975POPC   C3B27429  35.741   4.208   7.983
 1975POPC   C4B27430  35.725   3.893   7.690
 1976POPC   NC327431  29.564  17.644   9.586
 1976POPC   PO427432  29.922  17.181   9.692
 1976POPC   GL127433  29.874  17.403   9.258
 1976POPC   GL227434  29.988  17.769   9.203
 1976POPC   C1A27435  29.865  17.446   8.802
 1976POPC   D2A27436  30.160  17.277   8.485
 1976POPC   C3A27437  29.999  17.238   8.086
 1976POPC   C4A27438  29.861  17.493   7.752
 1976POPC   C1B27439  29.980  17.943   8.758
 1976POPC   C2B27440  29.941  17.735   8.353
 1976POPC   C3B27441  30.141  17.850   7.975
 1976POPC   C4B27442  29.995  18.078   7.688
 1977POPC   NC327443  30.975  25.900   9.642
 1977POPC   PO427444  30.361  26.311   9.570
 1977POPC   GL127445  30.539  26.242   9.118
 1977POPC   GL227446  30.764  25.906   9.129
 1977POPC   C1A27447  30.639  26.160   8.688
 1977POPC   D2A27448  30.450  25.890   8.396
 1977POPC   C3A27449  30.380  26.135   8.054
 1977POPC   C4A27450  30.639  26.055   7.711
 1977POPC   C1B27451  30.910  25.735   8.758
 1977POPC   C2B27452  31.173  25.799   8.430
 1977POPC   C3B27453  30.963  25.908   8.081
 1977POPC   C4B27454  31.008  25.680   7.702
 1978POPC   NC327455  40.221  44.346   9.463
 1978POPC   PO427456  39.778  44.841   9.541
 1978POPC   GL127457  40.024  44.703   9.178
 1978POPC   GL227458  39.786  44.727   8.926
 1978POPC   C1A27459  40.219  44.452   8.826
 1978POPC   D2A27460  39.985  44.485   8.478
 1978POPC   C3A27461  40.160  44.382   8.103
 1978POPC   C4A27462  40.044  44.487   7.718
 1978POPC   C1B27463  40.087  44.980   8.740
 1978POPC   C2B27464  40.224  44.917   8.371
 1978POPC   C3B27465  40.047  44.920   8.000
 1978POPC   C4B27466  40.309   0.110   7.731
 1979POPC   NC327467  43.952  32.322   9.602
 1979POPC   PO427468  43.767  31.623   9.504
 1979POPC   GL127469  43.926  31.958   9.207
 1979POPC   GL227470  43.789  32.313   9.136
 1979POPC   C1A27471  43.906  32.008   8.757
 1979POPC   D2A27472  44.073  32.238   8.412
 1979POPC   C3A27473  43.973  32.010   8.020
 1979POPC   C4A27474  44.008  32.263   7.658
 1979POPC   C1B27475  43.611  32.634   8.873
 1979POPC   C2B27476  43.691  32.598   8.460
 1979POPC   C3B27477  43.745  32.515   8.037
 1979POPC   C4B27478  43.531  32.547   7.613
 1980POPC   NC327479  33.323  14.898   9.433
 1980POPC   PO427480  32.636  14.781   9.376
 1980POPC   GL127481  32.932  14.950   9.066
 1980POPC   GL227482  33.299  15.048   8.963
 1980POPC   C1A27483  32.929  15.047   8.641
 1980POPC   D2A27484  33.073  15.228   8.295
 1980POPC   C3A27485  32.924  14.963   8.024
 1980POPC   C4A27486  32.664  15.094   7.723
 1980POPC   C1B27487  33.371  15.411   8.699
 1980POPC   C2B27488  33.210  15.711   8.411
 1980POPC   C3B27489  33.183  15.687   7.972
 1980POPC   C4B27490  33.151  15.322   7.761
 1981POPC   NC327491  32.110   2.043   9.544
 1981POPC   PO427492  32.456   1.531   9.683
 1981POPC   GL127493  32.521   1.847   9.308
 1981POPC   GL227494  32.448   2.215   9.198
 1981POPC   C1A27495  32.499   1.854   8.850
 1981POPC   D2A27496  32.335   2.039   8.481
 1981POPC   C3A27497  32.331   1.766   8.146
 1981POPC   C4A27498  32.535   1.881   7.761
 1981POPC   C1B27499  32.059   2.156   8.897
 1981POPC   C2B27500  31.770   2.197   8.540
 1981POPC   C3B27501  31.783   2.238   8.105
 1981POPC   C4B27502  32.048   2.075   7.775
 1982POPC   NC327503   6.322  24.336   9.421
 1982POPC   PO427504   6.919  24.121   9.498
 1982POPC   GL127505   6.763  24.329   9.156
 1982POPC   GL227506   6.698  24.658   9.145
 1982POPC   C1A27507   6.831  24.312   8.742
 1982POPC   D2A27508   6.847  24.545   8.383
 1982POPC   C3A27509   6.813  24.328   8.027
 1982POPC   C4A27510   6.452  24.203   7.737
 1982POPC   C1B27511   6.473  24.691   8.726
 1982POPC   C2B27512   6.399  24.754   8.264
 1982POPC   C3B27513   6.537  24.718   7.860
 1982POPC   C4B27514   6.712  25.010   7.553
 1983POPC   NC327515   0.961   6.348   9.591
 1983POPC   PO427516   1.594   6.278   9.509
 1983POPC   GL127517   1.541   6.589   9.171
 1983POPC   GL227518   1.156   6.647   9.140
 1983POPC   C1A27519   1.468   6.757   8.739
 1983POPC   D2A27520   1.253   6.576   8.368
 1983POPC   C3A27521   1.244   6.761   7.949
 1983POPC   C4A27522   1.460   6.717   7.542
 1983POPC   C1B27523   0.904   6.491   8.756
 1983POPC   C2B27524   0.740   6.692   8.406
 1983POPC   C3B27525   0.792   6.559   8.030
 1983POPC   C4B27526   0.915   6.186   7.898
 1984POPC   NC327527  32.776  34.272   9.484
 1984POPC   PO427528  33.233  34.665   9.551
 1984POPC   GL127529  33.237  34.315   9.219
 1984POPC   GL227530  33.471  34.366   8.975
 1984POPC   C1A27531  33.116  34.113   8.757
 1984POPC   D2A27532  33.181  33.956   8.312
 1984POPC   C3A27533  32.889  34.200   8.017
 1984POPC   C4A27534  32.964  34.590   7.862
 1984POPC   C1B27535  33.096  34.623   8.816
 1984POPC   C2B27536  33.124  34.783   8.376
 1984POPC   C3B27537  33.424  34.736   8.044
 1984POPC   C4B27538  33.401  34.396   7.747
 1985POPC   NC327539   3.629   3.112   9.700
 1985POPC   PO427540   3.920   2.517   9.471
 1985POPC   GL127541   3.728   2.934   9.178
 1985POPC   GL227542   3.379   3.048   9.047
 1985POPC   C1A27543   3.707   2.966   8.690
 1985POPC   D2A27544   3.472   2.757   8.368
 1985POPC   C3A27545   3.532   2.880   7.964
 1985POPC   C4A27546   3.421   2.998   7.531
 1985POPC   C1B27547   3.198   2.694   8.840
 1985POPC   C2B27548   3.030   2.519   8.485
 1985POPC   C3B27549   3.044   2.396   8.065
 1985POPC   C4B27550   3.200   2.597   7.734
 1986POPC   NC327551  20.047  42.979   9.386
 1986POPC   PO427552  19.976  42.443   9.735
 1986POPC   GL127553  20.083  42.403   9.220
 1986POPC   GL227554  19.881  42.667   9.021
 1986POPC   C1A27555  19.842  42.216   8.815
 1986POPC   D2A27556  19.742  42.398   8.424
 1986POPC   C3A27557  19.563  42.112   8.135
 1986POPC   C4A27558  19.714  42.177   7.736
 1986POPC   C1B27559  20.197  42.574   8.693
 1986POPC   C2B27560  20.280  42.518   8.247
 1986POPC   C3B27561  20.013  42.590   7.912
 1986POPC   C4B27562  20.011  42.498   7.482
 1987POPC   NC327563  21.775  39.068   9.398
 1987POPC   PO427564  21.167  38.887   9.550
 1987POPC   GL127565  21.163  39.250   9.210
 1987POPC   GL227566  21.465  39.263   9.039
 1987POPC   C1A27567  21.064  39.488   8.831
 1987POPC   D2A27568  21.334  39.424   8.473
 1987POPC   C3A27569  21.180  39.358   8.061
 1987POPC   C4A27570  21.384  39.222   7.715
 1987POPC   C1B27571  21.544  38.934   8.769
 1987POPC   C2B27572  21.795  38.832   8.417
 1987POPC   C3B27573  21.755  39.066   8.050
 1987POPC   C4B27574  21.770  38.890   7.657
 1988POPC   NC327575  40.046  20.912   9.483
 1988POPC   PO427576  39.774  20.403   9.534
 1988POPC   GL127577  39.903  20.389   9.126
 1988POPC   GL227578  40.200  20.241   9.204
 1988POPC   C1A27579  39.851  20.748   8.846
 1988POPC   D2A27580  39.606  20.851   8.490
 1988POPC   C3A27581  39.838  20.829   8.073
 1988POPC   C4A27582  40.156  20.855   7.723
 1988POPC   C1B27583  40.320  20.389   8.804
 1988POPC   C2B27584  40.076  20.518   8.450
 1988POPC   C3B27585  40.053  20.376   8.032
 1988POPC   C4B27586  40.169  20.352   7.607
 1989POPC   NC327587   5.554  16.808   9.617
 1989POPC   PO427588   6.143  16.903   9.413
 1989POPC   GL127589   5.992  16.583   9.184
 1989POPC   GL227590   5.649  16.535   9.208
 1989POPC   C1A27591   5.983  16.757   8.778
 1989POPC   D2A27592   5.814  17.030   8.500
 1989POPC   C3A27593   6.026  17.000   8.123
 1989POPC   C4A27594   5.911  16.999   7.725
 1989POPC   C1B27595   5.537  16.500   8.806
 1989POPC   C2B27596   5.690  16.536   8.411
 1989POPC   C3B27597   5.547  16.803   8.105
 1989POPC   C4B27598   5.495  16.718   7.700
 1990POPC   NC327599   1.111  43.551   9.485
 1990POPC   PO427600   1.355  44.216   9.533
 1990POPC   GL127601   1.240  43.962   9.172
 1990POPC   GL227602   0.919  43.897   9.154
 1990POPC   C1A27603   1.218  44.057   8.739
 1990POPC   D2A27604   1.021  44.056   8.336
 1990POPC   C3A27605   1.337  43.991   8.060
 1990POPC   C4A27606   1.424  44.150   7.702
 1990POPC   C1B27607   0.887  43.661   8.788
 1990POPC   C2B27608   1.160  43.587   8.454
 1990POPC   C3B27609   1.025  43.601   8.030
 1990POPC   C4B27610   1.162  43.718   7.672
 1991POPC   NC327611  31.898  24.977   9.343
 1991POPC   PO427612  31.202  24.996   9.451
 1991POPC   GL127613  31.453  25.111   9.113
 1991POPC   GL227614  31.195  25.016   8.945
 1991POPC   C1A27615  31.620  25.335   8.727
 1991POPC   D2A27616  31.661  25.611   8.345
 1991POPC   C3A27617  31.656  25.300   7.995
 1991POPC   C4A27618  31.706  25.308   7.583
 1991POPC   C1B27619  31.092  25.270   8.664
 1991POPC   C2B27620  31.252  25.283   8.305
 1991POPC   C3B27621  31.055  25.235   7.941
 1991POPC   C4B27622  31.156  25.161   7.533
 1992POPC   NC327623  41.708  15.173   9.628
 1992POPC   PO427624  41.234  14.656   9.524
 1992POPC   GL127625  41.450  14.999   9.220
 1992POPC   GL227626  41.808  15.174   9.139
 1992POPC   C1A27627  41.439  15.229   8.791
 1992POPC   D2A27628  41.622  15.088   8.376
 1992POPC   C3A27629  41.518  15.297   7.968
 1992POPC   C4A27630  41.601  15.198   7.490
 1992POPC   C1B27631  42.062  14.926   8.864
 1992POPC   C2B27632  41.946  14.659   8.559
 1992POPC   C3B27633  41.919  14.708   8.116
 1992POPC   C4B27634  41.987  15.089   7.869
 1993POPC   NC327635  17.324  38.670   9.521
 1993POPC   PO427636  17.826  38.201   9.534
 1993POPC   GL127637  17.608  38.435   9.190
 1993POPC   GL227638  17.875  38.619   9.116
 1993POPC   C1A27639  17.273  38.543   8.829
 1993POPC   D2A27640  17.473  38.627   8.449
 1993POPC   C3A27641  17.382  38.454   8.044
 1993POPC   C4A27642  17.240  38.712   7.712
 1993POPC   C1B27643  17.871  38.420   8.730
 1993POPC   C2B27644  17.956  38.583   8.324
 1993POPC   C3B27645  17.918  38.345   7.958
 1993POPC   C4B27646  17.763  38.592   7.668
 1994POPC   NC327647   8.888   7.154   9.420
 1994POPC   PO427648   8.966   7.844   9.507
 1994POPC   GL127649   9.100   7.607   9.160
 1994POPC   GL227650   9.377   7.863   9.107
 1994POPC   C1A27651   8.840   7.416   8.785
 1994POPC   D2A27652   8.624   7.280   8.372
 1994POPC   C3A27653   8.887   7.278   7.966
 1994POPC   C4A27654   9.333   7.191   7.804
 1994POPC   C1B27655   9.126   7.848   8.723
 1994POPC   C2B27656   9.062   7.611   8.343
 1994POPC   C3B27657   9.194   7.695   7.916
 1994POPC   C4B27658   9.486   7.626   7.568
 1995POPC   NC327659   9.214  24.686   9.487
 1995POPC   PO427660   8.682  24.312   9.489
 1995POPC   GL127661   8.884  24.318   9.148
 1995POPC   GL227662   9.263  24.346   9.115
 1995POPC   C1A27663   8.752  24.461   8.752
 1995POPC   D2A27664   9.026  24.583   8.483
 1995POPC   C3A27665   8.955  24.606   8.086
 1995POPC   C4A27666   8.904  24.621   7.646
 1995POPC   C1B27667   9.444  24.423   8.697
 1995POPC   C2B27668   9.412  24.368   8.237
 1995POPC   C3B27669   9.306  24.367   7.823
 1995POPC   C4B27670   9.234  24.274   7.342
 1996POPC   NC327671  35.448  29.463   9.446
 1996POPC   PO427672  35.225  28.783   9.512
 1996POPC   GL127673  35.238  29.058   9.156
 1996POPC   GL227674  35.050  29.370   9.121
 1996POPC   C1A27675  35.361  29.221   8.740
 1996POPC   D2A27676  35.255  29.072   8.330
 1996POPC   C3A27677  35.465  29.133   7.919
 1996POPC   C4A27678  35.709  28.761   7.786
 1996POPC   C1B27679  34.955  29.571   8.724
 1996POPC   C2B27680  35.122  29.575   8.321
 1996POPC   C3B27681  35.072  29.652   7.899
 1996POPC   C4B27682  35.189  29.418   7.523
 1997POPC   NC327683   7.375  20.120   9.411
 1997POPC   PO427684   7.402  19.467   9.509
 1997POPC   GL127685   7.574  19.706   9.145
 1997POPC   GL227686   7.764  20.056   9.108
 1997POPC   C1A27687   7.267  19.728   8.792
 1997POPC   D2A27688   7.144  19.532   8.384
 1997POPC   C3A27689   7.370  19.714   8.027
 1997POPC   C4A27690   7.274  19.990   7.717
 1997POPC   C1B27691   7.692  19.980   8.689
 1997POPC   C2B27692   7.511  20.105   8.314
 1997POPC   C3B27693   7.634  20.273   7.910
 1997POPC   C4B27694   7.627  20.312   7.447
 1998POPC   NC327695  31.038   2.641  10.042
 1998POPC   PO427696  30.426   2.894   9.899
 1998POPC   GL127697  30.747   2.920   9.468
 1998POPC   GL227698  30.884   2.607   9.278
 1998POPC   C1A27699  30.847   3.013   8.967
 1998POPC   D2A27700  30.591   3.014   8.550
 1998POPC   C3A27701  30.709   2.890   8.117
 1998POPC   C4A27702  30.906   2.957   7.704
 1998POPC   C1B27703  30.888   2.501   8.815
 1998POPC   C2B27704  30.586   2.470   8.468
 1998POPC   C3B27705  30.441   2.457   8.051
 1998POPC   C4B27706  30.819   2.477   7.799
 1999POPC   NC327707  26.045  25.729   9.483
 1999POPC   PO427708  26.432  25.165   9.507
 1999POPC   GL127709  26.063  25.204   9.212
 1999POPC   GL227710  25.738  25.027   9.227
 1999POPC   C1A27711  25.934  25.475   8.857
 1999POPC   D2A27712  25.978  25.448   8.432
 1999POPC   C3A27713  25.832  25.418   8.021
 1999POPC   C4A27714  25.991  25.538   7.630
 1999POPC   C1B27715  25.827  24.977   8.783
 1999POPC   C2B27716  25.704  25.028   8.361
 1999POPC   C3B27717  25.854  24.893   7.972
 1999POPC   C4B27718  25.746  25.093   7.626
 2000POPC   NC327719  24.189   8.443   9.872
 2000POPC   PO427720  24.578   8.354   9.343
 2000POPC   GL127721  24.750   8.284   9.024
 2000POPC   GL227722  24.723   7.927   9.016
 2000POPC   C1A27723  24.723   8.495   8.669
 2000POPC   D2A27724  24.502   8.444   8.320
 2000POPC   C3A27725  24.808   8.358   8.044
 2000POPC   C4A27726  24.636   8.351   7.662
 2000POPC   C1B27727  24.485   8.025   8.658
 2000POPC   C2B27728  24.766   7.967   8.366
 2000POPC   C3B27729  24.710   7.867   7.973
 2000POPC   C4B27730  24.459   7.760   7.644
 2001POPC   NC327731   6.847  44.053   9.639
 2001POPC   PO427732   6.415  43.588   9.665
 2001POPC   GL127733   6.482  43.698   9.193
 2001POPC   GL227734   6.806  43.898   9.059
 2001POPC   C1A27735   6.439  43.728   8.740
 2001POPC   D2A27736   6.822  43.833   8.503
 2001POPC   C3A27737   6.713  43.804   8.091
 2001POPC   C4A27738   6.871  43.943   7.734
 2001POPC   C1B27739   6.597  44.233   8.736
 2001POPC   C2B27740   6.438  44.175   8.318
 2001POPC   C3B27741   6.594  44.316   7.943
 2001POPC   C4B27742   6.797  44.412   7.550
 2002POPC   NC327743  11.565  19.606   9.769
 2002POPC   PO427744  10.993  19.828   9.538
 2002POPC   GL127745  11.182  19.836   9.157
 2002POPC   GL227746  11.449  19.674   9.085
 2002POPC   C1A27747  11.070  19.886   8.742
 2002POPC   D2A27748  11.010  19.691   8.360
 2002POPC   C3A27749  11.018  19.986   8.047
 2002POPC   C4A27750  11.209  20.036   7.688
 2002POPC   C1B27751  11.264  19.391   8.734
 2002POPC   C2B27752  11.423  19.351   8.314
 2002POPC   C3B27753  11.325  19.586   7.966
 2002POPC   C4B27754  10.936  19.556   7.764
 2003POPC   NC327755  21.901   3.147   9.595
 2003POPC   PO427756  22.374   2.652   9.667
 2003POPC   GL127757  22.284   2.905   9.253
 2003POPC   GL227758  21.911   2.925   9.128
 2003POPC   C1A27759  22.282   3.109   8.813
 2003POPC   D2A27760  22.174   3.218   8.352
 2003POPC   C3A27761  22.325   2.928   8.011
 2003POPC   C4A27762  22.367   2.514   7.879
 2003POPC   C1B27763  21.979   2.628   8.751
 2003POPC   C2B27764  22.071   2.558   8.291
 2003POPC   C3B27765  21.879   2.642   7.848
 2003POPC   C4B27766  21.888   2.876   7.416
 2004POPC   NC327767   2.211  22.887   9.470
 2004POPC   PO427768   1.608  22.680   9.575
 2004POPC   GL127769   1.795  22.736   9.195
 2004POPC   GL227770   1.805  23.112   9.194
 2004POPC   C1A27771   2.010  22.835   8.787
 2004POPC   D2A27772   2.195  23.005   8.396
 2004POPC   C3A27773   2.046  22.765   8.032
 2004POPC   C4A27774   2.072  22.768   7.566
 2004POPC   C1B27775   1.892  23.346   8.799
 2004POPC   C2B27776   1.862  23.503   8.389
 2004POPC   C3B27777   1.711  23.182   8.132
 2004POPC   C4B27778   1.640  22.958   7.766
 2005POPC   NC327779  41.944  38.999   9.940
 2005POPC   PO427780  42.541  38.928   9.591
 2005POPC   GL127781  42.524  38.978   9.173
 2005POPC   GL227782  42.222  39.136   9.207
 2005POPC   C1A27783  42.511  39.147   8.765
 2005POPC   D2A27784  42.324  39.427   8.490
 2005POPC   C3A27785  42.468  39.175   8.152
 2005POPC   C4A27786  42.547  39.174   7.733
 2005POPC   C1B27787  42.058  38.924   8.843
 2005POPC   C2B27788  42.027  39.027   8.424
 2005POPC   C3B27789  41.971  39.228   8.068
 2005POPC   C4B27790  42.037  39.064   7.647
 2006POPC   NC327791  33.558  38.004   9.505
 2006POPC   PO427792  33.886  37.456   9.593
 2006POPC   GL127793  33.742  37.400   9.152
 2006POPC   GL227794  33.670  37.757   9.053
 2006POPC   C1A27795  33.954  37.461   8.732
 2006POPC   D2A27796  33.866  37.774   8.388
 2006POPC   C3A27797  33.568  37.547   8.163
 2006POPC   C4A27798  33.863  37.232   8.036
 2006POPC   C1B27799  33.441  37.779   8.659
 2006POPC   C2B27800  33.266  38.173   8.507
 2006POPC   C3B27801  33.554  38.153   8.202
 2006POPC   C4B27802  33.751  37.917   7.850
 2007POPC   NC327803  29.648  22.459   9.539
 2007POPC   PO427804  29.699  23.085   9.415
 2007POPC   GL127805  29.940  23.020   9.073
 2007POPC   GL227806  30.039  22.716   9.214
 2007POPC   C1A27807  30.089  23.196   8.699
 2007POPC   D2A27808  29.910  23.289   8.309
 2007POPC   C3A27809  30.039  23.202   7.891
 2007POPC   C4A27810  30.118  22.799   7.711
 2007POPC   C1B27811  30.031  22.629   8.756
 2007POPC   C2B27812  30.096  22.804   8.359
 2007POPC   C3B27813  29.728  22.839   8.107
 2007POPC   C4B27814  29.608  22.975   7.716
 2008POPC   NC327815  23.117   2.042   9.476
 2008POPC   PO427816  22.605   1.582   9.590
 2008POPC   GL127817  22.738   1.770   9.195
 2008POPC   GL227818  23.004   1.969   8.999
 2008POPC   C1A27819  22.764   1.597   8.769
 2008POPC   D2A27820  22.927   1.934   8.475
 2008POPC   C3A27821  22.985   1.862   8.037
 2008POPC   C4A27822  23.008   1.777   7.615
 2008POPC   C1B27823  23.166   2.359   8.820
 2008POPC   C2B27824  22.992   2.544   8.472
 2008POPC   C3B27825  22.968   2.390   8.061
 2008POPC   C4B27826  23.159   2.319   7.655
 2009POPC   NC327827  39.998  12.861   9.510
 2009POPC   PO427828  40.593  13.192   9.622
 2009POPC   GL127829  40.238  13.099   9.156
 2009POPC   GL227830  40.168  12.710   9.022
 2009POPC   C1A27831  40.170  13.072   8.691
 2009POPC   D2A27832  40.207  12.645   8.470
 2009POPC   C3A27833  40.232  12.763   8.051
 2009POPC   C4A27834  40.258  13.211   7.980
 2009POPC   C1B27835  39.775  12.707   8.833
 2009POPC   C2B27836  39.599  12.838   8.434
 2009POPC   C3B27837  39.710  12.860   8.002
 2009POPC   C4B27838  39.654  13.022   7.571
 2010POPC   NC327839   4.113  43.440   9.467
 2010POPC   PO427840   4.646  43.819   9.630
 2010POPC   GL127841   4.313  44.008   9.352
 2010POPC   GL227842   4.295  43.768   9.128
 2010POPC   C1A27843   4.145  44.208   8.942
 2010POPC   D2A27844   4.207  44.044   8.514
 2010POPC   C3A27845   4.104  44.135   8.082
 2010POPC   C4A27846   4.354  43.972   7.790
 2010POPC   C1B27847   4.402  43.621   8.752
 2010POPC   C2B27848   4.087  43.511   8.469
 2010POPC   C3B27849   4.111  43.631   8.101
 2010POPC   C4B27850   4.345  43.426   7.819
 2011POPC   NC327851  35.980  27.256   9.480
 2011POPC   PO427852  36.514  27.685   9.648
 2011POPC   GL127853  36.398  27.392   9.216
 2011POPC   GL227854  36.075  27.573   9.104
 2011POPC   C1A27855  36.364  27.415   8.708
 2011POPC   D2A27856  36.119  27.582   8.318
 2011POPC   C3A27857  36.251  27.445   7.912
 2011POPC   C4A27858  36.274  27.558   7.492
 2011POPC   C1B27859  35.835  27.610   8.749
 2011POPC   C2B27860  35.662  27.311   8.442
 2011POPC   C3B27861  35.708  27.397   8.007
 2011POPC   C4B27862  35.893  27.807   7.852
 2012POPC   NC327863  28.559  24.690   9.423
 2012POPC   PO427864  29.250  24.572   9.546
 2012POPC   GL127865  29.155  24.430   9.130
 2012POPC   GL227866  28.938  24.184   9.079
 2012POPC   C1A27867  29.322  24.450   8.712
 2012POPC   D2A27868  29.124  24.515   8.304
 2012POPC   C3A27869  29.409  24.610   7.953
 2012POPC   C4A27870  29.317  24.731   7.533
 2012POPC   C1B27871  28.826  24.207   8.667
 2012POPC   C2B27872  28.770  23.953   8.296
 2012POPC   C3B27873  28.787  24.229   7.963
 2012POPC   C4B27874  28.919  24.632   7.836
 2013POPC   NC327875   6.300  17.310   9.570
 2013POPC   PO427876   6.705  17.881   9.460
 2013POPC   GL127877   6.565  17.575   9.175
 2013POPC   GL227878   6.238  17.691   9.218
 2013POPC   C1A27879   6.696  17.425   8.755
 2013POPC   D2A27880   6.981  17.578   8.406
 2013POPC   C3A27881   6.839  17.417   8.011
 2013POPC   C4A27882   6.464  17.164   7.841
 2013POPC   C1B27883   6.267  17.777   8.772
 2013POPC   C2B27884   6.492  17.757   8.372
 2013POPC   C3B27885   6.392  17.667   7.909
 2013POPC   C4B27886   6.413  17.648   7.424
 2014POPC   NC327887   6.422  43.151   9.565
 2014POPC   PO427888   6.860  42.663   9.424
 2014POPC   GL127889   6.659  42.972   9.134
 2014POPC   GL227890   6.817  43.293   9.251
 2014POPC   C1A27891   6.356  43.177   8.807
 2014POPC   D2A27892   6.216  43.087   8.365
 2014POPC   C3A27893   6.563  42.876   8.160
 2014POPC   C4A27894   6.937  42.878   7.917
 2014POPC   C1B27895   6.834  43.414   8.826
 2014POPC   C2B27896   6.664  43.351   8.404
 2014POPC   C3B27897   6.489  43.346   7.988
 2014POPC   C4B27898   6.482  43.592   7.644
 2015POPC   NC327899  26.346  42.677   9.533
 2015POPC   PO427900  25.878  43.088   9.650
 2015POPC   GL127901  26.099  43.183   9.248
 2015POPC   GL227902  26.414  43.015   9.154
 2015POPC   C1A27903  26.023  43.020   8.827
 2015POPC   D2A27904  25.715  43.157   8.564
 2015POPC   C3A27905  25.786  43.213   8.145
 2015POPC   C4A27906  26.004  43.019   7.832
 2015POPC   C1B27907  26.445  43.314   8.783
 2015POPC   C2B27908  26.259  43.235   8.382
 2015POPC   C3B27909  26.430  42.920   8.072
 2015POPC   C4B27910  26.616  43.096   7.731
 2016POPC   NC327911   7.373  16.118   9.398
 2016POPC   PO427912   6.970  15.632   9.567
 2016POPC   GL127913   7.240  15.663   9.175
 2016POPC   GL227914   7.563  15.768   9.037
 2016POPC   C1A27915   7.119  15.784   8.750
 2016POPC   D2A27916   7.049  16.078   8.400
 2016POPC   C3A27917   7.281  15.947   7.998
 2016POPC   C4A27918   7.468  16.068   7.583
 2016POPC   C1B27919   7.831  15.609   8.668
 2016POPC   C2B27920   7.902  15.620   8.199
 2016POPC   C3B27921   7.889  15.855   7.797
 2016POPC   C4B27922   7.744  15.683   7.376
 2017POPC   NC327923  35.143   2.362   9.638
 2017POPC   PO427924  35.543   2.772   9.427
 2017POPC   GL127925  35.137   2.707   9.208
 2017POPC   GL227926  34.979   2.410   9.132
 2017POPC   C1A27927  35.070   2.927   8.828
 2017POPC   D2A27928  35.341   2.934   8.463
 2017POPC   C3A27929  35.195   2.871   8.067
 2017POPC   C4A27930  35.254   3.022   7.685
 2017POPC   C1B27931  35.239   2.460   8.756
 2017POPC   C2B27932  35.448   2.414   8.370
 2017POPC   C3B27933  35.518   2.508   7.937
 2017POPC   C4B27934  35.203   2.508   7.644
 2018POPC   NC327935  37.466  31.164   9.525
 2018POPC   PO427936  37.855  31.707   9.541
 2018POPC   GL127937  37.625  31.549   9.199
 2018POPC   GL227938  37.253  31.503   9.220
 2018POPC   C1A27939  37.723  31.620   8.761
 2018POPC   D2A27940  37.897  31.656   8.339
 2018POPC   C3A27941  37.571  31.546   8.062
 2018POPC   C4A27942  37.338  31.586   7.690
 2018POPC   C1B27943  37.421  31.211   8.862
 2018POPC   C2B27944  37.640  31.185   8.449
 2018POPC   C3B27945  37.423  31.050   8.072
 2018POPC   C4B27946  37.259  31.099   7.661
 2019POPC   NC327947  30.446   1.710   9.496
 2019POPC   PO427948  30.937   1.212   9.537
 2019POPC   GL127949  30.724   1.249   9.168
 2019POPC   GL227950  30.415   1.137   9.270
 2019POPC   C1A27951  30.903   1.091   8.799
 2019POPC   D2A27952  31.051   0.857   8.461
 2019POPC   C3A27953  30.916   1.090   8.122
 2019POPC   C4A27954  30.897   0.857   7.761
 2019POPC   C1B27955  30.361   0.957   8.851
 2019POPC   C2B27956  30.529   1.048   8.435
 2019POPC   C3B27957  30.434   1.091   7.984
 2019POPC   C4B27958  30.545   1.158   7.551
 2020POPC   NC327959  11.408  29.003   9.499
 2020POPC   PO427960  11.530  29.656   9.502
 2020POPC   GL127961  11.382  29.384   9.112
 2020POPC   GL227962  11.105  29.123   9.037
 2020POPC   C1A27963  11.419  29.239   8.656
 2020POPC   D2A27964  11.270  29.053   8.243
 2020POPC   C3A27965  11.333  29.271   7.843
 2020POPC   C4A27966  11.614  29.206   7.480
 2020POPC   C1B27967  11.015  28.797   8.688
 2020POPC   C2B27968  10.986  28.612   8.242
 2020POPC   C3B27969  10.936  28.883   7.844
 2020POPC   C4B27970  11.077  29.109   7.434
 2021POPC   NC327971   1.710  29.095   9.448
 2021POPC   PO427972   2.367  28.913   9.555
 2021POPC   GL127973   2.100  28.877   9.159
 2021POPC   GL227974   2.399  28.693   9.050
 2021POPC   C1A27975   1.834  29.156   8.830
 2021POPC   D2A27976   1.690  29.331   8.421
 2021POPC   C3A27977   1.838  29.119   8.041
 2021POPC   C4A27978   1.904  29.041   7.611
 2021POPC   C1B27979   2.271  28.954   8.681
 2021POPC   C2B27980   2.269  29.202   8.331
 2021POPC   C3B27981   2.332  29.101   7.896
 2021POPC   C4B27982   2.371  29.138   7.457
 2022POPC   NC327983  29.004   0.725   9.505
 2022POPC   PO427984  29.031   0.067   9.627
 2022POPC   GL127985  29.043   0.155   9.168
 2022POPC   GL227986  28.785  44.941   8.982
 2022POPC   C1A27987  29.372   0.270   8.811
 2022POPC   D2A27988  29.561   0.107   8.409
 2022POPC   C3A27989  29.502   0.335   8.035
 2022POPC   C4A27990  29.181   0.453   7.795
 2022POPC   C1B27991  28.872   0.255   8.689
 2022POPC   C2B27992  29.015   0.331   8.283
 2022POPC   C3B27993  28.804   0.670   8.074
 2022POPC   C4B27994  28.765   0.784   7.643
 2023POPC   NC327995  37.276  33.941   9.397
 2023POPC   PO427996  36.711  33.585   9.562
 2023POPC   GL127997  36.888  33.666   9.153
 2023POPC   GL227998  37.237  33.495   9.125
 2023POPC   C1A27999  36.821  33.747   8.705
 2023POPC   D2A28000  36.988  33.504   8.336
 2023POPC   C3A28001  36.972  33.747   7.940
 2023POPC   C4A28002  36.800  34.166   7.829
 2023POPC   C1B28003  37.324  33.772   8.770
 2023POPC   C2B28004  37.239  33.976   8.387
 2023POPC   C3B28005  37.348  34.180   8.025
 2023POPC   C4B28006  37.263  34.139   7.615
 2024POPC   NC328007  38.470  12.490   9.541
 2024POPC   PO428008  38.115  13.007   9.387
 2024POPC   GL128009  38.411  12.767   9.100
 2024POPC   GL228010  38.275  12.520   8.852
 2024POPC   C1A28011  38.698  12.820   8.736
 2024POPC   D2A28012  38.620  12.667   8.308
 2024POPC   C3A28013  38.687  12.887   7.944
 2024POPC   C4A28014  38.350  13.120   7.777
 2024POPC   C1B28015  38.182  12.918   8.661
 2024POPC   C2B28016  38.096  12.910   8.234
 2024POPC   C3B28017  38.204  12.587   7.964
 2024POPC   C4B28018  38.166  12.250   7.661
 2025POPC   NC328019   1.474   7.171   9.346
 2025POPC   PO428020   1.055   7.476   9.736
 2025POPC   GL128021   0.949   7.461   9.246
 2025POPC   GL228022   0.940   7.134   9.178
 2025POPC   C1A28023   1.139   7.478   8.824
 2025POPC   D2A28024   1.099   7.629   8.386
 2025POPC   C3A28025   1.392   7.419   8.131
 2025POPC   C4A28026   1.484   7.176   7.771
 2025POPC   C1B28027   0.991   6.987   8.768
 2025POPC   C2B28028   1.082   7.076   8.348
 2025POPC   C3B28029   0.878   7.114   7.943
 2025POPC   C4B28030   1.052   7.057   7.500
 2026POPC   NC328031  12.752  42.472   9.817
 2026POPC   PO428032  12.868  43.110   9.610
 2026POPC   GL128033  12.890  43.094   9.178
 2026POPC   GL228034  13.146  43.350   9.202
 2026POPC   C1A28035  12.715  43.039   8.738
 2026POPC   D2A28036  12.573  43.069   8.289
 2026POPC   C3A28037  12.791  43.214   7.942
 2026POPC   C4A28038  12.666  43.182   7.505
 2026POPC   C1B28039  13.233  43.168   8.797
 2026POPC   C2B28040  13.115  42.916   8.424
 2026POPC   C3B28041  13.280  43.062   8.028
 2026POPC   C4B28042  13.163  43.190   7.589
 2027POPC   NC328043  37.478  14.578   9.790
 2027POPC   PO428044  38.080  14.313   9.576
 2027POPC   GL128045  37.814  14.387   9.220
 2027POPC   GL228046  37.520  14.582   9.231
 2027POPC   C1A28047  37.625  14.230   8.826
 2027POPC   D2A28048  37.833  14.181   8.426
 2027POPC   C3A28049  37.603  14.271   8.050
 2027POPC   C4A28050  37.755  14.101   7.702
 2027POPC   C1B28051  37.574  14.735   8.801
 2027POPC   C2B28052  37.480  14.588   8.419
 2027POPC   C3B28053  37.496  14.781   7.992
 2027POPC   C4B28054  37.733  14.599   7.638
 2028POPC   NC328055   9.949  15.920   9.620
 2028POPC   PO428056   9.317  15.958   9.590
 2028POPC   GL128057   9.625  16.123   9.264
 2028POPC   GL228058   9.804  15.847   9.141
 2028POPC   C1A28059   9.705  16.225   8.806
 2028POPC   D2A28060   9.667  15.953   8.413
 2028POPC   C3A28061   9.579  16.124   8.007
 2028POPC   C4A28062   9.843  16.143   7.649
 2028POPC   C1B28063  10.022  15.825   8.764
 2028POPC   C2B28064  10.186  15.917   8.367
 2028POPC   C3B28065   9.999  15.773   7.996
 2028POPC   C4B28066  10.066  15.685   7.565
 2029POPC   NC328067  21.576  15.302   9.552
 2029POPC   PO428068  20.904  15.198   9.739
 2029POPC   GL128069  21.129  15.120   9.273
 2029POPC   GL228070  21.292  15.382   9.136
 2029POPC   C1A28071  21.079  15.147   8.762
 2029POPC   D2A28072  21.134  15.067   8.324
 2029POPC   C3A28073  21.367  14.919   7.990
 2029POPC   C4A28074  21.403  15.120   7.592
 2029POPC   C1B28075  21.394  15.572   8.767
 2029POPC   C2B28076  21.570  15.515   8.377
 2029POPC   C3B28077  21.355  15.465   7.981
 2029POPC   C4B28078  21.435  15.679   7.586
 2030POPC   NC328079  11.456  19.241   9.329
 2030POPC   PO428080  11.122  18.850   9.700
 2030POPC   GL128081  11.128  18.839   9.246
 2030POPC   GL228082  10.940  19.157   9.200
 2030POPC   C1A28083  11.348  18.761   8.857
 2030POPC   D2A28084  11.601  18.916   8.517
 2030POPC   C3A28085  11.443  18.856   8.083
 2030POPC   C4A28086  11.452  19.159   7.752
 2030POPC   C1B28087  10.874  18.988   8.798
 2030POPC   C2B28088  11.090  18.979   8.450
 2030POPC   C3B28089  10.993  19.174   8.104
 2030POPC   C4B28090  10.971  19.044   7.719
 2031POPC   NC328091  19.058   1.669   9.488
 2031POPC   PO428092  19.263   2.233   9.722
 2031POPC   GL128093  19.068   2.155   9.218
 2031POPC   GL228094  18.911   1.855   9.043
 2031POPC   C1A28095  19.126   2.231   8.746
 2031POPC   D2A28096  18.928   2.332   8.351
 2031POPC   C3A28097  19.111   2.393   7.948
 2031POPC   C4A28098  18.879   2.197   7.647
 2031POPC   C1B28099  19.346   1.764   8.848
 2031POPC   C2B28100  19.453   1.897   8.413
 2031POPC   C3B28101  19.190   1.891   7.999
 2031POPC   C4B28102  19.126   1.751   7.547
 2032POPC   NC328103  24.180  14.400   9.540
 2032POPC   PO428104  23.595  14.173   9.518
 2032POPC   GL128105  23.544  14.408   9.146
 2032POPC   GL228106  23.898  14.297   9.112
 2032POPC   C1A28107  23.661  14.549   8.726
 2032POPC   D2A28108  23.909  14.560   8.350
 2032POPC   C3A28109  23.692  14.517   7.971
 2032POPC   C4A28110  23.261  14.621   7.855
 2032POPC   C1B28111  23.859  14.037   8.767
 2032POPC   C2B28112  23.952  13.905   8.397
 2032POPC   C3B28113  24.055  14.121   8.087
 2032POPC   C4B28114  23.873  14.080   7.735
 2033POPC   NC328115  31.990  30.006   9.798
 2033POPC   PO428116  31.423  29.821   9.474
 2033POPC   GL128117  31.416  29.630   9.083
 2033POPC   GL228118  31.456  29.982   8.960
 2033POPC   C1A28119  31.285  29.645   8.638
 2033POPC   D2A28120  31.259  30.064   8.479
 2033POPC   C3A28121  31.453  30.116   8.113
 2033POPC   C4A28122  31.611  29.911   7.800
 2033POPC   C1B28123  31.772  30.218   8.717
 2033POPC   C2B28124  31.938  30.141   8.331
 2033POPC   C3B28125  31.881  30.359   7.981
 2033POPC   C4B28126  31.962  30.225   7.602
 2034POPC   NC328127  26.475  20.993   9.755
 2034POPC   PO428128  27.110  21.302   9.598
 2034POPC   GL128129  26.899  21.244   9.211
 2034POPC   GL228130  27.061  20.967   9.070
 2034POPC   C1A28131  26.658  21.467   8.875
 2034POPC   D2A28132  26.729  21.658   8.474
 2034POPC   C3A28133  26.549  21.537   8.079
 2034POPC   C4A28134  26.682  21.699   7.701
 2034POPC   C1B28135  26.872  21.000   8.694
 2034POPC   C2B28136  26.977  21.079   8.283
 2034POPC   C3B28137  26.826  21.109   7.879
 2034POPC   C4B28138  26.498  21.245   7.628
 2035POPC   NC328139   0.924  31.548   9.503
 2035POPC   PO428140   1.663  31.521   9.495
 2035POPC   GL128141   1.354  31.531   9.172
 2035POPC   GL228142   1.135  31.229   9.164
 2035POPC   C1A28143   1.220  31.506   8.730
 2035POPC   D2A28144   1.126  31.694   8.314
 2035POPC   C3A28145   1.292  31.474   7.955
 2035POPC   C4A28146   1.301  31.596   7.504
 2035POPC   C1B28147   1.004  31.023   8.775
 2035POPC   C2B28148   1.002  31.201   8.365
 2035POPC   C3B28149   0.784  31.376   8.001
 2035POPC   C4B28150   0.965  31.219   7.645
 2036POPC   NC328151  13.970  31.897   9.533
 2036POPC   PO428152  14.064  32.540   9.634
 2036POPC   GL128153  14.116  32.320   9.244
 2036POPC   GL228154  14.448  32.273   9.097
 2036POPC   C1A28155  14.059  32.410   8.803
 2036POPC   D2A28156  14.333  32.395   8.469
 2036POPC   C3A28157  14.213  32.559   8.083
 2036POPC   C4A28158  14.110  32.344   7.687
 2036POPC   C1B28159  14.615  32.039   8.722
 2036POPC   C2B28160  14.749  32.124   8.295
 2036POPC   C3B28161  14.804  31.897   7.897
 2036POPC   C4B28162  14.552  32.104   7.595
 2037POPC   NC328163  28.074  26.969   9.537
 2037POPC   PO428164  28.542  26.579   9.646
 2037POPC   GL128165  28.479  26.799   9.241
 2037POPC   GL228166  28.691  26.631   9.000
 2037POPC   C1A28167  28.335  26.964   8.842
 2037POPC   D2A28168  28.346  26.751   8.434
 2037POPC   C3A28169  28.305  26.932   8.007
 2037POPC   C4A28170  28.372  27.000   7.564
 2037POPC   C1B28171  28.236  26.475   8.872
 2037POPC   C2B28172  28.053  26.333   8.456
 2037POPC   C3B28173  28.071  26.462   8.042
 2037POPC   C4B28174  28.296  26.367   7.673
 2038POPC   NC328175  21.295  36.256   9.643
 2038POPC   PO428176  21.765  35.744   9.462
 2038POPC   GL128177  21.417  36.000   9.198
 2038POPC   GL228178  21.300  36.368   9.167
 2038POPC   C1A28179  21.213  36.008   8.804
 2038POPC   D2A28180  21.415  35.872   8.406
 2038POPC   C3A28181  21.404  36.116   8.017
 2038POPC   C4A28182  21.207  35.858   7.772
 2038POPC   C1B28183  21.182  36.534   8.801
 2038POPC   C2B28184  21.231  36.371   8.410
 2038POPC   C3B28185  21.149  36.566   8.016
 2038POPC   C4B28186  21.296  36.578   7.612
 2039POPC   NC328187   2.495  39.723   9.568
 2039POPC   PO428188   2.972  40.209   9.483
 2039POPC   GL128189   2.782  39.958   9.161
 2039POPC   GL228190   2.976  39.637   9.172
 2039POPC   C1A28191   2.662  40.123   8.753
 2039POPC   D2A28192   2.720  40.346   8.332
 2039POPC   C3A28193   2.620  40.099   8.011
 2039POPC   C4A28194   2.513  39.801   7.797
 2039POPC   C1B28195   3.087  39.804   8.753
 2039POPC   C2B28196   2.949  39.878   8.346
 2039POPC   C3B28197   3.005  39.688   7.939
 2039POPC   C4B28198   3.324  39.767   7.610
 2040POPC   NC328199  13.559  31.494  10.181
 2040POPC   PO428200  13.964  31.447   9.682
 2040POPC   GL128201  13.719  31.559   9.263
 2040POPC   GL228202  13.372  31.703   9.279
 2040POPC   C1A28203  13.674  31.653   8.808
 2040POPC   D2A28204  13.445  31.546   8.405
 2040POPC   C3A28205  13.659  31.533   7.971
 2040POPC   C4A28206  13.980  31.248   7.763
 2040POPC   C1B28207  13.227  31.946   8.885
 2040POPC   C2B28208  13.099  31.930   8.425
 2040POPC   C3B28209  13.218  31.813   7.995
 2040POPC   C4B28210  13.193  31.444   7.710
 2041POPC   NC328211   9.375  19.228   9.452
 2041POPC   PO428212  10.007  18.899   9.528
 2041POPC   GL128213   9.862  19.042   9.129
 2041POPC   GL228214   9.532  18.886   9.064
 2041POPC   C1A28215   9.853  19.004   8.675
 2041POPC   D2A28216   9.623  19.081   8.320
 2041POPC   C3A28217   9.785  18.896   7.997
 2041POPC   C4A28218  10.055  19.072   7.701
 2041POPC   C1B28219   9.372  19.204   8.765
 2041POPC   C2B28220   9.339  19.499   8.400
 2041POPC   C3B28221   9.341  19.382   7.962
 2041POPC   C4B28222   9.525  19.159   7.661
 2042POPC   NC328223  30.356   6.706   9.235
 2042POPC   PO428224  29.800   6.609   9.626
 2042POPC   GL128225  29.860   6.508   9.190
 2042POPC   GL228226  29.859   6.883   9.096
 2042POPC   C1A28227  29.696   6.561   8.744
 2042POPC   D2A28228  29.835   6.574   8.329
 2042POPC   C3A28229  29.616   6.638   7.979
 2042POPC   C4A28230  29.646   6.716   7.539
 2042POPC   C1B28231  30.010   6.963   8.658
 2042POPC   C2B28232  30.113   6.993   8.211
 2042POPC   C3B28233  30.090   6.777   7.810
 2042POPC   C4B28234  30.087   6.893   7.363
 2043POPC   NC328235  15.058  22.582   9.439
 2043POPC   PO428236  15.107  23.221   9.602
 2043POPC   GL128237  15.228  23.033   9.227
 2043POPC   GL228238  14.882  22.954   9.129
 2043POPC   C1A28239  15.325  22.792   8.816
 2043POPC   D2A28240  15.541  22.792   8.409
 2043POPC   C3A28241  15.393  22.917   8.000
 2043POPC   C4A28242  15.489  22.771   7.585
 2043POPC   C1B28243  15.059  23.219   8.796
 2043POPC   C2B28244  15.065  23.074   8.403
 2043POPC   C3B28245  14.882  22.908   8.048
 2043POPC   C4B28246  14.964  23.155   7.668
 2044POPC   NC328247  31.975  15.661   9.566
 2044POPC   PO428248  32.587  16.030   9.488
 2044POPC   GL128249  32.334  15.804   9.198
 2044POPC   GL228250  32.045  15.980   9.151
 2044POPC   C1A28251  32.257  15.725   8.765
 2044POPC   D2A28252  32.239  15.944   8.421
 2044POPC   C3A28253  32.423  15.729   8.115
 2044POPC   C4A28254  32.409  15.882   7.745
 2044POPC   C1B28255  31.952  16.221   8.784
 2044POPC   C2B28256  32.003  16.399   8.367
 2044POPC   C3B28257  31.883  16.437   7.950
 2044POPC   C4B28258  32.026  16.178   7.628
 2045POPC   NC328259   0.658  43.031   9.448
 2045POPC   PO428260  44.962  43.121   9.374
 2045POPC   GL128261   0.310  43.216   9.123
 2045POPC   GL228262   0.359  42.867   9.077
 2045POPC   C1A28263   0.529  43.292   8.735
 2045POPC   D2A28264   0.275  43.340   8.357
 2045POPC   C3A28265   0.446  43.328   7.921
 2045POPC   C4A28266   0.384  43.173   7.484
 2045POPC   C1B28267   0.164  42.935   8.686
 2045POPC   C2B28268   0.471  42.862   8.371
 2045POPC   C3B28269   0.583  42.831   7.954
 2045POPC   C4B28270   0.184  42.760   7.794
 2046POPC   NC328271  13.371   1.810   9.716
 2046POPC   PO428272  13.843   2.185   9.484
 2046POPC   GL128273  13.476   2.071   9.247
 2046POPC   GL228274  13.606   1.854   9.000
 2046POPC   C1A28275  13.333   2.221   8.832
 2046POPC   D2A28276  13.513   1.966   8.501
 2046POPC   C3A28277  13.377   2.004   8.091
 2046POPC   C4A28278  13.480   2.194   7.731
 2046POPC   C1B28279  13.927   1.650   8.730
 2046POPC   C2B28280  14.158   1.565   8.334
 2046POPC   C3B28281  13.980   1.452   7.935
 2046POPC   C4B28282  13.613   1.691   7.734
 2047POPC   NC328283   7.914   8.140   9.616
 2047POPC   PO428284   8.431   8.505   9.575
 2047POPC   GL128285   8.225   8.366   9.196
 2047POPC   GL228286   7.870   8.435   9.162
 2047POPC   C1A28287   8.245   8.048   8.869
 2047POPC   D2A28288   8.632   7.949   8.586
 2047POPC   C3A28289   8.591   7.753   8.191
 2047POPC   C4A28290   8.439   8.030   7.908
 2047POPC   C1B28291   8.012   8.463   8.687
 2047POPC   C2B28292   8.079   8.206   8.293
 2047POPC   C3B28293   7.891   8.145   7.868
 2047POPC   C4B28294   7.843   8.425   7.471
 2048POPC   NC328295  35.547   0.004   9.414
 2048POPC   PO428296  35.136  44.629   9.648
 2048POPC   GL128297  35.011  44.614   9.219
 2048POPC   GL228298  35.307  44.716   9.085
 2048POPC   C1A28299  35.032  44.364   8.810
 2048POPC   D2A28300  35.290  44.265   8.422
 2048POPC   C3A28301  35.258  44.597   8.115
 2048POPC   C4A28302  35.299  44.701   7.711
 2048POPC   C1B28303  35.419  44.736   8.656
 2048POPC   C2B28304  35.710  44.643   8.350
 2048POPC   C3B28305  35.720  44.336   8.046
 2048POPC   C4B28306  35.785  44.585   7.706
 2049POPC   NC328307  19.967  22.271   9.608
 2049POPC   PO428308  19.514  21.827   9.490
 2049POPC   GL128309  19.589  22.187   9.191
 2049POPC   GL228310  19.888  22.401   9.123
 2049POPC   C1A28311  19.599  22.278   8.730
 2049POPC   D2A28312  19.808  22.167   8.365
 2049POPC   C3A28313  19.715  22.350   7.984
 2049POPC   C4A28314  19.780  22.050   7.733
 2049POPC   C1B28315  20.119  22.366   8.741
 2049POPC   C2B28316  20.161  22.519   8.318
 2049POPC   C3B28317  20.211  22.265   7.994
 2049POPC   C4B28318  20.189  22.404   7.622
 2050POPC   NC328319   6.086  33.560   9.502
 2050POPC   PO428320   5.504  33.820   9.506
 2050POPC   GL128321   5.745  33.802   9.167
 2050POPC   GL228322   5.655  33.457   9.112
 2050POPC   C1A28323   5.983  34.017   8.831
 2050POPC   D2A28324   5.878  34.222   8.452
 2050POPC   C3A28325   6.061  34.158   8.051
 2050POPC   C4A28326   5.934  33.903   7.740
 2050POPC   C1B28327   5.743  33.577   8.715
 2050POPC   C2B28328   5.982  33.560   8.370
 2050POPC   C3B28329   5.839  33.471   7.972
 2050POPC   C4B28330   5.484  33.577   7.719
 2051POPC   NC328331  36.460  39.916   9.307
 2051POPC   PO428332  35.883  39.922   9.510
 2051POPC   GL128333  35.998  40.018   9.123
 2051POPC   GL228334  35.895  39.708   9.039
 2051POPC   C1A28335  36.084  40.090   8.713
 2051POPC   D2A28336  36.057  40.287   8.355
 2051POPC   C3A28337  35.923  40.024   8.050
 2051POPC   C4A28338  35.980  40.331   7.766
 2051POPC   C1B28339  36.246  39.596   8.782
 2051POPC   C2B28340  36.091  39.625   8.383
 2051POPC   C3B28341  36.227  39.570   7.975
 2051POPC   C4B28342  36.241  39.857   7.656
 2052POPC   NC328343  39.482   4.191   9.353
 2052POPC   PO428344  38.794   4.307   9.498
 2052POPC   GL128345  39.049   4.345   9.061
 2052POPC   GL228346  39.456   4.374   8.895
 2052POPC   C1A28347  39.055   4.376   8.601
 2052POPC   D2A28348  39.352   4.229   8.280
 2052POPC   C3A28349  39.170   4.124   7.841
 2052POPC   C4A28350  39.115   4.126   7.358
 2052POPC   C1B28351  39.392   4.763   8.682
 2052POPC   C2B28352  39.235   4.811   8.299
 2052POPC   C3B28353  39.294   4.601   7.940
 2052POPC   C4B28354  39.437   4.485   7.516
 2053POPC   NC328355  13.049  44.532   9.629
 2053POPC   PO428356  12.622   0.019   9.549
 2053POPC   GL128357  12.778  44.739   9.206
 2053POPC   GL228358  13.144  44.668   9.134
 2053POPC   C1A28359  12.790  44.720   8.747
 2053POPC   D2A28360  12.827  44.460   8.394
 2053POPC   C3A28361  12.798  44.714   8.056
 2053POPC   C4A28362  12.643  44.793   7.663
 2053POPC   C1B28363  13.131  44.342   8.806
 2053POPC   C2B28364  13.331  44.290   8.396
 2053POPC   C3B28365  13.141  44.319   7.984
 2053POPC   C4B28366  13.149  44.669   7.684
 2054POPC   NC328367  13.691   0.944   9.330
 2054POPC   PO428368  13.863   0.343   9.642
 2054POPC   GL128369  13.623   0.444   9.286
 2054POPC   GL228370  13.641   0.146   9.100
 2054POPC   C1A28371  13.481   0.553   8.852
 2054POPC   D2A28372  13.627   0.337   8.479
 2054POPC   C3A28373  13.512   0.575   8.121
 2054POPC   C4A28374  13.502   0.516   7.695
 2054POPC   C1B28375  13.273   0.065   8.803
 2054POPC   C2B28376  13.201  44.893   8.370
 2054POPC   C3B28377  13.360   0.083   7.982
 2054POPC   C4B28378  13.797   0.141   7.891
 2055POPC   NC328379  15.553   4.596   9.642
 2055POPC   PO428380  16.147   4.434   9.406
 2055POPC   GL128381  16.010   4.232   9.072
 2055POPC   GL228382  16.256   3.967   9.087
 2055POPC   C1A28383  15.918   4.403   8.672
 2055POPC   D2A28384  16.163   4.550   8.346
 2055POPC   C3A28385  16.051   4.442   7.916
 2055POPC   C4A28386  16.232   4.306   7.502
 2055POPC   C1B28387  16.058   3.904   8.674
 2055POPC   C2B28388  16.001   4.053   8.259
 2055POPC   C3B28389  16.164   3.918   7.887
 2055POPC   C4B28390  16.202   3.767   7.481
 2056POPC   NC328391  26.311  36.982   9.521
 2056POPC   PO428392  25.671  36.699   9.555
 2056POPC   GL128393  25.896  36.916   9.180
 2056POPC   GL228394  26.235  36.727   9.086
 2056POPC   C1A28395  26.133  37.151   8.824
 2056POPC   D2A28396  26.394  37.048   8.440
 2056POPC   C3A28397  26.184  37.146   8.020
 2056POPC   C4A28398  25.757  37.040   7.891
 2056POPC   C1B28399  25.970  36.673   8.705
 2056POPC   C2B28400  25.781  36.762   8.319
 2056POPC   C3B28401  26.049  36.636   7.963
 2056POPC   C4B28402  26.480  36.730   8.044
 2057POPC   NC328403   1.095  37.643   9.571
 2057POPC   PO428404   1.583  38.087   9.452
 2057POPC   GL128405   1.316  37.874   9.086
 2057POPC   GL228406   1.119  37.558   9.091
 2057POPC   C1A28407   1.197  37.707   8.637
 2057POPC   D2A28408   0.934  37.849   8.285
 2057POPC   C3A28409   1.173  37.966   7.923
 2057POPC   C4A28410   1.177  37.821   7.503
 2057POPC   C1B28411   0.919  37.282   8.818
 2057POPC   C2B28412   0.928  37.346   8.365
 2057POPC   C3B28413   1.072  37.441   7.935
 2057POPC   C4B28414   1.112  37.315   7.494
 2058POPC   NC328415  31.081   5.088   9.471
 2058POPC   PO428416  31.690   5.283   9.529
 2058POPC   GL128417  31.547   4.933   9.283
 2058POPC   GL228418  31.790   4.682   9.222
 2058POPC   C1A28419  31.367   4.991   8.879
 2058POPC   D2A28420  31.593   5.057   8.502
 2058POPC   C3A28421  31.379   5.144   8.102
 2058POPC   C4A28422  31.311   5.208   7.689
 2058POPC   C1B28423  31.911   4.790   8.820
 2058POPC   C2B28424  31.965   4.610   8.436
 2058POPC   C3B28425  31.769   4.801   8.110
 2058POPC   C4B28426  31.751   4.896   7.707
 2059POPC   NC328427  16.915  18.199   9.617
 2059POPC   PO428428  16.463  18.641   9.441
 2059POPC   GL128429  16.659  18.360   9.175
 2059POPC   GL228430  17.010  18.357   9.110
 2059POPC   C1A28431  16.463  18.090   8.900
 2059POPC   D2A28432  16.449  18.031   8.441
 2059POPC   C3A28433  16.822  18.069   8.176
 2059POPC   C4A28434  16.873  18.085   7.737
 2059POPC   C1B28435  16.844  18.318   8.658
 2059POPC   C2B28436  16.659  18.541   8.287
 2059POPC   C3B28437  16.778  18.599   7.832
 2059POPC   C4B28438  16.928  18.751   7.397
 2060POPC   NC328439   3.848   7.617   9.389
 2060POPC   PO428440   4.455   7.303   9.562
 2060POPC   GL128441   4.276   7.432   9.193
 2060POPC   GL228442   4.013   7.142   9.231
 2060POPC   C1A28443   4.268   7.662   8.794
 2060POPC   D2A28444   4.465   7.608   8.389
 2060POPC   C3A28445   4.317   7.739   7.972
 2060POPC   C4A28446   4.258   7.660   7.490
 2060POPC   C1B28447   3.862   7.100   8.800
 2060POPC   C2B28448   4.001   7.348   8.433
 2060POPC   C3B28449   4.254   7.255   8.064
 2060POPC   C4B28450   4.227   7.077   7.691
 2061POPC   NC328451   6.552  36.591   9.528
 2061POPC   PO428452   6.698  37.237   9.572
 2061POPC   GL128453   6.695  36.970   9.220
 2061POPC   GL228454   6.339  36.860   9.172
 2061POPC   C1A28455   6.730  36.734   8.824
 2061POPC   D2A28456   6.933  36.671   8.432
 2061POPC   C3A28457   6.857  36.868   8.067
 2061POPC   C4A28458   6.637  36.790   7.678
 2061POPC   C1B28459   6.214  36.732   8.770
 2061POPC   C2B28460   6.405  36.646   8.382
 2061POPC   C3B28461   6.354  36.929   8.074
 2061POPC   C4B28462   6.256  37.144   7.757
 2062POPC   NC328463  38.529  14.138   9.555
 2062POPC   PO428464  38.645  14.829   9.464
 2062POPC   GL128465  38.446  14.502   9.167
 2062POPC   GL228466  38.299  14.213   9.132
 2062POPC   C1A28467  38.605  14.275   8.748
 2062POPC   D2A28468  38.838  14.430   8.400
 2062POPC   C3A28469  38.641  14.480   8.005
 2062POPC   C4A28470  38.868  14.434   7.619
 2062POPC   C1B28471  38.109  14.398   8.803
 2062POPC   C2B28472  38.264  14.464   8.407
 2062POPC   C3B28473  38.107  14.417   7.997
 2062POPC   C4B28474  38.280  14.152   7.699
 2063POPC   NC328475  23.153  40.393   9.445
 2063POPC   PO428476  22.748  39.878   9.576
 2063POPC   GL128477  22.956  39.981   9.195
 2063POPC   GL228478  23.237  39.806   9.201
 2063POPC   C1A28479  22.832  40.108   8.775
 2063POPC   D2A28480  22.657  40.268   8.395
 2063POPC   C3A28481  22.590  39.964   8.053
 2063POPC   C4A28482  22.878  39.934   7.741
 2063POPC   C1B28483  23.324  39.946   8.781
 2063POPC   C2B28484  23.483  39.967   8.358
 2063POPC   C3B28485  23.342  39.879   7.934
 2063POPC   C4B28486  23.318  39.955   7.460
 2064POPC   NC328487   8.192   0.678   9.536
 2064POPC   PO428488   8.301   0.011   9.327
 2064POPC   GL128489   8.269   0.386   9.073
 2064POPC   GL228490   8.027   0.625   9.067
 2064POPC   C1A28491   8.182   0.355   8.646
 2064POPC   D2A28492   8.377   0.200   8.316
 2064POPC   C3A28493   8.130   0.258   7.963
 2064POPC   C4A28494   8.181   0.447   7.588
 2064POPC   C1B28495   7.802   0.672   8.708
 2064POPC   C2B28496   7.899   0.629   8.275
 2064POPC   C3B28497   7.846   0.765   7.845
 2064POPC   C4B28498   7.927   0.849   7.401
 2065POPC   NC328499  43.052  29.752   9.476
 2065POPC   PO428500  43.272  30.431   9.502
 2065POPC   GL128501  43.009  30.208   9.144
 2065POPC   GL228502  42.866  29.845   9.013
 2065POPC   C1A28503  43.060  30.217   8.686
 2065POPC   D2A28504  43.155  30.313   8.250
 2065POPC   C3A28505  43.238  29.969   7.928
 2065POPC   C4A28506  43.189  29.841   7.462
 2065POPC   C1B28507  42.697  29.559   8.660
 2065POPC   C2B28508  42.863  29.442   8.230
 2065POPC   C3B28509  42.967  29.536   7.791
 2065POPC   C4B28510  42.714  29.675   7.412
 2066POPC   NC328511  41.774  19.037   9.311
 2066POPC   PO428512  41.179  18.751   9.584
 2066POPC   GL128513  41.310  18.838   9.139
 2066POPC   GL228514  41.321  19.210   9.057
 2066POPC   C1A28515  41.434  18.882   8.677
 2066POPC   D2A28516  41.225  18.844   8.262
 2066POPC   C3A28517  41.318  19.043   7.865
 2066POPC   C4A28518  41.714  18.892   7.716
 2066POPC   C1B28519  41.625  19.342   8.704
 2066POPC   C2B28520  41.714  19.161   8.306
 2066POPC   C3B28521  41.739  19.362   7.925
 2066POPC   C4B28522  41.640  19.349   7.492
 2067POPC   NC328523  21.799   9.901   9.442
 2067POPC   PO428524  22.335   9.458   9.558
 2067POPC   GL128525  22.217   9.718   9.228
 2067POPC   GL228526  22.342  10.068   9.233
 2067POPC   C1A28527  22.211   9.729   8.804
 2067POPC   D2A28528  22.362   9.781   8.394
 2067POPC   C3A28529  22.040   9.746   8.070
 2067POPC   C4A28530  22.156   9.674   7.666
 2067POPC   C1B28531  22.561  10.139   8.795
 2067POPC   C2B28532  22.527  10.275   8.346
 2067POPC   C3B28533  22.500  10.017   7.959
 2067POPC   C4B28534  22.485  10.035   7.520
 2068POPC   NC328535  16.798  35.665   9.505
 2068POPC   PO428536  16.884  34.984   9.500
 2068POPC   GL128537  16.970  35.262   9.171
 2068POPC   GL228538  16.679  35.351   9.120
 2068POPC   C1A28539  17.039  35.388   8.740
 2068POPC   D2A28540  16.883  35.243   8.348
 2068POPC   C3A28541  17.104  35.185   7.967
 2068POPC   C4A28542  16.979  35.430   7.592
 2068POPC   C1B28543  16.511  35.311   8.730
 2068POPC   C2B28544  16.346  35.235   8.345
 2068POPC   C3B28545  16.530  35.394   7.981
 2068POPC   C4B28546  16.415  35.392   7.546
 2069POPC   NC328547  23.206  44.227   9.454
 2069POPC   PO428548  22.771  44.698   9.554
 2069POPC   GL128549  22.842  44.672   9.095
 2069POPC   GL228550  23.124  44.840   9.033
 2069POPC   C1A28551  22.951  44.613   8.612
 2069POPC   D2A28552  23.081  44.224   8.414
 2069POPC   C3A28553  23.188  44.313   8.009
 2069POPC   C4A28554  23.084  44.662   7.749
 2069POPC   C1B28555  22.849   0.086   8.767
 2069POPC   C2B28556  22.960   0.106   8.319
 2069POPC   C3B28557  22.956   0.134   7.859
 2069POPC   C4B28558  22.709  44.948   7.510
 2070POPC   NC328559  41.020   5.967   9.641
 2070POPC   PO428560  41.062   5.358   9.464
 2070POPC   GL128561  40.895   5.686   9.138
 2070POPC   GL228562  40.971   6.061   9.138
 2070POPC   C1A28563  40.661   5.668   8.745
 2070POPC   D2A28564  40.458   5.485   8.353
 2070POPC   C3A28565  40.583   5.732   7.976
 2070POPC   C4A28566  40.808   6.089   7.773
 2070POPC   C1B28567  40.758   6.178   8.733
 2070POPC   C2B28568  40.674   6.221   8.267
 2070POPC   C3B28569  40.452   6.432   7.893
 2070POPC   C4B28570  40.400   6.276   7.449
 2071POPC   NC328571  42.792  30.499   9.559
 2071POPC   PO428572  43.186  31.103   9.484
 2071POPC   GL128573  43.180  30.886   9.098
 2071POPC   GL228574  43.374  30.575   9.038
 2071POPC   C1A28575  43.019  30.740   8.716
 2071POPC   D2A28576  43.047  30.917   8.324
 2071POPC   C3A28577  43.035  30.690   7.944
 2071POPC   C4A28578  42.845  30.269   7.814
 2071POPC   C1B28579  43.503  30.524   8.616
 2071POPC   C2B28580  43.493  30.687   8.213
 2071POPC   C3B28581  43.507  30.528   7.801
 2071POPC   C4B28582  43.252  30.336   7.536
 2072POPC   NC328583  28.145  28.572   9.515
 2072POPC   PO428584  28.634  28.102   9.613
 2072POPC   GL128585  28.697  28.300   9.195
 2072POPC   GL228586  28.353  28.349   9.086
 2072POPC   C1A28587  28.699  28.447   8.724
 2072POPC   D2A28588  28.352  28.323   8.456
 2072POPC   C3A28589  28.316  28.430   8.052
 2072POPC   C4A28590  28.621  28.559   7.782
 2072POPC   C1B28591  28.024  28.166   8.830
 2072POPC   C2B28592  27.858  28.178   8.410
 2072POPC   C3B28593  27.840  28.301   7.977
 2072POPC   C4B28594  28.079  28.257   7.591
 2073POPC   NC328595   4.461   2.528   9.481
 2073POPC   PO428596   4.394   3.213   9.452
 2073POPC   GL128597   4.522   2.915   9.131
 2073POPC   GL228598   4.210   2.801   9.137
 2073POPC   C1A28599   4.525   2.551   8.811
 2073POPC   D2A28600   4.397   2.299   8.449
 2073POPC   C3A28601   4.449   2.472   8.026
 2073POPC   C4A28602   4.399   2.669   7.601
 2073POPC   C1B28603   4.021   2.586   8.809
 2073POPC   C2B28604   3.983   2.627   8.378
 2073POPC   C3B28605   4.014   2.711   7.951
 2073POPC   C4B28606   3.840   2.704   7.562
 2074POPC   NC328607  11.244  11.814   9.499
 2074POPC   PO428608  11.488  12.465   9.515
 2074POPC   GL128609  11.551  12.140   9.194
 2074POPC   GL228610  11.206  12.163   9.088
 2074POPC   C1A28611  11.530  11.964   8.758
 2074POPC   D2A28612  11.483  12.213   8.396
 2074POPC   C3A28613  11.414  11.948   8.060
 2074POPC   C4A28614  11.477  12.062   7.674
 2074POPC   C1B28615  11.056  12.267   8.689
 2074POPC   C2B28616  10.998  12.109   8.301
 2074POPC   C3B28617  10.981  12.201   7.875
 2074POPC   C4B28618  10.925  12.019   7.507
 2075POPC   NC328619  10.536  16.357   9.721
 2075POPC   PO428620  10.687  17.027   9.764
 2075POPC   GL128621  10.471  16.845   9.333
 2075POPC   GL228622  10.531  16.486   9.185
 2075POPC   C1A28623  10.396  16.849   8.847
 2075POPC   D2A28624  10.632  16.953   8.450
 2075POPC   C3A28625  10.496  17.079   8.023
 2075POPC   C4A28626  10.588  16.895   7.605
 2075POPC   C1B28627  10.221  16.375   8.817
 2075POPC   C2B28628  10.213  16.447   8.391
 2075POPC   C3B28629  10.201  16.280   7.992
 2075POPC   C4B28630  10.187  16.544   7.654
 2076POPC   NC328631   0.565   4.559   9.714
 2076POPC   PO428632   0.246   4.091   9.388
 2076POPC   GL128633   0.478   4.394   9.229
 2076POPC   GL228634   0.256   4.641   9.226
 2076POPC   C1A28635   0.689   4.421   8.862
 2076POPC   D2A28636   0.599   4.475   8.452
 2076POPC   C3A28637   0.725   4.133   8.191
 2076POPC   C4A28638   0.890   4.219   7.819
 2076POPC   C1B28639   0.166   4.493   8.818
 2076POPC   C2B28640   0.096   4.610   8.434
 2076POPC   C3B28641   0.231   4.679   8.064
 2076POPC   C4B28642   0.417   4.374   7.858
 2077POPC   NC328643  29.716  39.395   9.501
 2077POPC   PO428644  30.093  38.877   9.557
 2077POPC   GL128645  29.956  39.147   9.139
 2077POPC   GL228646  29.925  39.537   9.071
 2077POPC   C1A28647  29.847  39.180   8.717
 2077POPC   D2A28648  29.784  39.036   8.337
 2077POPC   C3A28649  30.017  38.868   8.024
 2077POPC   C4A28650  29.976  38.986   7.638
 2077POPC   C1B28651  30.239  39.493   8.786
 2077POPC   C2B28652  30.277  39.262   8.415
 2077POPC   C3B28653  30.135  39.383   8.029
 2077POPC   C4B28654  30.046  39.512   7.611
 2078POPC   NC328655  34.609  16.227   9.487
 2078POPC   PO428656  34.433  15.550   9.491
 2078POPC   GL128657  34.598  15.764   9.169
 2078POPC   GL228658  34.640  16.068   9.023
 2078POPC   C1A28659  34.304  15.718   8.836
 2078POPC   D2A28660  34.184  15.735   8.451
 2078POPC   C3A28661  34.337  16.075   8.196
 2078POPC   C4A28662  34.604  16.059   7.861
 2078POPC   C1B28663  34.581  16.119   8.630
 2078POPC   C2B28664  34.880  16.202   8.298
 2078POPC   C3B28665  34.923  16.438   7.972
 2078POPC   C4B28666  34.591  16.580   7.747
 2079POPC   NC328667  43.370  41.890   9.385
 2079POPC   PO428668  43.336  41.201   9.414
 2079POPC   GL128669  43.238  41.494   9.092
 2079POPC   GL228670  43.563  41.654   8.980
 2079POPC   C1A28671  43.135  41.520   8.668
 2079POPC   D2A28672  43.188  41.273   8.301
 2079POPC   C3A28673  42.827  41.329   8.079
 2079POPC   C4A28674  42.834  41.605   7.743
 2079POPC   C1B28675  43.513  41.871   8.602
 2079POPC   C2B28676  43.329  41.782   8.234
 2079POPC   C3B28677  43.289  41.851   7.826
 2079POPC   C4B28678  43.317  41.644   7.439
 2080POPC   NC328679  22.994  32.324   9.759
 2080POPC   PO428680  23.755  32.267   9.598
 2080POPC   GL128681  23.533  32.201   9.212
 2080POPC   GL228682  23.553  31.871   9.191
 2080POPC   C1A28683  23.597  32.325   8.786
 2080POPC   D2A28684  23.891  32.323   8.424
 2080POPC   C3A28685  23.672  32.446   8.059
 2080POPC   C4A28686  23.810  32.450   7.649
 2080POPC   C1B28687  23.726  31.803   8.794
 2080POPC   C2B28688  23.685  31.861   8.369
 2080POPC   C3B28689  23.868  31.965   7.979
 2080POPC   C4B28690  23.580  31.989   7.677
 2081POPC   NC328691   7.040  17.526   9.431
 2081POPC   PO428692   7.602  17.154   9.524
 2081POPC   GL128693   7.455  17.360   9.139
 2081POPC   GL228694   7.630  17.654   9.014
 2081POPC   C1A28695   7.343  17.333   8.694
 2081POPC   D2A28696   7.524  17.171   8.322
 2081POPC   C3A28697   7.442  17.383   7.925
 2081POPC   C4A28698   7.301  17.501   7.507
 2081POPC   C1B28699   7.360  17.833   8.711
 2081POPC   C2B28700   7.442  17.769   8.271
 2081POPC   C3B28701   7.262  17.899   7.869
 2081POPC   C4B28702   7.255  17.997   7.399
 2082POPC   NC328703  15.466  21.271   9.522
 2082POPC   PO428704  14.904  21.463   9.480
 2082POPC   GL128705  15.115  21.428   9.144
 2082POPC   GL228706  15.370  21.654   9.183
 2082POPC   C1A28707  15.038  21.298   8.734
 2082POPC   D2A28708  15.027  21.533   8.347
 2082POPC   C3A28709  14.899  21.290   8.007
 2082POPC   C4A28710  15.045  21.087   7.654
 2082POPC   C1B28711  15.517  21.448   8.819
 2082POPC   C2B28712  15.462  21.183   8.468
 2082POPC   C3B28713  15.461  21.165   8.035
 2082POPC   C4B28714  15.408  21.440   7.723
 2083POPC   NC328715   2.848  11.731   9.487
 2083POPC   PO428716   2.389  12.226   9.587
 2083POPC   GL128717   2.540  12.108   9.220
 2083POPC   GL228718   2.450  11.759   9.167
 2083POPC   C1A28719   2.725  12.352   8.902
 2083POPC   D2A28720   2.954  12.338   8.542
 2083POPC   C3A28721   2.823  12.095   8.193
 2083POPC   C4A28722   2.844  12.146   7.728
 2083POPC   C1B28723   2.565  11.883   8.741
 2083POPC   C2B28724   2.417  11.791   8.317
 2083POPC   C3B28725   2.600  11.722   7.906
 2083POPC   C4B28726   2.690  11.697   7.450
 2084POPC   NC328727  27.385   9.962   9.594
 2084POPC   PO428728  27.737   9.428   9.646
 2084POPC   GL128729  27.739   9.676   9.260
 2084POPC   GL228730  27.733  10.043   9.220
 2084POPC   C1A28731  27.754   9.668   8.810
 2084POPC   D2A28732  27.906   9.560   8.367
 2084POPC   C3A28733  27.852   9.835   7.959
 2084POPC   C4A28734  27.874   9.798   7.481
 2084POPC   C1B28735  27.496  10.120   8.826
 2084POPC   C2B28736  27.535   9.915   8.407
 2084POPC   C3B28737  27.363   9.692   8.052
 2084POPC   C4B28738  27.396   9.752   7.619
 2085POPC   NC328739  25.167  32.667   9.514
 2085POPC   PO428740  25.326  33.356   9.548
 2085POPC   GL128741  25.438  33.036   9.257
 2085POPC   GL228742  25.100  33.051   9.155
 2085POPC   C1A28743  25.453  32.963   8.817
 2085POPC   D2A28744  25.080  33.044   8.546
 2085POPC   C3A28745  25.226  33.176   8.163
 2085POPC   C4A28746  25.222  33.020   7.739
 2085POPC   C1B28747  24.995  32.674   8.904
 2085POPC   C2B28748  24.920  32.554   8.498
 2085POPC   C3B28749  24.934  32.751   8.103
 2085POPC   C4B28750  24.832  32.581   7.690
 2086POPC   NC328751  44.103  22.693   9.457
 2086POPC   PO428752  43.913  23.253   9.728
 2086POPC   GL128753  43.878  23.058   9.190
 2086POPC   GL228754  43.721  22.680   9.112
 2086POPC   C1A28755  43.588  22.997   8.734
 2086POPC   D2A28756  43.661  22.679   8.382
 2086POPC   C3A28757  43.825  22.891   8.024
 2086POPC   C4A28758  43.652  23.259   7.841
 2086POPC   C1B28759  44.023  22.790   8.747
 2086POPC   C2B28760  44.036  23.211   8.537
 2086POPC   C3B28761  44.046  23.393   8.115
 2086POPC   C4B28762  44.178  23.264   7.711
 2087POPC   NC328763  32.394  18.355   9.598
 2087POPC   PO428764  32.331  17.806   9.307
 2087POPC   GL128765  32.115  18.030   9.035
 2087POPC   GL228766  32.099  18.354   9.169
 2087POPC   C1A28767  32.208  17.983   8.608
 2087POPC   D2A28768  31.874  17.845   8.350
 2087POPC   C3A28769  31.909  18.181   8.091
 2087POPC   C4A28770  32.163  18.144   7.736
 2087POPC   C1B28771  32.281  18.464   8.816
 2087POPC   C2B28772  32.173  18.510   8.393
 2087POPC   C3B28773  32.281  18.630   7.973
 2087POPC   C4B28774  32.324  18.581   7.538
 2088POPC   NC328775  10.861  42.125   9.547
 2088POPC   PO428776  10.208  41.949   9.484
 2088POPC   GL128777  10.299  42.287   9.144
 2088POPC   GL228778  10.646  42.409   9.184
 2088POPC   C1A28779  10.452  42.306   8.685
 2088POPC   D2A28780  10.580  41.976   8.342
 2088POPC   C3A28781  10.614  42.139   7.947
 2088POPC   C4A28782  10.225  42.243   7.731
 2088POPC   C1B28783  10.828  42.675   8.869
 2088POPC   C2B28784  10.860  42.648   8.433
 2088POPC   C3B28785  10.684  42.657   8.017
 2088POPC   C4B28786  10.779  42.513   7.594
 2089POPC   NC328787  25.633  30.040   9.751
 2089POPC   PO428788  25.053  30.052   9.501
 2089POPC   GL128789  25.353  29.890   9.197
 2089POPC   GL228790  25.521  30.181   9.061
 2089POPC   C1A28791  25.354  29.726   8.768
 2089POPC   D2A28792  25.492  29.851   8.354
 2089POPC   C3A28793  25.179  29.701   8.090
 2089POPC   C4A28794  25.161  29.670   7.675
 2089POPC   C1B28795  25.411  30.238   8.684
 2089POPC   C2B28796  25.078  30.175   8.400
 2089POPC   C3B28797  25.135  30.204   7.987
 2089POPC   C4B28798  25.526  30.012   7.822
 2090POPC   NC328799  42.005   3.763   9.695
 2090POPC   PO428800  42.363   3.262   9.399
 2090POPC   GL128801  42.239   3.542   9.145
 2090POPC   GL228802  42.321   3.854   9.290
 2090POPC   C1A28803  42.214   3.494   8.713
 2090POPC   D2A28804  42.386   3.397   8.315
 2090POPC   C3A28805  42.213   3.393   7.913
 2090POPC   C4A28806  42.506   3.164   7.653
 2090POPC   C1B28807  42.214   3.988   8.858
 2090POPC   C2B28808  42.374   3.912   8.436
 2090POPC   C3B28809  42.191   3.930   8.041
 2090POPC   C4B28810  42.211   3.833   7.654
 2091POPC   NC328811   2.782  38.769   9.485
 2091POPC   PO428812   2.326  38.196   9.533
 2091POPC   GL128813   2.576  38.365   9.151
 2091POPC   GL228814   2.554  38.698   9.034
 2091POPC   C1A28815   2.650  38.296   8.720
 2091POPC   D2A28816   2.897  38.307   8.342
 2091POPC   C3A28817   2.588  38.329   8.000
 2091POPC   C4A28818   2.599  38.457   7.575
 2091POPC   C1B28819   2.909  38.767   8.729
 2091POPC   C2B28820   3.063  38.785   8.311
 2091POPC   C3B28821   3.001  38.619   7.895
 2091POPC   C4B28822   3.009  38.784   7.477
 2092POPC   NC328823  16.264  37.226   9.376
 2092POPC   PO428824  15.851  36.641   9.516
 2092POPC   GL128825  16.011  36.803   9.147
 2092POPC   GL228826  15.998  36.470   9.066
 2092POPC   C1A28827  16.074  37.038   8.745
 2092POPC   D2A28828  16.000  37.265   8.366
 2092POPC   C3A28829  16.101  37.035   8.024
 2092POPC   C4A28830  16.006  36.992   7.609
 2092POPC   C1B28831  15.849  36.569   8.694
 2092POPC   C2B28832  16.018  36.590   8.312
 2092POPC   C3B28833  15.868  36.579   7.907
 2092POPC   C4B28834  15.848  36.450   7.461
 2093POPC   NC328835   5.956  12.682   9.443
 2093POPC   PO428836   5.638  13.265   9.363
 2093POPC   GL128837   5.965  13.098   9.070
 2093POPC   GL228838   5.908  12.782   8.958
 2093POPC   C1A28839   6.001  13.253   8.669
 2093POPC   D2A28840   5.814  13.232   8.275
 2093POPC   C3A28841   6.012  13.152   7.912
 2093POPC   C4A28842   5.738  12.896   7.722
 2093POPC   C1B28843   5.813  12.612   8.587
 2093POPC   C2B28844   5.886  12.701   8.187
 2093POPC   C3B28845   5.921  12.449   7.854
 2093POPC   C4B28846   5.475  12.463   7.701
 2094POPC   NC328847  11.483  37.156   9.535
 2094POPC   PO428848  10.990  36.828   9.530
 2094POPC   GL128849  11.173  36.781   9.162
 2094POPC   GL228850  11.507  36.689   9.281
 2094POPC   C1A28851  11.168  36.610   8.727
 2094POPC   D2A28852  11.000  36.647   8.335
 2094POPC   C3A28853  11.120  36.915   8.000
 2094POPC   C4A28854  11.454  36.886   7.683
 2094POPC   C1B28855  11.559  36.920   8.866
 2094POPC   C2B28856  11.382  36.998   8.446
 2094POPC   C3B28857  11.465  37.262   8.092
 2094POPC   C4B28858  11.578  37.425   7.718
 2095POPC   NC328859  35.593   4.695   9.431
 2095POPC   PO428860  36.253   5.036   9.518
 2095POPC   GL128861  36.165   5.213   9.128
 2095POPC   GL228862  36.483   5.239   9.049
 2095POPC   C1A28863  36.199   5.176   8.656
 2095POPC   D2A28864  36.022   5.057   8.315
 2095POPC   C3A28865  36.089   5.325   8.030
 2095POPC   C4A28866  36.096   5.230   7.658
 2095POPC   C1B28867  36.431   4.782   8.896
 2095POPC   C2B28868  36.445   4.753   8.443
 2095POPC   C3B28869  36.469   4.975   8.052
 2095POPC   C4B28870  36.597   5.306   7.769
 2096POPC   NC328871   1.172  16.568   9.502
 2096POPC   PO428872   1.674  16.787   9.305
 2096POPC   GL128873   1.365  16.706   9.029
 2096POPC   GL228874   1.293  16.366   9.050
 2096POPC   C1A28875   1.205  16.673   8.621
 2096POPC   D2A28876   1.003  16.932   8.353
 2096POPC   C3A28877   1.203  17.022   8.002
 2096POPC   C4A28878   1.272  16.934   7.622
 2096POPC   C1B28879   0.868  16.390   8.882
 2096POPC   C2B28880   0.773  16.460   8.452
 2096POPC   C3B28881   1.076  16.500   8.105
 2096POPC   C4B28882   0.991  16.514   7.687
 2097POPC   NC328883  32.082  35.349   9.310
 2097POPC   PO428884  32.616  35.444   9.656
 2097POPC   GL128885  32.585  35.198   9.185
 2097POPC   GL228886  32.311  34.945   9.113
 2097POPC   C1A28887  32.477  35.222   8.710
 2097POPC   D2A28888  32.441  35.530   8.371
 2097POPC   C3A28889  32.213  35.393   8.040
 2097POPC   C4A28890  32.179  35.592   7.655
 2097POPC   C1B28891  32.059  34.893   8.746
 2097POPC   C2B28892  32.158  34.934   8.317
 2097POPC   C3B28893  32.178  34.901   7.854
 2097POPC   C4B28894  32.165  35.144   7.435
 2098POPC   NC328895  31.796  32.775   9.634
 2098POPC   PO428896  31.217  32.918   9.909
 2098POPC   GL128897  31.303  32.924   9.451
 2098POPC   GL228898  31.165  33.243   9.336
 2098POPC   C1A28899  31.552  32.983   9.035
 2098POPC   D2A28900  31.580  33.168   8.600
 2098POPC   C3A28901  31.480  33.066   8.172
 2098POPC   C4A28902  31.730  33.052   7.817
 2098POPC   C1B28903  31.151  33.265   8.867
 2098POPC   C2B28904  31.085  33.306   8.398
 2098POPC   C3B28905  31.031  33.153   7.962
 2098POPC   C4B28906  31.250  32.940   7.653
 2099POPC   NC328907  13.651   3.832   9.586
 2099POPC   PO428908  13.533   4.445   9.593
 2099POPC   GL128909  13.878   4.254   9.344
 2099POPC   GL228910  13.658   4.082   9.144
 2099POPC   C1A28911  14.043   4.362   8.922
 2099POPC   D2A28912  14.037   4.585   8.504
 2099POPC   C3A28913  13.941   4.395   8.074
 2099POPC   C4A28914  13.749   4.545   7.703
 2099POPC   C1B28915  13.576   4.276   8.755
 2099POPC   C2B28916  13.693   4.070   8.392
 2099POPC   C3B28917  13.538   3.902   8.053
 2099POPC   C4B28918  13.655   4.047   7.676
 2100POPC   NC328919  10.650   8.732   9.771
 2100POPC   PO428920  10.202   9.181   9.525
 2100POPC   GL128921  10.332   8.996   9.141
 2100POPC   GL228922  10.591   8.788   9.242
 2100POPC   C1A28923  10.237   8.964   8.743
 2100POPC   D2A28924  10.421   8.826   8.422
 2100POPC   C3A28925  10.331   9.016   8.058
 2100POPC   C4A28926  10.449   8.888   7.677
 2100POPC   C1B28927  10.753   8.868   8.806
 2100POPC   C2B28928  10.893   8.653   8.417
 2100POPC   C3B28929  10.855   8.696   7.973
 2100POPC   C4B28930  10.963   9.025   7.695
 2101POPC   NC328931  16.678  30.481   9.562
 2101POPC   PO428932  16.381  31.013   9.492
 2101POPC   GL128933  16.719  30.916   9.194
 2101POPC   GL228934  17.031  31.147   9.151
 2101POPC   C1A28935  16.890  30.657   8.850
 2101POPC   D2A28936  16.757  30.393   8.495
 2101POPC   C3A28937  16.821  30.521   8.085
 2101POPC   C4A28938  16.658  30.628   7.699
 2101POPC   C1B28939  16.777  31.164   8.763
 2101POPC   C2B28940  16.702  30.906   8.399
 2101POPC   C3B28941  16.844  31.037   7.973
 2101POPC   C4B28942  16.887  31.046   7.515
 2102POPC   NC328943  42.951   0.765   9.487
 2102POPC   PO428944  43.060   0.107   9.437
 2102POPC   GL128945  43.049   0.387   9.071
 2102POPC   GL228946  43.232   0.708   9.053
 2102POPC   C1A28947  43.114   0.463   8.606
 2102POPC   D2A28948  43.411   0.579   8.275
 2102POPC   C3A28949  43.221   0.326   7.999
 2102POPC   C4A28950  42.865   0.292   7.724
 2102POPC   C1B28951  42.816   0.813   8.839
 2102POPC   C2B28952  42.639   0.789   8.429
 2102POPC   C3B28953  42.834   0.695   8.047
 2102POPC   C4B28954  43.190   0.780   7.772
 2103POPC   NC328955  37.791  34.790   9.511
 2103POPC   PO428956  37.587  34.177   9.688
 2103POPC   GL128957  37.495  34.396   9.263
 2103POPC   GL228958  37.423  34.753   9.149
 2103POPC   C1A28959  37.717  34.473   8.865
 2103POPC   D2A28960  37.900  34.648   8.499
 2103POPC   C3A28961  37.671  34.702   8.110
 2103POPC   C4A28962  37.593  34.517   7.720
 2103POPC   C1B28963  37.677  35.008   8.845
 2103POPC   C2B28964  37.710  35.134   8.401
 2103POPC   C3B28965  37.853  35.135   7.950
 2103POPC   C4B28966  37.857  34.909   7.544
 2104POPC   NC328967  30.906  33.931   9.605
 2104POPC   PO428968  30.446  33.480   9.610
 2104POPC   GL128969  30.575  33.709   9.233
 2104POPC   GL228970  30.872  33.618   9.123
 2104POPC   C1A28971  30.473  33.758   8.776
 2104POPC   D2A28972  30.262  33.663   8.372
 2104POPC   C3A28973  30.414  33.724   7.943
 2104POPC   C4A28974  30.667  34.007   7.671
 2104POPC   C1B28975  30.962  33.709   8.698
 2104POPC   C2B28976  30.802  33.728   8.287
 2104POPC   C3B28977  30.922  33.630   7.858
 2104POPC   C4B28978  31.107  33.801   7.453
 2105POPC   NC328979  24.464  23.574   9.502
 2105POPC   PO428980  24.843  24.044   9.527
 2105POPC   GL128981  24.466  23.939   9.147
 2105POPC   GL228982  24.205  23.625   9.078
 2105POPC   C1A28983  24.404  23.864   8.695
 2105POPC   D2A28984  24.661  23.991   8.377
 2105POPC   C3A28985  24.391  23.938   8.060
 2105POPC   C4A28986  24.529  23.768   7.709
 2105POPC   C1B28987  24.274  23.358   8.728
 2105POPC   C2B28988  24.409  23.476   8.331
 2105POPC   C3B28989  24.184  23.465   7.970
 2105POPC   C4B28990  24.034  23.766   7.682
 2106POPC   NC328991  26.582   1.374   9.421
 2106POPC   PO428992  27.154   1.458   9.502
 2106POPC   GL128993  26.977   1.280   9.118
 2106POPC   GL228994  26.879   0.943   9.160
 2106POPC   C1A28995  26.715   1.415   8.756
 2106POPC   D2A28996  26.708   1.692   8.391
 2106POPC   C3A28997  26.734   1.480   8.011
 2106POPC   C4A28998  26.858   1.298   7.656
 2106POPC   C1B28999  26.857   0.914   8.697
 2106POPC   C2B29000  26.599   1.111   8.341
 2106POPC   C3B29001  26.528   0.975   7.893
 2106POPC   C4B29002  26.902   0.815   7.609
 2107POPC   NC329003   8.718   1.064   9.604
 2107POPC   PO429004   8.765   1.633   9.435
 2107POPC   GL129005   8.892   1.264   9.162
 2107POPC   GL229006   9.000   0.913   9.171
 2107POPC   C1A29007   8.997   1.347   8.707
 2107POPC   D2A29008   8.941   1.620   8.386
 2107POPC   C3A29009   9.041   1.362   8.077
 2107POPC   C4A29010   9.133   1.393   7.657
 2107POPC   C1B29011   8.836   0.870   8.783
 2107POPC   C2B29012   8.999   0.902   8.378
 2107POPC   C3B29013   9.179   0.895   7.965
 2107POPC   C4B29014   8.861   0.963   7.710
 2108POPC   NC329015   6.191  41.400   9.377
 2108POPC   PO429016   5.543  41.717   9.553
 2108POPC   GL129017   5.789  41.697   9.210
 2108POPC   GL229018   5.728  41.351   9.160
 2108POPC   C1A29019   5.997  41.698   8.813
 2108POPC   D2A29020   5.894  41.544   8.407
 2108POPC   C3A29021   5.775  41.797   8.061
 2108POPC   C4A29022   6.008  41.633   7.754
 2108POPC   C1B29023   5.644  41.257   8.750
 2108POPC   C2B29024   5.508  41.114   8.360
 2108POPC   C3B29025   5.655  41.293   7.988
 2108POPC   C4B29026   5.440  41.548   7.745
 2109POPC   NC329027  14.253   6.422   9.535
 2109POPC   PO429028  14.517   6.970   9.406
 2109POPC   GL129029  14.381   6.751   9.122
 2109POPC   GL229030  14.575   6.469   9.137
 2109POPC   C1A29031  14.051   6.697   8.854
 2109POPC   D2A29032  14.028   6.507   8.440
 2109POPC   C3A29033  14.245   6.705   8.085
 2109POPC   C4A29034  14.260   6.860   7.650
 2109POPC   C1B29035  14.496   6.504   8.687
 2109POPC   C2B29036  14.657   6.268   8.343
 2109POPC   C3B29037  14.580   6.337   7.922
 2109POPC   C4B29038  14.736   6.737   7.773
 2110POPC   NC329039  39.618  22.261   9.794
 2110POPC   PO429040  39.119  22.366   9.316
 2110POPC   GL129041  39.302  22.178   8.996
 2110POPC   GL229042  39.485  22.448   8.852
 2110POPC   C1A29043  39.120  22.158   8.626
 2110POPC   D2A29044  38.845  22.293   8.341
 2110POPC   C3A29045  39.009  22.231   7.946
 2110POPC   C4A29046  39.103  21.859   7.803
 2110POPC   C1B29047  39.609  22.267   8.511
 2110POPC   C2B29048  39.451  22.098   8.174
 2110POPC   C3B29049  39.536  22.126   7.757
 2110POPC   C4B29050  39.330  22.432   7.561
 2111POPC   NC329051  33.899   3.944   9.551
 2111POPC   PO429052  33.521   4.416   9.811
 2111POPC   GL129053  33.507   4.407   9.293
 2111POPC   GL229054  33.597   4.085   9.168
 2111POPC   C1A29055  33.488   4.625   8.846
 2111POPC   D2A29056  33.771   4.642   8.432
 2111POPC   C3A29057  33.582   4.610   8.027
 2111POPC   C4A29058  33.691   4.423   7.644
 2111POPC   C1B29059  33.799   4.225   8.765
 2111POPC   C2B29060  33.759   4.143   8.305
 2111POPC   C3B29061  33.497   4.086   7.955
 2111POPC   C4B29062  33.479   3.970   7.515
 2112POPC   NC329063  39.324  20.476   9.642
 2112POPC   PO429064  39.219  19.756   9.454
 2112POPC   GL129065  39.192  19.948   9.081
 2112POPC   GL229066  39.103  20.255   9.212
 2112POPC   C1A29067  39.382  19.887   8.677
 2112POPC   D2A29068  39.615  19.878   8.302
 2112POPC   C3A29069  39.340  19.970   7.982
 2112POPC   C4A29070  39.243  19.659   7.720
 2112POPC   C1B29071  38.947  20.316   8.814
 2112POPC   C2B29072  39.095  20.363   8.406
 2112POPC   C3B29073  38.909  20.305   7.987
 2112POPC   C4B29074  38.978  20.053   7.583
 2113POPC   NC329075  40.465   9.544   9.415
 2113POPC   PO429076  39.972   9.866   9.535
 2113POPC   GL129077  40.159   9.981   9.099
 2113POPC   GL229078  40.418   9.758   8.967
 2113POPC   C1A29079  40.054  10.276   8.753
 2113POPC   D2A29080  39.872  10.110   8.381
 2113POPC   C3A29081  40.033   9.801   8.096
 2113POPC   C4A29082  39.973   9.682   7.662
 2113POPC   C1B29083  40.133   9.718   8.618
 2113POPC   C2B29084  40.063   9.339   8.321
 2113POPC   C3B29085  39.810   9.274   7.943
 2113POPC   C4B29086  39.530   9.421   7.595
 2114POPC   NC329087  40.355  19.264   9.501
 2114POPC   PO429088  39.706  18.886   9.523
 2114POPC   GL129089  40.019  18.979   9.240
 2114POPC   GL229090  40.032  19.312   9.098
 2114POPC   C1A29091  40.114  18.862   8.856
 2114POPC   D2A29092  40.163  19.172   8.572
 2114POPC   C3A29093  40.313  19.066   8.172
 2114POPC   C4A29094  40.363  19.086   7.746
 2114POPC   C1B29095  39.672  19.123   8.882
 2114POPC   C2B29096  39.590  19.130   8.443
 2114POPC   C3B29097  39.801  19.084   8.075
 2114POPC   C4B29098  39.777  18.938   7.698
 2115POPC   NC329099  13.177   9.757   9.587
 2115POPC   PO429100  13.700  10.095   9.580
 2115POPC   GL129101  13.691   9.827   9.189
 2115POPC   GL229102  13.354   9.669   9.130
 2115POPC   C1A29103  13.543   9.918   8.757
 2115POPC   D2A29104  13.588   9.703   8.381
 2115POPC   C3A29105  13.931   9.858   8.192
 2115POPC   C4A29106  13.801  10.140   7.876
 2115POPC   C1B29107  13.148   9.605   8.724
 2115POPC   C2B29108  13.080   9.604   8.277
 2115POPC   C3B29109  13.273   9.705   7.886
 2115POPC   C4B29110  13.175   9.506   7.472
 2116POPC   NC329111  36.766  42.105   9.330
 2116POPC   PO429112  37.364  41.827   9.148
 2116POPC   GL129113  37.159  42.006   8.815
 2116POPC   GL229114  36.935  42.298   8.882
 2116POPC   C1A29115  37.236  42.205   8.448
 2116POPC   D2A29116  36.940  42.499   8.397
 2116POPC   C3A29117  36.622  42.201   8.254
 2116POPC   C4A29118  36.677  42.183   7.811
 2116POPC   C1B29119  36.522  42.439   8.697
 2116POPC   C2B29120  36.361  42.688   8.387
 2116POPC   C3B29121  36.618  42.637   8.015
 2116POPC   C4B29122  36.472  42.613   7.606
 2117POPC   NC329123  21.268   5.267   9.472
 2117POPC   PO429124  21.665   4.692   9.513
 2117POPC   GL129125  21.411   4.881   9.186
 2117POPC   GL229126  21.127   4.754   9.097
 2117POPC   C1A29127  21.447   5.098   8.818
 2117POPC   D2A29128  21.763   5.229   8.510
 2117POPC   C3A29129  21.563   5.244   8.116
 2117POPC   C4A29130  21.566   5.058   7.680
 2117POPC   C1B29131  20.986   4.875   8.707
 2117POPC   C2B29132  21.058   5.101   8.343
 2117POPC   C3B29133  21.174   4.946   7.959
 2117POPC   C4B29134  21.107   5.136   7.524
 2118POPC   NC329135  33.052  15.858   9.505
 2118POPC   PO429136  33.467  15.336   9.349
 2118POPC   GL129137  33.347  15.751   9.092
 2118POPC   GL229138  33.281  16.150   9.081
 2118POPC   C1A29139  32.960  15.857   8.847
 2118POPC   D2A29140  32.725  15.820   8.506
 2118POPC   C3A29141  32.862  16.042   8.142
 2118POPC   C4A29142  32.881  16.047   7.722
 2118POPC   C1B29143  33.400  16.124   8.651
 2118POPC   C2B29144  33.407  16.112   8.177
 2118POPC   C3B29145  33.375  16.158   7.720
 2118POPC   C4B29146  33.543  16.151   7.262
 2119POPC   NC329147  22.331  43.896   9.444
 2119POPC   PO429148  21.765  43.630   9.327
 2119POPC   GL129149  22.130  43.589   9.044
 2119POPC   GL229150  22.519  43.728   9.006
 2119POPC   C1A29151  21.846  43.674   8.679
 2119POPC   D2A29152  21.542  43.609   8.360
 2119POPC   C3A29153  21.785  43.845   8.054
 2119POPC   C4A29154  22.117  43.734   7.783
 2119POPC   C1B29155  22.248  44.008   8.781
 2119POPC   C2B29156  22.178  43.924   8.372
 2119POPC   C3B29157  22.387  44.072   8.045
 2119POPC   C4B29158  22.193  44.237   7.722
 2120POPC   NC329159  11.073  29.640   9.449
 2120POPC   PO429160  10.552  30.002   9.475
 2120POPC   GL129161  10.367  29.845   9.108
 2120POPC   GL229162  10.203  30.167   9.079
 2120POPC   C1A29163  10.228  29.512   8.794
 2120POPC   D2A29164  10.425  29.468   8.382
 2120POPC   C3A29165  10.257  29.628   7.991
 2120POPC   C4A29166  10.362  29.748   7.549
 2120POPC   C1B29167  10.239  30.018   8.650
 2120POPC   C2B29168  10.276  30.180   8.237
 2120POPC   C3B29169  10.529  30.090   7.883
 2120POPC   C4B29170  10.564  30.221   7.441
 2121POPC   NC329171  18.554  26.924   9.612
 2121POPC   PO429172  18.192  26.463   9.342
 2121POPC   GL129173  18.318  26.803   9.168
 2121POPC   GL229174  18.054  26.971   9.366
 2121POPC   C1A29175  18.385  26.811   8.745
 2121POPC   D2A29176  18.165  26.756   8.391
 2121POPC   C3A29177  18.360  26.658   8.031
 2121POPC   C4A29178  18.562  26.842   7.740
 2121POPC   C1B29179  18.016  27.152   8.957
 2121POPC   C2B29180  18.063  27.239   8.531
 2121POPC   C3B29181  17.991  27.127   8.084
 2121POPC   C4B29182  18.154  27.164   7.659
 2122POPC   NC329183  15.646  11.328   9.781
 2122POPC   PO429184  15.255  11.668   9.438
 2122POPC   GL129185  15.317  11.401   9.113
 2122POPC   GL229186  15.053  11.153   9.152
 2122POPC   C1A29187  15.314  11.257   8.687
 2122POPC   D2A29188  15.337  11.060   8.252
 2122POPC   C3A29189  15.402  11.333   7.856
 2122POPC   C4A29190  15.529  11.522   7.434
 2122POPC   C1B29191  14.844  11.501   8.925
 2122POPC   C2B29192  14.850  11.551   8.511
 2122POPC   C3B29193  14.830  11.220   8.228
 2122POPC   C4B29194  14.928  11.137   7.813
 2123POPC   NC329195  41.290  38.989   9.436
 2123POPC   PO429196  41.901  39.410   9.509
 2123POPC   GL129197  41.819  39.427   9.075
 2123POPC   GL229198  41.642  39.096   9.065
 2123POPC   C1A29199  41.765  39.393   8.630
 2123POPC   D2A29200  41.527  39.030   8.470
 2123POPC   C3A29201  41.478  39.035   8.034
 2123POPC   C4A29202  41.613  39.349   7.741
 2123POPC   C1B29203  41.310  39.339   8.848
 2123POPC   C2B29204  41.307  39.637   8.482
 2123POPC   C3B29205  41.261  39.514   8.059
 2123POPC   C4B29206  41.108  39.238   7.739
 2124POPC   NC329207  19.267   3.370   9.491
 2124POPC   PO429208  18.627   3.661   9.434
 2124POPC   GL129209  18.893   3.394   9.116
 2124POPC   GL229210  19.198   3.151   9.054
 2124POPC   C1A29211  19.180   3.575   8.778
 2124POPC   D2A29212  18.969   3.664   8.386
 2124POPC   C3A29213  19.190   3.783   8.011
 2124POPC   C4A29214  18.873   3.701   7.752
 2124POPC   C1B29215  18.986   3.137   8.656
 2124POPC   C2B29216  19.256   3.268   8.316
 2124POPC   C3B29217  19.117   3.279   7.909
 2124POPC   C4B29218  19.304   3.191   7.533
 2125POPC   NC329219   7.971   5.495   9.485
 2125POPC   PO429220   8.328   6.048   9.472
 2125POPC   GL129221   8.142   5.832   9.135
 2125POPC   GL229222   7.997   6.118   9.047
 2125POPC   C1A29223   8.096   5.544   8.787
 2125POPC   D2A29224   8.255   5.534   8.388
 2125POPC   C3A29225   8.069   5.787   8.105
 2125POPC   C4A29226   8.282   6.059   7.855
 2125POPC   C1B29227   7.999   6.003   8.597
 2125POPC   C2B29228   7.958   6.271   8.238
 2125POPC   C3B29229   7.834   6.293   7.815
 2125POPC   C4B29230   7.993   6.264   7.405
 2126POPC   NC329231  18.072  32.442   9.599
 2126POPC   PO429232  18.653  32.160   9.655
 2126POPC   GL129233  18.489  32.300   9.286
 2126POPC   GL229234  18.411  31.962   9.192
 2126POPC   C1A29235  18.306  32.388   8.882
 2126POPC   D2A29236  17.969  32.326   8.570
 2126POPC   C3A29237  18.125  32.411   8.165
 2126POPC   C4A29238  18.167  32.343   7.735
 2126POPC   C1B29239  18.136  31.896   8.818
 2126POPC   C2B29240  18.050  31.749   8.372
 2126POPC   C3B29241  18.079  31.848   7.890
 2126POPC   C4B29242  18.087  31.905   7.403
 2127POPC   NC329243   5.090   2.028   9.475
 2127POPC   PO429244   4.999   1.408   9.278
 2127POPC   GL129245   4.965   1.768   9.022
 2127POPC   GL229246   5.302   1.825   9.066
 2127POPC   C1A29247   4.984   1.847   8.544
 2127POPC   D2A29248   4.866   1.593   8.155
 2127POPC   C3A29249   4.875   1.828   7.754
 2127POPC   C4A29250   4.679   2.233   7.634
 2127POPC   C1B29251   5.228   2.211   8.845
 2127POPC   C2B29252   5.324   2.253   8.459
 2127POPC   C3B29253   5.168   2.088   8.097
 2127POPC   C4B29254   5.243   2.218   7.706
 2128POPC   NC329255  25.684  22.608   9.280
 2128POPC   PO429256  25.617  21.961   9.485
 2128POPC   GL129257  25.455  22.159   9.122
 2128POPC   GL229258  25.086  22.208   9.117
 2128POPC   C1A29259  25.430  22.329   8.715
 2128POPC   D2A29260  25.194  22.335   8.363
 2128POPC   C3A29261  25.436  22.259   8.034
 2128POPC   C4A29262  25.596  22.454   7.688
 2128POPC   C1B29263  24.832  22.289   8.745
 2128POPC   C2B29264  24.712  22.145   8.332
 2128POPC   C3B29265  24.997  21.994   8.010
 2128POPC   C4B29266  25.089  22.318   7.684
 2129POPC   NC329267  21.201  24.192   9.572
 2129POPC   PO429268  21.614  24.686   9.661
 2129POPC   GL129269  21.542  24.411   9.265
 2129POPC   GL229270  21.815  24.144   9.175
 2129POPC   C1A29271  21.228  24.407   8.911
 2129POPC   D2A29272  21.079  24.359   8.486
 2129POPC   C3A29273  21.268  24.521   8.084
 2129POPC   C4A29274  21.185  24.534   7.661
 2129POPC   C1B29275  21.705  24.263   8.799
 2129POPC   C2B29276  21.627  24.461   8.451
 2129POPC   C3B29277  21.720  24.252   8.087
 2129POPC   C4B29278  21.680  24.450   7.721
 2130POPC   NC329279   8.772  40.463   9.560
 2130POPC   PO429280   9.003  39.876   9.529
 2130POPC   GL129281   8.813  40.069   9.200
 2130POPC   GL229282   9.107  40.231   9.161
 2130POPC   C1A29283   8.818  39.950   8.773
 2130POPC   D2A29284   8.952  39.715   8.410
 2130POPC   C3A29285   8.783  39.826   8.022
 2130POPC   C4A29286   8.616  39.526   7.777
 2130POPC   C1B29287   9.117  40.382   8.772
 2130POPC   C2B29288   9.114  40.194   8.404
 2130POPC   C3B29289   9.247  40.010   8.028
 2130POPC   C4B29290   9.125  40.216   7.653
 2131POPC   NC329291   9.555  33.216   9.400
 2131POPC   PO429292   9.746  33.846   9.702
 2131POPC   GL129293   9.900  33.824   9.276
 2131POPC   GL229294   9.927  33.490   9.149
 2131POPC   C1A29295   9.710  33.838   8.852
 2131POPC   D2A29296   9.892  33.768   8.449
 2131POPC   C3A29297   9.698  33.630   8.054
 2131POPC   C4A29298   9.606  33.776   7.642
 2131POPC   C1B29299  10.023  33.298   8.745
 2131POPC   C2B29300  10.225  33.391   8.338
 2131POPC   C3B29301  10.124  33.359   7.902
 2131POPC   C4B29302   9.820  33.346   7.601
 2132POPC   NC329303  41.081  35.867   9.461
 2132POPC   PO429304  40.645  36.312   9.655
 2132POPC   GL129305  40.868  36.260   9.222
 2132POPC   GL229306  40.656  35.975   9.139
 2132POPC   C1A29307  41.016  36.033   8.805
 2132POPC   D2A29308  40.879  36.007   8.394
 2132POPC   C3A29309  40.861  36.335   8.057
 2132POPC   C4A29310  41.043  36.338   7.591
 2132POPC   C1B29311  40.454  36.117   8.752
 2132POPC   C2B29312  40.359  35.906   8.367
 2132POPC   C3B29313  40.649  35.696   8.079
 2132POPC   C4B29314  40.741  35.921   7.699
 2133POPC   NC329315   1.987  31.152   9.516
 2133POPC   PO429316   2.114  31.914   9.597
 2133POPC   GL129317   2.072  31.625   9.203
 2133POPC   GL229318   2.334  31.382   9.207
 2133POPC   C1A29319   1.763  31.459   8.832
 2133POPC   D2A29320   1.587  31.308   8.413
 2133POPC   C3A29321   1.812  31.432   8.037
 2133POPC   C4A29322   1.729  31.343   7.617
 2133POPC   C1B29323   2.259  31.442   8.780
 2133POPC   C2B29324   2.116  31.251   8.426
 2133POPC   C3B29325   2.388  31.076   8.115
 2133POPC   C4B29326   2.448  31.295   7.718
 2134POPC   NC329327  32.000  11.713   9.877
 2134POPC   PO429328  32.477  12.055   9.557
 2134POPC   GL129329  32.206  12.035   9.203
 2134POPC   GL229330  32.229  12.376   9.123
 2134POPC   C1A29331  32.024  11.921   8.793
 2134POPC   D2A29332  32.047  11.680   8.422
 2134POPC   C3A29333  32.397  11.742   8.133
 2134POPC   C4A29334  32.353  11.809   7.689
 2134POPC   C1B29335  32.150  12.400   8.708
 2134POPC   C2B29336  32.198  12.195   8.317
 2134POPC   C3B29337  32.285  12.287   7.883
 2134POPC   C4B29338  32.420  12.277   7.428
 2135POPC   NC329339  25.918  44.536   9.629
 2135POPC   PO429340  26.329   0.027   9.509
 2135POPC   GL129341  26.297  44.608   9.247
 2135POPC   GL229342  25.953  44.460   9.128
 2135POPC   C1A29343  26.320  44.515   8.792
 2135POPC   D2A29344  26.155  44.688   8.402
 2135POPC   C3A29345  26.372  44.874   8.048
 2135POPC   C4A29346  26.308  44.951   7.620
 2135POPC   C1B29347  25.802  44.438   8.677
 2135POPC   C2B29348  25.955  44.191   8.298
 2135POPC   C3B29349  26.169  44.411   7.965
 2135POPC   C4B29350  25.782  44.533   7.769
 2136POPC   NC329351   3.729  44.487   9.364
 2136POPC   PO429352   3.172  44.033   9.500
 2136POPC   GL129353   3.474  43.973   9.145
 2136POPC   GL229354   3.802  43.876   9.270
 2136POPC   C1A29355   3.345  43.755   8.770
 2136POPC   D2A29356   3.207  43.880   8.404
 2136POPC   C3A29357   3.133  43.591   8.137
 2136POPC   C4A29358   3.119  43.721   7.761
 2136POPC   C1B29359   3.851  43.809   8.816
 2136POPC   C2B29360   3.717  43.936   8.386
 2136POPC   C3B29361   3.624  43.748   7.974
 2136POPC   C4B29362   3.874  43.489   7.674
 2137POPC   NC329363   8.058  31.382   9.550
 2137POPC   PO429364   8.541  31.120   9.142
 2137POPC   GL129365   8.222  31.405   9.054
 2137POPC   GL229366   8.253  31.742   9.084
 2137POPC   C1A29367   8.168  31.477   8.627
 2137POPC   D2A29368   8.300  31.166   8.367
 2137POPC   C3A29369   8.202  31.260   7.965
 2137POPC   C4A29370   8.382  31.019   7.660
 2137POPC   C1B29371   8.000  31.950   8.776
 2137POPC   C2B29372   8.044  31.920   8.351
 2137POPC   C3B29373   8.329  31.728   8.097
 2137POPC   C4B29374   8.204  31.726   7.686
 2138POPC   NC329375  14.891  32.089   9.589
 2138POPC   PO429376  15.495  32.225   9.369
 2138POPC   GL129377  15.247  32.379   9.114
 2138POPC   GL229378  14.949  32.183   9.102
 2138POPC   C1A29379  15.401  32.523   8.735
 2138POPC   D2A29380  15.560  32.329   8.397
 2138POPC   C3A29381  15.321  32.135   8.115
 2138POPC   C4A29382  15.445  32.354   7.785
 2138POPC   C1B29383  14.890  32.462   8.752
 2138POPC   C2B29384  15.055  32.512   8.329
 2138POPC   C3B29385  14.940  32.376   7.850
 2138POPC   C4B29386  14.899  32.431   7.369
 2139POPC   NC329387  12.454  41.707   9.387
 2139POPC   PO429388  13.145  41.472   9.428
 2139POPC   GL129389  12.880  41.582   9.130
 2139POPC   GL229390  13.086  41.816   8.976
 2139POPC   C1A29391  12.664  41.423   8.771
 2139POPC   D2A29392  12.745  41.596   8.366
 2139POPC   C3A29393  12.666  41.348   8.004
 2139POPC   C4A29394  12.751  41.469   7.574
 2139POPC   C1B29395  13.177  41.498   8.702
 2139POPC   C2B29396  13.292  41.422   8.279
 2139POPC   C3B29397  13.117  41.622   7.915
 2139POPC   C4B29398  13.108  42.082   7.916
 2140POPC   NC329399  12.279  23.669   9.462
 2140POPC   PO429400  11.606  23.705   9.581
 2140POPC   GL129401  11.824  23.594   9.205
 2140POPC   GL229402  11.990  23.910   9.122
 2140POPC   C1A29403  12.040  23.508   8.821
 2140POPC   D2A29404  12.211  23.659   8.449
 2140POPC   C3A29405  11.990  23.605   8.090
 2140POPC   C4A29406  12.276  23.473   7.825
 2140POPC   C1B29407  12.226  24.070   8.758
 2140POPC   C2B29408  12.102  24.155   8.335
 2140POPC   C3B29409  12.134  24.084   7.910
 2140POPC   C4B29410  12.117  23.863   7.542
 2141POPC   NC329411  17.203   4.525   9.482
 2141POPC   PO429412  17.801   4.219   9.507
 2141POPC   GL129413  17.526   4.206   9.140
 2141POPC   GL229414  17.203   4.258   8.997
 2141POPC   C1A29415  17.648   4.214   8.722
 2141POPC   D2A29416  17.829   4.012   8.389
 2141POPC   C3A29417  17.615   4.135   8.058
 2141POPC   C4A29418  17.768   4.324   7.739
 2141POPC   C1B29419  16.929   4.065   8.688
 2141POPC   C2B29420  16.942   4.152   8.228
 2141POPC   C3B29421  17.087   4.174   7.808
 2141POPC   C4B29422  17.308   4.334   7.444
 2142POPC   NC329423  13.351  34.508   9.413
 2142POPC   PO429424  12.730  34.863   9.568
 2142POPC   GL129425  12.812  34.669   9.198
 2142POPC   GL229426  12.487  34.704   9.080
 2142POPC   C1A29427  12.918  34.372   8.881
 2142POPC   D2A29428  13.129  34.321   8.479
 2142POPC   C3A29429  12.913  34.595   8.198
 2142POPC   C4A29430  12.861  34.482   7.796
 2142POPC   C1B29431  12.647  34.850   8.703
 2142POPC   C2B29432  12.461  34.830   8.321
 2142POPC   C3B29433  12.545  34.886   7.892
 2142POPC   C4B29434  12.793  35.096   7.588
 2143POPC   NC329435  24.464  42.824   9.517
 2143POPC   PO429436  23.981  42.500   9.361
 2143POPC   GL129437  24.249  42.473   8.996
 2143POPC   GL229438  24.566  42.500   9.125
 2143POPC   C1A29439  24.381  42.563   8.576
 2143POPC   D2A29440  24.124  42.387   8.227
 2143POPC   C3A29441  24.252  42.303   7.803
 2143POPC   C4A29442  24.500  42.297   7.404
 2143POPC   C1B29443  24.727  42.251   8.781
 2143POPC   C2B29444  24.688  42.240   8.330
 2143POPC   C3B29445  24.742  42.221   7.913
 2143POPC   C4B29446  24.952  42.077   7.579
 2144POPC   NC329447  17.492  32.767   9.454
 2144POPC   PO429448  17.893  33.335   9.453
 2144POPC   GL129449  17.597  33.186   9.173
 2144POPC   GL229450  17.323  33.396   9.066
 2144POPC   C1A29451  17.504  33.000   8.795
 2144POPC   D2A29452  17.428  32.797   8.426
 2144POPC   C3A29453  17.607  32.913   8.052
 2144POPC   C4A29454  17.499  32.744   7.647
 2144POPC   C1B29455  17.190  33.490   8.659
 2144POPC   C2B29456  17.142  33.209   8.310
 2144POPC   C3B29457  17.132  33.042   7.920
 2144POPC   C4B29458  17.314  33.208   7.554
 2145POPC   NC329459  22.711  24.068   9.428
 2145POPC   PO429460  22.952  23.423   9.439
 2145POPC   GL129461  23.030  23.740   9.169
 2145POPC   GL229462  22.703  23.704   9.063
 2145POPC   C1A29463  23.061  23.882   8.768
 2145POPC   D2A29464  22.782  23.934   8.427
 2145POPC   C3A29465  23.016  23.849   8.067
 2145POPC   C4A29466  23.266  23.750   7.723
 2145POPC   C1B29467  22.754  23.466   8.691
 2145POPC   C2B29468  22.775  23.442   8.276
 2145POPC   C3B29469  22.574  23.635   7.969
 2145POPC   C4B29470  22.776  23.587   7.661
 2146POPC   NC329471  33.564  10.015   9.745
 2146POPC   PO429472  33.890   9.492   9.468
 2146POPC   GL129473  33.837   9.730   9.091
 2146POPC   GL229474  33.520   9.884   9.161
 2146POPC   C1A29475  33.927   9.556   8.698
 2146POPC   D2A29476  33.677   9.556   8.341
 2146POPC   C3A29477  33.613   9.927   8.085
 2146POPC   C4A29478  33.761   9.970   7.670
 2146POPC   C1B29479  33.423   9.536   8.861
 2146POPC   C2B29480  33.183   9.395   8.509
 2146POPC   C3B29481  33.248   9.513   8.078
 2146POPC   C4B29482  33.607   9.487   7.781
 2147POPC   NC329483   8.510  22.232   9.476
 2147POPC   PO429484   9.154  22.094   9.477
 2147POPC   GL129485   8.899  22.248   9.135
 2147POPC   GL229486   8.582  22.426   9.013
 2147POPC   C1A29487   8.895  22.055   8.771
 2147POPC   D2A29488   9.005  22.200   8.426
 2147POPC   C3A29489   8.779  22.065   8.106
 2147POPC   C4A29490   9.001  21.822   7.815
 2147POPC   C1B29491   8.880  22.629   8.713
 2147POPC   C2B29492   9.014  22.682   8.254
 2147POPC   C3B29493   8.989  22.510   7.836
 2147POPC   C4B29494   8.726  22.237   7.624
 2148POPC   NC329495  44.175   7.354   9.557
 2148POPC   PO429496  43.597   7.668   9.512
 2148POPC   GL129497  43.696   7.445   9.143
 2148POPC   GL229498  43.819   7.120   9.215
 2148POPC   C1A29499  44.011   7.472   8.851
 2148POPC   D2A29500  44.156   7.730   8.522
 2148POPC   C3A29501  43.977   7.567   8.142
 2148POPC   C4A29502  43.891   7.719   7.758
 2148POPC   C1B29503  43.843   6.979   8.770
 2148POPC   C2B29504  43.797   7.114   8.332
 2148POPC   C3B29505  43.954   7.115   7.900
 2148POPC   C4B29506  43.817   7.036   7.446
 2149POPC   NC329507   9.314  21.639   9.426
 2149POPC   PO429508   8.831  21.193   9.522
 2149POPC   GL129509   8.973  21.358   9.161
 2149POPC   GL229510   8.853  21.710   9.155
 2149POPC   C1A29511   9.199  21.450   8.785
 2149POPC   D2A29512   9.077  21.667   8.410
 2149POPC   C3A29513   9.014  21.334   8.130
 2149POPC   C4A29514   9.037  21.180   7.721
 2149POPC   C1B29515   8.698  21.535   8.749
 2149POPC   C2B29516   8.589  21.601   8.308
 2149POPC   C3B29517   8.613  21.492   7.845
 2149POPC   C4B29518   8.515  21.789   7.509
 2150POPC   NC329519  14.763  39.218   9.742
 2150POPC   PO429520  15.196  39.537   9.284
 2150POPC   GL129521  15.193  39.131   9.142
 2150POPC   GL229522  14.843  38.945   9.198
 2150POPC   C1A29523  15.416  39.138   8.748
 2150POPC   D2A29524  15.524  38.995   8.361
 2150POPC   C3A29525  15.428  39.192   7.987
 2150POPC   C4A29526  15.587  39.136   7.616
 2150POPC   C1B29527  14.902  39.030   8.738
 2150POPC   C2B29528  15.040  39.155   8.329
 2150POPC   C3B29529  14.919  39.301   7.918
 2150POPC   C4B29530  14.791  39.018   7.609
 2151POPC   NC329531  14.859  18.912   9.519
 2151POPC   PO429532  15.159  19.539   9.722
 2151POPC   GL129533  15.068  19.334   9.268
 2151POPC   GL229534  15.163  18.962   9.121
 2151POPC   C1A29535  15.165  19.363   8.809
 2151POPC   D2A29536  15.266  19.026   8.516
 2151POPC   C3A29537  15.332  19.130   8.090
 2151POPC   C4A29538  15.014  19.328   7.862
 2151POPC   C1B29539  14.933  18.728   8.781
 2151POPC   C2B29540  14.835  18.841   8.326
 2151POPC   C3B29541  14.932  18.813   7.908
 2151POPC   C4B29542  14.870  18.591   7.507
 2152POPC   NC329543  16.109  20.383   9.435
 2152POPC   PO429544  15.758  20.919   9.540
 2152POPC   GL129545  15.835  20.712   9.176
 2152POPC   GL229546  15.631  20.437   9.078
 2152POPC   C1A29547  16.163  20.710   8.880
 2152POPC   D2A29548  16.236  20.851   8.497
 2152POPC   C3A29549  16.191  20.556   8.171
 2152POPC   C4A29550  16.141  20.688   7.771
 2152POPC   C1B29551  15.852  20.292   8.713
 2152POPC   C2B29552  15.748  20.259   8.281
 2152POPC   C3B29553  15.854  20.243   7.862
 2152POPC   C4B29554  16.270  20.178   7.794
 2153POPC   NC329555  26.950  38.369   9.496
 2153POPC   PO429556  26.747  38.924   9.587
 2153POPC   GL129557  26.672  38.735   9.142
 2153POPC   GL229558  26.615  38.391   9.094
 2153POPC   C1A29559  26.648  38.623   8.649
 2153POPC   D2A29560  26.463  38.401   8.294
 2153POPC   C3A29561  26.504  38.532   7.855
 2153POPC   C4A29562  26.500  38.800   7.482
 2153POPC   C1B29563  27.046  38.440   8.872
 2153POPC   C2B29564  27.087  38.470   8.415
 2153POPC   C3B29565  26.949  38.341   7.998
 2153POPC   C4B29566  26.995  38.728   7.735
 2154POPC   NC329567  39.651  16.847   9.589
 2154POPC   PO429568  39.028  17.266   9.627
 2154POPC   GL129569  39.072  16.858   9.309
 2154POPC   GL229570  39.398  16.698   9.184
 2154POPC   C1A29571  39.015  16.647   8.863
 2154POPC   D2A29572  39.207  16.783   8.484
 2154POPC   C3A29573  38.975  16.804   8.104
 2154POPC   C4A29574  39.167  17.009   7.750
 2154POPC   C1B29575  39.572  16.571   8.781
 2154POPC   C2B29576  39.751  16.684   8.398
 2154POPC   C3B29577  39.498  16.761   8.042
 2154POPC   C4B29578  39.187  16.488   7.791
 2155POPC   NC329579  26.604  44.177   9.484
 2155POPC   PO429580  27.013  43.661   9.425
 2155POPC   GL129581  26.914  43.909   9.101
 2155POPC   GL229582  26.584  43.774   9.007
 2155POPC   C1A29583  27.082  43.881   8.690
 2155POPC   D2A29584  26.828  43.762   8.343
 2155POPC   C3A29585  27.024  43.801   7.975
 2155POPC   C4A29586  26.944  43.967   7.581
 2155POPC   C1B29587  26.633  44.112   8.713
 2155POPC   C2B29588  26.464  44.218   8.350
 2155POPC   C3B29589  26.638  44.145   7.985
 2155POPC   C4B29590  26.459  44.073   7.618
 2156POPC   NC329591   4.568   1.542   9.357
 2156POPC   PO429592   4.952   1.032   9.674
 2156POPC   GL129593   5.050   0.924   9.188
 2156POPC   GL229594   5.276   1.128   8.980
 2156POPC   C1A29595   4.859   0.878   8.785
 2156POPC   D2A29596   4.956   1.151   8.450
 2156POPC   C3A29597   4.788   1.027   8.053
 2156POPC   C4A29598   5.020   1.208   7.746
 2156POPC   C1B29599   5.333   1.492   8.694
 2156POPC   C2B29600   5.462   1.728   8.335
 2156POPC   C3B29601   5.332   1.586   7.940
 2156POPC   C4B29602   5.511   1.227   7.725
 2157POPC   NC329603  36.950  44.336   9.529
 2157POPC   PO429604  36.649   0.008   9.588
 2157POPC   GL129605  36.911  44.795   9.315
 2157POPC   GL229606  36.657  44.557   9.174
 2157POPC   C1A29607  37.038  44.784   8.902
 2157POPC   D2A29608  36.810  44.953   8.542
 2157POPC   C3A29609  37.069  44.928   8.190
 2157POPC   C4A29610  37.047  44.888   7.752
 2157POPC   C1B29611  36.434  44.496   8.801
 2157POPC   C2B29612  36.576  44.506   8.385
 2157POPC   C3B29613  36.592  44.817   8.061
 2157POPC   C4B29614  36.621  44.624   7.679
 2158POPC   NC329615  16.186   0.819   9.470
 2158POPC   PO429616  15.548   0.958   9.500
 2158POPC   GL129617  15.583   1.152   9.109
 2158POPC   GL229618  15.922   1.226   9.131
 2158POPC   C1A29619  15.646   1.197   8.638
 2158POPC   D2A29620  15.700   1.567   8.334
 2158POPC   C3A29621  15.745   1.462   7.906
 2158POPC   C4A29622  15.731   1.065   7.719
 2158POPC   C1B29623  16.089   0.920   8.791
 2158POPC   C2B29624  16.156   0.882   8.316
 2158POPC   C3B29625  16.193   0.861   7.863
 2158POPC   C4B29626  16.191   1.088   7.453
 2159POPC   NC329627  43.940  19.444  10.140
 2159POPC   PO429628  43.702  19.811   9.564
 2159POPC   GL129629  43.965  19.632   9.231
 2159POPC   GL229630  43.738  19.805   9.013
 2159POPC   C1A29631  44.115  19.574   8.768
 2159POPC   D2A29632  43.973  19.538   8.321
 2159POPC   C3A29633  43.919  19.902   8.017
 2159POPC   C4A29634  43.990  19.783   7.592
 2159POPC   C1B29635  43.580  19.558   8.668
 2159POPC   C2B29636  43.497  19.746   8.286
 2159POPC   C3B29637  43.545  19.612   7.877
 2159POPC   C4B29638  43.514  19.955   7.614
 2160POPC   NC329639   3.761  36.667   9.829
 2160POPC   PO429640   3.425  37.186   9.498
 2160POPC   GL129641   3.426  37.026   9.087
 2160POPC   GL229642   3.245  36.732   9.184
 2160POPC   C1A29643   3.683  36.952   8.696
 2160POPC   D2A29644   3.693  36.739   8.312
 2160POPC   C3A29645   3.844  37.023   8.038
 2160POPC   C4A29646   3.866  36.831   7.652
 2160POPC   C1B29647   3.258  36.669   8.737
 2160POPC   C2B29648   3.246  36.951   8.379
 2160POPC   C3B29649   3.345  36.927   7.937
 2160POPC   C4B29650   3.175  37.200   7.665
 2161POPC   NC329651   5.226   8.531   9.536
 2161POPC   PO429652   5.267   9.170   9.508
 2161POPC   GL129653   5.080   8.867   9.178
 2161POPC   GL229654   4.789   8.628   9.275
 2161POPC   C1A29655   5.009   8.894   8.735
 2161POPC   D2A29656   5.003   9.206   8.416
 2161POPC   C3A29657   5.189   9.088   8.057
 2161POPC   C4A29658   5.321   9.101   7.648
 2161POPC   C1B29659   4.593   8.626   8.868
 2161POPC   C2B29660   4.715   8.516   8.450
 2161POPC   C3B29661   4.691   8.777   8.120
 2161POPC   C4B29662   4.876   8.839   7.739
 2162POPC   NC329663  34.906  36.667   9.448
 2162POPC   PO429664  35.477  37.019   9.458
 2162POPC   GL129665  35.497  36.698   9.135
 2162POPC   GL229666  35.164  36.577   9.011
 2162POPC   C1A29667  35.533  36.840   8.736
 2162POPC   D2A29668  35.363  37.174   8.474
 2162POPC   C3A29669  35.503  37.104   8.069
 2162POPC   C4A29670  35.414  36.839   7.713
 2162POPC   C1B29671  35.027  36.975   8.827
 2162POPC   C2B29672  34.868  37.090   8.405
 2162POPC   C3B29673  35.008  36.969   8.012
 2162POPC   C4B29674  35.147  37.267   7.725
 2163POPC   NC329675   9.663  39.491   9.577
 2163POPC   PO429676   9.953  38.881   9.416
 2163POPC   GL129677   9.572  38.904   9.172
 2163POPC   GL229678   9.590  39.251   9.144
 2163POPC   C1A29679   9.549  38.975   8.711
 2163POPC   D2A29680   9.880  38.913   8.416
 2163POPC   C3A29681   9.832  39.041   8.019
 2163POPC   C4A29682   9.572  38.946   7.690
 2163POPC   C1B29683   9.646  39.474   8.785
 2163POPC   C2B29684   9.743  39.408   8.373
 2163POPC   C3B29685   9.593  39.490   7.951
 2163POPC   C4B29686   9.648  39.419   7.535
 2164POPC   NC329687  14.662  26.986   9.623
 2164POPC   PO429688  14.355  26.464   9.512
 2164POPC   GL129689  14.524  26.743   9.166
 2164POPC   GL229690  14.267  26.936   8.973
 2164POPC   C1A29691  14.594  26.641   8.712
 2164POPC   D2A29692  14.420  26.504   8.305
 2164POPC   C3A29693  14.483  26.693   7.887
 2164POPC   C4A29694  14.684  26.664   7.476
 2164POPC   C1B29695  14.074  26.808   8.559
 2164POPC   C2B29696  14.010  26.752   8.101
 2164POPC   C3B29697  14.033  26.568   7.662
 2164POPC   C4B29698  13.739  26.643   7.289
 2165POPC   NC329699  22.230  35.990   9.413
 2165POPC   PO429700  21.782  36.350   9.652
 2165POPC   GL129701  21.868  36.247   9.193
 2165POPC   GL229702  21.763  36.502   9.022
 2165POPC   C1A29703  22.119  36.075   8.796
 2165POPC   D2A29704  22.340  36.199   8.422
 2165POPC   C3A29705  22.272  35.975   8.059
 2165POPC   C4A29706  22.121  36.062   7.686
 2165POPC   C1B29707  21.641  36.242   8.720
 2165POPC   C2B29708  21.831  36.175   8.349
 2165POPC   C3B29709  21.998  36.422   8.051
 2165POPC   C4B29710  21.747  36.406   7.713
 2166POPC   NC329711  41.975  42.873   9.329
 2166POPC   PO429712  42.303  43.309   9.698
 2166POPC   GL129713  42.414  43.188   9.239
 2166POPC   GL229714  42.492  42.863   9.231
 2166POPC   C1A29715  42.246  43.141   8.788
 2166POPC   D2A29716  42.187  42.955   8.363
 2166POPC   C3A29717  42.164  43.283   8.052
 2166POPC   C4A29718  42.345  43.342   7.670
 2166POPC   C1B29719  42.689  42.901   8.812
 2166POPC   C2B29720  42.739  42.844   8.358
 2166POPC   C3B29721  42.725  43.119   7.975
 2166POPC   C4B29722  42.760  43.053   7.505
 2167POPC   NC329723  25.384  33.820   9.618
 2167POPC   PO429724  25.439  34.427   9.394
 2167POPC   GL129725  25.189  34.097   9.168
 2167POPC   GL229726  25.265  33.701   9.145
 2167POPC   C1A29727  25.256  33.994   8.736
 2167POPC   D2A29728  25.488  33.756   8.496
 2167POPC   C3A29729  25.447  33.811   8.081
 2167POPC   C4A29730  25.428  33.984   7.684
 2167POPC   C1B29731  25.109  33.505   8.759
 2167POPC   C2B29732  25.013  33.670   8.330
 2167POPC   C3B29733  25.043  33.569   7.879
 2167POPC   C4B29734  24.959  33.435   7.457
 2168POPC   NC329735  36.451  33.990   9.527
 2168POPC   PO429736  36.075  33.418   9.432
 2168POPC   GL129737  36.073  33.874   9.201
 2168POPC   GL229738  36.432  34.000   9.036
 2168POPC   C1A29739  36.007  34.040   8.774
 2168POPC   D2A29740  36.349  34.005   8.469
 2168POPC   C3A29741  36.234  34.062   8.029
 2168POPC   C4A29742  36.150  33.745   7.701
 2168POPC   C1B29743  36.330  33.613   8.837
 2168POPC   C2B29744  36.463  33.467   8.455
 2168POPC   C3B29745  36.499  33.587   8.047
 2168POPC   C4B29746  36.573  33.393   7.642
 2169POPC   NC329747  29.645   2.302   9.404
 2169POPC   PO429748  30.114   1.957   9.739
 2169POPC   GL129749  30.036   1.994   9.214
 2169POPC   GL229750  29.730   2.104   8.959
 2169POPC   C1A29751  30.131   1.913   8.735
 2169POPC   D2A29752  30.355   2.013   8.337
 2169POPC   C3A29753  30.081   2.022   7.979
 2169POPC   C4A29754  30.159   1.955   7.517
 2169POPC   C1B29755  29.635   1.717   8.719
 2169POPC   C2B29756  29.784   1.590   8.342
 2169POPC   C3B29757  29.703   1.688   7.923
 2169POPC   C4B29758  29.666   1.887   7.548
 2170POPC   NC329759   1.709  22.162   9.529
 2170POPC   PO429760   2.426  22.179   9.451
 2170POPC   GL129761   2.115  21.966   9.177
 2170POPC   GL229762   1.737  21.989   9.052
 2170POPC   C1A29763   2.135  21.808   8.776
 2170POPC   D2A29764   1.951  21.941   8.377
 2170POPC   C3A29765   2.105  21.918   7.925
 2170POPC   C4A29766   2.038  22.269   7.608
 2170POPC   C1B29767   1.916  22.308   8.776
 2170POPC   C2B29768   1.720  22.494   8.377
 2170POPC   C3B29769   1.660  22.443   7.898
 2170POPC   C4B29770   1.547  22.414   7.437
 2171POPC   NC329771  21.282  11.426   9.542
 2171POPC   PO429772  21.041  10.808   9.531
 2171POPC   GL129773  21.097  11.101   9.155
 2171POPC   GL229774  21.453  11.235   9.093
 2171POPC   C1A29775  21.152  11.257   8.703
 2171POPC   D2A29776  21.081  11.436   8.312
 2171POPC   C3A29777  21.343  11.312   8.036
 2171POPC   C4A29778  21.091  11.235   7.722
 2171POPC   C1B29779  21.701  11.294   8.700
 2171POPC   C2B29780  21.823  11.174   8.261
 2171POPC   C3B29781  21.792  11.207   7.797
 2171POPC   C4B29782  21.853  11.117   7.337
 2172POPC   NC329783  40.193  10.270   9.518
 2172POPC   PO429784  39.743  10.837   9.597
 2172POPC   GL129785  39.957  10.644   9.231
 2172POPC   GL229786  40.216  10.829   9.120
 2172POPC   C1A29787  39.849  10.772   8.798
 2172POPC   D2A29788  39.746  10.603   8.423
 2172POPC   C3A29789  39.756  10.809   8.026
 2172POPC   C4A29790  40.039  10.759   7.653
 2172POPC   C1B29791  40.367  10.733   8.722
 2172POPC   C2B29792  40.245  10.643   8.310
 2172POPC   C3B29793  40.043  10.396   8.014
 2172POPC   C4B29794  39.952  10.197   7.676
 2173POPC   NC329795  25.776  31.988   9.489
 2173POPC   PO429796  26.439  31.988   9.454
 2173POPC   GL129797  26.154  32.180   9.171
 2173POPC   GL229798  26.306  32.499   9.220
 2173POPC   C1A29799  25.914  32.273   8.789
 2173POPC   D2A29800  25.843  32.046   8.374
 2173POPC   C3A29801  26.061  32.207   7.969
 2173POPC   C4A29802  25.991  32.555   7.700
 2173POPC   C1B29803  26.393  32.498   8.777
 2173POPC   C2B29804  26.294  32.549   8.314
 2173POPC   C3B29805  26.449  32.771   7.921
 2173POPC   C4B29806  26.280  32.915   7.493
 2174POPC   NC329807  12.070  14.723   9.679
 2174POPC   PO429808  11.773  14.145   9.797
 2174POPC   GL129809  11.928  14.202   9.376
 2174POPC   GL229810  11.912  14.519   9.235
 2174POPC   C1A29811  11.982  14.115   8.925
 2174POPC   D2A29812  11.945  14.130   8.501
 2174POPC   C3A29813  12.248  14.194   8.191
 2174POPC   C4A29814  12.058  14.175   7.793
 2174POPC   C1B29815  11.810  14.569   8.789
 2174POPC   C2B29816  12.048  14.629   8.396
 2174POPC   C3B29817  12.116  14.638   7.967
 2174POPC   C4B29818  11.947  14.604   7.537
 2175POPC   NC329819   0.831  19.035   9.524
 2175POPC   PO429820   0.218  19.253   9.631
 2175POPC   GL129821   0.380  19.145   9.264
 2175POPC   GL229822   0.437  19.482   9.199
 2175POPC   C1A29823   0.242  18.912   8.899
 2175POPC   D2A29824   0.418  18.944   8.489
 2175POPC   C3A29825   0.158  18.874   8.151
 2175POPC   C4A29826   0.304  18.956   7.745
 2175POPC   C1B29827   0.490  19.348   8.801
 2175POPC   C2B29828   0.582  19.497   8.425
 2175POPC   C3B29829   0.533  19.295   8.066
 2175POPC   C4B29830   0.571  19.470   7.674
 2176POPC   NC329831  24.218  38.685   9.453
 2176POPC   PO429832  24.749  38.348   9.469
 2176POPC   GL129833  24.388  38.265   9.203
 2176POPC   GL229834  24.491  38.570   9.021
 2176POPC   C1A29835  24.218  38.248   8.771
 2176POPC   D2A29836  24.391  38.603   8.498
 2176POPC   C3A29837  24.416  38.436   8.072
 2176POPC   C4A29838  24.110  38.196   7.852
 2176POPC   C1B29839  24.753  38.307   8.704
 2176POPC   C2B29840  24.898  38.172   8.265
 2176POPC   C3B29841  25.071  38.206   7.857
 2176POPC   C4B29842  24.968  38.462   7.507
 2177POPC   NC329843  30.260  16.202   9.434
 2177POPC   PO429844  30.849  16.036   9.763
 2177POPC   GL129845  30.757  16.191   9.274
 2177POPC   GL229846  30.467  15.999   9.045
 2177POPC   C1A29847  30.877  16.130   8.804
 2177POPC   D2A29848  31.105  16.042   8.432
 2177POPC   C3A29849  30.936  16.052   8.029
 2177POPC   C4A29850  31.148  15.865   7.699
 2177POPC   C1B29851  30.357  16.221   8.708
 2177POPC   C2B29852  30.457  15.938   8.394
 2177POPC   C3B29853  30.317  15.746   8.030
 2177POPC   C4B29854  30.476  16.088   7.797
 2178POPC   NC329855  34.896  12.918   9.614
 2178POPC   PO429856  35.579  12.812   9.652
 2178POPC   GL129857  35.494  12.989   9.250
 2178POPC   GL229858  35.347  12.658   9.139
 2178POPC   C1A29859  35.226  13.073   8.887
 2178POPC   D2A29860  35.193  12.854   8.566
 2178POPC   C3A29861  35.324  13.013   8.196
 2178POPC   C4A29862  35.233  12.845   7.819
 2178POPC   C1B29863  35.637  12.733   8.788
 2178POPC   C2B29864  35.573  12.574   8.371
 2178POPC   C3B29865  35.711  12.765   7.984
 2178POPC   C4B29866  35.693  12.583   7.633
 2179POPC   NC329867  41.404   1.237   9.552
 2179POPC   PO429868  42.048   1.545   9.469
 2179POPC   GL129869  41.781   1.289   9.160
 2179POPC   GL229870  41.406   1.210   9.060
 2179POPC   C1A29871  41.793   1.163   8.731
 2179POPC   D2A29872  41.582   1.243   8.362
 2179POPC   C3A29873  41.722   1.068   8.065
 2179POPC   C4A29874  41.801   1.098   7.683
 2179POPC   C1B29875  41.153   1.244   8.710
 2179POPC   C2B29876  41.113   1.043   8.310
 2179POPC   C3B29877  41.248   1.048   7.871
 2179POPC   C4B29878  41.423   1.415   7.802
 2180POPC   NC329879  10.992   9.590   9.646
 2180POPC   PO429880  11.483   9.310   9.376
 2180POPC   GL129881  11.242   9.608   9.133
 2180POPC   GL229882  10.886   9.634   9.087
 2180POPC   C1A29883  11.366   9.778   8.719
 2180POPC   D2A29884  11.524   9.613   8.333
 2180POPC   C3A29885  11.465   9.853   7.968
 2180POPC   C4A29886  11.327   9.777   7.564
 2180POPC   C1B29887  10.869   9.912   8.730
 2180POPC   C2B29888  11.061   9.965   8.295
 2180POPC   C3B29889  10.913   9.863   7.865
 2180POPC   C4B29890  10.883  10.018   7.411
 2181POPC   NC329891  21.768   7.519  10.178
 2181POPC   PO429892  21.470   7.356   9.585
 2181POPC   GL129893  21.442   7.295   9.151
 2181POPC   GL229894  21.385   7.627   9.038
 2181POPC   C1A29895  21.393   7.231   8.701
 2181POPC   D2A29896  21.472   7.431   8.304
 2181POPC   C3A29897  21.396   7.168   7.931
 2181POPC   C4A29898  21.177   7.153   7.524
 2181POPC   C1B29899  21.296   7.788   8.630
 2181POPC   C2B29900  20.961   7.897   8.322
 2181POPC   C3B29901  21.121   7.986   7.946
 2181POPC   C4B29902  21.435   7.698   7.879
 2182POPC   NC329903  29.706   8.474   9.526
 2182POPC   PO429904  30.015   7.857   9.394
 2182POPC   GL129905  30.081   8.299   9.157
 2182POPC   GL229906  29.743   8.491   9.028
 2182POPC   C1A29907  30.128   8.457   8.708
 2182POPC   D2A29908  29.731   8.472   8.454
 2182POPC   C3A29909  29.666   8.287   8.041
 2182POPC   C4A29910  29.975   8.048   7.786
 2182POPC   C1B29911  29.751   8.087   8.824
 2182POPC   C2B29912  29.602   7.933   8.447
 2182POPC   C3B29913  29.605   7.783   8.027
 2182POPC   C4B29914  29.507   8.013   7.615
 2183POPC   NC329915  44.110   5.297   9.754
 2183POPC   PO429916  43.974   5.951   9.523
 2183POPC   GL129917  43.854   5.989   9.119
 2183POPC   GL229918  44.155   5.825   9.006
 2183POPC   C1A29919  43.748   5.908   8.707
 2183POPC   D2A29920  43.749   5.630   8.379
 2183POPC   C3A29921  43.855   5.821   8.031
 2183POPC   C4A29922  44.182   5.698   7.755
 2183POPC   C1B29923  44.189   6.143   8.698
 2183POPC   C2B29924  44.388   6.283   8.311
 2183POPC   C3B29925  44.223   6.192   7.919
 2183POPC   C4B29926  43.853   6.177   7.680
 2184POPC   NC329927  15.352  37.340   9.525
 2184POPC   PO429928  15.479  38.048   9.631
 2184POPC   GL129929  15.349  37.774   9.238
 2184POPC   GL229930  15.016  37.799   9.081
 2184POPC   C1A29931  15.402  37.572   8.828
 2184POPC   D2A29932  15.520  37.446   8.418
 2184POPC   C3A29933  15.341  37.690   8.109
 2184POPC   C4A29934  15.515  37.809   7.761
 2184POPC   C1B29935  14.895  37.465   8.810
 2184POPC   C2B29936  14.870  37.508   8.378
 2184POPC   C3B29937  15.003  37.327   7.991
 2184POPC   C4B29938  15.117  37.516   7.590
 2185POPC   NC329939  21.317  14.228   9.251
 2185POPC   PO429940  21.634  13.631   9.587
 2185POPC   GL129941  21.479  13.722   9.180
 2185POPC   GL229942  21.712  13.890   9.061
 2185POPC   C1A29943  21.343  13.760   8.739
 2185POPC   D2A29944  21.477  13.567   8.374
 2185POPC   C3A29945  21.162  13.463   8.137
 2185POPC   C4A29946  20.997  13.416   7.735
 2185POPC   C1B29947  21.856  13.987   8.702
 2185POPC   C2B29948  21.675  14.073   8.337
 2185POPC   C3B29949  21.696  13.845   7.952
 2185POPC   C4B29950  21.475  13.550   7.710
 2186POPC   NC329951  33.667  16.558   9.545
 2186POPC   PO429952  33.995  17.171   9.577
 2186POPC   GL129953  33.908  16.849   9.207
 2186POPC   GL229954  33.563  16.942   9.136
 2186POPC   C1A29955  33.717  16.530   8.880
 2186POPC   D2A29956  33.593  16.563   8.446
 2186POPC   C3A29957  33.783  16.858   8.189
 2186POPC   C4A29958  33.837  16.764   7.773
 2186POPC   C1B29959  33.314  16.849   8.733
 2186POPC   C2B29960  33.241  16.921   8.292
 2186POPC   C3B29961  33.372  16.626   7.967
 2186POPC   C4B29962  33.438  16.615   7.495
 2187POPC   NC329963  15.576  29.877   9.608
 2187POPC   PO429964  16.200  30.256   9.588
 2187POPC   GL129965  16.149  29.980   9.232
 2187POPC   GL229966  15.836  29.986   9.174
 2187POPC   C1A29967  16.197  29.751   8.863
 2187POPC   D2A29968  15.936  29.811   8.504
 2187POPC   C3A29969  16.093  29.988   8.134
 2187POPC   C4A29970  16.228  29.715   7.831
 2187POPC   C1B29971  15.619  30.109   8.806
 2187POPC   C2B29972  15.425  29.892   8.442
 2187POPC   C3B29973  15.585  29.942   8.036
 2187POPC   C4B29974  15.772  30.325   7.900
 2188POPC   NC329975  42.152  32.060   9.880
 2188POPC   PO429976  42.637  32.448   9.524
 2188POPC   GL129977  42.552  32.384   9.100
 2188POPC   GL229978  42.572  32.022   8.967
 2188POPC   C1A29979  42.372  32.400   8.712
 2188POPC   D2A29980  42.335  32.164   8.383
 2188POPC   C3A29981  42.553  32.344   8.154
 2188POPC   C4A29982  42.431  32.287   7.786
 2188POPC   C1B29983  42.102  31.949   8.767
 2188POPC   C2B29984  41.853  32.019   8.361
 2188POPC   C3B29985  42.077  31.926   7.960
 2188POPC   C4B29986  42.331  31.832   7.566
 2189POPC   NC329987  19.897  43.168   9.938
 2189POPC   PO429988  19.587  42.974   9.340
 2189POPC   GL129989  19.701  43.142   8.982
 2189POPC   GL229990  20.033  43.252   8.960
 2189POPC   C1A29991  19.736  43.107   8.582
 2189POPC   D2A29992  19.940  42.905   8.326
 2189POPC   C3A29993  19.735  43.067   7.999
 2189POPC   C4A29994  19.839  42.966   7.589
 2189POPC   C1B29995  20.103  43.490   8.611
 2189POPC   C2B29996  20.141  43.417   8.187
 2189POPC   C3B29997  19.963  43.446   7.771
 2189POPC   C4B29998  20.038  43.360   7.296
 2190POPC   NC329999  41.542   2.639   9.678
 2190POPC   PO430000  41.324   3.060   9.193
 2190POPC   GL130001  41.323   2.636   9.068
 2190POPC   GL230002  41.642   2.634   9.123
 2190POPC   C1A30003  41.389   2.603   8.619
 2190POPC   D2A30004  41.308   2.980   8.361
 2190POPC   C3A30005  41.329   2.969   7.924
 2190POPC   C4A30006  41.168   2.649   7.656
 2190POPC   C1B30007  41.875   2.598   8.756
 2190POPC   C2B30008  41.854   2.602   8.321
 2190POPC   C3B30009  41.736   2.701   7.880
 2190POPC   C4B30010  41.767   3.140   7.699
 2191POPC   NC330011  24.338  22.402   9.508
 2191POPC   PO430012  23.728  22.436   9.682
 2191POPC   GL130013  23.747  22.368   9.233
 2191POPC   GL230014  24.010  22.136   9.194
 2191POPC   C1A30015  23.798  22.412   8.773
 2191POPC   D2A30016  23.685  22.226   8.352
 2191POPC   C3A30017  23.764  22.418   7.926
 2191POPC   C4A30018  23.493  22.521   7.528
 2191POPC   C1B30019  23.955  21.904   8.802
 2191POPC   C2B30020  24.110  21.853   8.384
 2191POPC   C3B30021  23.905  21.874   7.965
 2191POPC   C4B30022  23.751  21.834   7.541
 2192POPC   NC330023  17.240  22.656   9.654
 2192POPC   PO430024  17.676  23.208   9.464
 2192POPC   GL130025  17.404  22.996   9.144
 2192POPC   GL230026  17.134  22.742   9.168
 2192POPC   C1A30027  17.522  22.722   8.785
 2192POPC   D2A30028  17.637  22.576   8.405
 2192POPC   C3A30029  17.683  22.897   8.121
 2192POPC   C4A30030  17.519  22.881   7.714
 2192POPC   C1B30031  17.075  22.950   8.748
 2192POPC   C2B30032  17.205  22.872   8.334
 2192POPC   C3B30033  17.040  22.822   7.927
 2192POPC   C4B30034  17.084  22.925   7.470
 2193POPC   NC330035  21.424   2.268   9.583
 2193POPC   PO430036  21.391   3.023   9.565
 2193POPC   GL130037  21.286   2.914   9.197
 2193POPC   GL230038  21.440   2.633   9.204
 2193POPC   C1A30039  21.143   2.996   8.822
 2193POPC   D2A30040  21.320   3.182   8.472
 2193POPC   C3A30041  21.582   2.945   8.176
 2193POPC   C4A30042  21.485   2.953   7.728
 2193POPC   C1B30043  21.392   2.536   8.767
 2193POPC   C2B30044  21.580   2.448   8.377
 2193POPC   C3B30045  21.377   2.498   7.980
 2193POPC   C4B30046  21.475   2.499   7.529
 2194POPC   NC330047   8.789   9.835   9.408
 2194POPC   PO430048   9.054   9.284   9.643
 2194POPC   GL130049   9.070   9.556   9.130
 2194POPC   GL230050   8.764   9.635   8.948
 2194POPC   C1A30051   9.329   9.659   8.755
 2194POPC   D2A30052   9.454   9.484   8.369
 2194POPC   C3A30053   9.207   9.643   8.002
 2194POPC   C4A30054   8.795   9.502   7.823
 2194POPC   C1B30055   8.891   9.908   8.628
 2194POPC   C2B30056   8.777   9.829   8.233
 2194POPC   C3B30057   8.809  10.019   7.828
 2194POPC   C4B30058   8.819  10.434   7.704
 2195POPC   NC330059  21.490  44.042   9.417
 2195POPC   PO430060  20.839  43.790   9.575
 2195POPC   GL130061  21.020  43.779   9.161
 2195POPC   GL230062  20.964  44.133   9.145
 2195POPC   C1A30063  21.251  43.874   8.752
 2195POPC   D2A30064  21.409  44.114   8.376
 2195POPC   C3A30065  21.295  43.891   7.992
 2195POPC   C4A30066  21.482  43.647   7.625
 2195POPC   C1B30067  21.018  44.334   8.736
 2195POPC   C2B30068  20.905  44.190   8.333
 2195POPC   C3B30069  21.021  44.309   7.906
 2195POPC   C4B30070  21.164  44.063   7.535
 2196POPC   NC330071   6.742  34.253   9.531
 2196POPC   PO430072   6.455  34.854   9.409
 2196POPC   GL130073   6.744  34.633   9.101
 2196POPC   GL230074   6.836  34.271   9.035
 2196POPC   C1A30075   6.799  34.687   8.648
 2196POPC   D2A30076   7.082  34.792   8.301
 2196POPC   C3A30077   6.937  34.735   7.874
 2196POPC   C4A30078   6.667  34.545   7.548
 2196POPC   C1B30079   6.454  34.293   8.797
 2196POPC   C2B30080   6.376  34.435   8.377
 2196POPC   C3B30081   6.574  34.292   8.001
 2196POPC   C4B30082   6.419  34.106   7.626
 2197POPC   NC330083   3.847  15.030   9.790
 2197POPC   PO430084   4.504  15.343   9.610
 2197POPC   GL130085   4.558  15.030   9.321
 2197POPC   GL230086   4.289  15.189   9.133
 2197POPC   C1A30087   4.682  14.969   8.900
 2197POPC   D2A30088   4.702  15.228   8.519
 2197POPC   C3A30089   4.358  15.174   8.255
 2197POPC   C4A30090   4.255  15.112   7.858
 2197POPC   C1B30091   4.216  15.367   8.700
 2197POPC   C2B30092   4.063  15.612   8.278
 2197POPC   C3B30093   3.813  15.531   7.879
 2197POPC   C4B30094   3.956  15.324   7.481
 2198POPC   NC330095   9.113  23.001   9.630
 2198POPC   PO430096   8.513  22.703   9.488
 2198POPC   GL130097   8.836  22.862   9.188
 2198POPC   GL230098   9.163  22.694   9.208
 2198POPC   C1A30099   8.825  23.139   8.815
 2198POPC   D2A30100   8.656  23.062   8.420
 2198POPC   C3A30101   8.875  23.143   8.080
 2198POPC   C4A30102   8.850  22.980   7.695
 2198POPC   C1B30103   9.304  23.012   8.902
 2198POPC   C2B30104   9.252  23.102   8.444
 2198POPC   C3B30105   9.355  23.050   7.984
 2198POPC   C4B30106   9.249  23.292   7.579
 2199POPC   NC330107  13.453  40.431   9.598
 2199POPC   PO430108  13.794  41.001   9.491
 2199POPC   GL130109  13.772  40.620   9.250
 2199POPC   GL230110  14.092  40.652   9.142
 2199POPC   C1A30111  13.465  40.494   8.919
 2199POPC   D2A30112  13.241  40.569   8.531
 2199POPC   C3A30113  13.435  40.462   8.143
 2199POPC   C4A30114  13.469  40.712   7.759
 2199POPC   C1B30115  13.805  40.861   8.812
 2199POPC   C2B30116  13.632  40.903   8.391
 2199POPC   C3B30117  13.876  40.741   8.078
 2199POPC   C4B30118  13.996  40.808   7.690
 2200POPC   NC330119  42.862  20.185   9.608
 2200POPC   PO430120  43.375  20.668   9.621
 2200POPC   GL130121  43.298  20.603   9.197
 2200POPC   GL230122  42.979  20.447   9.170
 2200POPC   C1A30123  43.362  20.725   8.756
 2200POPC   D2A30124  43.546  20.597   8.359
 2200POPC   C3A30125  43.310  20.717   7.972
 2200POPC   C4A30126  43.320  20.568   7.544
 2200POPC   C1B30127  42.852  20.716   8.833
 2200POPC   C2B30128  42.974  20.729   8.389
 2200POPC   C3B30129  42.765  20.800   8.005
 2200POPC   C4B30130  42.777  20.535   7.673
 2201POPC   NC330131  16.808   9.271   9.572
 2201POPC   PO430132  17.273   8.840   9.434
 2201POPC   GL130133  17.002   9.121   9.137
 2201POPC   GL230134  16.639   9.159   9.112
 2201POPC   C1A30135  16.949   9.238   8.721
 2201POPC   D2A30136  17.069   9.064   8.343
 2201POPC   C3A30137  16.800   8.847   8.043
 2201POPC   C4A30138  17.028   8.682   7.703
 2201POPC   C1B30139  16.409   9.324   8.784
 2201POPC   C2B30140  16.546   9.140   8.407
 2201POPC   C3B30141  16.733   9.345   8.077
 2201POPC   C4B30142  16.591   9.300   7.699
 2202POPC   NC330143  18.616  29.212   9.521
 2202POPC   PO430144  18.053  28.922   9.505
 2202POPC   GL130145  18.122  28.936   9.106
 2202POPC   GL230146  18.473  28.966   9.087
 2202POPC   C1A30147  18.016  29.124   8.716
 2202POPC   D2A30148  18.232  29.107   8.333
 2202POPC   C3A30149  18.054  29.139   7.916
 2202POPC   C4A30150  18.308  28.981   7.567
 2202POPC   C1B30151  18.518  29.354   8.820
 2202POPC   C2B30152  18.401  29.578   8.437
 2202POPC   C3B30153  18.499  29.396   8.008
 2202POPC   C4B30154  18.803  29.485   7.718
 2203POPC   NC330155  31.249   2.305   9.457
 2203POPC   PO430156  31.689   1.828   9.480
 2203POPC   GL130157  31.597   2.033   9.135
 2203POPC   GL230158  31.708   2.378   9.192
 2203POPC   C1A30159  31.449   1.828   8.769
 2203POPC   D2A30160  31.293   1.524   8.473
 2203POPC   C3A30161  31.277   1.775   8.130
 2203POPC   C4A30162  31.312   1.744   7.726
 2203POPC   C1B30163  31.401   2.382   8.827
 2203POPC   C2B30164  31.231   2.406   8.408
 2203POPC   C3B30165  31.281   2.277   7.968
 2203POPC   C4B30166  31.545   2.181   7.639
 2204POPC   NC330167  20.894   2.964   9.538
 2204POPC   PO430168  20.249   2.655   9.455
 2204POPC   GL130169  20.588   2.728   9.187
 2204POPC   GL230170  20.884   2.586   9.208
 2204POPC   C1A30171  20.628   3.044   8.863
 2204POPC   D2A30172  20.414   3.058   8.471
 2204POPC   C3A30173  20.620   2.850   8.151
 2204POPC   C4A30174  20.607   3.056   7.748
 2204POPC   C1B30175  20.862   2.567   8.772
 2204POPC   C2B30176  21.081   2.709   8.390
 2204POPC   C3B30177  21.087   2.995   8.045
 2204POPC   C4B30178  21.002   2.720   7.715
 2205POPC   NC330179   2.499  23.326   9.782
 2205POPC   PO430180   2.904  23.841   9.726
 2205POPC   GL130181   2.752  23.669   9.334
 2205POPC   GL230182   2.940  23.373   9.355
 2205POPC   C1A30183   2.733  23.666   8.862
 2205POPC   D2A30184   2.827  23.867   8.473
 2205POPC   C3A30185   2.826  23.667   8.120
 2205POPC   C4A30186   2.783  23.851   7.732
 2205POPC   C1B30187   3.177  23.421   8.958
 2205POPC   C2B30188   3.175  23.482   8.527
 2205POPC   C3B30189   3.328  23.432   8.127
 2205POPC   C4B30190   3.123  23.446   7.735
 2206POPC   NC330191  34.257  40.845   9.483
 2206POPC   PO430192  34.837  40.541   9.733
 2206POPC   GL130193  34.693  40.587   9.274
 2206POPC   GL230194  34.389  40.615   9.049
 2206POPC   C1A30195  34.815  40.779   8.855
 2206POPC   D2A30196  34.722  41.046   8.498
 2206POPC   C3A30197  34.600  40.915   8.099
 2206POPC   C4A30198  34.740  40.608   7.842
 2206POPC   C1B30199  34.310  41.011   8.822
 2206POPC   C2B30200  34.242  41.177   8.397
 2206POPC   C3B30201  34.095  41.061   8.035
 2206POPC   C4B30202  34.304  41.047   7.644
 2207POPC   NC330203  30.660  12.541   9.441
 2207POPC   PO430204  30.645  11.884   9.420
 2207POPC   GL130205  30.563  12.164   9.095
 2207POPC   GL230206  30.914  12.296   9.085
 2207POPC   C1A30207  30.418  11.940   8.733
 2207POPC   D2A30208  30.655  11.745   8.408
 2207POPC   C3A30209  30.803  11.967   8.091
 2207POPC   C4A30210  30.840  12.268   7.797
 2207POPC   C1B30211  30.949  12.026   8.764
 2207POPC   C2B30212  31.044  12.234   8.430
 2207POPC   C3B30213  31.273  12.219   8.095
 2207POPC   C4B30214  31.322  12.052   7.734
 2208POPC   NC330215  10.181  22.536   9.369
 2208POPC   PO430216   9.542  22.873   9.527
 2208POPC   GL130217   9.705  22.741   9.164
 2208POPC   GL230218   9.916  23.032   9.060
 2208POPC   C1A30219   9.643  22.675   8.732
 2208POPC   D2A30220   9.791  23.007   8.477
 2208POPC   C3A30221   9.876  22.912   8.055
 2208POPC   C4A30222   9.722  22.996   7.643
 2208POPC   C1B30223  10.150  22.761   8.758
 2208POPC   C2B30224  10.020  22.500   8.401
 2208POPC   C3B30225  10.183  22.445   7.985
 2208POPC   C4B30226  10.074  22.616   7.613
 2209POPC   NC330227  36.612   5.338   9.542
 2209POPC   PO430228  36.890   4.765   9.680
 2209POPC   GL130229  36.846   4.944   9.250
 2209POPC   GL230230  36.972   5.296   9.173
 2209POPC   C1A30231  36.860   4.975   8.775
 2209POPC   D2A30232  36.984   4.763   8.412
 2209POPC   C3A30233  36.950   4.828   7.960
 2209POPC   C4A30234  37.043   5.101   7.612
 2209POPC   C1B30235  36.841   5.474   8.751
 2209POPC   C2B30236  36.947   5.279   8.351
 2209POPC   C3B30237  37.194   5.373   8.006
 2209POPC   C4B30238  37.075   5.602   7.656
 2210POPC   NC330239   9.072  32.834   9.676
 2210POPC   PO430240   9.116  33.262   9.194
 2210POPC   GL130241   8.942  32.886   9.112
 2210POPC   GL230242   8.583  32.963   9.187
 2210POPC   C1A30243   8.952  32.908   8.672
 2210POPC   D2A30244   9.148  33.147   8.358
 2210POPC   C3A30245   8.988  33.024   7.989
 2210POPC   C4A30246   8.882  32.639   7.788
 2210POPC   C1B30247   8.525  33.195   8.777
 2210POPC   C2B30248   8.575  33.223   8.336
 2210POPC   C3B30249   8.447  33.448   7.998
 2210POPC   C4B30250   8.801  33.454   7.749
 2211POPC   NC330251   8.839  17.083   9.435
 2211POPC   PO430252   9.055  17.779   9.440
 2211POPC   GL130253   8.922  17.711   9.087
 2211POPC   GL230254   8.711  17.439   9.073
 2211POPC   C1A30255   9.091  17.636   8.709
 2211POPC   D2A30256   8.966  17.782   8.343
 2211POPC   C3A30257   9.182  17.508   8.112
 2211POPC   C4A30258   9.303  17.615   7.743
 2211POPC   C1B30259   8.583  17.656   8.687
 2211POPC   C2B30260   8.527  17.498   8.256
 2211POPC   C3B30261   8.736  17.420   7.883
 2211POPC   C4B30262   8.732  17.225   7.508
 2212POPC   NC330263  35.773  24.310   9.552
 2212POPC   PO430264  36.467  24.447   9.459
 2212POPC   GL130265  36.137  24.423   9.137
 2212POPC   GL230266  35.820  24.631   9.163
 2212POPC   C1A30267  36.194  24.634   8.738
 2212POPC   D2A30268  36.424  24.758   8.362
 2212POPC   C3A30269  36.218  24.665   7.980
 2212POPC   C4A30270  36.031  24.280   7.814
 2212POPC   C1B30271  35.657  24.605   8.787
 2212POPC   C2B30272  35.825  24.549   8.394
 2212POPC   C3B30273  35.701  24.606   7.996
 2212POPC   C4B30274  35.873  24.729   7.571
 2213POPC   NC330275   0.173  23.883   9.557
 2213POPC   PO430276   0.625  23.473   9.778
 2213POPC   GL130277   0.540  23.626   9.225
 2213POPC   GL230278   0.326  23.852   9.095
 2213POPC   C1A30279   0.360  23.517   8.755
 2213POPC   D2A30280   0.187  23.785   8.442
 2213POPC   C3A30281   0.351  23.739   8.022
 2213POPC   C4A30282   0.411  23.549   7.612
 2213POPC   C1B30283   0.587  24.002   8.749
 2213POPC   C2B30284   0.524  24.175   8.376
 2213POPC   C3B30285   0.708  24.110   7.999
 2213POPC   C4B30286   0.710  24.003   7.587
 2214POPC   NC330287   2.919  30.798   9.451
 2214POPC   PO430288   2.414  30.462   9.304
 2214POPC   GL130289   2.465  30.867   9.110
 2214POPC   GL230290   2.737  30.701   8.988
 2214POPC   C1A30291   2.516  30.994   8.657
 2214POPC   D2A30292   2.761  30.672   8.467
 2214POPC   C3A30293   2.555  30.577   8.113
 2214POPC   C4A30294   2.521  30.764   7.723
 2214POPC   C1B30295   3.001  31.004   8.819
 2214POPC   C2B30296   2.997  31.120   8.396
 2214POPC   C3B30297   2.941  30.892   8.005
 2214POPC   C4B30298   2.979  30.510   7.709
 2215POPC   NC330299  42.910  34.441   9.769
 2215POPC   PO430300  43.069  34.916   9.298
 2215POPC   GL130301  43.209  34.539   9.112
 2215POPC   GL230302  43.601  34.389   9.167
 2215POPC   C1A30303  43.032  34.572   8.703
 2215POPC   D2A30304  42.902  34.776   8.309
 2215POPC   C3A30305  43.064  34.630   7.922
 2215POPC   C4A30306  43.059  34.643   7.472
 2215POPC   C1B30307  43.558  34.528   8.745
 2215POPC   C2B30308  43.391  34.530   8.339
 2215POPC   C3B30309  43.602  34.526   7.985
 2215POPC   C4B30310  43.555  34.691   7.593
 2216POPC   NC330311  42.576   0.021   9.326
 2216POPC   PO430312  42.487   0.718   9.401
 2216POPC   GL130313  42.515   0.456   9.061
 2216POPC   GL230314  42.185   0.348   9.129
 2216POPC   C1A30315  42.423   0.216   8.689
 2216POPC   D2A30316  42.427   0.090   8.269
 2216POPC   C3A30317  42.376   0.418   8.008
 2216POPC   C4A30318  42.485   0.665   7.649
 2216POPC   C1B30319  41.908   0.186   8.842
 2216POPC   C2B30320  41.923   0.234   8.428
 2216POPC   C3B30321  41.937   0.080   8.018
 2216POPC   C4B30322  42.140   0.171   7.632
 2217POPC   NC330323  37.184   5.138   9.680
 2217POPC   PO430324  37.865   4.967   9.589
 2217POPC   GL130325  37.696   5.053   9.201
 2217POPC   GL230326  37.369   4.963   9.235
 2217POPC   C1A30327  37.706   4.864   8.804
 2217POPC   D2A30328  37.766   4.916   8.405
 2217POPC   C3A30329  37.414   4.944   8.169
 2217POPC   C4A30330  37.522   5.023   7.751
 2217POPC   C1B30331  37.317   5.185   8.820
 2217POPC   C2B30332  37.465   5.391   8.447
 2217POPC   C3B30333  37.772   5.340   8.094
 2217POPC   C4B30334  37.926   5.333   7.648
 2218POPC   NC330335  18.799  27.542   9.654
 2218POPC   PO430336  19.009  26.984   9.440
 2218POPC   GL130337  19.130  27.427   9.245
 2218POPC   GL230338  18.921  27.754   9.198
 2218POPC   C1A30339  19.153  27.541   8.798
 2218POPC   D2A30340  19.276  27.608   8.385
 2218POPC   C3A30341  19.090  27.373   8.062
 2218POPC   C4A30342  19.012  27.593   7.666
 2218POPC   C1B30343  18.704  27.783   8.813
 2218POPC   C2B30344  18.764  27.636   8.377
 2218POPC   C3B30345  18.968  27.884   8.074
 2218POPC   C4B30346  18.892  28.103   7.714
 2219POPC   NC330347  33.327  33.525   9.559
 2219POPC   PO430348  32.672  33.834   9.654
 2219POPC   GL130349  32.894  33.804   9.259
 2219POPC   GL230350  33.215  33.808   9.157
 2219POPC   C1A30351  32.797  33.740   8.826
 2219POPC   D2A30352  32.677  33.934   8.415
 2219POPC   C3A30353  32.831  33.689   8.016
 2219POPC   C4A30354  32.576  33.444   7.709
 2219POPC   C1B30355  33.319  33.617   8.770
 2219POPC   C2B30356  33.229  33.437   8.354
 2219POPC   C3B30357  33.435  33.602   7.979
 2219POPC   C4B30358  33.232  33.914   7.769
 2220POPC   NC330359  25.488  15.654   9.785
 2220POPC   PO430360  25.014  16.194   9.598
 2220POPC   GL130361  25.216  16.244   9.192
 2220POPC   GL230362  25.164  15.946   8.992
 2220POPC   C1A30363  25.123  16.409   8.762
 2220POPC   D2A30364  25.235  16.453   8.332
 2220POPC   C3A30365  24.940  16.285   8.034
 2220POPC   C4A30366  25.097  16.039   7.706
 2220POPC   C1B30367  25.389  15.668   8.720
 2220POPC   C2B30368  25.585  15.683   8.346
 2220POPC   C3B30369  25.339  15.662   8.005
 2220POPC   C4B30370  25.415  15.477   7.652
 2221POPC   NC330371  23.309   5.171   9.755
 2221POPC   PO430372  23.936   5.059   9.522
 2221POPC   GL130373  23.571   5.246   9.301
 2221POPC   GL230374  23.500   4.911   9.244
 2221POPC   C1A30375  23.588   5.426   8.885
 2221POPC   D2A30376  23.838   5.273   8.537
 2221POPC   C3A30377  23.812   5.404   8.130
 2221POPC   C4A30378  23.734   5.018   7.941
 2221POPC   C1B30379  23.653   4.863   8.851
 2221POPC   C2B30380  23.513   4.823   8.446
 2221POPC   C3B30381  23.438   4.614   8.074
 2221POPC   C4B30382  23.307   4.812   7.718
 2222POPC   NC330383  42.920  25.049   9.425
 2222POPC   PO430384  43.490  25.371   9.538
 2222POPC   GL130385  43.325  25.283   9.132
 2222POPC   GL230386  43.196  25.616   9.104
 2222POPC   C1A30387  43.263  25.042   8.731
 2222POPC   D2A30388  42.956  24.967   8.357
 2222POPC   C3A30389  43.035  25.147   7.946
 2222POPC   C4A30390  43.371  25.144   7.708
 2222POPC   C1B30391  43.022  25.489   8.708
 2222POPC   C2B30392  43.246  25.391   8.338
 2222POPC   C3B30393  43.307  25.578   7.970
 2222POPC   C4B30394  42.941  25.638   7.766
 2223POPC   NC330395  41.734  19.856   9.434
 2223POPC   PO430396  41.181  19.531   9.443
 2223POPC   GL130397  41.393  19.733   9.089
 2223POPC   GL230398  41.410  20.130   9.123
 2223POPC   C1A30399  41.434  19.824   8.678
 2223POPC   D2A30400  41.597  19.696   8.305
 2223POPC   C3A30401  41.376  19.874   7.987
 2223POPC   C4A30402  41.244  19.642   7.622
 2223POPC   C1B30403  41.791  20.136   8.858
 2223POPC   C2B30404  41.777  20.171   8.425
 2223POPC   C3B30405  41.829  20.139   8.014
 2223POPC   C4B30406  41.792  19.803   7.702
 2224POPC   NC330407  39.555  28.306   9.776
 2224POPC   PO430408  38.993  28.117   9.658
 2224POPC   GL130409  39.094  28.348   9.272
 2224POPC   GL230410  39.425  28.526   9.329
 2224POPC   C1A30411  38.912  28.370   8.835
 2224POPC   D2A30412  38.877  28.137   8.428
 2224POPC   C3A30413  39.055  28.306   8.005
 2224POPC   C4A30414  39.453  28.224   7.735
 2224POPC   C1B30415  39.439  28.486   8.890
 2224POPC   C2B30416  39.625  28.521   8.485
 2224POPC   C3B30417  39.547  28.591   8.072
 2224POPC   C4B30418  39.782  28.735   7.711
 2225POPC   NC330419  28.143   9.342   9.391
 2225POPC   PO430420  28.336   8.755   9.774
 2225POPC   GL130421  28.459   8.913   9.309
 2225POPC   GL230422  28.633   9.267   9.236
 2225POPC   C1A30423  28.391   8.746   8.852
 2225POPC   D2A30424  28.512   8.736   8.395
 2225POPC   C3A30425  28.211   8.823   8.043
 2225POPC   C4A30426  28.083   9.238   7.829
 2225POPC   C1B30427  28.432   9.243   8.814
 2225POPC   C2B30428  28.290   9.207   8.399
 2225POPC   C3B30429  28.554   9.188   8.073
 2225POPC   C4B30430  28.552   9.218   7.648
 2226POPC   NC330431  17.546  12.773   9.454
 2226POPC   PO430432  17.799  13.225   8.957
 2226POPC   GL130433  17.423  12.968   9.005
 2226POPC   GL230434  17.157  12.672   9.137
 2226POPC   C1A30435  17.495  12.597   8.759
 2226POPC   D2A30436  17.288  12.548   8.357
 2226POPC   C3A30437  17.592  12.561   8.033
 2226POPC   C4A30438  17.654  12.951   7.880
 2226POPC   C1B30439  17.023  12.784   8.756
 2226POPC   C2B30440  17.143  13.039   8.423
 2226POPC   C3B30441  17.146  12.962   7.987
 2226POPC   C4B30442  17.270  12.667   7.675
 2227POPC   NC330443  42.825  41.274   9.398
 2227POPC   PO430444  42.234  41.642   9.494
 2227POPC   GL130445  42.364  41.435   9.134
 2227POPC   GL230446  42.065  41.237   9.102
 2227POPC   C1A30447  42.495  41.574   8.700
 2227POPC   D2A30448  42.315  41.887   8.378
 2227POPC   C3A30449  42.373  41.712   7.960
 2227POPC   C4A30450  42.433  41.285   7.763
 2227POPC   C1B30451  42.211  41.164   8.693
 2227POPC   C2B30452  42.324  41.296   8.275
 2227POPC   C3B30453  41.989  41.347   7.953
 2227POPC   C4B30454  41.937  41.500   7.543
 2228POPC   NC330455  33.656  26.165   9.761
 2228POPC   PO430456  33.799  25.499   9.672
 2228POPC   GL130457  33.895  25.841   9.311
 2228POPC   GL230458  33.597  26.056   9.260
 2228POPC   C1A30459  33.963  26.096   8.876
 2228POPC   D2A30460  33.831  26.135   8.400
 2228POPC   C3A30461  34.104  26.047   7.999
 2228POPC   C4A30462  34.098  26.013   7.492
 2228POPC   C1B30463  33.464  25.957   8.845
 2228POPC   C2B30464  33.281  25.972   8.438
 2228POPC   C3B30465  33.432  26.026   8.063
 2228POPC   C4B30466  33.656  26.064   7.722
 2229POPC   NC330467   0.594  39.133   9.509
 2229POPC   PO430468   0.287  39.706   9.778
 2229POPC   GL130469   0.240  39.437   9.327
 2229POPC   GL230470   0.535  39.488   9.127
 2229POPC   C1A30471   0.085  39.184   8.932
 2229POPC   D2A30472   0.030  39.160   8.430
 2229POPC   C3A30473   0.376  39.204   8.111
 2229POPC   C4A30474   0.386  39.103   7.623
 2229POPC   C1B30475   0.803  39.562   8.763
 2229POPC   C2B30476   0.776  39.422   8.335
 2229POPC   C3B30477   0.735  39.649   7.927
 2229POPC   C4B30478   0.600  39.539   7.519
 2230POPC   NC330479  43.539   4.121   9.497
 2230POPC   PO430480  43.101   4.566   9.723
 2230POPC   GL130481  43.109   4.297   9.280
 2230POPC   GL230482  42.908   4.479   9.165
 2230POPC   C1A30483  43.253   4.204   8.848
 2230POPC   D2A30484  43.253   4.400   8.444
 2230POPC   C3A30485  43.319   4.226   8.028
 2230POPC   C4A30486  43.095   3.954   7.762
 2230POPC   C1B30487  42.676   4.591   8.805
 2230POPC   C2B30488  42.808   4.682   8.392
 2230POPC   C3B30489  43.062   4.670   8.052
 2230POPC   C4B30490  42.999   4.449   7.684
 2231POPC   NC330491  29.750   7.481   9.414
 2231POPC   PO430492  30.258   7.155   9.279
 2231POPC   GL130493  30.219   7.489   9.040
 2231POPC   GL230494  29.885   7.530   8.943
 2231POPC   C1A30495  30.212   7.420   8.599
 2231POPC   D2A30496  29.896   7.511   8.358
 2231POPC   C3A30497  30.107   7.594   8.019
 2231POPC   C4A30498  30.185   7.280   7.744
 2231POPC   C1B30499  29.612   7.253   8.731
 2231POPC   C2B30500  29.611   7.069   8.304
 2231POPC   C3B30501  29.710   7.153   7.869
 2231POPC   C4B30502  29.775   7.551   7.625
 2232POPC   NC330503   3.579  26.108   9.397
 2232POPC   PO430504   3.089  26.366   9.771
 2232POPC   GL130505   3.094  26.015   9.281
 2232POPC   GL230506   3.185  25.746   9.217
 2232POPC   C1A30507   3.452  25.861   8.826
 2232POPC   D2A30508   3.639  25.748   8.399
 2232POPC   C3A30509   3.929  25.942   8.114
 2232POPC   C4A30510   3.859  26.232   7.769
 2232POPC   C1B30511   3.006  26.071   8.804
 2232POPC   C2B30512   3.261  26.214   8.452
 2232POPC   C3B30513   3.413  26.044   8.051
 2232POPC   C4B30514   3.261  25.996   7.641
 2233POPC   NC330515  23.842  33.534   9.565
 2233POPC   PO430516  23.475  34.119   9.707
 2233POPC   GL130517  23.762  33.955   9.310
 2233POPC   GL230518  23.751  34.117   9.024
 2233POPC   C1A30519  23.808  33.622   8.906
 2233POPC   D2A30520  23.855  33.750   8.445
 2233POPC   C3A30521  23.791  33.482   8.069
 2233POPC   C4A30522  23.718  33.648   7.653
 2233POPC   C1B30523  23.433  33.915   8.713
 2233POPC   C2B30524  23.349  33.683   8.333
 2233POPC   C3B30525  23.531  33.930   8.014
 2233POPC   C4B30526  23.461  34.126   7.583
 2234POPC   NC330527  13.886   1.729   9.409
 2234POPC   PO430528  14.599   1.730   9.443
 2234POPC   GL130529  14.308   1.893   9.167
 2234POPC   GL230530  14.278   2.258   9.204
 2234POPC   C1A30531  14.401   1.881   8.760
 2234POPC   D2A30532  14.602   2.129   8.480
 2234POPC   C3A30533  14.490   1.914   8.131
 2234POPC   C4A30534  14.620   2.061   7.778
 2234POPC   C1B30535  13.984   2.194   8.847
 2234POPC   C2B30536  14.035   2.071   8.443
 2234POPC   C3B30537  13.881   1.942   8.099
 2234POPC   C4B30538  14.119   1.928   7.770
 2235POPC   NC330539  24.337  28.991   9.477
 2235POPC   PO430540  24.654  29.518   9.578
 2235POPC   GL130541  24.277  29.474   9.318
 2235POPC   GL230542  24.490  29.275   9.062
 2235POPC   C1A30543  24.158  29.594   8.880
 2235POPC   D2A30544  24.382  29.433   8.525
 2235POPC   C3A30545  24.372  29.456   8.079
 2235POPC   C4A30546  24.405  29.049   7.844
 2235POPC   C1B30547  24.658  29.008   8.692
 2235POPC   C2B30548  24.747  28.869   8.248
 2235POPC   C3B30549  24.868  28.837   7.818
 2235POPC   C4B30550  24.899  28.957   7.394
 2236POPC   NC330551  27.876  18.839   9.635
 2236POPC   PO430552  27.522  19.412   9.545
 2236POPC   GL130553  27.577  19.200   9.201
 2236POPC   GL230554  27.914  19.180   9.202
 2236POPC   C1A30555  27.615  19.086   8.772
 2236POPC   D2A30556  27.385  19.155   8.417
 2236POPC   C3A30557  27.622  19.066   8.079
 2236POPC   C4A30558  27.676  19.216   7.691
 2236POPC   C1B30559  28.083  19.339   8.818
 2236POPC   C2B30560  28.232  19.230   8.398
 2236POPC   C3B30561  28.075  19.347   7.992
 2236POPC   C4B30562  28.042  19.558   7.592
 2237POPC   NC330563  25.145  27.581   9.644
 2237POPC   PO430564  25.403  27.024   9.817
 2237POPC   GL130565  25.480  27.457   9.316
 2237POPC   GL230566  25.623  27.283   9.009
 2237POPC   C1A30567  25.273  27.639   8.919
 2237POPC   D2A30568  25.238  27.684   8.442
 2237POPC   C3A30569  25.068  27.341   8.125
 2237POPC   C4A30570  24.922  27.455   7.678
 2237POPC   C1B30571  25.485  27.228   8.596
 2237POPC   C2B30572  25.581  27.410   8.188
 2237POPC   C3B30573  25.420  27.542   7.829
 2237POPC   C4B30574  25.364  27.220   7.515
 2238POPC   NC330575  31.346  44.845   9.533
 2238POPC   PO430576  31.341  44.177   9.457
 2238POPC   GL130577  31.425  44.508   9.141
 2238POPC   GL230578  31.124  44.618   9.079
 2238POPC   C1A30579  31.564  44.634   8.721
 2238POPC   D2A30580  31.816  44.843   8.352
 2238POPC   C3A30581  31.722  44.587   8.012
 2238POPC   C4A30582  31.337  44.521   7.842
 2238POPC   C1B30583  31.138  44.884   8.714
 2238POPC   C2B30584  31.320  44.868   8.292
 2238POPC   C3B30585  31.452   0.040   7.887
 2238POPC   C4B30586  31.158  44.896   7.554
 2239POPC   NC330587   5.229  34.195   9.490
 2239POPC   PO430588   4.884  33.568   9.466
 2239POPC   GL130589   5.130  33.742   9.154
 2239POPC   GL230590   4.982  34.073   9.069
 2239POPC   C1A30591   5.214  33.573   8.757
 2239POPC   D2A30592   4.943  33.535   8.390
 2239POPC   C3A30593   5.084  33.782   8.034
 2239POPC   C4A30594   5.023  33.741   7.583
 2239POPC   C1B30595   5.396  34.066   8.841
 2239POPC   C2B30596   5.460  33.908   8.425
 2239POPC   C3B30597   5.512  34.094   8.037
 2239POPC   C4B30598   5.416  34.070   7.592
 2240POPC   NC330599   0.095  15.475   9.467
 2240POPC   PO430600   0.681  15.393   9.739
 2240POPC   GL130601   0.521  15.245   9.209
 2240POPC   GL230602   0.216  15.283   9.025
 2240POPC   C1A30603   0.650  15.374   8.756
 2240POPC   D2A30604   0.408  15.432   8.398
 2240POPC   C3A30605   0.665  15.421   8.058
 2240POPC   C4A30606   0.595  15.335   7.643
 2240POPC   C1B30607   0.316  15.000   8.743
 2240POPC   C2B30608   0.157  14.978   8.344
 2240POPC   C3B30609   0.360  14.999   7.983
 2240POPC   C4B30610   0.280  14.898   7.588
 2241POPC   NC330611  10.940   1.460   9.651
 2241POPC   PO430612  10.277   1.290   9.591
 2241POPC   GL130613  10.558   1.338   9.254
 2241POPC   GL230614  10.696   1.003   9.229
 2241POPC   C1A30615  10.390   1.250   8.837
 2241POPC   D2A30616  10.515   1.372   8.425
 2241POPC   C3A30617  10.576   1.153   8.068
 2241POPC   C4A30618  10.462   1.331   7.730
 2241POPC   C1B30619  10.734   0.844   8.802
 2241POPC   C2B30620  10.940   0.927   8.400
 2241POPC   C3B30621  10.985   0.877   7.960
 2241POPC   C4B30622  10.695   0.886   7.623
 2242POPC   NC330623  34.141  44.229   9.429
 2242POPC   PO430624  34.646  44.442   9.849
 2242POPC   GL130625  34.659  44.268   9.375
 2242POPC   GL230626  34.569  43.911   9.306
 2242POPC   C1A30627  34.543  44.199   8.877
 2242POPC   D2A30628  34.569  44.348   8.410
 2242POPC   C3A30629  34.862  44.218   8.122
 2242POPC   C4A30630  34.829  43.987   7.740
 2242POPC   C1B30631  34.636  43.676   8.908
 2242POPC   C2B30632  34.619  43.706   8.438
 2242POPC   C3B30633  34.612  43.593   7.989
 2242POPC   C4B30634  34.974  43.496   7.723
 2243POPC   NC330635  17.272   2.004   9.624
 2243POPC   PO430636  17.953   1.845   9.438
 2243POPC   GL130637  17.638   1.865   9.159
 2243POPC   GL230638  17.419   2.150   9.130
 2243POPC   C1A30639  17.610   1.888   8.730
 2243POPC   D2A30640  17.434   2.148   8.458
 2243POPC   C3A30641  17.599   1.943   8.131
 2243POPC   C4A30642  17.424   2.012   7.765
 2243POPC   C1B30643  17.167   1.791   8.968
 2243POPC   C2B30644  17.066   1.775   8.554
 2243POPC   C3B30645  17.079   1.848   8.113
 2243POPC   C4B30646  16.954   1.631   7.718
 2244POPC   NC330647  23.367  22.164   9.545
 2244POPC   PO430648  22.746  22.447   9.512
 2244POPC   GL130649  22.932  22.440   9.140
 2244POPC   GL230650  23.258  22.591   9.220
 2244POPC   C1A30651  22.814  22.231   8.716
 2244POPC   D2A30652  22.896  22.041   8.293
 2244POPC   C3A30653  22.701  22.199   7.917
 2244POPC   C4A30654  22.551  22.128   7.501
 2244POPC   C1B30655  23.287  22.422   8.788
 2244POPC   C2B30656  23.131  22.492   8.382
 2244POPC   C3B30657  23.221  22.357   7.953
 2244POPC   C4B30658  23.032  22.315   7.538
 2245POPC   NC330659  40.034  42.872   9.589
 2245POPC   PO430660  40.077  42.219   9.462
 2245POPC   GL130661  39.954  42.400   9.077
 2245POPC   GL230662  40.201  42.594   8.976
 2245POPC   C1A30663  39.846  42.381   8.658
 2245POPC   D2A30664  40.123  42.489   8.312
 2245POPC   C3A30665  39.937  42.409   7.929
 2245POPC   C4A30666  39.643  42.090   7.841
 2245POPC   C1B30667  40.379  42.248   8.751
 2245POPC   C2B30668  40.440  42.029   8.360
 2245POPC   C3B30669  40.181  41.975   8.002
 2245POPC   C4B30670  40.311  42.208   7.618
 2246POPC   NC330671  24.558  29.988   9.570
 2246POPC   PO430672  23.910  29.819   9.487
 2246POPC   GL130673  24.224  29.980   9.189
 2246POPC   GL230674  24.599  29.802   9.118
 2246POPC   C1A30675  24.357  30.046   8.749
 2246POPC   D2A30676  24.192  29.902   8.375
 2246POPC   C3A30677  24.238  30.153   8.021
 2246POPC   C4A30678  24.236  29.824   7.764
 2246POPC   C1B30679  24.871  29.970   8.826
 2246POPC   C2B30680  24.705  29.846   8.419
 2246POPC   C3B30681  24.696  29.904   8.021
 2246POPC   C4B30682  24.713  29.879   7.614
 2247POPC   NC330683  21.595  12.329   9.734
 2247POPC   PO430684  22.205  12.008   9.727
 2247POPC   GL130685  22.172  12.224   9.276
 2247POPC   GL230686  22.475  12.072   9.088
 2247POPC   C1A30687  22.086  12.255   8.805
 2247POPC   D2A30688  21.877  12.092   8.418
 2247POPC   C3A30689  21.927  12.262   8.035
 2247POPC   C4A30690  22.115  12.048   7.723
 2247POPC   C1B30691  22.439  11.882   8.663
 2247POPC   C2B30692  22.354  12.009   8.217
 2247POPC   C3B30693  22.610  12.114   7.864
 2247POPC   C4B30694  22.657  12.118   7.376
 2248POPC   NC330695  38.663  29.755   9.646
 2248POPC   PO430696  38.107  30.112   9.464
 2248POPC   GL130697  38.420  29.930   9.216
 2248POPC   GL230698  38.676  30.180   9.255
 2248POPC   C1A30699  38.434  29.704   8.834
 2248POPC   D2A30700  38.457  29.545   8.410
 2248POPC   C3A30701  38.339  29.854   8.104
 2248POPC   C4A30702  38.021  29.756   7.849
 2248POPC   C1B30703  38.826  30.250   8.801
 2248POPC   C2B30704  38.640  30.195   8.355
 2248POPC   C3B30705  38.723  30.172   7.895
 2248POPC   C4B30706  38.553  30.198   7.452
 2249POPC   NC330707  17.028  28.903   9.372
 2249POPC   PO430708  16.534  29.313   9.601
 2249POPC   GL130709  16.634  29.310   9.175
 2249POPC   GL230710  16.561  28.958   9.094
 2249POPC   C1A30711  16.730  29.562   8.787
 2249POPC   D2A30712  16.879  29.429   8.353
 2249POPC   C3A30713  16.645  29.367   7.950
 2249POPC   C4A30714  16.555  28.951   7.710
 2249POPC   C1B30715  16.888  29.065   8.756
 2249POPC   C2B30716  16.998  28.916   8.347
 2249POPC   C3B30717  17.032  29.057   7.924
 2249POPC   C4B30718  17.299  29.227   7.622
 2250POPC   NC330719   8.576  17.783   9.485
 2250POPC   PO430720   8.881  18.400   9.663
 2250POPC   GL130721   8.789  18.215   9.227
 2250POPC   GL230722   8.927  18.510   9.039
 2250POPC   C1A30723   8.865  18.101   8.768
 2250POPC   D2A30724   9.104  18.270   8.436
 2250POPC   C3A30725   8.982  18.310   8.017
 2250POPC   C4A30726   8.907  17.912   7.849
 2250POPC   C1B30727   9.197  18.703   8.695
 2250POPC   C2B30728   9.422  18.615   8.267
 2250POPC   C3B30729   9.337  18.686   7.839
 2250POPC   C4B30730   9.045  18.560   7.533
 2251POPC   NC330731  19.534   9.168   9.695
 2251POPC   PO430732  20.003   8.703   9.469
 2251POPC   GL130733  19.794   8.978   9.133
 2251POPC   GL230734  19.497   9.217   9.165
 2251POPC   C1A30735  19.888   9.017   8.692
 2251POPC   D2A30736  19.913   8.790   8.297
 2251POPC   C3A30737  19.847   8.863   7.841
 2251POPC   C4A30738  19.978   8.662   7.418
 2251POPC   C1B30739  19.435   9.238   8.688
 2251POPC   C2B30740  19.651   9.264   8.270
 2251POPC   C3B30741  19.508   9.261   7.822
 2251POPC   C4B30742  19.095   9.140   7.627
 2252POPC   NC330743  10.861  10.404   9.321
 2252POPC   PO430744  11.522  10.607   9.427
 2252POPC   GL130745  11.289  10.777   9.080
 2252POPC   GL230746  10.975  10.935   9.119
 2252POPC   C1A30747  11.182  10.521   8.722
 2252POPC   D2A30748  11.473  10.259   8.471
 2252POPC   C3A30749  11.457  10.373   8.055
 2252POPC   C4A30750  11.203  10.279   7.716
 2252POPC   C1B30751  11.046  11.118   8.746
 2252POPC   C2B30752  11.251  10.940   8.417
 2252POPC   C3B30753  11.092  10.745   8.056
 2252POPC   C4B30754  11.256  10.819   7.670
 2253POPC   NC330755  12.345  15.848   9.538
 2253POPC   PO430756  11.881  16.289   9.637
 2253POPC   GL130757  11.991  16.058   9.219
 2253POPC   GL230758  12.274  16.240   9.148
 2253POPC   C1A30759  12.018  15.948   8.756
 2253POPC   D2A30760  12.276  15.913   8.349
 2253POPC   C3A30761  12.075  15.805   7.961
 2253POPC   C4A30762  11.882  16.013   7.641
 2253POPC   C1B30763  12.454  16.219   8.732
 2253POPC   C2B30764  12.514  16.346   8.283
 2253POPC   C3B30765  12.491  16.101   7.896
 2253POPC   C4B30766  12.368  15.876   7.533
 2254POPC   NC330767  31.640  42.124   9.674
 2254POPC   PO430768  31.300  42.689   9.525
 2254POPC   GL130769  31.329  42.295   9.252
 2254POPC   GL230770  31.642  42.327   9.211
 2254POPC   C1A30771  31.404  42.118   8.822
 2254POPC   D2A30772  31.465  42.347   8.406
 2254POPC   C3A30773  31.505  42.136   7.997
 2254POPC   C4A30774  31.604  41.871   7.668
 2254POPC   C1B30775  31.553  42.622   8.846
 2254POPC   C2B30776  31.818  42.729   8.482
 2254POPC   C3B30777  31.905  42.654   8.057
 2254POPC   C4B30778  31.667  42.554   7.712
 2255POPC   NC330779   1.132  15.589   9.702
 2255POPC   PO430780   1.478  16.172   9.554
 2255POPC   GL130781   1.234  15.912   9.296
 2255POPC   GL230782   1.402  15.633   9.156
 2255POPC   C1A30783   1.097  15.934   8.867
 2255POPC   D2A30784   1.222  16.175   8.531
 2255POPC   C3A30785   1.074  15.998   8.182
 2255POPC   C4A30786   1.158  16.049   7.754
 2255POPC   C1B30787   1.222  15.451   8.741
 2255POPC   C2B30788   1.129  15.506   8.325
 2255POPC   C3B30789   1.419  15.664   8.022
 2255POPC   C4B30790   1.574  15.504   7.655
 2256POPC   NC330791   4.301  31.940   9.273
 2256POPC   PO430792   4.139  31.349   9.685
 2256POPC   GL130793   4.321  31.394   9.234
 2256POPC   GL230794   4.671  31.512   9.156
 2256POPC   C1A30795   4.319  31.534   8.775
 2256POPC   D2A30796   4.416  31.759   8.404
 2256POPC   C3A30797   4.304  31.521   8.057
 2256POPC   C4A30798   4.446  31.620   7.671
 2256POPC   C1B30799   4.727  31.215   8.810
 2256POPC   C2B30800   4.511  31.199   8.426
 2256POPC   C3B30801   4.706  31.196   8.052
 2256POPC   C4B30802   4.455  31.126   7.724
 2257POPC   NC330803   3.656  37.611   9.545
 2257POPC   PO430804   3.255  38.090   9.744
 2257POPC   GL130805   3.337  37.973   9.303
 2257POPC   GL230806   3.669  37.959   9.163
 2257POPC   C1A30807   3.280  37.632   8.957
 2257POPC   D2A30808   3.416  37.398   8.570
 2257POPC   C3A30809   3.319  37.457   8.101
 2257POPC   C4A30810   3.292  37.684   7.669
 2257POPC   C1B30811   3.631  37.986   8.740
 2257POPC   C2B30812   3.757  37.747   8.375
 2257POPC   C3B30813   3.651  37.860   7.973
 2257POPC   C4B30814   3.848  38.143   7.704
 2258POPC   NC330815   3.314  31.965   9.404
 2258POPC   PO430816   3.984  32.224   9.471
 2258POPC   GL130817   3.674  32.359   9.147
 2258POPC   GL230818   3.426  32.624   9.224
 2258POPC   C1A30819   3.398  32.229   8.783
 2258POPC   D2A30820   3.458  32.011   8.385
 2258POPC   C3A30821   3.358  32.220   8.002
 2258POPC   C4A30822   3.680  32.299   7.684
 2258POPC   C1B30823   3.567  32.704   8.781
 2258POPC   C2B30824   3.388  32.614   8.369
 2258POPC   C3B30825   3.480  32.712   7.940
 2258POPC   C4B30826   3.344  32.626   7.496
 2259POPC   NC330827  23.958   7.584   9.688
 2259POPC   PO430828  23.466   7.229   9.638
 2259POPC   GL130829  23.627   7.411   9.232
 2259POPC   GL230830  23.810   7.753   9.215
 2259POPC   C1A30831  23.669   7.445   8.775
 2259POPC   D2A30832  23.856   7.363   8.373
 2259POPC   C3A30833  23.610   7.340   7.983
 2259POPC   C4A30834  23.516   7.651   7.659
 2259POPC   C1B30835  23.817   7.937   8.786
 2259POPC   C2B30836  24.045   7.869   8.404
 2259POPC   C3B30837  24.008   7.685   7.988
 2259POPC   C4B30838  23.964   7.849   7.584
 2260POPC   NC330839  32.180   8.207   9.791
 2260POPC   PO430840  32.012   8.717   9.533
 2260POPC   GL130841  32.226   8.445   9.209
 2260POPC   GL230842  32.027   8.150   9.136
 2260POPC   C1A30843  32.332   8.314   8.748
 2260POPC   D2A30844  32.469   8.430   8.315
 2260POPC   C3A30845  32.452   8.213   7.944
 2260POPC   C4A30846  32.300   8.443   7.628
 2260POPC   C1B30847  31.830   8.188   8.721
 2260POPC   C2B30848  31.948   8.423   8.363
 2260POPC   C3B30849  31.941   8.305   7.929
 2260POPC   C4B30850  31.969   8.045   7.492
 2261POPC   NC330851  40.915  18.483   9.300
 2261POPC   PO430852  40.330  18.121   9.394
 2261POPC   GL130853  40.442  18.416   9.072
 2261POPC   GL230854  40.680  18.204   8.924
 2261POPC   C1A30855  40.516  18.624   8.674
 2261POPC   D2A30856  40.395  18.407   8.319
 2261POPC   C3A30857  40.704  18.323   8.032
 2261POPC   C4A30858  40.762  18.389   7.616
 2261POPC   C1B30859  40.402  17.976   8.628
 2261POPC   C2B30860  40.510  17.845   8.207
 2261POPC   C3B30861  40.616  17.891   7.763
 2261POPC   C4B30862  40.605  17.869   7.318
 2262POPC   NC330863  44.794  35.680   9.391
 2262POPC   PO430864  44.753  35.005   9.524
 2262POPC   GL130865  44.876  35.213   9.178
 2262POPC   GL230866  44.568  35.346   9.065
 2262POPC   C1A30867  44.992  35.412   8.795
 2262POPC   D2A30868   0.029  35.241   8.388
 2262POPC   C3A30869  44.656  35.343   8.136
 2262POPC   C4A30870  44.477  35.423   7.702
 2262POPC   C1B30871  44.502  35.501   8.626
 2262POPC   C2B30872  44.344  35.753   8.248
 2262POPC   C3B30873  44.356  35.948   7.808
 2262POPC   C4B30874  44.292  35.800   7.365
 2263POPC   NC330875  30.973  27.932   9.455
 2263POPC   PO430876  30.710  27.244   9.489
 2263POPC   GL130877  30.668  27.534   9.174
 2263POPC   GL230878  30.445  27.322   9.000
 2263POPC   C1A30879  30.883  27.693   8.826
 2263POPC   D2A30880  30.789  27.889   8.439
 2263POPC   C3A30881  30.967  27.733   8.071
 2263POPC   C4A30882  30.930  27.593   7.630
 2263POPC   C1B30883  30.233  27.337   8.629
 2263POPC   C2B30884  30.450  27.526   8.303
 2263POPC   C3B30885  30.550  27.431   7.910
 2263POPC   C4B30886  30.351  27.093   7.754
 2264POPC   NC330887  17.005   1.043   9.700
 2264POPC   PO430888  17.350   1.542   9.613
 2264POPC   GL130889  17.087   1.350   9.257
 2264POPC   GL230890  16.713   1.252   9.281
 2264POPC   C1A30891  16.918   1.285   8.819
 2264POPC   D2A30892  16.581   1.042   8.579
 2264POPC   C3A30893  16.650   1.054   8.140
 2264POPC   C4A30894  17.018   1.138   7.853
 2264POPC   C1B30895  16.375   1.351   8.937
 2264POPC   C2B30896  16.150   1.349   8.502
 2264POPC   C3B30897  16.213   1.334   8.047
 2264POPC   C4B30898  16.532   1.324   7.728
 2265POPC   NC330899  37.018  34.813   9.485
 2265POPC   PO430900  36.855  34.177   9.341
 2265POPC   GL130901  36.653  34.569   9.193
 2265POPC   GL230902  36.951  34.599   9.023
 2265POPC   C1A30903  36.593  34.869   8.810
 2265POPC   D2A30904  36.741  34.913   8.366
 2265POPC   C3A30905  36.648  34.628   8.009
 2265POPC   C4A30906  36.593  34.664   7.540
 2265POPC   C1B30907  37.234  34.320   8.814
 2265POPC   C2B30908  37.383  34.484   8.455
 2265POPC   C3B30909  37.165  34.670   8.109
 2265POPC   C4B30910  37.075  34.607   7.686
 2266POPC   NC330911  24.771  44.473   9.727
 2266POPC   PO430912  24.248  44.885   9.692
 2266POPC   GL130913  24.367  44.634   9.334
 2266POPC   GL230914  24.072  44.568   9.154
 2266POPC   C1A30915  24.652  44.642   8.964
 2266POPC   D2A30916  24.760  44.832   8.546
 2266POPC   C3A30917  24.577  44.612   8.173
 2266POPC   C4A30918  24.535  44.396   7.760
 2266POPC   C1B30919  24.043  44.787   8.746
 2266POPC   C2B30920  24.103  44.870   8.292
 2266POPC   C3B30921  24.093  44.647   7.897
 2266POPC   C4B30922  24.010  44.794   7.458
 2267POPC   NC330923   9.448  41.047   9.814
 2267POPC   PO430924   9.987  40.985   9.341
 2267POPC   GL130925   9.804  40.726   9.030
 2267POPC   GL230926   9.555  40.499   9.185
 2267POPC   C1A30927   9.620  40.810   8.618
 2267POPC   D2A30928   9.559  40.904   8.190
 2267POPC   C3A30929   9.806  40.772   7.807
 2267POPC   C4A30930   9.917  40.474   7.442
 2267POPC   C1B30931   9.624  40.325   8.775
 2267POPC   C2B30932   9.583  40.343   8.329
 2267POPC   C3B30933   9.307  40.511   8.020
 2267POPC   C4B30934   9.341  40.720   7.633
 2268POPC   NC330935   6.813   8.704   9.717
 2268POPC   PO430936   6.246   8.992   9.608
 2268POPC   GL130937   6.527   8.901   9.259
 2268POPC   GL230938   6.721   8.596   9.218
 2268POPC   C1A30939   6.583   8.920   8.809
 2268POPC   D2A30940   6.514   9.162   8.431
 2268POPC   C3A30941   6.669   9.006   8.046
 2268POPC   C4A30942   6.733   9.157   7.630
 2268POPC   C1B30943   6.936   8.536   8.821
 2268POPC   C2B30944   6.761   8.609   8.429
 2268POPC   C3B30945   6.785   8.519   8.041
 2268POPC   C4B30946   7.084   8.668   7.735
 2269POPC   NC330947  40.296  40.792   9.603
 2269POPC   PO430948  39.686  41.016   9.446
 2269POPC   GL130949  39.805  40.769   9.085
 2269POPC   GL230950  40.095  40.598   9.176
 2269POPC   C1A30951  39.904  40.873   8.642
 2269POPC   D2A30952  39.646  40.841   8.279
 2269POPC   C3A30953  39.806  40.677   7.891
 2269POPC   C4A30954  39.990  40.862   7.543
 2269POPC   C1B30955  40.322  40.931   8.932
 2269POPC   C2B30956  40.409  40.914   8.469
 2269POPC   C3B30957  40.274  40.843   8.057
 2269POPC   C4B30958  40.426  41.059   7.718
 2270POPC   NC330959  14.192  19.620   9.283
 2270POPC   PO430960  14.114  20.307   9.186
 2270POPC   GL130961  14.385  20.023   8.977
 2270POPC   GL230962  14.455  19.667   8.855
 2270POPC   C1A30963  14.448  20.052   8.544
 2270POPC   D2A30964  14.387  19.830   8.183
 2270POPC   C3A30965  14.398  20.106   7.889
 2270POPC   C4A30966  14.590  19.959   7.538
 2270POPC   C1B30967  14.341  19.448   8.507
 2270POPC   C2B30968  14.603  19.322   8.178
 2270POPC   C3B30969  14.516  19.471   7.791
 2270POPC   C4B30970  14.169  19.703   7.702
 2271POPC   NC330971  23.094  11.300   9.498
 2271POPC   PO430972  22.424  11.118   9.609
 2271POPC   GL130973  22.553  11.360   9.264
 2271POPC   GL230974  22.625  11.068   9.059
 2271POPC   C1A30975  22.788  11.529   8.880
 2271POPC   D2A30976  22.974  11.554   8.451
 2271POPC   C3A30977  22.680  11.612   8.106
 2271POPC   C4A30978  22.747  11.336   7.782
 2271POPC   C1B30979  22.985  11.043   8.737
 2271POPC   C2B30980  23.127  11.091   8.281
 2271POPC   C3B30981  23.042  10.924   7.858
 2271POPC   C4B30982  22.732  10.934   7.474
 2272POPC   NC330983  11.359  31.183   9.520
 2272POPC   PO430984  10.966  31.695   9.525
 2272POPC   GL130985  11.198  31.566   9.179
 2272POPC   GL230986  11.134  31.213   9.076
 2272POPC   C1A30987  11.362  31.550   8.775
 2272POPC   D2A30988  11.632  31.672   8.443
 2272POPC   C3A30989  11.501  31.663   8.036
 2272POPC   C4A30990  11.331  31.357   7.778
 2272POPC   C1B30991  11.451  31.065   8.713
 2272POPC   C2B30992  11.530  31.181   8.258
 2272POPC   C3B30993  11.706  31.028   7.836
 2272POPC   C4B30994  11.606  31.156   7.394
 2273POPC   NC330995   7.504  31.962   9.469
 2273POPC   PO430996   7.648  32.641   9.466
 2273POPC   GL130997   7.428  32.378   9.187
 2273POPC   GL230998   7.352  32.607   9.009
 2273POPC   C1A30999   7.486  32.097   8.828
 2273POPC   D2A31000   7.582  32.152   8.399
 2273POPC   C3A31001   7.201  32.124   8.153
 2273POPC   C4A31002   7.371  31.937   7.771
 2273POPC   C1B31003   7.447  32.585   8.624
 2273POPC   C2B31004   7.474  32.668   8.273
 2273POPC   C3B31005   7.500  32.457   7.944
 2273POPC   C4B31006   7.467  32.393   7.550
 2274POPC   NC331007  32.582   4.458   9.461
 2274POPC   PO431008  31.917   4.310   9.556
 2274POPC   GL131009  32.187   4.260   9.195
 2274POPC   GL231010  32.280   4.588   9.089
 2274POPC   C1A31011  32.420   4.160   8.798
 2274POPC   D2A31012  32.515   3.999   8.369
 2274POPC   C3A31013  32.201   4.150   8.077
 2274POPC   C4A31014  32.117   4.030   7.668
 2274POPC   C1B31015  32.449   4.697   8.701
 2274POPC   C2B31016  32.437   4.571   8.276
 2274POPC   C3B31017  32.217   4.710   7.917
 2274POPC   C4B31018  32.150   4.589   7.487
 2275POPC   NC331019   1.608  24.873   9.739
 2275POPC   PO431020   2.209  25.251   9.537
 2275POPC   GL131021   2.237  25.284   9.122
 2275POPC   GL231022   2.380  24.952   9.110
 2275POPC   C1A31023   1.990  25.286   8.735
 2275POPC   D2A31024   1.801  25.181   8.315
 2275POPC   C3A31025   1.829  25.451   7.962
 2275POPC   C4A31026   1.679  25.195   7.619
 2275POPC   C1B31027   2.287  24.859   8.716
 2275POPC   C2B31028   2.342  25.127   8.368
 2275POPC   C3B31029   2.206  25.116   7.942
 2275POPC   C4B31030   2.150  25.330   7.544
 2276POPC   NC331031  39.972   5.701   9.597
 2276POPC   PO431032  40.592   5.947   9.464
 2276POPC   GL131033  40.316   5.766   9.169
 2276POPC   GL231034  39.974   5.890   9.118
 2276POPC   C1A31035  40.161   5.558   8.781
 2276POPC   D2A31036  39.856   5.617   8.450
 2276POPC   C3A31037  40.038   5.588   8.060
 2276POPC   C4A31038  40.169   5.648   7.661
 2276POPC   C1B31039  40.244   6.064   8.774
 2276POPC   C2B31040  40.254   5.949   8.355
 2276POPC   C3B31041  40.115   6.070   7.933
 2276POPC   C4B31042  39.761   6.179   7.665
 2277POPC   NC331043   9.939  25.621   9.343
 2277POPC   PO431044  10.501  25.959   9.580
 2277POPC   GL131045  10.633  25.914   9.167
 2277POPC   GL231046  10.382  25.669   9.137
 2277POPC   C1A31047  10.801  26.141   8.797
 2277POPC   D2A31048  10.670  26.016   8.427
 2277POPC   C3A31049  10.662  26.190   8.052
 2277POPC   C4A31050  10.636  25.971   7.676
 2277POPC   C1B31051  10.134  25.627   8.750
 2277POPC   C2B31052  10.230  25.784   8.381
 2277POPC   C3B31053  10.211  25.955   7.996
 2277POPC   C4B31054  10.157  25.824   7.581
 2278POPC   NC331055  27.284  35.363   9.467
 2278POPC   PO431056  27.935  35.012   9.384
 2278POPC   GL131057  27.644  35.264   9.086
 2278POPC   GL231058  27.286  35.120   9.036
 2278POPC   C1A31059  27.687  35.556   8.712
 2278POPC   D2A31060  27.916  35.613   8.268
 2278POPC   C3A31061  27.643  35.650   7.869
 2278POPC   C4A31062  27.500  35.468   7.428
 2278POPC   C1B31063  27.452  35.107   8.630
 2278POPC   C2B31064  27.489  35.319   8.278
 2278POPC   C3B31065  27.778  35.185   7.992
 2278POPC   C4B31066  27.617  35.038   7.666
 2279POPC   NC331067   5.624  38.961   9.886
 2279POPC   PO431068   5.185  39.317   9.461
 2279POPC   GL131069   5.159  39.171   9.077
 2279POPC   GL231070   4.962  38.926   9.180
 2279POPC   C1A31071   5.064  39.364   8.706
 2279POPC   D2A31072   4.807  39.443   8.341
 2279POPC   C3A31073   5.065  39.447   7.998
 2279POPC   C4A31074   5.206  39.144   7.709
 2279POPC   C1B31075   4.783  38.931   8.811
 2279POPC   C2B31076   4.971  38.946   8.444
 2279POPC   C3B31077   4.828  39.001   8.045
 2279POPC   C4B31078   4.737  38.952   7.625
 2280POPC   NC331079  26.183  26.321   9.902
 2280POPC   PO431080  25.721  26.053   9.525
 2280POPC   GL131081  25.887  26.263   9.245
 2280POPC   GL231082  26.242  26.219   9.251
 2280POPC   C1A31083  25.868  26.241   8.811
 2280POPC   D2A31084  25.926  25.954   8.469
 2280POPC   C3A31085  25.864  26.104   8.062
 2280POPC   C4A31086  25.990  26.181   7.625
 2280POPC   C1B31087  26.240  25.905   8.894
 2280POPC   C2B31088  26.396  25.744   8.505
 2280POPC   C3B31089  26.235  25.752   8.087
 2280POPC   C4B31090  26.398  25.821   7.682
 2281POPC   NC331091  20.564  10.283   9.653
 2281POPC   PO431092  20.155  10.935   9.494
 2281POPC   GL131093  20.345  10.646   9.172
 2281POPC   GL231094  20.725  10.594   9.151
 2281POPC   C1A31095  20.420  10.461   8.768
 2281POPC   D2A31096  20.537  10.550   8.342
 2281POPC   C3A31097  20.300  10.400   7.981
 2281POPC   C4A31098  20.305  10.702   7.670
 2281POPC   C1B31099  20.934  10.579   8.723
 2281POPC   C2B31100  21.038  10.472   8.290
 2281POPC   C3B31101  20.793  10.523   7.890
 2281POPC   C4B31102  20.839  10.169   7.590
 2282POPC   NC331103  32.990  21.572   9.577
 2282POPC   PO431104  33.174  20.914   9.589
 2282POPC   GL131105  33.014  21.212   9.184
 2282POPC   GL231106  33.030  21.590   9.095
 2282POPC   C1A31107  33.040  21.304   8.688
 2282POPC   D2A31108  32.843  21.558   8.330
 2282POPC   C3A31109  33.000  21.427   7.992
 2282POPC   C4A31110  32.825  21.286   7.650
 2282POPC   C1B31111  32.974  21.811   8.742
 2282POPC   C2B31112  33.275  21.834   8.404
 2282POPC   C3B31113  33.200  21.899   7.960
 2282POPC   C4B31114  33.185  21.673   7.557
 2283POPC   NC331115  41.044  27.859   9.338
 2283POPC   PO431116  40.832  27.308   9.391
 2283POPC   GL131117  40.982  27.503   9.007
 2283POPC   GL231118  40.780  27.787   8.885
 2283POPC   C1A31119  41.120  27.424   8.619
 2283POPC   D2A31120  40.987  27.687   8.315
 2283POPC   C3A31121  40.984  27.439   7.940
 2283POPC   C4A31122  40.657  27.536   7.700
 2283POPC   C1B31123  41.202  27.933   8.736
 2283POPC   C2B31124  41.338  28.224   8.451
 2283POPC   C3B31125  41.042  28.206   8.154
 2283POPC   C4B31126  40.917  27.934   7.862
 2284POPC   NC331127  41.560  30.964   9.494
 2284POPC   PO431128  41.433  30.290   9.488
 2284POPC   GL131129  41.562  30.543   9.156
 2284POPC   GL231130  41.854  30.662   9.163
 2284POPC   C1A31131  41.381  30.636   8.745
 2284POPC   D2A31132  41.543  30.500   8.342
 2284POPC   C3A31133  41.481  30.591   7.883
 2284POPC   C4A31134  41.537  31.047   7.810
 2284POPC   C1B31135  41.928  30.675   8.753
 2284POPC   C2B31136  42.071  30.403   8.443
 2284POPC   C3B31137  41.951  30.456   8.010
 2284POPC   C4B31138  41.915  30.737   7.636
 2285POPC   NC331139  24.940   7.521   9.513
 2285POPC   PO431140  25.322   6.961   9.569
 2285POPC   GL131141  25.287   7.233   9.181
 2285POPC   GL231142  25.460   7.569   9.168
 2285POPC   C1A31143  25.151   7.145   8.743
 2285POPC   D2A31144  25.346   7.092   8.312
 2285POPC   C3A31145  25.100   7.015   7.931
 2285POPC   C4A31146  25.355   7.000   7.519
 2285POPC   C1B31147  25.150   7.651   8.803
 2285POPC   C2B31148  25.067   7.521   8.349
 2285POPC   C3B31149  25.157   7.512   7.904
 2285POPC   C4B31150  24.988   7.756   7.576
 2286POPC   NC331151   0.880  26.533   9.348
 2286POPC   PO431152   1.397  26.775   9.742
 2286POPC   GL131153   1.345  26.878   9.247
 2286POPC   GL231154   1.360  26.520   9.171
 2286POPC   C1A31155   1.102  27.133   8.846
 2286POPC   D2A31156   1.175  27.042   8.433
 2286POPC   C3A31157   0.894  27.091   8.098
 2286POPC   C4A31158   1.180  27.236   7.800
 2286POPC   C1B31159   1.193  26.656   8.784
 2286POPC   C2B31160   1.353  26.579   8.377
 2286POPC   C3B31161   1.184  26.660   7.988
 2286POPC   C4B31162   1.414  26.539   7.630
 2287POPC   NC331163  11.536   8.857   9.324
 2287POPC   PO431164  10.936   9.111   9.622
 2287POPC   GL131165  11.049   9.071   9.179
 2287POPC   GL231166  11.093   8.683   9.130
 2287POPC   C1A31167  11.100   9.268   8.752
 2287POPC   D2A31168  11.281   9.138   8.340
 2287POPC   C3A31169  11.221   9.383   7.955
 2287POPC   C4A31170  11.433   9.240   7.574
 2287POPC   C1B31171  11.295   8.781   8.719
 2287POPC   C2B31172  11.404   8.619   8.297
 2287POPC   C3B31173  11.373   8.832   7.906
 2287POPC   C4B31174  11.308   8.729   7.457
 2288POPC   NC331175  21.886   1.386   9.488
 2288POPC   PO431176  21.165   1.352   9.415
 2288POPC   GL131177  21.270   1.098   9.068
 2288POPC   GL231178  21.623   1.158   9.052
 2288POPC   C1A31179  21.350   1.023   8.612
 2288POPC   D2A31180  21.573   1.147   8.232
 2288POPC   C3A31181  21.405   0.957   7.838
 2288POPC   C4A31182  21.584   0.693   7.502
 2288POPC   C1B31183  21.565   1.465   8.690
 2288POPC   C2B31184  21.278   1.555   8.342
 2288POPC   C3B31185  21.396   1.550   7.897
 2288POPC   C4B31186  21.150   1.684   7.538
 2289POPC   NC331187   9.299  14.577   9.835
 2289POPC   PO431188   8.729  14.294   9.662
 2289POPC   GL131189   8.953  14.392   9.260
 2289POPC   GL231190   9.270  14.508   9.331
 2289POPC   C1A31191   8.942  14.282   8.807
 2289POPC   D2A31192   8.736  14.487   8.482
 2289POPC   C3A31193   8.680  14.417   8.068
 2289POPC   C4A31194   8.911  14.456   7.741
 2289POPC   C1B31195   9.369  14.548   8.913
 2289POPC   C2B31196   9.253  14.630   8.498
 2289POPC   C3B31197   9.158  14.345   8.193
 2289POPC   C4B31198   9.390  14.327   7.843
 2290POPC   NC331199  25.433  35.592   9.474
 2290POPC   PO431200  24.918  35.168   9.472
 2290POPC   GL131201  25.179  35.279   9.138
 2290POPC   GL231202  25.086  35.624   9.084
 2290POPC   C1A31203  25.075  35.285   8.691
 2290POPC   D2A31204  25.069  35.499   8.287
 2290POPC   C3A31205  25.308  35.190   8.047
 2290POPC   C4A31206  25.244  34.976   7.672
 2290POPC   C1B31207  25.463  35.628   8.791
 2290POPC   C2B31208  25.533  35.755   8.330
 2290POPC   C3B31209  25.630  35.557   7.942
 2290POPC   C4B31210  25.670  35.605   7.465
 2291POPC   NC331211  22.851  13.256   9.544
 2291POPC   PO431212  23.093  13.907   9.524
 2291POPC   GL131213  23.078  13.592   9.179
 2291POPC   GL231214  22.756  13.406   9.053
 2291POPC   C1A31215  22.989  13.795   8.780
 2291POPC   D2A31216  23.093  13.888   8.355
 2291POPC   C3A31217  22.881  13.680   8.008
 2291POPC   C4A31218  22.989  13.700   7.578
 2291POPC   C1B31219  23.106  13.319   8.700
 2291POPC   C2B31220  23.180  13.335   8.252
 2291POPC   C3B31221  23.069  13.247   7.790
 2291POPC   C4B31222  22.636  13.355   7.590
 2292POPC   NC331223  26.472  15.111   9.742
 2292POPC   PO431224  25.808  14.980   9.471
 2292POPC   GL131225  26.194  15.116   9.308
 2292POPC   GL231226  26.261  14.830   9.218
 2292POPC   C1A31227  26.329  15.229   8.908
 2292POPC   D2A31228  26.606  15.198   8.608
 2292POPC   C3A31229  26.405  15.158   8.247
 2292POPC   C4A31230  26.341  15.407   7.890
 2292POPC   C1B31231  25.987  14.847   8.809
 2292POPC   C2B31232  25.930  14.933   8.355
 2292POPC   C3B31233  25.891  15.296   8.082
 2292POPC   C4B31234  25.923  15.276   7.635
 2293POPC   NC331235  12.401  19.019   9.569
 2293POPC   PO431236  11.853  19.467   9.432
 2293POPC   GL131237  11.998  19.105   9.246
 2293POPC   GL231238  12.320  19.237   9.136
 2293POPC   C1A31239  12.004  18.901   8.847
 2293POPC   D2A31240  12.140  18.961   8.409
 2293POPC   C3A31241  11.865  19.151   8.088
 2293POPC   C4A31242  11.915  19.024   7.650
 2293POPC   C1B31243  12.453  19.376   8.767
 2293POPC   C2B31244  12.262  19.542   8.410
 2293POPC   C3B31245  12.339  19.333   8.039
 2293POPC   C4B31246  12.248  19.413   7.617
 2294POPC   NC331247  17.724   9.000   9.463
 2294POPC   PO431248  17.227   9.502   9.481
 2294POPC   GL131249  17.462   9.315   9.112
 2294POPC   GL231250  17.812   9.357   9.031
 2294POPC   C1A31251  17.473   9.246   8.649
 2294POPC   D2A31252  17.501   9.333   8.202
 2294POPC   C3A31253  17.308   9.074   7.891
 2294POPC   C4A31254  17.495   8.636   7.882
 2294POPC   C1B31255  17.983   9.512   8.630
 2294POPC   C2B31256  17.969   9.515   8.145
 2294POPC   C3B31257  17.795   9.228   7.789
 2294POPC   C4B31258  17.956   9.019   7.419
 2295POPC   NC331259  44.120   3.302   9.677
 2295POPC   PO431260  44.723   3.532   9.488
 2295POPC   GL131261  44.537   3.325   9.162
 2295POPC   GL231262  44.238   3.521   9.221
 2295POPC   C1A31263  44.758   3.509   8.797
 2295POPC   D2A31264   0.038   3.679   8.495
 2295POPC   C3A31265  44.890   3.679   8.077
 2295POPC   C4A31266  44.989   3.484   7.689
 2295POPC   C1B31267  44.263   3.608   8.801
 2295POPC   C2B31268  44.385   3.370   8.437
 2295POPC   C3B31269  44.257   3.524   8.060
 2295POPC   C4B31270  44.493   3.597   7.704
 2296POPC   NC331271  35.069  25.014   9.649
 2296POPC   PO431272  35.505  25.488   9.486
 2296POPC   GL131273  35.478  25.329   9.078
 2296POPC   GL231274  35.160  25.191   9.181
 2296POPC   C1A31275  35.528  25.345   8.620
 2296POPC   D2A31276  35.462  24.968   8.377
 2296POPC   C3A31277  35.508  25.062   7.955
 2296POPC   C4A31278  35.451  25.460   7.806
 2296POPC   C1B31279  35.079  25.174   8.776
 2296POPC   C2B31280  35.058  25.309   8.379
 2296POPC   C3B31281  35.013  25.145   8.018
 2296POPC   C4B31282  35.110  25.096   7.625
 2297POPC   NC331283  10.841  22.557   9.653
 2297POPC   PO431284  10.393  22.979   9.350
 2297POPC   GL131285  10.759  23.008   9.086
 2297POPC   GL231286  10.716  23.321   8.953
 2297POPC   C1A31287  10.704  22.946   8.628
 2297POPC   D2A31288  10.433  22.784   8.331
 2297POPC   C3A31289  10.690  22.656   8.030
 2297POPC   C4A31290  10.841  22.876   7.711
 2297POPC   C1B31291  10.359  23.386   8.732
 2297POPC   C2B31292  10.528  23.502   8.353
 2297POPC   C3B31293  10.643  23.182   8.089
 2297POPC   C4B31294  10.334  22.968   7.844
 2298POPC   NC331295  31.896  22.509   9.559
 2298POPC   PO431296  32.023  23.204   9.372
 2298POPC   GL131297  31.613  23.170   9.179
 2298POPC   GL231298  31.627  22.835   9.242
 2298POPC   C1A31299  31.477  23.254   8.746
 2298POPC   D2A31300  31.588  22.962   8.401
 2298POPC   C3A31301  31.588  23.067   7.979
 2298POPC   C4A31302  31.629  22.767   7.607
 2298POPC   C1B31303  31.406  22.746   8.840
 2298POPC   C2B31304  31.214  22.609   8.419
 2298POPC   C3B31305  31.334  22.609   8.008
 2298POPC   C4B31306  31.093  22.664   7.619
 2299POPC   NC331307  28.818  16.277   9.813
 2299POPC   PO431308  28.423  16.802   9.554
 2299POPC   GL131309  28.494  16.762   9.109
 2299POPC   GL231310  28.837  16.686   8.958
 2299POPC   C1A31311  28.205  16.788   8.795
 2299POPC   D2A31312  27.999  16.773   8.424
 2299POPC   C3A31313  28.226  16.859   8.034
 2299POPC   C4A31314  28.203  17.004   7.583
 2299POPC   C1B31315  28.690  16.934   8.631
 2299POPC   C2B31316  28.709  16.880   8.191
 2299POPC   C3B31317  28.647  17.081   7.807
 2299POPC   C4B31318  28.713  17.125   7.336
 2300POPC   NC331319   3.441  14.675   9.400
 2300POPC   PO431320   3.922  14.552   9.784
 2300POPC   GL131321   3.892  14.526   9.283
 2300POPC   GL231322   3.604  14.277   9.123
 2300POPC   C1A31323   3.860  14.551   8.810
 2300POPC   D2A31324   3.644  14.292   8.499
 2300POPC   C3A31325   3.678  14.391   8.081
 2300POPC   C4A31326   3.598  14.477   7.670
 2300POPC   C1B31327   3.314  14.557   8.785
 2300POPC   C2B31328   3.163  14.491   8.337
 2300POPC   C3B31329   3.225  14.157   8.000
 2300POPC   C4B31330   3.152  14.231   7.556
 2301POPC   NC331331  19.633  42.439   9.429
 2301POPC   PO431332  18.978  42.367   9.607
 2301POPC   GL131333  19.168  42.287   9.206
 2301POPC   GL231334  19.261  42.617   9.113
 2301POPC   C1A31335  19.314  42.210   8.775
 2301POPC   D2A31336  19.105  42.402   8.415
 2301POPC   C3A31337  19.107  42.325   7.982
 2301POPC   C4A31338  19.225  42.046   7.652
 2301POPC   C1B31339  19.442  42.702   8.737
 2301POPC   C2B31340  19.428  42.787   8.330
 2301POPC   C3B31341  19.518  42.614   7.962
 2301POPC   C4B31342  19.341  42.586   7.584
 2302POPC   NC331343  42.534  10.889   9.461
 2302POPC   PO431344  42.102  10.454   9.520
 2302POPC   GL131345  42.156  10.671   9.154
 2302POPC   GL231346  42.471  10.527   9.101
 2302POPC   C1A31347  42.003  10.745   8.738
 2302POPC   D2A31348  42.125  10.553   8.357
 2302POPC   C3A31349  42.102  10.757   7.973
 2302POPC   C4A31350  42.058  10.462   7.601
 2302POPC   C1B31351  42.498  10.679   8.713
 2302POPC   C2B31352  42.614  10.457   8.338
 2302POPC   C3B31353  42.494  10.450   7.918
 2302POPC   C4B31354  42.461  10.760   7.581
 2303POPC   NC331355  31.853  14.690   9.359
 2303POPC   PO431356  31.329  14.467   9.698
 2303POPC   GL131357  31.385  14.425   9.267
 2303POPC   GL231358  31.694  14.257   9.125
 2303POPC   C1A31359  31.300  14.446   8.846
 2303POPC   D2A31360  31.328  14.321   8.409
 2303POPC   C3A31361  31.174  14.526   8.035
 2303POPC   C4A31362  31.266  14.652   7.603
 2303POPC   C1B31363  31.797  14.387   8.684
 2303POPC   C2B31364  31.855  14.303   8.221
 2303POPC   C3B31365  31.649  14.378   7.804
 2303POPC   C4B31366  31.785  14.608   7.429
 2304POPC   NC331367   3.795  20.666   9.550
 2304POPC   PO431368   4.475  20.491   9.524
 2304POPC   GL131369   4.383  20.457   9.128
 2304POPC   GL231370   4.094  20.281   9.090
 2304POPC   C1A31371   4.470  20.623   8.742
 2304POPC   D2A31372   4.641  20.466   8.377
 2304POPC   C3A31373   4.402  20.636   8.117
 2304POPC   C4A31374   4.586  20.759   7.786
 2304POPC   C1B31375   3.905  20.599   8.838
 2304POPC   C2B31376   3.697  20.559   8.437
 2304POPC   C3B31377   3.902  20.617   8.047
 2304POPC   C4B31378   4.083  20.842   7.725
 2305POPC   NC331379  38.139  31.314   9.507
 2305POPC   PO431380  38.645  31.661   9.412
 2305POPC   GL131381  38.466  31.454   9.088
 2305POPC   GL231382  38.776  31.236   9.029
 2305POPC   C1A31383  38.241  31.511   8.700
 2305POPC   D2A31384  38.432  31.401   8.301
 2305POPC   C3A31385  38.225  31.393   7.884
 2305POPC   C4A31386  38.319  31.598   7.480
 2305POPC   C1B31387  38.892  30.974   8.697
 2305POPC   C2B31388  38.796  31.046   8.268
 2305POPC   C3B31389  38.753  31.323   7.876
 2305POPC   C4B31390  38.606  31.186   7.457
 2306POPC   NC331391  36.738  28.061   9.486
 2306POPC   PO431392  36.877  28.671   9.611
 2306POPC   GL131393  37.011  28.589   9.181
 2306POPC   GL231394  36.761  28.344   9.066
 2306POPC   C1A31395  37.131  28.522   8.726
 2306POPC   D2A31396  37.060  28.753   8.329
 2306POPC   C3A31397  36.986  28.629   7.881
 2306POPC   C4A31398  36.572  28.509   7.708
 2306POPC   C1B31399  36.752  28.152   8.680
 2306POPC   C2B31400  36.956  28.180   8.339
 2306POPC   C3B31401  36.850  28.161   7.955
 2306POPC   C4B31402  37.213  28.175   7.737
 2307POPC   NC331403  14.256  41.017   9.485
 2307POPC   PO431404  14.664  40.508   9.466
 2307POPC   GL131405  14.606  40.712   9.106
 2307POPC   GL231406  14.595  41.055   9.100
 2307POPC   C1A31407  14.378  40.684   8.732
 2307POPC   D2A31408  14.595  40.728   8.375
 2307POPC   C3A31409  14.397  40.655   8.007
 2307POPC   C4A31410  14.659  40.504   7.657
 2307POPC   C1B31411  14.216  41.154   8.830
 2307POPC   C2B31412  14.168  41.040   8.403
 2307POPC   C3B31413  14.501  41.146   8.090
 2307POPC   C4B31414  14.467  41.007   7.670
 2308POPC   NC331415  40.520  20.033   9.535
 2308POPC   PO431416  40.592  19.477   9.836
 2308POPC   GL131417  40.701  19.613   9.306
 2308POPC   GL231418  40.487  19.838   9.058
 2308POPC   C1A31419  40.948  19.927   8.949
 2308POPC   D2A31420  40.962  19.832   8.496
 2308POPC   C3A31421  40.716  19.945   8.166
 2308POPC   C4A31422  40.918  19.999   7.813
 2308POPC   C1B31423  40.320  19.633   8.747
 2308POPC   C2B31424  40.535  19.512   8.415
 2308POPC   C3B31425  40.498  19.504   8.003
 2308POPC   C4B31426  40.541  19.696   7.640
 2309POPC   NC331427   7.712  41.834   9.375
 2309POPC   PO431428   8.315  41.739   9.615
 2309POPC   GL131429   8.161  41.647   9.198
 2309POPC   GL231430   8.024  41.329   9.128
 2309POPC   C1A31431   8.017  41.798   8.786
 2309POPC   D2A31432   8.235  41.799   8.399
 2309POPC   C3A31433   8.078  41.740   8.001
 2309POPC   C4A31434   7.983  41.699   7.577
 2309POPC   C1B31435   8.216  41.340   8.689
 2309POPC   C2B31436   8.236  41.292   8.244
 2309POPC   C3B31437   8.202  41.273   7.800
 2309POPC   C4B31438   8.146  41.192   7.356
 2310POPC   NC331439  26.793  17.842   9.437
 2310POPC   PO431440  26.791  17.218   9.377
 2310POPC   GL131441  26.976  17.345   8.973
 2310POPC   GL231442  27.113  17.672   9.040
 2310POPC   C1A31443  26.865  17.351   8.520
 2310POPC   D2A31444  26.837  17.665   8.166
 2310POPC   C3A31445  26.482  17.713   7.857
 2310POPC   C4A31446  26.375  17.643   7.403
 2310POPC   C1B31447  27.370  17.622   8.662
 2310POPC   C2B31448  27.334  17.379   8.288
 2310POPC   C3B31449  27.014  17.196   8.033
 2310POPC   C4B31450  26.870  17.417   7.695
 2311POPC   NC331451  37.366  25.146   9.404
 2311POPC   PO431452  37.767  25.562   9.545
 2311POPC   GL131453  37.643  25.523   9.129
 2311POPC   GL231454  37.758  25.183   9.080
 2311POPC   C1A31455  37.784  25.563   8.715
 2311POPC   D2A31456  37.802  25.281   8.359
 2311POPC   C3A31457  37.566  25.470   8.043
 2311POPC   C4A31458  37.336  25.256   7.724
 2311POPC   C1B31459  37.437  25.159   8.743
 2311POPC   C2B31460  37.438  24.872   8.389
 2311POPC   C3B31461  37.618  24.808   7.979
 2311POPC   C4B31462  37.601  24.881   7.521
 2312POPC   NC331463  33.339  32.027   9.562
 2312POPC   PO431464  32.674  32.124   9.643
 2312POPC   GL131465  32.926  32.129   9.250
 2312POPC   GL231466  33.170  32.413   9.256
 2312POPC   C1A31467  33.085  32.135   8.829
 2312POPC   D2A31468  33.189  32.401   8.464
 2312POPC   C3A31469  33.091  32.213   8.062
 2312POPC   C4A31470  32.764  31.968   7.826
 2312POPC   C1B31471  32.871  32.605   8.952
 2312POPC   C2B31472  32.825  32.787   8.530
 2312POPC   C3B31473  32.797  32.683   8.078
 2312POPC   C4B31474  32.898  32.518   7.655
 2313POPC   NC331475  40.995  17.531   9.514
 2313POPC   PO431476  41.231  18.126   9.316
 2313POPC   GL131477  40.968  17.792   9.051
 2313POPC   GL231478  40.868  17.432   9.028
 2313POPC   C1A31479  40.833  17.677   8.605
 2313POPC   D2A31480  40.864  17.335   8.312
 2313POPC   C3A31481  40.947  17.563   7.943
 2313POPC   C4A31482  40.995  17.551   7.496
 2313POPC   C1B31483  40.575  17.226   8.754
 2313POPC   C2B31484  40.345  17.391   8.415
 2313POPC   C3B31485  40.443  17.393   7.968
 2313POPC   C4B31486  40.461  16.983   7.791
 2314POPC   NC331487  33.686   6.135   9.240
 2314POPC   PO431488  34.080   5.831   9.630
 2314POPC   GL131489  33.921   5.696   9.181
 2314POPC   GL231490  33.562   5.641   9.109
 2314POPC   C1A31491  33.925   5.854   8.704
 2314POPC   D2A31492  33.743   6.163   8.391
 2314POPC   C3A31493  33.796   6.132   7.941
 2314POPC   C4A31494  33.770   6.126   7.471
 2314POPC   C1B31495  33.452   5.664   8.666
 2314POPC   C2B31496  33.652   5.664   8.227
 2314POPC   C3B31497  33.610   5.696   7.750
 2314POPC   C4B31498  33.589   5.642   7.270
 2315POPC   NC331499  35.787  10.257   9.600
 2315POPC   PO431500  36.319  10.725   9.586
 2315POPC   GL131501  36.006  10.592   9.256
 2315POPC   GL231502  36.054  10.259   9.166
 2315POPC   C1A31503  35.971  10.694   8.828
 2315POPC   D2A31504  36.164  10.705   8.419
 2315POPC   C3A31505  35.854  10.810   8.096
 2315POPC   C4A31506  35.954  10.967   7.715
 2315POPC   C1B31507  36.184  10.227   8.751
 2315POPC   C2B31508  36.328  10.219   8.343
 2315POPC   C3B31509  36.159  10.403   7.983
 2315POPC   C4B31510  36.242  10.270   7.573
 2316POPC   NC331511   6.173  39.789   9.778
 2316POPC   PO431512   5.584  40.177   9.484
 2316POPC   GL131513   5.763  40.028   9.152
 2316POPC   GL231514   5.735  40.321   8.955
 2316POPC   C1A31515   5.630  39.882   8.765
 2316POPC   D2A31516   5.640  40.074   8.358
 2316POPC   C3A31517   5.972  39.944   8.104
 2316POPC   C4A31518   6.037  39.714   7.751
 2316POPC   C1B31519   6.053  40.280   8.601
 2316POPC   C2B31520   6.055  40.442   8.167
 2316POPC   C3B31521   5.816  40.348   7.788
 2316POPC   C4B31522   5.694  40.445   7.335
 2317POPC   NC331523  38.760  27.034   9.337
 2317POPC   PO431524  39.365  26.866   9.545
 2317POPC   GL131525  39.290  26.924   9.147
 2317POPC   GL231526  39.055  26.664   9.112
 2317POPC   C1A31527  39.428  26.757   8.752
 2317POPC   D2A31528  39.262  26.808   8.355
 2317POPC   C3A31529  39.487  26.862   7.976
 2317POPC   C4A31530  39.397  27.045   7.567
 2317POPC   C1B31531  38.908  26.437   8.736
 2317POPC   C2B31532  38.861  26.506   8.278
 2317POPC   C3B31533  38.971  26.774   7.929
 2317POPC   C4B31534  39.057  26.648   7.513
 2318POPC   NC331535  34.898  11.085   9.456
 2318POPC   PO431536  34.158  11.036   9.553
 2318POPC   GL131537  34.386  11.281   9.249
 2318POPC   GL231538  34.646  11.102   9.023
 2318POPC   C1A31539  34.339  11.461   8.856
 2318POPC   D2A31540  34.535  11.207   8.526
 2318POPC   C3A31541  34.499  11.316   8.110
 2318POPC   C4A31542  34.263  11.210   7.733
 2318POPC   C1B31543  34.801  10.757   8.729
 2318POPC   C2B31544  34.722  10.766   8.274
 2318POPC   C3B31545  34.873  11.013   7.936
 2318POPC   C4B31546  34.972  10.990   7.482
 2319POPC   NC331547  31.348  24.546   9.576
 2319POPC   PO431548  31.800  24.077   9.395
 2319POPC   GL131549  31.717  24.503   9.152
 2319POPC   GL231550  31.313  24.535   9.081
 2319POPC   C1A31551  31.620  24.784   8.751
 2319POPC   D2A31552  31.209  24.707   8.531
 2319POPC   C3A31553  31.226  24.643   8.087
 2319POPC   C4A31554  31.560  24.770   7.787
 2319POPC   C1B31555  31.473  24.307   8.744
 2319POPC   C2B31556  31.675  24.368   8.353
 2319POPC   C3B31557  31.566  24.199   7.982
 2319POPC   C4B31558  31.319  24.330   7.652
 2320POPC   NC331559  40.771  34.951   9.717
 2320POPC   PO431560  40.732  35.545   9.588
 2320POPC   GL131561  40.668  35.459   9.158
 2320POPC   GL231562  40.859  35.171   9.212
 2320POPC   C1A31563  40.551  35.575   8.714
 2320POPC   D2A31564  40.428  35.295   8.354
 2320POPC   C3A31565  40.753  35.209   8.006
 2320POPC   C4A31566  41.049  35.496   7.807
 2320POPC   C1B31567  40.734  35.088   8.757
 2320POPC   C2B31568  41.036  35.035   8.396
 2320POPC   C3B31569  41.072  34.813   7.976
 2320POPC   C4B31570  40.897  34.911   7.534
 2321POPC   NC331571   0.040  40.339   9.509
 2321POPC   PO431572  44.919  41.015   9.537
 2321POPC   GL131573  44.685  40.942   9.164
 2321POPC   GL231574  44.618  40.599   9.166
 2321POPC   C1A31575  44.678  41.038   8.755
 2321POPC   D2A31576   0.001  40.923   8.464
 2321POPC   C3A31577  44.841  40.976   8.063
 2321POPC   C4A31578  44.864  41.309   7.778
 2321POPC   C1B31579  44.816  40.526   8.772
 2321POPC   C2B31580  44.735  40.492   8.326
 2321POPC   C3B31581  44.911  40.510   7.883
 2321POPC   C4B31582  44.668  40.453   7.509
 2322POPC   NC331583  40.924   7.954   9.454
 2322POPC   PO431584  40.421   8.341   9.727
 2322POPC   GL131585  40.533   8.246   9.258
 2322POPC   GL231586  40.555   7.962   8.989
 2322POPC   C1A31587  40.640   8.431   8.844
 2322POPC   D2A31588  40.530   8.239   8.453
 2322POPC   C3A31589  40.679   8.440   8.092
 2322POPC   C4A31590  40.659   8.174   7.736
 2322POPC   C1B31591  40.969   8.029   8.792
 2322POPC   C2B31592  41.043   8.230   8.401
 2322POPC   C3B31593  41.082   8.115   7.981
 2322POPC   C4B31594  41.222   7.721   7.854
 2323POPC   NC331595   1.372  18.859   9.701
 2323POPC   PO431596   0.920  18.713   9.198
 2323POPC   GL131597   1.153  19.112   9.133
 2323POPC   GL231598   0.888  19.255   9.082
 2323POPC   C1A31599   1.377  19.235   8.790
 2323POPC   D2A31600   1.345  18.937   8.438
 2323POPC   C3A31601   1.470  18.959   8.009
 2323POPC   C4A31602   1.173  18.707   7.836
 2323POPC   C1B31603   0.901  19.115   8.652
 2323POPC   C2B31604   1.017  19.298   8.288
 2323POPC   C3B31605   1.021  19.265   7.892
 2323POPC   C4B31606   1.339  19.363   7.703
 2324POPC   NC331607  30.853  15.042   9.373
 2324POPC   PO431608  30.640  15.704   9.403
 2324POPC   GL131609  30.707  15.436   9.083
 2324POPC   GL231610  31.055  15.330   8.983
 2324POPC   C1A31611  30.594  15.131   8.771
 2324POPC   D2A31612  30.670  15.025   8.367
 2324POPC   C3A31613  30.396  15.190   8.077
 2324POPC   C4A31614  30.513  15.074   7.706
 2324POPC   C1B31615  30.890  15.612   8.650
 2324POPC   C2B31616  30.781  15.567   8.218
 2324POPC   C3B31617  30.854  15.447   7.800
 2324POPC   C4B31618  30.948  15.562   7.352
 2325POPC   NC331619  27.243   0.625   9.361
 2325POPC   PO431620  26.658   0.580   9.484
 2325POPC   GL131621  26.819   0.420   9.117
 2325POPC   GL231622  26.517   0.246   9.094
 2325POPC   C1A31623  26.879   0.323   8.697
 2325POPC   D2A31624  26.763   0.124   8.305
 2325POPC   C3A31625  27.050   0.128   7.935
 2325POPC   C4A31626  27.153   0.353   7.533
 2325POPC   C1B31627  26.411   0.547   8.768
 2325POPC   C2B31628  26.587   0.607   8.356
 2325POPC   C3B31629  26.739   0.508   7.962
 2325POPC   C4B31630  26.598   0.402   7.534
 2326POPC   NC331631   6.952  21.368   9.896
 2326POPC   PO431632   6.423  21.592   9.551
 2326POPC   GL131633   6.700  21.418   9.195
 2326POPC   GL231634   6.995  21.212   9.148
 2326POPC   C1A31635   6.819  21.554   8.781
 2326POPC   D2A31636   6.513  21.670   8.487
 2326POPC   C3A31637   6.531  21.606   8.031
 2326POPC   C4A31638   6.327  21.449   7.646
 2326POPC   C1B31639   6.855  21.035   8.747
 2326POPC   C2B31640   6.801  21.245   8.365
 2326POPC   C3B31641   7.018  21.347   8.013
 2326POPC   C4B31642   6.789  21.266   7.674
 2327POPC   NC331643  41.686  39.814   9.416
 2327POPC   PO431644  41.131  40.083   9.606
 2327POPC   GL131645  41.341  40.242   9.204
 2327POPC   GL231646  41.664  40.374   9.104
 2327POPC   C1A31647  41.372  40.088   8.762
 2327POPC   D2A31648  41.478  40.180   8.318
 2327POPC   C3A31649  41.625  39.863   7.997
 2327POPC   C4A31650  41.543  39.793   7.555
 2327POPC   C1B31651  41.850  40.296   8.713
 2327POPC   C2B31652  41.907  40.507   8.330
 2327POPC   C3B31653  41.801  40.363   7.947
 2327POPC   C4B31654  42.015  40.070   7.715
 2328POPC   NC331655  44.027   9.856   9.433
 2328POPC   PO431656  43.704   9.389   9.705
 2328POPC   GL131657  43.551   9.858   9.323
 2328POPC   GL231658  43.534  10.181   9.150
 2328POPC   C1A31659  43.880  10.014   8.850
 2328POPC   D2A31660  44.190   9.840   8.521
 2328POPC   C3A31661  44.110   9.813   8.053
 2328POPC   C4A31662  44.232   9.601   7.636
 2328POPC   C1B31663  43.417   9.847   8.808
 2328POPC   C2B31664  43.674   9.743   8.430
 2328POPC   C3B31665  43.604   9.715   7.987
 2328POPC   C4B31666  43.815   9.883   7.634
 2329POPC   NC331667  44.281  19.250   9.494
 2329POPC   PO431668  43.619  19.090   9.389
 2329POPC   GL131669  43.794  19.215   9.005
 2329POPC   GL231670  44.151  19.114   9.006
 2329POPC   C1A31671  43.869  19.092   8.589
 2329POPC   D2A31672  43.755  18.721   8.342
 2329POPC   C3A31673  43.746  18.924   7.953
 2329POPC   C4A31674  43.979  19.322   7.849
 2329POPC   C1B31675  44.282  18.810   8.649
 2329POPC   C2B31676  44.235  18.902   8.175
 2329POPC   C3B31677  44.242  18.880   7.715
 2329POPC   C4B31678  44.185  18.771   7.297
 2330POPC   NC331679  17.771  41.971   9.315
 2330POPC   PO431680  17.366  41.565   9.737
 2330POPC   GL131681  17.367  41.629   9.285
 2330POPC   GL231682  17.211  41.353   9.143
 2330POPC   C1A31683  17.217  41.770   8.850
 2330POPC   D2A31684  17.399  41.734   8.419
 2330POPC   C3A31685  17.113  41.715   8.058
 2330POPC   C4A31686  17.118  41.948   7.691
 2330POPC   C1B31687  17.492  41.333   8.836
 2330POPC   C2B31688  17.442  41.189   8.456
 2330POPC   C3B31689  17.482  41.354   8.073
 2330POPC   C4B31690  17.590  41.704   7.806
 2331POPC   NC331691  12.471   7.462   9.599
 2331POPC   PO431692  11.826   7.085   9.527
 2331POPC   GL131693  11.844   7.399   9.201
 2331POPC   GL231694  12.198   7.458   9.176
 2331POPC   C1A31695  11.924   7.459   8.754
 2331POPC   D2A31696  11.841   7.227   8.410
 2331POPC   C3A31697  11.975   7.434   8.075
 2331POPC   C4A31698  12.118   7.764   7.794
 2331POPC   C1B31699  12.362   7.221   8.820
 2331POPC   C2B31700  12.354   7.363   8.425
 2331POPC   C3B31701  12.505   7.519   8.062
 2331POPC   C4B31702  12.314   7.298   7.729
 2332POPC   NC331703  42.611  32.941   9.473
 2332POPC   PO431704  42.208  33.386   9.605
 2332POPC   GL131705  42.067  33.221   9.217
 2332POPC   GL231706  42.155  32.853   9.170
 2332POPC   C1A31707  42.196  33.362   8.805
 2332POPC   D2A31708  42.483  33.345   8.470
 2332POPC   C3A31709  42.311  33.275   8.073
 2332POPC   C4A31710  42.388  33.235   7.643
 2332POPC   C1B31711  42.417  32.901   8.814
 2332POPC   C2B31712  42.444  32.823   8.383
 2332POPC   C3B31713  42.345  32.776   7.960
 2332POPC   C4B31714  42.683  32.698   7.644
 2333POPC   NC331715  36.684  26.557   9.428
 2333POPC   PO431716  37.237  27.047   9.383
 2333POPC   GL131717  37.025  26.766   9.110
 2333POPC   GL231718  36.711  26.979   9.093
 2333POPC   C1A31719  36.824  26.648   8.729
 2333POPC   D2A31720  36.747  26.895   8.358
 2333POPC   C3A31721  36.752  26.612   7.969
 2333POPC   C4A31722  36.677  26.334   7.584
 2333POPC   C1B31723  36.945  27.201   8.771
 2333POPC   C2B31724  37.167  27.238   8.366
 2333POPC   C3B31725  37.091  26.999   8.009
 2333POPC   C4B31726  36.738  27.033   7.680
 2334POPC   NC331727  33.387  12.701   9.567
 2334POPC   PO431728  32.803  12.899   9.490
 2334POPC   GL131729  33.028  12.642   9.179
 2334POPC   GL231730  33.394  12.701   9.070
 2334POPC   C1A31731  33.054  12.457   8.758
 2334POPC   D2A31732  33.058  12.647   8.386
 2334POPC   C3A31733  33.165  12.508   7.997
 2334POPC   C4A31734  32.970  12.722   7.659
 2334POPC   C1B31735  33.191  12.943   8.790
 2334POPC   C2B31736  33.227  13.138   8.443
 2334POPC   C3B31737  33.171  13.010   8.050
 2334POPC   C4B31738  33.241  13.142   7.672
 2335POPC   NC331739  37.073   0.226   9.608
 2335POPC   PO431740  36.721   0.839   9.520
 2335POPC   GL131741  36.919   0.555   9.191
 2335POPC   GL231742  37.230   0.326   9.148
 2335POPC   C1A31743  36.774   0.511   8.767
 2335POPC   D2A31744  36.582   0.415   8.374
 2335POPC   C3A31745  36.802   0.631   8.039
 2335POPC   C4A31746  36.867   0.489   7.633
 2335POPC   C1B31747  37.212   0.233   8.733
 2335POPC   C2B31748  37.115   0.417   8.372
 2335POPC   C3B31749  37.234   0.335   7.955
 2335POPC   C4B31750  37.506   0.119   7.724
 2336POPC   NC331751  16.454  23.416   9.324
 2336POPC   PO431752  16.753  22.892   9.678
 2336POPC   GL131753  16.612  22.929   9.267
 2336POPC   GL231754  16.855  23.166   9.136
 2336POPC   C1A31755  16.501  22.873   8.829
 2336POPC   D2A31756  16.708  22.777   8.443
 2336POPC   C3A31757  16.525  22.856   8.087
 2336POPC   C4A31758  16.617  22.979   7.688
 2336POPC   C1B31759  16.709  23.323   8.710
 2336POPC   C2B31760  16.798  23.273   8.283
 2336POPC   C3B31761  16.622  23.428   7.908
 2336POPC   C4B31762  16.909  23.386   7.579
 2337POPC   NC331763  24.853  16.575   9.359
 2337POPC   PO431764  24.416  17.091   9.539
 2337POPC   GL131765  24.498  16.905   9.133
 2337POPC   GL231766  24.383  16.579   9.143
 2337POPC   C1A31767  24.743  16.808   8.753
 2337POPC   D2A31768  24.794  16.736   8.311
 2337POPC   C3A31769  24.579  17.012   8.003
 2337POPC   C4A31770  24.512  16.933   7.553
 2337POPC   C1B31771  24.400  16.445   8.714
 2337POPC   C2B31772  24.310  16.572   8.287
 2337POPC   C3B31773  24.487  16.517   7.870
 2337POPC   C4B31774  24.282  16.417   7.463
 2338POPC   NC331775  24.208   3.902   9.333
 2338POPC   PO431776  24.333   4.548   9.503
 2338POPC   GL131777  24.444   4.361   9.140
 2338POPC   GL231778  24.118   4.334   9.008
 2338POPC   C1A31779  24.532   4.370   8.699
 2338POPC   D2A31780  24.205   4.217   8.409
 2338POPC   C3A31781  24.458   4.051   8.105
 2338POPC   C4A31782  24.758   4.316   7.984
 2338POPC   C1B31783  24.093   4.664   8.667
 2338POPC   C2B31784  23.964   4.648   8.237
 2338POPC   C3B31785  24.186   4.468   7.890
 2338POPC   C4B31786  24.331   4.566   7.465
 2339POPC   NC331787  17.925  27.699   9.553
 2339POPC   PO431788  18.428  27.323   9.814
 2339POPC   GL131789  18.347  27.375   9.343
 2339POPC   GL231790  18.632  27.303   9.173
 2339POPC   C1A31791  18.227  27.610   8.935
 2339POPC   D2A31792  18.284  27.731   8.509
 2339POPC   C3A31793  18.209  27.577   8.141
 2339POPC   C4A31794  17.933  27.641   7.834
 2339POPC   C1B31795  18.561  27.289   8.714
 2339POPC   C2B31796  18.507  27.144   8.276
 2339POPC   C3B31797  18.593  27.342   7.898
 2339POPC   C4B31798  18.534  27.758   7.784
 2340POPC   NC331799   9.911  20.059   9.600
 2340POPC   PO431800   9.318  20.404   9.514
 2340POPC   GL131801   9.677  20.235   9.195
 2340POPC   GL231802   9.790  19.847   9.151
 2340POPC   C1A31803   9.887  20.175   8.783
 2340POPC   D2A31804   9.691  19.876   8.498
 2340POPC   C3A31805   9.719  20.037   8.116
 2340POPC   C4A31806  10.066  19.918   7.881
 2340POPC   C1B31807   9.794  19.501   8.851
 2340POPC   C2B31808   9.980  19.439   8.426
 2340POPC   C3B31809   9.846  19.453   7.988
 2340POPC   C4B31810   9.988  19.552   7.539
 2341POPC   NC331811  34.014  24.933  10.073
 2341POPC   PO431812  34.065  25.119   9.370
 2341POPC   GL131813  33.776  25.126   9.051
 2341POPC   GL231814  33.604  25.430   9.175
 2341POPC   C1A31815  33.643  25.184   8.644
 2341POPC   D2A31816  33.771  25.171   8.237
 2341POPC   C3A31817  33.571  25.134   7.836
 2341POPC   C4A31818  33.826  25.030   7.470
 2341POPC   C1B31819  33.827  25.602   8.853
 2341POPC   C2B31820  33.686  25.651   8.425
 2341POPC   C3B31821  33.751  25.628   7.977
 2341POPC   C4B31822  33.558  25.591   7.598
 2342POPC   NC331823  20.886  21.891   9.505
 2342POPC   PO431824  20.382  22.144   9.872
 2342POPC   GL131825  20.383  22.098   9.366
 2342POPC   GL231826  20.068  21.917   9.237
 2342POPC   C1A31827  20.561  22.184   8.927
 2342POPC   D2A31828  20.613  22.359   8.477
 2342POPC   C3A31829  20.719  22.271   8.014
 2342POPC   C4A31830  20.695  22.423   7.568
 2342POPC   C1B31831  20.236  21.800   8.823
 2342POPC   C2B31832  20.289  21.955   8.402
 2342POPC   C3B31833  20.475  21.818   8.004
 2342POPC   C4B31834  20.424  21.969   7.596
 2343POPC   NC331835  10.722  36.460   9.475
 2343POPC   PO431836  10.302  37.065   9.530
 2343POPC   GL131837  10.534  36.856   9.234
 2343POPC   GL231838  10.237  36.758   9.058
 2343POPC   C1A31839  10.681  36.662   8.844
 2343POPC   D2A31840  10.529  36.785   8.469
 2343POPC   C3A31841  10.616  36.695   8.008
 2343POPC   C4A31842  10.741  37.007   7.653
 2343POPC   C1B31843  10.042  36.912   8.655
 2343POPC   C2B31844  10.131  36.813   8.184
 2343POPC   C3B31845  10.195  36.866   7.723
 2343POPC   C4B31846  10.059  36.589   7.364
 2344POPC   NC331847   4.054  41.966   9.462
 2344POPC   PO431848   3.471  42.405   9.524
 2344POPC   GL131849   3.591  42.443   9.108
 2344POPC   GL231850   3.675  42.102   9.082
 2344POPC   C1A31851   3.755  42.649   8.746
 2344POPC   D2A31852   3.637  42.652   8.333
 2344POPC   C3A31853   3.697  42.328   8.005
 2344POPC   C4A31854   3.751  42.219   7.590
 2344POPC   C1B31855   3.614  42.178   8.641
 2344POPC   C2B31856   3.301  42.173   8.302
 2344POPC   C3B31857   3.279  42.088   7.837
 2344POPC   C4B31858   3.429  41.818   7.517
 2345POPC   NC331859  30.908  18.806   9.439
 2345POPC   PO431860  30.711  19.454   9.506
 2345POPC   GL131861  30.781  19.364   9.093
 2345POPC   GL231862  30.805  19.007   8.987
 2345POPC   C1A31863  30.599  19.393   8.693
 2345POPC   D2A31864  30.564  19.308   8.255
 2345POPC   C3A31865  30.855  19.355   7.940
 2345POPC   C4A31866  30.565  19.194   7.669
 2345POPC   C1B31867  30.760  18.924   8.548
 2345POPC   C2B31868  30.809  18.863   8.104
 2345POPC   C3B31869  30.990  18.888   7.696
 2345POPC   C4B31870  31.098  18.731   7.301
 2346POPC   NC331871  43.711  26.523   9.547
 2346POPC   PO431872  44.002  27.111   9.551
 2346POPC   GL131873  43.871  26.862   9.209
 2346POPC   GL231874  43.600  27.027   9.085
 2346POPC   C1A31875  43.935  26.621   8.823
 2346POPC   D2A31876  43.711  26.697   8.390
 2346POPC   C3A31877  43.950  26.620   7.994
 2346POPC   C4A31878  43.932  26.628   7.516
 2346POPC   C1B31879  43.837  27.101   8.724
 2346POPC   C2B31880  43.748  27.213   8.327
 2346POPC   C3B31881  43.627  26.995   7.974
 2346POPC   C4B31882  43.808  27.123   7.604
 2347POPC   NC331883  42.594  36.124   9.594
 2347POPC   PO431884  42.056  36.438   9.390
 2347POPC   GL131885  42.324  36.173   9.163
 2347POPC   GL231886  42.104  36.100   8.928
 2347POPC   C1A31887  42.647  35.973   8.899
 2347POPC   D2A31888  42.724  35.748   8.503
 2347POPC   C3A31889  42.846  35.962   8.117
 2347POPC   C4A31890  42.674  35.973   7.737
 2347POPC   C1B31891  42.268  36.013   8.567
 2347POPC   C2B31892  42.323  36.036   8.145
 2347POPC   C3B31893  42.183  36.124   7.766
 2347POPC   C4B31894  42.071  36.321   7.366
 2348POPC   NC331895   8.503  30.865   9.522
 2348POPC   PO431896   9.307  30.865   9.396
 2348POPC   GL131897   9.075  30.662   9.074
 2348POPC   GL231898   8.741  30.668   9.082
 2348POPC   C1A31899   8.959  30.766   8.625
 2348POPC   D2A31900   8.744  30.830   8.226
 2348POPC   C3A31901   8.942  30.879   7.819
 2348POPC   C4A31902   9.251  30.859   7.453
 2348POPC   C1B31903   8.642  30.384   8.766
 2348POPC   C2B31904   8.812  30.184   8.422
 2348POPC   C3B31905   8.910  30.340   8.005
 2348POPC   C4B31906   8.959  30.442   7.542
 2349POPC   NC331907  19.174  25.550   9.388
 2349POPC   PO431908  18.755  25.023   9.510
 2349POPC   GL131909  18.992  25.069   9.096
 2349POPC   GL231910  19.292  25.290   8.968
 2349POPC   C1A31911  19.076  24.968   8.671
 2349POPC   D2A31912  19.338  25.238   8.406
 2349POPC   C3A31913  19.092  25.285   8.059
 2349POPC   C4A31914  19.210  25.037   7.713
 2349POPC   C1B31915  19.014  25.516   8.695
 2349POPC   C2B31916  18.808  25.696   8.328
 2349POPC   C3B31917  19.006  25.815   7.929
 2349POPC   C4B31918  19.231  25.538   7.618
 2350POPC   NC331919   8.398  35.074   9.609
 2350POPC   PO431920   8.246  35.701   9.782
 2350POPC   GL131921   8.223  35.442   9.309
 2350POPC   GL231922   8.508  35.251   9.123
 2350POPC   C1A31923   8.136  35.452   8.811
 2350POPC   D2A31924   8.379  35.545   8.394
 2350POPC   C3A31925   8.242  35.362   7.987
 2350POPC   C4A31926   8.168  35.541   7.557
 2350POPC   C1B31927   8.496  35.098   8.655
 2350POPC   C2B31928   8.684  35.120   8.202
 2350POPC   C3B31929   8.622  35.112   7.715
 2350POPC   C4B31930   8.276  35.083   7.379
 2351POPC   NC331931   1.474   8.696   9.527
 2351POPC   PO431932   2.019   9.181   9.383
 2351POPC   GL131933   2.126   8.986   9.020
 2351POPC   GL231934   2.290   8.709   9.051
 2351POPC   C1A31935   1.948   8.868   8.630
 2351POPC   D2A31936   1.682   9.169   8.395
 2351POPC   C3A31937   1.870   9.269   8.036
 2351POPC   C4A31938   2.127   8.974   7.903
 2351POPC   C1B31939   2.466   8.747   8.696
 2351POPC   C2B31940   2.321   8.692   8.304
 2351POPC   C3B31941   2.531   8.679   7.931
 2351POPC   C4B31942   2.365   8.730   7.503
 2352POPC   NC331943  13.836  32.800   9.940
 2352POPC   PO431944  13.415  33.122   9.545
 2352POPC   GL131945  13.541  33.081   9.089
 2352POPC   GL231946  13.309  32.876   9.089
 2352POPC   C1A31947  13.820  33.106   8.756
 2352POPC   D2A31948  14.086  32.875   8.511
 2352POPC   C3A31949  13.843  32.997   8.184
 2352POPC   C4A31950  13.836  33.043   7.737
 2352POPC   C1B31951  13.151  32.993   8.714
 2352POPC   C2B31952  13.362  32.911   8.342
 2352POPC   C3B31953  13.363  32.962   7.913
 2352POPC   C4B31954  13.074  33.120   7.608
 2353POPC   NC331955  28.909  43.548   9.598
 2353POPC   PO431956  29.219  42.919   9.528
 2353POPC   GL131957  29.202  43.096   9.129
 2353POPC   GL231958  28.858  43.137   9.153
 2353POPC   C1A31959  29.208  42.983   8.695
 2353POPC   D2A31960  29.081  43.067   8.278
 2353POPC   C3A31961  29.406  42.940   7.991
 2353POPC   C4A31962  29.484  43.115   7.583
 2353POPC   C1B31963  28.854  43.355   8.736
 2353POPC   C2B31964  28.911  43.566   8.346
 2353POPC   C3B31965  28.783  43.402   7.979
 2353POPC   C4B31966  28.964  43.065   7.751
 2354POPC   NC331967   5.546   5.135   9.588
 2354POPC   PO431968   6.201   5.390   9.548
 2354POPC   GL131969   5.920   5.202   9.233
 2354POPC   GL231970   5.814   4.842   9.205
 2354POPC   C1A31971   5.706   5.175   8.820
 2354POPC   D2A31972   5.863   4.955   8.422
 2354POPC   C3A31973   6.020   5.250   8.113
 2354POPC   C4A31974   6.108   5.226   7.667
 2354POPC   C1B31975   5.634   4.661   8.803
 2354POPC   C2B31976   5.408   4.709   8.410
 2354POPC   C3B31977   5.498   4.883   8.024
 2354POPC   C4B31978   5.509   4.768   7.599
 2355POPC   NC331979  26.862   3.065   9.530
 2355POPC   PO431980  26.803   2.394   9.534
 2355POPC   GL131981  26.894   2.671   9.189
 2355POPC   GL231982  26.929   2.452   8.900
 2355POPC   C1A31983  27.084   2.922   8.849
 2355POPC   D2A31984  27.275   2.599   8.552
 2355POPC   C3A31985  27.091   2.584   8.138
 2355POPC   C4A31986  26.856   2.957   8.036
 2355POPC   C1B31987  26.560   2.617   8.695
 2355POPC   C2B31988  26.438   2.767   8.272
 2355POPC   C3B31989  26.452   2.728   7.794
 2355POPC   C4B31990  26.544   2.537   7.356
 2356POPC   NC331991  26.632  22.635   9.504
 2356POPC   PO431992  26.463  23.279   9.597
 2356POPC   GL131993  26.798  23.143   9.279
 2356POPC   GL231994  26.861  22.860   9.125
 2356POPC   C1A31995  27.106  23.207   8.884
 2356POPC   D2A31996  27.075  22.937   8.473
 2356POPC   C3A31997  26.838  22.988   8.022
 2356POPC   C4A31998  26.808  22.851   7.533
 2356POPC   C1B31999  26.637  22.909   8.755
 2356POPC   C2B32000  26.441  22.591   8.515
 2356POPC   C3B32001  26.397  22.513   8.094
 2356POPC   C4B32002  26.384  22.847   7.780
 2357POPC   NC332003  19.570  36.240   9.329
 2357POPC   PO432004  20.031  35.786   9.714
 2357POPC   GL132005  19.974  35.945   9.256
 2357POPC   GL232006  19.855  35.697   9.138
 2357POPC   C1A32007  19.881  36.158   8.801
 2357POPC   D2A32008  19.827  36.422   8.455
 2357POPC   C3A32009  19.995  36.201   8.118
 2357POPC   C4A32010  19.898  36.255   7.705
 2357POPC   C1B32011  19.630  35.723   8.776
 2357POPC   C2B32012  19.623  35.946   8.392
 2357POPC   C3B32013  19.602  35.794   8.012
 2357POPC   C4B32014  19.927  35.749   7.740
 2358POPC   NC332015   7.291  38.987   9.326
 2358POPC   PO432016   7.254  38.210   9.281
 2358POPC   GL132017   7.435  38.535   9.113
 2358POPC   GL232018   7.142  38.653   8.969
 2358POPC   C1A32019   7.613  38.535   8.740
 2358POPC   D2A32020   7.651  38.237   8.425
 2358POPC   C3A32021   7.589  38.306   8.027
 2358POPC   C4A32022   7.744  38.552   7.736
 2358POPC   C1B32023   7.180  38.299   8.649
 2358POPC   C2B32024   7.089  38.275   8.221
 2358POPC   C3B32025   7.130  38.262   7.821
 2358POPC   C4B32026   7.271  38.597   7.595
 2359POPC   NC332027  14.641  41.703   9.792
 2359POPC   PO432028  14.013  41.835   9.769
 2359POPC   GL132029  14.294  41.562   9.416
 2359POPC   GL232030  14.039  41.424   9.230
 2359POPC   C1A32031  14.522  41.540   8.957
 2359POPC   D2A32032  14.366  41.513   8.469
 2359POPC   C3A32033  14.589  41.642   8.058
 2359POPC   C4A32034  14.596  41.509   7.650
 2359POPC   C1B32035  14.037  41.659   8.837
 2359POPC   C2B32036  14.063  41.959   8.516
 2359POPC   C3B32037  14.090  41.833   8.136
 2359POPC   C4B32038  14.123  41.739   7.746
 2360POPC   NC332039   1.810  23.995   9.505
 2360POPC   PO432040   2.062  23.313   9.619
 2360POPC   GL132041   2.041  23.603   9.241
 2360POPC   GL232042   1.714  23.654   9.140
 2360POPC   C1A32043   2.212  23.779   8.828
 2360POPC   D2A32044   2.373  23.626   8.416
 2360POPC   C3A32045   2.348  23.841   8.011
 2360POPC   C4A32046   2.323  23.816   7.540
 2360POPC   C1B32047   1.709  23.871   8.753
 2360POPC   C2B32048   1.542  23.912   8.311
 2360POPC   C3B32049   1.837  23.844   7.966
 2360POPC   C4B32050   2.064  23.433   7.826
 2361POPC   NC332051   2.347  30.555   9.744
 2361POPC   PO432052   1.738  30.718   9.623
 2361POPC   GL132053   1.968  30.738   9.234
 2361POPC   GL232054   2.017  30.489   9.005
 2361POPC   C1A32055   2.038  30.972   8.852
 2361POPC   D2A32056   2.103  30.744   8.454
 2361POPC   C3A32057   1.884  30.925   8.108
 2361POPC   C4A32058   2.058  30.984   7.717
 2361POPC   C1B32059   2.345  30.355   8.670
 2361POPC   C2B32060   2.219  30.225   8.251
 2361POPC   C3B32061   2.090  30.482   7.883
 2361POPC   C4B32062   2.147  30.547   7.454
 2362POPC   NC332063   1.942  41.156   9.346
 2362POPC   PO432064   2.092  41.746   9.565
 2362POPC   GL132065   1.969  41.677   9.195
 2362POPC   GL232066   2.269  41.490   9.096
 2362POPC   C1A32067   1.841  41.575   8.795
 2362POPC   D2A32068   1.711  41.556   8.404
 2362POPC   C3A32069   2.026  41.483   8.118
 2362POPC   C4A32070   1.835  41.300   7.764
 2362POPC   C1B32071   2.306  41.890   8.846
 2362POPC   C2B32072   2.430  41.915   8.392
 2362POPC   C3B32073   2.386  41.861   7.952
 2362POPC   C4B32074   2.083  41.735   7.686
 2363POPC   NC332075  18.465  41.644   9.610
 2363POPC   PO432076  17.854  41.447   9.400
 2363POPC   GL132077  18.188  41.700   9.162
 2363POPC   GL232078  18.565  41.829   9.152
 2363POPC   C1A32079  18.118  41.750   8.726
 2363POPC   D2A32080  17.872  41.480   8.431
 2363POPC   C3A32081  18.012  41.468   8.005
 2363POPC   C4A32082  18.199  41.196   7.721
 2363POPC   C1B32083  18.591  41.473   8.876
 2363POPC   C2B32084  18.444  41.444   8.450
 2363POPC   C3B32085  18.565  41.389   8.030
 2363POPC   C4B32086  18.410  41.668   7.722
 2364POPC   NC332087  21.335  37.233   9.430
 2364POPC   PO432088  20.966  36.655   9.508
 2364POPC   GL132089  21.067  36.885   9.165
 2364POPC   GL232090  21.435  36.873   9.099
 2364POPC   C1A32091  21.098  37.093   8.775
 2364POPC   D2A32092  21.253  36.890   8.425
 2364POPC   C3A32093  21.219  37.130   8.087
 2364POPC   C4A32094  21.146  37.056   7.685
 2364POPC   C1B32095  21.628  37.125   8.770
 2364POPC   C2B32096  21.744  37.036   8.344
 2364POPC   C3B32097  21.616  36.811   8.000
 2364POPC   C4B32098  21.685  37.131   7.738
 2365POPC   NC332099   1.754  31.993   9.318
 2365POPC   PO432100   1.167  31.989   9.606
 2365POPC   GL132101   1.308  32.289   9.285
 2365POPC   GL232102   1.228  32.022   9.064
 2365POPC   C1A32103   1.317  32.468   8.837
 2365POPC   D2A32104   1.268  32.229   8.433
 2365POPC   C3A32105   1.309  32.431   8.046
 2365POPC   C4A32106   1.040  32.384   7.691
 2365POPC   C1B32107   1.524  31.913   8.739
 2365POPC   C2B32108   1.612  31.828   8.334
 2365POPC   C3B32109   1.440  31.946   7.935
 2365POPC   C4B32110   1.506  32.194   7.597
 2366POPC   NC332111  13.106   4.282   9.524
 2366POPC   PO432112  12.515   4.005   9.379
 2366POPC   GL132113  12.780   4.319   9.133
 2366POPC   GL232114  13.132   4.184   9.023
 2366POPC   C1A32115  12.772   4.574   8.736
 2366POPC   D2A32116  12.506   4.519   8.350
 2366POPC   C3A32117  12.685   4.458   7.910
 2366POPC   C4A32118  12.530   4.312   7.507
 2366POPC   C1B32119  12.831   4.047   8.698
 2366POPC   C2B32120  12.814   4.089   8.228
 2366POPC   C3B32121  13.135   4.174   7.835
 2366POPC   C4B32122  13.343   4.364   7.435
 2367POPC   NC332123  28.663  22.617   9.482
 2367POPC   PO432124  27.915  22.621   9.526
 2367POPC   GL132125  28.240  22.728   9.198
 2367POPC   GL232126  28.222  23.083   9.058
 2367POPC   C1A32127  28.506  22.753   8.811
 2367POPC   D2A32128  28.368  23.020   8.460
 2367POPC   C3A32129  28.436  22.837   8.077
 2367POPC   C4A32130  28.211  22.892   7.746
 2367POPC   C1B32131  28.640  23.251   8.821
 2367POPC   C2B32132  28.865  23.062   8.455
 2367POPC   C3B32133  28.739  23.241   8.051
 2367POPC   C4B32134  28.757  22.967   7.693
 2368POPC   NC332135  33.285  44.837   9.581
 2368POPC   PO432136  32.812  44.438   9.420
 2368POPC   GL132137  33.064  44.735   9.115
 2368POPC   GL232138  33.449  44.877   9.109
 2368POPC   C1A32139  32.960  44.695   8.674
 2368POPC   D2A32140  32.719  44.586   8.293
 2368POPC   C3A32141  32.954  44.685   7.913
 2368POPC   C4A32142  32.955  44.564   7.487
 2368POPC   C1B32143  33.281   0.084   8.779
 2368POPC   C2B32144  33.093   0.084   8.358
 2368POPC   C3B32145  33.340   0.020   8.005
 2368POPC   C4B32146  33.269   0.125   7.607
 2369POPC   NC332147  29.238  15.966   9.509
 2369POPC   PO432148  28.782  16.455   9.394
 2369POPC   GL132149  29.037  16.209   9.061
 2369POPC   GL232150  29.132  15.824   9.044
 2369POPC   C1A32151  28.900  16.052   8.661
 2369POPC   D2A32152  29.120  15.924   8.308
 2369POPC   C3A32153  28.993  16.168   7.977
 2369POPC   C4A32154  29.289  16.303   7.685
 2369POPC   C1B32155  29.135  15.556   8.679
 2369POPC   C2B32156  28.777  15.571   8.401
 2369POPC   C3B32157  28.844  15.652   7.973
 2369POPC   C4B32158  29.078  15.805   7.615
 2370POPC   NC332159  43.816  41.233   9.535
 2370POPC   PO432160  43.825  41.926   9.373
 2370POPC   GL132161  44.091  41.794   9.058
 2370POPC   GL232162  44.011  41.448   9.114
 2370POPC   C1A32163  43.990  41.683   8.647
 2370POPC   D2A32164  43.686  41.361   8.480
 2370POPC   C3A32165  43.626  41.393   8.021
 2370POPC   C4A32166  43.757  41.665   7.700
 2370POPC   C1B32167  44.144  41.216   8.755
 2370POPC   C2B32168  44.221  41.336   8.348
 2370POPC   C3B32169  44.375  41.223   7.986
 2370POPC   C4B32170  44.091  41.269   7.690
 2371POPC   NC332171  42.089  14.490   9.434
 2371POPC   PO432172  42.598  14.093   9.462
 2371POPC   GL132173  42.305  14.125   9.129
 2371POPC   GL232174  42.351  14.484   8.992
 2371POPC   C1A32175  42.153  14.144   8.696
 2371POPC   D2A32176  42.305  14.374   8.334
 2371POPC   C3A32177  42.165  14.289   7.906
 2371POPC   C4A32178  42.186  14.516   7.496
 2371POPC   C1B32179  42.672  14.222   8.749
 2371POPC   C2B32180  42.688  14.022   8.343
 2371POPC   C3B32181  42.696  14.302   8.005
 2371POPC   C4B32182  42.622  14.282   7.575
 2372POPC   NC332183   5.388  17.750   9.369
 2372POPC   PO432184   5.871  17.427   9.774
 2372POPC   GL132185   5.805  17.434   9.284
 2372POPC   GL232186   5.773  17.742   9.010
 2372POPC   C1A32187   6.048  17.306   8.894
 2372POPC   D2A32188   6.197  17.365   8.461
 2372POPC   C3A32189   5.934  17.505   8.105
 2372POPC   C4A32190   5.962  17.533   7.639
 2372POPC   C1B32191   5.703  17.541   8.589
 2372POPC   C2B32192   5.457  17.312   8.259
 2372POPC   C3B32193   5.528  17.322   7.810
 2372POPC   C4B32194   5.511  17.598   7.407
 2373POPC   NC332195   3.503  11.386   9.539
 2373POPC   PO432196   4.120  11.402   9.210
 2373POPC   GL132197   3.688  11.423   9.077
 2373POPC   GL232198   3.409  11.165   9.058
 2373POPC   C1A32199   3.505  11.561   8.722
 2373POPC   D2A32200   3.735  11.682   8.378
 2373POPC   C3A32201   3.524  11.515   8.045
 2373POPC   C4A32202   3.473  11.257   7.694
 2373POPC   C1B32203   3.715  11.050   8.731
 2373POPC   C2B32204   3.628  10.952   8.304
 2373POPC   C3B32205   3.222  11.076   8.148
 2373POPC   C4B32206   2.976  11.089   7.779
 2374POPC   NC332207  17.730   1.413   9.393
 2374POPC   PO432208  17.306   0.874   9.389
 2374POPC   GL132209  17.475   1.087   9.055
 2374POPC   GL232210  17.793   1.061   9.018
 2374POPC   C1A32211  17.425   1.385   8.709
 2374POPC   D2A32212  17.222   1.365   8.277
 2374POPC   C3A32213  17.437   1.516   7.881
 2374POPC   C4A32214  17.666   1.652   7.471
 2374POPC   C1B32215  17.939   1.248   8.696
 2374POPC   C2B32216  17.759   1.243   8.325
 2374POPC   C3B32217  17.826   1.188   7.935
 2374POPC   C4B32218  17.501   1.048   7.669
 2375POPC   NC332219   2.605   8.059  10.002
 2375POPC   PO432220   2.558   7.850   9.286
 2375POPC   GL132221   2.488   8.232   9.079
 2375POPC   GL232222   2.756   8.496   9.044
 2375POPC   C1A32223   2.607   8.245   8.650
 2375POPC   D2A32224   2.755   8.356   8.265
 2375POPC   C3A32225   2.598   8.068   7.954
 2375POPC   C4A32226   2.571   8.277   7.584
 2375POPC   C1B32227   3.054   8.498   8.687
 2375POPC   C2B32228   3.203   8.640   8.272
 2375POPC   C3B32229   3.105   8.418   7.876
 2375POPC   C4B32230   3.134   8.420   7.373
 2376POPC   NC332231  32.875  11.132   9.239
 2376POPC   PO432232  33.312  11.568   9.504
 2376POPC   GL132233  33.117  11.593   9.109
 2376POPC   GL232234  33.414  11.719   8.977
 2376POPC   C1A32235  32.968  11.466   8.682
 2376POPC   D2A32236  33.137  11.230   8.368
 2376POPC   C3A32237  33.023  11.243   7.905
 2376POPC   C4A32238  32.891  11.065   7.502
 2376POPC   C1B32239  33.460  11.275   8.827
 2376POPC   C2B32240  33.643  11.157   8.434
 2376POPC   C3B32241  33.508  11.372   8.073
 2376POPC   C4B32242  33.372  11.625   7.795
 2377POPC   NC332243  35.938   6.417   9.572
 2377POPC   PO432244  36.331   7.026   9.499
 2377POPC   GL132245  36.032   6.780   9.220
 2377POPC   GL232246  36.101   6.396   9.105
 2377POPC   C1A32247  35.816   6.723   8.839
 2377POPC   D2A32248  35.639   6.737   8.457
 2377POPC   C3A32249  35.863   6.692   8.071
 2377POPC   C4A32250  36.237   6.685   7.835
 2377POPC   C1B32251  36.287   6.258   8.741
 2377POPC   C2B32252  36.368   6.463   8.342
 2377POPC   C3B32253  36.395   6.223   7.975
 2377POPC   C4B32254  36.594   6.365   7.592
 2378POPC   NC332255   3.817  36.734   9.298
 2378POPC   PO432256   4.387  37.095   9.509
 2378POPC   GL132257   4.328  36.820   9.165
 2378POPC   GL232258   4.142  37.029   8.951
 2378POPC   C1A32259   4.244  36.566   8.791
 2378POPC   D2A32260   4.173  36.855   8.436
 2378POPC   C3A32261   4.219  36.682   8.055
 2378POPC   C4A32262   4.297  36.569   7.678
 2378POPC   C1B32263   4.571  36.937   8.732
 2378POPC   C2B32264   4.679  37.076   8.296
 2378POPC   C3B32265   4.577  36.974   7.840
 2378POPC   C4B32266   4.633  37.227   7.416
 2379POPC   NC332267  16.984  20.866   9.478
 2379POPC   PO432268  16.552  20.237   9.409
 2379POPC   GL132269  16.698  20.576   9.156
 2379POPC   GL232270  17.046  20.542   9.081
 2379POPC   C1A32271  16.694  20.794   8.753
 2379POPC   D2A32272  16.707  20.642   8.306
 2379POPC   C3A32273  16.569  20.919   7.967
 2379POPC   C4A32274  16.479  20.923   7.496
 2379POPC   C1B32275  16.973  20.364   8.693
 2379POPC   C2B32276  17.170  20.349   8.282
 2379POPC   C3B32277  17.044  20.472   7.892
 2379POPC   C4B32278  16.658  20.473   7.695
 2380POPC   NC332279   8.172  16.192   9.508
 2380POPC   PO432280   7.945  15.621   9.346
 2380POPC   GL132281   8.197  15.901   9.050
 2380POPC   GL232282   8.528  16.074   9.166
 2380POPC   C1A32283   8.312  15.825   8.601
 2380POPC   D2A32284   8.306  15.959   8.162
 2380POPC   C3A32285   8.345  15.607   7.898
 2380POPC   C4A32286   8.275  15.684   7.446
 2380POPC   C1B32287   8.471  16.287   8.810
 2380POPC   C2B32288   8.379  16.470   8.436
 2380POPC   C3B32289   8.563  16.429   8.019
 2380POPC   C4B32290   8.348  16.424   7.636
 2381POPC   NC332291  31.931   2.990   9.571
 2381POPC   PO432292  31.272   2.720   9.653
 2381POPC   GL132293  31.388   2.789   9.212
 2381POPC   GL232294  31.736   2.906   9.121
 2381POPC   C1A32295  31.329   2.876   8.778
 2381POPC   D2A32296  31.109   3.017   8.422
 2381POPC   C3A32297  31.225   2.787   8.060
 2381POPC   C4A32298  31.320   2.668   7.628
 2381POPC   C1B32299  31.840   2.671   8.770
 2381POPC   C2B32300  31.658   2.694   8.361
 2381POPC   C3B32301  31.731   2.718   7.917
 2381POPC   C4B32302  31.819   2.581   7.482
 2382POPC   NC332303  10.972   4.567   9.520
 2382POPC   PO432304  11.652   4.437   9.495
 2382POPC   GL132305  11.334   4.330   9.209
 2382POPC   GL232306  11.470   4.584   9.028
 2382POPC   C1A32307  11.025   4.315   8.869
 2382POPC   D2A32308  10.784   4.469   8.517
 2382POPC   C3A32309  10.867   4.607   8.126
 2382POPC   C4A32310  10.879   4.447   7.720
 2382POPC   C1B32311  11.533   4.307   8.716
 2382POPC   C2B32312  11.281   4.401   8.415
 2382POPC   C3B32313  11.283   4.315   8.037
 2382POPC   C4B32314  11.342   4.250   7.653
 2383POPC   NC332315   7.427   1.141   9.538
 2383POPC   PO432316   8.198   1.178   9.566
 2383POPC   GL132317   8.181   1.084   9.189
 2383POPC   GL232318   8.483   0.892   9.165
 2383POPC   C1A32319   8.032   1.263   8.812
 2383POPC   D2A32320   8.086   1.126   8.395
 2383POPC   C3A32321   8.011   1.454   8.105
 2383POPC   C4A32322   8.142   1.234   7.733
 2383POPC   C1B32323   8.335   0.843   8.750
 2383POPC   C2B32324   8.466   0.714   8.356
 2383POPC   C3B32325   8.378   0.801   7.923
 2383POPC   C4B32326   8.417   0.892   7.472
 2384POPC   NC332327  39.734   1.008   9.488
 2384POPC   PO432328  40.220   1.462   9.678
 2384POPC   GL132329  40.009   1.371   9.230
 2384POPC   GL232330  40.065   1.015   9.105
 2384POPC   C1A32331  39.807   1.356   8.797
 2384POPC   D2A32332  39.700   1.236   8.353
 2384POPC   C3A32333  39.880   1.026   7.988
 2384POPC   C4A32334  39.954   1.158   7.561
 2384POPC   C1B32335  40.244   1.077   8.696
 2384POPC   C2B32336  40.258   1.230   8.272
 2384POPC   C3B32337  40.379   1.205   7.846
 2384POPC   C4B32338  40.450   1.413   7.457
 2385POPC   NC332339  44.254  33.276   9.588
 2385POPC   PO432340  44.948  33.270   9.580
 2385POPC   GL132341  44.895  33.197   9.158
 2385POPC   GL232342  44.673  33.485   9.176
 2385POPC   C1A32343  44.763  32.937   8.767
 2385POPC   D2A32344  44.461  32.768   8.426
 2385POPC   C3A32345  44.561  32.928   8.001
 2385POPC   C4A32346   0.016  32.984   7.856
 2385POPC   C1B32347  44.789  33.464   8.741
 2385POPC   C2B32348  44.794  33.251   8.330
 2385POPC   C3B32349  44.723  33.424   7.914
 2385POPC   C4B32350  44.816  33.754   7.616
 2386POPC   NC332351  22.019  38.448   9.650
 2386POPC   PO432352  22.618  38.300   9.345
 2386POPC   GL132353  22.188  38.291   9.197
 2386POPC   GL232354  21.968  38.597   9.158
 2386POPC   C1A32355  22.083  38.178   8.787
 2386POPC   D2A32356  22.053  38.373   8.369
 2386POPC   C3A32357  22.122  38.100   8.015
 2386POPC   C4A32358  21.921  37.979   7.627
 2386POPC   C1B32359  22.306  38.640   8.849
 2386POPC   C2B32360  22.343  38.832   8.452
 2386POPC   C3B32361  22.191  38.785   8.065
 2386POPC   C4B32362  22.208  38.544   7.737
 2387POPC   NC332363  39.660  36.693   9.486
 2387POPC   PO432364  40.088  37.136   9.762
 2387POPC   GL132365  40.020  37.070   9.287
 2387POPC   GL232366  40.103  36.734   9.214
 2387POPC   C1A32367  39.913  37.043   8.811
 2387POPC   D2A32368  40.094  36.918   8.398
 2387POPC   C3A32369  40.106  37.138   7.982
 2387POPC   C4A32370  39.957  37.068   7.516
 2387POPC   C1B32371  40.162  36.558   8.808
 2387POPC   C2B32372  40.161  36.413   8.403
 2387POPC   C3B32373  40.258  36.608   7.998
 2387POPC   C4B32374  40.529  36.451   7.701
 2388POPC   NC332375  38.227  38.868   9.461
 2388POPC   PO432376  38.715  39.391   9.554
 2388POPC   GL132377  38.492  39.241   9.209
 2388POPC   GL232378  38.659  38.944   9.222
 2388POPC   C1A32379  38.303  39.190   8.788
 2388POPC   D2A32380  38.119  39.265   8.374
 2388POPC   C3A32381  38.323  39.405   7.977
 2388POPC   C4A32382  38.319  39.373   7.492
 2388POPC   C1B32383  38.562  38.780   8.819
 2388POPC   C2B32384  38.572  38.947   8.395
 2388POPC   C3B32385  38.510  38.915   7.944
 2388POPC   C4B32386  38.512  38.922   7.469
 2389POPC   NC332387   4.443   8.391   9.602
 2389POPC   PO432388   4.181   7.798   9.679
 2389POPC   GL132389   4.352   7.962   9.295
 2389POPC   GL232390   4.045   8.140   9.226
 2389POPC   C1A32391   4.522   8.112   8.888
 2389POPC   D2A32392   4.303   8.128   8.475
 2389POPC   C3A32393   4.515   8.213   8.082
 2389POPC   C4A32394   4.497   8.068   7.639
 2389POPC   C1B32395   3.870   7.988   8.824
 2389POPC   C2B32396   3.851   7.861   8.392
 2389POPC   C3B32397   3.990   8.109   8.046
 2389POPC   C4B32398   3.979   8.042   7.644
 2390POPC   NC332399  13.530   6.001   9.673
 2390POPC   PO432400  14.101   6.067   9.290
 2390POPC   GL132401  13.818   5.885   9.017
 2390POPC   GL232402  13.519   6.008   9.175
 2390POPC   C1A32403  13.758   5.908   8.554
 2390POPC   D2A32404  13.688   6.182   8.195
 2390POPC   C3A32405  13.756   5.918   7.856
 2390POPC   C4A32406  13.794   5.477   7.908
 2390POPC   C1B32407  13.333   5.978   8.807
 2390POPC   C2B32408  13.268   5.980   8.388
 2390POPC   C3B32409  13.307   5.750   8.028
 2390POPC   C4B32410  13.318   5.861   7.595
 2391POPC   NC332411  41.579   5.347   9.446
 2391POPC   PO432412  41.488   6.087   9.535
 2391POPC   GL132413  41.484   6.001   9.130
 2391POPC   GL232414  41.398   5.685   9.110
 2391POPC   C1A32415  41.624   6.176   8.752
 2391POPC   D2A32416  41.906   6.077   8.447
 2391POPC   C3A32417  41.655   5.921   8.158
 2391POPC   C4A32418  41.593   5.998   7.756
 2391POPC   C1B32419  41.193   5.875   8.727
 2391POPC   C2B32420  41.195   6.107   8.346
 2391POPC   C3B32421  41.169   5.817   8.000
 2391POPC   C4B32422  41.436   5.531   7.766
 2392POPC   NC332423   3.668  34.323   9.516
 2392POPC   PO432424   3.397  34.887   9.354
 2392POPC   GL132425   3.548  34.625   9.097
 2392POPC   GL232426   3.328  34.389   9.126
 2392POPC   C1A32427   3.524  34.672   8.679
 2392POPC   D2A32428   3.719  34.573   8.318
 2392POPC   C3A32429   3.601  34.753   7.927
 2392POPC   C4A32430   3.777  34.581   7.551
 2392POPC   C1B32431   3.151  34.220   8.795
 2392POPC   C2B32432   3.159  34.417   8.421
 2392POPC   C3B32433   3.330  34.328   8.082
 2392POPC   C4B32434   3.354  34.342   7.705
 2393POPC   NC332435  25.563  26.617   9.574
 2393POPC   PO432436  26.268  26.729   9.677
 2393POPC   GL132437  26.130  26.725   9.262
 2393POPC   GL232438  26.056  27.058   9.147
 2393POPC   C1A32439  26.223  26.641   8.813
 2393POPC   D2A32440  26.142  26.418   8.404
 2393POPC   C3A32441  26.050  26.574   7.990
 2393POPC   C4A32442  26.207  26.679   7.570
 2393POPC   C1B32443  26.028  27.147   8.718
 2393POPC   C2B32444  26.221  26.949   8.362
 2393POPC   C3B32445  26.099  27.062   7.928
 2393POPC   C4B32446  25.858  27.334   7.716
 2394POPC   NC332447   1.069   0.508   9.582
 2394POPC   PO432448   1.671   0.590   9.578
 2394POPC   GL132449   1.402   0.316   9.241
 2394POPC   GL232450   1.016   0.342   9.111
 2394POPC   C1A32451   1.472   0.318   8.793
 2394POPC   D2A32452   1.696   0.571   8.449
 2394POPC   C3A32453   1.454   0.514   8.044
 2394POPC   C4A32454   1.320   0.177   7.776
 2394POPC   C1B32455   1.061   0.657   8.789
 2394POPC   C2B32456   1.016   0.613   8.328
 2394POPC   C3B32457   0.931   0.531   7.875
 2394POPC   C4B32458   0.903   0.770   7.465
 2395POPC   NC332459  39.379  37.593   9.449
 2395POPC   PO432460  38.737  37.283   9.438
 2395POPC   GL132461  38.964  37.619   9.146
 2395POPC   GL232462  39.295  37.870   9.035
 2395POPC   C1A32463  39.199  37.454   8.792
 2395POPC   D2A32464  39.373  37.609   8.400
 2395POPC   C3A32465  39.255  37.396   8.020
 2395POPC   C4A32466  38.962  37.185   7.739
 2395POPC   C1B32467  38.992  37.953   8.708
 2395POPC   C2B32468  39.077  38.141   8.306
 2395POPC   C3B32469  39.344  37.952   7.998
 2395POPC   C4B32470  39.562  37.766   7.689
 2396POPC   NC332471  10.700   7.063   9.379
 2396POPC   PO432472  10.425   6.617   9.891
 2396POPC   GL132473  10.441   6.590   9.389
 2396POPC   GL232474  10.261   6.813   9.194
 2396POPC   C1A32475  10.583   6.522   8.935
 2396POPC   D2A32476  10.742   6.609   8.511
 2396POPC   C3A32477  10.619   6.413   8.153
 2396POPC   C4A32478  10.230   6.480   7.970
 2396POPC   C1B32479  10.366   7.023   8.807
 2396POPC   C2B32480  10.299   6.833   8.428
 2396POPC   C3B32481  10.478   6.918   8.061
 2396POPC   C4B32482  10.280   6.871   7.650
 2397POPC   NC332483   6.420   4.869   9.473
 2397POPC   PO432484   7.001   5.204   9.734
 2397POPC   GL132485   6.806   5.128   9.265
 2397POPC   GL232486   6.651   5.413   9.099
 2397POPC   C1A32487   6.782   5.006   8.803
 2397POPC   D2A32488   6.694   4.766   8.387
 2397POPC   C3A32489   6.488   4.956   7.985
 2397POPC   C4A32490   6.658   5.135   7.567
 2397POPC   C1B32491   6.797   5.525   8.704
 2397POPC   C2B32492   6.682   5.306   8.359
 2397POPC   C3B32493   6.871   5.302   7.992
 2397POPC   C4B32494   6.870   5.592   7.694
 2398POPC   NC332495  12.830  24.246   9.436
 2398POPC   PO432496  13.031  24.916   9.469
 2398POPC   GL132497  12.898  24.673   9.169
 2398POPC   GL232498  12.521  24.720   9.205
 2398POPC   C1A32499  12.990  24.774   8.761
 2398POPC   D2A32500  12.766  24.786   8.384
 2398POPC   C3A32501  12.977  24.711   8.003
 2398POPC   C4A32502  12.943  24.632   7.572
 2398POPC   C1B32503  12.576  24.459   8.822
 2398POPC   C2B32504  12.609  24.300   8.383
 2398POPC   C3B32505  12.529  24.429   7.940
 2398POPC   C4B32506  12.404  24.298   7.513
 2399POPC   NC332507  32.767  16.445   9.389
 2399POPC   PO432508  33.247  16.779   9.548
 2399POPC   GL132509  33.139  16.663   9.152
 2399POPC   GL232510  32.915  16.944   9.067
 2399POPC   C1A32511  32.980  16.429   8.786
 2399POPC   D2A32512  33.085  16.447   8.385
 2399POPC   C3A32513  32.827  16.580   8.067
 2399POPC   C4A32514  32.972  16.551   7.678
 2399POPC   C1B32515  32.801  16.879   8.611
 2399POPC   C2B32516  32.744  17.068   8.180
 2399POPC   C3B32517  33.029  17.062   7.840
 2399POPC   C4B32518  33.479  17.116   7.845
 2400POPC   NC332519  15.610  26.666   9.628
 2400POPC   PO432520  15.093  27.121   9.663
 2400POPC   GL132521  15.130  26.853   9.229
 2400POPC   GL232522  15.415  26.618   9.144
 2400POPC   C1A32523  15.114  26.719   8.745
 2400POPC   D2A32524  14.970  26.561   8.326
 2400POPC   C3A32525  14.995  26.796   7.904
 2400POPC   C4A32526  15.153  27.160   7.668
 2400POPC   C1B32527  15.526  26.394   8.730
 2400POPC   C2B32528  15.500  26.531   8.287
 2400POPC   C3B32529  15.303  26.398   7.885
 2400POPC   C4B32530  15.305  26.564   7.448
 2401POPC   NC332531  30.111  11.706   9.470
 2401POPC   PO432532  29.672  12.151   9.798
 2401POPC   GL132533  29.690  12.108   9.331
 2401POPC   GL232534  30.046  12.144   9.201
 2401POPC   C1A32535  29.653  12.131   8.869
 2401POPC   D2A32536  29.851  11.871   8.567
 2401POPC   C3A32537  29.825  11.974   8.124
 2401POPC   C4A32538  29.911  11.918   7.689
 2401POPC   C1B32539  30.122  12.369   8.802
 2401POPC   C2B32540  30.182  12.222   8.383
 2401POPC   C3B32541  30.310  12.098   7.977
 2401POPC   C4B32542  30.363  12.387   7.681
 2402POPC   NC332543  15.566  31.807   9.550
 2402POPC   PO432544  15.886  32.408   9.740
 2402POPC   GL132545  15.946  32.470   9.256
 2402POPC   GL232546  15.960  32.113   9.167
 2402POPC   C1A32547  15.910  32.487   8.815
 2402POPC   D2A32548  16.056  32.255   8.455
 2402POPC   C3A32549  16.125  32.545   8.131
 2402POPC   C4A32550  15.930  32.503   7.742
 2402POPC   C1B32551  15.723  32.012   8.775
 2402POPC   C2B32552  15.686  31.837   8.345
 2402POPC   C3B32553  15.840  32.063   7.990
 2402POPC   C4B32554  15.790  32.043   7.530
 2403POPC   NC332555  31.924  31.003   9.826
 2403POPC   PO432556  32.324  31.440   9.525
 2403POPC   GL132557  32.415  31.341   9.137
 2403POPC   GL232558  32.146  31.138   9.087
 2403POPC   C1A32559  32.342  31.562   8.800
 2403POPC   D2A32560  32.498  31.429   8.457
 2403POPC   C3A32561  32.475  31.599   8.090
 2403POPC   C4A32562  32.468  31.550   7.692
 2403POPC   C1B32563  32.096  31.140   8.645
 2403POPC   C2B32564  32.105  31.223   8.198
 2403POPC   C3B32565  32.092  31.217   7.745
 2403POPC   C4B32566  32.087  31.108   7.280
 2404POPC   NC332567   1.227   1.874   9.692
 2404POPC   PO432568   1.759   2.190   9.465
 2404POPC   GL132569   1.375   2.119   9.236
 2404POPC   GL232570   1.284   1.762   9.206
 2404POPC   C1A32571   1.251   2.113   8.802
 2404POPC   D2A32572   1.454   2.205   8.399
 2404POPC   C3A32573   1.184   2.164   8.039
 2404POPC   C4A32574   1.299   1.965   7.661
 2404POPC   C1B32575   1.406   1.604   8.829
 2404POPC   C2B32576   1.293   1.636   8.412
 2404POPC   C3B32577   1.415   1.394   8.079
 2404POPC   C4B32578   1.362   1.450   7.665
 2405POPC   NC332579  40.342  24.590   9.416
 2405POPC   PO432580  39.751  24.326   9.520
 2405POPC   GL132581  39.966  24.386   9.137
 2405POPC   GL232582  39.881  24.688   9.127
 2405POPC   C1A32583  40.264  24.571   8.788
 2405POPC   D2A32584  40.423  24.650   8.374
 2405POPC   C3A32585  40.310  24.441   8.038
 2405POPC   C4A32586  40.207  24.585   7.651
 2405POPC   C1B32587  39.706  24.650   8.766
 2405POPC   C2B32588  39.905  24.457   8.423
 2405POPC   C3B32589  39.826  24.619   8.033
 2405POPC   C4B32590  39.564  24.935   7.841
 2406POPC   NC332591  18.993  10.003   9.659
 2406POPC   PO432592  19.256  10.583   9.521
 2406POPC   GL132593  18.972  10.595   9.198
 2406POPC   GL232594  19.131  10.325   9.059
 2406POPC   C1A32595  18.946  10.720   8.772
 2406POPC   D2A32596  18.891  10.541   8.398
 2406POPC   C3A32597  18.876  10.781   8.033
 2406POPC   C4A32598  18.885  10.512   7.697
 2406POPC   C1B32599  19.375  10.463   8.691
 2406POPC   C2B32600  19.377  10.400   8.225
 2406POPC   C3B32601  19.263  10.180   7.842
 2406POPC   C4B32602  19.066  10.105   7.437
 2407POPC   NC332603   7.474  22.943   9.683
 2407POPC   PO432604   7.821  22.359   9.445
 2407POPC   GL132605   7.505  22.595   9.213
 2407POPC   GL232606   7.352  22.944   9.182
 2407POPC   C1A32607   7.499  22.647   8.771
 2407POPC   D2A32608   7.663  22.762   8.354
 2407POPC   C3A32609   7.445  22.717   7.948
 2407POPC   C4A32610   7.471  23.025   7.576
 2407POPC   C1B32611   7.232  23.086   8.765
 2407POPC   C2B32612   7.148  22.937   8.353
 2407POPC   C3B32613   7.169  23.135   7.958
 2407POPC   C4B32614   6.994  23.231   7.547
 2408POPC   NC332615   5.420  29.579   9.712
 2408POPC   PO432616   5.258  30.291   9.756
 2408POPC   GL132617   5.061  30.171   9.335
 2408POPC   GL232618   5.348  30.049   9.173
 2408POPC   C1A32619   4.824  29.928   8.956
 2408POPC   D2A32620   4.664  29.754   8.524
 2408POPC   C3A32621   4.886  29.828   8.100
 2408POPC   C4A32622   5.035  29.807   7.643
 2408POPC   C1B32623   5.178  30.291   8.809
 2408POPC   C2B32624   5.024  30.300   8.356
 2408POPC   C3B32625   4.977  30.290   7.875
 2408POPC   C4B32626   5.044  30.389   7.391
 2409POPC   NC332627  33.363  10.367   9.215
 2409POPC   PO432628  33.948  10.210   9.572
 2409POPC   GL132629  33.885  10.267   9.135
 2409POPC   GL232630  33.974  10.629   9.120
 2409POPC   C1A32631  33.737  10.163   8.708
 2409POPC   D2A32632  33.628  10.416   8.326
 2409POPC   C3A32633  33.617  10.426   7.879
 2409POPC   C4A32634  34.010  10.412   7.667
 2409POPC   C1B32635  33.689  10.722   8.759
 2409POPC   C2B32636  33.302  10.762   8.493
 2409POPC   C3B32637  33.402  10.885   8.052
 2409POPC   C4B32638  33.798  10.967   7.838
 2410POPC   NC332639  15.727  28.131   9.512
 2410POPC   PO432640  16.263  28.556   9.596
 2410POPC   GL132641  16.047  28.490   9.229
 2410POPC   GL232642  16.114  28.137   9.154
 2410POPC   C1A32643  16.165  28.524   8.787
 2410POPC   D2A32644  15.818  28.460   8.478
 2410POPC   C3A32645  15.827  28.493   8.029
 2410POPC   C4A32646  16.092  28.767   7.796
 2410POPC   C1B32647  16.031  28.026   8.721
 2410POPC   C2B32648  16.012  28.054   8.252
 2410POPC   C3B32649  15.686  27.999   7.951
 2410POPC   C4B32650  15.603  27.953   7.513
 2411POPC   NC332651  32.087   9.781   9.774
 2411POPC   PO432652  31.785  10.326   9.553
 2411POPC   GL132653  32.114  10.035   9.189
 2411POPC   GL232654  32.226   9.689   9.227
 2411POPC   C1A32655  32.019   9.807   8.772
 2411POPC   D2A32656  32.034   9.623   8.341
 2411POPC   C3A32657  32.247   9.806   7.990
 2411POPC   C4A32658  32.031  10.008   7.645
 2411POPC   C1B32659  32.514   9.631   8.842
 2411POPC   C2B32660  32.497   9.412   8.447
 2411POPC   C3B32661  32.349   9.283   8.072
 2411POPC   C4B32662  32.188   9.397   7.666
 2412POPC   NC332663   5.914  40.520   9.400
 2412POPC   PO432664   5.404  40.888   9.310
 2412POPC   GL132665   5.761  40.837   9.027
 2412POPC   GL232666   6.113  40.654   8.962
 2412POPC   C1A32667   5.745  40.700   8.606
 2412POPC   D2A32668   5.540  40.562   8.260
 2412POPC   C3A32669   5.729  40.802   7.975
 2412POPC   C4A32670   5.803  40.935   7.559
 2412POPC   C1B32671   6.123  41.029   8.733
 2412POPC   C2B32672   6.029  41.046   8.325
 2412POPC   C3B32673   6.230  40.929   7.966
 2412POPC   C4B32674   6.243  41.184   7.608
 2413POPC   NC332675   0.050  39.353   9.935
 2413POPC   PO432676  44.491  39.325   9.567
 2413POPC   GL132677  44.541  39.222   9.165
 2413POPC   GL232678  44.678  39.515   9.081
 2413POPC   C1A32679  44.359  39.010   8.824
 2413POPC   D2A32680  44.221  39.081   8.405
 2413POPC   C3A32681  44.559  39.176   8.154
 2413POPC   C4A32682  44.934  39.150   7.901
 2413POPC   C1B32683  44.683  39.456   8.653
 2413POPC   C2B32684  44.853  39.587   8.242
 2413POPC   C3B32685  44.674  39.590   7.844
 2413POPC   C4B32686  44.604  39.465   7.435
 2414POPC   NC332687  15.015  23.579   9.882
 2414POPC   PO432688  14.469  23.533   9.539
 2414POPC   GL132689  14.378  23.673   9.143
 2414POPC   GL232690  14.149  23.928   9.154
 2414POPC   C1A32691  14.226  23.504   8.734
 2414POPC   D2A32692  14.068  23.425   8.308
 2414POPC   C3A32693  14.246  23.610   7.900
 2414POPC   C4A32694  14.468  23.448   7.488
 2414POPC   C1B32695  14.363  23.985   8.751
 2414POPC   C2B32696  14.518  23.816   8.381
 2414POPC   C3B32697  14.608  23.966   7.998
 2414POPC   C4B32698  14.592  24.195   7.638
 2415POPC   NC332699  28.041   7.956   9.640
 2415POPC   PO432700  28.571   8.278   9.425
 2415POPC   GL132701  28.396   8.193   9.090
 2415POPC   GL232702  28.260   7.915   9.179
 2415POPC   C1A32703  28.471   8.265   8.693
 2415POPC   D2A32704  28.177   8.355   8.411
 2415POPC   C3A32705  28.361   8.325   8.051
 2415POPC   C4A32706  28.146   8.451   7.688
 2415POPC   C1B32707  28.439   7.754   8.805
 2415POPC   C2B32708  28.415   7.862   8.394
 2415POPC   C3B32709  28.154   7.857   8.099
 2415POPC   C4B32710  28.281   7.950   7.697
 2416POPC   NC332711  44.876  41.499   9.523
 2416POPC   PO432712  44.285  41.295   9.551
 2416POPC   GL132713  44.511  41.413   9.150
 2416POPC   GL232714  44.597  41.737   9.153
 2416POPC   C1A32715  44.528  41.548   8.703
 2416POPC   D2A32716  44.731  41.396   8.337
 2416POPC   C3A32717  44.625  41.673   8.041
 2416POPC   C4A32718  44.329  41.714   7.745
 2416POPC   C1B32719  44.889  41.904   8.837
 2416POPC   C2B32720  44.931  41.905   8.388
 2416POPC   C3B32721  44.955  42.046   7.934
 2416POPC   C4B32722  44.809  41.803   7.563
 2417POPC   NC332723  20.713   5.578   9.775
 2417POPC   PO432724  20.923   4.957   9.534
 2417POPC   GL132725  20.714   5.038   9.154
 2417POPC   GL232726  20.986   5.259   9.050
 2417POPC   C1A32727  20.484   4.858   8.787
 2417POPC   D2A32728  20.609   4.838   8.332
 2417POPC   C3A32729  20.368   5.028   8.028
 2417POPC   C4A32730  20.277   5.000   7.618
 2417POPC   C1B32731  20.706   5.314   8.692
 2417POPC   C2B32732  20.635   5.403   8.263
 2417POPC   C3B32733  20.825   5.318   7.889
 2417POPC   C4B32734  20.782   5.506   7.442
 2418POPC   NC332735  43.211  44.699   9.601
 2418POPC   PO432736  42.640  44.350   9.537
 2418POPC   GL132737  42.937  44.521   9.145
 2418POPC   GL232738  43.186  44.801   9.079
 2418POPC   C1A32739  43.095  44.513   8.685
 2418POPC   D2A32740  42.930  44.324   8.338
 2418POPC   C3A32741  42.799  44.585   8.016
 2418POPC   C4A32742  43.003  44.591   7.649
 2418POPC   C1B32743  42.909  44.993   8.761
 2418POPC   C2B32744  42.947  44.987   8.328
 2418POPC   C3B32745  43.256  44.807   8.070
 2418POPC   C4B32746  43.336  44.959   7.690
 2419POPC   NC332747  12.862  41.105   9.412
 2419POPC   PO432748  12.985  40.440   9.523
 2419POPC   GL132749  13.062  40.671   9.184
 2419POPC   GL232750  13.329  40.897   9.284
 2419POPC   C1A32751  12.810  40.666   8.807
 2419POPC   D2A32752  12.736  40.473   8.396
 2419POPC   C3A32753  12.674  40.784   8.071
 2419POPC   C4A32754  12.632  40.724   7.606
 2419POPC   C1B32755  13.248  41.002   8.844
 2419POPC   C2B32756  12.988  41.050   8.493
 2419POPC   C3B32757  13.163  40.926   8.125
 2419POPC   C4B32758  13.015  41.042   7.741
 2420POPC   NC332759  28.594  41.957   9.384
 2420POPC   PO432760  28.291  42.472   9.738
 2420POPC   GL132761  28.362  42.425   9.314
 2420POPC   GL232762  28.054  42.367   9.164
 2420POPC   C1A32763  28.499  42.521   8.917
 2420POPC   D2A32764  28.348  42.471   8.508
 2420POPC   C3A32765  28.625  42.424   8.191
 2420POPC   C4A32766  28.511  42.596   7.785
 2420POPC   C1B32767  27.963  42.217   8.731
 2420POPC   C2B32768  28.199  41.998   8.385
 2420POPC   C3B32769  28.226  42.149   7.984
 2420POPC   C4B32770  28.251  42.230   7.569
 2421POPC   NC332771   2.120  30.126   9.404
 2421POPC   PO432772   1.644  29.581   9.379
 2421POPC   GL132773   1.998  29.660   9.100
 2421POPC   GL232774   2.066  29.987   8.922
 2421POPC   C1A32775   2.103  29.558   8.680
 2421POPC   D2A32776   1.952  29.783   8.343
 2421POPC   C3A32777   2.098  29.541   8.002
 2421POPC   C4A32778   2.070  29.549   7.584
 2421POPC   C1B32779   1.833  30.253   8.610
 2421POPC   C2B32780   1.733  30.469   8.245
 2421POPC   C3B32781   1.636  30.182   7.989
 2421POPC   C4B32782   1.958  29.989   7.866
 2422POPC   NC332783  27.087  15.898   9.789
 2422POPC   PO432784  27.816  16.009   9.496
 2422POPC   GL132785  27.722  15.931   9.060
 2422POPC   GL232786  27.394  15.881   8.936
 2422POPC   C1A32787  27.763  15.852   8.592
 2422POPC   D2A32788  27.479  15.628   8.294
 2422POPC   C3A32789  27.572  15.730   7.865
 2422POPC   C4A32790  27.877  16.059   7.744
 2422POPC   C1B32791  27.423  16.260   8.745
 2422POPC   C2B32792  27.504  16.402   8.377
 2422POPC   C3B32793  27.442  16.208   7.998
 2422POPC   C4B32794  27.363  16.085   7.559
 2423POPC   NC332795   8.125  32.606   9.452
 2423POPC   PO432796   8.073  31.924   9.510
 2423POPC   GL132797   7.921  32.198   9.215
 2423POPC   GL232798   8.285  32.267   9.091
 2423POPC   C1A32799   7.871  32.446   8.848
 2423POPC   D2A32800   8.174  32.388   8.533
 2423POPC   C3A32801   7.982  32.418   8.127
 2423POPC   C4A32802   7.901  32.166   7.772
 2423POPC   C1B32803   8.592  32.548   8.868
 2423POPC   C2B32804   8.536  32.735   8.458
 2423POPC   C3B32805   8.484  32.530   8.093
 2423POPC   C4B32806   8.297  32.494   7.682
 2424POPC   NC332807  38.255   4.828   9.782
 2424POPC   PO432808  38.653   5.297   9.509
 2424POPC   GL132809  38.422   5.251   9.150
 2424POPC   GL232810  38.214   4.963   9.171
 2424POPC   C1A32811  38.456   5.180   8.717
 2424POPC   D2A32812  38.275   5.347   8.342
 2424POPC   C3A32813  38.444   5.196   7.983
 2424POPC   C4A32814  38.491   5.280   7.581
 2424POPC   C1B32815  38.201   4.752   8.760
 2424POPC   C2B32816  38.266   4.815   8.329
 2424POPC   C3B32817  38.031   4.909   7.957
 2424POPC   C4B32818  38.172   4.899   7.552
 2425POPC   NC332819  16.575  12.548   9.541
 2425POPC   PO432820  17.123  12.979   9.533
 2425POPC   GL132821  16.727  12.967   9.225
 2425POPC   GL232822  16.643  12.655   9.069
 2425POPC   C1A32823  16.572  13.039   8.779
 2425POPC   D2A32824  16.662  12.823   8.410
 2425POPC   C3A32825  16.550  13.033   8.105
 2425POPC   C4A32826  16.510  12.902   7.731
 2425POPC   C1B32827  16.663  12.416   8.725
 2425POPC   C2B32828  16.815  12.339   8.327
 2425POPC   C3B32829  16.827  12.560   7.935
 2425POPC   C4B32830  16.820  12.615   7.465
 2426POPC   NC332831  44.222   4.748   9.475
 2426POPC   PO432832  44.109   5.406   9.304
 2426POPC   GL132833  43.815   5.233   9.068
 2426POPC   GL232834  43.836   4.932   9.194
 2426POPC   C1A32835  43.660   5.194   8.671
 2426POPC   D2A32836  43.885   5.124   8.288
 2426POPC   C3A32837  43.851   5.323   7.883
 2426POPC   C4A32838  43.538   5.257   7.539
 2426POPC   C1B32839  44.116   4.828   8.834
 2426POPC   C2B32840  44.206   4.735   8.403
 2426POPC   C3B32841  44.148   4.839   7.960
 2426POPC   C4B32842  43.876   4.891   7.626
 2427POPC   NC332843   2.631  29.287   9.591
 2427POPC   PO432844   3.227  29.089   9.425
 2427POPC   GL132845   2.888  29.127   9.070
 2427POPC   GL232846   2.512  29.188   9.105
 2427POPC   C1A32847   2.762  28.867   8.684
 2427POPC   D2A32848   2.608  28.822   8.244
 2427POPC   C3A32849   2.829  28.951   7.888
 2427POPC   C4A32850   2.888  29.094   7.437
 2427POPC   C1B32851   2.598  29.361   8.712
 2427POPC   C2B32852   2.799  29.288   8.335
 2427POPC   C3B32853   2.716  29.433   7.946
 2427POPC   C4B32854   2.608  29.544   7.581
 2428POPC   NC332855   1.578  19.611   9.548
 2428POPC   PO432856   2.172  19.811   9.594
 2428POPC   GL132857   1.905  19.834   9.183
 2428POPC   GL232858   1.775  19.508   9.028
 2428POPC   C1A32859   1.904  19.955   8.755
 2428POPC   D2A32860   1.874  19.744   8.370
 2428POPC   C3A32861   1.903  19.923   7.956
 2428POPC   C4A32862   2.086  19.820   7.523
 2428POPC   C1B32863   2.178  19.530   8.740
 2428POPC   C2B32864   2.307  19.488   8.300
 2428POPC   C3B32865   2.238  19.446   7.843
 2428POPC   C4B32866   2.238  19.335   7.346
 2429POPC   NC332867  10.592  26.375   9.413
 2429POPC   PO432868  10.360  26.952   9.613
 2429POPC   GL132869  10.529  26.833   9.206
 2429POPC   GL232870  10.814  26.932   9.025
 2429POPC   C1A32871  10.454  26.638   8.786
 2429POPC   D2A32872  10.619  26.770   8.375
 2429POPC   C3A32873  10.419  26.641   7.998
 2429POPC   C4A32874  10.115  26.806   7.755
 2429POPC   C1B32875  10.978  26.622   8.740
 2429POPC   C2B32876  11.013  26.451   8.324
 2429POPC   C3B32877  10.932  26.725   7.941
 2429POPC   C4B32878  10.861  26.681   7.487
 2430POPC   NC332879  23.155   7.035   9.921
 2430POPC   PO432880  22.777   7.310   9.489
 2430POPC   GL132881  23.034   7.299   9.125
 2430POPC   GL232882  22.722   7.438   8.977
 2430POPC   C1A32883  23.110   7.347   8.660
 2430POPC   D2A32884  22.846   7.393   8.275
 2430POPC   C3A32885  23.100   7.440   7.887
 2430POPC   C4A32886  23.043   7.442   7.437
 2430POPC   C1B32887  22.679   7.745   8.666
 2430POPC   C2B32888  22.938   7.884   8.357
 2430POPC   C3B32889  22.789   7.822   7.956
 2430POPC   C4B32890  22.662   7.737   7.591
 2431POPC   NC332891  29.453  44.994   9.451
 2431POPC   PO432892  28.964  44.545   9.229
 2431POPC   GL132893  29.297  44.695   9.042
 2431POPC   GL232894  29.485  44.360   9.104
 2431POPC   C1A32895  29.196  44.816   8.623
 2431POPC   D2A32896  29.341  44.675   8.220
 2431POPC   C3A32897  29.165  44.951   7.944
 2431POPC   C4A32898  29.105   0.003   7.524
 2431POPC   C1B32899  29.333  44.324   8.676
 2431POPC   C2B32900  28.981  44.317   8.374
 2431POPC   C3B32901  29.012  44.398   7.913
 2431POPC   C4B32902  29.367  44.563   7.666
 2432POPC   NC332903  42.345  31.309   9.554
 2432POPC   PO432904  42.335  30.665   9.699
 2432POPC   GL132905  42.376  30.640   9.254
 2432POPC   GL232906  42.493  30.973   9.188
 2432POPC   C1A32907  42.449  30.571   8.805
 2432POPC   D2A32908  42.666  30.551   8.399
 2432POPC   C3A32909  42.445  30.348   8.097
 2432POPC   C4A32910  42.365  30.417   7.672
 2432POPC   C1B32911  42.514  31.073   8.753
 2432POPC   C2B32912  42.260  30.912   8.416
 2432POPC   C3B32913  42.308  30.847   7.986
 2432POPC   C4B32914  42.665  31.032   7.832
 2433POPC   NC332915  30.103  18.500   9.541
 2433POPC   PO432916  29.572  18.083   9.438
 2433POPC   GL132917  29.807  18.289   9.149
 2433POPC   GL232918  30.144  18.265   9.116
 2433POPC   C1A32919  29.872  18.644   8.899
 2433POPC   D2A32920  29.807  18.720   8.482
 2433POPC   C3A32921  29.720  18.401   8.181
 2433POPC   C4A32922  29.846  18.551   7.791
 2433POPC   C1B32923  30.306  18.375   8.746
 2433POPC   C2B32924  30.188  18.237   8.344
 2433POPC   C3B32925  30.367  18.346   7.948
 2433POPC   C4B32926  30.270  18.485   7.536
 2434POPC   NC332927   2.058  14.072   9.258
 2434POPC   PO432928   1.646  13.691   9.674
 2434POPC   GL132929   1.710  13.526   9.221
 2434POPC   GL232930   2.073  13.527   9.170
 2434POPC   C1A32931   1.761  13.619   8.774
 2434POPC   D2A32932   1.982  13.908   8.532
 2434POPC   C3A32933   1.914  13.769   8.122
 2434POPC   C4A32934   1.791  13.467   7.814
 2434POPC   C1B32935   2.192  13.206   8.841
 2434POPC   C2B32936   2.392  13.194   8.439
 2434POPC   C3B32937   2.213  13.325   8.088
 2434POPC   C4B32938   2.277  13.625   7.806
 2435POPC   NC332939  26.634  27.949   9.396
 2435POPC   PO432940  26.729  28.480   9.563
 2435POPC   GL132941  26.825  28.560   9.131
 2435POPC   GL232942  26.945  28.223   9.063
 2435POPC   C1A32943  26.937  28.536   8.665
 2435POPC   D2A32944  26.997  28.183   8.344
 2435POPC   C3A32945  26.876  28.318   7.899
 2435POPC   C4A32946  27.037  28.303   7.456
 2435POPC   C1B32947  26.666  28.034   8.736
 2435POPC   C2B32948  26.566  27.875   8.317
 2435POPC   C3B32949  26.500  27.982   7.878
 2435POPC   C4B32950  26.684  27.913   7.471
 2436POPC   NC332951  15.556  32.660   9.515
 2436POPC   PO432952  16.172  32.950   9.499
 2436POPC   GL132953  15.828  32.969   9.204
 2436POPC   GL232954  16.100  32.947   9.002
 2436POPC   C1A32955  15.654  32.978   8.769
 2436POPC   D2A32956  15.773  32.789   8.385
 2436POPC   C3A32957  15.685  32.913   7.946
 2436POPC   C4A32958  15.377  33.219   7.774
 2436POPC   C1B32959  16.240  32.829   8.634
 2436POPC   C2B32960  16.215  33.101   8.313
 2436POPC   C3B32961  16.145  33.096   7.912
 2436POPC   C4B32962  16.348  32.791   7.747
 2437POPC   NC332963   6.470  11.569   9.350
 2437POPC   PO432964   6.763  10.951   9.485
 2437POPC   GL132965   6.603  11.016   9.080
 2437POPC   GL232966   6.250  10.897   9.141
 2437POPC   C1A32967   6.755  11.330   8.737
 2437POPC   D2A32968   6.825  11.679   8.426
 2437POPC   C3A32969   6.937  11.581   8.008
 2437POPC   C4A32970   6.926  11.214   7.758
 2437POPC   C1B32971   6.229  11.250   8.814
 2437POPC   C2B32972   6.322  11.472   8.414
 2437POPC   C3B32973   6.428  11.436   7.954
 2437POPC   C4B32974   6.316  11.585   7.543
 2438POPC   NC332975  40.531  42.080   9.394
 2438POPC   PO432976  41.038  42.493   9.507
 2438POPC   GL132977  40.961  42.314   9.135
 2438POPC   GL232978  40.675  42.522   9.122
 2438POPC   C1A32979  41.086  42.108   8.750
 2438POPC   D2A32980  40.980  41.949   8.334
 2438POPC   C3A32981  40.825  42.286   8.081
 2438POPC   C4A32982  40.846  42.326   7.661
 2438POPC   C1B32983  40.797  42.589   8.694
 2438POPC   C2B32984  40.595  42.699   8.302
 2438POPC   C3B32985  40.422  42.650   7.868
 2438POPC   C4B32986  40.551  42.615   7.380
 2439POPC   NC332987   7.184  29.316   9.330
 2439POPC   PO432988   7.572  29.802   9.615
 2439POPC   GL132989   7.650  30.037   9.250
 2439POPC   GL232990   7.362  29.893   9.051
 2439POPC   C1A32991   7.783  30.040   8.835
 2439POPC   D2A32992   7.496  29.940   8.528
 2439POPC   C3A32993   7.633  29.950   8.161
 2439POPC   C4A32994   7.822  29.878   7.779
 2439POPC   C1B32995   7.357  30.309   8.845
 2439POPC   C2B32996   7.083  30.455   8.509
 2439POPC   C3B32997   7.214  30.406   8.090
 2439POPC   C4B32998   7.346  30.109   7.774
 2440POPC   NC332999  42.465  18.467   9.501
 2440POPC   PO433000  42.093  19.090   9.644
 2440POPC   GL133001  42.246  19.015   9.168
 2440POPC   GL233002  42.405  19.309   9.030
 2440POPC   C1A33003  42.099  19.048   8.724
 2440POPC   D2A33004  42.246  19.271   8.373
 2440POPC   C3A33005  42.148  19.062   7.993
 2440POPC   C4A33006  42.121  19.097   7.522
 2440POPC   C1B33007  42.643  19.004   8.799
 2440POPC   C2B33008  42.894  19.039   8.483
 2440POPC   C3B33009  42.664  18.984   8.135
 2440POPC   C4B33010  42.557  18.927   7.708
 2441POPC   NC333011   2.512  10.844   9.420
 2441POPC   PO433012   3.005  10.446   9.849
 2441POPC   GL133013   2.946  10.567   9.376
 2441POPC   GL233014   3.227  10.647   9.193
 2441POPC   C1A33015   2.793  10.479   8.928
 2441POPC   D2A33016   2.412  10.348   8.654
 2441POPC   C3A33017   2.490  10.307   8.195
 2441POPC   C4A33018   2.586  10.300   7.756
 2441POPC   C1B33019   3.255  10.750   8.749
 2441POPC   C2B33020   3.284  10.551   8.326
 2441POPC   C3B33021   3.073  10.426   7.935
 2441POPC   C4B33022   2.937  10.646   7.544
 2442POPC   NC333023  17.359  30.401   9.537
 2442POPC   PO433024  17.942  30.792   9.629
 2442POPC   GL133025  17.766  30.649   9.223
 2442POPC   GL233026  17.434  30.796   9.208
 2442POPC   C1A33027  17.770  30.864   8.795
 2442POPC   D2A33028  17.601  30.900   8.363
 2442POPC   C3A33029  17.776  30.859   7.966
 2442POPC   C4A33030  17.909  30.441   7.879
 2442POPC   C1B33031  17.392  30.514   8.849
 2442POPC   C2B33032  17.228  30.564   8.426
 2442POPC   C3B33033  17.309  30.627   7.965
 2442POPC   C4B33034  17.139  30.595   7.526
 2443POPC   NC333035   2.683  43.822   9.620
 2443POPC   PO433036   2.562  44.435   9.617
 2443POPC   GL133037   2.747  44.156   9.228
 2443POPC   GL233038   2.880  43.778   9.161
 2443POPC   C1A33039   2.934  44.116   8.801
 2443POPC   D2A33040   2.982  44.330   8.419
 2443POPC   C3A33041   2.870  44.093   8.061
 2443POPC   C4A33042   2.712  43.996   7.669
 2443POPC   C1B33043   2.583  43.668   8.827
 2443POPC   C2B33044   2.677  43.727   8.394
 2443POPC   C3B33045   2.644  43.607   7.975
 2443POPC   C4B33046   2.671  43.508   7.504
 2444POPC   NC333047   3.664   6.790   9.482
 2444POPC   PO433048   3.164   6.320   9.540
 2444POPC   GL133049   3.337   6.468   9.156
 2444POPC   GL233050   3.668   6.392   9.164
 2444POPC   C1A33051   3.553   6.654   8.752
 2444POPC   D2A33052   3.360   6.588   8.365
 2444POPC   C3A33053   3.512   6.649   7.943
 2444POPC   C4A33054   3.349   6.431   7.583
 2444POPC   C1B33055   3.956   6.319   8.828
 2444POPC   C2B33056   3.813   6.350   8.432
 2444POPC   C3B33057   3.780   6.249   8.046
 2444POPC   C4B33058   3.866   6.346   7.631
 2445POPC   NC333059  12.098  31.677   9.618
 2445POPC   PO433060  11.794  30.996   9.496
 2445POPC   GL133061  11.683  31.345   9.169
 2445POPC   GL233062  12.024  31.396   9.165
 2445POPC   C1A33063  11.791  31.772   8.923
 2445POPC   D2A33064  12.099  31.855   8.558
 2445POPC   C3A33065  11.999  31.777   8.095
 2445POPC   C4A33066  11.882  31.494   7.748
 2445POPC   C1B33067  11.918  31.315   8.711
 2445POPC   C2B33068  12.202  31.382   8.378
 2445POPC   C3B33069  12.373  31.445   7.985
 2445POPC   C4B33070  12.241  31.099   7.776
 2446POPC   NC333071  11.598  13.322   9.511
 2446POPC   PO433072  10.922  13.047   9.320
 2446POPC   GL133073  11.291  12.848   9.153
 2446POPC   GL233074  11.019  12.665   8.985
 2446POPC   C1A33075  11.475  12.545   8.836
 2446POPC   D2A33076  11.369  12.712   8.443
 2446POPC   C3A33077  11.118  12.618   8.128
 2446POPC   C4A33078  11.323  12.555   7.718
 2446POPC   C1B33079  10.951  12.935   8.647
 2446POPC   C2B33080  11.183  13.174   8.320
 2446POPC   C3B33081  11.289  13.057   7.892
 2446POPC   C4B33082  10.985  12.953   7.594
 2447POPC   NC333083  36.148  17.426   9.629
 2447POPC   PO433084  36.454  17.896   9.410
 2447POPC   GL133085  36.282  17.509   9.138
 2447POPC   GL233086  36.428  17.165   8.999
 2447POPC   C1A33087  36.019  17.335   8.778
 2447POPC   D2A33088  36.195  17.183   8.369
 2447POPC   C3A33089  36.241  17.330   7.943
 2447POPC   C4A33090  36.274  17.364   7.486
 2447POPC   C1B33091  36.508  17.497   8.665
 2447POPC   C2B33092  36.573  17.690   8.235
 2447POPC   C3B33093  36.586  17.731   7.776
 2447POPC   C4B33094  36.270  17.881   7.457
 2448POPC   NC333095  26.600  20.134   9.532
 2448POPC   PO433096  26.807  20.823   9.485
 2448POPC   GL133097  26.770  20.516   9.178
 2448POPC   GL233098  27.038  20.316   9.201
 2448POPC   C1A33099  26.644  20.487   8.754
 2448POPC   D2A33100  26.838  20.576   8.369
 2448POPC   C3A33101  26.540  20.510   8.077
 2448POPC   C4A33102  26.424  20.780   7.761
 2448POPC   C1B33103  27.151  20.540   8.793
 2448POPC   C2B33104  27.367  20.639   8.399
 2448POPC   C3B33105  27.246  20.609   7.992
 2448POPC   C4B33106  26.902  20.600   7.726
 2449POPC   NC333107  37.827  13.905   9.428
 2449POPC   PO433108  37.351  13.424   9.453
 2449POPC   GL133109  37.619  13.499   9.119
 2449POPC   GL233110  37.931  13.440   9.223
 2449POPC   C1A33111  37.586  13.720   8.728
 2449POPC   D2A33112  37.403  13.910   8.394
 2449POPC   C3A33113  37.703  13.770   8.108
 2449POPC   C4A33114  37.535  13.632   7.751
 2449POPC   C1B33115  38.016  13.383   8.793
 2449POPC   C2B33116  37.864  13.360   8.414
 2449POPC   C3B33117  37.819  13.267   7.998
 2449POPC   C4B33118  37.980  13.450   7.618
 2450POPC   NC333119  18.236  44.217   9.586
 2450POPC   PO433120  17.893  43.637   9.438
 2450POPC   GL133121  18.088  43.913   9.146
 2450POPC   GL233122  18.405  44.039   9.145
 2450POPC   C1A33123  18.126  43.867   8.717
 2450POPC   D2A33124  17.833  43.914   8.372
 2450POPC   C3A33125  18.050  43.954   7.992
 2450POPC   C4A33126  18.060  43.596   7.695
 2450POPC   C1B33127  18.641  43.968   8.800
 2450POPC   C2B33128  18.838  43.920   8.391
 2450POPC   C3B33129  18.555  43.805   8.059
 2450POPC   C4B33130  18.443  43.927   7.662
 2451POPC   NC333131  27.164  26.196   9.668
 2451POPC   PO433132  26.546  26.142   9.686
 2451POPC   GL133133  26.748  26.064   9.277
 2451POPC   GL233134  27.013  26.294   9.177
 2451POPC   C1A33135  26.702  26.086   8.829
 2451POPC   D2A33136  26.618  26.225   8.425
 2451POPC   C3A33137  26.708  25.956   8.105
 2451POPC   C4A33138  26.829  26.090   7.707
 2451POPC   C1B33139  27.212  26.098   8.807
 2451POPC   C2B33140  27.207  26.004   8.386
 2451POPC   C3B33141  27.092  26.293   8.097
 2451POPC   C4B33142  27.192  26.468   7.724
 2452POPC   NC333143   8.606  28.951   9.254
 2452POPC   PO433144   8.079  29.034   9.764
 2452POPC   GL133145   8.135  29.142   9.317
 2452POPC   GL233146   8.346  29.413   9.213
 2452POPC   C1A33147   8.036  29.167   8.838
 2452POPC   D2A33148   7.861  29.145   8.382
 2452POPC   C3A33149   8.087  29.017   8.003
 2452POPC   C4A33150   8.223  29.202   7.602
 2452POPC   C1B33151   8.511  29.350   8.764
 2452POPC   C2B33152   8.436  29.174   8.358
 2452POPC   C3B33153   8.588  29.283   7.949
 2452POPC   C4B33154   8.728  29.152   7.521
 2453POPC   NC333155  30.920  38.353   9.459
 2453POPC   PO433156  30.250  38.075   9.619
 2453POPC   GL133157  30.419  38.284   9.229
 2453POPC   GL233158  30.379  38.639   9.228
 2453POPC   C1A33159  30.625  38.456   8.838
 2453POPC   D2A33160  30.749  38.535   8.448
 2453POPC   C3A33161  30.708  38.267   8.108
 2453POPC   C4A33162  30.852  38.450   7.757
 2453POPC   C1B33163  30.293  38.887   8.838
 2453POPC   C2B33164  30.287  38.744   8.434
 2453POPC   C3B33165  30.515  38.754   8.048
 2453POPC   C4B33166  30.370  38.654   7.668
 2454POPC   NC333167  16.161  41.327   9.550
 2454POPC   PO433168  15.660  41.720   9.448
 2454POPC   GL133169  15.891  41.571   9.111
 2454POPC   GL233170  15.827  41.205   9.170
 2454POPC   C1A33171  15.873  41.755   8.686
 2454POPC   D2A33172  15.811  41.902   8.263
 2454POPC   C3A33173  16.074  41.670   7.962
 2454POPC   C4A33174  16.269  41.291   7.893
 2454POPC   C1B33175  15.676  41.282   8.746
 2454POPC   C2B33176  15.858  41.356   8.344
 2454POPC   C3B33177  15.629  41.411   7.963
 2454POPC   C4B33178  15.845  41.366   7.581
 2455POPC   NC333179  24.763  16.475   9.870
 2455POPC   PO433180  25.222  16.843   9.531
 2455POPC   GL133181  25.252  16.783   9.091
 2455POPC   GL233182  25.565  16.659   9.201
 2455POPC   C1A33183  25.225  16.908   8.626
 2455POPC   D2A33184  25.234  16.960   8.169
 2455POPC   C3A33185  24.987  16.756   7.810
 2455POPC   C4A33186  24.990  16.973   7.382
 2455POPC   C1B33187  25.628  16.621   8.778
 2455POPC   C2B33188  25.682  16.712   8.358
 2455POPC   C3B33189  25.564  16.638   7.940
 2455POPC   C4B33190  25.444  16.950   7.662
 2456POPC   NC333191  40.744  29.372   9.582
 2456POPC   PO433192  41.107  28.770   9.509
 2456POPC   GL133193  40.994  29.083   9.208
 2456POPC   GL233194  40.991  29.455   9.144
 2456POPC   C1A33195  41.094  29.060   8.799
 2456POPC   D2A33196  40.870  29.102   8.413
 2456POPC   C3A33197  40.978  29.297   8.084
 2456POPC   C4A33198  40.874  29.479   7.720
 2456POPC   C1B33199  40.669  29.345   8.814
 2456POPC   C2B33200  40.594  29.532   8.369
 2456POPC   C3B33201  40.432  29.416   7.938
 2456POPC   C4B33202  40.407  29.565   7.465
 2457POPC   NC333203  34.014  21.887   9.239
 2457POPC   PO433204  34.461  22.303   9.455
 2457POPC   GL133205  34.583  22.259   9.071
 2457POPC   GL233206  34.568  22.608   9.027
 2457POPC   C1A33207  34.621  22.078   8.676
 2457POPC   D2A33208  34.500  22.359   8.334
 2457POPC   C3A33209  34.532  22.117   8.012
 2457POPC   C4A33210  34.509  21.940   7.672
 2457POPC   C1B33211  34.853  22.521   8.711
 2457POPC   C2B33212  34.987  22.665   8.303
 2457POPC   C3B33213  34.771  22.560   7.933
 2457POPC   C4B33214  34.773  22.369   7.509
 2458POPC   NC333215  36.222  42.823   9.475
 2458POPC   PO433216  36.082  43.549   9.417
 2458POPC   GL133217  36.237  43.183   9.114
 2458POPC   GL233218  36.251  42.762   8.994
 2458POPC   C1A33219  36.488  43.116   8.721
 2458POPC   D2A33220  36.690  43.080   8.298
 2458POPC   C3A33221  36.367  43.046   7.960
 2458POPC   C4A33222  36.425  43.111   7.535
 2458POPC   C1B33223  35.977  42.951   8.742
 2458POPC   C2B33224  35.837  42.853   8.365
 2458POPC   C3B33225  35.797  43.074   8.019
 2458POPC   C4B33226  35.932  43.073   7.607
 2459POPC   NC333227  18.646  31.008   9.429
 2459POPC   PO433228  19.163  31.548   9.450
 2459POPC   GL133229  18.987  31.685   9.109
 2459POPC   GL233230  18.971  31.336   9.022
 2459POPC   C1A33231  19.077  31.735   8.699
 2459POPC   D2A33232  18.906  31.879   8.332
 2459POPC   C3A33233  19.088  31.711   7.982
 2459POPC   C4A33234  19.149  31.348   7.752
 2459POPC   C1B33235  18.891  31.247   8.621
 2459POPC   C2B33236  18.908  31.281   8.193
 2459POPC   C3B33237  18.675  31.177   7.822
 2459POPC   C4B33238  18.772  31.218   7.378
 2460POPC   NC333239  43.932   0.942   9.566
 2460POPC   PO433240  43.638   1.558   9.474
 2460POPC   GL133241  43.830   1.260   9.179
 2460POPC   GL233242  43.712   0.881   9.127
 2460POPC   C1A33243  43.900   1.273   8.745
 2460POPC   D2A33244  43.601   1.285   8.395
 2460POPC   C3A33245  43.705   1.555   8.053
 2460POPC   C4A33246  43.806   1.392   7.654
 2460POPC   C1B33247  43.664   0.763   8.712
 2460POPC   C2B33248  43.966   0.892   8.408
 2460POPC   C3B33249  44.021   1.132   8.039
 2460POPC   C4B33250  44.022   0.870   7.662
 2461POPC   NC333251   3.865  24.491   9.449
 2461POPC   PO433252   3.144  24.723   9.560
 2461POPC   GL133253   3.417  24.677   9.231
 2461POPC   GL233254   3.436  24.293   9.252
 2461POPC   C1A33255   3.630  24.745   8.840
 2461POPC   D2A33256   3.717  24.917   8.441
 2461POPC   C3A33257   3.551  24.770   8.055
 2461POPC   C4A33258   3.411  24.615   7.658
 2461POPC   C1B33259   3.627  24.219   8.849
 2461POPC   C2B33260   3.547  24.411   8.446
 2461POPC   C3B33261   3.639  24.249   8.058
 2461POPC   C4B33262   3.606  24.146   7.651
 2462POPC   NC333263   5.715   7.146   9.627
 2462POPC   PO433264   5.973   7.785   9.545
 2462POPC   GL133265   5.707   7.544   9.288
 2462POPC   GL233266   6.012   7.370   9.227
 2462POPC   C1A33267   5.702   7.481   8.837
 2462POPC   D2A33268   5.922   7.599   8.434
 2462POPC   C3A33269   5.812   7.391   8.009
 2462POPC   C4A33270   5.833   7.543   7.614
 2462POPC   C1B33271   6.203   7.376   8.819
 2462POPC   C2B33272   6.411   7.418   8.402
 2462POPC   C3B33273   6.306   7.262   8.002
 2462POPC   C4B33274   6.197   7.185   7.604
 2463POPC   NC333275  40.748  31.037   9.528
 2463POPC   PO433276  41.307  30.713   9.796
 2463POPC   GL133277  41.119  30.721   9.333
 2463POPC   GL233278  40.826  30.504   9.243
 2463POPC   C1A33279  40.953  30.862   8.921
 2463POPC   D2A33280  40.936  30.878   8.501
 2463POPC   C3A33281  41.064  30.649   8.161
 2463POPC   C4A33282  41.072  30.863   7.749
 2463POPC   C1B33283  40.764  30.374   8.805
 2463POPC   C2B33284  40.605  30.511   8.402
 2463POPC   C3B33285  40.588  30.614   7.986
 2463POPC   C4B33286  40.767  30.477   7.636
 2464POPC   NC333287  34.446   0.849   9.641
 2464POPC   PO433288  34.471   0.224   9.830
 2464POPC   GL133289  34.668   0.444   9.383
 2464POPC   GL233290  34.455   0.644   9.178
 2464POPC   C1A33291  34.759   0.419   8.857
 2464POPC   D2A33292  34.579   0.157   8.511
 2464POPC   C3A33293  34.666   0.329   8.063
 2464POPC   C4A33294  34.587   0.087   7.690
 2464POPC   C1B33295  34.263   0.520   8.788
 2464POPC   C2B33296  34.420   0.629   8.408
 2464POPC   C3B33297  34.320   0.768   8.007
 2464POPC   C4B33298  34.569   0.669   7.643
 2465POPC   NC333299  42.491  43.658   9.452
 2465POPC   PO433300  41.908  44.003   9.606
 2465POPC   GL133301  42.257  44.066   9.253
 2465POPC   GL233302  42.088  44.043   8.983
 2465POPC   C1A33303  42.521  43.820   8.846
 2465POPC   D2A33304  42.481  43.502   8.481
 2465POPC   C3A33305  42.585  43.656   8.056
 2465POPC   C4A33306  42.536  43.841   7.632
 2465POPC   C1B33307  42.041  43.787   8.636
 2465POPC   C2B33308  42.116  43.786   8.234
 2465POPC   C3B33309  42.099  43.789   7.842
 2465POPC   C4B33310  41.873  43.539   7.603
 2466POPC   NC333311  23.469  11.878   9.288
 2466POPC   PO433312  23.811  12.429   9.572
 2466POPC   GL133313  23.899  12.188   9.183
 2466POPC   GL233314  24.000  11.852   9.278
 2466POPC   C1A33315  23.694  12.113   8.746
 2466POPC   D2A33316  23.446  11.959   8.410
 2466POPC   C3A33317  23.467  12.247   8.060
 2466POPC   C4A33318  23.463  12.008   7.690
 2466POPC   C1B33319  23.930  11.615   8.883
 2466POPC   C2B33320  23.907  11.702   8.455
 2466POPC   C3B33321  23.840  11.888   8.053
 2466POPC   C4B33322  23.718  11.570   7.792
 2467POPC   NC333323  36.820  40.675   9.533
 2467POPC   PO433324  36.873  41.282   9.383
 2467POPC   GL133325  37.032  41.004   9.055
 2467POPC   GL233326  37.030  40.641   9.063
 2467POPC   C1A33327  36.822  40.936   8.675
 2467POPC   D2A33328  36.942  40.829   8.298
 2467POPC   C3A33329  36.935  41.070   7.968
 2467POPC   C4A33330  37.187  40.984   7.661
 2467POPC   C1B33331  36.932  40.425   8.647
 2467POPC   C2B33332  36.740  40.379   8.237
 2467POPC   C3B33333  36.892  40.555   7.812
 2467POPC   C4B33334  36.772  40.481   7.356
 2468POPC   NC333335  31.118  13.254   9.316
 2468POPC   PO433336  30.761  13.770   9.545
 2468POPC   GL133337  30.652  13.829   9.137
 2468POPC   GL233338  30.600  13.482   9.140
 2468POPC   C1A33339  30.497  13.925   8.702
 2468POPC   D2A33340  30.262  13.770   8.325
 2468POPC   C3A33341  30.555  13.683   8.008
 2468POPC   C4A33342  31.004  13.565   7.935
 2468POPC   C1B33343  30.853  13.529   8.769
 2468POPC   C2B33344  30.744  13.418   8.393
 2468POPC   C3B33345  30.704  13.154   8.057
 2468POPC   C4B33346  30.603  13.295   7.652
 2469POPC   NC333347  24.412  24.232   9.559
 2469POPC   PO433348  24.921  24.682   9.463
 2469POPC   GL133349  24.680  24.462   9.185
 2469POPC   GL233350  24.509  24.737   9.049
 2469POPC   C1A33351  24.562  24.331   8.771
 2469POPC   D2A33352  24.298  24.339   8.404
 2469POPC   C3A33353  24.484  24.468   8.076
 2469POPC   C4A33354  24.699  24.255   7.800
 2469POPC   C1B33355  24.211  24.711   8.730
 2469POPC   C2B33356  23.984  24.761   8.313
 2469POPC   C3B33357  24.098  24.759   7.892
 2469POPC   C4B33358  24.396  24.688   7.619
 2470POPC   NC333359  19.985  38.582   9.486
 2470POPC   PO433360  20.612  38.736   9.456
 2470POPC   GL133361  20.609  38.537   9.119
 2470POPC   GL233362  20.322  38.385   9.174
 2470POPC   C1A33363  20.674  38.584   8.730
 2470POPC   D2A33364  20.779  38.305   8.442
 2470POPC   C3A33365  20.878  38.492   8.065
 2470POPC   C4A33366  20.603  38.610   7.729
 2470POPC   C1B33367  20.350  38.165   8.807
 2470POPC   C2B33368  20.262  38.190   8.381
 2470POPC   C3B33369  20.541  38.030   8.080
 2470POPC   C4B33370  20.724  38.034   7.707
 2471POPC   NC333371   2.361  44.716   9.310
 2471POPC   PO433372   2.890  44.974   9.686
 2471POPC   GL133373   2.966  44.891   9.206
 2471POPC   GL233374   2.799  44.645   9.113
 2471POPC   C1A33375   3.055  44.754   8.713
 2471POPC   D2A33376   2.767  44.776   8.342
 2471POPC   C3A33377   2.996  44.626   7.979
 2471POPC   C4A33378   3.065  44.826   7.565
 2471POPC   C1B33379   2.572  44.470   8.757
 2471POPC   C2B33380   2.474  44.218   8.419
 2471POPC   C3B33381   2.464  44.423   8.023
 2471POPC   C4B33382   2.657  44.499   7.626
 2472POPC   NC333383  39.440  27.334   9.571
 2472POPC   PO433384  38.722  27.524   9.536
 2472POPC   GL133385  39.042  27.486   9.255
 2472POPC   GL233386  39.240  27.789   9.306
 2472POPC   C1A33387  39.315  27.403   8.912
 2472POPC   D2A33388  39.291  27.537   8.501
 2472POPC   C3A33389  39.182  27.286   8.142
 2472POPC   C4A33390  38.948  27.485   7.845
 2472POPC   C1B33391  39.307  27.982   8.893
 2472POPC   C2B33392  39.401  28.065   8.454
 2472POPC   C3B33393  39.254  27.845   8.093
 2472POPC   C4B33394  39.446  27.572   7.794
 2473POPC   NC333395  30.960  37.416   9.181
 2473POPC   PO433396  30.765  36.936   9.650
 2473POPC   GL133397  30.820  36.941   9.159
 2473POPC   GL233398  31.042  36.679   8.992
 2473POPC   C1A33399  30.522  36.760   8.852
 2473POPC   D2A33400  30.265  36.848   8.499
 2473POPC   C3A33401  30.437  36.705   8.129
 2473POPC   C4A33402  30.668  36.858   7.791
 2473POPC   C1B33403  30.956  36.966   8.657
 2473POPC   C2B33404  30.885  37.084   8.227
 2473POPC   C3B33405  31.159  36.985   7.887
 2473POPC   C4B33406  31.096  36.565   7.763
 2474POPC   NC333407  44.786  19.143   9.701
 2474POPC   PO433408  44.313  18.771   9.388
 2474POPC   GL133409  44.642  19.063   9.155
 2474POPC   GL233410  44.557  19.422   8.991
 2474POPC   C1A33411  44.753  19.014   8.700
 2474POPC   D2A33412  44.600  19.240   8.335
 2474POPC   C3A33413  44.529  19.266   7.897
 2474POPC   C4A33414  44.789  18.938   7.784
 2474POPC   C1B33415   0.000  19.408   8.884
 2474POPC   C2B33416   0.107  19.351   8.434
 2474POPC   C3B33417   0.028  19.369   7.983
 2474POPC   C4B33418   0.002  19.333   7.521
 2475POPC   NC333419  14.917   0.060   9.488
 2475POPC   PO433420  15.138  44.471   9.474
 2475POPC   GL133421  15.055  44.688   9.129
 2475POPC   GL233422  14.832  44.403   9.075
 2475POPC   C1A33423  15.280  44.814   8.720
 2475POPC   D2A33424  15.519  44.689   8.319
 2475POPC   C3A33425  15.264  44.757   7.957
 2475POPC   C4A33426  15.038  44.692   7.582
 2475POPC   C1B33427  15.026  44.375   8.725
 2475POPC   C2B33428  15.146  44.325   8.322
 2475POPC   C3B33429  14.950  44.349   7.959
 2475POPC   C4B33430  14.919  44.207   7.541
 2476POPC   NC333431  32.597  28.103   9.273
 2476POPC   PO433432  32.162  28.568   9.614
 2476POPC   GL133433  32.321  28.538   9.233
 2476POPC   GL233434  32.105  28.213   9.212
 2476POPC   C1A33435  32.448  28.653   8.826
 2476POPC   D2A33436  32.433  28.478   8.421
 2476POPC   C3A33437  32.569  28.646   8.025
 2476POPC   C4A33438  32.444  28.465   7.636
 2476POPC   C1B33439  31.923  28.491   8.910
 2476POPC   C2B33440  31.941  28.649   8.503
 2476POPC   C3B33441  31.934  28.540   8.082
 2476POPC   C4B33442  31.975  28.624   7.662
 2477POPC   NC333443  17.958   4.701   9.580
 2477POPC   PO433444  17.366   4.983   9.605
 2477POPC   GL133445  17.388   5.043   9.152
 2477POPC   GL233446  17.561   4.719   9.166
 2477POPC   C1A33447  17.544   5.160   8.704
 2477POPC   D2A33448  17.598   4.894   8.321
 2477POPC   C3A33449  17.574   5.064   7.913
 2477POPC   C4A33450  17.837   5.388   7.714
 2477POPC   C1B33451  17.415   4.667   8.756
 2477POPC   C2B33452  17.336   4.451   8.364
 2477POPC   C3B33453  17.364   4.590   7.934
 2477POPC   C4B33454  17.147   4.866   7.633
 2478POPC   NC333455   7.839  23.640   9.730
 2478POPC   PO433456   8.237  23.487   9.109
 2478POPC   GL133457   8.284  23.807   8.878
 2478POPC   GL233458   8.554  24.014   8.896
 2478POPC   C1A33459   8.093  23.808   8.495
 2478POPC   D2A33460   7.704  23.882   8.315
 2478POPC   C3A33461   7.884  23.933   7.926
 2478POPC   C4A33462   8.133  23.647   7.743
 2478POPC   C1B33463   8.744  23.647   8.685
 2478POPC   C2B33464   8.693  23.589   8.256
 2478POPC   C3B33465   8.513  23.898   7.976
 2478POPC   C4B33466   8.580  24.332   7.906
 2479POPC   NC333467  20.483  13.767   9.553
 2479POPC   PO433468  21.119  13.678   9.521
 2479POPC   GL133469  20.866  13.528   9.219
 2479POPC   GL233470  20.562  13.609   9.089
 2479POPC   C1A33471  20.907  13.457   8.776
 2479POPC   D2A33472  20.784  13.716   8.444
 2479POPC   C3A33473  20.700  13.662   8.040
 2479POPC   C4A33474  20.675  13.873   7.666
 2479POPC   C1B33475  20.309  13.404   8.773
 2479POPC   C2B33476  20.437  13.350   8.344
 2479POPC   C3B33477  20.279  13.422   7.915
 2479POPC   C4B33478  20.302  13.341   7.401
 2480POPC   NC333479   3.898  32.694   9.491
 2480POPC   PO433480   3.393  33.183   9.501
 2480POPC   GL133481   3.521  33.118   9.096
 2480POPC   GL233482   3.858  32.992   9.101
 2480POPC   C1A33483   3.299  33.126   8.701
 2480POPC   D2A33484   3.350  33.409   8.369
 2480POPC   C3A33485   3.492  33.239   7.998
 2480POPC   C4A33486   3.357  33.116   7.612
 2480POPC   C1B33487   3.993  33.024   8.718
 2480POPC   C2B33488   3.785  32.971   8.335
 2480POPC   C3B33489   3.978  33.060   7.936
 2480POPC   C4B33490   3.837  32.829   7.612
 2481POPC   NC333491  37.852  24.030   9.412
 2481POPC   PO433492  37.655  23.394   9.553
 2481POPC   GL133493  37.667  23.589   9.163
 2481POPC   GL233494  37.484  23.895   9.096
 2481POPC   C1A33495  37.816  23.555   8.756
 2481POPC   D2A33496  37.642  23.439   8.363
 2481POPC   C3A33497  37.800  23.707   8.030
 2481POPC   C4A33498  37.700  23.891   7.661
 2481POPC   C1B33499  37.336  23.782   8.709
 2481POPC   C2B33500  37.354  23.854   8.256
 2481POPC   C3B33501  37.306  23.639   7.863
 2481POPC   C4B33502  37.199  23.751   7.438
 2482POPC   NC333503  42.405  16.713   9.422
 2482POPC   PO433504  41.966  17.215   9.481
 2482POPC   GL133505  42.102  17.018   9.079
 2482POPC   GL233506  42.441  16.878   8.958
 2482POPC   C1A33507  42.077  16.956   8.633
 2482POPC   D2A33508  42.480  16.828   8.438
 2482POPC   C3A33509  42.526  16.670   8.049
 2482POPC   C4A33510  42.264  16.704   7.673
 2482POPC   C1B33511  42.429  16.463   8.788
 2482POPC   C2B33512  42.539  16.273   8.403
 2482POPC   C3B33513  42.319  16.211   8.009
 2482POPC   C4B33514  42.494  16.268   7.592
 2483POPC   NC333515  20.798   6.569   9.690
 2483POPC   PO433516  20.356   6.696   9.419
 2483POPC   GL133517  20.828   6.632   9.175
 2483POPC   GL233518  21.037   6.298   9.281
 2483POPC   C1A33519  21.030   6.786   8.731
 2483POPC   D2A33520  20.915   7.055   8.350
 2483POPC   C3A33521  20.673   6.820   8.016
 2483POPC   C4A33522  20.354   6.549   7.773
 2483POPC   C1B33523  20.916   6.268   8.829
 2483POPC   C2B33524  20.753   6.450   8.416
 2483POPC   C3B33525  20.798   6.336   7.965
 2483POPC   C4B33526  20.898   6.320   7.520
 2484POPC   NC333527   2.630  16.283   9.664
 2484POPC   PO433528   3.216  15.921   9.571
 2484POPC   GL133529   2.868  15.968   9.291
 2484POPC   GL233530   2.860  16.322   9.205
 2484POPC   C1A33531   2.752  15.949   8.843
 2484POPC   D2A33532   2.874  16.231   8.499
 2484POPC   C3A33533   2.732  16.091   8.098
 2484POPC   C4A33534   2.926  15.996   7.715
 2484POPC   C1B33535   2.462  16.362   8.941
 2484POPC   C2B33536   2.387  16.395   8.456
 2484POPC   C3B33537   2.241  16.249   8.016
 2484POPC   C4B33538   2.476  16.229   7.619
 2485POPC   NC333539  43.907  25.005   9.582
 2485POPC   PO433540  43.960  25.666   9.678
 2485POPC   GL133541  43.953  25.381   9.256
 2485POPC   GL233542  43.770  25.523   9.035
 2485POPC   C1A33543  43.793  25.062   8.866
 2485POPC   D2A33544  43.656  25.037   8.394
 2485POPC   C3A33545  44.026  24.918   8.098
 2485POPC   C4A33546  44.324  25.005   7.750
 2485POPC   C1B33547  43.555  25.520   8.711
 2485POPC   C2B33548  43.607  25.762   8.360
 2485POPC   C3B33549  43.809  25.676   7.974
 2485POPC   C4B33550  43.866  25.283   7.766
 2486POPC   NC333551  35.060  44.227   9.824
 2486POPC   PO433552  35.310  43.644   9.620
 2486POPC   GL133553  35.368  43.713   9.214
 2486POPC   GL233554  35.686  43.636   9.115
 2486POPC   C1A33555  35.151  43.825   8.843
 2486POPC   D2A33556  35.196  43.600   8.473
 2486POPC   C3A33557  35.190  43.818   8.082
 2486POPC   C4A33558  35.299  44.175   7.804
 2486POPC   C1B33559  35.657  43.787   8.703
 2486POPC   C2B33560  35.692  43.545   8.329
 2486POPC   C3B33561  35.690  43.748   7.964
 2486POPC   C4B33562  35.443  43.678   7.632
 2487POPC   NC333563  44.872  39.722   9.499
 2487POPC   PO433564  44.526  40.325   9.580
 2487POPC   GL133565  44.596  40.049   9.227
 2487POPC   GL233566  44.327  39.801   9.336
 2487POPC   C1A33567  44.755  39.999   8.801
 2487POPC   D2A33568  44.976  40.045   8.419
 2487POPC   C3A33569  44.736  40.060   8.029
 2487POPC   C4A33570  44.879  39.999   7.596
 2487POPC   C1B33571  44.293  39.785   8.873
 2487POPC   C2B33572  44.429  39.834   8.411
 2487POPC   C3B33573  44.257  39.852   7.977
 2487POPC   C4B33574  44.353  39.924   7.517
 2488POPC   NC333575  25.793  34.733   9.368
 2488POPC   PO433576  26.397  34.530   9.665
 2488POPC   GL133577  26.175  34.398   9.263
 2488POPC   GL233578  25.886  34.186   9.330
 2488POPC   C1A33579  26.037  34.504   8.829
 2488POPC   D2A33580  26.032  34.819   8.516
 2488POPC   C3A33581  26.040  34.597   8.144
 2488POPC   C4A33582  26.083  34.749   7.721
 2488POPC   C1B33583  25.741  34.003   8.930
 2488POPC   C2B33584  25.760  34.201   8.512
 2488POPC   C3B33585  25.624  34.280   8.104
 2488POPC   C4B33586  25.814  34.303   7.731
 2489POPC   NC333587  30.489   4.649   9.521
 2489POPC   PO433588  30.692   5.325   9.486
 2489POPC   GL133589  30.641   4.995   9.171
 2489POPC   GL233590  30.298   4.835   9.103
 2489POPC   C1A33591  30.801   5.026   8.762
 2489POPC   D2A33592  31.089   4.924   8.446
 2489POPC   C3A33593  30.922   4.929   8.024
 2489POPC   C4A33594  30.821   5.113   7.612
 2489POPC   C1B33595  30.263   5.150   8.809
 2489POPC   C2B33596  30.425   5.107   8.398
 2489POPC   C3B33597  30.478   5.144   7.978
 2489POPC   C4B33598  30.393   4.846   7.622
 2490POPC   NC333599  14.262   5.693   9.487
 2490POPC   PO433600  14.697   6.271   9.638
 2490POPC   GL133601  14.655   5.964   9.252
 2490POPC   GL233602  14.370   5.760   8.998
 2490POPC   C1A33603  14.714   6.041   8.811
 2490POPC   D2A33604  14.563   5.760   8.448
 2490POPC   C3A33605  14.728   5.842   8.020
 2490POPC   C4A33606  14.662   5.965   7.550
 2490POPC   C1B33607  14.222   6.074   8.662
 2490POPC   C2B33608  14.194   6.086   8.209
 2490POPC   C3B33609  14.251   5.903   7.838
 2490POPC   C4B33610  14.166   5.813   7.400
 2491POPC   NC333611  24.838  32.138   9.582
 2491POPC   PO433612  25.520  32.375   9.559
 2491POPC   GL133613  25.542  32.493   9.137
 2491POPC   GL233614  25.487  32.122   9.065
 2491POPC   C1A33615  25.428  32.468   8.693
 2491POPC   D2A33616  25.318  32.240   8.339
 2491POPC   C3A33617  25.298  32.432   7.901
 2491POPC   C4A33618  25.311  32.588   7.448
 2491POPC   C1B33619  25.134  31.987   8.782
 2491POPC   C2B33620  24.924  31.878   8.394
 2491POPC   C3B33621  25.116  31.935   8.008
 2491POPC   C4B33622  25.178  32.027   7.600
 2492POPC   NC333623  32.502  33.493   9.385
 2492POPC   PO433624  32.192  32.998   9.705
 2492POPC   GL133625  32.388  32.995   9.296
 2492POPC   GL233626  32.117  32.816   9.163
 2492POPC   C1A33627  32.436  33.135   8.834
 2492POPC   D2A33628  32.394  33.015   8.402
 2492POPC   C3A33629  32.237  33.172   8.021
 2492POPC   C4A33630  32.416  32.933   7.721
 2492POPC   C1B33631  32.006  32.847   8.713
 2492POPC   C2B33632  31.926  32.850   8.275
 2492POPC   C3B33633  32.033  32.659   7.874
 2492POPC   C4B33634  32.021  32.799   7.406
 2493POPC   NC333635  42.981  11.468   9.529
 2493POPC   PO433636  43.623  11.123   9.512
 2493POPC   GL133637  43.354  11.114   9.156
 2493POPC   GL233638  43.027  11.019   9.277
 2493POPC   C1A33639  43.202  11.421   8.853
 2493POPC   D2A33640  42.871  11.474   8.514
 2493POPC   C3A33641  43.023  11.311   8.097
 2493POPC   C4A33642  43.223  11.429   7.702
 2493POPC   C1B33643  42.863  11.038   8.860
 2493POPC   C2B33644  42.776  10.981   8.419
 2493POPC   C3B33645  42.765  10.864   8.005
 2493POPC   C4B33646  42.926  11.004   7.633
 2494POPC   NC333647  44.617  11.747   9.883
 2494POPC   PO433648  44.924  12.217   9.479
 2494POPC   GL133649  44.571  12.181   9.208
 2494POPC   GL233650  44.575  11.830   9.077
 2494POPC   C1A33651  44.596  12.228   8.763
 2494POPC   D2A33652  44.909  12.092   8.440
 2494POPC   C3A33653  44.835  12.294   8.048
 2494POPC   C4A33654  44.547  12.341   7.716
 2494POPC   C1B33655  44.692  11.687   8.667
 2494POPC   C2B33656  44.507  11.495   8.327
 2494POPC   C3B33657  44.523  11.711   7.967
 2494POPC   C4B33658  44.797  11.882   7.736
 2495POPC   NC333659  42.342  12.758   9.644
 2495POPC   PO433660  42.950  12.718   9.547
 2495POPC   GL133661  42.585  12.702   9.203
 2495POPC   GL233662  42.180  12.841   9.184
 2495POPC   C1A33663  42.446  12.689   8.795
 2495POPC   D2A33664  42.482  12.887   8.440
 2495POPC   C3A33665  42.372  12.602   8.130
 2495POPC   C4A33666  42.373  12.704   7.738
 2495POPC   C1B33667  42.136  13.099   8.814
 2495POPC   C2B33668  42.131  13.286   8.419
 2495POPC   C3B33669  42.236  13.113   8.055
 2495POPC   C4B33670  42.090  13.152   7.671
 2496POPC   NC333671  10.383  17.338   9.601
 2496POPC   PO433672  10.965  17.319   9.261
 2496POPC   GL133673  10.631  17.251   9.026
 2496POPC   GL233674  10.278  17.284   9.116
 2496POPC   C1A33675  10.593  17.446   8.645
 2496POPC   D2A33676  10.523  17.743   8.333
 2496POPC   C3A33677  10.612  17.626   7.964
 2496POPC   C4A33678  10.846  17.370   7.762
 2496POPC   C1B33679  10.053  17.230   8.747
 2496POPC   C2B33680  10.176  17.350   8.344
 2496POPC   C3B33681  10.113  17.474   7.938
 2496POPC   C4B33682  10.336  17.364   7.595
 2497POPC   NC333683   6.009  32.623   9.841
 2497POPC   PO433684   5.799  33.167   9.522
 2497POPC   GL133685   6.002  33.078   9.199
 2497POPC   GL233686   6.122  32.783   9.235
 2497POPC   C1A33687   5.805  33.022   8.828
 2497POPC   D2A33688   5.604  33.153   8.452
 2497POPC   C3A33689   5.754  32.981   8.089
 2497POPC   C4A33690   5.564  33.075   7.719
 2497POPC   C1B33691   6.196  32.669   8.806
 2497POPC   C2B33692   6.350  32.582   8.380
 2497POPC   C3B33693   6.156  32.561   7.991
 2497POPC   C4B33694   6.082  32.878   7.725
 2498POPC   NC333695  40.606   2.646   9.415
 2498POPC   PO433696  40.764   3.305   9.570
 2498POPC   GL133697  40.806   3.055   9.157
 2498POPC   GL233698  40.512   3.028   8.952
 2498POPC   C1A33699  40.943   2.831   8.756
 2498POPC   D2A33700  40.913   2.539   8.427
 2498POPC   C3A33701  40.800   2.767   8.060
 2498POPC   C4A33702  40.643   2.641   7.649
 2498POPC   C1B33703  40.496   2.604   8.784
 2498POPC   C2B33704  40.399   2.549   8.386
 2498POPC   C3B33705  40.269   2.687   7.992
 2498POPC   C4B33706  40.246   3.081   7.791
 2499POPC   NC333707  32.843  35.734   9.381
 2499POPC   PO433708  32.993  36.363   9.535
 2499POPC   GL133709  33.091  36.133   9.131
 2499POPC   GL233710  32.742  36.036   8.986
 2499POPC   C1A33711  33.128  36.026   8.663
 2499POPC   D2A33712  32.791  35.987   8.317
 2499POPC   C3A33713  32.924  36.076   7.944
 2499POPC   C4A33714  33.243  36.006   7.638
 2499POPC   C1B33715  32.430  36.020   8.650
 2499POPC   C2B33716  32.263  36.327   8.404
 2499POPC   C3B33717  32.511  36.509   8.117
 2499POPC   C4B33718  32.631  36.414   7.718
 2500POPC   NC333719   8.547  36.971   9.573
 2500POPC   PO433720   7.971  36.680   9.450
 2500POPC   GL133721   8.160  37.010   9.221
 2500POPC   GL233722   7.965  37.194   8.985
 2500POPC   C1A33723   8.464  37.081   8.888
 2500POPC   D2A33724   8.579  37.073   8.477
 2500POPC   C3A33725   8.451  36.775   8.199
 2500POPC   C4A33726   8.461  36.773   7.752
 2500POPC   C1B33727   8.038  36.784   8.783
 2500POPC   C2B33728   7.956  36.661   8.353
 2500POPC   C3B33729   7.757  36.795   7.990
 2500POPC   C4B33730   7.958  36.742   7.604
 2501POPC   NC333731   0.128  13.806   9.434
 2501POPC   PO433732   0.780  13.628   9.503
 2501POPC   GL133733   0.532  13.686   9.157
 2501POPC   GL233734   0.496  14.031   9.152
 2501POPC   C1A33735   0.405  13.507   8.781
 2501POPC   D2A33736   0.475  13.709   8.393
 2501POPC   C3A33737   0.262  13.516   8.081
 2501POPC   C4A33738   0.414  13.444   7.697
 2501POPC   C1B33739   0.249  13.996   8.760
 2501POPC   C2B33740   0.022  13.946   8.352
 2501POPC   C3B33741   0.215  14.007   7.977
 2501POPC   C4B33742   0.605  13.972   7.810
 2502POPC   NC333743  35.861  40.406   9.450
 2502POPC   PO433744  36.364  40.798   9.557
 2502POPC   GL133745  36.198  40.868   9.166
 2502POPC   GL233746  36.536  40.967   9.097
 2502POPC   C1A33747  35.914  40.997   8.795
 2502POPC   D2A33748  35.675  40.850   8.421
 2502POPC   C3A33749  35.979  40.759   8.086
 2502POPC   C4A33750  36.094  41.072   7.763
 2502POPC   C1B33751  36.499  40.569   8.882
 2502POPC   C2B33752  36.377  40.678   8.472
 2502POPC   C3B33753  36.484  40.843   8.075
 2502POPC   C4B33754  36.425  40.695   7.671
 2503POPC   NC333755   7.309  42.721   9.603
 2503POPC   PO433756   7.663  43.259   9.448
 2503POPC   GL133757   7.557  42.926   9.192
 2503POPC   GL233758   7.203  42.896   9.116
 2503POPC   C1A33759   7.683  42.865   8.781
 2503POPC   D2A33760   7.659  43.158   8.438
 2503POPC   C3A33761   7.487  42.955   8.076
 2503POPC   C4A33762   7.340  43.073   7.690
 2503POPC   C1B33763   7.318  43.233   8.826
 2503POPC   C2B33764   7.194  43.442   8.432
 2503POPC   C3B33765   7.022  43.392   8.015
 2503POPC   C4B33766   7.169  43.554   7.649
 2504POPC   NC333767  24.294  12.405   9.492
 2504POPC   PO433768  24.871  12.826   9.490
 2504POPC   GL133769  24.596  12.722   9.154
 2504POPC   GL233770  24.243  12.824   9.214
 2504POPC   C1A33771  24.734  12.643   8.718
 2504POPC   D2A33772  24.934  12.935   8.409
 2504POPC   C3A33773  24.654  12.978   8.039
 2504POPC   C4A33774  24.660  13.000   7.588
 2504POPC   C1B33775  24.276  12.992   8.813
 2504POPC   C2B33776  24.123  12.892   8.415
 2504POPC   C3B33777  24.118  13.030   8.023
 2504POPC   C4B33778  24.201  12.774   7.654
 2505POPC   NC333779  33.910  24.000   9.684
 2505POPC   PO433780  33.741  24.679   9.794
 2505POPC   GL133781  33.842  24.634   9.329
 2505POPC   GL233782  33.605  24.366   9.227
 2505POPC   C1A33783  34.012  24.548   8.890
 2505POPC   D2A33784  33.938  24.250   8.542
 2505POPC   C3A33785  33.894  24.245   8.087
 2505POPC   C4A33786  33.615  24.217   7.712
 2505POPC   C1B33787  33.530  24.687   8.898
 2505POPC   C2B33788  33.664  24.709   8.486
 2505POPC   C3B33789  33.598  24.673   8.072
 2505POPC   C4B33790  33.915  24.652   7.787
 2506POPC   NC333791  14.635  44.327   9.544
 2506POPC   PO433792  14.433  44.980   9.565
 2506POPC   GL133793  14.439  44.678   9.240
 2506POPC   GL233794  14.410  44.880   9.018
 2506POPC   C1A33795  14.405  44.430   8.811
 2506POPC   D2A33796  14.305  44.655   8.459
 2506POPC   C3A33797  14.392  44.446   8.079
 2506POPC   C4A33798  14.538  44.504   7.684
 2506POPC   C1B33799  14.743  44.839   8.772
 2506POPC   C2B33800  14.804  44.677   8.393
 2506POPC   C3B33801  14.755  44.807   8.028
 2506POPC   C4B33802  14.664   0.019   7.707
 2507POPC   NC333803   8.141  37.495   9.374
 2507POPC   PO433804   8.177  38.156   9.388
 2507POPC   GL133805   8.099  37.914   9.052
 2507POPC   GL233806   8.409  37.716   8.994
 2507POPC   C1A33807   8.033  37.983   8.649
 2507POPC   D2A33808   7.862  37.777   8.325
 2507POPC   C3A33809   8.170  37.598   8.100
 2507POPC   C4A33810   8.252  37.606   7.670
 2507POPC   C1B33811   8.217  37.500   8.648
 2507POPC   C2B33812   8.034  37.170   8.416
 2507POPC   C3B33813   8.147  37.110   7.988
 2507POPC   C4B33814   8.555  37.261   7.887
 2508POPC   NC333815   4.869  23.968   9.477
 2508POPC   PO433816   5.005  24.575   9.535
 2508POPC   GL133817   4.940  24.423   9.123
 2508POPC   GL233818   5.138  24.105   9.068
 2508POPC   C1A33819   4.793  24.650   8.720
 2508POPC   D2A33820   4.989  24.615   8.289
 2508POPC   C3A33821   4.856  24.713   7.848
 2508POPC   C4A33822   4.766  24.990   7.467
 2508POPC   C1B33823   5.182  24.297   8.670
 2508POPC   C2B33824   5.155  24.129   8.265
 2508POPC   C3B33825   5.207  24.344   7.890
 2508POPC   C4B33826   5.044  24.189   7.527
 2509POPC   NC333827  37.815  44.868   9.440
 2509POPC   PO433828  37.383  44.401   9.400
 2509POPC   GL133829  37.603  44.562   9.060
 2509POPC   GL233830  37.541  44.930   9.005
 2509POPC   C1A33831  37.660  44.483   8.634
 2509POPC   D2A33832  37.520  44.744   8.328
 2509POPC   C3A33833  37.448  44.594   7.933
 2509POPC   C4A33834  37.779  44.412   7.719
 2509POPC   C1B33835  37.938  44.936   8.765
 2509POPC   C2B33836  38.060  44.805   8.351
 2509POPC   C3B33837  37.889  44.888   7.953
 2509POPC   C4B33838  37.906  44.888   7.496
 2510POPC   NC333839  39.274   3.346   9.529
 2510POPC   PO433840  39.376   2.735   9.540
 2510POPC   GL133841  39.409   2.564   9.170
 2510POPC   GL233842  39.088   2.591   9.084
 2510POPC   C1A33843  39.613   2.635   8.791
 2510POPC   D2A33844  39.443   2.836   8.429
 2510POPC   C3A33845  39.475   2.571   8.087
 2510POPC   C4A33846  39.349   2.656   7.705
 2510POPC   C1B33847  39.085   2.922   8.779
 2510POPC   C2B33848  38.973   3.056   8.341
 2510POPC   C3B33849  38.955   2.778   8.000
 2510POPC   C4B33850  38.664   2.728   7.675
 2511POPC   NC333851  31.794  44.223   9.349
 2511POPC   PO433852  32.373  43.956   9.656
 2511POPC   GL133853  32.340  43.992   9.186
 2511POPC   GL233854  32.402  43.658   9.097
 2511POPC   C1A33855  32.505  44.031   8.729
 2511POPC   D2A33856  32.491  44.103   8.246
 2511POPC   C3A33857  32.068  43.998   8.056
 2511POPC   C4A33858  31.795  43.686   7.846
 2511POPC   C1B33859  32.422  43.439   8.705
 2511POPC   C2B33860  32.445  43.580   8.263
 2511POPC   C3B33861  32.479  43.703   7.819
 2511POPC   C4B33862  32.528  43.653   7.354
 2512POPC   NC333863  37.860   4.563   9.353
 2512POPC   PO433864  37.438   4.081   9.606
 2512POPC   GL133865  37.599   4.005   9.186
 2512POPC   GL233866  37.559   4.309   9.026
 2512POPC   C1A33867  37.727   3.872   8.772
 2512POPC   D2A33868  37.591   4.044   8.404
 2512POPC   C3A33869  37.802   3.970   8.063
 2512POPC   C4A33870  37.707   4.126   7.701
 2512POPC   C1B33871  37.863   4.376   8.708
 2512POPC   C2B33872  37.927   4.437   8.286
 2512POPC   C3B33873  37.675   4.554   7.975
 2512POPC   C4B33874  37.760   4.624   7.539
 2513POPC   NC333875  17.514   3.820   9.482
 2513POPC   PO433876  17.257   3.215   9.643
 2513POPC   GL133877  17.381   3.254   9.220
 2513POPC   GL233878  17.636   3.450   9.089
 2513POPC   C1A33879  17.186   3.271   8.854
 2513POPC   D2A33880  17.270   3.431   8.486
 2513POPC   C3A33881  17.353   3.256   8.149
 2513POPC   C4A33882  17.614   3.414   7.868
 2513POPC   C1B33883  17.392   3.774   8.848
 2513POPC   C2B33884  17.333   3.919   8.429
 2513POPC   C3B33885  17.242   3.746   8.021
 2513POPC   C4B33886  17.495   3.864   7.648
 2514POPC   NC333887  14.823  11.824   9.493
 2514POPC   PO433888  15.209  12.262   9.824
 2514POPC   GL133889  15.074  12.247   9.291
 2514POPC   GL233890  15.057  11.937   9.071
 2514POPC   C1A33891  15.231  12.288   8.800
 2514POPC   D2A33892  14.967  12.061   8.479
 2514POPC   C3A33893  15.003  12.173   8.029
 2514POPC   C4A33894  15.002  12.245   7.599
 2514POPC   C1B33895  15.323  11.767   8.740
 2514POPC   C2B33896  15.313  11.593   8.310
 2514POPC   C3B33897  14.998  11.646   7.989
 2514POPC   C4B33898  15.306  11.856   7.764
 2515POPC   NC333899  18.772  23.855   9.315
 2515POPC   PO433900  19.254  23.336   9.448
 2515POPC   GL133901  19.089  23.350   9.079
 2515POPC   GL233902  19.239  23.683   8.991
 2515POPC   C1A33903  18.808  23.508   8.774
 2515POPC   D2A33904  18.944  23.806   8.462
 2515POPC   C3A33905  19.134  23.606   8.142
 2515POPC   C4A33906  19.187  23.603   7.728
 2515POPC   C1B33907  19.337  24.048   8.722
 2515POPC   C2B33908  19.350  24.156   8.300
 2515POPC   C3B33909  19.168  24.092   7.913
 2515POPC   C4B33910  19.275  24.246   7.509
 2516POPC   NC333911  34.254  31.406   9.336
 2516POPC   PO433912  34.542  31.915   9.725
 2516POPC   GL133913  34.625  31.781   9.272
 2516POPC   GL233914  34.402  31.889   9.028
 2516POPC   C1A33915  34.738  31.506   8.890
 2516POPC   D2A33916  34.529  31.261   8.531
 2516POPC   C3A33917  34.755  31.360   8.139
 2516POPC   C4A33918  34.667  31.338   7.699
 2516POPC   C1B33919  34.239  31.763   8.631
 2516POPC   C2B33920  34.330  31.626   8.192
 2516POPC   C3B33921  34.420  31.796   7.788
 2516POPC   C4B33922  34.670  31.729   7.392
 2517POPC   NC333923  19.643   0.102   9.424
 2517POPC   PO433924  19.785   0.714   9.610
 2517POPC   GL133925  19.851   0.533   9.243
 2517POPC   GL233926  19.469   0.538   9.189
 2517POPC   C1A33927  19.958   0.273   8.871
 2517POPC   D2A33928  20.129   0.415   8.521
 2517POPC   C3A33929  19.988   0.263   8.140
 2517POPC   C4A33930  19.934   0.378   7.736
 2517POPC   C1B33931  19.659   0.685   8.806
 2517POPC   C2B33932  19.662   0.571   8.415
 2517POPC   C3B33933  19.751   0.715   8.056
 2517POPC   C4B33934  19.533   0.721   7.682
 2518POPC   NC333935  40.789  16.519   9.596
 2518POPC   PO433936  41.026  17.086   9.418
 2518POPC   GL133937  40.958  16.934   9.025
 2518POPC   GL233938  40.889  16.602   9.086
 2518POPC   C1A33939  41.102  16.817   8.612
 2518POPC   D2A33940  41.140  16.515   8.270
 2518POPC   C3A33941  40.899  16.735   7.955
 2518POPC   C4A33942  40.934  17.109   7.718
 2518POPC   C1B33943  40.596  16.696   8.727
 2518POPC   C2B33944  40.624  16.499   8.348
 2518POPC   C3B33945  40.424  16.521   7.979
 2518POPC   C4B33946  40.585  16.507   7.597
 2519POPC   NC333947  43.608  14.861   9.694
 2519POPC   PO433948  43.995  15.261   9.320
 2519POPC   GL133949  43.922  15.258   8.899
 2519POPC   GL233950  43.630  15.041   8.767
 2519POPC   C1A33951  44.031  15.248   8.489
 2519POPC   D2A33952  43.817  14.974   8.246
 2519POPC   C3A33953  44.060  14.916   7.910
 2519POPC   C4A33954  43.947  14.908   7.496
 2519POPC   C1B33955  43.565  15.447   8.593
 2519POPC   C2B33956  43.637  15.486   8.164
 2519POPC   C3B33957  43.660  15.230   7.796
 2519POPC   C4B33958  43.618  15.293   7.346
 2520POPC   NC333959  24.891  10.739   9.343
 2520POPC   PO433960  25.554  10.389   9.484
 2520POPC   GL133961  25.513  10.357   9.064
 2520POPC   GL233962  25.394  10.716   9.111
 2520POPC   C1A33963  25.229  10.411   8.718
 2520POPC   D2A33964  24.989  10.645   8.401
 2520POPC   C3A33965  25.156  10.527   8.010
 2520POPC   C4A33966  25.383  10.513   7.648
 2520POPC   C1B33967  25.541  10.852   8.723
 2520POPC   C2B33968  25.526  10.595   8.372
 2520POPC   C3B33969  25.655  10.706   8.036
 2520POPC   C4B33970  25.858  10.670   7.699
 2521POPC   NC333971  28.941  26.753   9.470
 2521POPC   PO433972  29.599  26.883   9.267
 2521POPC   GL133973  29.196  26.828   9.047
 2521POPC   GL233974  28.916  27.105   9.060
 2521POPC   C1A33975  29.091  26.682   8.655
 2521POPC   D2A33976  29.347  26.729   8.292
 2521POPC   C3A33977  29.200  26.587   7.899
 2521POPC   C4A33978  29.425  26.493   7.551
 2521POPC   C1B33979  28.777  27.073   8.613
 2521POPC   C2B33980  28.818  26.786   8.230
 2521POPC   C3B33981  28.783  26.850   7.796
 2521POPC   C4B33982  28.840  27.271   7.646
 2522POPC   NC333983  33.358  38.475   9.423
 2522POPC   PO433984  34.054  38.255   9.543
 2522POPC   GL133985  33.806  38.272   9.150
 2522POPC   GL233986  33.716  38.620   9.058
 2522POPC   C1A33987  33.777  38.204   8.704
 2522POPC   D2A33988  34.101  38.283   8.403
 2522POPC   C3A33989  33.977  38.364   7.984
 2522POPC   C4A33990  33.555  38.416   7.781
 2522POPC   C1B33991  33.812  38.798   8.616
 2522POPC   C2B33992  33.592  38.849   8.194
 2522POPC   C3B33993  33.652  38.908   7.752
 2522POPC   C4B33994  33.970  38.681   7.592
 2523POPC   NC333995  20.689  29.981   9.498
 2523POPC   PO433996  20.032  29.885   9.440
 2523POPC   GL133997  20.367  29.853   9.114
 2523POPC   GL233998  20.535  30.184   9.059
 2523POPC   C1A33999  20.560  29.849   8.683
 2523POPC   D2A34000  20.803  29.884   8.308
 2523POPC   C3A34001  20.531  29.907   7.956
 2523POPC   C4A34002  20.309  29.541   7.799
 2523POPC   C1B34003  20.889  30.230   8.764
 2523POPC   C2B34004  21.127  30.266   8.376
 2523POPC   C3B34005  20.936  30.255   7.934
 2523POPC   C4B34006  20.800  30.303   7.466
 2524POPC   NC334007  14.914   5.883   9.737
 2524POPC   PO434008  15.575   5.795   9.594
 2524POPC   GL134009  15.252   5.931   9.313
 2524POPC   GL234010  15.080   5.654   9.174
 2524POPC   C1A34011  15.219   6.056   8.879
 2524POPC   D2A34012  15.059   5.943   8.465
 2524POPC   C3A34013  15.255   5.972   8.097
 2524POPC   C4A34014  15.154   5.621   7.846
 2524POPC   C1B34015  14.921   5.546   8.776
 2524POPC   C2B34016  14.948   5.448   8.328
 2524POPC   C3B34017  14.831   5.251   7.948
 2524POPC   C4B34018  14.920   5.369   7.476
 2525POPC   NC334019  15.417   7.684   9.454
 2525POPC   PO434020  15.214   7.123   9.724
 2525POPC   GL134021  15.231   7.156   9.229
 2525POPC   GL234022  14.933   6.962   9.093
 2525POPC   C1A34023  15.455   7.367   8.872
 2525POPC   D2A34024  15.363   7.689   8.584
 2525POPC   C3A34025  15.291   7.521   8.173
 2525POPC   C4A34026  15.296   7.384   7.761
 2525POPC   C1B34027  14.994   7.264   8.726
 2525POPC   C2B34028  14.811   7.383   8.346
 2525POPC   C3B34029  14.918   7.145   7.994
 2525POPC   C4B34030  14.856   7.183   7.532
 2526POPC   NC334031  12.273  21.247   9.661
 2526POPC   PO434032  11.882  21.742   9.479
 2526POPC   GL134033  12.041  21.519   9.171
 2526POPC   GL234034  12.396  21.500   9.195
 2526POPC   C1A34035  11.852  21.483   8.769
 2526POPC   D2A34036  11.899  21.259   8.384
 2526POPC   C3A34037  11.864  21.545   8.010
 2526POPC   C4A34038  12.033  21.837   7.708
 2526POPC   C1B34039  12.307  21.256   8.791
 2526POPC   C2B34040  12.410  21.225   8.352
 2526POPC   C3B34041  12.183  21.107   7.987
 2526POPC   C4B34042  12.111  21.288   7.603
 2527POPC   NC334043   5.647  32.718   9.435
 2527POPC   PO434044   6.183  32.251   9.637
 2527POPC   GL134045   6.194  32.050   9.232
 2527POPC   GL234046   5.934  32.294   9.171
 2527POPC   C1A34047   6.062  31.920   8.818
 2527POPC   D2A34048   6.040  32.180   8.480
 2527POPC   C3A34049   6.067  32.046   8.083
 2527POPC   C4A34050   5.916  32.148   7.727
 2527POPC   C1B34051   5.714  32.489   8.834
 2527POPC   C2B34052   5.821  32.635   8.449
 2527POPC   C3B34053   5.676  32.402   8.112
 2527POPC   C4B34054   5.676  32.588   7.732
 2528POPC   NC334055  31.326  20.825   9.496
 2528POPC   PO434056  31.996  20.804   9.424
 2528POPC   GL134057  31.671  20.579   9.167
 2528POPC   GL234058  31.491  20.878   9.028
 2528POPC   C1A34059  31.506  20.490   8.720
 2528POPC   D2A34060  31.374  20.792   8.409
 2528POPC   C3A34061  31.440  20.579   8.039
 2528POPC   C4A34062  31.627  20.577   7.625
 2528POPC   C1B34063  31.701  21.104   8.690
 2528POPC   C2B34064  31.583  21.241   8.261
 2528POPC   C3B34065  31.541  21.025   7.843
 2528POPC   C4B34066  31.505  20.993   7.341
 2529POPC   NC334067  34.392  26.490   9.545
 2529POPC   PO434068  34.752  27.086   9.552
 2529POPC   GL134069  34.517  26.896   9.257
 2529POPC   GL234070  34.696  26.576   9.151
 2529POPC   C1A34071  34.332  26.998   8.887
 2529POPC   D2A34072  34.296  26.810   8.491
 2529POPC   C3A34073  34.406  27.028   8.086
 2529POPC   C4A34074  34.460  26.905   7.642
 2529POPC   C1B34075  34.451  26.318   8.864
 2529POPC   C2B34076  34.322  26.277   8.448
 2529POPC   C3B34077  34.327  26.518   8.064
 2529POPC   C4B34078  34.432  26.389   7.653
 2530POPC   NC334079  40.533  16.906   9.353
 2530POPC   PO434080  40.031  16.588   9.714
 2530POPC   GL134081  40.001  16.741   9.241
 2530POPC   GL234082  39.874  16.436   9.145
 2530POPC   C1A34083  40.102  16.949   8.802
 2530POPC   D2A34084  40.244  16.883   8.337
 2530POPC   C3A34085  40.002  16.799   7.928
 2530POPC   C4A34086  40.090  16.770   7.462
 2530POPC   C1B34087  40.096  16.454   8.754
 2530POPC   C2B34088  40.136  16.355   8.353
 2530POPC   C3B34089  39.861  16.321   8.008
 2530POPC   C4B34090  40.125  16.290   7.634
 2531POPC   NC334091  28.025   2.151   9.320
 2531POPC   PO434092  28.095   2.805   9.633
 2531POPC   GL134093  28.249   2.982   9.229
 2531POPC   GL234094  27.930   2.971   9.116
 2531POPC   C1A34095  28.568   3.045   8.851
 2531POPC   D2A34096  28.739   3.192   8.433
 2531POPC   C3A34097  28.521   3.057   8.061
 2531POPC   C4A34098  28.704   2.718   7.819
 2531POPC   C1B34099  28.091   2.873   8.723
 2531POPC   C2B34100  28.078   2.879   8.279
 2531POPC   C3B34101  28.200   2.597   7.960
 2531POPC   C4B34102  28.168   2.353   7.572
 2532POPC   NC334103  10.618   9.318   9.361
 2532POPC   PO434104  10.748   9.977   9.494
 2532POPC   GL134105  10.412   9.883   9.130
 2532POPC   GL234106  10.267   9.516   9.047
 2532POPC   C1A34107  10.363   9.824   8.662
 2532POPC   D2A34108  10.605   9.704   8.295
 2532POPC   C3A34109  10.388   9.770   7.916
 2532POPC   C4A34110  10.183   9.409   7.728
 2532POPC   C1B34111  10.580   9.353   8.708
 2532POPC   C2B34112  10.763   9.197   8.305
 2532POPC   C3B34113  10.684   9.374   7.884
 2532POPC   C4B34114  10.914   9.500   7.500
 2533POPC   NC334115  32.667  28.518   9.630
 2533POPC   PO434116  33.283  28.476   9.341
 2533POPC   GL134117  32.911  28.515   9.141
 2533POPC   GL234118  33.006  28.205   8.993
 2533POPC   C1A34119  32.950  28.664   8.712
 2533POPC   D2A34120  33.257  28.657   8.323
 2533POPC   C3A34121  33.076  28.580   7.910
 2533POPC   C4A34122  33.273  28.632   7.520
 2533POPC   C1B34123  33.202  28.241   8.603
 2533POPC   C2B34124  32.888  28.295   8.301
 2533POPC   C3B34125  32.792  28.153   7.916
 2533POPC   C4B34126  33.145  28.066   7.716
 2534POPC   NC334127   6.666  40.629   9.666
 2534POPC   PO434128   6.135  40.937   9.399
 2534POPC   GL134129   6.520  40.824   9.205
 2534POPC   GL234130   6.867  40.715   9.213
 2534POPC   C1A34131   6.593  40.696   8.801
 2534POPC   D2A34132   6.420  40.674   8.431
 2534POPC   C3A34133   6.718  40.763   8.128
 2534POPC   C4A34134   6.697  40.909   7.724
 2534POPC   C1B34135   7.087  40.518   8.909
 2534POPC   C2B34136   6.960  40.455   8.516
 2534POPC   C3B34137   7.115  40.386   8.139
 2534POPC   C4B34138   7.151  40.680   7.803
 2535POPC   NC334139  29.716  36.013   9.513
 2535POPC   PO434140  30.395  36.313   9.503
 2535POPC   GL134141  30.116  36.209   9.188
 2535POPC   GL234142  29.811  36.412   9.193
 2535POPC   C1A34143  30.088  36.310   8.753
 2535POPC   D2A34144  30.036  36.011   8.426
 2535POPC   C3A34145  30.134  36.269   8.096
 2535POPC   C4A34146  30.097  36.184   7.675
 2535POPC   C1B34147  29.586  36.246   8.821
 2535POPC   C2B34148  29.638  36.352   8.376
 2535POPC   C3B34149  29.657  36.116   7.997
 2535POPC   C4B34150  29.618  36.230   7.572
 2536POPC   NC334151   1.577   3.237   9.446
 2536POPC   PO434152   1.204   3.804   9.376
 2536POPC   GL134153   1.354   3.515   9.076
 2536POPC   GL234154   1.079   3.293   9.080
 2536POPC   C1A34155   1.423   3.683   8.684
 2536POPC   D2A34156   1.050   3.798   8.472
 2536POPC   C3A34157   1.069   3.768   8.056
 2536POPC   C4A34158   0.765   3.710   7.778
 2536POPC   C1B34159   0.890   3.342   8.656
 2536POPC   C2B34160   0.890   3.314   8.205
 2536POPC   C3B34161   1.095   3.224   7.838
 2536POPC   C4B34162   1.012   2.956   7.491
 2537POPC   NC334163  36.878  17.717   9.407
 2537POPC   PO434164  36.515  17.184   9.503
 2537POPC   GL134165  36.891  17.181   9.215
 2537POPC   GL234166  37.188  17.405   9.135
 2537POPC   C1A34167  36.902  17.190   8.755
 2537POPC   D2A34168  36.671  17.041   8.413
 2537POPC   C3A34169  36.734  17.250   8.048
 2537POPC   C4A34170  36.760  17.227   7.629
 2537POPC   C1B34171  37.268  17.633   8.747
 2537POPC   C2B34172  37.098  17.640   8.312
 2537POPC   C3B34173  37.086  17.572   7.852
 2537POPC   C4B34174  37.080  17.840   7.505
 2538POPC   NC334175  19.199  11.981   9.513
 2538POPC   PO434176  18.523  12.123   9.653
 2538POPC   GL134177  18.808  12.218   9.234
 2538POPC   GL234178  18.994  11.938   9.053
 2538POPC   C1A34179  19.061  12.371   8.841
 2538POPC   D2A34180  19.166  12.078   8.536
 2538POPC   C3A34181  19.136  12.232   8.112
 2538POPC   C4A34182  19.328  12.091   7.749
 2538POPC   C1B34183  18.869  11.667   8.747
 2538POPC   C2B34184  18.979  11.632   8.360
 2538POPC   C3B34185  18.986  11.741   7.930
 2538POPC   C4B34186  18.688  11.663   7.604
 2539POPC   NC334187  40.735   1.669   9.469
 2539POPC   PO434188  41.081   2.356   9.483
 2539POPC   GL134189  41.029   2.036   9.125
 2539POPC   GL234190  40.976   1.657   9.026
 2539POPC   C1A34191  40.650   2.036   8.850
 2539POPC   D2A34192  40.517   1.900   8.445
 2539POPC   C3A34193  40.576   2.199   8.086
 2539POPC   C4A34194  41.002   2.298   7.977
 2539POPC   C1B34195  41.024   1.743   8.617
 2539POPC   C2B34196  41.216   1.592   8.255
 2539POPC   C3B34197  41.070   1.800   7.901
 2539POPC   C4B34198  40.659   1.828   7.766
 2540POPC   NC334199  30.293  13.662   9.513
 2540POPC   PO434200  29.750  13.313   9.366
 2540POPC   GL134201  29.852  13.615   9.058
 2540POPC   GL234202  30.156  13.753   9.033
 2540POPC   C1A34203  29.820  13.714   8.645
 2540POPC   D2A34204  29.806  13.520   8.261
 2540POPC   C3A34205  29.892  13.805   7.947
 2540POPC   C4A34206  29.525  13.961   7.773
 2540POPC   C1B34207  30.294  13.446   8.735
 2540POPC   C2B34208  30.254  13.256   8.346
 2540POPC   C3B34209  30.178  13.346   7.930
 2540POPC   C4B34210  30.138  13.313   7.493
 2541POPC   NC334211   0.212  32.906   9.511
 2541POPC   PO434212   0.916  32.950   9.486
 2541POPC   GL134213   0.611  33.076   9.155
 2541POPC   GL234214   0.389  33.332   9.304
 2541POPC   C1A34215   0.301  32.860   8.859
 2541POPC   D2A34216   0.311  32.745   8.405
 2541POPC   C3A34217   0.612  33.015   8.211
 2541POPC   C4A34218   0.650  33.200   7.794
 2541POPC   C1B34219   0.281  33.440   8.908
 2541POPC   C2B34220   0.267  33.248   8.526
 2541POPC   C3B34221   0.251  33.356   8.109
 2541POPC   C4B34222   0.194  33.447   7.691
 2542POPC   NC334223  30.743  28.827   9.527
 2542POPC   PO434224  30.535  28.112   9.470
 2542POPC   GL134225  30.716  28.225   9.078
 2542POPC   GL234226  30.666  28.584   9.086
 2542POPC   C1A34227  30.542  28.303   8.659
 2542POPC   D2A34228  30.420  28.517   8.269
 2542POPC   C3A34229  30.426  28.293   7.904
 2542POPC   C4A34230  30.637  27.968   7.774
 2542POPC   C1B34231  30.834  28.711   8.698
 2542POPC   C2B34232  30.878  28.879   8.310
 2542POPC   C3B34233  30.751  28.710   7.945
 2542POPC   C4B34234  30.368  28.766   7.727
 2543POPC   NC334235   5.642  30.310   9.514
 2543POPC   PO434236   5.901  29.687   9.602
 2543POPC   GL134237   5.932  29.950   9.249
 2543POPC   GL234238   6.068  30.292   9.247
 2543POPC   C1A34239   6.185  29.988   8.871
 2543POPC   D2A34240   6.100  30.189   8.497
 2543POPC   C3A34241   5.928  29.902   8.201
 2543POPC   C4A34242   5.873  29.969   7.785
 2543POPC   C1B34243   5.721  30.212   8.874
 2543POPC   C2B34244   5.558  30.210   8.456
 2543POPC   C3B34245   5.412  30.008   8.061
 2543POPC   C4B34246   5.420  30.173   7.649
 2544POPC   NC334247  25.932   4.387   9.740
 2544POPC   PO434248  26.210   3.848   9.646
 2544POPC   GL134249  26.187   4.215   9.307
 2544POPC   GL234250  25.873   4.477   9.246
 2544POPC   C1A34251  26.196   4.326   8.846
 2544POPC   D2A34252  25.940   4.154   8.493
 2544POPC   C3A34253  26.058   4.214   8.107
 2544POPC   C4A34254  26.187   4.106   7.709
 2544POPC   C1B34255  25.666   4.308   8.882
 2544POPC   C2B34256  25.490   4.534   8.522
 2544POPC   C3B34257  25.650   4.676   8.111
 2544POPC   C4B34258  25.978   4.581   7.774
 2545POPC   NC334259  10.848  40.620   9.522
 2545POPC   PO434260  11.486  40.860   9.484
 2545POPC   GL134261  11.255  40.693   9.185
 2545POPC   GL234262  11.264  41.014   9.041
 2545POPC   C1A34263  11.431  40.562   8.825
 2545POPC   D2A34264  11.419  40.833   8.500
 2545POPC   C3A34265  11.198  40.640   8.178
 2545POPC   C4A34266  11.205  40.604   7.747
 2545POPC   C1B34267  11.009  41.190   8.765
 2545POPC   C2B34268  10.969  41.105   8.367
 2545POPC   C3B34269  11.272  41.140   8.090
 2545POPC   C4B34270  11.100  41.124   7.712
 2546POPC   NC334271   4.223  20.076   9.542
 2546POPC   PO434272   4.035  19.428   9.519
 2546POPC   GL134273   4.256  19.646   9.180
 2546POPC   GL234274   4.500  19.935   9.145
 2546POPC   C1A34275   4.133  19.797   8.781
 2546POPC   D2A34276   4.087  19.614   8.412
 2546POPC   C3A34277   4.356  19.702   8.112
 2546POPC   C4A34278   4.245  19.523   7.765
 2546POPC   C1B34279   4.519  20.121   8.756
 2546POPC   C2B34280   4.160  20.273   8.507
 2546POPC   C3B34281   4.142  20.177   8.087
 2546POPC   C4B34282   4.530  20.179   7.914
 2547POPC   NC334283  23.460  32.612   9.500
 2547POPC   PO434284  24.013  33.008   9.595
 2547POPC   GL134285  23.784  32.958   9.245
 2547POPC   GL234286  23.826  32.632   9.156
 2547POPC   C1A34287  23.615  33.042   8.849
 2547POPC   D2A34288  23.597  33.223   8.461
 2547POPC   C3A34289  23.495  32.981   8.093
 2547POPC   C4A34290  23.557  33.172   7.709
 2547POPC   C1B34291  23.990  32.710   8.749
 2547POPC   C2B34292  23.969  32.839   8.322
 2547POPC   C3B34293  23.957  32.861   7.885
 2547POPC   C4B34294  23.871  32.899   7.442
 2548POPC   NC334295  26.791  10.259   9.746
 2548POPC   PO434296  27.059   9.627   9.604
 2548POPC   GL134297  26.945   9.854   9.288
 2548POPC   GL234298  27.251   9.788   9.133
 2548POPC   C1A34299  26.763   9.798   8.873
 2548POPC   D2A34300  26.500   9.908   8.516
 2548POPC   C3A34301  26.544  10.151   8.133
 2548POPC   C4A34302  26.498   9.970   7.727
 2548POPC   C1B34303  27.239   9.647   8.735
 2548POPC   C2B34304  27.004   9.804   8.402
 2548POPC   C3B34305  26.825   9.686   8.024
 2548POPC   C4B34306  26.903   9.709   7.597
 2549POPC   NC334307  10.409   2.903   9.528
 2549POPC   PO434308  10.265   2.237   9.368
 2549POPC   GL134309  10.451   2.598   9.097
 2549POPC   GL234310  10.639   2.972   9.092
 2549POPC   C1A34311  10.652   2.600   8.717
 2549POPC   D2A34312  10.786   2.353   8.381
 2549POPC   C3A34313  10.628   2.540   8.011
 2549POPC   C4A34314  10.812   2.644   7.639
 2549POPC   C1B34315  10.426   3.067   8.751
 2549POPC   C2B34316  10.206   3.017   8.390
 2549POPC   C3B34317  10.368   2.981   7.989
 2549POPC   C4B34318  10.734   3.137   7.808
 2550POPC   NC334319  42.766   8.606   9.783
 2550POPC   PO434320  43.301   8.507   9.318
 2550POPC   GL134321  43.082   8.075   9.178
 2550POPC   GL234322  43.333   7.820   9.099
 2550POPC   C1A34323  42.770   8.082   8.789
 2550POPC   D2A34324  42.696   7.978   8.349
 2550POPC   C3A34325  42.808   8.311   8.065
 2550POPC   C4A34326  43.174   8.236   7.788
 2550POPC   C1B34327  43.287   8.079   8.723
 2550POPC   C2B34328  43.278   8.214   8.310
 2550POPC   C3B34329  43.607   8.355   8.048
 2550POPC   C4B34330  43.602   8.579   7.662
 2551POPC   NC334331  32.068  17.428   9.413
 2551POPC   PO434332  32.665  17.565   9.668
 2551POPC   GL134333  32.515  17.351   9.200
 2551POPC   GL234334  32.294  17.116   9.068
 2551POPC   C1A34335  32.301  17.480   8.743
 2551POPC   D2A34336  32.259  17.288   8.337
 2551POPC   C3A34337  32.284  17.689   8.041
 2551POPC   C4A34338  32.361  17.709   7.587
 2551POPC   C1B34339  31.888  17.176   8.826
 2551POPC   C2B34340  31.743  17.349   8.444
 2551POPC   C3B34341  31.886  17.394   8.035
 2551POPC   C4B34342  31.860  17.472   7.645
 2552POPC   NC334343  39.475   4.049   9.843
 2552POPC   PO434344  38.920   3.624   9.590
 2552POPC   GL134345  39.132   3.830   9.247
 2552POPC   GL234346  39.172   3.517   9.052
 2552POPC   C1A34347  39.239   3.932   8.779
 2552POPC   D2A34348  39.516   3.762   8.462
 2552POPC   C3A34349  39.566   3.765   8.022
 2552POPC   C4A34350  39.444   3.772   7.591
 2552POPC   C1B34351  39.139   3.456   8.599
 2552POPC   C2B34352  39.421   3.311   8.238
 2552POPC   C3B34353  39.313   3.151   7.855
 2552POPC   C4B34354  38.890   3.218   7.735
 2553POPC   NC334355  36.099  34.926   9.541
 2553POPC   PO434356  36.000  34.215   9.629
 2553POPC   GL134357  36.124  34.428   9.280
 2553POPC   GL234358  35.827  34.379   9.114
 2553POPC   C1A34359  36.282  34.454   8.874
 2553POPC   D2A34360  36.456  34.501   8.484
 2553POPC   C3A34361  36.141  34.558   8.210
 2553POPC   C4A34362  36.171  34.566   7.803
 2553POPC   C1B34363  35.773  34.499   8.686
 2553POPC   C2B34364  35.702  34.788   8.370
 2553POPC   C3B34365  35.829  34.964   7.990
 2553POPC   C4B34366  35.728  34.724   7.637
 2554POPC   NC334367  28.658  34.655   9.630
 2554POPC   PO434368  29.355  34.871   9.550
 2554POPC   GL134369  29.097  34.753   9.215
 2554POPC   GL234370  28.843  34.477   9.206
 2554POPC   C1A34371  29.209  34.522   8.831
 2554POPC   D2A34372  29.475  34.431   8.454
 2554POPC   C3A34373  29.387  34.556   8.069
 2554POPC   C4A34374  29.043  34.626   7.786
 2554POPC   C1B34375  28.731  34.289   8.818
 2554POPC   C2B34376  28.989  34.286   8.434
 2554POPC   C3B34377  29.079  34.167   8.000
 2554POPC   C4B34378  28.944  34.137   7.566
 2555POPC   NC334379  31.375  39.544   9.490
 2555POPC   PO434380  31.398  40.125   9.493
 2555POPC   GL134381  31.515  40.011   9.081
 2555POPC   GL234382  31.655  39.648   9.078
 2555POPC   C1A34383  31.473  40.275   8.701
 2555POPC   D2A34384  31.271  40.448   8.328
 2555POPC   C3A34385  31.424  40.265   7.978
 2555POPC   C4A34386  31.266  40.102   7.586
 2555POPC   C1B34387  31.571  39.755   8.656
 2555POPC   C2B34388  31.313  39.906   8.346
 2555POPC   C3B34389  31.372  39.752   7.940
 2555POPC   C4B34390  31.708  39.471   7.840
 2556POPC   NC334391   1.397  18.690   9.203
 2556POPC   PO434392   0.948  18.641   9.742
 2556POPC   GL134393   1.134  18.274   9.344
 2556POPC   GL234394   1.174  17.884   9.318
 2556POPC   C1A34395   1.328  18.186   8.849
 2556POPC   D2A34396   1.241  18.326   8.405
 2556POPC   C3A34397   1.544  18.332   8.071
 2556POPC   C4A34398   1.608  18.515   7.651
 2556POPC   C1B34399   0.923  17.916   8.937
 2556POPC   C2B34400   0.921  17.844   8.477
 2556POPC   C3B34401   0.865  18.090   8.096
 2556POPC   C4B34402   1.150  18.203   7.775
 2557POPC   NC334403  17.085  25.984   9.656
 2557POPC   PO434404  17.628  26.232   9.596
 2557POPC   GL134405  17.393  26.200   9.237
 2557POPC   GL234406  17.395  25.875   9.210
 2557POPC   C1A34407  17.439  26.312   8.802
 2557POPC   D2A34408  17.255  26.293   8.374
 2557POPC   C3A34409  17.556  26.217   8.043
 2557POPC   C4A34410  17.580  26.278   7.607
 2557POPC   C1B34411  17.779  25.943   8.932
 2557POPC   C2B34412  17.756  26.010   8.504
 2557POPC   C3B34413  17.892  25.843   8.125
 2557POPC   C4B34414  17.728  25.815   7.727
 2558POPC   NC334415  30.470   2.325  10.024
 2558POPC   PO434416  30.899   1.982   9.550
 2558POPC   GL134417  30.728   2.102   9.188
 2558POPC   GL234418  31.067   2.065   9.042
 2558POPC   C1A34419  30.641   2.012   8.772
 2558POPC   D2A34420  30.983   1.973   8.516
 2558POPC   C3A34421  30.841   2.116   8.154
 2558POPC   C4A34422  30.571   2.010   7.823
 2558POPC   C1B34423  30.975   1.631   8.909
 2558POPC   C2B34424  30.767   1.503   8.529
 2558POPC   C3B34425  30.779   1.604   8.104
 2558POPC   C4B34426  30.825   1.596   7.669
 2559POPC   NC334427  22.107  23.342   9.630
 2559POPC   PO434428  22.302  23.978   9.646
 2559POPC   GL134429  22.235  23.850   9.216
 2559POPC   GL234430  21.946  23.633   9.222
 2559POPC   C1A34431  22.362  23.926   8.770
 2559POPC   D2A34432  22.296  23.766   8.357
 2559POPC   C3A34433  22.262  24.031   7.935
 2559POPC   C4A34434  22.517  23.992   7.540
 2559POPC   C1B34435  21.839  23.752   8.795
 2559POPC   C2B34436  21.862  23.505   8.412
 2559POPC   C3B34437  21.985  23.607   7.979
 2559POPC   C4B34438  21.836  23.929   7.681
 2560POPC   NC334439   7.143  42.371   9.199
 2560POPC   PO434440   7.746  42.491   9.511
 2560POPC   GL134441   7.639  42.438   9.071
 2560POPC   GL234442   7.544  42.115   9.008
 2560POPC   C1A34443   7.580  42.387   8.592
 2560POPC   D2A34444   7.280  42.172   8.285
 2560POPC   C3A34445   7.249  42.458   7.939
 2560POPC   C4A34446   7.523  42.590   7.601
 2560POPC   C1B34447   7.510  41.868   8.660
 2560POPC   C2B34448   7.758  41.974   8.334
 2560POPC   C3B34449   7.605  41.876   7.961
 2560POPC   C4B34450   7.401  42.056   7.664
 2561POPC   NC334451  31.045  19.791   9.551
 2561POPC   PO434452  30.369  19.932   9.630
 2561POPC   GL134453  30.514  19.832   9.218
 2561POPC   GL234454  30.810  20.040   9.148
 2561POPC   C1A34455  30.403  19.918   8.782
 2561POPC   D2A34456  30.615  19.814   8.393
 2561POPC   C3A34457  30.503  19.746   7.974
 2561POPC   C4A34458  30.562  20.106   7.719
 2561POPC   C1B34459  30.953  19.752   8.807
 2561POPC   C2B34460  31.064  19.586   8.374
 2561POPC   C3B34461  31.001  19.849   7.966
 2561POPC   C4B34462  31.066  19.995   7.532
 2562POPC   NC334463  11.987   5.856   9.357
 2562POPC   PO434464  12.309   5.292   9.673
 2562POPC   GL134465  12.439   5.539   9.241
 2562POPC   GL234466  12.510   5.893   9.181
 2562POPC   C1A34467  12.237   5.680   8.805
 2562POPC   D2A34468  11.861   5.772   8.528
 2562POPC   C3A34469  11.845   5.607   8.112
 2562POPC   C4A34470  12.050   5.507   7.745
 2562POPC   C1B34471  12.416   6.135   8.788
 2562POPC   C2B34472  12.277   6.011   8.360
 2562POPC   C3B34473  12.096   6.003   7.910
 2562POPC   C4B34474  12.288   6.043   7.499
 2563POPC   NC334475  23.308   6.148   9.616
 2563POPC   PO434476  22.663   5.965   9.568
 2563POPC   GL134477  22.820   5.851   9.142
 2563POPC   GL234478  23.101   5.585   9.089
 2563POPC   C1A34479  22.816   5.994   8.718
 2563POPC   D2A34480  23.126   6.058   8.406
 2563POPC   C3A34481  22.922   6.013   8.007
 2563POPC   C4A34482  22.994   5.900   7.604
 2563POPC   C1B34483  23.143   5.600   8.651
 2563POPC   C2B34484  23.154   5.587   8.203
 2563POPC   C3B34485  23.207   5.440   7.758
 2563POPC   C4B34486  23.275   5.572   7.309
 2564POPC   NC334487   0.062  17.830   9.383
 2564POPC   PO434488  44.467  17.678   9.609
 2564POPC   GL134489  44.641  17.617   9.198
 2564POPC   GL234490  44.914  17.367   9.190
 2564POPC   C1A34491  44.467  17.507   8.811
 2564POPC   D2A34492  44.478  17.319   8.434
 2564POPC   C3A34493  44.499  17.626   8.117
 2564POPC   C4A34494  44.298  17.539   7.753
 2564POPC   C1B34495   0.001  17.565   8.791
 2564POPC   C2B34496  44.932  17.712   8.395
 2564POPC   C3B34497   0.112  17.676   7.996
 2564POPC   C4B34498  44.804  17.637   7.679
 2565POPC   NC334499  21.528  40.033   9.487
 2565POPC   PO434500  21.861  39.516   9.298
 2565POPC   GL134501  21.533  39.768   9.043
 2565POPC   GL234502  21.190  39.859   9.158
 2565POPC   C1A34503  21.326  39.918   8.668
 2565POPC   D2A34504  21.173  39.891   8.269
 2565POPC   C3A34505  21.481  39.769   7.957
 2565POPC   C4A34506  21.666  39.926   7.587
 2565POPC   C1B34507  21.058  40.241   8.938
 2565POPC   C2B34508  20.992  40.336   8.486
 2565POPC   C3B34509  20.974  40.395   8.060
 2565POPC   C4B34510  21.215  40.162   7.763
 2566POPC   NC334511  34.854  33.181   9.859
 2566POPC   PO434512  34.491  32.689   9.566
 2566POPC   GL134513  34.311  32.973   9.220
 2566POPC   GL234514  34.292  33.336   9.149
 2566POPC   C1A34515  34.480  33.044   8.783
 2566POPC   D2A34516  34.320  32.967   8.397
 2566POPC   C3A34517  34.457  32.984   8.013
 2566POPC   C4A34518  34.532  32.780   7.651
 2566POPC   C1B34519  34.481  33.548   8.752
 2566POPC   C2B34520  34.697  33.640   8.389
 2566POPC   C3B34521  34.501  33.520   8.041
 2566POPC   C4B34522  34.414  33.358   7.658
 2567POPC   NC334523  27.293  11.365   9.291
 2567POPC   PO434524  27.860  11.412   9.557
 2567POPC   GL134525  27.762  11.302   9.138
 2567POPC   GL234526  27.699  11.652   9.102
 2567POPC   C1A34527  27.580  11.180   8.736
 2567POPC   D2A34528  27.730  11.231   8.338
 2567POPC   C3A34529  27.419  11.120   8.074
 2567POPC   C4A34530  27.429  10.916   7.707
 2567POPC   C1B34531  27.877  11.598   8.708
 2567POPC   C2B34532  27.650  11.756   8.352
 2567POPC   C3B34533  27.706  11.601   7.973
 2567POPC   C4B34534  27.784  11.260   7.722
 2568POPC   NC334535  22.543  32.163   9.515
 2568POPC   PO434536  23.151  31.988   9.495
 2568POPC   GL134537  22.953  32.189   9.172
 2568POPC   GL234538  23.074  32.478   9.191
 2568POPC   C1A34539  23.064  32.264   8.734
 2568POPC   D2A34540  22.983  32.100   8.370
 2568POPC   C3A34541  23.283  32.050   8.085
 2568POPC   C4A34542  22.973  32.036   7.779
 2568POPC   C1B34543  23.192  32.746   8.849
 2568POPC   C2B34544  23.341  32.628   8.445
 2568POPC   C3B34545  23.142  32.544   8.061
 2568POPC   C4B34546  23.301  32.410   7.669
 2569POPC   NC334547   1.873  10.419   9.623
 2569POPC   PO434548   2.536  10.450   9.652
 2569POPC   GL134549   2.219  10.495   9.224
 2569POPC   GL234550   1.859  10.364   9.115
 2569POPC   C1A34551   2.065  10.731   8.832
 2569POPC   D2A34552   1.725  10.577   8.539
 2569POPC   C3A34553   1.784  10.643   8.120
 2569POPC   C4A34554   2.175  10.623   7.933
 2569POPC   C1B34555   1.935  10.131   8.700
 2569POPC   C2B34556   2.009  10.178   8.242
 2569POPC   C3B34557   2.038  10.162   7.762
 2569POPC   C4B34558   1.867  10.108   7.341
 2570POPC   NC334559  32.904  11.826   9.541
 2570POPC   PO434560  33.297  12.274   9.436
 2570POPC   GL134561  33.080  12.108   9.123
 2570POPC   GL234562  32.738  12.206   9.138
 2570POPC   C1A34563  33.085  11.959   8.698
 2570POPC   D2A34564  33.354  11.761   8.394
 2570POPC   C3A34565  33.174  11.991   8.042
 2570POPC   C4A34566  32.841  11.730   7.812
 2570POPC   C1B34567  32.600  12.145   8.703
 2570POPC   C2B34568  32.739  12.168   8.242
 2570POPC   C3B34569  32.793  12.238   7.764
 2570POPC   C4B34570  32.903  12.382   7.305
 2571POPC   NC334571  22.335  15.857   9.422
 2571POPC   PO434572  22.073  15.181   9.557
 2571POPC   GL134573  22.042  15.178   9.139
 2571POPC   GL234574  21.802  15.464   9.102
 2571POPC   C1A34575  22.148  15.363   8.741
 2571POPC   D2A34576  22.079  15.372   8.321
 2571POPC   C3A34577  22.201  14.979   8.132
 2571POPC   C4A34578  22.410  14.910   7.750
 2571POPC   C1B34579  21.665  15.139   8.791
 2571POPC   C2B34580  21.691  15.016   8.354
 2571POPC   C3B34581  21.793  15.189   7.924
 2571POPC   C4B34582  22.171  15.396   7.810
 2572POPC   NC334583  33.144  28.926   9.424
 2572POPC   PO434584  33.248  29.669   9.447
 2572POPC   GL134585  33.119  29.503   9.069
 2572POPC   GL234586  32.823  29.342   9.118
 2572POPC   C1A34587  33.200  29.192   8.733
 2572POPC   D2A34588  33.449  29.124   8.344
 2572POPC   C3A34589  33.419  29.438   8.001
 2572POPC   C4A34590  33.081  29.536   7.731
 2572POPC   C1B34591  32.678  29.142   8.734
 2572POPC   C2B34592  32.880  28.999   8.351
 2572POPC   C3B34593  33.044  29.081   7.975
 2572POPC   C4B34594  32.642  29.162   7.890
 2573POPC   NC334595  24.573  25.724   9.590
 2573POPC   PO434596  24.755  26.285   9.635
 2573POPC   GL134597  24.656  26.070   9.226
 2573POPC   GL234598  24.931  25.810   9.203
 2573POPC   C1A34599  24.407  26.045   8.792
 2573POPC   D2A34600  24.209  26.170   8.364
 2573POPC   C3A34601  24.397  26.030   7.976
 2573POPC   C4A34602  24.603  26.099   7.549
 2573POPC   C1B34603  24.927  26.060   8.809
 2573POPC   C2B34604  24.726  26.257   8.413
 2573POPC   C3B34605  24.851  26.254   7.984
 2573POPC   C4B34606  25.009  25.874   7.770
 2574POPC   NC334607  27.902  13.679   9.557
 2574POPC   PO434608  27.353  13.313   9.657
 2574POPC   GL134609  27.425  13.517   9.215
 2574POPC   GL234610  27.598  13.787   9.139
 2574POPC   C1A34611  27.455  13.423   8.762
 2574POPC   D2A34612  27.572  13.671   8.415
 2574POPC   C3A34613  27.360  13.613   8.004
 2574POPC   C4A34614  27.126  13.621   7.603
 2574POPC   C1B34615  27.666  14.061   8.795
 2574POPC   C2B34616  27.899  14.154   8.443
 2574POPC   C3B34617  27.709  14.035   8.105
 2574POPC   C4B34618  27.849  13.941   7.771
 2575POPC   NC334619  36.644  24.949   9.459
 2575POPC   PO434620  37.073  25.502   9.353
 2575POPC   GL134621  36.833  25.357   9.059
 2575POPC   GL234622  36.985  25.052   9.074
 2575POPC   C1A34623  36.930  25.270   8.626
 2575POPC   D2A34624  37.152  25.268   8.265
 2575POPC   C3A34625  36.828  25.300   7.975
 2575POPC   C4A34626  36.854  25.305   7.539
 2575POPC   C1B34627  37.060  24.779   8.743
 2575POPC   C2B34628  36.929  24.795   8.338
 2575POPC   C3B34629  37.090  24.864   7.948
 2575POPC   C4B34630  37.085  24.848   7.531
 2576POPC   NC334631  42.052   8.274   9.496
 2576POPC   PO434632  42.733   8.155   9.578
 2576POPC   GL134633  42.465   8.135   9.208
 2576POPC   GL234634  42.213   7.906   9.161
 2576POPC   C1A34635  42.259   8.279   8.822
 2576POPC   D2A34636  42.438   8.412   8.449
 2576POPC   C3A34637  42.225   8.260   8.139
 2576POPC   C4A34638  42.213   8.333   7.740
 2576POPC   C1B34639  42.374   7.766   8.739
 2576POPC   C2B34640  42.223   7.792   8.323
 2576POPC   C3B34641  42.319   7.828   7.870
 2576POPC   C4B34642  42.745   7.931   7.731
 2577POPC   NC334643  16.494  28.555   9.988
 2577POPC   PO434644  16.996  28.466   9.593
 2577POPC   GL134645  16.846  28.456   9.162
 2577POPC   GL234646  16.540  28.446   9.176
 2577POPC   C1A34647  16.736  28.574   8.733
 2577POPC   D2A34648  16.898  28.399   8.386
 2577POPC   C3A34649  16.829  28.577   7.984
 2577POPC   C4A34650  16.653  28.430   7.621
 2577POPC   C1B34651  16.531  28.118   8.860
 2577POPC   C2B34652  16.446  28.204   8.477
 2577POPC   C3B34653  16.340  28.451   8.145
 2577POPC   C4B34654  16.197  28.236   7.794
 2578POPC   NC334655   2.871  31.541   9.738
 2578POPC   PO434656   2.507  30.995   9.613
 2578POPC   GL134657   2.817  31.262   9.267
 2578POPC   GL234658   2.867  31.659   9.244
 2578POPC   C1A34659   2.760  31.424   8.818
 2578POPC   D2A34660   2.586  31.455   8.395
 2578POPC   C3A34661   2.803  31.459   8.046
 2578POPC   C4A34662   2.961  31.295   7.689
 2578POPC   C1B34663   3.051  31.828   8.818
 2578POPC   C2B34664   3.127  31.617   8.434
 2578POPC   C3B34665   3.240  31.707   8.015
 2578POPC   C4B34666   2.927  31.946   7.857
 2579POPC   NC334667  34.303  28.027   9.430
 2579POPC   PO434668  34.249  28.705   9.459
 2579POPC   GL134669  34.602  28.408   9.247
 2579POPC   GL234670  34.914  28.585   9.113
 2579POPC   C1A34671  34.725  28.186   8.838
 2579POPC   D2A34672  34.716  28.232   8.377
 2579POPC   C3A34673  34.533  27.946   8.074
 2579POPC   C4A34674  34.427  27.963   7.623
 2579POPC   C1B34675  34.520  28.677   8.835
 2579POPC   C2B34676  34.453  28.778   8.412
 2579POPC   C3B34677  34.501  28.569   8.031
 2579POPC   C4B34678  34.796  28.307   7.853
 2580POPC   NC334679  23.970   5.528   9.489
 2580POPC   PO434680  23.279   5.617   9.623
 2580POPC   GL134681  23.533   5.799   9.268
 2580POPC   GL234682  23.876   5.875   9.139
 2580POPC   C1A34683  23.469   5.949   8.833
 2580POPC   D2A34684  23.604   5.796   8.426
 2580POPC   C3A34685  23.454   5.941   8.005
 2580POPC   C4A34686  23.628   5.678   7.682
 2580POPC   C1B34687  23.962   6.120   8.761
 2580POPC   C2B34688  23.995   6.124   8.345
 2580POPC   C3B34689  23.957   5.900   8.015
 2580POPC   C4B34690  23.997   6.000   7.589
 2581POPC   NC334691  30.832  44.089   9.588
 2581POPC   PO434692  30.836  44.754   9.518
 2581POPC   GL134693  30.623  44.632   9.156
 2581POPC   GL234694  30.569  44.295   9.201
 2581POPC   C1A34695  30.718  44.603   8.723
 2581POPC   D2A34696  30.817  44.763   8.321
 2581POPC   C3A34697  30.830  44.640   7.897
 2581POPC   C4A34698  30.661  44.884   7.579
 2581POPC   C1B34699  30.402  44.217   8.765
 2581POPC   C2B34700  30.600  44.285   8.340
 2581POPC   C3B34701  30.543  44.176   7.905
 2581POPC   C4B34702  30.348  44.424   7.592
 2582POPC   NC334703   6.462  35.666   9.774
 2582POPC   PO434704   5.857  35.647   9.524
 2582POPC   GL134705   5.887  35.329   9.151
 2582POPC   GL234706   5.701  35.014   9.011
 2582POPC   C1A34707   6.058  35.293   8.727
 2582POPC   D2A34708   6.290  35.454   8.380
 2582POPC   C3A34709   6.041  35.644   8.054
 2582POPC   C4A34710   5.755  35.411   7.814
 2582POPC   C1B34711   5.532  35.331   8.722
 2582POPC   C2B34712   5.669  35.349   8.329
 2582POPC   C3B34713   5.979  35.110   8.153
 2582POPC   C4B34714   5.929  34.932   7.768
 2583POPC   NC334715   3.622  19.650   9.543
 2583POPC   PO434716   3.127  19.927   9.321
 2583POPC   GL134717   3.446  19.804   9.076
 2583POPC   GL234718   3.795  19.874   9.138
 2583POPC   C1A34719   3.621  19.618   8.739
 2583POPC   D2A34720   3.600  19.494   8.369
 2583POPC   C3A34721   3.328  19.763   8.161
 2583POPC   C4A34722   3.391  19.883   7.744
 2583POPC   C1B34723   3.729  20.119   8.766
 2583POPC   C2B34724   3.734  20.002   8.361
 2583POPC   C3B34725   3.833  19.779   7.980
 2583POPC   C4B34726   3.856  20.084   7.653
 2584POPC   NC334727  29.543   1.333   9.293
 2584POPC   PO434728  28.973   1.441   9.627
 2584POPC   GL134729  29.037   1.447   9.200
 2584POPC   GL234730  29.123   1.092   9.102
 2584POPC   C1A34731  29.095   1.560   8.772
 2584POPC   D2A34732  29.340   1.305   8.499
 2584POPC   C3A34733  29.285   1.437   8.109
 2584POPC   C4A34734  29.052   1.377   7.754
 2584POPC   C1B34735  29.394   0.860   8.773
 2584POPC   C2B34736  29.306   0.759   8.328
 2584POPC   C3B34737  29.206   0.937   7.924
 2584POPC   C4B34738  29.183   0.989   7.443
 2585POPC   NC334739  25.443  31.266   9.553
 2585POPC   PO434740  25.116  31.810   9.420
 2585POPC   GL134741  25.145  31.445   9.141
 2585POPC   GL234742  25.445  31.304   9.047
 2585POPC   C1A34743  25.044  31.394   8.714
 2585POPC   D2A34744  25.159  31.138   8.372
 2585POPC   C3A34745  25.153  31.403   8.019
 2585POPC   C4A34746  24.774  31.604   7.890
 2585POPC   C1B34747  25.541  31.656   8.827
 2585POPC   C2B34748  25.426  31.724   8.411
 2585POPC   C3B34749  25.572  31.738   8.000
 2585POPC   C4B34750  25.456  31.599   7.592
 2586POPC   NC334751  14.666  39.429   9.248
 2586POPC   PO434752  14.346  39.001   9.680
 2586POPC   GL134753  14.328  38.989   9.245
 2586POPC   GL234754  14.017  39.109   9.182
 2586POPC   C1A34755  14.396  39.051   8.809
 2586POPC   D2A34756  14.557  39.293   8.461
 2586POPC   C3A34757  14.281  39.463   8.176
 2586POPC   C4A34758  14.414  39.306   7.812
 2586POPC   C1B34759  13.951  39.261   8.758
 2586POPC   C2B34760  14.083  39.043   8.410
 2586POPC   C3B34761  14.092  38.973   8.004
 2586POPC   C4B34762  13.933  39.250   7.680
 2587POPC   NC334763  18.145  10.526   9.582
 2587POPC   PO434764  18.512   9.924   9.636
 2587POPC   GL134765  18.523  10.302   9.249
 2587POPC   GL234766  18.343  10.669   9.152
 2587POPC   C1A34767  18.539  10.401   8.778
 2587POPC   D2A34768  18.531  10.179   8.392
 2587POPC   C3A34769  18.497  10.441   8.057
 2587POPC   C4A34770  18.374  10.324   7.680
 2587POPC   C1B34771  18.021  10.622   8.814
 2587POPC   C2B34772  18.149  10.532   8.409
 2587POPC   C3B34773  17.967  10.419   8.015
 2587POPC   C4B34774  17.826  10.638   7.652
 2588POPC   NC334775  11.714   8.140   9.894
 2588POPC   PO434776  12.226   7.852   9.549
 2588POPC   GL134777  12.110   7.984   9.148
 2588POPC   GL234778  11.822   8.231   9.239
 2588POPC   C1A34779  12.312   7.843   8.758
 2588POPC   D2A34780  12.180   7.829   8.337
 2588POPC   C3A34781  12.337   8.133   8.051
 2588POPC   C4A34782  11.955   8.250   7.842
 2588POPC   C1B34783  12.039   8.493   8.908
 2588POPC   C2B34784  12.223   8.449   8.475
 2588POPC   C3B34785  12.239   8.632   8.060
 2588POPC   C4B34786  11.868   8.753   7.844
 2589POPC   NC334787  35.716  22.284   9.485
 2589POPC   PO434788  36.304  22.487   9.541
 2589POPC   GL134789  36.380  22.209   9.189
 2589POPC   GL234790  36.053  22.282   9.067
 2589POPC   C1A34791  36.563  22.052   8.805
 2589POPC   D2A34792  36.524  22.029   8.360
 2589POPC   C3A34793  36.230  22.030   8.050
 2589POPC   C4A34794  36.211  21.731   7.736
 2589POPC   C1B34795  36.222  22.394   8.663
 2589POPC   C2B34796  35.991  22.432   8.287
 2589POPC   C3B34797  36.041  22.460   7.880
 2589POPC   C4B34798  36.228  22.301   7.502
 2590POPC   NC334799  27.016  21.715   9.429
 2590POPC   PO434800  26.612  22.169   9.565
 2590POPC   GL134801  26.788  22.251   9.183
 2590POPC   GL234802  26.541  22.485   9.027
 2590POPC   C1A34803  26.949  21.974   8.842
 2590POPC   D2A34804  27.112  22.005   8.434
 2590POPC   C3A34805  26.835  22.022   8.085
 2590POPC   C4A34806  27.042  22.073   7.696
 2590POPC   C1B34807  26.933  22.490   8.767
 2590POPC   C2B34808  26.931  22.475   8.334
 2590POPC   C3B34809  26.965  22.515   7.919
 2590POPC   C4B34810  26.635  22.380   7.657
 2591POPC   NC334811  29.944  40.162   9.657
 2591POPC   PO434812  30.241  39.623   9.462
 2591POPC   GL134813  30.086  40.003   9.193
 2591POPC   GL234814  29.754  40.135   9.171
 2591POPC   C1A34815  30.054  39.978   8.743
 2591POPC   D2A34816  29.876  39.669   8.430
 2591POPC   C3A34817  29.867  39.855   7.996
 2591POPC   C4A34818  30.174  40.038   7.713
 2591POPC   C1B34819  29.552  40.033   8.802
 2591POPC   C2B34820  29.559  40.109   8.365
 2591POPC   C3B34821  29.682  40.367   8.007
 2591POPC   C4B34822  29.798  40.406   7.566
 2592POPC   NC334823  15.720  11.129   9.277
 2592POPC   PO434824  15.861  11.731   9.612
 2592POPC   GL134825  16.041  11.508   9.232
 2592POPC   GL234826  16.185  11.206   9.037
 2592POPC   C1A34827  15.790  11.506   8.794
 2592POPC   D2A34828  15.783  11.221   8.453
 2592POPC   C3A34829  15.833  11.443   8.098
 2592POPC   C4A34830  15.956  11.518   7.702
 2592POPC   C1B34831  16.070  10.870   8.707
 2592POPC   C2B34832  15.968  10.729   8.285
 2592POPC   C3B34833  16.012  10.982   7.921
 2592POPC   C4B34834  15.857  11.065   7.508
 2593POPC   NC334835  25.048  23.081   9.607
 2593POPC   PO434836  24.371  22.872   9.652
 2593POPC   GL134837  24.610  22.903   9.271
 2593POPC   GL234838  24.573  23.238   9.141
 2593POPC   C1A34839  24.543  22.735   8.854
 2593POPC   D2A34840  24.412  22.917   8.439
 2593POPC   C3A34841  24.549  22.654   8.113
 2593POPC   C4A34842  24.765  22.721   7.692
 2593POPC   C1B34843  24.753  23.171   8.749
 2593POPC   C2B34844  24.850  23.245   8.383
 2593POPC   C3B34845  24.668  23.147   8.008
 2593POPC   C4B34846  24.508  23.269   7.626
 2594POPC   NC334847  20.518   2.281   9.570
 2594POPC   PO434848  20.226   1.661   9.566
 2594POPC   GL134849  20.477   1.827   9.201
 2594POPC   GL234850  20.666   2.117   9.120
 2594POPC   C1A34851  20.716   1.656   8.842
 2594POPC   D2A34852  20.808   1.764   8.410
 2594POPC   C3A34853  20.508   1.887   8.107
 2594POPC   C4A34854  20.655   1.872   7.699
 2594POPC   C1B34855  20.501   2.129   8.710
 2594POPC   C2B34856  20.682   2.325   8.360
 2594POPC   C3B34857  20.684   2.362   7.930
 2594POPC   C4B34858  20.337   2.265   7.665
 2595POPC   NC334859   4.438  41.375   9.467
 2595POPC   PO434860   4.492  42.115   9.586
 2595POPC   GL134861   4.468  42.015   9.130
 2595POPC   GL234862   4.273  41.692   9.102
 2595POPC   C1A34863   4.561  41.823   8.720
 2595POPC   D2A34864   4.307  41.723   8.378
 2595POPC   C3A34865   4.557  41.642   8.037
 2595POPC   C4A34866   4.435  41.710   7.614
 2595POPC   C1B34867   4.290  41.381   8.772
 2595POPC   C2B34868   4.388  41.221   8.388
 2595POPC   C3B34869   4.174  41.318   8.023
 2595POPC   C4B34870   4.419  41.218   7.679
 2596POPC   NC334871  33.229  39.608   9.499
 2596POPC   PO434872  33.445  38.922   9.436
 2596POPC   GL134873  33.220  39.192   9.174
 2596POPC   GL234874  32.906  39.288   9.217
 2596POPC   C1A34875  33.127  39.185   8.755
 2596POPC   D2A34876  33.284  39.235   8.347
 2596POPC   C3A34877  33.052  39.101   7.991
 2596POPC   C4A34878  33.264  39.228   7.627
 2596POPC   C1B34879  32.703  39.496   8.851
 2596POPC   C2B34880  32.789  39.391   8.405
 2596POPC   C3B34881  32.645  39.503   8.015
 2596POPC   C4B34882  32.794  39.772   7.728
 2597POPC   NC334883  23.720  43.439   9.777
 2597POPC   PO434884  23.645  44.152   9.607
 2597POPC   GL134885  23.841  44.092   9.212
 2597POPC   GL234886  23.552  43.988   9.081
 2597POPC   C1A34887  24.002  43.874   8.821
 2597POPC   D2A34888  23.924  43.926   8.399
 2597POPC   C3A34889  23.989  43.648   8.077
 2597POPC   C4A34890  23.765  43.726   7.730
 2597POPC   C1B34891  23.467  43.932   8.657
 2597POPC   C2B34892  23.420  43.849   8.210
 2597POPC   C3B34893  23.277  43.883   7.765
 2597POPC   C4B34894  23.310  43.797   7.331
 2598POPC   NC334895  43.166  37.137   9.547
 2598POPC   PO434896  42.804  36.595   9.764
 2598POPC   GL134897  42.899  36.755   9.304
 2598POPC   GL234898  43.225  36.801   9.109
 2598POPC   C1A34899  42.790  36.858   8.859
 2598POPC   D2A34900  42.954  36.736   8.464
 2598POPC   C3A34901  42.863  36.936   8.102
 2598POPC   C4A34902  42.781  36.813   7.699
 2598POPC   C1B34903  43.234  37.074   8.708
 2598POPC   C2B34904  43.125  37.314   8.342
 2598POPC   C3B34905  43.256  37.455   7.970
 2598POPC   C4B34906  43.232  37.080   7.804
 2599POPC   NC334907  42.325  22.743   9.510
 2599POPC   PO434908  42.968  22.943   9.542
 2599POPC   GL134909  42.645  22.991   9.163
 2599POPC   GL234910  42.267  23.092   9.136
 2599POPC   C1A34911  42.543  22.888   8.728
 2599POPC   D2A34912  42.729  22.868   8.320
 2599POPC   C3A34913  42.470  22.892   7.991
 2599POPC   C4A34914  42.492  23.074   7.577
 2599POPC   C1B34915  42.038  22.913   8.770
 2599POPC   C2B34916  42.156  23.061   8.363
 2599POPC   C3B34917  41.970  22.900   7.988
 2599POPC   C4B34918  42.078  22.772   7.581
 2600POPC   NC334919  16.835  21.763   9.457
 2600POPC   PO434920  16.564  21.070   9.528
 2600POPC   GL134921  16.757  21.305   9.226
 2600POPC   GL234922  16.441  21.514   9.192
 2600POPC   C1A34923  16.899  21.420   8.804
 2600POPC   D2A34924  16.971  21.579   8.384
 2600POPC   C3A34925  16.839  21.379   8.022
 2600POPC   C4A34926  16.847  21.678   7.733
 2600POPC   C1B34927  16.421  21.218   8.847
 2600POPC   C2B34928  16.514  21.284   8.428
 2600POPC   C3B34929  16.356  21.565   8.129
 2600POPC   C4B34930  16.403  21.369   7.769
 2601POPC   NC334931  22.651   3.515   9.902
 2601POPC   PO434932  23.188   3.211   9.525
 2601POPC   GL134933  23.092   3.340   9.126
 2601POPC   GL234934  22.984   3.688   9.107
 2601POPC   C1A34935  23.154   3.387   8.694
 2601POPC   D2A34936  23.237   3.290   8.265
 2601POPC   C3A34937  22.982   3.486   7.978
 2601POPC   C4A34938  22.894   3.212   7.710
 2601POPC   C1B34939  23.195   3.927   8.801
 2601POPC   C2B34940  23.179   3.794   8.383
 2601POPC   C3B34941  23.363   3.799   8.019
 2601POPC   C4B34942  23.183   3.782   7.602
 2602POPC   NC334943  17.878  37.736   9.556
 2602POPC   PO434944  17.131  37.500   9.560
 2602POPC   GL134945  17.443  37.589   9.251
 2602POPC   GL234946  17.495  37.924   9.250
 2602POPC   C1A34947  17.494  37.604   8.800
 2602POPC   D2A34948  17.541  37.427   8.406
 2602POPC   C3A34949  17.345  37.382   8.036
 2602POPC   C4A34950  17.646  37.515   7.735
 2602POPC   C1B34951  17.472  38.096   8.854
 2602POPC   C2B34952  17.441  38.105   8.442
 2602POPC   C3B34953  17.492  37.878   8.097
 2602POPC   C4B34954  17.528  38.047   7.715
 2603POPC   NC334955  37.677  18.078   9.509
 2603POPC   PO434956  37.379  18.628   9.581
 2603POPC   GL134957  37.598  18.477   9.192
 2603POPC   GL234958  37.451  18.131   9.072
 2603POPC   C1A34959  37.925  18.317   8.923
 2603POPC   D2A34960  38.014  18.218   8.487
 2603POPC   C3A34961  37.737  18.268   8.144
 2603POPC   C4A34962  37.907  18.352   7.729
 2603POPC   C1B34963  37.492  18.271   8.658
 2603POPC   C2B34964  37.172  18.167   8.376
 2603POPC   C3B34965  37.161  18.059   7.975
 2603POPC   C4B34966  37.531  17.983   7.757
 2604POPC   NC334967  19.799  24.770   9.295
 2604POPC   PO434968  19.794  24.177   9.466
 2604POPC   GL134969  19.586  24.351   9.073
 2604POPC   GL234970  19.352  24.659   9.026
 2604POPC   C1A34971  19.869  24.478   8.723
 2604POPC   D2A34972  20.094  24.201   8.491
 2604POPC   C3A34973  19.863  24.216   8.150
 2604POPC   C4A34974  19.741  24.308   7.763
 2604POPC   C1B34975  19.581  24.917   8.726
 2604POPC   C2B34976  19.820  24.910   8.374
 2604POPC   C3B34977  19.895  24.734   7.986
 2604POPC   C4B34978  19.665  24.780   7.598
 2605POPC   NC334979  30.066  41.823   9.567
 2605POPC   PO434980  29.714  41.234   9.382
 2605POPC   GL134981  29.768  41.426   8.992
 2605POPC   GL234982  30.032  41.606   9.118
 2605POPC   C1A34983  30.012  41.380   8.611
 2605POPC   D2A34984  29.981  41.289   8.164
 2605POPC   C3A34985  29.629  41.496   7.993
 2605POPC   C4A34986  29.546  41.595   7.560
 2605POPC   C1B34987  30.077  41.864   8.805
 2605POPC   C2B34988  29.933  41.877   8.406
 2605POPC   C3B34989  30.021  41.831   8.011
 2605POPC   C4B34990  30.211  42.121   7.746
 2606POPC   NC334991  15.385  24.406   9.640
 2606POPC   PO434992  14.954  24.913   9.454
 2606POPC   GL134993  15.235  24.645   9.204
 2606POPC   GL234994  15.159  24.256   9.181
 2606POPC   C1A34995  15.258  24.601   8.769
 2606POPC   D2A34996  14.990  24.686   8.431
 2606POPC   C3A34997  15.217  24.616   8.055
 2606POPC   C4A34998  15.360  24.609   7.619
 2606POPC   C1B34999  15.021  24.098   8.751
 2606POPC   C2B35000  14.997  24.141   8.287
 2606POPC   C3B35001  15.084  24.171   7.815
 2606POPC   C4B35002  15.004  24.291   7.339
 2607POPC   NC335003  43.001  26.480   9.587
 2607POPC   PO435004  43.486  26.923   9.589
 2607POPC   GL135005  43.160  26.883   9.316
 2607POPC   GL235006  43.317  26.603   9.172
 2607POPC   C1A35007  42.998  26.923   8.891
 2607POPC   D2A35008  43.228  26.812   8.522
 2607POPC   C3A35009  43.091  26.783   8.104
 2607POPC   C4A35010  43.039  27.035   7.747
 2607POPC   C1B35011  43.469  26.434   8.771
 2607POPC   C2B35012  43.345  26.339   8.343
 2607POPC   C3B35013  43.450  26.492   7.901
 2607POPC   C4B35014  43.451  26.753   7.545
 2608POPC   NC335015   8.576   2.039   9.432
 2608POPC   PO435016   9.275   2.176   9.488
 2608POPC   GL135017   9.021   2.029   9.151
 2608POPC   GL235018   9.005   1.734   9.009
 2608POPC   C1A35019   9.098   2.164   8.757
 2608POPC   D2A35020   9.212   2.030   8.372
 2608POPC   C3A35021   9.046   2.235   8.035
 2608POPC   C4A35022   9.108   2.159   7.627
 2608POPC   C1B35023   8.635   1.872   8.797
 2608POPC   C2B35024   8.672   2.124   8.465
 2608POPC   C3B35025   8.639   1.953   8.099
 2608POPC   C4B35026   8.838   1.761   7.830
 2609POPC   NC335027  34.196  14.122   9.535
 2609POPC   PO435028  33.500  14.309   9.547
 2609POPC   GL135029  33.617  14.450   9.168
 2609POPC   GL235030  33.944  14.360   9.163
 2609POPC   C1A35031  33.728  14.326   8.718
 2609POPC   D2A35032  33.892  14.600   8.416
 2609POPC   C3A35033  33.605  14.594   8.078
 2609POPC   C4A35034  33.556  14.266   7.792
 2609POPC   C1B35035  34.213  14.182   8.836
 2609POPC   C2B35036  34.142  14.019   8.423
 2609POPC   C3B35037  34.026  14.259   8.067
 2609POPC   C4B35038  34.012  14.464   7.670
 2610POPC   NC335039  17.776  16.935   9.494
 2610POPC   PO435040  17.154  17.087   9.569
 2610POPC   GL135041  17.386  16.847   9.170
 2610POPC   GL235042  17.699  16.581   9.134
 2610POPC   C1A35043  17.377  16.624   8.747
 2610POPC   D2A35044  17.543  16.706   8.351
 2610POPC   C3A35045  17.279  16.840   8.008
 2610POPC   C4A35046  17.419  17.076   7.673
 2610POPC   C1B35047  17.813  16.904   8.789
 2610POPC   C2B35048  17.992  17.043   8.374
 2610POPC   C3B35049  17.862  16.837   7.989
 2610POPC   C4B35050  17.607  16.495   7.831
 2611POPC   NC335051  19.777  43.431   9.377
 2611POPC   PO435052  19.567  44.032   9.584
 2611POPC   GL135053  19.936  43.945   9.305
 2611POPC   GL235054  19.678  43.832   9.068
 2611POPC   C1A35055  20.140  43.938   8.889
 2611POPC   D2A35056  19.885  43.955   8.497
 2611POPC   C3A35057  20.052  43.896   8.077
 2611POPC   C4A35058  20.170  43.921   7.634
 2611POPC   C1B35059  19.580  43.573   8.725
 2611POPC   C2B35060  19.682  43.546   8.287
 2611POPC   C3B35061  19.503  43.664   7.931
 2611POPC   C4B35062  19.267  43.613   7.583
 2612POPC   NC335063  17.235  37.007   9.472
 2612POPC   PO435064  17.938  37.208   9.492
 2612POPC   GL135065  17.656  37.125   9.194
 2612POPC   GL235066  17.684  36.801   9.107
 2612POPC   C1A35067  17.432  37.098   8.800
 2612POPC   D2A35068  17.628  36.933   8.448
 2612POPC   C3A35069  17.376  36.840   8.106
 2612POPC   C4A35070  17.504  37.006   7.737
 2612POPC   C1B35071  17.877  36.616   8.780
 2612POPC   C2B35072  17.801  36.462   8.408
 2612POPC   C3B35073  17.846  36.662   8.052
 2612POPC   C4B35074  17.666  36.530   7.710
 2613POPC   NC335075   3.197  26.886   9.777
 2613POPC   PO435076   3.285  26.455   9.288
 2613POPC   GL135077   3.422  26.864   9.158
 2613POPC   GL235078   3.741  26.826   9.045
 2613POPC   C1A35079   3.365  27.021   8.722
 2613POPC   D2A35080   3.309  26.781   8.312
 2613POPC   C3A35081   3.360  27.031   7.947
 2613POPC   C4A35082   3.662  27.243   7.685
 2613POPC   C1B35083   3.578  26.536   8.703
 2613POPC   C2B35084   3.705  26.439   8.266
 2613POPC   C3B35085   3.838  26.761   7.958
 2613POPC   C4B35086   3.849  26.706   7.518
 2614POPC   NC335087   9.221   8.213   9.445
 2614POPC   PO435088   9.819   7.967   9.455
 2614POPC   GL135089   9.843   8.159   9.098
 2614POPC   GL235090   9.553   8.393   9.104
 2614POPC   C1A35091  10.067   8.094   8.733
 2614POPC   D2A35092   9.928   8.211   8.331
 2614POPC   C3A35093  10.117   8.033   7.991
 2614POPC   C4A35094  10.032   8.071   7.557
 2614POPC   C1B35095   9.532   8.173   8.703
 2614POPC   C2B35096   9.468   7.943   8.323
 2614POPC   C3B35097   9.610   8.013   7.900
 2614POPC   C4B35098   9.562   8.325   7.598
 2615POPC   NC335099  29.063  27.958   9.533
 2615POPC   PO435100  29.582  28.410   9.536
 2615POPC   GL135101  29.236  28.323   9.225
 2615POPC   GL235102  29.114  28.591   9.008
 2615POPC   C1A35103  29.039  28.090   8.887
 2615POPC   D2A35104  29.092  28.173   8.473
 2615POPC   C3A35105  28.797  28.224   8.165
 2615POPC   C4A35106  28.993  28.191   7.769
 2615POPC   C1B35107  29.445  28.477   8.685
 2615POPC   C2B35108  29.400  28.516   8.188
 2615POPC   C3B35109  29.191  28.673   7.754
 2615POPC   C4B35110  29.252  29.064   7.485
 2616POPC   NC335111  16.537  27.067   9.373
 2616POPC   PO435112  16.063  26.925   9.810
 2616POPC   GL135113  16.058  26.773   9.365
 2616POPC   GL235114  16.069  27.102   9.205
 2616POPC   C1A35115  15.888  26.747   8.911
 2616POPC   D2A35116  15.989  26.707   8.460
 2616POPC   C3A35117  15.808  26.922   8.112
 2616POPC   C4A35118  15.595  26.920   7.724
 2616POPC   C1B35119  16.276  27.106   8.767
 2616POPC   C2B35120  16.196  27.210   8.340
 2616POPC   C3B35121  16.335  27.199   7.914
 2616POPC   C4B35122  16.382  27.027   7.507
 2617POPC   NC335123  18.876   2.465   9.570
 2617POPC   PO435124  18.172   2.777   9.547
 2617POPC   GL135125  18.341   2.625   9.182
 2617POPC   GL235126  18.575   2.841   9.130
 2617POPC   C1A35127  18.223   2.628   8.763
 2617POPC   D2A35128  18.076   2.881   8.439
 2617POPC   C3A35129  18.172   2.736   8.038
 2617POPC   C4A35130  18.298   2.373   7.798
 2617POPC   C1B35131  18.469   3.103   8.807
 2617POPC   C2B35132  18.557   3.305   8.427
 2617POPC   C3B35133  18.630   3.174   8.016
 2617POPC   C4B35134  18.438   2.987   7.679
 2618POPC   NC335135   9.602  20.784   9.629
 2618POPC   PO435136  10.199  20.436   9.555
 2618POPC   GL135137   9.924  20.686   9.242
 2618POPC   GL235138   9.577  20.742   9.139
 2618POPC   C1A35139   9.946  20.749   8.774
 2618POPC   D2A35140   9.833  20.957   8.360
 2618POPC   C3A35141   9.836  20.723   7.941
 2618POPC   C4A35142   9.810  20.328   7.687
 2618POPC   C1B35143   9.469  21.003   8.810
 2618POPC   C2B35144   9.270  20.973   8.436
 2618POPC   C3B35145   9.421  21.019   8.041
 2618POPC   C4B35146   9.374  20.787   7.699
 2619POPC   NC335147   4.779  43.373   9.661
 2619POPC   PO435148   4.278  43.004   9.536
 2619POPC   GL135149   4.449  43.245   9.162
 2619POPC   GL235150   4.724  43.492   9.167
 2619POPC   C1A35151   4.204  43.141   8.796
 2619POPC   D2A35152   4.096  42.875   8.436
 2619POPC   C3A35153   4.248  42.963   8.033
 2619POPC   C4A35154   4.498  42.946   7.670
 2619POPC   C1B35155   4.758  43.247   8.768
 2619POPC   C2B35156   4.546  43.209   8.372
 2619POPC   C3B35157   4.778  43.227   7.973
 2619POPC   C4B35158   4.728  43.377   7.494
 2620POPC   NC335159  36.896  24.250   9.584
 2620POPC   PO435160  37.085  24.830   9.539
 2620POPC   GL135161  36.942  24.567   9.205
 2620POPC   GL235162  36.641  24.653   9.032
 2620POPC   C1A35163  37.142  24.308   8.939
 2620POPC   D2A35164  37.177  24.252   8.520
 2620POPC   C3A35165  37.242  24.416   8.122
 2620POPC   C4A35166  37.273  24.158   7.768
 2620POPC   C1B35167  36.687  24.415   8.671
 2620POPC   C2B35168  36.749  24.322   8.252
 2620POPC   C3B35169  36.722  24.493   7.860
 2620POPC   C4B35170  36.606  24.899   7.719
 2621POPC   NC335171  12.705   6.280   9.520
 2621POPC   PO435172  12.708   6.979   9.485
 2621POPC   GL135173  12.971   6.683   9.249
 2621POPC   GL235174  12.737   6.484   9.067
 2621POPC   C1A35175  13.184   6.586   8.850
 2621POPC   D2A35176  13.030   6.591   8.420
 2621POPC   C3A35177  13.244   6.469   8.074
 2621POPC   C4A35178  13.231   6.724   7.691
 2621POPC   C1B35179  12.592   6.600   8.672
 2621POPC   C2B35180  12.551   6.493   8.270
 2621POPC   C3B35181  12.770   6.576   7.894
 2621POPC   C4B35182  12.663   6.386   7.498
 2622POPC   NC335183  11.019  12.597   9.481
 2622POPC   PO435184  10.380  12.833   9.710
 2622POPC   GL135185  10.545  12.671   9.299
 2622POPC   GL235186  10.513  12.949   9.049
 2622POPC   C1A35187  10.565  12.463   8.886
 2622POPC   D2A35188  10.456  12.732   8.521
 2622POPC   C3A35189  10.257  12.582   8.132
 2622POPC   C4A35190  10.221  12.768   7.737
 2622POPC   C1B35191  10.398  13.222   8.729
 2622POPC   C2B35192  10.625  13.191   8.346
 2622POPC   C3B35193  10.671  12.934   8.012
 2622POPC   C4B35194  10.534  13.172   7.669
 2623POPC   NC335195  15.986   5.495   9.719
 2623POPC   PO435196  16.413   5.381   9.229
 2623POPC   GL135197  16.202   5.679   9.050
 2623POPC   GL235198  15.948   5.730   9.255
 2623POPC   C1A35199  16.035   5.679   8.647
 2623POPC   D2A35200  16.307   5.559   8.366
 2623POPC   C3A35201  16.303   5.826   8.068
 2623POPC   C4A35202  16.102   5.625   7.760
 2623POPC   C1B35203  15.630   5.769   8.946
 2623POPC   C2B35204  15.620   6.011   8.561
 2623POPC   C3B35205  15.794   5.842   8.187
 2623POPC   C4B35206  15.620   5.772   7.798
 2624POPC   NC335207  25.344  14.964   9.497
 2624POPC   PO435208  25.436  15.694   9.338
 2624POPC   GL135209  25.300  15.315   9.124
 2624POPC   GL235210  25.531  15.005   9.018
 2624POPC   C1A35211  25.134  15.194   8.769
 2624POPC   D2A35212  25.046  15.438   8.429
 2624POPC   C3A35213  24.838  15.200   8.181
 2624POPC   C4A35214  25.037  15.152   7.829
 2624POPC   C1B35215  25.616  15.226   8.614
 2624POPC   C2B35216  25.418  15.176   8.187
 2624POPC   C3B35217  25.516  14.992   7.763
 2624POPC   C4B35218  25.579  15.091   7.324
 2625POPC   NC335219  35.454  14.945   9.411
 2625POPC   PO435220  35.304  14.348   9.554
 2625POPC   GL135221  35.089  14.271   9.184
 2625POPC   GL235222  35.091  14.616   9.125
 2625POPC   C1A35223  35.299  14.218   8.766
 2625POPC   D2A35224  35.713  14.299   8.516
 2625POPC   C3A35225  35.706  14.462   8.084
 2625POPC   C4A35226  35.377  14.360   7.816
 2625POPC   C1B35227  35.108  14.686   8.704
 2625POPC   C2B35228  35.068  14.793   8.296
 2625POPC   C3B35229  34.893  14.558   7.974
 2625POPC   C4B35230  34.923  14.157   7.812
 2626POPC   NC335231   4.722  32.613   9.415
 2626POPC   PO435232   4.233  33.023   9.452
 2626POPC   GL135233   4.406  33.028   9.068
 2626POPC   GL235234   4.378  33.352   8.944
 2626POPC   C1A35235   4.486  32.797   8.708
 2626POPC   D2A35236   4.274  32.819   8.339
 2626POPC   C3A35237   4.455  32.806   7.956
 2626POPC   C4A35238   4.586  33.077   7.634
 2626POPC   C1B35239   4.425  33.323   8.512
 2626POPC   C2B35240   4.418  33.356   8.063
 2626POPC   C3B35241   4.547  33.569   7.683
 2626POPC   C4B35242   4.774  33.443   7.261
 2627POPC   NC335243  23.307   6.867   9.399
 2627POPC   PO435244  23.818   6.326   9.396
 2627POPC   GL135245  23.973   6.599   9.081
 2627POPC   GL235246  23.813   6.932   9.109
 2627POPC   C1A35247  23.831   6.615   8.639
 2627POPC   D2A35248  23.558   6.385   8.317
 2627POPC   C3A35249  23.757   6.359   7.896
 2627POPC   C4A35250  23.821   6.481   7.461
 2627POPC   C1B35251  23.483   6.974   8.786
 2627POPC   C2B35252  23.422   7.022   8.358
 2627POPC   C3B35253  23.449   6.784   7.997
 2627POPC   C4B35254  23.685   6.923   7.666
 2628POPC   NC335255  44.959  14.486   9.512
 2628POPC   PO435256  44.303  14.599   9.585
 2628POPC   GL135257  44.569  14.616   9.187
 2628POPC   GL235258  44.602  14.317   9.102
 2628POPC   C1A35259  44.474  14.631   8.688
 2628POPC   D2A35260  44.444  14.665   8.213
 2628POPC   C3A35261  44.790  14.823   7.967
 2628POPC   C4A35262  44.858  14.622   7.584
 2628POPC   C1B35263  44.778  14.215   8.710
 2628POPC   C2B35264  44.582  14.213   8.356
 2628POPC   C3B35265  44.761  14.235   7.956
 2628POPC   C4B35266  44.749  13.799   7.851
 2629POPC   NC335267  17.278  17.541   9.593
 2629POPC   PO435268  17.923  17.544   9.704
 2629POPC   GL135269  17.721  17.502   9.244
 2629POPC   GL235270  17.392  17.525   9.101
 2629POPC   C1A35271  17.801  17.640   8.802
 2629POPC   D2A35272  17.814  17.525   8.376
 2629POPC   C3A35273  17.571  17.253   8.140
 2629POPC   C4A35274  17.650  17.505   7.779
 2629POPC   C1B35275  17.432  17.342   8.669
 2629POPC   C2B35276  17.295  17.641   8.315
 2629POPC   C3B35277  17.179  17.713   7.875
 2629POPC   C4B35278  17.251  17.554   7.444
 2630POPC   NC335279   4.376  12.972   9.537
 2630POPC   PO435280   3.787  12.759   9.734
 2630POPC   GL135281   3.976  12.880   9.241
 2630POPC   GL235282   4.211  13.106   9.083
 2630POPC   C1A35283   4.214  12.702   8.816
 2630POPC   D2A35284   4.372  12.912   8.449
 2630POPC   C3A35285   4.306  12.821   8.040
 2630POPC   C4A35286   4.251  12.737   7.596
 2630POPC   C1B35287   4.028  13.188   8.697
 2630POPC   C2B35288   4.041  13.296   8.260
 2630POPC   C3B35289   3.918  13.094   7.875
 2630POPC   C4B35290   3.982  13.199   7.416
 2631POPC   NC335291  42.312   6.948   9.459
 2631POPC   PO435292  42.477   6.231   9.532
 2631POPC   GL135293  42.405   6.470   9.163
 2631POPC   GL235294  42.654   6.760   9.139
 2631POPC   C1A35295  42.084   6.430   8.823
 2631POPC   D2A35296  41.833   6.586   8.478
 2631POPC   C3A35297  42.079   6.657   8.099
 2631POPC   C4A35298  42.443   6.510   7.832
 2631POPC   C1B35299  42.355   6.860   8.788
 2631POPC   C2B35300  42.491   6.839   8.359
 2631POPC   C3B35301  42.410   7.016   7.963
 2631POPC   C4B35302  42.560   6.940   7.561
 2632POPC   NC335303  43.282  12.420   9.596
 2632POPC   PO435304  43.307  11.784   9.590
 2632POPC   GL135305  43.167  11.983   9.189
 2632POPC   GL235306  43.316  12.309   9.112
 2632POPC   C1A35307  43.132  11.921   8.728
 2632POPC   D2A35308  43.257  11.755   8.321
 2632POPC   C3A35309  42.896  11.803   8.076
 2632POPC   C4A35310  42.885  11.821   7.655
 2632POPC   C1B35311  43.222  12.421   8.722
 2632POPC   C2B35312  43.275  12.256   8.304
 2632POPC   C3B35313  43.265  12.084   7.874
 2632POPC   C4B35314  43.082  12.262   7.499
 2633POPC   NC335315   1.238   7.795   9.475
 2633POPC   PO435316   1.067   8.444   9.442
 2633POPC   GL135317   1.242   8.447   9.085
 2633POPC   GL235318   1.458   8.175   9.178
 2633POPC   C1A35319   0.977   8.350   8.753
 2633POPC   D2A35320   0.963   8.151   8.387
 2633POPC   C3A35321   1.137   8.388   8.087
 2633POPC   C4A35322   1.173   8.280   7.686
 2633POPC   C1B35323   1.320   7.977   8.794
 2633POPC   C2B35324   1.456   8.054   8.368
 2633POPC   C3B35325   1.343   7.902   7.974
 2633POPC   C4B35326   1.626   7.656   7.742
 2634POPC   NC335327  13.117  39.989   9.575
 2634POPC   PO435328  12.516  39.705   9.571
 2634POPC   GL135329  12.723  39.904   9.238
 2634POPC   GL235330  12.530  39.729   9.035
 2634POPC   C1A35331  12.933  40.092   8.871
 2634POPC   D2A35332  13.113  39.871   8.491
 2634POPC   C3A35333  13.018  40.122   8.121
 2634POPC   C4A35334  13.014  40.479   7.846
 2634POPC   C1B35335  12.619  39.770   8.622
 2634POPC   C2B35336  12.545  39.989   8.262
 2634POPC   C3B35337  12.602  39.817   7.888
 2634POPC   C4B35338  12.385  39.929   7.538
 2635POPC   NC335339  15.487  20.508   9.548
 2635POPC   PO435340  14.886  20.622   9.472
 2635POPC   GL135341  15.200  20.760   9.164
 2635POPC   GL235342  15.441  21.017   9.076
 2635POPC   C1A35343  15.148  20.765   8.729
 2635POPC   D2A35344  15.289  20.518   8.390
 2635POPC   C3A35345  15.180  20.721   8.018
 2635POPC   C4A35346  15.223  20.625   7.571
 2635POPC   C1B35347  15.659  20.785   8.711
 2635POPC   C2B35348  15.733  20.778   8.275
 2635POPC   C3B35349  15.650  20.720   7.842
 2635POPC   C4B35350  15.774  20.533   7.448
 2636POPC   NC335351  38.289  35.356   9.415
 2636POPC   PO435352  38.926  35.622   9.476
 2636POPC   GL135353  38.633  35.613   9.092
 2636POPC   GL235354  38.263  35.598   8.973
 2636POPC   C1A35355  38.625  35.492   8.652
 2636POPC   D2A35356  38.587  35.315   8.277
 2636POPC   C3A35357  38.472  35.598   7.971
 2636POPC   C4A35358  38.539  35.502   7.594
 2636POPC   C1B35359  38.188  35.167   8.743
 2636POPC   C2B35360  38.210  34.987   8.290
 2636POPC   C3B35361  38.373  35.092   7.858
 2636POPC   C4B35362  38.287  35.107   7.409
 2637POPC   NC335363  28.163  37.518  10.044
 2637POPC   PO435364  28.119  37.974   9.448
 2637POPC   GL135365  28.353  37.719   9.152
 2637POPC   GL235366  28.144  37.517   9.066
 2637POPC   C1A35367  28.647  37.802   8.781
 2637POPC   D2A35368  28.542  37.640   8.386
 2637POPC   C3A35369  28.617  37.871   8.029
 2637POPC   C4A35370  28.245  37.947   7.815
 2637POPC   C1B35371  28.025  37.298   8.742
 2637POPC   C2B35372  28.007  37.561   8.400
 2637POPC   C3B35373  28.136  37.488   7.999
 2637POPC   C4B35374  28.152  37.222   7.619
 2638POPC   NC335375  13.882  24.514   9.363
 2638POPC   PO435376  13.268  24.325   9.577
 2638POPC   GL135377  13.340  24.393   9.071
 2638POPC   GL235378  13.739  24.392   8.900
 2638POPC   C1A35379  13.368  24.446   8.593
 2638POPC   D2A35380  13.780  24.407   8.368
 2638POPC   C3A35381  13.683  24.349   7.951
 2638POPC   C4A35382  13.445  24.650   7.747
 2638POPC   C1B35383  13.868  24.011   8.676
 2638POPC   C2B35384  14.032  23.941   8.254
 2638POPC   C3B35385  14.119  24.117   7.834
 2638POPC   C4B35386  13.795  24.172   7.475
 2639POPC   NC335387  19.708   4.128   9.473
 2639POPC   PO435388  20.368   4.263   9.378
 2639POPC   GL135389  20.083   4.015   9.131
 2639POPC   GL235390  19.870   4.280   9.026
 2639POPC   C1A35391  19.876   3.845   8.754
 2639POPC   D2A35392  19.904   4.126   8.413
 2639POPC   C3A35393  19.697   4.041   8.021
 2639POPC   C4A35394  19.787   4.212   7.611
 2639POPC   C1B35395  20.164   4.449   8.751
 2639POPC   C2B35396  20.066   4.690   8.401
 2639POPC   C3B35397  19.979   4.498   8.017
 2639POPC   C4B35398  19.884   4.705   7.628
 2640POPC   NC335399  26.436   8.723   9.496
 2640POPC   PO435400  26.161   9.348   9.472
 2640POPC   GL135401  25.869   9.197   9.176
 2640POPC   GL235402  25.938   8.838   9.205
 2640POPC   C1A35403  25.662   9.004   8.800
 2640POPC   D2A35404  25.741   8.879   8.374
 2640POPC   C3A35405  25.890   9.070   8.011
 2640POPC   C4A35406  25.846   8.748   7.694
 2640POPC   C1B35407  26.212   8.975   8.845
 2640POPC   C2B35408  26.436   8.889   8.437
 2640POPC   C3B35409  26.333   8.821   8.022
 2640POPC   C4B35410  26.322   8.880   7.593
 2641POPC   NC335411   1.024  33.486   9.471
 2641POPC   PO435412   0.479  33.793   9.486
 2641POPC   GL135413   0.614  33.883   9.111
 2641POPC   GL235414   0.762  33.582   9.056
 2641POPC   C1A35415   0.524  33.858   8.681
 2641POPC   D2A35416   0.148  33.737   8.478
 2641POPC   C3A35417   0.099  33.828   8.046
 2641POPC   C4A35418   0.305  33.978   7.660
 2641POPC   C1B35419   0.753  33.343   8.694
 2641POPC   C2B35420   0.708  33.523   8.294
 2641POPC   C3B35421   0.647  33.699   7.894
 2641POPC   C4B35422   0.603  33.601   7.449
 2642POPC   NC335423   5.504  30.642   9.937
 2642POPC   PO435424   5.021  30.918   9.597
 2642POPC   GL135425   5.064  30.679   9.240
 2642POPC   GL235426   5.365  30.592   9.223
 2642POPC   C1A35427   5.025  30.779   8.835
 2642POPC   D2A35428   4.825  30.811   8.462
 2642POPC   C3A35429   4.967  30.753   8.084
 2642POPC   C4A35430   4.823  30.754   7.682
 2642POPC   C1B35431   5.518  30.682   8.837
 2642POPC   C2B35432   5.351  30.701   8.449
 2642POPC   C3B35433   5.406  30.520   8.074
 2642POPC   C4B35434   5.330  30.671   7.711
 2643POPC   NC335435  19.093  38.837   9.757
 2643POPC   PO435436  19.064  39.502   9.686
 2643POPC   GL135437  19.058  39.365   9.250
 2643POPC   GL235438  19.356  39.188   9.293
 2643POPC   C1A35439  19.035  39.151   8.803
 2643POPC   D2A35440  18.905  38.850   8.429
 2643POPC   C3A35441  18.730  39.015   8.009
 2643POPC   C4A35442  18.814  39.388   7.774
 2643POPC   C1B35443  19.549  39.124   8.886
 2643POPC   C2B35444  19.489  39.274   8.480
 2643POPC   C3B35445  19.222  39.184   8.138
 2643POPC   C4B35446  19.314  39.340   7.758
 2644POPC   NC335447   9.280  18.494   9.477
 2644POPC   PO435448   9.804  18.176   9.349
 2644POPC   GL135449   9.548  18.365   9.078
 2644POPC   GL235450   9.269  18.131   9.114
 2644POPC   C1A35451   9.680  18.526   8.701
 2644POPC   D2A35452   9.955  18.548   8.331
 2644POPC   C3A35453   9.773  18.347   7.949
 2644POPC   C4A35454   9.894  18.198   7.510
 2644POPC   C1B35455   9.412  18.027   8.747
 2644POPC   C2B35456   9.608  18.115   8.394
 2644POPC   C3B35457   9.380  18.004   8.078
 2644POPC   C4B35458   9.365  18.179   7.703
 2645POPC   NC335459   8.271   7.098   9.700
 2645POPC   PO435460   8.095   7.718   9.606
 2645POPC   GL135461   8.179   7.519   9.185
 2645POPC   GL235462   7.999   7.217   9.132
 2645POPC   C1A35463   8.336   7.570   8.741
 2645POPC   D2A35464   8.108   7.706   8.355
 2645POPC   C3A35465   8.197   7.519   7.956
 2645POPC   C4A35466   8.523   7.440   7.652
 2645POPC   C1B35467   8.252   7.087   8.712
 2645POPC   C2B35468   8.343   6.847   8.384
 2645POPC   C3B35469   8.378   7.028   7.975
 2645POPC   C4B35470   8.128   7.114   7.611
 2646POPC   NC335471   7.938  40.336   9.488
 2646POPC   PO435472   8.232  39.721   9.447
 2646POPC   GL135473   8.182  40.020   9.138
 2646POPC   GL235474   8.357  40.338   9.168
 2646POPC   C1A35475   8.306  39.963   8.736
 2646POPC   D2A35476   8.437  39.668   8.449
 2646POPC   C3A35477   8.303  39.881   8.137
 2646POPC   C4A35478   8.281  39.910   7.726
 2646POPC   C1B35479   8.060  40.420   8.815
 2646POPC   C2B35480   8.104  40.299   8.384
 2646POPC   C3B35481   8.280  40.359   7.978
 2646POPC   C4B35482   7.973  40.342   7.682
 2647POPC   NC335483  34.156  37.158   9.349
 2647POPC   PO435484  33.498  36.910   9.417
 2647POPC   GL135485  33.818  36.829   9.130
 2647POPC   GL235486  34.110  36.600   9.252
 2647POPC   C1A35487  33.754  36.939   8.692
 2647POPC   D2A35488  33.457  36.774   8.371
 2647POPC   C3A35489  33.256  37.076   8.102
 2647POPC   C4A35490  33.469  37.224   7.718
 2647POPC   C1B35491  34.127  36.584   8.797
 2647POPC   C2B35492  34.179  36.828   8.405
 2647POPC   C3B35493  34.003  36.737   8.030
 2647POPC   C4B35494  33.599  36.750   7.867
 2648POPC   NC335495  10.271  40.603   9.264
 2648POPC   PO435496  10.703  41.073   9.559
 2648POPC   GL135497  10.501  41.038   9.176
 2648POPC   GL235498  10.778  40.867   9.084
 2648POPC   C1A35499  10.520  41.029   8.696
 2648POPC   D2A35500  10.440  41.114   8.266
 2648POPC   C3A35501  10.253  40.770   8.079
 2648POPC   C4A35502  10.302  40.739   7.660
 2648POPC   C1B35503  10.953  40.689   8.705
 2648POPC   C2B35504  10.715  40.651   8.351
 2648POPC   C3B35505  10.752  40.788   7.940
 2648POPC   C4B35506  10.774  40.737   7.499
 2649POPC   NC335507   4.622  23.100   9.907
 2649POPC   PO435508   4.072  23.041   9.521
 2649POPC   GL135509   4.116  22.902   9.140
 2649POPC   GL235510   4.472  22.866   9.145
 2649POPC   C1A35511   4.035  23.104   8.748
 2649POPC   D2A35512   4.283  23.077   8.346
 2649POPC   C3A35513   4.455  23.144   7.919
 2649POPC   C4A35514   4.203  23.052   7.539
 2649POPC   C1B35515   4.348  22.691   8.743
 2649POPC   C2B35516   4.300  22.551   8.337
 2649POPC   C3B35517   4.574  22.609   7.997
 2649POPC   C4B35518   4.601  22.773   7.566
 2650POPC   NC335519  44.182  43.870   9.580
 2650POPC   PO435520  44.759  43.655   9.779
 2650POPC   GL135521  44.645  43.848   9.369
 2650POPC   GL235522  44.837  44.149   9.296
 2650POPC   C1A35523  44.391  43.872   8.952
 2650POPC   D2A35524  44.300  43.665   8.544
 2650POPC   C3A35525  44.479  43.771   8.135
 2650POPC   C4A35526  44.554  43.458   7.838
 2650POPC   C1B35527  44.895  43.802   8.928
 2650POPC   C2B35528  44.917  43.717   8.469
 2650POPC   C3B35529   0.008  43.626   8.029
 2650POPC   C4B35530  44.819  43.884   7.750
 2651POPC   NC335531   8.525  18.577   9.454
 2651POPC   PO435532   8.087  18.028   9.478
 2651POPC   GL135533   8.289  18.106   9.123
 2651POPC   GL235534   8.173  18.455   9.114
 2651POPC   C1A35535   8.368  18.191   8.697
 2651POPC   D2A35536   8.588  18.163   8.310
 2651POPC   C3A35537   8.416  17.940   7.972
 2651POPC   C4A35538   8.127  18.033   7.659
 2651POPC   C1B35539   8.026  18.559   8.702
 2651POPC   C2B35540   8.256  18.607   8.340
 2651POPC   C3B35541   8.215  18.440   7.950
 2651POPC   C4B35542   7.882  18.494   7.751
 2652POPC   NC335543   4.667  36.679   9.520
 2652POPC   PO435544   5.344  37.028   9.446
 2652POPC   GL135545   4.982  37.115   9.186
 2652POPC   GL235546   4.917  36.769   9.085
 2652POPC   C1A35547   5.022  37.149   8.726
 2652POPC   D2A35548   5.262  36.870   8.449
 2652POPC   C3A35549   5.077  36.798   8.071
 2652POPC   C4A35550   5.032  37.053   7.688
 2652POPC   C1B35551   4.917  36.562   8.681
 2652POPC   C2B35552   4.642  36.567   8.326
 2652POPC   C3B35553   4.755  36.458   7.884
 2652POPC   C4B35554   5.134  36.570   7.610
 2653POPC   NC335555   1.570  35.905   9.167
 2653POPC   PO435556   2.009  36.181   9.714
 2653POPC   GL135557   2.065  36.091   9.220
 2653POPC   GL235558   2.292  35.808   9.210
 2653POPC   C1A35559   1.982  36.331   8.800
 2653POPC   D2A35560   1.778  36.327   8.437
 2653POPC   C3A35561   1.992  36.450   8.077
 2653POPC   C4A35562   1.906  36.237   7.714
 2653POPC   C1B35563   2.227  35.888   8.780
 2653POPC   C2B35564   2.174  36.029   8.376
 2653POPC   C3B35565   2.054  35.841   8.016
 2653POPC   C4B35566   2.362  35.949   7.757
 2654POPC   NC335567  19.968  41.381   9.381
 2654POPC   PO435568  19.596  41.974   9.368
 2654POPC   GL135569  19.682  41.695   9.049
 2654POPC   GL235570  19.523  41.373   9.114
 2654POPC   C1A35571  19.925  41.690   8.670
 2654POPC   D2A35572  19.767  41.618   8.256
 2654POPC   C3A35573  19.917  41.708   7.833
 2654POPC   C4A35574  19.628  41.757   7.454
 2654POPC   C1B35575  19.600  41.074   8.781
 2654POPC   C2B35576  19.891  41.174   8.496
 2654POPC   C3B35577  19.976  41.143   8.083
 2654POPC   C4B35578  20.185  41.253   7.766
 2655POPC   NC335579  38.647  23.999   9.380
 2655POPC   PO435580  38.493  23.328   9.504
 2655POPC   GL135581  38.476  23.562   9.130
 2655POPC   GL235582  38.187  23.779   9.131
 2655POPC   C1A35583  38.397  23.615   8.691
 2655POPC   D2A35584  38.160  23.541   8.338
 2655POPC   C3A35585  38.406  23.617   7.983
 2655POPC   C4A35586  38.594  23.521   7.558
 2655POPC   C1B35587  38.070  24.015   8.750
 2655POPC   C2B35588  38.143  24.063   8.306
 2655POPC   C3B35589  38.160  24.044   7.844
 2655POPC   C4B35590  38.081  24.154   7.411
 2656POPC   NC335591  44.498  29.035   9.518
 2656POPC   PO435592   0.090  29.244   9.582
 2656POPC   GL135593  44.913  29.155   9.190
 2656POPC   GL235594  44.925  28.781   9.159
 2656POPC   C1A35595  44.834  29.310   8.769
 2656POPC   D2A35596  44.617  29.389   8.349
 2656POPC   C3A35597  44.805  29.291   7.973
 2656POPC   C4A35598  44.531  29.164   7.687
 2656POPC   C1B35599  44.621  28.843   8.879
 2656POPC   C2B35600  44.696  28.899   8.485
 2656POPC   C3B35601  44.602  28.853   8.107
 2656POPC   C4B35602  44.872  28.782   7.826
 2657POPC   NC335603  31.270  35.567   9.534
 2657POPC   PO435604  31.690  35.083   9.347
 2657POPC   GL135605  31.357  35.231   9.102
 2657POPC   GL235606  31.237  35.540   9.043
 2657POPC   C1A35607  31.592  35.306   8.724
 2657POPC   D2A35608  31.942  35.376   8.504
 2657POPC   C3A35609  31.744  35.210   8.162
 2657POPC   C4A35610  31.797  35.267   7.768
 2657POPC   C1B35611  31.102  35.377   8.657
 2657POPC   C2B35612  31.189  35.333   8.240
 2657POPC   C3B35613  31.347  35.468   7.879
 2657POPC   C4B35614  31.238  35.828   7.752
 2658POPC   NC335615   8.101  41.314   9.653
 2658POPC   PO435616   8.363  40.698   9.525
 2658POPC   GL135617   8.064  40.809   9.226
 2658POPC   GL235618   8.362  40.861   9.021
 2658POPC   C1A35619   7.950  40.932   8.804
 2658POPC   D2A35620   8.265  40.816   8.485
 2658POPC   C3A35621   8.098  40.815   8.077
 2658POPC   C4A35622   7.898  40.871   7.704
 2658POPC   C1B35623   8.652  41.074   8.752
 2658POPC   C2B35624   8.713  41.129   8.347
 2658POPC   C3B35625   8.579  40.986   7.981
 2658POPC   C4B35626   8.645  41.129   7.555
 2659POPC   NC335627   3.574   1.013   9.437
 2659POPC   PO435628   3.013   1.283   9.654
 2659POPC   GL135629   3.252   1.317   9.185
 2659POPC   GL235630   3.399   0.975   8.961
 2659POPC   C1A35631   3.497   1.410   8.782
 2659POPC   D2A35632   3.419   1.173   8.390
 2659POPC   C3A35633   3.379   1.384   7.993
 2659POPC   C4A35634   3.165   1.263   7.603
 2659POPC   C1B35635   3.795   1.002   8.732
 2659POPC   C2B35636   3.918   1.123   8.302
 2659POPC   C3B35637   3.681   0.956   7.954
 2659POPC   C4B35638   3.819   0.553   7.793
 2660POPC   NC335639  16.389  19.798   9.391
 2660POPC   PO435640  15.725  20.078   9.460
 2660POPC   GL135641  15.726  19.919   9.058
 2660POPC   GL235642  15.931  19.629   9.116
 2660POPC   C1A35643  15.697  19.768   8.625
 2660POPC   D2A35644  15.605  19.547   8.237
 2660POPC   C3A35645  15.581  19.772   7.844
 2660POPC   C4A35646  15.636  19.723   7.392
 2660POPC   C1B35647  16.181  19.859   8.790
 2660POPC   C2B35648  16.233  20.042   8.399
 2660POPC   C3B35649  16.035  19.833   8.095
 2660POPC   C4B35650  16.081  19.696   7.696
 2661POPC   NC335651  31.331  11.396   9.741
 2661POPC   PO435652  31.952  11.277   9.727
 2661POPC   GL135653  31.608  11.206   9.344
 2661POPC   GL235654  31.349  11.483   9.229
 2661POPC   C1A35655  31.527  11.194   8.861
 2661POPC   D2A35656  31.598  11.431   8.483
 2661POPC   C3A35657  31.611  11.179   8.113
 2661POPC   C4A35658  31.591  11.276   7.673
 2661POPC   C1B35659  31.145  11.550   8.798
 2661POPC   C2B35660  31.185  11.731   8.362
 2661POPC   C3B35661  31.250  11.580   7.935
 2661POPC   C4B35662  31.248  11.610   7.482
 2662POPC   NC335663   9.522  17.813   9.418
 2662POPC   PO435664   9.924  17.270   9.519
 2662POPC   GL135665   9.661  17.196   9.133
 2662POPC   GL235666   9.389  17.453   9.072
 2662POPC   C1A35667   9.543  17.106   8.699
 2662POPC   D2A35668   9.776  17.036   8.304
 2662POPC   C3A35669   9.601  17.235   7.953
 2662POPC   C4A35670   9.710  17.347   7.546
 2662POPC   C1B35671   9.664  17.594   8.716
 2662POPC   C2B35672   9.714  17.629   8.249
 2662POPC   C3B35673   9.759  17.809   7.802
 2662POPC   C4B35674   9.532  17.842   7.364
 2663POPC   NC335675  35.289  23.138   9.679
 2663POPC   PO435676  35.305  22.460   9.577
 2663POPC   GL135677  35.120  22.681   9.182
 2663POPC   GL235678  35.330  23.004   9.170
 2663POPC   C1A35679  35.302  22.731   8.712
 2663POPC   D2A35680  35.670  22.812   8.399
 2663POPC   C3A35681  35.579  22.756   7.956
 2663POPC   C4A35682  35.227  22.636   7.713
 2663POPC   C1B35683  35.558  23.150   8.788
 2663POPC   C2B35684  35.338  23.181   8.361
 2663POPC   C3B35685  35.415  23.240   7.899
 2663POPC   C4B35686  35.132  23.277   7.530
 2664POPC   NC335687  25.263  34.833   9.530
 2664POPC   PO435688  24.795  34.423   9.592
 2664POPC   GL135689  24.942  34.579   9.195
 2664POPC   GL235690  25.227  34.773   9.043
 2664POPC   C1A35691  24.979  34.419   8.792
 2664POPC   D2A35692  25.272  34.407   8.453
 2664POPC   C3A35693  25.175  34.578   8.083
 2664POPC   C4A35694  25.224  34.457   7.683
 2664POPC   C1B35695  25.558  34.708   8.751
 2664POPC   C2B35696  25.564  34.829   8.324
 2664POPC   C3B35697  25.616  34.751   7.909
 2664POPC   C4B35698  25.642  34.720   7.450
 2665POPC   NC335699  43.886  17.663   9.545
 2665POPC   PO435700  43.761  16.983   9.533
 2665POPC   GL135701  43.770  17.139   9.129
 2665POPC   GL235702  43.598  17.465   9.104
 2665POPC   C1A35703  43.975  17.282   8.751
 2665POPC   D2A35704  43.743  17.451   8.389
 2665POPC   C3A35705  43.835  17.329   7.951
 2665POPC   C4A35706  43.580  17.396   7.584
 2665POPC   C1B35707  43.854  17.770   8.827
 2665POPC   C2B35708  44.120  17.838   8.434
 2665POPC   C3B35709  44.141  17.978   7.985
 2665POPC   C4B35710  43.900  17.826   7.617
 2666POPC   NC335711  31.310  12.287   9.427
 2666POPC   PO435712  31.619  11.740   9.600
 2666POPC   GL135713  31.645  11.915   9.176
 2666POPC   GL235714  31.714  12.265   9.074
 2666POPC   C1A35715  31.499  11.921   8.754
 2666POPC   D2A35716  31.668  12.140   8.420
 2666POPC   C3A35717  31.663  11.812   8.106
 2666POPC   C4A35718  31.737  11.756   7.667
 2666POPC   C1B35719  31.360  12.418   8.796
 2666POPC   C2B35720  31.359  12.633   8.407
 2666POPC   C3B35721  31.597  12.622   8.068
 2666POPC   C4B35722  31.770  12.263   7.914
 2667POPC   NC335723   9.384  15.501   9.587
 2667POPC   PO435724   8.681  15.704   9.478
 2667POPC   GL135725   8.968  15.812   9.172
 2667POPC   GL235726   9.292  15.702   9.141
 2667POPC   C1A35727   8.797  15.854   8.768
 2667POPC   D2A35728   8.735  16.080   8.399
 2667POPC   C3A35729   8.836  15.901   8.036
 2667POPC   C4A35730   8.606  15.989   7.697
 2667POPC   C1B35731   9.308  15.902   8.782
 2667POPC   C2B35732   9.193  15.741   8.399
 2667POPC   C3B35733   9.453  15.574   8.090
 2667POPC   C4B35734   9.544  15.728   7.695
 2668POPC   NC335735  13.552  19.815   9.667
 2668POPC   PO435736  14.209  19.910   9.652
 2668POPC   GL135737  13.811  19.936   9.275
 2668POPC   GL235738  13.532  20.189   9.225
 2668POPC   C1A35739  13.673  19.814   8.867
 2668POPC   D2A35740  13.991  19.799   8.542
 2668POPC   C3A35741  13.870  19.746   8.106
 2668POPC   C4A35742  13.666  19.805   7.695
 2668POPC   C1B35743  13.537  20.314   8.778
 2668POPC   C2B35744  13.571  20.045   8.412
 2668POPC   C3B35745  13.360  19.880   8.076
 2668POPC   C4B35746  13.384  20.272   7.855
 2669POPC   NC335747   2.192  15.009   9.508
 2669POPC   PO435748   1.544  15.356   9.631
 2669POPC   GL135749   1.766  15.276   9.261
 2669POPC   GL235750   2.072  15.481   9.259
 2669POPC   C1A35751   1.710  15.362   8.829
 2669POPC   D2A35752   1.680  15.485   8.411
 2669POPC   C3A35753   1.862  15.271   8.053
 2669POPC   C4A35754   1.721  15.018   7.732
 2669POPC   C1B35755   2.143  15.615   8.833
 2669POPC   C2B35756   2.205  15.381   8.443
 2669POPC   C3B35757   2.382  15.386   8.024
 2669POPC   C4B35758   2.223  15.190   7.645
 2670POPC   NC335759  39.063  42.985   9.408
 2670POPC   PO435760  39.567  43.337   9.695
 2670POPC   GL135761  39.502  43.255   9.241
 2670POPC   GL235762  39.228  43.410   9.137
 2670POPC   C1A35763  39.564  43.280   8.747
 2670POPC   D2A35764  39.591  43.185   8.267
 2670POPC   C3A35765  39.222  42.994   8.048
 2670POPC   C4A35766  39.006  43.091   7.669
 2670POPC   C1B35767  39.050  43.477   8.739
 2670POPC   C2B35768  39.008  43.358   8.319
 2670POPC   C3B35769  39.056  43.530   7.916
 2670POPC   C4B35770  39.249  43.537   7.515
 2671POPC   NC335771  24.242  17.874   9.267
 2671POPC   PO435772  23.654  17.739   9.534
 2671POPC   GL135773  23.780  17.628   9.148
 2671POPC   GL235774  23.711  17.281   9.178
 2671POPC   C1A35775  23.578  17.669   8.746
 2671POPC   D2A35776  23.577  17.980   8.409
 2671POPC   C3A35777  23.587  17.810   8.023
 2671POPC   C4A35778  23.865  17.753   7.677
 2671POPC   C1B35779  23.697  17.154   8.740
 2671POPC   C2B35780  23.721  17.366   8.362
 2671POPC   C3B35781  23.811  17.342   7.969
 2671POPC   C4B35782  23.602  17.084   7.745
 2672POPC   NC335783  33.599  44.163   9.679
 2672POPC   PO435784  34.098  43.766   9.460
 2672POPC   GL135785  33.879  43.667   9.129
 2672POPC   GL235786  33.754  43.992   9.115
 2672POPC   C1A35787  34.133  43.668   8.751
 2672POPC   D2A35788  34.191  43.996   8.461
 2672POPC   C3A35789  34.150  43.877   8.034
 2672POPC   C4A35790  33.841  44.130   7.835
 2672POPC   C1B35791  33.691  43.966   8.673
 2672POPC   C2B35792  33.405  43.888   8.309
 2672POPC   C3B35793  33.433  43.802   7.862
 2672POPC   C4B35794  33.700  43.786   7.488
 2673POPC   NC335795   7.214  16.828   9.676
 2673POPC   PO435796   7.777  16.449   9.487
 2673POPC   GL135797   7.563  16.739   9.231
 2673POPC   GL235798   7.309  16.534   9.093
 2673POPC   C1A35799   7.540  16.876   8.812
 2673POPC   D2A35800   7.330  16.706   8.475
 2673POPC   C3A35801   7.557  16.685   8.101
 2673POPC   C4A35802   7.546  16.874   7.738
 2673POPC   C1B35803   6.983  16.456   8.787
 2673POPC   C2B35804   6.844  16.570   8.391
 2673POPC   C3B35805   7.102  16.447   8.048
 2673POPC   C4B35806   6.922  16.211   7.747
 2674POPC   NC335807  37.182  38.041   9.302
 2674POPC   PO435808  36.765  38.524   9.504
 2674POPC   GL135809  36.881  38.479   9.133
 2674POPC   GL235810  37.225  38.535   9.178
 2674POPC   C1A35811  36.648  38.457   8.774
 2674POPC   D2A35812  36.843  38.417   8.394
 2674POPC   C3A35813  36.729  38.293   8.000
 2674POPC   C4A35814  36.786  38.512   7.637
 2674POPC   C1B35815  37.211  38.352   8.760
 2674POPC   C2B35816  37.332  38.245   8.386
 2674POPC   C3B35817  37.211  38.490   8.036
 2674POPC   C4B35818  37.309  38.388   7.654
 2675POPC   NC335819  40.545  26.091   9.450
 2675POPC   PO435820  41.204  25.977   9.661
 2675POPC   GL135821  40.983  25.951   9.198
 2675POPC   GL235822  40.838  26.258   9.064
 2675POPC   C1A35823  40.719  25.874   8.783
 2675POPC   D2A35824  40.646  26.126   8.388
 2675POPC   C3A35825  40.769  25.986   7.953
 2675POPC   C4A35826  40.715  25.706   7.538
 2675POPC   C1B35827  40.407  26.328   8.812
 2675POPC   C2B35828  40.223  26.426   8.385
 2675POPC   C3B35829  40.326  26.284   7.973
 2675POPC   C4B35830  40.505  26.195   7.569
 2676POPC   NC335831  17.629  15.744   9.698
 2676POPC   PO435832  17.159  16.090   9.655
 2676POPC   GL135833  17.530  16.033   9.275
 2676POPC   GL235834  17.750  15.709   9.207
 2676POPC   C1A35835  17.677  16.046   8.807
 2676POPC   D2A35836  17.696  16.195   8.343
 2676POPC   C3A35837  17.543  15.972   7.962
 2676POPC   C4A35838  17.304  16.164   7.599
 2676POPC   C1B35839  17.781  15.512   8.824
 2676POPC   C2B35840  17.812  15.695   8.417
 2676POPC   C3B35841  17.810  15.518   8.022
 2676POPC   C4B35842  17.665  15.573   7.586
 2677POPC   NC335843   5.116  21.616   9.704
 2677POPC   PO435844   5.210  20.974   9.606
 2677POPC   GL135845   5.005  21.265   9.309
 2677POPC   GL235846   5.269  21.397   9.158
 2677POPC   C1A35847   4.815  21.431   8.916
 2677POPC   D2A35848   4.920  21.577   8.505
 2677POPC   C3A35849   5.114  21.370   8.166
 2677POPC   C4A35850   4.854  21.384   7.780
 2677POPC   C1B35851   5.367  21.354   8.725
 2677POPC   C2B35852   5.523  21.675   8.461
 2677POPC   C3B35853   5.500  21.675   8.051
 2677POPC   C4B35854   5.331  21.506   7.686
 2678POPC   NC335855  38.115  23.141   9.766
 2678POPC   PO435856  38.480  22.786   9.383
 2678POPC   GL135857  38.646  22.824   9.035
 2678POPC   GL235858  38.734  22.489   8.976
 2678POPC   C1A35859  38.613  23.072   8.674
 2678POPC   D2A35860  38.246  23.049   8.421
 2678POPC   C3A35861  38.358  23.093   7.983
 2678POPC   C4A35862  38.170  22.794   7.730
 2678POPC   C1B35863  38.477  22.578   8.629
 2678POPC   C2B35864  38.570  22.698   8.228
 2678POPC   C3B35865  38.564  22.471   7.868
 2678POPC   C4B35866  38.445  22.425   7.453
 2679POPC   NC335867  10.461   6.192   9.706
 2679POPC   PO435868  10.769   5.647   9.603
 2679POPC   GL135869  10.483   5.876   9.318
 2679POPC   GL235870  10.650   5.776   9.080
 2679POPC   C1A35871  10.293   6.086   8.922
 2679POPC   D2A35872  10.536   6.058   8.536
 2679POPC   C3A35873  10.301   5.997   8.155
 2679POPC   C4A35874  10.303   5.905   7.738
 2679POPC   C1B35875  10.896   5.743   8.769
 2679POPC   C2B35876  10.863   5.595   8.390
 2679POPC   C3B35877  10.759   5.783   8.038
 2679POPC   C4B35878  10.690   5.540   7.710
 2680POPC   NC335879  32.106   5.200   9.697
 2680POPC   PO435880  32.675   4.916   9.626
 2680POPC   GL135881  32.437   5.066   9.223
 2680POPC   GL235882  32.071   5.134   9.195
 2680POPC   C1A35883  32.542   5.209   8.786
 2680POPC   D2A35884  32.682   5.052   8.373
 2680POPC   C3A35885  32.696   5.271   7.989
 2680POPC   C4A35886  32.287   5.199   7.796
 2680POPC   C1B35887  32.018   5.298   8.775
 2680POPC   C2B35888  32.100   5.103   8.369
 2680POPC   C3B35889  31.852   5.302   8.020
 2680POPC   C4B35890  31.774   5.410   7.590
 2681POPC   NC335891  44.517   0.573   9.484
 2681POPC   PO435892  44.960   0.087   9.440
 2681POPC   GL135893  44.800   0.324   9.121
 2681POPC   GL235894  44.444   0.225   9.104
 2681POPC   C1A35895  44.907   0.430   8.714
 2681POPC   D2A35896  44.762   0.235   8.356
 2681POPC   C3A35897  44.846   0.560   8.054
 2681POPC   C4A35898   0.084   0.619   7.665
 2681POPC   C1B35899  44.436   0.603   8.833
 2681POPC   C2B35900  44.453   0.654   8.428
 2681POPC   C3B35901  44.382   0.787   8.067
 2681POPC   C4B35902  44.445   0.580   7.740
 2682POPC   NC335903  44.403  15.105   9.500
 2682POPC   PO435904   0.070  14.990   9.441
 2682POPC   GL135905  44.748  15.105   9.116
 2682POPC   GL235906  44.376  15.037   8.998
 2682POPC   C1A35907  44.783  15.119   8.677
 2682POPC   D2A35908  44.538  15.136   8.317
 2682POPC   C3A35909  44.736  15.400   8.019
 2682POPC   C4A35910   0.058  15.336   7.740
 2682POPC   C1B35911  44.403  15.437   8.803
 2682POPC   C2B35912  44.402  15.606   8.365
 2682POPC   C3B35913  44.210  15.411   7.985
 2682POPC   C4B35914  44.459  15.121   7.679
 2683POPC   NC335915  32.670   2.863   9.466
 2683POPC   PO435916  32.102   2.510   9.526
 2683POPC   GL135917  32.208   2.660   9.142
 2683POPC   GL235918  32.273   2.982   9.111
 2683POPC   C1A35919  32.389   2.527   8.756
 2683POPC   D2A35920  32.152   2.514   8.388
 2683POPC   C3A35921  32.192   2.862   8.142
 2683POPC   C4A35922  32.219   2.756   7.732
 2683POPC   C1B35923  32.270   3.036   8.655
 2683POPC   C2B35924  32.628   3.072   8.346
 2683POPC   C3B35925  32.674   2.975   7.916
 2683POPC   C4B35926  32.503   3.107   7.533
 2684POPC   NC335927  37.812  40.585   9.621
 2684POPC   PO435928  37.231  40.925   9.559
 2684POPC   GL135929  37.539  40.854   9.170
 2684POPC   GL235930  37.888  40.707   9.149
 2684POPC   C1A35931  37.658  40.755   8.710
 2684POPC   D2A35932  37.428  40.895   8.389
 2684POPC   C3A35933  37.371  40.653   8.012
 2684POPC   C4A35934  37.629  40.742   7.632
 2684POPC   C1B35935  37.984  40.390   8.850
 2684POPC   C2B35936  37.889  40.275   8.429
 2684POPC   C3B35937  37.861  40.481   8.021
 2684POPC   C4B35938  38.103  40.588   7.638
 2685POPC   NC335939  21.450   7.813   9.511
 2685POPC   PO435940  21.602   8.480   9.495
 2685POPC   GL135941  21.393   8.293   9.188
 2685POPC   GL235942  21.650   8.068   9.127
 2685POPC   C1A35943  21.176   8.248   8.802
 2685POPC   D2A35944  21.299   8.260   8.374
 2685POPC   C3A35945  21.169   8.499   8.014
 2685POPC   C4A35946  21.295   8.497   7.598
 2685POPC   C1B35947  21.700   8.151   8.720
 2685POPC   C2B35948  21.704   7.967   8.326
 2685POPC   C3B35949  21.599   8.166   7.939
 2685POPC   C4B35950  21.838   7.973   7.584
 2686POPC   NC335951   0.962  28.783   9.846
 2686POPC   PO435952   1.428  28.605   9.403
 2686POPC   GL135953   1.205  28.568   8.988
 2686POPC   GL235954   1.192  28.198   8.989
 2686POPC   C1A35955   1.247  28.417   8.552
 2686POPC   D2A35956   1.216  28.509   8.143
 2686POPC   C3A35957   1.472  28.229   7.938
 2686POPC   C4A35958   1.404  28.102   7.540
 2686POPC   C1B35959   0.897  28.070   8.696
 2686POPC   C2B35960   1.001  27.991   8.272
 2686POPC   C3B35961   0.943  28.123   7.854
 2686POPC   C4B35962   1.094  28.509   7.649
 2687POPC   NC335963  34.090   7.664   9.484
 2687POPC   PO435964  34.681   7.290   9.463
 2687POPC   GL135965  34.606   7.440   9.067
 2687POPC   GL235966  34.460   7.781   9.061
 2687POPC   C1A35967  34.232   7.437   8.785
 2687POPC   D2A35968  34.090   7.621   8.418
 2687POPC   C3A35969  34.292   7.361   8.126
 2687POPC   C4A35970  34.353   7.306   7.711
 2687POPC   C1B35971  34.772   7.809   8.717
 2687POPC   C2B35972  34.673   7.654   8.293
 2687POPC   C3B35973  34.835   7.508   7.864
 2687POPC   C4B35974  34.875   7.592   7.385
 2688POPC   NC335975   5.852   5.689   9.549
 2688POPC   PO435976   5.840   6.321   9.483
 2688POPC   GL135977   5.856   6.047   9.164
 2688POPC   GL235978   5.811   5.676   9.060
 2688POPC   C1A35979   6.077   6.061   8.806
 2688POPC   D2A35980   5.892   6.048   8.427
 2688POPC   C3A35981   6.176   6.132   8.113
 2688POPC   C4A35982   6.067   5.887   7.796
 2688POPC   C1B35983   5.533   5.879   8.801
 2688POPC   C2B35984   5.442   5.780   8.382
 2688POPC   C3B35985   5.575   5.897   7.993
 2688POPC   C4B35986   5.715   5.530   7.802
 2689POPC   NC335987  33.164   4.198   9.626
 2689POPC   PO435988  32.561   3.972   9.445
 2689POPC   GL135989  32.911   4.146   9.168
 2689POPC   GL235990  32.800   4.435   8.994
 2689POPC   C1A35991  33.236   4.155   8.830
 2689POPC   D2A35992  33.310   4.325   8.421
 2689POPC   C3A35993  33.012   4.150   8.100
 2689POPC   C4A35994  33.150   4.433   7.776
 2689POPC   C1B35995  32.831   4.363   8.562
 2689POPC   C2B35996  32.927   4.631   8.213
 2689POPC   C3B35997  32.747   4.763   7.874
 2689POPC   C4B35998  32.571   4.389   7.785
 2690POPC   NC335999   6.986  36.144   9.752
 2690POPC   PO436000   7.502  35.991   9.363
 2690POPC   GL136001   7.532  36.181   9.016
 2690POPC   GL236002   7.620  36.550   9.064
 2690POPC   C1A36003   7.376  36.013   8.646
 2690POPC   D2A36004   7.388  35.836   8.279
 2690POPC   C3A36005   7.188  36.127   8.032
 2690POPC   C4A36006   6.985  36.022   7.676
 2690POPC   C1B36007   7.320  36.519   8.720
 2690POPC   C2B36008   7.502  36.414   8.327
 2690POPC   C3B36009   7.665  36.288   7.912
 2690POPC   C4B36010   7.475  36.203   7.515
 2691POPC   NC336011  30.773  24.785   9.513
 2691POPC   PO436012  30.640  25.498   9.459
 2691POPC   GL136013  30.560  25.396   9.073
 2691POPC   GL236014  30.703  25.088   9.120
 2691POPC   C1A36015  30.561  25.343   8.633
 2691POPC   D2A36016  30.779  25.495   8.305
 2691POPC   C3A36017  30.553  25.615   7.965
 2691POPC   C4A36018  30.615  25.367   7.639
 2691POPC   C1B36019  30.756  24.866   8.757
 2691POPC   C2B36020  30.815  24.981   8.330
 2691POPC   C3B36021  30.509  25.113   8.060
 2691POPC   C4B36022  30.337  24.918   7.685
 2692POPC   NC336023  35.412  16.791   9.394
 2692POPC   PO436024  34.883  16.987   9.378
 2692POPC   GL136025  35.032  16.738   9.048
 2692POPC   GL236026  35.012  16.405   9.173
 2692POPC   C1A36027  35.238  16.759   8.625
 2692POPC   D2A36028  35.311  16.711   8.167
 2692POPC   C3A36029  35.400  16.979   7.802
 2692POPC   C4A36030  35.363  17.276   7.411
 2692POPC   C1B36031  35.364  16.326   8.913
 2692POPC   C2B36032  35.452  16.294   8.472
 2692POPC   C3B36033  35.365  16.220   8.053
 2692POPC   C4B36034  35.384  16.471   7.711
 2693POPC   NC336035   1.080  19.996   9.515
 2693POPC   PO436036   1.227  19.310   9.599
 2693POPC   GL136037   1.227  19.621   9.199
 2693POPC   GL236038   0.898  19.761   9.117
 2693POPC   C1A36039   1.413  19.815   8.824
 2693POPC   D2A36040   1.414  19.576   8.425
 2693POPC   C3A36041   1.378  19.811   8.069
 2693POPC   C4A36042   1.366  20.235   7.905
 2693POPC   C1B36043   0.962  19.618   8.739
 2693POPC   C2B36044   0.969  19.867   8.415
 2693POPC   C3B36045   0.856  19.743   8.038
 2693POPC   C4B36046   1.038  19.768   7.666
 2694POPC   NC336047  30.940  14.205   9.568
 2694POPC   PO436048  30.499  14.719   9.370
 2694POPC   GL136049  30.875  14.601   9.149
 2694POPC   GL236050  30.854  14.290   9.070
 2694POPC   C1A36051  30.882  14.691   8.724
 2694POPC   D2A36052  30.820  14.389   8.432
 2694POPC   C3A36053  30.642  14.584   8.108
 2694POPC   C4A36054  30.764  14.627   7.711
 2694POPC   C1B36055  30.992  14.027   8.768
 2694POPC   C2B36056  30.971  13.886   8.358
 2694POPC   C3B36057  30.853  14.103   7.992
 2694POPC   C4B36058  31.045  14.202   7.633
 2695POPC   NC336059  23.851   4.596   9.453
 2695POPC   PO436060  23.755   3.986   9.344
 2695POPC   GL136061  23.616   4.294   9.082
 2695POPC   GL236062  23.341   4.424   9.273
 2695POPC   C1A36063  23.702   4.348   8.641
 2695POPC   D2A36064  23.707   4.048   8.297
 2695POPC   C3A36065  23.745   4.231   7.919
 2695POPC   C4A36066  23.979   4.193   7.528
 2695POPC   C1B36067  23.235   4.499   8.834
 2695POPC   C2B36068  23.251   4.287   8.422
 2695POPC   C3B36069  23.068   4.192   8.022
 2695POPC   C4B36070  23.304   4.281   7.681
 2696POPC   NC336071  14.964  42.737   9.555
 2696POPC   PO436072  14.740  42.074   9.534
 2696POPC   GL136073  15.095  42.295   9.270
 2696POPC   GL236074  15.411  42.517   9.280
 2696POPC   C1A36075  15.142  42.331   8.827
 2696POPC   D2A36076  14.860  42.418   8.498
 2696POPC   C3A36077  14.967  42.166   8.162
 2696POPC   C4A36078  14.895  42.029   7.774
 2696POPC   C1B36079  15.472  42.728   8.858
 2696POPC   C2B36080  15.201  42.800   8.480
 2696POPC   C3B36081  15.180  42.606   8.093
 2696POPC   C4B36082  15.258  42.364   7.731
 2697POPC   NC336083   2.012  38.949   9.462
 2697POPC   PO436084   1.724  39.498   9.378
 2697POPC   GL136085   1.978  39.343   9.068
 2697POPC   GL236086   2.069  38.992   8.973
 2697POPC   C1A36087   1.985  39.365   8.641
 2697POPC   D2A36088   2.263  39.189   8.383
 2697POPC   C3A36089   2.129  39.154   8.005
 2697POPC   C4A36090   1.783  39.341   7.805
 2697POPC   C1B36091   1.711  38.914   8.693
 2697POPC   C2B36092   1.698  38.924   8.203
 2697POPC   C3B36093   1.708  38.841   7.714
 2697POPC   C4B36094   1.720  38.962   7.230
 2698POPC   NC336095  41.308  29.848   9.487
 2698POPC   PO436096  41.965  29.927   9.392
 2698POPC   GL136097  41.668  30.021   9.124
 2698POPC   GL236098  41.439  29.778   9.023
 2698POPC   C1A36099  41.690  30.218   8.766
 2698POPC   D2A36100  41.703  30.022   8.383
 2698POPC   C3A36101  41.395  30.081   8.097
 2698POPC   C4A36102  41.577  30.082   7.718
 2698POPC   C1B36103  41.285  29.538   8.748
 2698POPC   C2B36104  41.214  29.657   8.365
 2698POPC   C3B36105  41.364  29.589   7.952
 2698POPC   C4B36106  41.293  29.647   7.515
 2699POPC   NC336107   4.501   1.063   9.668
 2699POPC   PO436108   4.105   1.508   9.437
 2699POPC   GL136109   4.003   1.242   9.134
 2699POPC   GL236110   4.083   0.942   9.321
 2699POPC   C1A36111   4.165   1.347   8.719
 2699POPC   D2A36112   4.428   1.191   8.392
 2699POPC   C3A36113   4.391   1.422   8.007
 2699POPC   C4A36114   4.594   1.410   7.629
 2699POPC   C1B36115   4.325   0.879   8.937
 2699POPC   C2B36116   4.189   0.733   8.551
 2699POPC   C3B36117   4.203   0.700   8.128
 2699POPC   C4B36118   4.188   0.987   7.830
 2700POPC   NC336119  28.659  26.264   9.988
 2700POPC   PO436120  28.194  25.810   9.686
 2700POPC   GL136121  28.186  26.020   9.267
 2700POPC   GL236122  28.520  26.146   9.135
 2700POPC   C1A36123  28.111  25.986   8.826
 2700POPC   D2A36124  28.328  25.870   8.474
 2700POPC   C3A36125  28.203  25.953   8.075
 2700POPC   C4A36126  28.100  25.657   7.757
 2700POPC   C1B36127  28.645  26.240   8.670
 2700POPC   C2B36128  28.547  26.324   8.223
 2700POPC   C3B36129  28.767  26.321   7.817
 2700POPC   C4B36130  28.649  26.154   7.350
 2701POPC   NC336131  22.183  36.714   9.597
 2701POPC   PO436132  21.796  37.323   9.422
 2701POPC   GL136133  21.980  36.955   9.141
 2701POPC   GL236134  22.238  36.648   9.110
 2701POPC   C1A36135  22.040  36.797   8.689
 2701POPC   D2A36136  22.297  36.977   8.367
 2701POPC   C3A36137  22.131  36.927   7.967
 2701POPC   C4A36138  22.280  37.066   7.603
 2701POPC   C1B36139  22.545  36.488   8.815
 2701POPC   C2B36140  22.677  36.610   8.417
 2701POPC   C3B36141  22.521  36.489   8.015
 2701POPC   C4B36142  22.316  36.539   7.621
 2702POPC   NC336143  22.985  16.758   9.533
 2702POPC   PO436144  22.595  16.246   9.404
 2702POPC   GL136145  22.835  16.511   9.104
 2702POPC   GL236146  23.142  16.665   9.064
 2702POPC   C1A36147  22.819  16.636   8.675
 2702POPC   D2A36148  23.085  16.549   8.322
 2702POPC   C3A36149  22.790  16.563   7.995
 2702POPC   C4A36150  22.480  16.482   7.730
 2702POPC   C1B36151  23.205  16.985   8.727
 2702POPC   C2B36152  23.393  16.956   8.278
 2702POPC   C3B36153  23.198  16.834   7.874
 2702POPC   C4B36154  23.116  17.131   7.536
 2703POPC   NC336155  33.455  27.976   9.396
 2703POPC   PO436156  33.883  27.511   9.776
 2703POPC   GL136157  33.901  27.374   9.301
 2703POPC   GL236158  33.571  27.403   9.155
 2703POPC   C1A36159  34.059  27.443   8.853
 2703POPC   D2A36160  34.301  27.344   8.494
 2703POPC   C3A36161  33.986  27.307   8.184
 2703POPC   C4A36162  33.741  27.403   7.786
 2703POPC   C1B36163  33.576  27.460   8.691
 2703POPC   C2B36164  33.607  27.629   8.255
 2703POPC   C3B36165  33.591  27.875   7.850
 2703POPC   C4B36166  33.437  27.731   7.448
 2704POPC   NC336167  40.167   7.987   9.549
 2704POPC   PO436168  39.546   7.924   9.482
 2704POPC   GL136169  39.858   8.130   9.165
 2704POPC   GL236170  40.039   8.431   9.254
 2704POPC   C1A36171  40.125   8.213   8.786
 2704POPC   D2A36172  40.017   8.140   8.329
 2704POPC   C3A36173  40.191   8.317   7.947
 2704POPC   C4A36174  40.211   8.112   7.541
 2704POPC   C1B36175  39.737   8.569   8.882
 2704POPC   C2B36176  39.636   8.480   8.422
 2704POPC   C3B36177  39.674   8.365   7.965
 2704POPC   C4B36178  39.831   8.440   7.541
 2705POPC   NC336179   6.537  15.838   9.542
 2705POPC   PO436180   6.983  16.373   9.449
 2705POPC   GL136181   6.899  16.062   9.146
 2705POPC   GL236182   6.744  15.713   9.113
 2705POPC   C1A36183   6.608  16.111   8.825
 2705POPC   D2A36184   6.403  15.985   8.467
 2705POPC   C3A36185   6.592  16.189   8.147
 2705POPC   C4A36186   6.417  16.265   7.773
 2705POPC   C1B36187   6.631  15.604   8.726
 2705POPC   C2B36188   6.770  15.657   8.311
 2705POPC   C3B36189   6.690  15.745   7.887
 2705POPC   C4B36190   6.996  15.744   7.594
 2706POPC   NC336191   9.885  42.342   9.528
 2706POPC   PO436192   9.226  42.137   9.470
 2706POPC   GL136193   9.596  42.214   9.140
 2706POPC   GL236194   9.778  42.563   9.100
 2706POPC   C1A36195   9.929  42.147   8.794
 2706POPC   D2A36196  10.089  42.148   8.327
 2706POPC   C3A36197   9.752  42.172   8.010
 2706POPC   C4A36198   9.704  42.097   7.568
 2706POPC   C1B36199  10.007  42.650   8.750
 2706POPC   C2B36200   9.816  42.580   8.364
 2706POPC   C3B36201   9.966  42.626   7.949
 2706POPC   C4B36202   9.892  42.564   7.478
 2707POPC   NC336203  32.452  20.969   9.452
 2707POPC   PO436204  32.510  20.314   9.548
 2707POPC   GL136205  32.344  20.293   9.136
 2707POPC   GL236206  32.342  20.655   9.062
 2707POPC   C1A36207  32.340  20.307   8.715
 2707POPC   D2A36208  32.405  20.645   8.462
 2707POPC   C3A36209  32.467  20.545   8.039
 2707POPC   C4A36210  32.385  20.167   7.783
 2707POPC   C1B36211  31.982  20.657   8.774
 2707POPC   C2B36212  31.868  20.722   8.344
 2707POPC   C3B36213  31.998  20.738   7.915
 2707POPC   C4B36214  32.108  20.651   7.472
 2708POPC   NC336215  41.285  32.524   9.409
 2708POPC   PO436216  41.827  32.079   9.543
 2708POPC   GL136217  41.766  32.042   9.131
 2708POPC   GL236218  41.976  32.345   9.091
 2708POPC   C1A36219  41.555  32.200   8.756
 2708POPC   D2A36220  41.512  32.541   8.454
 2708POPC   C3A36221  41.420  32.409   8.052
 2708POPC   C4A36222  41.550  32.016   7.927
 2708POPC   C1B36223  41.911  32.591   8.762
 2708POPC   C2B36224  42.018  32.544   8.342
 2708POPC   C3B36225  41.944  32.428   7.949
 2708POPC   C4B36226  41.722  32.791   7.843
 2709POPC   NC336227   0.760   3.768   9.523
 2709POPC   PO436228   0.488   3.147   9.610
 2709POPC   GL136229   0.556   3.254   9.144
 2709POPC   GL236230   0.680   3.625   9.037
 2709POPC   C1A36231   0.375   3.356   8.724
 2709POPC   D2A36232   0.531   3.627   8.376
 2709POPC   C3A36233   0.402   3.392   8.002
 2709POPC   C4A36234   0.602   3.203   7.651
 2709POPC   C1B36235   0.442   3.954   8.781
 2709POPC   C2B36236   0.263   4.109   8.403
 2709POPC   C3B36237   0.325   3.903   7.993
 2709POPC   C4B36238   0.104   3.975   7.650
 2710POPC   NC336239  19.975  37.720   9.318
 2710POPC   PO436240  19.495  37.348   9.316
 2710POPC   GL136241  19.741  37.428   8.981
 2710POPC   GL236242  19.741  37.818   8.873
 2710POPC   C1A36243  19.695  37.374   8.579
 2710POPC   D2A36244  19.681  37.734   8.358
 2710POPC   C3A36245  19.604  37.693   7.979
 2710POPC   C4A36246  19.550  37.990   7.701
 2710POPC   C1B36247  20.109  37.720   8.648
 2710POPC   C2B36248  20.209  37.660   8.222
 2710POPC   C3B36249  20.090  37.771   7.808
 2710POPC   C4B36250  19.828  37.662   7.454
 2711POPC   NC336251  35.773  12.497   9.384
 2711POPC   PO436252  36.195  12.881   9.494
 2711POPC   GL136253  36.010  12.888   9.148
 2711POPC   GL236254  36.227  12.617   9.058
 2711POPC   C1A36255  36.084  13.017   8.750
 2711POPC   D2A36256  36.036  12.784   8.374
 2711POPC   C3A36257  36.132  13.062   8.011
 2711POPC   C4A36258  36.024  12.960   7.582
 2711POPC   C1B36259  36.414  12.559   8.658
 2711POPC   C2B36260  36.356  12.369   8.257
 2711POPC   C3B36261  36.240  12.572   7.869
 2711POPC   C4B36262  36.265  12.535   7.435
 2712POPC   NC336263   4.055  35.177   9.562
 2712POPC   PO436264   4.034  35.638   9.183
 2712POPC   GL136265   4.251  35.275   9.095
 2712POPC   GL236266   4.516  35.316   9.271
 2712POPC   C1A36267   4.364  35.200   8.711
 2712POPC   D2A36268   4.171  35.345   8.375
 2712POPC   C3A36269   4.408  35.170   8.081
 2712POPC   C4A36270   4.280  35.278   7.682
 2712POPC   C1B36271   4.616  35.627   8.898
 2712POPC   C2B36272   4.623  35.598   8.417
 2712POPC   C3B36273   4.423  35.654   7.998
 2712POPC   C4B36274   4.631  35.642   7.555
 2713POPC   NC336275  15.888  44.869   9.632
 2713POPC   PO436276  16.372   0.387   9.481
 2713POPC   GL136277  16.178   0.472   9.088
 2713POPC   GL236278  15.787   0.497   9.132
 2713POPC   C1A36279  16.000   0.379   8.687
 2713POPC   D2A36280  15.720   0.679   8.510
 2713POPC   C3A36281  15.776   0.619   8.094
 2713POPC   C4A36282  15.809   0.555   7.682
 2713POPC   C1B36283  15.510   0.293   8.775
 2713POPC   C2B36284  15.596   0.199   8.360
 2713POPC   C3B36285  15.451   0.244   7.945
 2713POPC   C4B36286  15.458   0.179   7.514
 2714POPC   NC336287  21.301   3.497   9.440
 2714POPC   PO436288  21.919   3.716   9.541
 2714POPC   GL136289  21.732   3.675   9.151
 2714POPC   GL236290  21.859   3.980   9.043
 2714POPC   C1A36291  21.500   3.604   8.742
 2714POPC   D2A36292  21.152   3.663   8.410
 2714POPC   C3A36293  21.056   3.551   7.967
 2714POPC   C4A36294  21.068   3.711   7.518
 2714POPC   C1B36295  21.768   4.148   8.636
 2714POPC   C2B36296  21.634   3.851   8.325
 2714POPC   C3B36297  21.540   3.473   8.107
 2714POPC   C4B36298  21.483   3.450   7.676
 2715POPC   NC336299   1.259  34.368   9.458
 2715POPC   PO436300   0.853  34.853   9.186
 2715POPC   GL136301   1.251  34.767   9.047
 2715POPC   GL236302   1.162  34.445   8.981
 2715POPC   C1A36303   1.259  34.755   8.595
 2715POPC   D2A36304   1.117  34.900   8.220
 2715POPC   C3A36305   1.172  34.602   7.965
 2715POPC   C4A36306   1.427  34.323   7.814
 2715POPC   C1B36307   1.338  34.247   8.664
 2715POPC   C2B36308   1.198  34.153   8.270
 2715POPC   C3B36309   0.935  34.141   7.916
 2715POPC   C4B36310   1.149  33.985   7.565
 2716POPC   NC336311  31.085   0.782   9.462
 2716POPC   PO436312  30.437   0.475   9.488
 2716POPC   GL136313  30.677   0.384   9.167
 2716POPC   GL236314  30.742   0.715   9.097
 2716POPC   C1A36315  30.693   0.104   8.821
 2716POPC   D2A36316  30.542   0.170   8.405
 2716POPC   C3A36317  30.690   0.546   8.142
 2716POPC   C4A36318  30.476   0.245   7.882
 2716POPC   C1B36319  30.664   0.594   8.679
 2716POPC   C2B36320  30.291   0.603   8.457
 2716POPC   C3B36321  30.197   0.655   8.048
 2716POPC   C4B36322  30.426   0.678   7.650
 2717POPC   NC336323  34.718  23.955   9.911
 2717POPC   PO436324  34.743  24.674   9.692
 2717POPC   GL136325  34.756  24.758   9.220
 2717POPC   GL236326  34.407  24.833   9.037
 2717POPC   C1A36327  34.696  24.443   8.879
 2717POPC   D2A36328  34.412  24.486   8.543
 2717POPC   C3A36329  34.398  24.181   8.217
 2717POPC   C4A36330  34.368  24.419   7.854
 2717POPC   C1B36331  34.652  24.923   8.725
 2717POPC   C2B36332  34.895  24.809   8.412
 2717POPC   C3B36333  34.687  24.729   8.093
 2717POPC   C4B36334  34.583  24.982   7.782
 2718POPC   NC336335  21.049   9.645   9.474
 2718POPC   PO436336  21.645   9.442   9.485
 2718POPC   GL136337  21.519   9.570   9.056
 2718POPC   GL236338  21.691   9.880   8.947
 2718POPC   C1A36339  21.316   9.483   8.623
 2718POPC   D2A36340  21.003   9.707   8.331
 2718POPC   C3A36341  21.114   9.824   7.900
 2718POPC   C4A36342  21.389   9.546   7.628
 2718POPC   C1B36343  21.351   9.978   8.652
 2718POPC   C2B36344  21.507   9.834   8.244
 2718POPC   C3B36345  21.588   9.979   7.834
 2718POPC   C4B36346  21.308  10.011   7.441
 2719POPC   NC336347   9.389  40.119   9.565
 2719POPC   PO436348   9.956  39.869   9.570
 2719POPC   GL136349   9.754  39.806   9.154
 2719POPC   GL236350   9.396  39.745   9.208
 2719POPC   C1A36351   9.884  39.911   8.696
 2719POPC   D2A36352  10.084  40.263   8.443
 2719POPC   C3A36353   9.970  40.332   7.997
 2719POPC   C4A36354   9.617  40.219   7.746
 2719POPC   C1B36355   9.333  39.913   8.820
 2719POPC   C2B36356   9.459  39.814   8.431
 2719POPC   C3B36357   9.818  39.885   8.170
 2719POPC   C4B36358   9.947  39.844   7.734
 2720POPC   NC336359   1.840  13.177   9.554
 2720POPC   PO436360   1.691  12.518   9.674
 2720POPC   GL136361   1.901  12.598   9.274
 2720POPC   GL236362   1.629  12.768   9.156
 2720POPC   C1A36363   1.977  12.719   8.812
 2720POPC   D2A36364   1.964  12.552   8.416
 2720POPC   C3A36365   2.130  12.825   8.156
 2720POPC   C4A36366   2.057  12.996   7.746
 2720POPC   C1B36367   1.688  13.120   8.866
 2720POPC   C2B36368   1.809  13.193   8.420
 2720POPC   C3B36369   1.643  13.028   8.017
 2720POPC   C4B36370   1.624  13.115   7.510
 2721POPC   NC336371  18.358  17.707   9.747
 2721POPC   PO436372  18.116  17.195   9.319
 2721POPC   GL136373  18.447  17.511   9.231
 2721POPC   GL236374  18.228  17.651   9.062
 2721POPC   C1A36375  18.676  17.576   8.795
 2721POPC   D2A36376  18.664  17.288   8.377
 2721POPC   C3A36377  18.657  17.540   7.964
 2721POPC   C4A36378  18.575  17.726   7.538
 2721POPC   C1B36379  18.227  17.391   8.692
 2721POPC   C2B36380  18.303  17.623   8.332
 2721POPC   C3B36381  18.142  17.491   7.952
 2721POPC   C4B36382  17.999  17.886   7.830
 2722POPC   NC336383  38.221  25.625   9.601
 2722POPC   PO436384  38.281  24.986   9.496
 2722POPC   GL136385  38.247  25.312   9.181
 2722POPC   GL236386  38.570  25.504   9.236
 2722POPC   C1A36387  38.153  25.197   8.745
 2722POPC   D2A36388  38.395  25.066   8.397
 2722POPC   C3A36389  38.269  25.183   7.989
 2722POPC   C4A36390  37.910  25.258   7.748
 2722POPC   C1B36391  38.653  25.308   8.835
 2722POPC   C2B36392  38.755  25.532   8.463
 2722POPC   C3B36393  38.779  25.733   8.061
 2722POPC   C4B36394  38.635  25.817   7.657
 2723POPC   NC336395  34.850  14.537   9.559
 2723POPC   PO436396  34.099  14.602   9.597
 2723POPC   GL136397  34.437  14.471   9.247
 2723POPC   GL236398  34.582  14.758   9.166
 2723POPC   C1A36399  34.714  14.370   8.854
 2723POPC   D2A36400  34.894  14.282   8.435
 2723POPC   C3A36401  34.595  14.062   8.178
 2723POPC   C4A36402  34.421  14.181   7.756
 2723POPC   C1B36403  34.322  14.690   8.776
 2723POPC   C2B36404  34.398  14.482   8.395
 2723POPC   C3B36405  34.376  14.651   7.981
 2723POPC   C4B36406  34.594  14.660   7.575
 2724POPC   NC336407  42.815   3.318   9.315
 2724POPC   PO436408  43.106   3.905   9.585
 2724POPC   GL136409  43.190   3.757   9.173
 2724POPC   GL236410  43.302   3.410   9.192
 2724POPC   C1A36411  43.038   3.720   8.724
 2724POPC   D2A36412  43.057   3.844   8.275
 2724POPC   C3A36413  42.703   3.717   7.998
 2724POPC   C4A36414  42.947   3.403   7.771
 2724POPC   C1B36415  43.361   3.264   8.777
 2724POPC   C2B36416  43.375   3.460   8.385
 2724POPC   C3B36417  43.401   3.584   7.949
 2724POPC   C4B36418  43.413   3.291   7.585
 2725POPC   NC336419  19.068  19.074   9.540
 2725POPC   PO436420  18.556  19.501   9.694
 2725POPC   GL136421  18.783  19.500   9.237
 2725POPC   GL236422  18.947  19.191   9.060
 2725POPC   C1A36423  18.670  19.511   8.771
 2725POPC   D2A36424  18.669  19.338   8.326
 2725POPC   C3A36425  19.070  19.185   8.130
 2725POPC   C4A36426  19.134  19.091   7.696
 2725POPC   C1B36427  19.151  18.810   8.834
 2725POPC   C2B36428  19.394  18.746   8.445
 2725POPC   C3B36429  19.478  18.835   8.006
 2725POPC   C4B36430  19.473  18.710   7.590
 2726POPC   NC336431  43.386  39.726   9.459
 2726POPC   PO436432  42.715  39.905   9.471
 2726POPC   GL136433  42.979  40.079   9.163
 2726POPC   GL236434  43.146  39.788   9.038
 2726POPC   C1A36435  43.088  40.172   8.724
 2726POPC   D2A36436  43.014  39.953   8.377
 2726POPC   C3A36437  43.229  40.057   8.020
 2726POPC   C4A36438  42.931  40.018   7.742
 2726POPC   C1B36439  43.360  39.532   8.737
 2726POPC   C2B36440  43.408  39.636   8.296
 2726POPC   C3B36441  43.273  39.556   7.887
 2726POPC   C4B36442  43.371  39.819   7.551
 2727POPC   NC336443   8.929  16.208   9.521
 2727POPC   PO436444   9.241  16.814   9.427
 2727POPC   GL136445   8.933  16.608   9.178
 2727POPC   GL236446   9.176  16.316   9.110
 2727POPC   C1A36447   8.709  16.741   8.800
 2727POPC   D2A36448   8.847  16.654   8.392
 2727POPC   C3A36449   8.886  16.977   8.096
 2727POPC   C4A36450   8.849  16.776   7.738
 2727POPC   C1B36451   8.994  16.311   8.753
 2727POPC   C2B36452   9.206  16.271   8.355
 2727POPC   C3B36453   9.101  16.342   7.919
 2727POPC   C4B36454   9.379  16.398   7.546
 2728POPC   NC336455  11.491  38.148   9.412
 2728POPC   PO436456  11.178  37.532   9.562
 2728POPC   GL136457  11.256  37.705   9.166
 2728POPC   GL236458  11.308  37.343   9.067
 2728POPC   C1A36459  11.586  37.755   8.833
 2728POPC   D2A36460  11.640  37.630   8.395
 2728POPC   C3A36461  11.429  37.841   8.009
 2728POPC   C4A36462  11.017  38.076   7.912
 2728POPC   C1B36463  10.988  37.110   8.811
 2728POPC   C2B36464  10.866  37.166   8.367
 2728POPC   C3B36465  10.923  37.400   7.961
 2728POPC   C4B36466  11.104  37.655   7.622
 2729POPC   NC336467  33.962  39.947   9.497
 2729POPC   PO436468  33.239  40.086   9.492
 2729POPC   GL136469  33.528  39.990   9.190
 2729POPC   GL236470  33.634  40.296   9.195
 2729POPC   C1A36471  33.834  39.946   8.849
 2729POPC   D2A36472  34.005  39.741   8.500
 2729POPC   C3A36473  33.779  39.809   8.162
 2729POPC   C4A36474  33.747  39.856   7.749
 2729POPC   C1B36475  33.486  40.364   8.793
 2729POPC   C2B36476  33.592  40.242   8.379
 2729POPC   C3B36477  33.635  40.317   7.932
 2729POPC   C4B36478  33.458  40.248   7.527
 2730POPC   NC336479  39.551  38.505   9.523
 2730POPC   PO436480  39.122  37.994   9.494
 2730POPC   GL136481  39.041  38.306   9.190
 2730POPC   GL236482  39.043  38.632   9.382
 2730POPC   C1A36483  39.306  38.358   8.809
 2730POPC   D2A36484  39.431  38.664   8.486
 2730POPC   C3A36485  39.426  38.473   8.065
 2730POPC   C4A36486  39.126  38.339   7.736
 2730POPC   C1B36487  39.047  38.760   8.946
 2730POPC   C2B36488  38.924  38.572   8.537
 2730POPC   C3B36489  38.927  38.643   8.109
 2730POPC   C4B36490  38.955  38.846   7.700
 2731POPC   NC336491  32.693  36.716   9.545
 2731POPC   PO436492  32.892  37.350   9.585
 2731POPC   GL136493  32.967  37.087   9.225
 2731POPC   GL236494  33.063  36.730   9.178
 2731POPC   C1A36495  32.796  37.060   8.805
 2731POPC   D2A36496  32.807  36.845   8.398
 2731POPC   C3A36497  32.702  36.974   7.978
 2731POPC   C4A36498  32.980  37.083   7.665
 2731POPC   C1B36499  32.920  36.508   8.792
 2731POPC   C2B36500  33.074  36.414   8.358
 2731POPC   C3B36501  33.341  36.346   8.026
 2731POPC   C4B36502  33.110  36.607   7.748
 2732POPC   NC336503   5.586   9.966   9.573
 2732POPC   PO436504   6.056   9.568   9.235
 2732POPC   GL136505   5.882   9.756   8.931
 2732POPC   GL236506   5.722  10.034   9.087
 2732POPC   C1A36507   5.771   9.571   8.587
 2732POPC   D2A36508   5.587   9.267   8.359
 2732POPC   C3A36509   5.744   9.317   7.950
 2732POPC   C4A36510   5.942   9.243   7.550
 2732POPC   C1B36511   5.519  10.014   8.702
 2732POPC   C2B36512   5.631   9.939   8.287
 2732POPC   C3B36513   5.997   9.943   8.071
 2732POPC   C4B36514   5.986   9.705   7.732
 2733POPC   NC336515  41.192   8.840   9.539
 2733POPC   PO436516  41.709   9.219   9.869
 2733POPC   GL136517  41.756   9.162   9.388
 2733POPC   GL236518  41.674   8.824   9.269
 2733POPC   C1A36519  41.777   9.169   8.894
 2733POPC   D2A36520  41.646   9.011   8.471
 2733POPC   C3A36521  41.764   9.151   8.039
 2733POPC   C4A36522  41.934   8.964   7.664
 2733POPC   C1B36523  41.373   8.794   8.912
 2733POPC   C2B36524  41.325   8.625   8.513
 2733POPC   C3B36525  41.200   8.649   8.090
 2733POPC   C4B36526  41.433   8.774   7.733
 2734POPC   NC336527   5.489  36.510   9.391
 2734POPC   PO436528   4.818  36.193   9.531
 2734POPC   GL136529   4.971  35.956   9.173
 2734POPC   GL236530   5.136  36.271   9.055
 2734POPC   C1A36531   5.042  35.892   8.723
 2734POPC   D2A36532   4.895  36.123   8.365
 2734POPC   C3A36533   4.842  35.909   7.989
 2734POPC   C4A36534   5.133  35.735   7.712
 2734POPC   C1B36535   5.443  36.374   8.721
 2734POPC   C2B36536   5.439  36.378   8.265
 2734POPC   C3B36537   5.239  36.193   7.916
 2734POPC   C4B36538   5.323  36.145   7.441
 2735POPC   NC336539  24.842  14.114   9.338
 2735POPC   PO436540  25.401  14.293   9.702
 2735POPC   GL136541  25.258  14.420   9.311
 2735POPC   GL236542  25.378  14.115   9.212
 2735POPC   C1A36543  25.165  14.543   8.877
 2735POPC   D2A36544  25.337  14.793   8.519
 2735POPC   C3A36545  25.262  14.683   8.086
 2735POPC   C4A36546  25.201  14.389   7.769
 2735POPC   C1B36547  25.294  14.028   8.784
 2735POPC   C2B36548  25.263  14.221   8.388
 2735POPC   C3B36549  25.509  14.063   8.046
 2735POPC   C4B36550  25.645  14.156   7.645
 2736POPC   NC336551  43.605  20.264   9.626
 2736POPC   PO436552  44.239  20.580   9.622
 2736POPC   GL136553  44.063  20.676   9.213
 2736POPC   GL236554  44.299  20.920   9.116
 2736POPC   C1A36555  43.861  20.810   8.815
 2736POPC   D2A36556  43.902  21.012   8.416
 2736POPC   C3A36557  43.841  20.813   8.001
 2736POPC   C4A36558  43.709  20.383   7.863
 2736POPC   C1B36559  44.341  20.644   8.761
 2736POPC   C2B36560  44.121  20.434   8.424
 2736POPC   C3B36561  44.214  20.332   7.999
 2736POPC   C4B36562  44.279  20.539   7.627
 2737POPC   NC336563   7.135   4.055   9.482
 2737POPC   PO436564   7.614   3.645   9.269
 2737POPC   GL136565   7.354   3.453   9.031
 2737POPC   GL236566   7.174   3.788   9.046
 2737POPC   C1A36567   7.447   3.219   8.663
 2737POPC   D2A36568   7.429   3.457   8.299
 2737POPC   C3A36569   7.629   3.408   7.915
 2737POPC   C4A36570   7.719   3.690   7.570
 2737POPC   C1B36571   7.074   3.634   8.645
 2737POPC   C2B36572   6.865   3.507   8.271
 2737POPC   C3B36573   7.126   3.645   7.936
 2737POPC   C4B36574   7.154   3.970   7.694
 2738POPC   NC336575  31.222   1.595   9.542
 2738POPC   PO436576  31.597   1.025   9.759
 2738POPC   GL136577  31.598   1.253   9.352
 2738POPC   GL236578  31.789   1.016   9.129
 2738POPC   C1A36579  31.398   1.282   8.921
 2738POPC   D2A36580  31.552   1.029   8.553
 2738POPC   C3A36581  31.409   1.036   8.110
 2738POPC   C4A36582  31.206   1.251   7.735
 2738POPC   C1B36583  31.907   1.441   8.938
 2738POPC   C2B36584  31.930   1.710   8.557
 2738POPC   C3B36585  31.812   1.717   8.113
 2738POPC   C4B36586  31.675   1.393   7.854
 2739POPC   NC336587  12.863  12.354   9.463
 2739POPC   PO436588  12.690  11.684   9.534
 2739POPC   GL136589  12.835  11.911   9.150
 2739POPC   GL236590  13.183  11.971   9.152
 2739POPC   C1A36591  12.926  12.165   8.746
 2739POPC   D2A36592  12.765  12.260   8.290
 2739POPC   C3A36593  13.013  12.115   7.937
 2739POPC   C4A36594  13.182  12.292   7.540
 2739POPC   C1B36595  13.262  11.754   8.789
 2739POPC   C2B36596  13.384  11.878   8.362
 2739POPC   C3B36597  13.223  11.666   8.011
 2739POPC   C4B36598  13.230  11.786   7.594
 2740POPC   NC336599  22.024  13.811   9.452
 2740POPC   PO436600  22.391  13.296   9.562
 2740POPC   GL136601  22.173  13.414   9.184
 2740POPC   GL236602  21.825  13.331   9.214
 2740POPC   C1A36603  22.281  13.663   8.820
 2740POPC   D2A36604  22.588  13.683   8.479
 2740POPC   C3A36605  22.390  13.827   8.106
 2740POPC   C4A36606  22.216  13.540   7.821
 2740POPC   C1B36607  21.792  13.487   8.797
 2740POPC   C2B36608  21.982  13.587   8.376
 2740POPC   C3B36609  21.799  13.325   8.035
 2740POPC   C4B36610  21.862  13.200   7.618
 2741POPC   NC336611  44.267  42.040   9.483
 2741POPC   PO436612  43.651  42.401   9.618
 2741POPC   GL136613  43.706  42.388   9.179
 2741POPC   GL236614  43.547  42.711   9.130
 2741POPC   C1A36615  43.887  42.178   8.772
 2741POPC   D2A36616  44.078  42.106   8.367
 2741POPC   C3A36617  43.865  42.082   7.992
 2741POPC   C4A36618  44.018  42.083   7.629
 2741POPC   C1B36619  43.458  42.449   8.752
 2741POPC   C2B36620  43.591  42.308   8.344
 2741POPC   C3B36621  43.641  42.556   7.970
 2741POPC   C4B36622  43.612  42.759   7.600
 2742POPC   NC336623  17.424  25.422   9.429
 2742POPC   PO436624  17.198  24.826   9.454
 2742POPC   GL136625  17.159  25.082   9.109
 2742POPC   GL236626  17.080  25.450   9.043
 2742POPC   C1A36627  17.338  25.164   8.711
 2742POPC   D2A36628  17.063  25.334   8.443
 2742POPC   C3A36629  17.136  25.118   8.078
 2742POPC   C4A36630  17.499  24.935   7.878
 2742POPC   C1B36631  17.393  25.663   8.742
 2742POPC   C2B36632  17.720  25.477   8.447
 2742POPC   C3B36633  17.629  25.405   8.014
 2742POPC   C4B36634  17.268  25.553   7.846
 2743POPC   NC336635  17.978  17.897   9.414
 2743POPC   PO436636  17.366  18.210   9.471
 2743POPC   GL136637  17.535  18.367   9.130
 2743POPC   GL236638  17.625  18.028   9.058
 2743POPC   C1A36639  17.356  18.349   8.728
 2743POPC   D2A36640  17.278  18.237   8.332
 2743POPC   C3A36641  17.478  18.505   8.072
 2743POPC   C4A36642  17.265  18.512   7.711
 2743POPC   C1B36643  17.820  18.136   8.671
 2743POPC   C2B36644  17.724  18.014   8.249
 2743POPC   C3B36645  17.536  18.066   7.846
 2743POPC   C4B36646  17.706  18.326   7.512
 2744POPC   NC336647   5.400   2.860   9.574
 2744POPC   PO436648   4.909   2.441   9.382
 2744POPC   GL136649   4.985   2.705   9.053
 2744POPC   GL236650   5.029   2.985   9.258
 2744POPC   C1A36651   4.925   2.771   8.609
 2744POPC   D2A36652   4.867   2.451   8.330
 2744POPC   C3A36653   4.950   2.576   7.929
 2744POPC   C4A36654   5.301   2.752   7.718
 2744POPC   C1B36655   5.177   3.144   8.858
 2744POPC   C2B36656   5.182   3.169   8.386
 2744POPC   C3B36657   5.002   3.101   7.925
 2744POPC   C4B36658   5.122   3.097   7.401
 2745POPC   NC336659  34.558  13.461   9.354
 2745POPC   PO436660  34.683  14.092   9.552
 2745POPC   GL136661  34.584  13.954   9.126
 2745POPC   GL236662  34.337  13.703   8.947
 2745POPC   C1A36663  34.746  13.848   8.695
 2745POPC   D2A36664  34.610  13.494   8.440
 2745POPC   C3A36665  34.377  13.594   8.119
 2745POPC   C4A36666  34.638  13.718   7.786
 2745POPC   C1B36667  34.212  13.338   8.723
 2745POPC   C2B36668  34.231  13.123   8.343
 2745POPC   C3B36669  34.008  13.224   7.982
 2745POPC   C4B36670  34.199  13.468   7.668
 2746POPC   NC336671  14.382  31.263   9.624
 2746POPC   PO436672  14.454  31.948   9.496
 2746POPC   GL136673  14.574  31.737   9.151
 2746POPC   GL236674  14.245  31.565   9.190
 2746POPC   C1A36675  14.527  31.537   8.733
 2746POPC   D2A36676  14.577  31.647   8.292
 2746POPC   C3A36677  14.765  31.382   7.958
 2746POPC   C4A36678  14.554  31.219   7.580
 2746POPC   C1B36679  14.129  31.902   8.889
 2746POPC   C2B36680  14.076  31.967   8.450
 2746POPC   C3B36681  14.294  32.023   8.058
 2746POPC   C4B36682  14.314  31.672   7.778
 2747POPC   NC336683  15.658  39.464   9.370
 2747POPC   PO436684  16.411  39.343   9.357
 2747POPC   GL136685  16.080  39.429   9.073
 2747POPC   GL236686  15.859  39.127   9.049
 2747POPC   C1A36687  15.797  39.561   8.747
 2747POPC   D2A36688  15.696  39.489   8.337
 2747POPC   C3A36689  15.933  39.198   8.098
 2747POPC   C4A36690  15.963  39.448   7.739
 2747POPC   C1B36691  15.997  39.111   8.634
 2747POPC   C2B36692  16.345  38.981   8.412
 2747POPC   C3B36693  16.350  38.821   8.020
 2747POPC   C4B36694  16.199  38.982   7.668
 2748POPC   NC336695  25.268  22.259   9.607
 2748POPC   PO436696  24.620  22.009   9.534
 2748POPC   GL136697  24.542  22.109   9.132
 2748POPC   GL236698  24.721  21.825   9.072
 2748POPC   C1A36699  24.300  22.293   8.784
 2748POPC   D2A36700  24.153  22.448   8.390
 2748POPC   C3A36701  24.275  22.201   8.055
 2748POPC   C4A36702  24.612  22.249   7.810
 2748POPC   C1B36703  24.519  21.839   8.702
 2748POPC   C2B36704  24.604  21.642   8.337
 2748POPC   C3B36705  24.548  21.755   7.906
 2748POPC   C4B36706  24.284  21.931   7.575
 2749POPC   NC336707  13.310   8.720   9.350
 2749POPC   PO436708  13.970   8.803   9.434
 2749POPC   GL136709  13.727   8.923   9.091
 2749POPC   GL236710  13.538   9.194   9.205
 2749POPC   C1A36711  13.608   8.875   8.679
 2749POPC   D2A36712  13.844   8.901   8.298
 2749POPC   C3A36713  13.812   8.962   7.864
 2749POPC   C4A36714  13.501   8.766   7.636
 2749POPC   C1B36715  13.622   9.374   8.790
 2749POPC   C2B36716  13.386   9.233   8.411
 2749POPC   C3B36717  13.431   9.253   7.983
 2749POPC   C4B36718  13.776   9.504   7.858
 2750POPC   NC336719  42.372  39.591   9.486
 2750POPC   PO436720  42.014  40.159   9.409
 2750POPC   GL136721  42.330  39.970   9.142
 2750POPC   GL236722  42.340  39.602   8.992
 2750POPC   C1A36723  42.583  40.032   8.804
 2750POPC   D2A36724  42.508  39.896   8.395
 2750POPC   C3A36725  42.302  40.208   8.136
 2750POPC   C4A36726  42.435  40.369   7.759
 2750POPC   C1B36727  42.028  39.809   8.778
 2750POPC   C2B36728  41.974  39.878   8.369
 2750POPC   C3B36729  42.208  39.695   8.035
 2750POPC   C4B36730  42.071  39.564   7.673
 2751POPC   NC336731  16.807   8.729   9.424
 2751POPC   PO436732  16.592   8.152   9.687
 2751POPC   GL136733  16.500   8.239   9.254
 2751POPC   GL236734  16.535   7.930   9.062
 2751POPC   C1A36735  16.654   8.387   8.844
 2751POPC   D2A36736  16.620   8.501   8.415
 2751POPC   C3A36737  16.907   8.349   8.114
 2751POPC   C4A36738  16.740   8.274   7.726
 2751POPC   C1B36739  16.505   7.942   8.596
 2751POPC   C2B36740  16.471   8.035   8.149
 2751POPC   C3B36741  16.428   7.870   7.720
 2751POPC   C4B36742  16.658   7.606   7.402
 2752POPC   NC336743   9.481  10.169   9.384
 2752POPC   PO436744  10.008  10.523   9.662
 2752POPC   GL136745   9.701  10.628   9.317
 2752POPC   GL236746   9.947  10.736   9.127
 2752POPC   C1A36747   9.483  10.603   8.905
 2752POPC   D2A36748   9.525  10.742   8.477
 2752POPC   C3A36749   9.809  10.554   8.212
 2752POPC   C4A36750   9.637  10.660   7.850
 2752POPC   C1B36751   9.978  10.570   8.724
 2752POPC   C2B36752  10.054  10.193   8.492
 2752POPC   C3B36753  10.184  10.189   8.091
 2752POPC   C4B36754  10.055  10.411   7.762
 2753POPC   NC336755   1.264  26.340   9.707
 2753POPC   PO436756   0.876  25.848   9.487
 2753POPC   GL136757   1.069  26.092   9.160
 2753POPC   GL236758   1.431  25.991   9.180
 2753POPC   C1A36759   1.191  26.178   8.707
 2753POPC   D2A36760   1.013  26.221   8.288
 2753POPC   C3A36761   1.192  26.147   7.904
 2753POPC   C4A36762   0.958  26.333   7.623
 2753POPC   C1B36763   1.238  25.706   8.879
 2753POPC   C2B36764   1.115  25.744   8.435
 2753POPC   C3B36765   1.054  25.665   7.996
 2753POPC   C4B36766   1.439  25.698   7.750
 2754POPC   NC336767   3.300  15.312   9.249
 2754POPC   PO436768   2.641  15.104   9.599
 2754POPC   GL136769   2.644  15.093   9.163
 2754POPC   GL236770   2.798  15.424   9.185
 2754POPC   C1A36771   2.924  15.040   8.776
 2754POPC   D2A36772   3.067  15.202   8.387
 2754POPC   C3A36773   2.995  14.940   8.048
 2754POPC   C4A36774   2.697  15.040   7.763
 2754POPC   C1B36775   2.622  15.444   8.766
 2754POPC   C2B36776   2.710  15.633   8.382
 2754POPC   C3B36777   2.891  15.550   7.993
 2754POPC   C4B36778   2.698  15.518   7.600
 2755POPC   NC336779  28.848   4.721   9.185
 2755POPC   PO436780  29.346   4.675   9.615
 2755POPC   GL136781  29.347   4.902   9.196
 2755POPC   GL236782  29.256   5.262   9.118
 2755POPC   C1A36783  29.365   4.933   8.732
 2755POPC   D2A36784  29.355   5.098   8.336
 2755POPC   C3A36785  29.534   5.006   7.950
 2755POPC   C4A36786  29.318   5.378   7.821
 2755POPC   C1B36787  28.940   5.213   8.743
 2755POPC   C2B36788  28.864   4.906   8.380
 2755POPC   C3B36789  29.036   4.921   7.958
 2755POPC   C4B36790  28.978   5.117   7.537
 2756POPC   NC336791  22.120   4.758   9.586
 2756POPC   PO436792  22.470   5.266   9.665
 2756POPC   GL136793  22.254   5.122   9.246
 2756POPC   GL236794  21.895   5.060   9.199
 2756POPC   C1A36795  22.244   5.114   8.781
 2756POPC   D2A36796  22.342   5.198   8.352
 2756POPC   C3A36797  22.051   5.128   8.009
 2756POPC   C4A36798  22.346   5.028   7.664
 2756POPC   C1B36799  21.843   4.792   8.831
 2756POPC   C2B36800  21.988   4.751   8.409
 2756POPC   C3B36801  22.134   4.641   8.001
 2756POPC   C4B36802  21.949   4.732   7.634
 2757POPC   NC336803  13.313   7.954   9.938
 2757POPC   PO436804  13.930   8.047   9.640
 2757POPC   GL136805  13.604   8.099   9.316
 2757POPC   GL236806  13.687   8.418   9.240
 2757POPC   C1A36807  13.446   8.077   8.872
 2757POPC   D2A36808  13.504   7.873   8.444
 2757POPC   C3A36809  13.381   8.019   8.023
 2757POPC   C4A36810  13.537   8.169   7.598
 2757POPC   C1B36811  13.799   8.433   8.821
 2757POPC   C2B36812  13.555   8.406   8.446
 2757POPC   C3B36813  13.633   8.477   8.030
 2757POPC   C4B36814  13.956   8.516   7.702
 2758POPC   NC336815  40.862  14.988   9.532
 2758POPC   PO436816  40.915  15.603   9.501
 2758POPC   GL136817  40.709  15.345   9.220
 2758POPC   GL236818  41.025  15.258   9.119
 2758POPC   C1A36819  40.623  15.080   8.877
 2758POPC   D2A36820  40.675  15.181   8.448
 2758POPC   C3A36821  40.433  14.974   8.160
 2758POPC   C4A36822  40.708  14.911   7.839
 2758POPC   C1B36823  40.980  15.486   8.755
 2758POPC   C2B36824  41.166  15.402   8.372
 2758POPC   C3B36825  40.997  15.298   7.996
 2758POPC   C4B36826  41.079  15.277   7.566
 2759POPC   NC336827  38.348  27.242   9.640
 2759POPC   PO436828  38.645  26.604   9.466
 2759POPC   GL136829  38.542  26.676   9.042
 2759POPC   GL236830  38.203  26.662   8.993
 2759POPC   C1A36831  38.494  26.674   8.592
 2759POPC   D2A36832  38.172  26.493   8.453
 2759POPC   C3A36833  38.137  26.560   8.027
 2759POPC   C4A36834  38.478  26.794   7.797
 2759POPC   C1B36835  38.079  26.972   8.686
 2759POPC   C2B36836  38.141  27.025   8.252
 2759POPC   C3B36837  38.003  27.014   7.810
 2759POPC   C4B36838  38.000  27.088   7.369
 2760POPC   NC336839  42.778  37.854   9.760
 2760POPC   PO436840  43.332  37.560   9.466
 2760POPC   GL136841  43.316  37.353   9.110
 2760POPC   GL236842  42.966  37.274   9.105
 2760POPC   C1A36843  43.213  37.587   8.741
 2760POPC   D2A36844  42.892  37.783   8.449
 2760POPC   C3A36845  43.033  37.946   8.037
 2760POPC   C4A36846  43.175  37.843   7.621
 2760POPC   C1B36847  42.751  37.356   8.745
 2760POPC   C2B36848  42.607  37.291   8.382
 2760POPC   C3B36849  42.746  37.500   8.032
 2760POPC   C4B36850  42.802  37.335   7.666
 2761POPC   NC336851  26.801  12.394   9.485
 2761POPC   PO436852  27.131  11.776   9.421
 2761POPC   GL136853  26.797  12.030   9.119
 2761POPC   GL236854  26.520  12.308   9.079
 2761POPC   C1A36855  26.630  11.871   8.722
 2761POPC   D2A36856  26.832  12.006   8.345
 2761POPC   C3A36857  26.641  11.956   7.963
 2761POPC   C4A36858  26.702  11.566   7.799
 2761POPC   C1B36859  26.694  12.377   8.686
 2761POPC   C2B36860  26.975  12.559   8.408
 2761POPC   C3B36861  26.897  12.641   7.980
 2761POPC   C4B36862  26.803  12.364   7.648
 2762POPC   NC336863  27.267  44.038   9.475
 2762POPC   PO436864  27.801  44.179   9.704
 2762POPC   GL136865  27.667  44.238   9.256
 2762POPC   GL236866  27.678  43.844   9.211
 2762POPC   C1A36867  27.523  44.168   8.816
 2762POPC   D2A36868  27.483  44.349   8.387
 2762POPC   C3A36869  27.550  44.006   8.095
 2762POPC   C4A36870  27.436  43.904   7.683
 2762POPC   C1B36871  27.916  43.803   8.835
 2762POPC   C2B36872  27.861  43.701   8.396
 2762POPC   C3B36873  28.045  43.516   8.021
 2762POPC   C4B36874  27.916  43.724   7.638
 2763POPC   NC336875  44.113  11.033   9.579
 2763POPC   PO436876  43.904  10.343   9.481
 2763POPC   GL136877  43.930  10.530   9.114
 2763POPC   GL236878  43.824  10.861   9.120
 2763POPC   C1A36879  43.778  10.521   8.702
 2763POPC   D2A36880  43.653  10.568   8.299
 2763POPC   C3A36881  43.836  10.264   8.070
 2763POPC   C4A36882  44.049  10.312   7.756
 2763POPC   C1B36883  43.907  11.045   8.719
 2763POPC   C2B36884  43.920  11.049   8.279
 2763POPC   C3B36885  43.948  10.818   7.893
 2763POPC   C4B36886  44.098  11.018   7.500
 2764POPC   NC336887  44.627  20.857   9.551
 2764POPC   PO436888  44.897  20.199   9.600
 2764POPC   GL136889  44.879  20.523   9.279
 2764POPC   GL236890  44.543  20.445   9.209
 2764POPC   C1A36891  44.826  20.859   8.902
 2764POPC   D2A36892  44.693  20.843   8.435
 2764POPC   C3A36893  44.837  20.927   7.987
 2764POPC   C4A36894   0.014  20.703   7.661
 2764POPC   C1B36895  44.764  20.368   8.824
 2764POPC   C2B36896  44.650  20.311   8.437
 2764POPC   C3B36897  44.715  20.450   8.080
 2764POPC   C4B36898  44.714  20.268   7.745
 2765POPC   NC336899  41.649  10.424   9.505
 2765POPC   PO436900  41.186  10.789   9.241
 2765POPC   GL136901  41.337  10.421   9.001
 2765POPC   GL236902  41.700  10.437   8.999
 2765POPC   C1A36903  41.351  10.342   8.567
 2765POPC   D2A36904  41.628  10.632   8.336
 2765POPC   C3A36905  41.653  10.527   7.905
 2765POPC   C4A36906  41.344  10.432   7.600
 2765POPC   C1B36907  41.833  10.221   8.628
 2765POPC   C2B36908  41.713  10.035   8.223
 2765POPC   C3B36909  41.740  10.066   7.758
 2765POPC   C4B36910  41.712  10.265   7.309
 2766POPC   NC336911  31.212  17.353   9.629
 2766POPC   PO436912  31.793  17.036   9.482
 2766POPC   GL136913  31.583  17.370   9.225
 2766POPC   GL236914  31.236  17.352   9.144
 2766POPC   C1A36915  31.560  17.644   8.840
 2766POPC   D2A36916  31.353  17.714   8.436
 2766POPC   C3A36917  31.455  17.622   8.015
 2766POPC   C4A36918  31.197  17.752   7.674
 2766POPC   C1B36919  31.373  17.149   8.799
 2766POPC   C2B36920  31.257  17.190   8.406
 2766POPC   C3B36921  31.463  17.117   8.056
 2766POPC   C4B36922  31.383  17.199   7.631
 2767POPC   NC336923  28.085   3.996   9.646
 2767POPC   PO436924  28.453   4.544   9.356
 2767POPC   GL136925  28.420   4.200   9.097
 2767POPC   GL236926  28.078   4.059   9.133
 2767POPC   C1A36927  28.405   4.326   8.666
 2767POPC   D2A36928  28.315   4.607   8.320
 2767POPC   C3A36929  28.163   4.459   7.929
 2767POPC   C4A36930  28.329   4.366   7.541
 2767POPC   C1B36931  28.183   3.865   8.754
 2767POPC   C2B36932  28.177   4.011   8.337
 2767POPC   C3B36933  28.388   4.006   7.949
 2767POPC   C4B36934  28.328   3.821   7.560
 2768POPC   NC336935  23.619   9.409   9.503
 2768POPC   PO436936  23.905   8.723   9.648
 2768POPC   GL136937  23.926   8.907   9.214
 2768POPC   GL236938  23.638   9.105   9.115
 2768POPC   C1A36939  23.790   8.784   8.783
 2768POPC   D2A36940  23.579   8.927   8.414
 2768POPC   C3A36941  23.730   8.796   8.040
 2768POPC   C4A36942  23.998   8.535   7.796
 2768POPC   C1B36943  23.423   9.295   8.760
 2768POPC   C2B36944  23.415   9.411   8.308
 2768POPC   C3B36945  23.619   9.297   7.927
 2768POPC   C4B36946  23.541   9.233   7.478
 2769POPC   NC336947   3.854  39.043   9.370
 2769POPC   PO436948   4.408  38.716   9.649
 2769POPC   GL136949   4.320  38.453   9.290
 2769POPC   GL236950   4.664  38.508   9.171
 2769POPC   C1A36951   4.342  38.203   8.906
 2769POPC   D2A36952   4.321  38.368   8.489
 2769POPC   C3A36953   4.399  38.233   8.083
 2769POPC   C4A36954   4.302  38.388   7.685
 2769POPC   C1B36955   4.771  38.429   8.745
 2769POPC   C2B36956   4.756  38.521   8.296
 2769POPC   C3B36957   4.768  38.520   7.868
 2769POPC   C4B36958   4.717  38.496   7.404
 2770POPC   NC336959  43.711  30.381   9.619
 2770POPC   PO436960  43.576  29.670   9.621
 2770POPC   GL136961  43.785  29.952   9.330
 2770POPC   GL236962  44.144  29.933   9.412
 2770POPC   C1A36963  43.642  30.122   8.914
 2770POPC   D2A36964  43.521  30.025   8.471
 2770POPC   C3A36965  43.720  30.140   8.067
 2770POPC   C4A36966  43.642  30.013   7.601
 2770POPC   C1B36967  44.158  29.985   8.976
 2770POPC   C2B36968  44.055  29.910   8.543
 2770POPC   C3B36969  44.120  29.687   8.168
 2770POPC   C4B36970  44.082  29.877   7.779
 2771POPC   NC336971   6.047  21.833   9.411
 2771POPC   PO436972   5.874  22.450   9.547
 2771POPC   GL136973   5.737  22.198   9.219
 2771POPC   GL236974   6.087  22.275   9.098
 2771POPC   C1A36975   5.698  22.008   8.824
 2771POPC   D2A36976   5.818  22.167   8.444
 2771POPC   C3A36977   5.543  22.188   8.108
 2771POPC   C4A36978   5.682  22.015   7.746
 2771POPC   C1B36979   6.243  22.043   8.750
 2771POPC   C2B36980   6.364  22.129   8.336
 2771POPC   C3B36981   6.099  22.119   7.997
 2771POPC   C4B36982   6.160  21.918   7.619
 2772POPC   NC336983  40.554   8.715   9.951
 2772POPC   PO436984  40.784   9.266   9.619
 2772POPC   GL136985  40.941   9.130   9.194
 2772POPC   GL236986  41.291   9.234   9.208
 2772POPC   C1A36987  40.837   8.942   8.779
 2772POPC   D2A36988  40.617   9.100   8.368
 2772POPC   C3A36989  40.803   8.972   7.962
 2772POPC   C4A36990  40.886   8.628   7.662
 2772POPC   C1B36991  41.290   9.288   8.782
 2772POPC   C2B36992  41.135   9.137   8.428
 2772POPC   C3B36993  41.000   9.416   8.170
 2772POPC   C4B36994  41.249   9.207   7.909
 2773POPC   NC336995   2.096  32.774   9.841
 2773POPC   PO436996   1.724  33.229   9.603
 2773POPC   GL136997   1.681  33.128   9.153
 2773POPC   GL236998   1.951  32.919   9.171
 2773POPC   C1A36999   1.674  32.914   8.743
 2773POPC   D2A37000   1.991  33.003   8.400
 2773POPC   C3A37001   1.940  32.986   7.949
 2773POPC   C4A37002   1.763  33.139   7.540
 2773POPC   C1B37003   2.155  32.701   8.792
 2773POPC   C2B37004   2.422  32.679   8.375
 2773POPC   C3B37005   2.446  32.671   7.903
 2773POPC   C4B37006   2.140  32.717   7.548
 2774POPC   NC337007  16.309  44.054   9.556
 2774POPC   PO437008  15.706  44.358   9.605
 2774POPC   GL137009  15.866  44.165   9.173
 2774POPC   GL237010  16.071  43.834   9.163
 2774POPC   C1A37011  15.775  43.889   8.765
 2774POPC   D2A37012  16.029  43.811   8.384
 2774POPC   C3A37013  15.827  43.839   7.953
 2774POPC   C4A37014  15.881  44.139   7.596
 2774POPC   C1B37015  16.306  43.604   8.821
 2774POPC   C2B37016  16.302  43.358   8.440
 2774POPC   C3B37017  16.249  43.509   8.021
 2774POPC   C4B37018  16.560  43.637   7.751
 2775POPC   NC337019  35.129  10.210   9.443
 2775POPC   PO437020  35.583  10.735   9.555
 2775POPC   GL137021  35.404  10.612   9.226
 2775POPC   GL237022  35.543  10.321   9.171
 2775POPC   C1A37023  35.299  10.585   8.807
 2775POPC   D2A37024  35.187  10.431   8.431
 2775POPC   C3A37025  35.258  10.720   8.110
 2775POPC   C4A37026  35.431  10.913   7.760
 2775POPC   C1B37027  35.679  10.216   8.801
 2775POPC   C2B37028  35.701  10.455   8.448
 2775POPC   C3B37029  35.593  10.335   8.045
 2775POPC   C4B37030  35.757  10.488   7.679
 2776POPC   NC337031  11.898  24.572   9.595
 2776POPC   PO437032  12.359  24.179   9.409
 2776POPC   GL137033  12.077  24.422   9.145
 2776POPC   GL237034  11.701  24.335   9.172
 2776POPC   C1A37035  12.067  24.706   8.827
 2776POPC   D2A37036  12.260  24.643   8.478
 2776POPC   C3A37037  12.106  24.625   8.125
 2776POPC   C4A37038  12.072  24.589   7.742
 2776POPC   C1B37039  11.774  24.309   8.735
 2776POPC   C2B37040  11.700  24.505   8.378
 2776POPC   C3B37041  11.685  24.299   7.970
 2776POPC   C4B37042  11.762  24.250   7.508
 2777POPC   NC337043  11.307  15.190   9.500
 2777POPC   PO437044  12.017  15.509   9.425
 2777POPC   GL137045  11.584  15.511   9.154
 2777POPC   GL237046  11.236  15.316   9.031
 2777POPC   C1A37047  11.472  15.563   8.689
 2777POPC   D2A37048  11.584  15.218   8.405
 2777POPC   C3A37049  11.320  15.171   8.065
 2777POPC   C4A37050  11.400  15.150   7.625
 2777POPC   C1B37051  11.110  15.194   8.591
 2777POPC   C2B37052  11.014  14.833   8.313
 2777POPC   C3B37053  11.076  14.773   7.867
 2777POPC   C4B37054  10.989  14.814   7.425
 2778POPC   NC337055  22.422   6.437   9.576
 2778POPC   PO437056  23.124   6.599   9.732
 2778POPC   GL137057  22.874   6.527   9.338
 2778POPC   GL237058  22.664   6.831   9.301
 2778POPC   C1A37059  22.619   6.435   8.928
 2778POPC   D2A37060  22.580   6.411   8.446
 2778POPC   C3A37061  22.943   6.483   8.199
 2778POPC   C4A37062  23.049   6.486   7.788
 2778POPC   C1B37063  22.721   6.947   8.866
 2778POPC   C2B37064  22.917   6.911   8.463
 2778POPC   C3B37065  22.957   6.957   8.010
 2778POPC   C4B37066  23.179   6.987   7.614
 2779POPC   NC337067  35.437  39.967   9.624
 2779POPC   PO437068  34.892  39.691   9.341
 2779POPC   GL137069  35.137  40.052   9.098
 2779POPC   GL237070  35.501  40.115   9.125
 2779POPC   C1A37071  35.195  40.163   8.656
 2779POPC   D2A37072  35.346  39.882   8.336
 2779POPC   C3A37073  35.160  39.766   7.952
 2779POPC   C4A37074  35.386  39.802   7.538
 2779POPC   C1B37075  35.632  40.405   8.759
 2779POPC   C2B37076  35.544  40.371   8.290
 2779POPC   C3B37077  35.468  40.229   7.871
 2779POPC   C4B37078  35.574  40.395   7.471
 2780POPC   NC337079   7.911  36.223   9.381
 2780POPC   PO437080   8.477  35.855   9.198
 2780POPC   GL137081   8.279  36.244   9.021
 2780POPC   GL237082   8.419  36.570   9.145
 2780POPC   C1A37083   7.936  36.275   8.694
 2780POPC   D2A37084   7.867  36.015   8.313
 2780POPC   C3A37085   8.176  35.895   7.979
 2780POPC   C4A37086   7.964  36.011   7.576
 2780POPC   C1B37087   8.483  36.564   8.679
 2780POPC   C2B37088   8.322  36.295   8.332
 2780POPC   C3B37089   8.170  36.397   7.928
 2780POPC   C4B37090   8.324  36.366   7.492
 2781POPC   NC337091  44.705   6.897   9.578
 2781POPC   PO437092  44.910   6.201   9.625
 2781POPC   GL137093  44.858   6.520   9.250
 2781POPC   GL237094  44.563   6.718   9.127
 2781POPC   C1A37095  44.983   6.710   8.858
 2781POPC   D2A37096  44.701   6.890   8.541
 2781POPC   C3A37097  44.774   6.670   8.175
 2781POPC   C4A37098  44.667   6.441   7.818
 2781POPC   C1B37099  44.349   7.072   8.895
 2781POPC   C2B37100  44.270   7.219   8.485
 2781POPC   C3B37101  44.459   7.125   8.104
 2781POPC   C4B37102  44.723   6.992   7.797
 2782POPC   NC337103  11.028  35.517   9.326
 2782POPC   PO437104  11.513  35.268   9.774
 2782POPC   GL137105  11.416  35.007   9.290
 2782POPC   GL237106  11.129  35.040   9.070
 2782POPC   C1A37107  11.595  34.999   8.816
 2782POPC   D2A37108  11.576  35.153   8.343
 2782POPC   C3A37109  11.281  35.300   8.020
 2782POPC   C4A37110  11.157  35.266   7.576
 2782POPC   C1B37111  11.163  35.290   8.655
 2782POPC   C2B37112  11.097  35.643   8.352
 2782POPC   C3B37113  10.981  35.688   7.896
 2782POPC   C4B37114  10.993  35.739   7.422
 2783POPC   NC337115  24.472  24.999   9.463
 2783POPC   PO437116  24.970  25.437   9.588
 2783POPC   GL137117  24.683  25.364   9.198
 2783POPC   GL237118  24.450  25.611   9.094
 2783POPC   C1A37119  24.440  25.178   8.808
 2783POPC   D2A37120  24.287  25.175   8.364
 2783POPC   C3A37121  24.545  24.989   8.067
 2783POPC   C4A37122  24.878  25.222   7.895
 2783POPC   C1B37123  24.680  25.614   8.723
 2783POPC   C2B37124  24.436  25.690   8.361
 2783POPC   C3B37125  24.216  25.555   8.006
 2783POPC   C4B37126  24.568  25.605   7.757
 2784POPC   NC337127  29.245  10.768   9.560
 2784POPC   PO437128  29.138  10.064   9.583
 2784POPC   GL137129  29.250  10.354   9.239
 2784POPC   GL237130  28.935  10.513   9.164
 2784POPC   C1A37131  29.356  10.395   8.815
 2784POPC   D2A37132  29.010  10.443   8.508
 2784POPC   C3A37133  29.031  10.429   8.035
 2784POPC   C4A37134  29.363  10.409   7.740
 2784POPC   C1B37135  28.807  10.820   8.861
 2784POPC   C2B37136  28.786  11.025   8.502
 2784POPC   C3B37137  28.988  10.926   8.146
 2784POPC   C4B37138  29.051  10.905   7.725
 2785POPC   NC337139  23.713  30.979   9.568
 2785POPC   PO437140  23.366  30.431   9.355
 2785POPC   GL137141  23.710  30.675   9.155
 2785POPC   GL237142  24.085  30.778   9.246
 2785POPC   C1A37143  23.788  30.781   8.714
 2785POPC   D2A37144  23.680  30.772   8.273
 2785POPC   C3A37145  23.843  30.520   7.917
 2785POPC   C4A37146  23.430  30.368   7.771
 2785POPC   C1B37147  24.258  30.909   8.825
 2785POPC   C2B37148  24.147  31.013   8.373
 2785POPC   C3B37149  23.973  31.000   7.921
 2785POPC   C4B37150  23.522  30.897   7.772
 2786POPC   NC337151  30.310  37.612   9.594
 2786POPC   PO437152  31.018  37.745   9.543
 2786POPC   GL137153  30.652  37.824   9.250
 2786POPC   GL237154  30.850  38.041   9.044
 2786POPC   C1A37155  30.464  37.745   8.804
 2786POPC   D2A37156  30.489  37.329   8.545
 2786POPC   C3A37157  30.415  37.273   8.079
 2786POPC   C4A37158  30.580  37.348   7.645
 2786POPC   C1B37159  30.875  38.049   8.594
 2786POPC   C2B37160  30.661  37.783   8.304
 2786POPC   C3B37161  30.455  37.791   7.927
 2786POPC   C4B37162  30.531  37.810   7.444
 2787POPC   NC337163  12.616   3.585   9.550
 2787POPC   PO437164  13.207   3.803   9.521
 2787POPC   GL137165  12.925   3.737   9.167
 2787POPC   GL237166  12.927   3.387   9.168
 2787POPC   C1A37167  12.597   3.610   8.846
 2787POPC   D2A37168  12.722   3.579   8.438
 2787POPC   C3A37169  12.533   3.667   8.083
 2787POPC   C4A37170  12.710   3.902   7.756
 2787POPC   C1B37171  13.088   3.416   8.770
 2787POPC   C2B37172  13.038   3.188   8.396
 2787POPC   C3B37173  13.239   3.170   8.022
 2787POPC   C4B37174  13.233   3.131   7.599
 2788POPC   NC337175   4.743  24.956   9.569
 2788POPC   PO437176   4.071  24.924   9.466
 2788POPC   GL137177   4.358  24.640   9.163
 2788POPC   GL237178   4.451  24.241   9.170
 2788POPC   C1A37179   4.289  24.483   8.722
 2788POPC   D2A37180   4.046  24.526   8.349
 2788POPC   C3A37181   4.053  24.841   8.037
 2788POPC   C4A37182   3.905  24.550   7.742
 2788POPC   C1B37183   4.678  24.159   8.759
 2788POPC   C2B37184   4.648  24.216   8.344
 2788POPC   C3B37185   4.689  24.191   7.920
 2788POPC   C4B37186   4.391  24.500   7.844
 2789POPC   NC337187  35.513  11.632   9.237
 2789POPC   PO437188  35.009  11.541   9.695
 2789POPC   GL137189  35.370  11.176   9.367
 2789POPC   GL237190  35.167  11.024   9.039
 2789POPC   C1A37191  35.648  11.072   8.944
 2789POPC   D2A37192  35.538  10.933   8.509
 2789POPC   C3A37193  35.515  11.231   8.156
 2789POPC   C4A37194  35.683  11.381   7.744
 2789POPC   C1B37195  35.073  11.167   8.603
 2789POPC   C2B37196  34.927  11.523   8.363
 2789POPC   C3B37197  35.173  11.705   8.060
 2789POPC   C4B37198  35.181  11.381   7.785
 2790POPC   NC337199  32.816   5.314   9.459
 2790POPC   PO437200  33.036   4.595   9.411
 2790POPC   GL137201  32.972   4.917   9.150
 2790POPC   GL237202  33.268   5.157   9.223
 2790POPC   C1A37203  32.999   4.837   8.710
 2790POPC   D2A37204  33.315   4.852   8.392
 2790POPC   C3A37205  33.204   5.010   7.968
 2790POPC   C4A37206  33.195   4.898   7.526
 2790POPC   C1B37207  33.094   5.323   8.835
 2790POPC   C2B37208  33.130   5.331   8.391
 2790POPC   C3B37209  33.175   5.543   8.010
 2790POPC   C4B37210  33.198   5.428   7.594
 2791POPC   NC337211   5.760  15.211   9.485
 2791POPC   PO437212   6.353  15.463   9.348
 2791POPC   GL137213   6.019  15.320   9.051
 2791POPC   GL237214   5.876  14.975   9.055
 2791POPC   C1A37215   5.968  15.197   8.604
 2791POPC   D2A37216   6.286  15.094   8.299
 2791POPC   C3A37217   6.296  15.384   7.949
 2791POPC   C4A37218   5.850  15.476   7.896
 2791POPC   C1B37219   6.135  14.733   8.817
 2791POPC   C2B37220   6.181  14.611   8.421
 2791POPC   C3B37221   5.891  14.780   8.139
 2791POPC   C4B37222   6.038  14.972   7.787
 2792POPC   NC337223   5.525  42.847   9.253
 2792POPC   PO437224   5.222  43.301   9.678
 2792POPC   GL137225   5.134  43.192   9.249
 2792POPC   GL237226   4.873  42.942   9.206
 2792POPC   C1A37227   5.266  43.293   8.824
 2792POPC   D2A37228   5.440  43.058   8.494
 2792POPC   C3A37229   5.276  43.247   8.132
 2792POPC   C4A37230   5.197  43.453   7.745
 2792POPC   C1B37231   5.051  42.810   8.791
 2792POPC   C2B37232   4.961  42.890   8.364
 2792POPC   C3B37233   4.875  42.732   7.955
 2792POPC   C4B37234   4.996  42.957   7.580
 2793POPC   NC337235  32.677  38.392   9.481
 2793POPC   PO437236  33.276  38.119   9.159
 2793POPC   GL137237  32.973  38.318   9.083
 2793POPC   GL237238  32.700  38.079   9.094
 2793POPC   C1A37239  32.986  38.662   8.824
 2793POPC   D2A37240  32.996  38.805   8.410
 2793POPC   C3A37241  33.179  38.576   8.070
 2793POPC   C4A37242  33.142  38.711   7.632
 2793POPC   C1B37243  32.671  38.237   8.698
 2793POPC   C2B37244  32.804  38.323   8.315
 2793POPC   C3B37245  32.690  38.535   7.959
 2793POPC   C4B37246  32.782  38.316   7.594
 2794POPC   NC337247  44.531  30.259   9.482
 2794POPC   PO437248  44.466  29.540   9.547
 2794POPC   GL137249  44.610  29.603   9.139
 2794POPC   GL237250  44.681  29.943   9.121
 2794POPC   C1A37251  44.496  29.702   8.715
 2794POPC   D2A37252  44.565  29.925   8.336
 2794POPC   C3A37253  44.591  29.752   7.960
 2794POPC   C4A37254  44.866  29.853   7.670
 2794POPC   C1B37255  44.575  30.216   8.747
 2794POPC   C2B37256  44.828  30.374   8.387
 2794POPC   C3B37257  44.794  30.307   7.947
 2794POPC   C4B37258  44.467  30.174   7.669
 2795POPC   NC337259  28.252  21.065   9.471
 2795POPC   PO437260  28.665  21.451   9.547
 2795POPC   GL137261  28.372  21.471   9.163
 2795POPC   GL237262  28.000  21.389   9.164
 2795POPC   C1A37263  28.343  21.514   8.712
 2795POPC   D2A37264  28.649  21.534   8.378
 2795POPC   C3A37265  28.635  21.230   8.047
 2795POPC   C4A37266  28.589  21.320   7.644
 2795POPC   C1B37267  28.029  21.101   8.783
 2795POPC   C2B37268  28.228  21.104   8.351
 2795POPC   C3B37269  28.102  21.106   7.896
 2795POPC   C4B37270  28.145  21.103   7.410
 2796POPC   NC337271  20.436  18.663   9.933
 2796POPC   PO437272  20.778  18.360   9.451
 2796POPC   GL137273  20.559  18.283   9.082
 2796POPC   GL237274  20.408  17.978   9.113
 2796POPC   C1A37275  20.686  18.352   8.648
 2796POPC   D2A37276  20.868  18.200   8.254
 2796POPC   C3A37277  20.731  18.334   7.835
 2796POPC   C4A37278  20.612  18.705   7.588
 2796POPC   C1B37279  20.220  18.138   8.723
 2796POPC   C2B37280  20.337  18.193   8.300
 2796POPC   C3B37281  20.261  18.110   7.913
 2796POPC   C4B37282  20.281  18.338   7.537
 2797POPC   NC337283  44.273  21.881   9.784
 2797POPC   PO437284  43.741  22.305   9.513
 2797POPC   GL137285  43.798  22.130   9.133
 2797POPC   GL237286  43.696  21.776   9.128
 2797POPC   C1A37287  43.817  22.302   8.713
 2797POPC   D2A37288  43.603  22.153   8.330
 2797POPC   C3A37289  43.820  22.276   7.959
 2797POPC   C4A37290  44.276  22.317   7.897
 2797POPC   C1B37291  43.899  21.794   8.709
 2797POPC   C2B37292  44.085  21.956   8.314
 2797POPC   C3B37293  44.065  21.818   7.886
 2797POPC   C4B37294  43.882  21.775   7.470
 2798POPC   NC337295  30.435  20.341   9.431
 2798POPC   PO437296  30.886  20.766   9.568
 2798POPC   GL137297  30.784  20.593   9.174
 2798POPC   GL237298  31.132  20.484   9.145
 2798POPC   C1A37299  30.484  20.571   8.761
 2798POPC   D2A37300  30.311  20.684   8.315
 2798POPC   C3A37301  30.596  20.592   7.963
 2798POPC   C4A37302  30.992  20.367   7.896
 2798POPC   C1B37303  31.033  20.733   8.782
 2798POPC   C2B37304  30.878  20.677   8.378
 2798POPC   C3B37305  31.028  20.888   8.018
 2798POPC   C4B37306  31.145  20.773   7.615
 2799POPC   NC337307  18.970  32.488   9.567
 2799POPC   PO437308  19.513  32.462   9.243
 2799POPC   GL137309  19.247  32.179   9.049
 2799POPC   GL237310  18.951  32.380   9.065
 2799POPC   C1A37311  19.169  32.239   8.618
 2799POPC   D2A37312  18.871  32.457   8.402
 2799POPC   C3A37313  19.048  32.445   8.012
 2799POPC   C4A37314  19.111  32.139   7.706
 2799POPC   C1B37315  18.721  32.087   8.817
 2799POPC   C2B37316  18.456  32.081   8.452
 2799POPC   C3B37317  18.589  32.182   8.030
 2799POPC   C4B37318  18.555  32.035   7.629
 2800POPC   NC337319  32.463  32.554   9.655
 2800POPC   PO437320  32.777  33.211   9.633
 2800POPC   GL137321  32.998  33.278   9.234
 2800POPC   GL237322  33.180  32.957   9.210
 2800POPC   C1A37323  32.948  33.249   8.783
 2800POPC   D2A37324  32.684  33.418   8.446
 2800POPC   C3A37325  32.786  33.186   8.093
 2800POPC   C4A37326  33.183  33.165   7.911
 2800POPC   C1B37327  33.297  32.871   8.784
 2800POPC   C2B37328  33.301  32.891   8.331
 2800POPC   C3B37329  33.280  32.674   7.915
 2800POPC   C4B37330  33.335  32.871   7.503
 2801POPC   NC337331  38.539   3.905   9.522
 2801POPC   PO437332  38.306   4.545   9.433
 2801POPC   GL137333  38.512   4.474   9.036
 2801POPC   GL237334  38.563   4.165   9.084
 2801POPC   C1A37335  38.551   4.408   8.574
 2801POPC   D2A37336  38.814   4.486   8.169
 2801POPC   C3A37337  38.511   4.661   7.895
 2801POPC   C4A37338  38.138   4.418   7.802
 2801POPC   C1B37339  38.207   4.051   8.888
 2801POPC   C2B37340  38.135   4.007   8.459
 2801POPC   C3B37341  38.395   4.148   8.146
 2801POPC   C4B37342  38.662   4.162   7.795
 2802POPC   NC337343  42.066  20.790   9.571
 2802POPC   PO437344  42.724  20.618   9.590
 2802POPC   GL137345  42.449  20.574   9.203
 2802POPC   GL237346  42.219  20.269   9.211
 2802POPC   C1A37347  42.349  20.811   8.803
 2802POPC   D2A37348  42.271  20.704   8.373
 2802POPC   C3A37349  42.263  20.950   8.028
 2802POPC   C4A37350  42.325  20.824   7.633
 2802POPC   C1B37351  42.278  20.299   8.756
 2802POPC   C2B37352  42.275  20.213   8.314
 2802POPC   C3B37353  42.281  20.400   7.924
 2802POPC   C4B37354  42.241  20.032   7.711
 2803POPC   NC337355   2.609  21.783   9.313
 2803POPC   PO437356   2.621  21.203   9.613
 2803POPC   GL137357   2.654  21.161   9.172
 2803POPC   GL237358   2.890  21.383   9.134
 2803POPC   C1A37359   2.554  21.423   8.754
 2803POPC   D2A37360   2.423  21.668   8.388
 2803POPC   C3A37361   2.720  21.691   8.091
 2803POPC   C4A37362   2.757  21.410   7.780
 2803POPC   C1B37363   3.061  21.245   8.795
 2803POPC   C2B37364   3.025  21.428   8.429
 2803POPC   C3B37365   3.117  21.236   8.093
 2803POPC   C4B37366   3.130  21.074   7.715
 2804POPC   NC337367  24.697  11.564   9.470
 2804POPC   PO437368  24.397  10.945   9.529
 2804POPC   GL137369  24.484  11.119   9.171
 2804POPC   GL237370  24.256  11.394   9.219
 2804POPC   C1A37371  24.619  11.031   8.753
 2804POPC   D2A37372  24.722  11.281   8.387
 2804POPC   C3A37373  24.522  11.204   8.009
 2804POPC   C4A37374  24.579  11.027   7.609
 2804POPC   C1B37375  24.444  11.522   8.817
 2804POPC   C2B37376  24.411  11.723   8.409
 2804POPC   C3B37377  24.290  11.654   7.999
 2804POPC   C4B37378  24.568  11.563   7.651
 2805POPC   NC337379  34.126   2.708   9.624
 2805POPC   PO437380  34.750   2.586   9.563
 2805POPC   GL137381  34.547   2.687   9.169
 2805POPC   GL237382  34.226   2.538   9.103
 2805POPC   C1A37383  34.660   2.586   8.742
 2805POPC   D2A37384  34.915   2.607   8.386
 2805POPC   C3A37385  34.797   2.575   7.946
 2805POPC   C4A37386  34.571   2.450   7.551
 2805POPC   C1B37387  34.185   2.817   8.732
 2805POPC   C2B37388  34.414   2.851   8.335
 2805POPC   C3B37389  34.346   2.795   7.915
 2805POPC   C4B37390  34.393   3.016   7.557
 2806POPC   NC337391  31.278  43.156   9.580
 2806POPC   PO437392  31.849  43.158   9.675
 2806POPC   GL137393  31.661  43.057   9.224
 2806POPC   GL237394  31.299  42.974   9.115
 2806POPC   C1A37395  31.671  43.142   8.785
 2806POPC   D2A37396  31.475  43.121   8.388
 2806POPC   C3A37397  31.657  43.184   8.003
 2806POPC   C4A37398  31.609  43.299   7.580
 2806POPC   C1B37399  31.137  42.975   8.736
 2806POPC   C2B37400  31.129  42.742   8.408
 2806POPC   C3B37401  31.374  42.752   8.059
 2806POPC   C4B37402  31.296  42.927   7.658
 2807POPC   NC337403  20.559   4.654   9.496
 2807POPC   PO437404  21.021   4.163   9.682
 2807POPC   GL137405  20.950   4.274   9.192
 2807POPC   GL237406  20.707   4.468   9.047
 2807POPC   C1A37407  20.861   3.983   8.811
 2807POPC   D2A37408  20.779   3.989   8.353
 2807POPC   C3A37409  20.885   4.368   8.130
 2807POPC   C4A37410  21.035   4.301   7.734
 2807POPC   C1B37411  20.696   4.420   8.620
 2807POPC   C2B37412  20.407   4.353   8.283
 2807POPC   C3B37413  20.459   4.522   7.870
 2807POPC   C4B37414  20.747   4.818   7.754
 2808POPC   NC337415  40.142  24.100   9.607
 2808POPC   PO437416  39.734  23.648   9.664
 2808POPC   GL137417  39.967  23.629   9.260
 2808POPC   GL237418  40.167  23.910   9.143
 2808POPC   C1A37419  39.952  23.596   8.793
 2808POPC   D2A37420  39.936  23.679   8.348
 2808POPC   C3A37421  40.200  23.492   8.116
 2808POPC   C4A37422  40.029  23.489   7.707
 2808POPC   C1B37423  40.150  24.081   8.751
 2808POPC   C2B37424  40.277  24.041   8.341
 2808POPC   C3B37425  40.128  23.966   7.921
 2808POPC   C4B37426  39.849  24.220   7.723
 2809POPC   NC337427  32.922   1.462   9.734
 2809POPC   PO437428  33.002   2.082   9.446
 2809POPC   GL137429  32.922   2.073   9.045
 2809POPC   GL237430  33.247   2.180   8.950
 2809POPC   C1A37431  32.815   2.195   8.637
 2809POPC   D2A37432  33.114   2.158   8.318
 2809POPC   C3A37433  33.007   2.108   7.885
 2809POPC   C4A37434  33.259   2.256   7.530
 2809POPC   C1B37435  33.155   1.787   8.698
 2809POPC   C2B37436  33.314   1.634   8.328
 2809POPC   C3B37437  33.461   1.892   8.033
 2809POPC   C4B37438  33.345   1.760   7.693
 2810POPC   NC337439   0.090  19.706   9.540
 2810POPC   PO437440   0.640  20.118   9.538
 2810POPC   GL137441   0.453  19.989   9.214
 2810POPC   GL237442   0.169  20.109   9.182
 2810POPC   C1A37443   0.467  19.839   8.804
 2810POPC   D2A37444   0.219  19.890   8.461
 2810POPC   C3A37445   0.346  19.777   8.053
 2810POPC   C4A37446   0.547  19.985   7.700
 2810POPC   C1B37447   0.272  20.304   8.810
 2810POPC   C2B37448   0.151  20.418   8.395
 2810POPC   C3B37449   0.179  20.252   7.961
 2810POPC   C4B37450   0.147  20.240   7.488
 2811POPC   NC337451  25.870  10.731   9.546
 2811POPC   PO437452  26.484  11.014   9.443
 2811POPC   GL137453  26.252  10.690   9.186
 2811POPC   GL237454  26.152  10.336   9.255
 2811POPC   C1A37455  25.947  10.608   8.869
 2811POPC   D2A37456  25.994  10.762   8.442
 2811POPC   C3A37457  26.165  10.529   8.105
 2811POPC   C4A37458  26.297  10.426   7.692
 2811POPC   C1B37459  26.203  10.188   8.811
 2811POPC   C2B37460  25.888  10.253   8.485
 2811POPC   C3B37461  25.763  10.197   8.055
 2811POPC   C4B37462  25.996  10.005   7.730
 2812POPC   NC337463  35.382  38.304   9.552
 2812POPC   PO437464  35.388  39.033   9.373
 2812POPC   GL137465  35.160  38.673   9.174
 2812POPC   GL237466  35.276  38.316   9.061
 2812POPC   C1A37467  35.053  38.640   8.735
 2812POPC   D2A37468  35.272  38.413   8.445
 2812POPC   C3A37469  35.160  38.522   8.046
 2812POPC   C4A37470  35.212  38.511   7.581
 2812POPC   C1B37471  35.583  38.198   8.793
 2812POPC   C2B37472  35.816  38.177   8.447
 2812POPC   C3B37473  35.671  38.370   8.120
 2812POPC   C4B37474  35.733  38.361   7.727
 2813POPC   NC337475  14.626   4.914   9.625
 2813POPC   PO437476  14.846   5.466   9.579
 2813POPC   GL137477  14.553   5.335   9.230
 2813POPC   GL237478  14.509   4.962   9.146
 2813POPC   C1A37479  14.469   5.293   8.770
 2813POPC   D2A37480  14.559   5.123   8.377
 2813POPC   C3A37481  14.361   5.428   8.084
 2813POPC   C4A37482  14.497   5.510   7.673
 2813POPC   C1B37483  14.471   4.660   8.831
 2813POPC   C2B37484  14.567   4.543   8.426
 2813POPC   C3B37485  14.351   4.737   8.118
 2813POPC   C4B37486  14.400   5.010   7.798
 2814POPC   NC337487   8.813  11.336   9.449
 2814POPC   PO437488   9.276  10.905   9.654
 2814POPC   GL137489   9.349  11.068   9.227
 2814POPC   GL237490   9.242  11.415   9.079
 2814POPC   C1A37491   9.166  11.001   8.800
 2814POPC   D2A37492   8.931  11.243   8.534
 2814POPC   C3A37493   9.075  11.218   8.137
 2814POPC   C4A37494   9.245  11.005   7.792
 2814POPC   C1B37495   8.879  11.668   8.833
 2814POPC   C2B37496   8.641  11.657   8.447
 2814POPC   C3B37497   8.773  11.633   8.053
 2814POPC   C4B37498   8.874  11.401   7.686
 2815POPC   NC337499  28.448  17.926   9.627
 2815POPC   PO437500  28.112  18.431   9.609
 2815POPC   GL137501  28.147  18.213   9.238
 2815POPC   GL237502  28.483  18.231   9.185
 2815POPC   C1A37503  28.194  18.320   8.800
 2815POPC   D2A37504  28.305  18.504   8.418
 2815POPC   C3A37505  28.073  18.308   8.083
 2815POPC   C4A37506  28.184  18.462   7.692
 2815POPC   C1B37507  28.624  18.032   8.797
 2815POPC   C2B37508  28.445  18.006   8.389
 2815POPC   C3B37509  28.551  18.131   7.970
 2815POPC   C4B37510  28.650  17.913   7.613
 2816POPC   NC337511   2.369   3.780   9.401
 2816POPC   PO437512   1.935   4.257   9.622
 2816POPC   GL137513   1.883   4.305   9.176
 2816POPC   GL237514   2.000   4.613   9.012
 2816POPC   C1A37515   1.656   4.256   8.776
 2816POPC   D2A37516   1.895   4.340   8.411
 2816POPC   C3A37517   1.753   4.429   8.035
 2816POPC   C4A37518   1.842   4.328   7.668
 2816POPC   C1B37519   2.204   4.249   8.811
 2816POPC   C2B37520   2.357   4.146   8.399
 2816POPC   C3B37521   2.198   4.148   8.003
 2816POPC   C4B37522   2.351   4.405   7.684
 2817POPC   NC337523   4.553  29.210   9.575
 2817POPC   PO437524   4.050  29.638   9.564
 2817POPC   GL137525   4.076  29.279   9.250
 2817POPC   GL237526   4.223  28.925   9.251
 2817POPC   C1A37527   4.172  29.213   8.817
 2817POPC   D2A37528   4.129  29.378   8.407
 2817POPC   C3A37529   4.325  29.192   8.040
 2817POPC   C4A37530   4.177  29.075   7.651
 2817POPC   C1B37531   4.327  28.746   8.834
 2817POPC   C2B37532   4.145  28.855   8.412
 2817POPC   C3B37533   4.173  28.692   8.010
 2817POPC   C4B37534   4.555  28.737   7.803
 2818POPC   NC337535   0.324  10.031   9.613
 2818POPC   PO437536   0.260   9.358   9.597
 2818POPC   GL137537   0.496   9.681   9.244
 2818POPC   GL237538   0.401  10.017   9.122
 2818POPC   C1A37539   0.546   9.738   8.743
 2818POPC   D2A37540   0.279   9.513   8.418
 2818POPC   C3A37541   0.360   9.451   7.971
 2818POPC   C4A37542   0.494   9.697   7.576
 2818POPC   C1B37543   0.403  10.246   8.756
 2818POPC   C2B37544   0.585  10.184   8.353
 2818POPC   C3B37545   0.531  10.067   7.922
 2818POPC   C4B37546   0.301  10.312   7.611
 2819POPC   NC337547  17.195  44.518   9.530
 2819POPC   PO437548  16.930  43.891   9.503
 2819POPC   GL137549  16.618  43.915   9.149
 2819POPC   GL237550  16.402  44.239   9.112
 2819POPC   C1A37551  16.717  43.870   8.694
 2819POPC   D2A37552  16.668  43.726   8.267
 2819POPC   C3A37553  16.820  44.037   7.968
 2819POPC   C4A37554  16.884  43.970   7.530
 2819POPC   C1B37555  16.258  44.108   8.755
 2819POPC   C2B37556  16.430  44.178   8.361
 2819POPC   C3B37557  16.291  44.053   7.976
 2819POPC   C4B37558  16.406  44.113   7.577
 2820POPC   NC337559   7.675   8.788   9.633
 2820POPC   PO437560   7.511   8.147   9.415
 2820POPC   GL137561   7.352   8.061   9.028
 2820POPC   GL237562   7.684   8.067   8.853
 2820POPC   C1A37563   7.226   8.107   8.611
 2820POPC   D2A37564   7.565   8.160   8.328
 2820POPC   C3A37565   7.390   8.042   7.967
 2820POPC   C4A37566   6.994   8.140   7.802
 2820POPC   C1B37567   7.511   8.494   8.780
 2820POPC   C2B37568   7.540   8.691   8.378
 2820POPC   C3B37569   7.568   8.562   7.921
 2820POPC   C4B37570   7.525   8.814   7.518
 2821POPC   NC337571   9.158  37.280   9.440
 2821POPC   PO437572   8.841  36.643   9.488
 2821POPC   GL137573   8.874  36.829   9.081
 2821POPC   GL237574   9.220  36.938   9.059
 2821POPC   C1A37575   8.982  36.724   8.635
 2821POPC   D2A37576   9.239  36.467   8.351
 2821POPC   C3A37577   9.239  36.737   7.988
 2821POPC   C4A37578   8.941  36.965   7.766
 2821POPC   C1B37579   9.027  37.224   8.744
 2821POPC   C2B37580   9.009  37.248   8.278
 2821POPC   C3B37581   9.322  37.260   7.997
 2821POPC   C4B37582   9.422  37.124   7.625
 2822POPC   NC337583  18.131  22.205   9.677
 2822POPC   PO437584  18.683  21.923   9.643
 2822POPC   GL137585  18.340  22.017   9.257
 2822POPC   GL237586  18.210  22.397   9.200
 2822POPC   C1A37587  18.210  21.922   8.807
 2822POPC   D2A37588  18.418  21.772   8.406
 2822POPC   C3A37589  18.317  22.023   8.057
 2822POPC   C4A37590  18.218  21.929   7.660
 2822POPC   C1B37591  18.527  22.380   8.883
 2822POPC   C2B37592  18.563  22.255   8.466
 2822POPC   C3B37593  18.619  22.434   8.057
 2822POPC   C4B37594  18.398  22.422   7.665
 2823POPC   NC337595  16.804  37.363   9.857
 2823POPC   PO437596  16.843  36.755   9.555
 2823POPC   GL137597  16.650  36.894   9.200
 2823POPC   GL237598  16.495  36.592   9.177
 2823POPC   C1A37599  16.775  37.014   8.782
 2823POPC   D2A37600  17.054  37.108   8.429
 2823POPC   C3A37601  16.865  36.908   8.080
 2823POPC   C4A37602  16.999  36.938   7.703
 2823POPC   C1B37603  16.385  36.636   8.783
 2823POPC   C2B37604  16.489  36.762   8.403
 2823POPC   C3B37605  16.414  36.629   8.005
 2823POPC   C4B37606  16.485  36.832   7.668
 2824POPC   NC337607   8.635  27.350   9.396
 2824POPC   PO437608   8.992  27.836   9.489
 2824POPC   GL137609   9.220  27.756   9.141
 2824POPC   GL237610   9.171  27.391   9.219
 2824POPC   C1A37611   9.138  27.864   8.697
 2824POPC   D2A37612   8.827  27.797   8.358
 2824POPC   C3A37613   8.883  27.932   7.919
 2824POPC   C4A37614   8.838  27.824   7.471
 2824POPC   C1B37615   8.997  27.395   8.807
 2824POPC   C2B37616   9.175  27.404   8.408
 2824POPC   C3B37617   8.988  27.426   8.013
 2824POPC   C4B37618   8.889  27.061   7.821
 2825POPC   NC337619  10.082  33.536   9.681
 2825POPC   PO437620  10.516  34.034   9.602
 2825POPC   GL137621  10.675  33.843   9.227
 2825POPC   GL237622  10.419  33.611   9.263
 2825POPC   C1A37623  10.834  33.706   8.828
 2825POPC   D2A37624  10.778  33.496   8.427
 2825POPC   C3A37625  10.749  33.764   8.058
 2825POPC   C4A37626  10.560  33.630   7.681
 2825POPC   C1B37627  10.272  33.743   8.858
 2825POPC   C2B37628  10.401  33.857   8.448
 2825POPC   C3B37629  10.209  33.848   8.043
 2825POPC   C4B37630  10.096  33.808   7.606
 2826POPC   NC337631  26.121   6.467   9.680
 2826POPC   PO437632  26.272   7.068   9.463
 2826POPC   GL137633  26.122   6.824   9.139
 2826POPC   GL237634  26.292   7.003   8.914
 2826POPC   C1A37635  25.890   6.723   8.736
 2826POPC   D2A37636  25.726   6.475   8.372
 2826POPC   C3A37637  26.050   6.375   8.125
 2826POPC   C4A37638  26.265   6.584   7.798
 2826POPC   C1B37639  26.067   7.178   8.552
 2826POPC   C2B37640  25.924   7.032   8.167
 2826POPC   C3B37641  26.140   7.092   7.780
 2826POPC   C4B37642  26.276   6.902   7.395
 2827POPC   NC337643  25.279   0.293   9.492
 2827POPC   PO437644  25.204  44.603   9.571
 2827POPC   GL137645  25.168  44.669   9.149
 2827POPC   GL237646  25.442  44.463   9.068
 2827POPC   C1A37647  25.234  44.895   8.770
 2827POPC   D2A37648  25.281  44.949   8.322
 2827POPC   C3A37649  24.932   0.047   8.080
 2827POPC   C4A37650  24.883  44.792   7.758
 2827POPC   C1B37651  25.169  44.327   8.738
 2827POPC   C2B37652  25.075  44.465   8.336
 2827POPC   C3B37653  25.275  44.532   7.951
 2827POPC   C4B37654  25.035  44.329   7.629
 2828POPC   NC337655  19.372  14.748   9.434
 2828POPC   PO437656  18.839  14.302   9.374
 2828POPC   GL137657  19.093  14.471   9.118
 2828POPC   GL237658  19.208  14.195   9.006
 2828POPC   C1A37659  19.258  14.644   8.748
 2828POPC   D2A37660  19.435  14.394   8.404
 2828POPC   C3A37661  19.296  14.542   8.011
 2828POPC   C4A37662  18.970  14.499   7.714
 2828POPC   C1B37663  19.197  13.989   8.656
 2828POPC   C2B37664  19.316  13.859   8.268
 2828POPC   C3B37665  19.179  14.049   7.906
 2828POPC   C4B37666  19.362  14.225   7.554
 2829POPC   NC337667   8.360  12.615   9.457
 2829POPC   PO437668   8.065  13.136   9.441
 2829POPC   GL137669   8.025  12.826   9.099
 2829POPC   GL237670   7.763  13.076   8.991
 2829POPC   C1A37671   8.189  12.645   8.700
 2829POPC   D2A37672   8.318  12.879   8.340
 2829POPC   C3A37673   8.357  12.718   7.915
 2829POPC   C4A37674   8.386  12.886   7.485
 2829POPC   C1B37675   8.109  13.156   8.715
 2829POPC   C2B37676   8.078  13.346   8.343
 2829POPC   C3B37677   8.110  13.175   7.976
 2829POPC   C4B37678   7.904  12.945   7.668
 2830POPC   NC337679  29.702  37.569   9.399
 2830POPC   PO437680  30.444  37.286   9.300
 2830POPC   GL137681  30.105  37.453   9.121
 2830POPC   GL237682  30.106  37.823   9.185
 2830POPC   C1A37683  29.959  37.416   8.716
 2830POPC   D2A37684  30.130  37.672   8.382
 2830POPC   C3A37685  29.964  37.529   8.035
 2830POPC   C4A37686  30.056  37.678   7.647
 2830POPC   C1B37687  29.969  37.930   8.797
 2830POPC   C2B37688  29.747  38.030   8.423
 2830POPC   C3B37689  29.799  38.002   7.985
 2830POPC   C4B37690  29.541  37.749   7.740
 2831POPC   NC337691   6.865  18.795   9.553
 2831POPC   PO437692   6.538  19.338   9.474
 2831POPC   GL137693   6.347  19.193   9.121
 2831POPC   GL237694   6.173  18.921   9.289
 2831POPC   C1A37695   6.417  19.268   8.698
 2831POPC   D2A37696   6.793  19.154   8.480
 2831POPC   C3A37697   6.729  18.982   8.086
 2831POPC   C4A37698   7.029  18.779   7.851
 2831POPC   C1B37699   6.232  18.766   8.874
 2831POPC   C2B37700   6.449  18.756   8.500
 2831POPC   C3B37701   6.263  18.678   8.133
 2831POPC   C4B37702   6.450  18.629   7.751
 2832POPC   NC337703  33.856  15.596   9.469
 2832POPC   PO437704  33.436  16.121   9.546
 2832POPC   GL137705  33.770  16.052   9.198
 2832POPC   GL237706  34.142  15.984   9.252
 2832POPC   C1A37707  33.772  15.782   8.797
 2832POPC   D2A37708  33.705  15.603   8.354
 2832POPC   C3A37709  33.913  15.846   8.032
 2832POPC   C4A37710  33.845  15.996   7.650
 2832POPC   C1B37711  34.109  16.183   8.830
 2832POPC   C2B37712  33.878  16.152   8.448
 2832POPC   C3B37713  33.828  16.343   8.049
 2832POPC   C4B37714  34.157  16.365   7.810
 2833POPC   NC337715  34.352  27.372   9.558
 2833POPC   PO437716  34.746  27.930   9.494
 2833POPC   GL137717  34.752  27.556   9.272
 2833POPC   GL237718  34.420  27.640   9.126
 2833POPC   C1A37719  34.790  27.465   8.847
 2833POPC   D2A37720  34.672  27.706   8.511
 2833POPC   C3A37721  34.687  27.470   8.149
 2833POPC   C4A37722  34.771  27.271   7.774
 2833POPC   C1B37723  34.286  27.914   8.764
 2833POPC   C2B37724  34.055  27.800   8.429
 2833POPC   C3B37725  34.058  27.800   8.005
 2833POPC   C4B37726  34.291  27.481   7.813
 2834POPC   NC337727  23.167  41.097   9.565
 2834POPC   PO437728  22.700  40.589   9.454
 2834POPC   GL137729  22.823  40.860   9.150
 2834POPC   GL237730  23.182  40.777   9.097
 2834POPC   C1A37731  22.858  40.768   8.708
 2834POPC   D2A37732  22.994  40.880   8.317
 2834POPC   C3A37733  22.876  40.589   8.033
 2834POPC   C4A37734  22.940  40.719   7.627
 2834POPC   C1B37735  23.310  40.483   8.727
 2834POPC   C2B37736  23.315  40.450   8.251
 2834POPC   C3B37737  23.345  40.777   7.908
 2834POPC   C4B37738  23.296  41.155   7.633
 2835POPC   NC337739  25.777  33.249   9.599
 2835POPC   PO437740  26.311  32.979   9.457
 2835POPC   GL137741  25.965  32.878   9.171
 2835POPC   GL237742  25.900  33.195   9.108
 2835POPC   C1A37743  25.988  32.868   8.706
 2835POPC   D2A37744  26.194  33.088   8.347
 2835POPC   C3A37745  26.019  33.030   7.934
 2835POPC   C4A37746  25.991  33.320   7.599
 2835POPC   C1B37747  25.629  33.443   8.883
 2835POPC   C2B37748  25.685  33.287   8.461
 2835POPC   C3B37749  25.660  33.362   8.024
 2835POPC   C4B37750  25.477  33.465   7.636
 2836POPC   NC337751   1.079  42.440   9.658
 2836POPC   PO437752   1.148  43.073   9.482
 2836POPC   GL137753   1.009  43.225   9.094
 2836POPC   GL237754   1.280  43.460   9.023
 2836POPC   C1A37755   1.034  43.144   8.667
 2836POPC   D2A37756   0.812  43.227   8.294
 2836POPC   C3A37757   1.015  43.105   7.913
 2836POPC   C4A37758   0.864  43.027   7.510
 2836POPC   C1B37759   1.520  43.109   8.884
 2836POPC   C2B37760   1.495  42.967   8.452
 2836POPC   C3B37761   1.443  43.305   8.126
 2836POPC   C4B37762   1.571  43.403   7.706
 2837POPC   NC337763  33.443  36.451   9.468
 2837POPC   PO437764  33.972  36.034   9.568
 2837POPC   GL137765  34.020  36.087   9.126
 2837POPC   GL237766  33.726  36.298   9.048
 2837POPC   C1A37767  34.013  36.081   8.662
 2837POPC   D2A37768  33.752  36.341   8.374
 2837POPC   C3A37769  33.847  36.268   7.946
 2837POPC   C4A37770  34.172  35.990   7.852
 2837POPC   C1B37771  33.585  35.887   8.861
 2837POPC   C2B37772  33.586  35.805   8.409
 2837POPC   C3B37773  33.588  35.815   7.962
 2837POPC   C4B37774  33.731  35.977   7.541
 2838POPC   NC337775  30.352  25.882   9.418
 2838POPC   PO437776  29.758  25.962   9.369
 2838POPC   GL137777  30.016  26.183   9.138
 2838POPC   GL237778  29.739  26.322   8.929
 2838POPC   C1A37779  30.149  26.076   8.762
 2838POPC   D2A37780  29.948  26.192   8.394
 2838POPC   C3A37781  29.935  25.878   8.095
 2838POPC   C4A37782  30.165  25.832   7.706
 2838POPC   C1B37783  29.656  25.908   8.722
 2838POPC   C2B37784  29.444  25.899   8.341
 2838POPC   C3B37785  29.549  26.239   8.049
 2838POPC   C4B37786  29.789  26.174   7.675
 2839POPC   NC337787  20.795  15.468   9.374
 2839POPC   PO437788  20.585  16.025   9.746
 2839POPC   GL137789  20.660  16.203   9.318
 2839POPC   GL237790  21.020  16.129   9.303
 2839POPC   C1A37791  20.534  16.273   8.879
 2839POPC   D2A37792  20.299  16.004   8.580
 2839POPC   C3A37793  20.410  16.085   8.162
 2839POPC   C4A37794  20.377  16.114   7.738
 2839POPC   C1B37795  20.912  15.919   8.888
 2839POPC   C2B37796  20.801  15.867   8.429
 2839POPC   C3B37797  20.828  15.910   7.950
 2839POPC   C4B37798  20.962  15.576   7.615
 2840POPC   NC337799  15.857   3.909   9.448
 2840POPC   PO437800  16.426   3.735   9.542
 2840POPC   GL137801  16.201   3.460   9.201
 2840POPC   GL237802  15.889   3.603   9.034
 2840POPC   C1A37803  16.202   3.372   8.718
 2840POPC   D2A37804  16.283   3.597   8.315
 2840POPC   C3A37805  16.184   3.419   7.915
 2840POPC   C4A37806  16.004   3.172   7.607
 2840POPC   C1B37807  15.689   3.353   8.729
 2840POPC   C2B37808  15.740   3.592   8.359
 2840POPC   C3B37809  15.622   3.826   8.006
 2840POPC   C4B37810  15.761   3.617   7.676
 2841POPC   NC337811  16.307   4.970   9.457
 2841POPC   PO437812  15.734   5.123   9.886
 2841POPC   GL137813  15.763   5.160   9.396
 2841POPC   GL237814  15.825   4.827   9.242
 2841POPC   C1A37815  15.858   5.273   8.934
 2841POPC   D2A37816  16.041   5.040   8.550
 2841POPC   C3A37817  16.015   5.208   8.117
 2841POPC   C4A37818  15.731   5.288   7.792
 2841POPC   C1B37819  15.609   4.829   8.825
 2841POPC   C2B37820  15.584   4.719   8.362
 2841POPC   C3B37821  15.674   4.791   7.894
 2841POPC   C4B37822  15.808   4.587   7.485
 2842POPC   NC337823  18.902  23.018   9.522
 2842POPC   PO437824  19.405  22.610   9.558
 2842POPC   GL137825  19.233  22.840   9.175
 2842POPC   GL237826  18.850  22.807   9.063
 2842POPC   C1A37827  19.280  22.664   8.783
 2842POPC   D2A37828  18.985  22.527   8.492
 2842POPC   C3A37829  18.982  22.789   8.134
 2842POPC   C4A37830  19.308  22.656   7.854
 2842POPC   C1B37831  18.943  23.022   8.689
 2842POPC   C2B37832  18.763  23.236   8.349
 2842POPC   C3B37833  18.794  23.272   7.945
 2842POPC   C4B37834  19.004  23.030   7.676
 2843POPC   NC337835   8.003  42.928   9.453
 2843POPC   PO437836   8.250  43.617   9.473
 2843POPC   GL137837   8.176  43.295   9.159
 2843POPC   GL237838   8.430  43.037   9.144
 2843POPC   C1A37839   8.121  43.126   8.743
 2843POPC   D2A37840   8.099  42.915   8.343
 2843POPC   C3A37841   8.007  43.281   8.070
 2843POPC   C4A37842   8.226  43.435   7.715
 2843POPC   C1B37843   8.509  42.762   8.774
 2843POPC   C2B37844   8.561  42.653   8.317
 2843POPC   C3B37845   8.266  42.607   7.943
 2843POPC   C4B37846   7.918  42.873   7.782
 2844POPC   NC337847  10.777  37.249   9.567
 2844POPC   PO437848  10.337  37.787   9.614
 2844POPC   GL137849  10.497  37.792   9.219
 2844POPC   GL237850  10.754  37.521   9.133
 2844POPC   C1A37851  10.383  37.708   8.804
 2844POPC   D2A37852  10.592  37.721   8.433
 2844POPC   C3A37853  10.338  37.666   8.093
 2844POPC   C4A37854  10.601  37.754   7.747
 2844POPC   C1B37855  10.475  37.213   8.880
 2844POPC   C2B37856  10.366  37.262   8.454
 2844POPC   C3B37857  10.447  37.187   8.029
 2844POPC   C4B37858  10.308  37.363   7.617
 2845POPC   NC337859   0.224  28.420   9.397
 2845POPC   PO437860  44.618  28.583   9.498
 2845POPC   GL137861  44.543  28.384   9.118
 2845POPC   GL237862  44.808  28.185   9.198
 2845POPC   C1A37863  44.738  28.386   8.695
 2845POPC   D2A37864  44.865  28.404   8.255
 2845POPC   C3A37865  44.552  28.350   7.942
 2845POPC   C4A37866  44.479  28.616   7.577
 2845POPC   C1B37867   0.035  28.005   8.849
 2845POPC   C2B37868   0.017  27.925   8.410
 2845POPC   C3B37869  44.821  27.896   8.000
 2845POPC   C4B37870  44.743  28.010   7.561
 2846POPC   NC337871  26.973  42.290   9.639
 2846POPC   PO437872  26.370  42.224   9.538
 2846POPC   GL137873  26.647  42.415   9.171
 2846POPC   GL237874  27.034  42.426   9.168
 2846POPC   C1A37875  26.600  42.478   8.718
 2846POPC   D2A37876  26.572  42.137   8.408
 2846POPC   C3A37877  26.705  42.104   7.991
 2846POPC   C4A37878  26.751  42.433   7.697
 2846POPC   C1B37879  27.142  42.599   8.789
 2846POPC   C2B37880  27.017  42.479   8.387
 2846POPC   C3B37881  27.165  42.339   8.016
 2846POPC   C4B37882  27.299  42.473   7.627
 2847POPC   NC337883  11.447   1.437   9.499
 2847POPC   PO437884  11.006   0.988   9.677
 2847POPC   GL137885  11.209   1.043   9.275
 2847POPC   GL237886  11.098   1.350   9.157
 2847POPC   C1A37887  11.268   1.018   8.814
 2847POPC   D2A37888  11.507   1.024   8.437
 2847POPC   C3A37889  11.345   1.213   8.075
 2847POPC   C4A37890  11.421   1.032   7.695
 2847POPC   C1B37891  10.887   1.352   8.806
 2847POPC   C2B37892  11.047   1.434   8.434
 2847POPC   C3B37893  10.897   1.545   8.061
 2847POPC   C4B37894  10.982   1.324   7.717
 2848POPC   NC337895  38.207  23.117   9.209
 2848POPC   PO437896  37.785  22.809   9.690
 2848POPC   GL137897  37.720  22.952   9.232
 2848POPC   GL237898  37.666  22.617   9.128
 2848POPC   C1A37899  37.789  23.020   8.730
 2848POPC   D2A37900  37.767  22.942   8.269
 2848POPC   C3A37901  37.875  23.212   7.942
 2848POPC   C4A37902  37.837  23.120   7.509
 2848POPC   C1B37903  37.381  22.704   8.769
 2848POPC   C2B37904  37.450  22.544   8.356
 2848POPC   C3B37905  37.506  22.648   7.932
 2848POPC   C4B37906  37.168  22.501   7.709
 2849POPC   NC337907  42.423   1.857   9.512
 2849POPC   PO437908  41.897   2.385   9.512
 2849POPC   GL137909  41.983   2.248   9.098
 2849POPC   GL237910  42.260   2.036   9.077
 2849POPC   C1A37911  41.972   2.106   8.647
 2849POPC   D2A37912  42.194   1.952   8.306
 2849POPC   C3A37913  42.390   2.172   7.932
 2849POPC   C4A37914  42.380   2.032   7.476
 2849POPC   C1B37915  42.515   1.871   8.723
 2849POPC   C2B37916  42.701   1.931   8.294
 2849POPC   C3B37917  42.444   1.674   7.969
 2849POPC   C4B37918  42.579   1.530   7.594
 2850POPC   NC337919  14.985  43.411   9.382
 2850POPC   PO437920  15.368  42.916   9.657
 2850POPC   GL137921  15.214  42.988   9.202
 2850POPC   GL237922  14.970  42.758   9.040
 2850POPC   C1A37923  15.146  43.184   8.803
 2850POPC   D2A37924  15.379  43.457   8.584
 2850POPC   C3A37925  15.299  43.426   8.170
 2850POPC   C4A37926  15.225  43.386   7.781
 2850POPC   C1B37927  14.723  42.914   8.691
 2850POPC   C2B37928  14.705  42.860   8.285
 2850POPC   C3B37929  14.946  43.033   8.008
 2850POPC   C4B37930  15.101  42.863   7.660
 2851POPC   NC337931  23.734  39.545   9.290
 2851POPC   PO437932  23.849  38.948   9.406
 2851POPC   GL137933  23.538  39.011   9.098
 2851POPC   GL237934  23.309  39.301   9.148
 2851POPC   C1A37935  23.609  39.058   8.650
 2851POPC   D2A37936  23.575  38.933   8.219
 2851POPC   C3A37937  23.815  39.193   7.895
 2851POPC   C4A37938  24.148  39.406   7.657
 2851POPC   C1B37939  23.124  39.103   8.802
 2851POPC   C2B37940  23.222  39.293   8.410
 2851POPC   C3B37941  23.371  39.382   8.022
 2851POPC   C4B37942  23.181  39.492   7.640
 2852POPC   NC337943   0.257  42.017   9.620
 2852POPC   PO437944   0.636  42.549   9.554
 2852POPC   GL137945   0.451  42.377   9.202
 2852POPC   GL237946   0.117  42.223   9.177
 2852POPC   C1A37947   0.325  42.444   8.776
 2852POPC   D2A37948   0.549  42.357   8.441
 2852POPC   C3A37949   0.386  42.359   8.053
 2852POPC   C4A37950   0.756  42.361   7.819
 2852POPC   C1B37951   0.393  41.937   8.942
 2852POPC   C2B37952   0.434  41.846   8.517
 2852POPC   C3B37953   0.659  41.932   8.159
 2852POPC   C4B37954   0.483  41.938   7.763
 2853POPC   NC337955  43.069  14.433   9.623
 2853POPC   PO437956  42.984  13.716   9.580
 2853POPC   GL137957  43.042  14.105   9.235
 2853POPC   GL237958  42.831  14.439   9.183
 2853POPC   C1A37959  43.271  14.149   8.877
 2853POPC   D2A37960  43.137  14.234   8.467
 2853POPC   C3A37961  43.154  14.046   8.085
 2853POPC   C4A37962  43.152  14.257   7.723
 2853POPC   C1B37963  43.033  14.604   8.847
 2853POPC   C2B37964  42.915  14.692   8.427
 2853POPC   C3B37965  43.098  14.619   8.076
 2853POPC   C4B37966  42.893  14.697   7.725
 2854POPC   NC337967  22.504  10.579   9.649
 2854POPC   PO437968  23.213  10.758   9.524
 2854POPC   GL137969  22.922  10.662   9.176
 2854POPC   GL237970  22.646  10.486   9.172
 2854POPC   C1A37971  23.009  10.512   8.754
 2854POPC   D2A37972  23.224  10.609   8.400
 2854POPC   C3A37973  23.127  10.327   8.090
 2854POPC   C4A37974  22.864  10.327   7.749
 2854POPC   C1B37975  22.535  10.665   8.763
 2854POPC   C2B37976  22.709  10.778   8.373
 2854POPC   C3B37977  22.596  10.733   7.966
 2854POPC   C4B37978  22.383  10.504   7.717
 2855POPC   NC337979  23.886   1.970   9.491
 2855POPC   PO437980  23.287   1.557   9.452
 2855POPC   GL137981  23.488   1.843   9.162
 2855POPC   GL237982  23.793   1.718   9.082
 2855POPC   C1A37983  23.563   2.056   8.760
 2855POPC   D2A37984  23.379   2.189   8.346
 2855POPC   C3A37985  23.476   1.984   7.910
 2855POPC   C4A37986  23.571   2.083   7.454
 2855POPC   C1B37987  23.754   1.593   8.699
 2855POPC   C2B37988  23.824   1.865   8.365
 2855POPC   C3B37989  23.992   1.967   8.041
 2855POPC   C4B37990  23.923   1.776   7.667
 2856POPC   NC337991   1.705  17.195   9.524
 2856POPC   PO437992   2.135  17.659   9.382
 2856POPC   GL137993   1.916  17.478   9.065
 2856POPC   GL237994   1.903  17.145   9.048
 2856POPC   C1A37995   2.207  17.434   8.720
 2856POPC   D2A37996   2.187  17.786   8.448
 2856POPC   C3A37997   1.921  17.762   8.122
 2856POPC   C4A37998   1.990  17.634   7.706
 2856POPC   C1B37999   1.769  17.184   8.623
 2856POPC   C2B38000   2.026  17.228   8.261
 2856POPC   C3B38001   1.986  17.137   7.812
 2856POPC   C4B38002   2.188  17.118   7.405
 2857POPC   NC338003   5.215  23.396   9.595
 2857POPC   PO438004   4.730  23.693   9.152
 2857POPC   GL138005   4.982  23.603   8.936
 2857POPC   GL238006   5.246  23.573   9.095
 2857POPC   C1A38007   5.011  23.379   8.607
 2857POPC   D2A38008   4.783  23.591   8.331
 2857POPC   C3A38009   4.905  23.420   7.992
 2857POPC   C4A38010   4.892  23.676   7.679
 2857POPC   C1B38011   5.314  23.809   8.661
 2857POPC   C2B38012   5.314  23.633   8.243
 2857POPC   C3B38013   5.326  23.854   7.842
 2857POPC   C4B38014   5.518  23.986   7.421
 2858POPC   NC338015   2.365  32.293   9.454
 2858POPC   PO438016   3.015  32.310   9.420
 2858POPC   GL138017   2.774  32.147   9.090
 2858POPC   GL238018   2.475  31.942   9.101
 2858POPC   C1A38019   2.660  32.348   8.718
 2858POPC   D2A38020   2.988  32.245   8.446
 2858POPC   C3A38021   2.854  32.404   8.100
 2858POPC   C4A38022   2.894  32.434   7.701
 2858POPC   C1B38023   2.550  31.867   8.675
 2858POPC   C2B38024   2.574  31.971   8.243
 2858POPC   C3B38025   2.424  32.161   7.861
 2858POPC   C4B38026   2.481  32.336   7.435
 2859POPC   NC338027  15.831  40.383   9.538
 2859POPC   PO438028  16.278  40.896   9.418
 2859POPC   GL138029  16.098  40.555   9.148
 2859POPC   GL238030  15.781  40.697   9.130
 2859POPC   C1A38031  16.086  40.370   8.739
 2859POPC   D2A38032  16.295  40.515   8.355
 2859POPC   C3A38033  16.092  40.456   7.968
 2859POPC   C4A38034  16.252  40.432   7.542
 2859POPC   C1B38035  16.007  40.893   8.779
 2859POPC   C2B38036  15.885  40.820   8.377
 2859POPC   C3B38037  15.908  40.955   7.985
 2859POPC   C4B38038  16.066  40.907   7.593
 2860POPC   NC338039   5.164   6.974   9.354
 2860POPC   PO438040   4.794   6.456   9.461
 2860POPC   GL138041   4.875   6.646   9.127
 2860POPC   GL238042   5.236   6.544   9.114
 2860POPC   C1A38043   4.852   6.909   8.765
 2860POPC   D2A38044   5.066   6.969   8.351
 2860POPC   C3A38045   5.144   6.593   8.105
 2860POPC   C4A38046   4.984   6.527   7.700
 2860POPC   C1B38047   5.335   6.723   8.757
 2860POPC   C2B38048   5.551   6.760   8.415
 2860POPC   C3B38049   5.522   6.927   8.047
 2860POPC   C4B38050   5.487   6.661   7.711
 2861POPC   NC338051  32.200  16.309   9.551
 2861POPC   PO438052  32.522  16.831   9.427
 2861POPC   GL138053  32.136  16.667   9.196
 2861POPC   GL238054  32.331  16.413   9.084
 2861POPC   C1A38055  32.122  16.732   8.730
 2861POPC   D2A38056  32.381  16.753   8.352
 2861POPC   C3A38057  32.346  16.806   7.923
 2861POPC   C4A38058  32.330  17.228   7.785
 2861POPC   C1B38059  32.512  16.166   8.825
 2861POPC   C2B38060  32.582  16.315   8.451
 2861POPC   C3B38061  32.393  16.295   8.038
 2861POPC   C4B38062  32.491  16.405   7.602
 2862POPC   NC338063  29.790  16.413   9.888
 2862POPC   PO438064  29.891  15.884   9.520
 2862POPC   GL138065  29.892  16.036   9.121
 2862POPC   GL238066  29.555  16.130   9.142
 2862POPC   C1A38067  29.920  15.904   8.696
 2862POPC   D2A38068  29.642  15.780   8.349
 2862POPC   C3A38069  29.788  15.971   7.967
 2862POPC   C4A38070  30.000  15.816   7.604
 2862POPC   C1B38071  29.433  16.092   8.705
 2862POPC   C2B38072  29.444  16.306   8.292
 2862POPC   C3B38073  29.680  16.486   7.952
 2862POPC   C4B38074  29.818  16.321   7.569
 2863POPC   NC338075  23.384  23.587   9.511
 2863POPC   PO438076  24.055  23.899   9.479
 2863POPC   GL138077  23.719  23.766   9.164
 2863POPC   GL238078  23.700  23.400   9.122
 2863POPC   C1A38079  23.682  23.780   8.735
 2863POPC   D2A38080  23.965  23.757   8.390
 2863POPC   C3A38081  23.680  23.825   8.053
 2863POPC   C4A38082  23.642  24.067   7.677
 2863POPC   C1B38083  23.756  23.289   8.672
 2863POPC   C2B38084  23.732  23.322   8.226
 2863POPC   C3B38085  23.713  23.379   7.790
 2863POPC   C4B38086  24.023  23.290   7.452
 2864POPC   NC338087  43.320  31.528   9.588
 2864POPC   PO438088  42.657  31.778   9.482
 2864POPC   GL138089  42.822  31.394   9.216
 2864POPC   GL238090  43.069  31.572   9.146
 2864POPC   C1A38091  43.007  31.262   8.758
 2864POPC   D2A38092  42.828  31.377   8.326
 2864POPC   C3A38093  43.105  31.283   7.983
 2864POPC   C4A38094  43.083  31.132   7.574
 2864POPC   C1B38095  43.084  31.777   8.771
 2864POPC   C2B38096  43.237  31.706   8.387
 2864POPC   C3B38097  43.090  31.787   8.009
 2864POPC   C4B38098  43.214  31.625   7.616
 2865POPC   NC338099  39.706  25.547   9.462
 2865POPC   PO438100  40.051  24.951   9.511
 2865POPC   GL138101  40.010  25.194   9.184
 2865POPC   GL238102  39.673  25.150   9.093
 2865POPC   C1A38103  40.065  25.048   8.763
 2865POPC   D2A38104  40.216  25.208   8.387
 2865POPC   C3A38105  40.201  24.955   8.011
 2865POPC   C4A38106  40.005  25.047   7.587
 2865POPC   C1B38107  39.765  25.473   8.804
 2865POPC   C2B38108  39.783  25.549   8.369
 2865POPC   C3B38109  39.927  25.396   7.984
 2865POPC   C4B38110  39.891  25.553   7.601
 2866POPC   NC338111  41.059  23.738   9.499
 2866POPC   PO438112  40.550  24.171   9.419
 2866POPC   GL138113  40.659  23.781   9.148
 2866POPC   GL238114  40.949  23.600   9.035
 2866POPC   C1A38115  40.501  23.492   8.805
 2866POPC   D2A38116  40.652  23.397   8.387
 2866POPC   C3A38117  40.632  23.748   8.104
 2866POPC   C4A38118  40.499  23.655   7.689
 2866POPC   C1B38119  41.066  23.900   8.720
 2866POPC   C2B38120  41.095  23.883   8.285
 2866POPC   C3B38121  41.042  23.852   7.829
 2866POPC   C4B38122  41.304  23.811   7.480
 2867POPC   NC338123  35.825   5.427   9.483
 2867POPC   PO438124  36.204   6.034   9.480
 2867POPC   GL138125  36.080   5.760   9.178
 2867POPC   GL238126  35.792   5.949   9.144
 2867POPC   C1A38127  35.902   5.549   8.826
 2867POPC   D2A38128  35.742   5.466   8.433
 2867POPC   C3A38129  35.939   5.780   8.184
 2867POPC   C4A38130  36.167   5.785   7.794
 2867POPC   C1B38131  35.731   6.207   8.787
 2867POPC   C2B38132  35.888   6.273   8.369
 2867POPC   C3B38133  35.852   6.207   7.911
 2867POPC   C4B38134  36.108   6.235   7.549
 2868POPC   NC338135  43.576   8.148   9.454
 2868POPC   PO438136  44.166   8.500   9.748
 2868POPC   GL138137  44.077   8.276   9.293
 2868POPC   GL238138  43.771   8.377   9.052
 2868POPC   C1A38139  44.191   8.225   8.831
 2868POPC   D2A38140  43.895   8.295   8.500
 2868POPC   C3A38141  44.044   8.097   8.142
 2868POPC   C4A38142  43.975   8.219   7.719
 2868POPC   C1B38143  43.766   7.939   8.843
 2868POPC   C2B38144  43.640   7.836   8.411
 2868POPC   C3B38145  43.453   7.842   7.980
 2868POPC   C4B38146  43.475   7.916   7.510
 2869POPC   NC338147  40.864  12.662   9.304
 2869POPC   PO438148  41.093  12.048   9.385
 2869POPC   GL138149  40.675  11.951   9.184
 2869POPC   GL238150  40.446  12.260   9.152
 2869POPC   C1A38151  40.446  11.862   8.790
 2869POPC   D2A38152  40.324  12.054   8.383
 2869POPC   C3A38153  40.605  11.932   8.046
 2869POPC   C4A38154  40.677  12.178   7.669
 2869POPC   C1B38155  40.618  12.350   8.729
 2869POPC   C2B38156  40.910  12.088   8.463
 2869POPC   C3B38157  41.111  12.062   8.047
 2869POPC   C4B38158  40.985  11.789   7.698
 2870POPC   NC338159  42.466  42.059   9.436
 2870POPC   PO438160  41.870  42.454   9.450
 2870POPC   GL138161  42.162  42.408   9.125
 2870POPC   GL238162  42.509  42.395   9.043
 2870POPC   C1A38163  42.087  42.172   8.759
 2870POPC   D2A38164  41.923  42.367   8.369
 2870POPC   C3A38165  42.193  42.330   8.007
 2870POPC   C4A38166  42.450  42.152   7.659
 2870POPC   C1B38167  42.402  42.534   8.638
 2870POPC   C2B38168  42.608  42.338   8.322
 2870POPC   C3B38169  42.683  42.545   7.937
 2870POPC   C4B38170  42.340  42.829   7.834
 2871POPC   NC338171  18.397  42.547   9.619
 2871POPC   PO438172  18.106  41.936   9.645
 2871POPC   GL138173  18.231  42.214   9.264
 2871POPC   GL238174  18.604  42.347   9.214
 2871POPC   C1A38175  18.263  42.248   8.811
 2871POPC   D2A38176  18.053  42.523   8.486
 2871POPC   C3A38177  18.099  42.272   8.120
 2871POPC   C4A38178  18.079  42.050   7.738
 2871POPC   C1B38179  18.779  42.358   8.820
 2871POPC   C2B38180  18.586  42.449   8.420
 2871POPC   C3B38181  18.598  42.274   8.019
 2871POPC   C4B38182  18.689  42.101   7.629
 2872POPC   NC338183  38.871  11.949   9.389
 2872POPC   PO438184  38.342  12.055   9.595
 2872POPC   GL138185  38.419  12.034   9.160
 2872POPC   GL238186  38.661  12.296   9.083
 2872POPC   C1A38187  38.399  12.030   8.722
 2872POPC   D2A38188  38.348  12.251   8.367
 2872POPC   C3A38189  38.374  11.976   8.027
 2872POPC   C4A38190  38.475  11.864   7.581
 2872POPC   C1B38191  38.821  12.315   8.656
 2872POPC   C2B38192  38.842  12.201   8.213
 2872POPC   C3B38193  38.664  12.356   7.837
 2872POPC   C4B38194  38.883  12.561   7.516
 2873POPC   NC338195  22.170  31.318   9.451
 2873POPC   PO438196  21.777  31.824   9.270
 2873POPC   GL138197  22.155  31.693   8.964
 2873POPC   GL238198  22.404  31.359   9.022
 2873POPC   C1A38199  22.167  31.812   8.516
 2873POPC   D2A38200  21.960  31.655   8.161
 2873POPC   C3A38201  22.151  31.762   7.777
 2873POPC   C4A38202  22.165  31.492   7.420
 2873POPC   C1B38203  22.449  31.371   8.613
 2873POPC   C2B38204  22.667  31.708   8.444
 2873POPC   C3B38205  22.567  31.837   8.062
 2873POPC   C4B38206  22.551  31.437   7.833
 2874POPC   NC338207  37.100  14.811   9.406
 2874POPC   PO438208  36.544  15.211   9.486
 2874POPC   GL138209  36.847  15.231   9.156
 2874POPC   GL238210  37.188  15.339   9.307
 2874POPC   C1A38211  36.827  15.085   8.714
 2874POPC   D2A38212  36.535  14.869   8.403
 2874POPC   C3A38213  36.573  15.111   8.046
 2874POPC   C4A38214  36.708  15.148   7.661
 2874POPC   C1B38215  37.312  15.166   8.902
 2874POPC   C2B38216  37.380  15.100   8.467
 2874POPC   C3B38217  37.120  15.176   8.108
 2874POPC   C4B38218  37.227  15.139   7.689
 2875POPC   NC338219   8.669  39.526   9.473
 2875POPC   PO438220   9.294  39.226   9.618
 2875POPC   GL138221   9.096  39.334   9.243
 2875POPC   GL238222   8.838  39.178   9.097
 2875POPC   C1A38223   9.142  39.445   8.805
 2875POPC   D2A38224   9.245  39.277   8.398
 2875POPC   C3A38225   9.102  39.427   7.996
 2875POPC   C4A38226   9.169  39.248   7.607
 2875POPC   C1B38227   8.692  39.241   8.665
 2875POPC   C2B38228   8.690  39.263   8.220
 2875POPC   C3B38229   8.752  39.046   7.787
 2875POPC   C4B38230   8.702  39.032   7.306
 2876POPC   NC338231  11.658  34.177   9.456
 2876POPC   PO438232  12.311  34.032   9.486
 2876POPC   GL138233  12.024  33.839   9.201
 2876POPC   GL238234  12.005  33.456   9.225
 2876POPC   C1A38235  11.889  33.982   8.768
 2876POPC   D2A38236  12.067  34.235   8.390
 2876POPC   C3A38237  11.975  34.182   7.919
 2876POPC   C4A38238  12.102  34.089   7.480
 2876POPC   C1B38239  12.243  33.571   8.817
 2876POPC   C2B38240  12.235  33.667   8.354
 2876POPC   C3B38241  11.948  33.681   7.997
 2876POPC   C4B38242  11.807  33.692   7.548
 2877POPC   NC338243  42.408   2.850   9.631
 2877POPC   PO438244  41.782   3.025   9.733
 2877POPC   GL138245  42.035   2.873   9.306
 2877POPC   GL238246  42.291   2.630   9.189
 2877POPC   C1A38247  42.135   3.005   8.867
 2877POPC   D2A38248  41.797   3.172   8.608
 2877POPC   C3A38249  41.897   3.095   8.192
 2877POPC   C4A38250  42.209   2.852   7.957
 2877POPC   C1B38251  42.367   2.409   8.777
 2877POPC   C2B38252  42.366   2.530   8.353
 2877POPC   C3B38253  42.649   2.605   8.003
 2877POPC   C4B38254  42.531   2.561   7.592
 2878POPC   NC338255  38.664  17.020   9.778
 2878POPC   PO438256  38.554  16.390   9.541
 2878POPC   GL138257  38.567  16.723   9.208
 2878POPC   GL238258  38.625  17.107   9.276
 2878POPC   C1A38259  38.438  16.736   8.768
 2878POPC   D2A38260  38.359  16.497   8.374
 2878POPC   C3A38261  38.439  16.785   8.049
 2878POPC   C4A38262  38.207  16.871   7.661
 2878POPC   C1B38263  38.797  17.094   8.867
 2878POPC   C2B38264  38.704  17.070   8.438
 2878POPC   C3B38265  38.690  17.221   8.005
 2878POPC   C4B38266  38.695  16.963   7.646
 2879POPC   NC338267  39.364  13.631   9.448
 2879POPC   PO438268  38.969  13.071   9.376
 2879POPC   GL138269  38.984  13.380   9.066
 2879POPC   GL238270  38.802  13.650   9.227
 2879POPC   C1A38271  39.263  13.579   8.755
 2879POPC   D2A38272  39.204  13.816   8.370
 2879POPC   C3A38273  39.295  13.629   7.983
 2879POPC   C4A38274  39.545  13.691   7.617
 2879POPC   C1B38275  38.790  13.795   8.792
 2879POPC   C2B38276  38.725  13.650   8.372
 2879POPC   C3B38277  38.813  13.406   8.016
 2879POPC   C4B38278  38.928  13.541   7.632
 2880POPC   NC338279  23.582   1.143   9.489
 2880POPC   PO438280  24.155   1.499   9.414
 2880POPC   GL138281  23.882   1.230   9.101
 2880POPC   GL238282  23.470   1.304   9.029
 2880POPC   C1A38283  23.803   1.069   8.715
 2880POPC   D2A38284  23.569   1.182   8.372
 2880POPC   C3A38285  23.869   1.061   8.039
 2880POPC   C4A38286  23.961   1.275   7.637
 2880POPC   C1B38287  23.263   1.596   8.752
 2880POPC   C2B38288  23.370   1.667   8.333
 2880POPC   C3B38289  23.638   1.517   8.002
 2880POPC   C4B38290  23.483   1.536   7.587
 2881POPC   NC338291   2.840  22.420   9.532
 2881POPC   PO438292   3.082  21.769   9.425
 2881POPC   GL138293   3.034  21.878   9.034
 2881POPC   GL238294   2.828  22.180   9.054
 2881POPC   C1A38295   2.854  21.864   8.634
 2881POPC   D2A38296   2.705  22.155   8.328
 2881POPC   C3A38297   2.939  22.171   7.928
 2881POPC   C4A38298   2.961  22.205   7.476
 2881POPC   C1B38299   2.442  22.244   8.782
 2881POPC   C2B38300   2.246  22.413   8.395
 2881POPC   C3B38301   2.391  22.345   7.970
 2881POPC   C4B38302   2.520  22.442   7.542
 2882POPC   NC338303  28.323  16.364   9.439
 2882POPC   PO438304  28.632  15.853   9.775
 2882POPC   GL138305  28.359  15.860   9.380
 2882POPC   GL238306  28.598  15.999   9.161
 2882POPC   C1A38307  28.197  15.863   8.898
 2882POPC   D2A38308  28.405  15.944   8.478
 2882POPC   C3A38309  28.295  15.883   8.037
 2882POPC   C4A38310  28.566  15.944   7.671
 2882POPC   C1B38311  28.476  16.314   8.827
 2882POPC   C2B38312  28.469  16.495   8.448
 2882POPC   C3B38313  28.507  16.377   8.043
 2882POPC   C4B38314  28.217  16.443   7.735
 2883POPC   NC338315  27.775  24.888   9.329
 2883POPC   PO438316  27.372  25.247   9.769
 2883POPC   GL138317  27.484  25.340   9.298
 2883POPC   GL238318  27.204  25.416   9.087
 2883POPC   C1A38319  27.634  25.290   8.830
 2883POPC   D2A38320  27.688  25.114   8.407
 2883POPC   C3A38321  27.791  25.410   8.096
 2883POPC   C4A38322  27.655  25.448   7.659
 2883POPC   C1B38323  27.145  25.235   8.699
 2883POPC   C2B38324  27.340  25.483   8.406
 2883POPC   C3B38325  27.307  25.246   8.066
 2883POPC   C4B38326  27.204  25.244   7.673
 2884POPC   NC338327   2.819  26.449   9.386
 2884POPC   PO438328   2.440  26.936   9.521
 2884POPC   GL138329   2.574  26.834   9.108
 2884POPC   GL238330   2.923  26.890   9.120
 2884POPC   C1A38331   2.675  27.014   8.682
 2884POPC   D2A38332   2.570  27.109   8.261
 2884POPC   C3A38333   2.851  26.906   7.983
 2884POPC   C4A38334   2.623  26.584   7.796
 2884POPC   C1B38335   3.023  26.636   8.742
 2884POPC   C2B38336   2.856  26.550   8.361
 2884POPC   C3B38337   3.046  26.407   8.024
 2884POPC   C4B38338   3.421  26.513   7.840
 2885POPC   NC338339  20.791  34.723   9.393
 2885POPC   PO438340  20.756  34.042   9.651
 2885POPC   GL138341  20.519  34.329   9.193
 2885POPC   GL238342  20.343  34.629   9.170
 2885POPC   C1A38343  20.501  34.299   8.730
 2885POPC   D2A38344  20.693  34.415   8.341
 2885POPC   C3A38345  20.435  34.325   7.986
 2885POPC   C4A38346  20.461  34.425   7.558
 2885POPC   C1B38347  20.569  34.797   8.787
 2885POPC   C2B38348  20.566  34.921   8.389
 2885POPC   C3B38349  20.659  34.804   7.967
 2885POPC   C4B38350  20.447  34.980   7.616
 2886POPC   NC338351  28.501  27.668   9.700
 2886POPC   PO438352  27.931  27.366   9.731
 2886POPC   GL138353  28.232  27.567   9.297
 2886POPC   GL238354  28.600  27.770   9.211
 2886POPC   C1A38355  28.381  27.474   8.849
 2886POPC   D2A38356  28.323  27.269   8.430
 2886POPC   C3A38357  28.655  27.289   8.132
 2886POPC   C4A38358  28.478  27.553   7.821
 2886POPC   C1B38359  28.550  27.951   8.789
 2886POPC   C2B38360  28.266  27.816   8.449
 2886POPC   C3B38361  28.199  27.932   8.027
 2886POPC   C4B38362  28.509  28.057   7.756
 2887POPC   NC338363  12.022  27.027   9.625
 2887POPC   PO438364  12.548  26.564   9.606
 2887POPC   GL138365  12.270  26.603   9.259
 2887POPC   GL238366  11.958  26.734   9.203
 2887POPC   C1A38367  12.347  26.666   8.814
 2887POPC   D2A38368  12.327  26.946   8.442
 2887POPC   C3A38369  12.309  26.758   8.012
 2887POPC   C4A38370  12.171  26.685   7.585
 2887POPC   C1B38371  11.879  26.902   8.756
 2887POPC   C2B38372  11.857  26.825   8.313
 2887POPC   C3B38373  11.808  26.932   7.857
 2887POPC   C4B38374  11.675  26.988   7.397
 2888POPC   NC338375  44.510   8.541   9.419
 2888POPC   PO438376   0.088   8.226   9.476
 2888POPC   GL138377  44.996   8.061   9.073
 2888POPC   GL238378  44.633   8.142   9.109
 2888POPC   C1A38379  44.813   7.935   8.689
 2888POPC   D2A38380  44.546   8.033   8.385
 2888POPC   C3A38381  44.800   8.033   8.052
 2888POPC   C4A38382  44.844   8.023   7.649
 2888POPC   C1B38383  44.644   8.429   8.734
 2888POPC   C2B38384  44.356   8.496   8.367
 2888POPC   C3B38385  44.453   8.384   7.961
 2888POPC   C4B38386  44.853   8.515   7.772
 2889POPC   NC338387  17.759   0.730   9.414
 2889POPC   PO438388  17.341   0.293   9.770
 2889POPC   GL138389  17.503   0.213   9.286
 2889POPC   GL238390  17.448   0.526   9.044
 2889POPC   C1A38391  17.564   0.083   8.825
 2889POPC   D2A38392  17.586   0.311   8.409
 2889POPC   C3A38393  17.281   0.217   8.080
 2889POPC   C4A38394  17.405   0.204   7.622
 2889POPC   C1B38395  17.591   0.771   8.662
 2889POPC   C2B38396  17.993   0.766   8.430
 2889POPC   C3B38397  17.931   0.703   7.989
 2889POPC   C4B38398  17.496   0.647   7.962
 2890POPC   NC338399   9.370  29.250   9.572
 2890POPC   PO438400  10.005  29.120   9.554
 2890POPC   GL138401   9.751  29.109   9.164
 2890POPC   GL238402   9.479  28.841   9.205
 2890POPC   C1A38403   9.770  29.266   8.722
 2890POPC   D2A38404   9.903  29.407   8.312
 2890POPC   C3A38405   9.649  29.231   7.971
 2890POPC   C4A38406   9.777  28.964   7.651
 2890POPC   C1B38407   9.633  28.764   8.778
 2890POPC   C2B38408   9.744  28.894   8.339
 2890POPC   C3B38409   9.441  28.771   7.984
 2890POPC   C4B38410   9.264  29.064   7.645
 2891POPC   NC338411  32.928   6.438   9.818
 2891POPC   PO438412  33.130   7.027   9.540
 2891POPC   GL138413  32.981   6.843   9.160
 2891POPC   GL238414  32.899   6.513   9.165
 2891POPC   C1A38415  32.757   6.845   8.778
 2891POPC   D2A38416  32.830   7.079   8.412
 2891POPC   C3A38417  32.728   6.933   8.009
 2891POPC   C4A38418  32.850   6.780   7.618
 2891POPC   C1B38419  32.815   6.327   8.768
 2891POPC   C2B38420  32.942   6.398   8.345
 2891POPC   C3B38421  33.127   6.560   7.978
 2891POPC   C4B38422  33.390   6.496   7.611
 2892POPC   NC338423  28.158   5.167   9.597
 2892POPC   PO438424  28.838   5.107   9.433
 2892POPC   GL138425  28.453   5.058   9.154
 2892POPC   GL238426  28.202   5.360   9.141
 2892POPC   C1A38427  28.469   4.895   8.712
 2892POPC   D2A38428  28.379   5.120   8.342
 2892POPC   C3A38429  28.518   5.055   7.918
 2892POPC   C4A38430  28.601   5.441   7.652
 2892POPC   C1B38431  28.032   5.104   8.813
 2892POPC   C2B38432  27.912   4.917   8.429
 2892POPC   C3B38433  27.990   4.932   8.010
 2892POPC   C4B38434  28.090   4.845   7.590
 2893POPC   NC338435   6.369   4.139   9.554
 2893POPC   PO438436   6.806   4.606   9.412
 2893POPC   GL138437   6.747   4.214   9.173
 2893POPC   GL238438   6.405   4.091   9.062
 2893POPC   C1A38439   6.815   4.046   8.782
 2893POPC   D2A38440   6.653   4.193   8.426
 2893POPC   C3A38441   6.893   4.125   8.096
 2893POPC   C4A38442   6.845   4.388   7.743
 2893POPC   C1B38443   6.431   4.468   8.803
 2893POPC   C2B38444   6.256   4.526   8.368
 2893POPC   C3B38445   6.352   4.413   7.916
 2893POPC   C4B38446   6.370   4.294   7.444
 2894POPC   NC338447  14.905   4.296   9.592
 2894POPC   PO438448  15.472   4.114   9.610
 2894POPC   GL138449  15.262   4.394   9.236
 2894POPC   GL238450  14.903   4.596   9.174
 2894POPC   C1A38451  15.407   4.355   8.805
 2894POPC   D2A38452  15.536   4.130   8.435
 2894POPC   C3A38453  15.480   4.321   8.022
 2894POPC   C4A38454  15.295   4.117   7.670
 2894POPC   C1B38455  14.901   4.394   8.793
 2894POPC   C2B38456  15.070   4.361   8.396
 2894POPC   C3B38457  14.949   4.174   8.036
 2894POPC   C4B38458  14.828   4.356   7.650
 2895POPC   NC338459   2.176   2.186   9.661
 2895POPC   PO438460   1.868   1.556   9.749
 2895POPC   GL138461   2.052   1.789   9.369
 2895POPC   GL238462   1.792   1.803   9.150
 2895POPC   C1A38463   2.213   2.046   8.992
 2895POPC   D2A38464   2.264   2.083   8.527
 2895POPC   C3A38465   2.196   1.852   8.120
 2895POPC   C4A38466   2.033   2.101   7.790
 2895POPC   C1B38467   1.765   1.967   8.766
 2895POPC   C2B38468   1.787   1.763   8.408
 2895POPC   C3B38469   1.649   1.842   8.009
 2895POPC   C4B38470   1.765   1.730   7.586
 2896POPC   NC338471  25.185  13.187   9.488
 2896POPC   PO438472  25.627  12.563   9.552
 2896POPC   GL138473  25.457  12.751   9.183
 2896POPC   GL238474  25.488  13.108   9.112
 2896POPC   C1A38475  25.281  12.740   8.764
 2896POPC   D2A38476  25.337  12.579   8.354
 2896POPC   C3A38477  24.963  12.498   8.154
 2896POPC   C4A38478  25.038  12.721   7.796
 2896POPC   C1B38479  25.223  13.231   8.775
 2896POPC   C2B38480  25.452  13.089   8.402
 2896POPC   C3B38481  25.451  12.974   7.971
 2896POPC   C4B38482  25.155  13.214   7.674
 2897POPC   NC338483  37.402  16.295   9.599
 2897POPC   PO438484  36.658  16.338   9.471
 2897POPC   GL138485  36.895  16.450   9.120
 2897POPC   GL238486  37.151  16.636   9.272
 2897POPC   C1A38487  36.867  16.662   8.745
 2897POPC   D2A38488  37.087  16.755   8.407
 2897POPC   C3A38489  36.922  16.774   7.983
 2897POPC   C4A38490  36.749  16.502   7.655
 2897POPC   C1B38491  37.282  16.940   8.974
 2897POPC   C2B38492  37.384  17.137   8.582
 2897POPC   C3B38493  37.231  17.177   8.160
 2897POPC   C4B38494  37.244  17.068   7.742
 2898POPC   NC338495  13.345   3.312   9.479
 2898POPC   PO438496  14.032   3.580   9.536
 2898POPC   GL138497  13.789   3.482   9.182
 2898POPC   GL238498  13.466   3.615   9.115
 2898POPC   C1A38499  13.786   3.390   8.741
 2898POPC   D2A38500  13.528   3.460   8.350
 2898POPC   C3A38501  13.737   3.417   7.930
 2898POPC   C4A38502  13.825   3.598   7.496
 2898POPC   C1B38503  13.446   3.789   8.760
 2898POPC   C2B38504  13.195   3.828   8.435
 2898POPC   C3B38505  13.077   3.664   8.058
 2898POPC   C4B38506  13.319   3.624   7.687
 2899POPC   NC338507  21.391  14.006   9.720
 2899POPC   PO438508  21.236  14.653   9.415
 2899POPC   GL138509  21.618  14.656   9.159
 2899POPC   GL238510  21.360  14.770   8.933
 2899POPC   C1A38511  21.700  14.478   8.729
 2899POPC   D2A38512  21.418  14.561   8.351
 2899POPC   C3A38513  21.396  14.290   7.972
 2899POPC   C4A38514  21.153  13.912   7.898
 2899POPC   C1B38515  21.017  14.612   8.696
 2899POPC   C2B38516  20.867  14.619   8.284
 2899POPC   C3B38517  20.990  14.587   7.870
 2899POPC   C4B38518  21.369  14.623   7.583
 2900POPC   NC338519  14.522  19.585   9.742
 2900POPC   PO438520  14.385  18.933   9.536
 2900POPC   GL138521  14.573  19.177   9.173
 2900POPC   GL238522  14.265  19.197   8.999
 2900POPC   C1A38523  14.687  19.164   8.716
 2900POPC   D2A38524  14.342  18.953   8.426
 2900POPC   C3A38525  14.420  18.889   7.958
 2900POPC   C4A38526  14.368  18.696   7.553
 2900POPC   C1B38527  13.901  19.343   8.785
 2900POPC   C2B38528  13.851  19.285   8.371
 2900POPC   C3B38529  14.093  19.274   8.036
 2900POPC   C4B38530  13.841  19.333   7.720
 2901POPC   NC338531  21.312  35.601   9.495
 2901POPC   PO438532  21.213  34.912   9.471
 2901POPC   GL138533  21.290  35.223   9.148
 2901POPC   GL238534  21.624  35.376   9.123
 2901POPC   C1A38535  21.258  35.491   8.783
 2901POPC   D2A38536  21.523  35.366   8.444
 2901POPC   C3A38537  21.346  35.438   8.050
 2901POPC   C4A38538  21.551  35.436   7.677
 2901POPC   C1B38539  21.734  35.708   8.800
 2901POPC   C2B38540  21.951  35.682   8.401
 2901POPC   C3B38541  21.783  35.792   7.984
 2901POPC   C4B38542  21.652  35.927   7.537
 2902POPC   NC338543  25.530  37.244   9.534
 2902POPC   PO438544  24.951  36.834   9.567
 2902POPC   GL138545  25.241  36.870   9.239
 2902POPC   GL238546  25.260  37.172   9.113
 2902POPC   C1A38547  25.094  36.832   8.786
 2902POPC   D2A38548  25.244  36.870   8.387
 2902POPC   C3A38549  25.097  36.614   8.070
 2902POPC   C4A38550  25.334  36.803   7.735
 2902POPC   C1B38551  25.570  37.095   8.768
 2902POPC   C2B38552  25.577  37.265   8.326
 2902POPC   C3B38553  25.321  37.291   7.892
 2902POPC   C4B38554  25.514  37.173   7.446
 2903POPC   NC338555   1.517  39.905   9.462
 2903POPC   PO438556   2.240  40.106   9.493
 2903POPC   GL138557   2.006  39.913   9.201
 2903POPC   GL238558   1.815  40.234   9.195
 2903POPC   C1A38559   2.180  39.830   8.810
 2903POPC   D2A38560   2.266  40.085   8.442
 2903POPC   C3A38561   2.092  39.944   8.060
 2903POPC   C4A38562   2.106  40.108   7.695
 2903POPC   C1B38563   1.800  40.162   8.759
 2903POPC   C2B38564   1.822  39.809   8.456
 2903POPC   C3B38565   1.594  39.725   8.098
 2903POPC   C4B38566   1.673  39.819   7.700
 2904POPC   NC338567  30.801  36.539   9.427
 2904POPC   PO438568  30.967  35.927   9.520
 2904POPC   GL138569  30.996  36.169   9.135
 2904POPC   GL238570  30.647  36.155   9.111
 2904POPC   C1A38571  30.806  36.348   8.693
 2904POPC   D2A38572  30.885  36.456   8.261
 2904POPC   C3A38573  30.880  36.155   7.953
 2904POPC   C4A38574  30.561  36.348   7.756
 2904POPC   C1B38575  30.451  35.950   8.770
 2904POPC   C2B38576  30.560  36.031   8.342
 2904POPC   C3B38577  30.425  35.896   7.937
 2904POPC   C4B38578  30.268  35.716   7.557
 2905POPC   NC338579  29.635  24.453   9.313
 2905POPC   PO438580  30.241  24.723   9.491
 2905POPC   GL138581  30.104  24.574   9.112
 2905POPC   GL238582  30.085  24.234   9.031
 2905POPC   C1A38583  29.868  24.681   8.750
 2905POPC   D2A38584  29.742  24.545   8.376
 2905POPC   C3A38585  30.135  24.406   8.184
 2905POPC   C4A38586  30.092  24.483   7.734
 2905POPC   C1B38587  29.777  24.154   8.744
 2905POPC   C2B38588  29.794  24.033   8.352
 2905POPC   C3B38589  29.728  24.214   7.974
 2905POPC   C4B38590  29.629  24.340   7.560
 2906POPC   NC338591  31.098  37.287   9.674
 2906POPC   PO438592  31.253  36.718   9.452
 2906POPC   GL138593  31.522  36.845   9.127
 2906POPC   GL238594  31.362  37.135   8.993
 2906POPC   C1A38595  31.477  36.735   8.709
 2906POPC   D2A38596  31.289  36.741   8.326
 2906POPC   C3A38597  31.544  36.644   8.014
 2906POPC   C4A38598  31.576  36.745   7.636
 2906POPC   C1B38599  31.754  37.166   8.750
 2906POPC   C2B38600  31.703  37.036   8.332
 2906POPC   C3B38601  31.679  37.145   7.923
 2906POPC   C4B38602  31.914  37.152   7.564
 2907POPC   NC338603  43.875   2.678   9.542
 2907POPC   PO438604  43.318   2.984   9.509
 2907POPC   GL138605  43.651   3.008   9.209
 2907POPC   GL238606  44.035   3.048   9.234
 2907POPC   C1A38607  43.739   2.842   8.810
 2907POPC   D2A38608  43.513   2.799   8.421
 2907POPC   C3A38609  43.617   2.469   8.115
 2907POPC   C4A38610  44.020   2.561   7.936
 2907POPC   C1B38611  44.227   3.057   8.825
 2907POPC   C2B38612  44.038   2.971   8.408
 2907POPC   C3B38613  44.223   3.018   8.004
 2907POPC   C4B38614  44.296   3.125   7.581
 2908POPC   NC338615   2.278   9.565   9.388
 2908POPC   PO438616   1.698   9.935   9.529
 2908POPC   GL138617   1.879   9.836   9.140
 2908POPC   GL238618   2.224   9.992   9.118
 2908POPC   C1A38619   1.785   9.616   8.755
 2908POPC   D2A38620   1.993   9.655   8.354
 2908POPC   C3A38621   1.819   9.770   7.988
 2908POPC   C4A38622   1.686   9.669   7.558
 2908POPC   C1B38623   2.288   9.743   8.762
 2908POPC   C2B38624   2.484   9.820   8.389
 2908POPC   C3B38625   2.360   9.853   7.985
 2908POPC   C4B38626   2.186   9.590   7.684
 2909POPC   NC338627  30.453   0.008   9.479
 2909POPC   PO438628  29.836  44.678   9.503
 2909POPC   GL138629  29.840  44.716   9.086
 2909POPC   GL238630  30.106  44.470   9.114
 2909POPC   C1A38631  29.845  44.430   8.689
 2909POPC   D2A38632  29.668  44.273   8.279
 2909POPC   C3A38633  29.815  44.593   7.971
 2909POPC   C4A38634  29.660  44.952   7.744
 2909POPC   C1B38635  30.262  44.787   8.839
 2909POPC   C2B38636  30.290  44.695   8.431
 2909POPC   C3B38637  30.351  44.715   8.027
 2909POPC   C4B38638  30.167  44.889   7.691
 2910POPC   NC338639  15.425  34.950   9.587
 2910POPC   PO438640  15.029  34.478   9.451
 2910POPC   GL138641  15.236  34.689   9.164
 2910POPC   GL238642  15.577  34.565   9.230
 2910POPC   C1A38643  15.066  34.778   8.752
 2910POPC   D2A38644  15.000  34.543   8.379
 2910POPC   C3A38645  14.830  34.566   7.996
 2910POPC   C4A38646  15.029  34.592   7.622
 2910POPC   C1B38647  15.421  34.381   8.821
 2910POPC   C2B38648  15.477  34.663   8.462
 2910POPC   C3B38649  15.378  34.702   8.025
 2910POPC   C4B38650  15.537  34.509   7.659
 2911POPC   NC338651  38.830   1.124   9.495
 2911POPC   PO438652  39.495   1.426   9.466
 2911POPC   GL138653  39.423   1.207   9.108
 2911POPC   GL238654  39.086   1.303   9.097
 2911POPC   C1A38655  39.308   1.112   8.681
 2911POPC   D2A38656  39.188   1.110   8.270
 2911POPC   C3A38657  39.383   1.193   7.914
 2911POPC   C4A38658  39.193   0.996   7.588
 2911POPC   C1B38659  38.850   1.371   8.725
 2911POPC   C2B38660  38.705   1.208   8.341
 2911POPC   C3B38661  38.825   1.350   7.928
 2911POPC   C4B38662  38.710   1.159   7.557
 2912POPC   NC338663  14.237  42.062   9.424
 2912POPC   PO438664  13.830  42.685   9.533
 2912POPC   GL138665  14.163  42.540   9.217
 2912POPC   GL238666  14.105  42.220   8.978
 2912POPC   C1A38667  14.497  42.523   8.895
 2912POPC   D2A38668  14.336  42.433   8.467
 2912POPC   C3A38669  14.348  42.625   8.026
 2912POPC   C4A38670  14.749  42.526   7.816
 2912POPC   C1B38671  14.474  42.024   8.820
 2912POPC   C2B38672  14.591  41.972   8.435
 2912POPC   C3B38673  14.476  42.139   8.040
 2912POPC   C4B38674  14.442  42.083   7.582
 2913POPC   NC338675  25.848  14.462   9.607
 2913POPC   PO438676  26.245  14.051   9.223
 2913POPC   GL138677  26.055  14.402   9.073
 2913POPC   GL238678  25.728  14.536   9.134
 2913POPC   C1A38679  26.115  14.360   8.643
 2913POPC   D2A38680  26.257  14.069   8.337
 2913POPC   C3A38681  26.032  14.169   7.982
 2913POPC   C4A38682  26.116  14.349   7.585
 2913POPC   C1B38683  25.631  14.444   8.729
 2913POPC   C2B38684  25.707  14.469   8.294
 2913POPC   C3B38685  25.827  14.630   7.915
 2913POPC   C4B38686  26.192  14.882   7.874
 2914POPC   NC338687  24.976   3.394   9.400
 2914POPC   PO438688  25.579   3.246   9.505
 2914POPC   GL138689  25.349   3.125   9.152
 2914POPC   GL238690  25.377   3.488   9.089
 2914POPC   C1A38691  25.169   3.206   8.728
 2914POPC   D2A38692  25.117   3.559   8.398
 2914POPC   C3A38693  25.098   3.431   7.941
 2914POPC   C4A38694  25.256   3.337   7.496
 2914POPC   C1B38695  25.589   3.795   8.831
 2914POPC   C2B38696  25.463   3.983   8.456
 2914POPC   C3B38697  25.421   3.835   8.034
 2914POPC   C4B38698  25.770   3.836   7.781
 2915POPC   NC338699  41.614  31.648   9.544
 2915POPC   PO438700  41.975  31.114   9.326
 2915POPC   GL138701  41.662  31.345   9.071
 2915POPC   GL238702  41.350  31.520   9.081
 2915POPC   C1A38703  41.638  31.674   8.708
 2915POPC   D2A38704  41.439  31.669   8.286
 2915POPC   C3A38705  41.707  31.525   7.918
 2915POPC   C4A38706  41.752  31.356   7.476
 2915POPC   C1B38707  41.340  31.178   8.726
 2915POPC   C2B38708  41.278  31.160   8.254
 2915POPC   C3B38709  41.138  31.380   7.875
 2915POPC   C4B38710  41.187  31.268   7.426
 2916POPC   NC338711   4.654  38.303   9.650
 2916POPC   PO438712   5.192  38.764   9.719
 2916POPC   GL138713   5.206  38.506   9.308
 2916POPC   GL238714   5.036  38.162   9.280
 2916POPC   C1A38715   5.262  38.651   8.862
 2916POPC   D2A38716   5.211  38.479   8.491
 2916POPC   C3A38717   5.227  38.651   8.111
 2916POPC   C4A38718   5.223  38.628   7.695
 2916POPC   C1B38719   5.142  38.080   8.841
 2916POPC   C2B38720   4.948  38.055   8.418
 2916POPC   C3B38721   5.056  38.102   7.985
 2916POPC   C4B38722   4.704  38.061   7.694
 2917POPC   NC338723  28.946  11.364   9.468
 2917POPC   PO438724  29.461  11.183   9.663
 2917POPC   GL138725  29.336  11.212   9.203
 2917POPC   GL238726  29.288  10.899   9.064
 2917POPC   C1A38727  29.056  11.308   8.831
 2917POPC   D2A38728  29.206  11.321   8.407
 2917POPC   C3A38729  29.018  11.437   8.062
 2917POPC   C4A38730  29.060  11.455   7.623
 2917POPC   C1B38731  29.262  10.864   8.619
 2917POPC   C2B38732  29.508  10.915   8.241
 2917POPC   C3B38733  29.461  11.204   7.892
 2917POPC   C4B38734  29.509  11.316   7.425
 2918POPC   NC338735  33.425   9.077   9.426
 2918POPC   PO438736  32.780   9.228   9.508
 2918POPC   GL138737  32.982   9.065   9.174
 2918POPC   GL238738  32.955   9.412   9.046
 2918POPC   C1A38739  33.238   8.877   8.804
 2918POPC   D2A38740  33.197   8.568   8.466
 2918POPC   C3A38741  33.243   8.693   8.041
 2918POPC   C4A38742  33.178   9.080   7.834
 2918POPC   C1B38743  32.782   9.131   8.739
 2918POPC   C2B38744  32.905   8.964   8.368
 2918POPC   C3B38745  32.716   8.923   8.004
 2918POPC   C4B38746  32.703   9.267   7.701
 2919POPC   NC338747  13.773  39.528   9.312
 2919POPC   PO438748  13.548  40.014   9.767
 2919POPC   GL138749  13.611  40.029   9.325
 2919POPC   GL238750  13.974  40.088   9.321
 2919POPC   C1A38751  13.441  39.972   8.909
 2919POPC   D2A38752  13.643  39.942   8.513
 2919POPC   C3A38753  13.464  39.871   8.090
 2919POPC   C4A38754  13.572  39.811   7.660
 2919POPC   C1B38755  13.916  40.232   8.908
 2919POPC   C2B38756  13.845  40.431   8.522
 2919POPC   C3B38757  13.891  40.212   8.151
 2919POPC   C4B38758  13.782  40.297   7.765
 2920POPC   NC338759  44.254  23.490   9.517
 2920POPC   PO438760  44.701  24.082   9.619
 2920POPC   GL138761  44.775  23.830   9.236
 2920POPC   GL238762  44.693  23.458   9.222
 2920POPC   C1A38763  44.780  23.781   8.795
 2920POPC   D2A38764  44.634  24.015   8.436
 2920POPC   C3A38765  44.869  23.937   8.068
 2920POPC   C4A38766  44.873  23.699   7.699
 2920POPC   C1B38767  44.474  23.353   8.825
 2920POPC   C2B38768  44.473  23.495   8.395
 2920POPC   C3B38769  44.428  23.702   7.994
 2920POPC   C4B38770  44.389  23.694   7.527
 2921POPC   NC338771  43.989  29.443   9.642
 2921POPC   PO438772  44.091  28.813   9.583
 2921POPC   GL138773  44.032  29.067   9.218
 2921POPC   GL238774  44.122  29.446   9.164
 2921POPC   C1A38775  43.821  29.026   8.807
 2921POPC   D2A38776  43.872  28.799   8.411
 2921POPC   C3A38777  43.714  28.936   7.996
 2921POPC   C4A38778  43.581  28.756   7.591
 2921POPC   C1B38779  44.322  29.243   8.843
 2921POPC   C2B38780  44.153  29.233   8.467
 2921POPC   C3B38781  44.194  29.179   8.067
 2921POPC   C4B38782  44.018  29.379   7.727
 2922POPC   NC338783  44.885   9.460   9.335
 2922POPC   PO438784  44.478   9.956   9.424
 2922POPC   GL138785  44.600   9.775   9.020
 2922POPC   GL238786  44.896   9.931   9.073
 2922POPC   C1A38787  44.796   9.443   8.697
 2922POPC   D2A38788  44.826   9.335   8.244
 2922POPC   C3A38789  44.632   9.699   8.024
 2922POPC   C4A38790  44.490  10.071   7.806
 2922POPC   C1B38791   0.042   9.901   8.664
 2922POPC   C2B38792   0.130   9.955   8.220
 2922POPC   C3B38793   0.041   9.908   7.805
 2922POPC   C4B38794  44.968   9.516   7.651
 2923POPC   NC338795  21.506  25.130   9.732
 2923POPC   PO438796  20.946  25.381   9.574
 2923POPC   GL138797  21.237  25.119   9.275
 2923POPC   GL238798  21.628  25.023   9.257
 2923POPC   C1A38799  21.317  24.922   8.873
 2923POPC   D2A38800  21.260  24.839   8.471
 2923POPC   C3A38801  21.284  25.076   8.102
 2923POPC   C4A38802  21.193  25.435   7.892
 2923POPC   C1B38803  21.650  25.301   8.896
 2923POPC   C2B38804  21.647  25.214   8.454
 2923POPC   C3B38805  21.692  25.427   8.044
 2923POPC   C4B38806  21.707  25.276   7.614
 2924POPC   NC338807  36.068  15.328   9.578
 2924POPC   PO438808  35.927  14.728   9.433
 2924POPC   GL138809  36.172  15.061   9.154
 2924POPC   GL238810  36.222  15.480   9.135
 2924POPC   C1A38811  36.318  15.161   8.759
 2924POPC   D2A38812  36.156  15.223   8.363
 2924POPC   C3A38813  36.079  14.983   7.999
 2924POPC   C4A38814  35.837  14.824   7.685
 2924POPC   C1B38815  35.849  15.421   8.841
 2924POPC   C2B38816  35.678  15.426   8.400
 2924POPC   C3B38817  35.908  15.477   8.010
 2924POPC   C4B38818  36.229  15.379   7.712
 2925POPC   NC338819  37.102  11.541   9.552
 2925POPC   PO438820  37.174  10.860   9.630
 2925POPC   GL138821  36.843  11.080   9.323
 2925POPC   GL238822  36.643  11.433   9.247
 2925POPC   C1A38823  36.966  11.242   8.920
 2925POPC   D2A38824  37.114  11.478   8.568
 2925POPC   C3A38825  37.007  11.367   8.155
 2925POPC   C4A38826  37.193  11.310   7.762
 2925POPC   C1B38827  36.600  11.569   8.780
 2925POPC   C2B38828  36.738  11.759   8.357
 2925POPC   C3B38829  36.603  11.607   7.973
 2925POPC   C4B38830  36.696  11.279   7.714
 2926POPC   NC338831  31.218  29.407   9.547
 2926POPC   PO438832  31.930  29.540   9.577
 2926POPC   GL138833  31.863  29.354   9.176
 2926POPC   GL238834  31.550  29.143   9.208
 2926POPC   C1A38835  31.713  29.354   8.741
 2926POPC   D2A38836  31.833  29.123   8.351
 2926POPC   C3A38837  31.792  29.364   7.977
 2926POPC   C4A38838  31.433  29.432   7.742
 2926POPC   C1B38839  31.586  28.867   8.844
 2926POPC   C2B38840  31.319  28.698   8.522
 2926POPC   C3B38841  31.313  28.655   8.104
 2926POPC   C4B38842  31.563  28.895   7.846
 2927POPC   NC338843  29.729  12.888   9.556
 2927POPC   PO438844  30.439  12.839   9.718
 2927POPC   GL138845  30.305  12.958   9.287
 2927POPC   GL238846  30.096  12.662   9.232
 2927POPC   C1A38847  30.147  12.965   8.834
 2927POPC   D2A38848  29.781  13.090   8.581
 2927POPC   C3A38849  29.852  13.011   8.156
 2927POPC   C4A38850  29.872  12.905   7.724
 2927POPC   C1B38851  29.720  12.668   8.919
 2927POPC   C2B38852  29.737  12.555   8.476
 2927POPC   C3B38853  29.887  12.486   8.042
 2927POPC   C4B38854  29.865  12.423   7.602
 2928POPC   NC338855  11.600  22.246   9.576
 2928POPC   PO438856  10.982  22.176   9.442
 2928POPC   GL138857  11.271  22.114   9.167
 2928POPC   GL238858  10.979  22.022   8.963
 2928POPC   C1A38859  11.508  22.241   8.825
 2928POPC   D2A38860  11.413  22.069   8.442
 2928POPC   C3A38861  11.678  22.059   8.083
 2928POPC   C4A38862  11.518  22.041   7.681
 2928POPC   C1B38863  10.902  22.049   8.560
 2928POPC   C2B38864  11.004  22.416   8.371
 2928POPC   C3B38865  11.222  22.326   8.021
 2928POPC   C4B38866  11.169  22.485   7.653
 2929POPC   NC338867   1.844   1.097   9.812
 2929POPC   PO438868   2.252   1.343   9.268
 2929POPC   GL138869   2.214   1.541   8.936
 2929POPC   GL238870   1.899   1.415   8.835
 2929POPC   C1A38871   2.267   1.522   8.509
 2929POPC   D2A38872   1.950   1.274   8.337
 2929POPC   C3A38873   1.931   1.392   7.911
 2929POPC   C4A38874   2.124   1.378   7.476
 2929POPC   C1B38875   1.574   1.101   8.751
 2929POPC   C2B38876   1.383   0.979   8.377
 2929POPC   C3B38877   1.691   0.957   8.052
 2929POPC   C4B38878   1.726   1.001   7.625
 2930POPC   NC338879   0.032  31.998   9.453
 2930POPC   PO438880  44.355  31.872   9.518
 2930POPC   GL138881  44.560  32.140   9.220
 2930POPC   GL238882  44.287  32.300   9.026
 2930POPC   C1A38883  44.777  32.368   8.884
 2930POPC   D2A38884  44.646  32.285   8.474
 2930POPC   C3A38885  44.859  32.521   8.170
 2930POPC   C4A38886  44.805  32.536   7.750
 2930POPC   C1B38887  44.397  31.928   8.758
 2930POPC   C2B38888  44.404  31.870   8.294
 2930POPC   C3B38889  44.453  32.196   7.993
 2930POPC   C4B38890  44.524  32.133   7.580
 2931POPC   NC338891  40.674  36.769   9.607
 2931POPC   PO438892  40.607  37.351   9.259
 2931POPC   GL138893  40.817  37.014   9.165
 2931POPC   GL238894  40.626  36.700   9.095
 2931POPC   C1A38895  40.971  36.926   8.767
 2931POPC   D2A38896  40.996  36.713   8.391
 2931POPC   C3A38897  41.147  36.968   8.076
 2931POPC   C4A38898  40.919  36.788   7.780
 2931POPC   C1B38899  40.425  36.987   8.794
 2931POPC   C2B38900  40.494  37.243   8.448
 2931POPC   C3B38901  40.595  37.006   8.094
 2931POPC   C4B38902  40.474  36.988   7.647
 2932POPC   NC338903  37.368  23.026   9.633
 2932POPC   PO438904  36.796  22.796   9.538
 2932POPC   GL138905  36.862  22.971   9.162
 2932POPC   GL238906  37.212  22.993   9.152
 2932POPC   C1A38907  36.924  22.952   8.729
 2932POPC   D2A38908  36.748  22.949   8.378
 2932POPC   C3A38909  36.972  22.769   8.091
 2932POPC   C4A38910  36.903  22.981   7.729
 2932POPC   C1B38911  37.341  23.249   8.794
 2932POPC   C2B38912  37.285  23.071   8.379
 2932POPC   C3B38913  37.372  23.129   7.940
 2932POPC   C4B38914  37.292  23.244   7.517
 2933POPC   NC338915  24.176  32.540   9.563
 2933POPC   PO438916  24.426  31.885   9.558
 2933POPC   GL138917  24.494  32.203   9.225
 2933POPC   GL238918  24.253  32.387   9.064
 2933POPC   C1A38919  24.663  32.217   8.808
 2933POPC   D2A38920  24.435  32.366   8.418
 2933POPC   C3A38921  24.720  32.281   8.112
 2933POPC   C4A38922  24.710  32.094   7.757
 2933POPC   C1B38923  24.491  32.689   8.797
 2933POPC   C2B38924  24.497  32.910   8.435
 2933POPC   C3B38925  24.428  32.729   8.033
 2933POPC   C4B38926  24.224  32.337   7.927
 2934POPC   NC338927   0.028  33.738   9.518
 2934POPC   PO438928  44.351  33.757   9.582
 2934POPC   GL138929  44.681  33.989   9.235
 2934POPC   GL238930   0.022  33.884   9.041
 2934POPC   C1A38931  44.586  33.958   8.757
 2934POPC   D2A38932  44.664  33.752   8.339
 2934POPC   C3A38933  44.464  33.884   7.975
 2934POPC   C4A38934  44.424  34.064   7.600
 2934POPC   C1B38935   0.046  34.199   8.706
 2934POPC   C2B38936  44.843  34.244   8.278
 2934POPC   C3B38937  44.899  34.224   7.809
 2934POPC   C4B38938  44.873  34.196   7.336
 2935POPC   NC338939  27.454  22.576   9.546
 2935POPC   PO438940  27.582  21.927   9.584
 2935POPC   GL138941  27.641  22.227   9.215
 2935POPC   GL238942  27.299  22.270   9.125
 2935POPC   C1A38943  27.655  22.395   8.785
 2935POPC   D2A38944  27.820  22.369   8.383
 2935POPC   C3A38945  27.459  22.371   8.120
 2935POPC   C4A38946  27.522  22.236   7.734
 2935POPC   C1B38947  27.460  21.930   8.818
 2935POPC   C2B38948  27.606  21.898   8.364
 2935POPC   C3B38949  27.899  21.970   8.000
 2935POPC   C4B38950  27.779  21.847   7.559
 2936POPC   NC338951  37.361  38.870   9.622
 2936POPC   PO438952  37.485  38.141   9.640
 2936POPC   GL138953  37.713  38.388   9.282
 2936POPC   GL238954  37.702  38.747   9.155
 2936POPC   C1A38955  37.755  38.303   8.812
 2936POPC   D2A38956  37.910  38.309   8.376
 2936POPC   C3A38957  37.664  38.178   8.008
 2936POPC   C4A38958  37.783  38.251   7.597
 2936POPC   C1B38959  37.515  38.756   8.739
 2936POPC   C2B38960  37.583  38.706   8.304
 2936POPC   C3B38961  37.682  38.681   7.859
 2936POPC   C4B38962  37.639  38.743   7.385
 2937POPC   NC338963  40.656  28.778   9.468
 2937POPC   PO438964  40.700  28.138   9.434
 2937POPC   GL138965  40.936  28.273   9.074
 2937POPC   GL238966  40.880  28.586   9.076
 2937POPC   C1A38967  40.846  28.286   8.635
 2937POPC   D2A38968  40.547  28.160   8.308
 2937POPC   C3A38969  40.633  28.354   7.866
 2937POPC   C4A38970  40.444  28.221   7.463
 2937POPC   C1B38971  40.685  28.760   8.738
 2937POPC   C2B38972  40.648  28.642   8.311
 2937POPC   C3B38973  40.655  28.874   7.955
 2937POPC   C4B38974  41.028  28.922   7.752
 2938POPC   NC338975  17.212  24.367   9.426
 2938POPC   PO438976  16.477  24.567   9.485
 2938POPC   GL138977  16.528  24.601   9.090
 2938POPC   GL238978  16.877  24.575   9.084
 2938POPC   C1A38979  16.545  24.482   8.677
 2938POPC   D2A38980  16.762  24.328   8.325
 2938POPC   C3A38981  16.535  24.454   7.985
 2938POPC   C4A38982  16.341  24.469   7.561
 2938POPC   C1B38983  17.019  24.235   8.763
 2938POPC   C2B38984  17.256  24.205   8.328
 2938POPC   C3B38985  17.152  24.139   7.869
 2938POPC   C4B38986  16.824  24.317   7.606
 2939POPC   NC338987   7.771  18.375   9.502
 2939POPC   PO438988   7.379  17.863   9.419
 2939POPC   GL138989   7.452  18.185   9.141
 2939POPC   GL238990   7.769  18.144   9.064
 2939POPC   C1A38991   7.240  18.317   8.801
 2939POPC   D2A38992   7.419  18.260   8.415
 2939POPC   C3A38993   7.258  18.393   8.084
 2939POPC   C4A38994   7.395  18.399   7.684
 2939POPC   C1B38995   7.818  18.088   8.681
 2939POPC   C2B38996   7.912  18.229   8.295
 2939POPC   C3B38997   7.702  18.100   7.968
 2939POPC   C4B38998   7.692  17.785   7.635
 2940POPC   NC338999   8.936  28.297   9.508
 2940POPC   PO439000   9.024  28.962   9.444
 2940POPC   GL139001   9.011  28.631   9.101
 2940POPC   GL239002   9.063  28.248   9.035
 2940POPC   C1A39003   9.162  28.576   8.668
 2940POPC   D2A39004   9.136  28.254   8.366
 2940POPC   C3A39005   9.040  28.414   7.980
 2940POPC   C4A39006   9.140  28.246   7.583
 2940POPC   C1B39007   8.755  28.226   8.709
 2940POPC   C2B39008   8.645  28.285   8.271
 2940POPC   C3B39009   8.447  28.163   7.905
 2940POPC   C4B39010   8.343  27.868   7.565
 2941POPC   NC339011  34.443  17.172   9.408
 2941POPC   PO439012  34.190  16.462   9.442
 2941POPC   GL139013  34.526  16.579   9.114
 2941POPC   GL239014  34.499  16.914   8.984
 2941POPC   C1A39015  34.743  16.589   8.671
 2941POPC   D2A39016  34.691  16.787   8.258
 2941POPC   C3A39017  34.903  16.934   7.862
 2941POPC   C4A39018  34.778  17.121   7.446
 2941POPC   C1B39019  34.201  16.677   8.735
 2941POPC   C2B39020  34.207  16.577   8.304
 2941POPC   C3B39021  34.274  16.900   7.973
 2941POPC   C4B39022  34.273  16.899   7.516
 2942POPC   NC339023  21.350   1.740   9.250
 2942POPC   PO439024  20.972   2.212   9.540
 2942POPC   GL139025  21.179   2.193   9.121
 2942POPC   GL239026  21.542   2.160   9.052
 2942POPC   C1A39027  21.020   2.088   8.740
 2942POPC   D2A39028  21.158   2.181   8.341
 2942POPC   C3A39029  21.083   1.966   7.999
 2942POPC   C4A39030  21.088   2.191   7.634
 2942POPC   C1B39031  21.497   1.971   8.647
 2942POPC   C2B39032  21.622   1.922   8.240
 2942POPC   C3B39033  21.587   2.057   7.841
 2942POPC   C4B39034  21.545   1.996   7.432
 2943POPC   NC339035   2.585  14.576   9.512
 2943POPC   PO439036   3.085  14.944   9.401
 2943POPC   GL139037   2.839  14.619   9.068
 2943POPC   GL239038   2.439  14.500   9.031
 2943POPC   C1A39039   2.710  14.619   8.610
 2943POPC   D2A39040   2.548  14.956   8.338
 2943POPC   C3A39041   2.488  14.667   8.021
 2943POPC   C4A39042   2.837  14.464   7.898
 2943POPC   C1B39043   2.527  14.145   8.721
 2943POPC   C2B39044   2.726  14.143   8.290
 2943POPC   C3B39045   2.579  14.021   7.860
 2943POPC   C4B39046   2.418  13.872   7.410
 2944POPC   NC339047  44.375  24.283   9.326
 2944POPC   PO439048  44.788  24.678   9.723
 2944POPC   GL139049  44.736  24.660   9.246
 2944POPC   GL239050  44.751  24.352   9.031
 2944POPC   C1A39051  44.482  24.732   8.821
 2944POPC   D2A39052  44.362  24.502   8.476
 2944POPC   C3A39053  44.495  24.624   8.090
 2944POPC   C4A39054  44.628  24.293   7.793
 2944POPC   C1B39055  44.987  24.670   8.804
 2944POPC   C2B39056  44.855  24.801   8.421
 2944POPC   C3B39057  44.980  24.711   8.004
 2944POPC   C4B39058   0.036  24.541   7.589
 2945POPC   NC339059  15.015  30.441   9.665
 2945POPC   PO439060  14.710  30.965   9.494
 2945POPC   GL139061  15.010  30.731   9.199
 2945POPC   GL239062  15.153  30.989   8.962
 2945POPC   C1A39063  15.249  30.481   8.868
 2945POPC   D2A39064  15.413  30.409   8.407
 2945POPC   C3A39065  15.311  30.625   7.992
 2945POPC   C4A39066  15.248  30.550   7.504
 2945POPC   C1B39067  15.003  30.792   8.551
 2945POPC   C2B39068  14.859  30.877   8.116
 2945POPC   C3B39069  15.000  30.965   7.682
 2945POPC   C4B39070  14.906  31.026   7.213
 2946POPC   NC339071  37.543   1.675   9.317
 2946POPC   PO439072  37.726   1.165   9.597
 2946POPC   GL139073  37.910   1.135   9.202
 2946POPC   GL239074  37.594   1.232   9.063
 2946POPC   C1A39075  37.871   0.899   8.803
 2946POPC   D2A39076  37.974   1.035   8.398
 2946POPC   C3A39077  37.777   0.990   8.027
 2946POPC   C4A39078  37.901   1.204   7.669
 2946POPC   C1B39079  37.354   1.210   8.686
 2946POPC   C2B39080  37.389   1.274   8.256
 2946POPC   C3B39081  37.406   1.232   7.784
 2946POPC   C4B39082  37.521   1.077   7.355
 2947POPC   NC339083  35.770  31.288   9.545
 2947POPC   PO439084  36.314  31.752   9.483
 2947POPC   GL139085  36.268  31.434   9.168
 2947POPC   GL239086  35.919  31.374   9.051
 2947POPC   C1A39087  36.451  31.315   8.810
 2947POPC   D2A39088  36.264  31.514   8.479
 2947POPC   C3A39089  36.399  31.512   8.071
 2947POPC   C4A39090  36.326  31.469   7.681
 2947POPC   C1B39091  35.977  31.166   8.736
 2947POPC   C2B39092  36.085  31.060   8.364
 2947POPC   C3B39093  35.920  31.361   8.109
 2947POPC   C4B39094  35.807  31.431   7.727
 2948POPC   NC339095  38.747  34.467   9.439
 2948POPC   PO439096  38.239  34.896   9.449
 2948POPC   GL139097  38.149  34.689   9.074
 2948POPC   GL239098  38.400  34.409   9.080
 2948POPC   C1A39099  38.376  34.694   8.681
 2948POPC   D2A39100  38.362  34.415   8.358
 2948POPC   C3A39101  38.517  34.611   8.034
 2948POPC   C4A39102  38.120  34.657   7.878
 2948POPC   C1B39103  38.706  34.290   8.715
 2948POPC   C2B39104  38.773  34.126   8.254
 2948POPC   C3B39105  38.795  34.245   7.798
 2948POPC   C4B39106  38.606  34.178   7.381
 2949POPC   NC339107  43.994  42.676   9.527
 2949POPC   PO439108  44.016  43.407   9.527
 2949POPC   GL139109  43.848  43.166   9.194
 2949POPC   GL239110  44.058  42.910   9.107
 2949POPC   C1A39111  43.680  43.100   8.774
 2949POPC   D2A39112  43.484  43.177   8.390
 2949POPC   C3A39113  43.675  43.080   8.016
 2949POPC   C4A39114  43.787  43.307   7.665
 2949POPC   C1B39115  43.937  42.675   8.799
 2949POPC   C2B39116  43.825  42.744   8.419
 2949POPC   C3B39117  44.113  42.581   8.145
 2949POPC   C4B39118  44.131  42.560   7.725
 2950POPC   NC339119  42.994  38.815   9.586
 2950POPC   PO439120  43.478  39.259   9.479
 2950POPC   GL139121  43.100  39.189   9.215
 2950POPC   GL239122  42.796  39.423   9.207
 2950POPC   C1A39123  43.030  39.102   8.796
 2950POPC   D2A39124  43.221  39.172   8.396
 2950POPC   C3A39125  42.984  39.149   8.016
 2950POPC   C4A39126  43.109  39.122   7.616
 2950POPC   C1B39127  42.799  39.570   8.769
 2950POPC   C2B39128  42.826  39.478   8.371
 2950POPC   C3B39129  42.726  39.612   7.970
 2950POPC   C4B39130  42.834  39.539   7.537
 2951POPC   NC339131  23.291  10.338   9.305
 2951POPC   PO439132  23.874  10.522   9.611
 2951POPC   GL139133  23.663  10.663   9.182
 2951POPC   GL239134  23.373  10.861   9.054
 2951POPC   C1A39135  23.607  10.499   8.742
 2951POPC   D2A39136  23.484  10.162   8.452
 2951POPC   C3A39137  23.674  10.242   8.069
 2951POPC   C4A39138  23.868  10.431   7.681
 2951POPC   C1B39139  23.529  11.008   8.657
 2951POPC   C2B39140  23.697  10.798   8.296
 2951POPC   C3B39141  23.479  10.681   7.933
 2951POPC   C4B39142  23.578  10.853   7.576
 2952POPC   NC339143   4.450  37.544   9.606
 2952POPC   PO439144   3.950  37.964   9.582
 2952POPC   GL139145   4.186  37.809   9.216
 2952POPC   GL239146   4.366  37.474   9.122
 2952POPC   C1A39147   4.092  37.779   8.783
 2952POPC   D2A39148   4.342  37.854   8.431
 2952POPC   C3A39149   4.159  37.805   8.008
 2952POPC   C4A39150   4.410  37.664   7.654
 2952POPC   C1B39151   4.411  37.400   8.703
 2952POPC   C2B39152   4.129  37.372   8.400
 2952POPC   C3B39153   4.270  37.316   8.023
 2952POPC   C4B39154   4.166  37.233   7.611
 2953POPC   NC339155   9.850  13.747   9.912
 2953POPC   PO439156   9.981  13.386   9.351
 2953POPC   GL139157   9.661  13.545   9.038
 2953POPC   GL239158   9.906  13.773   8.896
 2953POPC   C1A39159   9.440  13.707   8.646
 2953POPC   D2A39160   9.217  13.820   8.252
 2953POPC   C3A39161   9.414  13.497   8.019
 2953POPC   C4A39162   9.698  13.484   7.682
 2953POPC   C1B39163   9.933  13.475   8.616
 2953POPC   C2B39164   9.871  13.560   8.230
 2953POPC   C3B39165  10.112  13.738   7.907
 2953POPC   C4B39166  10.158  13.743   7.459
 2954POPC   NC339167  14.999  10.507   9.501
 2954POPC   PO439168  15.544  10.864   9.618
 2954POPC   GL139169  15.378  10.745   9.158
 2954POPC   GL239170  15.175  10.446   9.039
 2954POPC   C1A39171  15.133  10.795   8.713
 2954POPC   D2A39172  14.988  10.467   8.420
 2954POPC   C3A39173  15.083  10.670   8.027
 2954POPC   C4A39174  15.478  10.808   7.808
 2954POPC   C1B39175  15.332  10.173   8.697
 2954POPC   C2B39176  15.359   9.987   8.292
 2954POPC   C3B39177  15.193  10.165   7.909
 2954POPC   C4B39178  15.368  10.360   7.561
 2955POPC   NC339179  19.133  24.754   9.477
 2955POPC   PO439180  19.149  24.121   9.331
 2955POPC   GL139181  18.933  24.346   9.025
 2955POPC   GL239182  18.725  24.598   9.200
 2955POPC   C1A39183  19.035  24.472   8.598
 2955POPC   D2A39184  19.352  24.689   8.320
 2955POPC   C3A39185  19.298  24.580   7.899
 2955POPC   C4A39186  18.881  24.502   7.667
 2955POPC   C1B39187  18.582  24.813   8.842
 2955POPC   C2B39188  18.574  24.707   8.419
 2955POPC   C3B39189  18.864  24.808   8.094
 2955POPC   C4B39190  18.723  24.981   7.695
 2956POPC   NC339191  18.997  30.351   9.584
 2956POPC   PO439192  19.021  31.071   9.696
 2956POPC   GL139193  19.157  30.929   9.264
 2956POPC   GL239194  19.032  30.619   9.110
 2956POPC   C1A39195  19.317  30.970   8.829
 2956POPC   D2A39196  19.151  30.845   8.443
 2956POPC   C3A39197  19.318  30.973   8.068
 2956POPC   C4A39198  19.073  30.852   7.750
 2956POPC   C1B39199  18.892  30.400   8.713
 2956POPC   C2B39200  18.817  30.207   8.306
 2956POPC   C3B39201  18.906  30.387   7.887
 2956POPC   C4B39202  19.116  30.385   7.478
 2957POPC   NC339203  13.071  16.408   9.938
 2957POPC   PO439204  12.798  15.899   9.550
 2957POPC   GL139205  12.701  15.941   9.093
 2957POPC   GL239206  12.375  15.739   9.048
 2957POPC   C1A39207  12.918  16.044   8.649
 2957POPC   D2A39208  12.803  15.880   8.239
 2957POPC   C3A39209  12.971  15.929   7.823
 2957POPC   C4A39210  12.803  16.127   7.467
 2957POPC   C1B39211  12.569  15.657   8.680
 2957POPC   C2B39212  12.537  15.448   8.307
 2957POPC   C3B39213  12.513  15.562   7.902
 2957POPC   C4B39214  12.762  15.541   7.564
 2958POPC   NC339215   5.580  17.780   9.851
 2958POPC   PO439216   5.106  17.358   9.482
 2958POPC   GL139217   5.050  17.446   9.075
 2958POPC   GL239218   5.378  17.419   8.975
 2958POPC   C1A39219   4.743  17.630   8.772
 2958POPC   D2A39220   4.622  17.886   8.383
 2958POPC   C3A39221   4.699  17.661   7.950
 2958POPC   C4A39222   4.638  17.614   7.434
 2958POPC   C1B39223   5.251  17.761   8.721
 2958POPC   C2B39224   5.085  17.682   8.330
 2958POPC   C3B39225   5.205  17.774   7.922
 2958POPC   C4B39226   5.069  17.467   7.661
 2959POPC   NC339227  19.196  37.169   9.619
 2959POPC   PO439228  19.390  36.550   9.633
 2959POPC   GL139229  19.141  36.768   9.305
 2959POPC   GL239230  19.228  36.538   9.102
 2959POPC   C1A39231  19.027  37.021   8.922
 2959POPC   D2A39232  19.072  36.986   8.478
 2959POPC   C3A39233  18.781  37.070   8.158
 2959POPC   C4A39234  19.007  37.070   7.754
 2959POPC   C1B39235  18.892  36.520   8.830
 2959POPC   C2B39236  18.750  36.584   8.404
 2959POPC   C3B39237  19.027  36.638   8.062
 2959POPC   C4B39238  19.013  36.427   7.716
 2960POPC   NC339239  25.080   8.464   9.417
 2960POPC   PO439240  25.283   7.841   9.570
 2960POPC   GL139241  25.426   8.149   9.230
 2960POPC   GL239242  25.201   8.058   9.103
 2960POPC   C1A39243  25.619   8.397   8.831
 2960POPC   D2A39244  25.448   8.471   8.391
 2960POPC   C3A39245  25.514   8.389   7.931
 2960POPC   C4A39246  25.134   8.346   7.640
 2960POPC   C1B39247  25.148   8.185   8.721
 2960POPC   C2B39248  25.285   7.977   8.398
 2960POPC   C3B39249  25.205   7.996   8.007
 2960POPC   C4B39250  25.486   7.917   7.671
 2961POPC   NC339251  19.824  29.480   9.456
 2961POPC   PO439252  19.464  29.983   9.736
 2961POPC   GL139253  19.582  29.831   9.198
 2961POPC   GL239254  19.838  29.679   9.005
 2961POPC   C1A39255  19.779  30.119   8.807
 2961POPC   D2A39256  19.789  29.903   8.424
 2961POPC   C3A39257  20.029  30.051   8.074
 2961POPC   C4A39258  20.004  29.924   7.659
 2961POPC   C1B39259  20.136  29.600   8.737
 2961POPC   C2B39260  20.224  29.648   8.314
 2961POPC   C3B39261  19.863  29.562   8.037
 2961POPC   C4B39262  19.818  29.303   7.718
 2962POPC   NC339263  39.290  10.676   9.654
 2962POPC   PO439264  39.024  10.164   9.424
 2962POPC   GL139265  39.127  10.571   9.158
 2962POPC   GL239266  39.459  10.753   9.154
 2962POPC   C1A39267  39.123  10.641   8.688
 2962POPC   D2A39268  39.279  10.714   8.268
 2962POPC   C3A39269  39.012  10.680   7.937
 2962POPC   C4A39270  38.688  10.612   7.642
 2962POPC   C1B39271  39.533  10.390   8.882
 2962POPC   C2B39272  39.390  10.230   8.471
 2962POPC   C3B39273  39.522  10.314   8.027
 2962POPC   C4B39274  39.549  10.499   7.616
 2963POPC   NC339275   4.324  14.610   9.571
 2963POPC   PO439276   4.121  14.077   9.266
 2963POPC   GL139277   4.380  14.345   9.070
 2963POPC   GL239278   4.309  14.675   9.055
 2963POPC   C1A39279   4.314  14.354   8.632
 2963POPC   D2A39280   4.476  14.449   8.255
 2963POPC   C3A39281   4.401  14.165   7.928
 2963POPC   C4A39282   3.996  14.105   7.771
 2963POPC   C1B39283   4.224  14.868   8.662
 2963POPC   C2B39284   4.021  14.690   8.312
 2963POPC   C3B39285   4.100  14.609   7.881
 2963POPC   C4B39286   4.491  14.620   7.725
 2964POPC   NC339287   1.241  11.612   9.336
 2964POPC   PO439288   0.819  12.054   9.519
 2964POPC   GL139289   1.103  12.178   9.188
 2964POPC   GL239290   1.466  12.273   9.259
 2964POPC   C1A39291   1.243  12.044   8.799
 2964POPC   D2A39292   1.472  11.793   8.524
 2964POPC   C3A39293   1.506  11.893   8.092
 2964POPC   C4A39294   1.261  11.879   7.691
 2964POPC   C1B39295   1.661  12.325   8.843
 2964POPC   C2B39296   1.501  12.320   8.404
 2964POPC   C3B39297   1.634  12.447   7.978
 2964POPC   C4B39298   1.417  12.343   7.572
 2965POPC   NC339299   9.557   5.789   9.568
 2965POPC   PO439300  10.027   6.233   9.531
 2965POPC   GL139301   9.975   5.831   9.272
 2965POPC   GL239302   9.662   5.833   9.085
 2965POPC   C1A39303  10.070   5.618   8.874
 2965POPC   D2A39304   9.965   5.861   8.507
 2965POPC   C3A39305   9.842   5.730   8.066
 2965POPC   C4A39306   9.963   5.537   7.637
 2965POPC   C1B39307   9.551   5.617   8.736
 2965POPC   C2B39308   9.287   5.649   8.388
 2965POPC   C3B39309   9.295   5.783   7.994
 2965POPC   C4B39310   9.568   5.834   7.635
 2966POPC   NC339311   3.866  30.372   9.339
 2966POPC   PO439312   3.478  29.874   9.589
 2966POPC   GL139313   3.701  29.871   9.223
 2966POPC   GL239314   3.484  30.131   9.120
 2966POPC   C1A39315   3.730  29.776   8.772
 2966POPC   D2A39316   3.577  29.963   8.386
 2966POPC   C3A39317   3.799  29.993   8.045
 2966POPC   C4A39318   3.583  29.701   7.822
 2966POPC   C1B39319   3.525  30.301   8.740
 2966POPC   C2B39320   3.225  30.361   8.402
 2966POPC   C3B39321   3.269  30.197   8.017
 2966POPC   C4B39322   3.430  30.238   7.643
 2967POPC   NC339323  31.355  37.978   9.765
 2967POPC   PO439324  31.437  37.443   9.375
 2967POPC   GL139325  31.414  37.690   9.069
 2967POPC   GL239326  31.338  38.032   9.214
 2967POPC   C1A39327  31.437  37.564   8.636
 2967POPC   D2A39328  31.746  37.540   8.290
 2967POPC   C3A39329  31.463  37.604   7.975
 2967POPC   C4A39330  31.335  37.395   7.620
 2967POPC   C1B39331  31.515  38.094   8.769
 2967POPC   C2B39332  31.497  37.990   8.328
 2967POPC   C3B39333  31.177  38.035   7.989
 2967POPC   C4B39334  30.942  37.676   7.819
 2968POPC   NC339335  12.080  41.732   9.841
 2968POPC   PO439336  12.405  41.251   9.444
 2968POPC   GL139337  12.135  41.382   9.106
 2968POPC   GL239338  11.996  41.723   9.093
 2968POPC   C1A39339  11.994  41.384   8.708
 2968POPC   D2A39340  12.272  41.353   8.367
 2968POPC   C3A39341  12.095  41.250   7.977
 2968POPC   C4A39342  12.369  41.150   7.622
 2968POPC   C1B39343  12.299  41.785   8.745
 2968POPC   C2B39344  12.255  41.858   8.322
 2968POPC   C3B39345  11.987  41.786   7.976
 2968POPC   C4B39346  12.265  41.639   7.697
 2969POPC   NC339347  12.909  19.880   9.565
 2969POPC   PO439348  12.400  20.193   9.306
 2969POPC   GL139349  12.708  19.875   9.095
 2969POPC   GL239350  13.096  19.820   9.073
 2969POPC   C1A39351  12.628  19.849   8.691
 2969POPC   D2A39352  12.538  19.966   8.275
 2969POPC   C3A39353  12.667  19.696   7.895
 2969POPC   C4A39354  12.945  19.602   7.496
 2969POPC   C1B39355  13.127  19.895   8.595
 2969POPC   C2B39356  12.994  20.184   8.211
 2969POPC   C3B39357  12.960  20.060   7.718
 2969POPC   C4B39358  12.872  20.070   7.234
 2970POPC   NC339359  30.224  15.566   9.541
 2970POPC   PO439360  29.920  15.034   9.582
 2970POPC   GL139361  29.921  15.267   9.214
 2970POPC   GL239362  30.264  15.177   9.168
 2970POPC   C1A39363  29.785  15.358   8.784
 2970POPC   D2A39364  29.984  15.251   8.387
 2970POPC   C3A39365  29.847  15.440   7.995
 2970POPC   C4A39366  29.642  15.440   7.585
 2970POPC   C1B39367  30.094  14.897   8.835
 2970POPC   C2B39368  30.125  14.738   8.408
 2970POPC   C3B39369  29.901  14.859   8.043
 2970POPC   C4B39370  30.017  15.072   7.674
 2971POPC   NC339371  25.169   0.895   9.762
 2971POPC   PO439372  25.556   0.627   9.253
 2971POPC   GL139373  25.430   0.332   9.012
 2971POPC   GL239374  25.068   0.344   9.033
 2971POPC   C1A39375  25.393   0.376   8.613
 2971POPC   D2A39376  25.185   0.457   8.281
 2971POPC   C3A39377  25.372   0.284   7.918
 2971POPC   C4A39378  25.432  44.948   7.699
 2971POPC   C1B39379  24.836   0.368   8.653
 2971POPC   C2B39380  24.717   0.660   8.288
 2971POPC   C3B39381  24.908   0.569   7.876
 2971POPC   C4B39382  24.772   0.249   7.580
 2972POPC   NC339383  44.011  21.001   9.605
 2972POPC   PO439384  43.892  21.651   9.612
 2972POPC   GL139385  43.896  21.311   9.220
 2972POPC   GL239386  43.628  21.048   9.206
 2972POPC   C1A39387  44.105  21.283   8.800
 2972POPC   D2A39388  44.200  21.461   8.394
 2972POPC   C3A39389  43.927  21.354   8.046
 2972POPC   C4A39390  43.848  21.266   7.615
 2972POPC   C1B39391  43.579  21.302   8.795
 2972POPC   C2B39392  43.569  21.576   8.392
 2972POPC   C3B39393  43.568  21.714   7.951
 2972POPC   C4B39394  43.414  21.579   7.544
 2973POPC   NC339395   8.068  22.669   9.657
 2973POPC   PO439396   8.162  21.933   9.596
 2973POPC   GL139397   8.340  21.861   9.171
 2973POPC   GL239398   8.125  22.142   9.106
 2973POPC   C1A39399   8.412  21.950   8.734
 2973POPC   D2A39400   8.154  21.901   8.392
 2973POPC   C3A39401   8.313  21.877   7.977
 2973POPC   C4A39402   8.149  22.102   7.652
 2973POPC   C1B39403   8.141  22.373   8.745
 2973POPC   C2B39404   8.484  22.386   8.457
 2973POPC   C3B39405   8.286  22.357   8.088
 2973POPC   C4B39406   7.931  22.574   7.917
 2974POPC   NC339407  41.500  43.791   9.472
 2974POPC   PO439408  42.081  43.571   9.254
 2974POPC   GL139409  41.712  43.719   9.034
 2974POPC   GL239410  41.568  44.067   9.016
 2974POPC   C1A39411  41.490  43.712   8.680
 2974POPC   D2A39412  41.634  43.949   8.372
 2974POPC   C3A39413  41.638  43.760   8.037
 2974POPC   C4A39414  41.296  43.657   7.887
 2974POPC   C1B39415  41.767  44.333   8.711
 2974POPC   C2B39416  42.021  44.278   8.382
 2974POPC   C3B39417  41.840  44.256   7.983
 2974POPC   C4B39418  41.720  44.030   7.604
 2975POPC   NC339419  20.389  31.633   9.541
 2975POPC   PO439420  20.830  31.201   9.530
 2975POPC   GL139421  20.591  31.303   9.149
 2975POPC   GL239422  20.232  31.293   9.184
 2975POPC   C1A39423  20.703  31.385   8.708
 2975POPC   D2A39424  20.834  31.175   8.314
 2975POPC   C3A39425  20.806  31.450   7.954
 2975POPC   C4A39426  20.454  31.664   7.725
 2975POPC   C1B39427  20.245  31.078   8.795
 2975POPC   C2B39428  20.342  30.936   8.386
 2975POPC   C3B39429  20.419  31.099   7.984
 2975POPC   C4B39430  20.152  31.265   7.679
 2976POPC   NC339431  16.225  36.371   9.531
 2976POPC   PO439432  15.698  36.142   9.926
 2976POPC   GL139433  15.839  36.111   9.396
 2976POPC   GL239434  16.091  35.895   9.243
 2976POPC   C1A39435  15.790  36.060   8.871
 2976POPC   D2A39436  15.997  36.106   8.463
 2976POPC   C3A39437  15.802  36.035   8.057
 2976POPC   C4A39438  15.773  35.964   7.609
 2976POPC   C1B39439  16.326  36.124   8.907
 2976POPC   C2B39440  16.517  36.223   8.508
 2976POPC   C3B39441  16.399  36.116   8.110
 2976POPC   C4B39442  16.197  36.224   7.755
 2977POPC   NC339443  10.333  19.234   9.561
 2977POPC   PO439444  10.643  18.719   9.335
 2977POPC   GL139445  10.385  18.959   9.097
 2977POPC   GL239446  10.457  19.312   9.085
 2977POPC   C1A39447  10.362  19.049   8.659
 2977POPC   D2A39448  10.216  19.012   8.240
 2977POPC   C3A39449  10.542  18.923   7.963
 2977POPC   C4A39450  10.560  18.853   7.498
 2977POPC   C1B39451  10.733  19.478   8.783
 2977POPC   C2B39452  10.588  19.413   8.375
 2977POPC   C3B39453  10.351  19.493   8.044
 2977POPC   C4B39454  10.474  19.344   7.687
 2978POPC   NC339455   2.809  33.763   9.644
 2978POPC   PO439456   2.684  33.249   9.326
 2978POPC   GL139457   2.749  33.663   9.145
 2978POPC   GL239458   2.475  33.886   9.241
 2978POPC   C1A39459   2.860  33.802   8.746
 2978POPC   D2A39460   2.862  33.991   8.359
 2978POPC   C3A39461   3.024  33.667   8.086
 2978POPC   C4A39462   2.964  33.539   7.649
 2978POPC   C1B39463   2.355  33.729   8.809
 2978POPC   C2B39464   2.484  33.639   8.355
 2978POPC   C3B39465   2.537  33.733   7.876
 2978POPC   C4B39466   2.372  33.613   7.447
 2979POPC   NC339467  36.374  22.963   9.542
 2979POPC   PO439468  35.724  23.122   9.511
 2979POPC   GL139469  35.988  22.813   9.235
 2979POPC   GL239470  36.362  22.727   9.092
 2979POPC   C1A39471  35.971  22.820   8.798
 2979POPC   D2A39472  36.238  22.869   8.433
 2979POPC   C3A39473  36.037  22.948   8.051
 2979POPC   C4A39474  36.028  22.866   7.603
 2979POPC   C1B39475  36.439  23.112   8.842
 2979POPC   C2B39476  36.457  23.354   8.429
 2979POPC   C3B39477  36.482  23.174   7.992
 2979POPC   C4B39478  36.395  23.222   7.547
 2980POPC   NC339479  34.408   3.646   9.421
 2980POPC   PO439480  35.045   3.540   9.508
 2980POPC   GL139481  34.803   3.395   9.152
 2980POPC   GL239482  34.457   3.200   9.191
 2980POPC   C1A39483  34.729   3.590   8.753
 2980POPC   D2A39484  34.568   3.836   8.425
 2980POPC   C3A39485  34.830   3.778   8.118
 2980POPC   C4A39486  34.569   3.683   7.783
 2980POPC   C1B39487  34.602   3.094   8.787
 2980POPC   C2B39488  34.843   3.119   8.399
 2980POPC   C3B39489  34.745   3.119   7.970
 2980POPC   C4B39490  34.835   3.309   7.594
 2981POPC   NC339491  28.898   1.901   9.526
 2981POPC   PO439492  29.576   1.792   9.354
 2981POPC   GL139493  29.251   1.937   9.082
 2981POPC   GL239494  28.928   2.107   9.073
 2981POPC   C1A39495  29.253   2.072   8.642
 2981POPC   D2A39496  29.422   2.399   8.325
 2981POPC   C3A39497  29.496   2.181   7.939
 2981POPC   C4A39498  29.231   1.843   7.787
 2981POPC   C1B39499  28.723   2.005   8.706
 2981POPC   C2B39500  28.854   1.822   8.336
 2981POPC   C3B39501  28.975   2.161   8.090
 2981POPC   C4B39502  28.847   2.238   7.687
 2982POPC   NC339503  15.257  36.378   9.783
 2982POPC   PO439504  15.441  35.850   9.361
 2982POPC   GL139505  15.245  36.105   9.026
 2982POPC   GL239506  15.071  36.449   8.974
 2982POPC   C1A39507  15.108  36.023   8.654
 2982POPC   D2A39508  15.336  35.900   8.316
 2982POPC   C3A39509  15.046  36.001   8.033
 2982POPC   C4A39510  15.165  35.905   7.652
 2982POPC   C1B39511  15.335  36.580   8.641
 2982POPC   C2B39512  15.532  36.407   8.276
 2982POPC   C3B39513  15.394  36.345   7.837
 2982POPC   C4B39514  14.940  36.367   7.693
 2983POPC   NC339515  14.236  13.370   9.520
 2983POPC   PO439516  13.655  13.735   9.513
 2983POPC   GL139517  13.448  13.592   9.099
 2983POPC   GL239518  13.468  13.217   9.074
 2983POPC   C1A39519  13.297  13.607   8.684
 2983POPC   D2A39520  13.410  13.351   8.341
 2983POPC   C3A39521  13.468  13.514   7.934
 2983POPC   C4A39522  13.552  13.295   7.551
 2983POPC   C1B39523  13.759  13.395   8.722
 2983POPC   C2B39524  13.907  13.256   8.261
 2983POPC   C3B39525  14.047  13.460   7.855
 2983POPC   C4B39526  14.215  13.813   7.563
 2984POPC   NC339527  23.896  36.396   9.424
 2984POPC   PO439528  23.413  36.123   9.753
 2984POPC   GL139529  23.427  36.174   9.275
 2984POPC   GL239530  23.642  35.930   9.202
 2984POPC   C1A39531  23.587  36.365   8.840
 2984POPC   D2A39532  23.666  36.263   8.429
 2984POPC   C3A39533  23.948  36.301   8.097
 2984POPC   C4A39534  23.892  36.356   7.664
 2984POPC   C1B39535  23.764  35.890   8.775
 2984POPC   C2B39536  23.800  35.800   8.339
 2984POPC   C3B39537  23.652  35.721   7.957
 2984POPC   C4B39538  23.830  35.869   7.603
 2985POPC   NC339539   1.087  12.520   9.576
 2985POPC   PO439540   1.383  13.080   9.480
 2985POPC   GL139541   1.164  12.960   9.167
 2985POPC   GL239542   1.254  13.303   9.019
 2985POPC   C1A39543   1.222  12.637   8.853
 2985POPC   D2A39544   1.450  12.816   8.516
 2985POPC   C3A39545   1.252  12.732   8.147
 2985POPC   C4A39546   1.288  12.791   7.723
 2985POPC   C1B39547   1.337  13.397   8.594
 2985POPC   C2B39548   1.165  13.219   8.242
 2985POPC   C3B39549   1.235  13.273   7.818
 2985POPC   C4B39550   1.143  13.194   7.379
 2986POPC   NC339551  18.835  28.114   9.551
 2986POPC   PO439552  18.812  28.780   9.430
 2986POPC   GL139553  18.751  28.458   9.169
 2986POPC   GL239554  19.082  28.279   9.127
 2986POPC   C1A39555  18.774  28.494   8.770
 2986POPC   D2A39556  19.086  28.576   8.509
 2986POPC   C3A39557  19.031  28.426   8.111
 2986POPC   C4A39558  19.099  28.570   7.735
 2986POPC   C1B39559  19.126  28.081   8.706
 2986POPC   C2B39560  19.384  28.104   8.308
 2986POPC   C3B39561  19.394  28.082   7.844
 2986POPC   C4B39562  19.258  27.947   7.405
 2987POPC   NC339563  24.118  43.761   9.470
 2987POPC   PO439564  24.732  44.023   9.544
 2987POPC   GL139565  24.568  43.820   9.188
 2987POPC   GL239566  24.353  44.114   9.149
 2987POPC   C1A39567  24.549  43.880   8.732
 2987POPC   D2A39568  24.554  44.081   8.319
 2987POPC   C3A39569  24.483  43.755   8.007
 2987POPC   C4A39570  24.576  43.596   7.628
 2987POPC   C1B39571  24.287  44.323   8.752
 2987POPC   C2B39572  24.128  44.379   8.354
 2987POPC   C3B39573  24.161  44.140   7.988
 2987POPC   C4B39574  24.226  43.960   7.592
 2988POPC   NC339575  30.459  43.509   9.811
 2988POPC   PO439576  30.942  43.359   9.336
 2988POPC   GL139577  30.838  43.269   8.998
 2988POPC   GL239578  30.763  42.948   9.085
 2988POPC   C1A39579  30.639  43.205   8.639
 2988POPC   D2A39580  30.916  43.252   8.330
 2988POPC   C3A39581  30.640  43.268   8.006
 2988POPC   C4A39582  30.741  43.189   7.613
 2988POPC   C1B39583  30.678  42.696   8.723
 2988POPC   C2B39584  30.636  42.801   8.293
 2988POPC   C3B39585  30.876  42.803   7.904
 2988POPC   C4B39586  30.886  42.770   7.410
 2989POPC   NC339587  13.667  25.525   9.537
 2989POPC   PO439588  13.422  26.217   9.407
 2989POPC   GL139589  13.683  25.913   9.171
 2989POPC   GL239590  13.457  25.672   9.097
 2989POPC   C1A39591  13.849  26.012   8.756
 2989POPC   D2A39592  13.795  26.388   8.477
 2989POPC   C3A39593  13.730  26.328   8.036
 2989POPC   C4A39594  13.934  26.073   7.749
 2989POPC   C1B39595  13.437  25.710   8.683
 2989POPC   C2B39596  13.474  25.993   8.349
 2989POPC   C3B39597  13.465  25.901   7.929
 2989POPC   C4B39598  13.186  25.626   7.729
 2990POPC   NC339599  42.177  21.804   9.275
 2990POPC   PO439600  42.098  21.267   9.607
 2990POPC   GL139601  42.268  21.108   9.230
 2990POPC   GL239602  42.617  21.051   9.272
 2990POPC   C1A39603  42.134  21.276   8.857
 2990POPC   D2A39604  42.289  21.524   8.518
 2990POPC   C3A39605  42.034  21.545   8.157
 2990POPC   C4A39606  42.205  21.410   7.763
 2990POPC   C1B39607  42.653  21.231   8.864
 2990POPC   C2B39608  42.598  21.101   8.430
 2990POPC   C3B39609  42.633  21.309   8.024
 2990POPC   C4B39610  42.622  21.211   7.566
 2991POPC   NC339611  27.890   2.327   9.775
 2991POPC   PO439612  28.334   1.844   9.493
 2991POPC   GL139613  28.242   1.721   9.080
 2991POPC   GL239614  28.599   1.653   9.048
 2991POPC   C1A39615  28.102   1.974   8.698
 2991POPC   D2A39616  28.253   2.283   8.383
 2991POPC   C3A39617  28.394   2.114   7.988
 2991POPC   C4A39618  28.131   1.843   7.745
 2991POPC   C1B39619  28.443   1.593   8.620
 2991POPC   C2B39620  28.187   1.678   8.277
 2991POPC   C3B39621  28.471   1.603   8.030
 2991POPC   C4B39622  28.728   1.760   7.795
 2992POPC   NC339623  36.776  38.065   9.722
 2992POPC   PO439624  37.178  37.614   9.454
 2992POPC   GL139625  36.846  37.648   9.112
 2992POPC   GL239626  36.673  37.997   9.156
 2992POPC   C1A39627  36.804  37.480   8.657
 2992POPC   D2A39628  36.776  37.300   8.213
 2992POPC   C3A39629  37.082  37.482   7.956
 2992POPC   C4A39630  37.170  37.971   7.946
 2992POPC   C1B39631  36.848  37.987   8.707
 2992POPC   C2B39632  36.800  37.850   8.272
 2992POPC   C3B39633  36.502  37.860   7.913
 2992POPC   C4B39634  36.498  38.064   7.471
 2993POPC   NC339635  27.422   3.737   9.470
 2993POPC   PO439636  28.023   3.511   9.600
 2993POPC   GL139637  27.832   3.608   9.212
 2993POPC   GL239638  27.584   3.358   9.117
 2993POPC   C1A39639  27.668   3.776   8.810
 2993POPC   D2A39640  27.480   3.961   8.415
 2993POPC   C3A39641  27.550   3.649   8.080
 2993POPC   C4A39642  27.846   3.694   7.710
 2993POPC   C1B39643  27.318   3.398   8.725
 2993POPC   C2B39644  27.215   3.230   8.317
 2993POPC   C3B39645  27.139   3.382   7.899
 2993POPC   C4B39646  27.461   3.379   7.585
 2994POPC   NC339647  41.504   2.211   9.348
 2994POPC   PO439648  41.185   1.639   9.484
 2994POPC   GL139649  41.460   1.718   9.135
 2994POPC   GL239650  41.774   1.807   9.066
 2994POPC   C1A39651  41.517   1.596   8.703
 2994POPC   D2A39652  41.725   1.744   8.325
 2994POPC   C3A39653  41.570   1.864   7.920
 2994POPC   C4A39654  41.451   2.242   7.720
 2994POPC   C1B39655  41.475   2.088   8.731
 2994POPC   C2B39656  41.513   2.221   8.280
 2994POPC   C3B39657  41.894   2.227   7.988
 2994POPC   C4B39658  42.052   2.406   7.605
 2995POPC   NC339659   2.474  28.309   9.451
 2995POPC   PO439660   3.185  28.217   9.449
 2995POPC   GL139661   2.880  28.312   9.145
 2995POPC   GL239662   2.905  28.637   9.173
 2995POPC   C1A39663   2.627  28.344   8.776
 2995POPC   D2A39664   2.754  28.356   8.378
 2995POPC   C3A39665   2.558  28.200   7.980
 2995POPC   C4A39666   2.618  28.192   7.513
 2995POPC   C1B39667   3.154  28.564   8.776
 2995POPC   C2B39668   3.123  28.688   8.319
 2995POPC   C3B39669   3.016  28.460   7.948
 2995POPC   C4B39670   2.949  28.594   7.534
 2996POPC   NC339671  13.837  36.948   9.531
 2996POPC   PO439672  13.356  37.405   9.425
 2996POPC   GL139673  13.553  37.092   9.101
 2996POPC   GL239674  13.799  36.791   9.055
 2996POPC   C1A39675  13.610  37.025   8.637
 2996POPC   D2A39676  13.342  36.941   8.293
 2996POPC   C3A39677  13.572  36.950   7.891
 2996POPC   C4A39678  13.480  36.709   7.498
 2996POPC   C1B39679  14.054  36.727   8.678
 2996POPC   C2B39680  13.995  36.736   8.204
 2996POPC   C3B39681  13.904  36.572   7.776
 2996POPC   C4B39682  14.092  36.565   7.343
 2997POPC   NC339683  31.848  23.632   9.234
 2997POPC   PO439684  31.259  23.393   9.516
 2997POPC   GL139685  31.305  23.599   9.127
 2997POPC   GL239686  31.352  23.972   9.123
 2997POPC   C1A39687  31.054  23.601   8.766
 2997POPC   D2A39688  30.843  23.537   8.387
 2997POPC   C3A39689  31.118  23.480   8.030
 2997POPC   C4A39690  31.219  23.846   7.792
 2997POPC   C1B39691  31.518  23.812   8.707
 2997POPC   C2B39692  31.448  23.745   8.293
 2997POPC   C3B39693  31.645  23.619   7.914
 2997POPC   C4B39694  31.699  23.956   7.548
 2998POPC   NC339695   9.046  26.585   9.891
 2998POPC   PO439696   8.531  26.957   9.609
 2998POPC   GL139697   8.855  26.911   9.247
 2998POPC   GL239698   8.744  26.632   9.077
 2998POPC   C1A39699   9.110  26.902   8.835
 2998POPC   D2A39700   8.985  26.921   8.374
 2998POPC   C3A39701   9.233  26.727   8.063
 2998POPC   C4A39702   9.150  26.557   7.677
 2998POPC   C1B39703   8.848  26.497   8.643
 2998POPC   C2B39704   8.842  26.390   8.204
 2998POPC   C3B39705   8.676  26.602   7.855
 2998POPC   C4B39706   8.477  26.822   7.530
 2999POPC   NC339707  26.387  31.555   9.605
 2999POPC   PO439708  27.034  31.670   9.737
 2999POPC   GL139709  26.783  31.531   9.283
 2999POPC   GL239710  26.494  31.244   9.220
 2999POPC   C1A39711  26.845  31.466   8.799
 2999POPC   D2A39712  26.984  31.575   8.336
 2999POPC   C3A39713  26.947  31.341   7.899
 2999POPC   C4A39714  27.298  31.280   7.565
 2999POPC   C1B39715  26.359  31.321   8.784
 2999POPC   C2B39716  26.537  31.305   8.363
 2999POPC   C3B39717  26.421  31.369   7.927
 2999POPC   C4B39718  26.447  31.780   7.666
 3000POPC   NC339719  23.836  37.812   9.581
 3000POPC   PO439720  23.460  37.293   9.597
 3000POPC   GL139721  23.541  37.574   9.218
 3000POPC   GL239722  23.903  37.685   9.101
 3000POPC   C1A39723  23.406  37.802   8.831
 3000POPC   D2A39724  23.590  37.804   8.401
 3000POPC   C3A39725  23.379  37.856   7.982
 3000POPC   C4A39726  23.491  37.538   7.687
 3000POPC   C1B39727  23.746  37.425   8.774
 3000POPC   C2B39728  23.659  37.249   8.432
 3000POPC   C3B39729  23.678  37.225   8.041
 3000POPC   C4B39730  23.931  37.283   7.711
 3001POPC   NC339731  16.325  24.113   9.813
 3001POPC   PO439732  16.039  23.563   9.479
 3001POPC   GL139733  16.080  23.686   9.096
 3001POPC   GL239734  15.756  23.863   9.076
 3001POPC   C1A39735  16.103  23.803   8.688
 3001POPC   D2A39736  15.920  23.668   8.336
 3001POPC   C3A39737  16.174  23.652   8.001
 3001POPC   C4A39738  16.120  23.627   7.586
 3001POPC   C1B39739  15.711  23.475   8.801
 3001POPC   C2B39740  15.511  23.339   8.416
 3001POPC   C3B39741  15.695  23.352   7.994
 3001POPC   C4B39742  15.761  23.256   7.562
 3002POPC   NC339743  32.104  13.730   9.485
 3002POPC   PO439744  32.805  13.839   9.561
 3002POPC   GL139745  32.541  13.803   9.190
 3002POPC   GL239746  32.197  13.977   9.068
 3002POPC   C1A39747  32.452  13.618   8.802
 3002POPC   D2A39748  32.317  13.368   8.476
 3002POPC   C3A39749  32.486  13.507   8.103
 3002POPC   C4A39750  32.331  13.715   7.761
 3002POPC   C1B39751  32.004  13.892   8.678
 3002POPC   C2B39752  32.063  13.775   8.247
 3002POPC   C3B39753  31.880  13.915   7.868
 3002POPC   C4B39754  31.893  14.033   7.404
 3003POPC   NC339755  37.280  28.914   9.544
 3003POPC   PO439756  36.786  29.363   9.703
 3003POPC   GL139757  36.897  29.114   9.298
 3003POPC   GL239758  37.163  29.295   9.160
 3003POPC   C1A39759  36.916  28.986   8.838
 3003POPC   D2A39760  36.703  29.165   8.453
 3003POPC   C3A39761  36.670  28.982   8.042
 3003POPC   C4A39762  36.818  29.061   7.642
 3003POPC   C1B39763  37.149  29.439   8.720
 3003POPC   C2B39764  37.078  29.565   8.304
 3003POPC   C3B39765  36.783  29.464   7.971
 3003POPC   C4B39766  36.450  29.421   7.652
 3004POPC   NC339767  32.786  26.343   9.555
 3004POPC   PO439768  33.067  27.023   9.467
 3004POPC   GL139769  33.064  26.667   9.239
 3004POPC   GL239770  33.436  26.557   9.210
 3004POPC   C1A39771  32.762  26.637   8.876
 3004POPC   D2A39772  32.586  26.881   8.522
 3004POPC   C3A39773  32.746  26.765   8.127
 3004POPC   C4A39774  32.786  26.627   7.722
 3004POPC   C1B39775  33.316  26.858   8.857
 3004POPC   C2B39776  33.107  26.853   8.485
 3004POPC   C3B39777  33.243  26.908   8.060
 3004POPC   C4B39778  33.473  26.962   7.673
 3005POPC   NC339779  38.815  36.122   9.473
 3005POPC   PO439780  38.114  35.825   9.452
 3005POPC   GL139781  38.387  36.058   9.142
 3005POPC   GL239782  38.622  36.310   9.045
 3005POPC   C1A39783  38.276  36.102   8.728
 3005POPC   D2A39784  38.443  35.909   8.374
 3005POPC   C3A39785  38.346  36.117   7.998
 3005POPC   C4A39786  38.201  35.955   7.611
 3005POPC   C1B39787  38.789  36.146   8.679
 3005POPC   C2B39788  38.728  36.380   8.298
 3005POPC   C3B39789  38.861  36.273   7.898
 3005POPC   C4B39790  38.727  35.970   7.580
 3006POPC   NC339791  10.506  30.463   9.477
 3006POPC   PO439792  10.280  31.091   9.348
 3006POPC   GL139793  10.599  31.043   9.042
 3006POPC   GL239794  10.527  30.701   9.035
 3006POPC   C1A39795  10.526  31.012   8.611
 3006POPC   D2A39796  10.262  30.847   8.281
 3006POPC   C3A39797  10.446  31.028   7.929
 3006POPC   C4A39798  10.865  31.171   7.886
 3006POPC   C1B39799  10.437  30.502   8.665
 3006POPC   C2B39800  10.709  30.570   8.324
 3006POPC   C3B39801  10.678  30.568   7.918
 3006POPC   C4B39802  10.259  30.530   7.719
 3007POPC   NC339803  11.183   5.599   9.396
 3007POPC   PO439804  11.610   6.125   9.351
 3007POPC   GL139805  11.280   6.011   9.109
 3007POPC   GL239806  10.955   6.164   9.240
 3007POPC   C1A39807  11.392   5.789   8.738
 3007POPC   D2A39808  11.364   5.603   8.339
 3007POPC   C3A39809  11.334   5.847   7.977
 3007POPC   C4A39810  11.631   5.828   7.654
 3007POPC   C1B39811  11.008   6.266   8.780
 3007POPC   C2B39812  11.024   6.121   8.351
 3007POPC   C3B39813  11.079   6.295   7.931
 3007POPC   C4B39814  11.255   6.187   7.537
 3008POPC   NC339815   1.186  29.682   9.325
 3008POPC   PO439816   1.009  29.237   9.842
 3008POPC   GL139817   1.157  29.135   9.394
 3008POPC   GL239818   0.897  28.962   9.231
 3008POPC   C1A39819   1.298  29.086   8.915
 3008POPC   D2A39820   1.232  28.917   8.477
 3008POPC   C3A39821   1.334  29.135   8.083
 3008POPC   C4A39822   1.091  29.466   7.904
 3008POPC   C1B39823   0.816  29.258   8.854
 3008POPC   C2B39824   0.949  29.330   8.407
 3008POPC   C3B39825   0.841  29.013   8.081
 3008POPC   C4B39826   0.714  28.953   7.656
 3009POPC   NC339827  12.410  26.163   9.766
 3009POPC   PO439828  11.792  25.907   9.575
 3009POPC   GL139829  11.854  26.202   9.216
 3009POPC   GL239830  12.185  26.129   9.110
 3009POPC   C1A39831  11.920  26.396   8.783
 3009POPC   D2A39832  12.154  26.423   8.402
 3009POPC   C3A39833  11.926  26.421   8.020
 3009POPC   C4A39834  11.905  26.248   7.673
 3009POPC   C1B39835  11.988  25.898   8.741
 3009POPC   C2B39836  12.065  25.914   8.331
 3009POPC   C3B39837  11.923  25.834   7.957
 3009POPC   C4B39838  11.857  25.506   7.685
 3010POPC   NC339839  38.754  19.991   9.487
 3010POPC   PO439840  38.300  19.535   9.428
 3010POPC   GL139841  38.480  19.736   9.125
 3010POPC   GL239842  38.806  19.599   9.156
 3010POPC   C1A39843  38.341  19.795   8.732
 3010POPC   D2A39844  38.430  19.916   8.335
 3010POPC   C3A39845  38.351  19.568   8.043
 3010POPC   C4A39846  38.310  19.775   7.671
 3010POPC   C1B39847  38.842  19.816   8.754
 3010POPC   C2B39848  38.969  19.882   8.343
 3010POPC   C3B39849  38.789  19.796   7.957
 3010POPC   C4B39850  38.776  19.559   7.550
 3011POPC   NC339851  32.186  24.277   9.553
 3011POPC   PO439852  32.402  23.665   9.600
 3011POPC   GL139853  32.357  23.902   9.179
 3011POPC   GL239854  32.143  24.153   9.052
 3011POPC   C1A39855  32.399  23.817   8.723
 3011POPC   D2A39856  32.265  23.434   8.501
 3011POPC   C3A39857  32.197  23.473   8.083
 3011POPC   C4A39858  32.511  23.457   7.789
 3011POPC   C1B39859  31.954  24.118   8.703
 3011POPC   C2B39860  31.945  23.860   8.352
 3011POPC   C3B39861  32.029  23.944   7.938
 3011POPC   C4B39862  32.209  24.032   7.528
 3012POPC   NC339863  37.769  18.860   9.600
 3012POPC   PO439864  37.671  19.481   9.702
 3012POPC   GL139865  37.884  19.260   9.278
 3012POPC   GL239866  37.947  18.884   9.121
 3012POPC   C1A39867  37.961  19.277   8.802
 3012POPC   D2A39868  37.678  19.207   8.416
 3012POPC   C3A39869  37.722  19.206   7.947
 3012POPC   C4A39870  37.948  19.404   7.580
 3012POPC   C1B39871  37.858  18.756   8.666
 3012POPC   C2B39872  37.899  18.759   8.207
 3012POPC   C3B39873  37.552  18.685   7.895
 3012POPC   C4B39874  37.588  18.645   7.444
 3013POPC   NC339875  12.773   5.306   9.640
 3013POPC   PO439876  13.057   5.957   9.605
 3013POPC   GL139877  12.995   6.038   9.163
 3013POPC   GL239878  12.984   5.671   9.188
 3013POPC   C1A39879  12.896   6.173   8.695
 3013POPC   D2A39880  12.773   5.938   8.321
 3013POPC   C3A39881  12.604   6.086   7.946
 3013POPC   C4A39882  12.979   6.125   7.824
 3013POPC   C1B39883  12.887   5.661   8.789
 3013POPC   C2B39884  13.060   5.501   8.437
 3013POPC   C3B39885  12.906   5.437   8.077
 3013POPC   C4B39886  12.840   5.639   7.731
 3014POPC   NC339887  17.920  29.355   9.363
 3014POPC   PO439888  17.272  29.282   9.270
 3014POPC   GL139889  17.433  29.001   8.998
 3014POPC   GL239890  17.641  28.760   9.190
 3014POPC   C1A39891  17.458  29.055   8.557
 3014POPC   D2A39892  17.750  29.308   8.307
 3014POPC   C3A39893  17.633  29.465   7.887
 3014POPC   C4A39894  17.728  29.648   7.469
 3014POPC   C1B39895  17.762  28.667   8.755
 3014POPC   C2B39896  17.837  28.785   8.322
 3014POPC   C3B39897  17.519  28.949   8.041
 3014POPC   C4B39898  17.312  28.650   7.783
 3015POPC   NC339899  40.406   6.385   9.430
 3015POPC   PO439900  39.885   6.177   9.545
 3015POPC   GL139901  40.003   6.409   9.114
 3015POPC   GL239902  40.365   6.539   8.953
 3015POPC   C1A39903  39.894   6.415   8.682
 3015POPC   D2A39904  40.158   6.444   8.335
 3015POPC   C3A39905  39.964   6.562   7.956
 3015POPC   C4A39906  40.022   6.611   7.529
 3015POPC   C1B39907  40.165   6.844   8.699
 3015POPC   C2B39908  39.972   6.937   8.307
 3015POPC   C3B39909  40.058   7.064   7.899
 3015POPC   C4B39910  40.109   7.097   7.476
 3016POPC   NC339911  28.452  13.781   9.503
 3016POPC   PO439912  27.897  13.337   9.254
 3016POPC   GL139913  28.219  13.565   9.109
 3016POPC   GL239914  28.104  13.878   9.087
 3016POPC   C1A39915  28.614  13.532   8.881
 3016POPC   D2A39916  28.849  13.308   8.549
 3016POPC   C3A39917  28.703  13.454   8.144
 3016POPC   C4A39918  28.371  13.601   7.825
 3016POPC   C1B39919  28.035  13.715   8.672
 3016POPC   C2B39920  28.065  13.692   8.239
 3016POPC   C3B39921  27.849  13.477   7.954
 3016POPC   C4B39922  27.613  13.440   7.594
 3017POPC   NC339923  28.739  20.259   9.482
 3017POPC   PO439924  29.279  20.662   9.588
 3017POPC   GL139925  29.032  20.620   9.210
 3017POPC   GL239926  29.169  20.313   9.114
 3017POPC   C1A39927  28.957  20.621   8.743
 3017POPC   D2A39928  29.152  20.649   8.307
 3017POPC   C3A39929  28.896  20.611   7.918
 3017POPC   C4A39930  28.953  20.567   7.437
 3017POPC   C1B39931  29.421  20.346   8.723
 3017POPC   C2B39932  29.559  20.327   8.303
 3017POPC   C3B39933  29.284  20.268   7.959
 3017POPC   C4B39934  29.368  20.631   7.740
 3018POPC   NC339935  27.600  27.805   9.510
 3018POPC   PO439936  27.866  27.236   9.226
 3018POPC   GL139937  27.758  27.601   9.068
 3018POPC   GL239938  27.423  27.544   9.128
 3018POPC   C1A39939  27.627  27.828   8.729
 3018POPC   D2A39940  27.431  27.906   8.342
 3018POPC   C3A39941  27.713  27.795   8.084
 3018POPC   C4A39942  27.756  27.853   7.700
 3018POPC   C1B39943  27.363  27.355   8.747
 3018POPC   C2B39944  27.499  27.393   8.328
 3018POPC   C3B39945  27.383  27.461   7.882
 3018POPC   C4B39946  27.477  27.114   7.630
 3019POPC   NC339947   8.083  20.768   9.495
 3019POPC   PO439948   8.505  20.264   9.349
 3019POPC   GL139949   8.218  20.462   9.083
 3019POPC   GL239950   8.127  20.803   9.009
 3019POPC   C1A39951   8.327  20.503   8.636
 3019POPC   D2A39952   8.579  20.258   8.327
 3019POPC   C3A39953   8.474  20.468   7.959
 3019POPC   C4A39954   8.055  20.556   7.794
 3019POPC   C1B39955   7.992  20.922   8.619
 3019POPC   C2B39956   8.158  20.852   8.227
 3019POPC   C3B39957   8.022  21.055   7.887
 3019POPC   C4B39958   8.136  21.004   7.470
 3020POPC   NC339959  41.179  11.599   9.360
 3020POPC   PO439960  41.331  11.069   9.680
 3020POPC   GL139961  41.517  11.161   9.182
 3020POPC   GL239962  41.496  11.453   9.006
 3020POPC   C1A39963  41.630  11.095   8.700
 3020POPC   D2A39964  41.561  11.295   8.281
 3020POPC   C3A39965  41.495  10.989   7.953
 3020POPC   C4A39966  41.437  10.917   7.476
 3020POPC   C1B39967  41.745  11.623   8.662
 3020POPC   C2B39968  42.037  11.538   8.310
 3020POPC   C3B39969  41.992  11.268   7.955
 3020POPC   C4B39970  41.663  11.354   7.663
 3021POPC   NC339971  31.848  19.186   9.485
 3021POPC   PO439972  31.350  18.686   9.465
 3021POPC   GL139973  31.409  19.019   9.172
 3021POPC   GL239974  31.709  18.810   9.146
 3021POPC   C1A39975  31.207  19.278   8.819
 3021POPC   D2A39976  31.215  19.087   8.414
 3021POPC   C3A39977  31.316  19.135   7.998
 3021POPC   C4A39978  31.506  18.910   7.658
 3021POPC   C1B39979  31.841  18.684   8.788
 3021POPC   C2B39980  31.656  18.755   8.415
 3021POPC   C3B39981  31.823  18.832   8.041
 3021POPC   C4B39982  31.819  18.519   7.711
 3022POPC   NC339983  12.249   6.957   9.405
 3022POPC   PO439984  12.245   6.256   9.413
 3022POPC   GL139985  11.962   6.580   9.178
 3022POPC   GL239986  12.251   6.626   9.020
 3022POPC   C1A39987  11.928   6.938   8.827
 3022POPC   D2A39988  12.216   6.874   8.452
 3022POPC   C3A39989  12.055   6.926   8.032
 3022POPC   C4A39990  11.883   6.825   7.632
 3022POPC   C1B39991  12.032   6.438   8.664
 3022POPC   C2B39992  12.044   6.426   8.206
 3022POPC   C3B39993  12.258   6.486   7.831
 3022POPC   C4B39994  12.429   6.833   7.611
 3023POPC   NC339995   2.096  11.550   9.717
 3023POPC   PO439996   2.057  10.866   9.587
 3023POPC   GL139997   2.141  11.211   9.329
 3023POPC   GL239998   1.847  11.186   9.142
 3023POPC   C1A39999   2.271  11.338   8.912
 3023POPC   D2A40000   2.328  11.309   8.469
 3023POPC   C3A40001   2.040  11.090   8.163
 3023POPC   C4A40002   1.940  11.036   7.714
 3023POPC   C1B40003   1.714  11.413   8.780
 3023POPC   C2B40004   1.882  11.541   8.369
 3023POPC   C3B40005   1.980  11.571   7.949
 3023POPC   C4B40006   1.619  11.519   7.720
 3024POPC   NC340007  30.902  42.543   9.344
 3024POPC   PO440008  30.468  42.138   9.588
 3024POPC   GL140009  30.557  42.064   9.145
 3024POPC   GL240010  30.935  41.935   9.126
 3024POPC   C1A40011  30.410  42.227   8.707
 3024POPC   D2A40012  30.415  42.071   8.271
 3024POPC   C3A40013  30.547  42.403   7.985
 3024POPC   C4A40014  30.370  42.828   7.851
 3024POPC   C1B40015  30.911  42.202   8.792
 3024POPC   C2B40016  30.845  42.314   8.407
 3024POPC   C3B40017  31.059  42.361   8.067
 3024POPC   C4B40018  30.956  42.336   7.664
 3025POPC   NC340019  24.228   6.949   9.431
 3025POPC   PO440020  24.680   6.421   9.435
 3025POPC   GL140021  24.546   6.682   9.147
 3025POPC   GL240022  24.734   6.995   9.251
 3025POPC   C1A40023  24.350   6.653   8.749
 3025POPC   D2A40024  24.252   6.546   8.348
 3025POPC   C3A40025  23.944   6.755   8.152
 3025POPC   C4A40026  24.131   6.739   7.787
 3025POPC   C1B40027  24.652   7.057   8.806
 3025POPC   C2B40028  24.777   7.087   8.369
 3025POPC   C3B40029  24.566   6.885   8.027
 3025POPC   C4B40030  24.610   6.790   7.595
 3026POPC   NC340031  12.136   0.974   9.456
 3026POPC   PO440032  11.859   1.625   9.523
 3026POPC   GL140033  11.984   1.406   9.183
 3026POPC   GL240034  11.725   1.132   9.156
 3026POPC   C1A40035  12.098   1.350   8.750
 3026POPC   D2A40036  12.103   1.033   8.415
 3026POPC   C3A40037  12.283   1.163   8.022
 3026POPC   C4A40038  12.193   0.916   7.708
 3026POPC   C1B40039  11.570   1.441   8.859
 3026POPC   C2B40040  11.561   1.539   8.433
 3026POPC   C3B40041  11.819   1.388   8.106
 3026POPC   C4B40042  11.861   1.299   7.678
 3027POPC   NC340043   0.142  43.871   9.611
 3027POPC   PO440044   0.672  43.497   9.403
 3027POPC   GL140045   0.404  43.741   9.134
 3027POPC   GL240046   0.458  44.084   9.228
 3027POPC   C1A40047   0.380  43.811   8.686
 3027POPC   D2A40048   0.627  43.701   8.346
 3027POPC   C3A40049   0.577  43.836   7.949
 3027POPC   C4A40050   0.876  44.116   7.815
 3027POPC   C1B40051   0.179  44.212   8.938
 3027POPC   C2B40052   0.075  44.221   8.517
 3027POPC   C3B40053   0.157  44.102   8.117
 3027POPC   C4B40054   0.253  44.123   7.692
 3028POPC   NC340055  26.306  34.087   9.636
 3028POPC   PO440056  25.817  33.698   9.721
 3028POPC   GL140057  25.983  33.676   9.266
 3028POPC   GL240058  26.275  33.891   9.156
 3028POPC   C1A40059  26.125  33.544   8.810
 3028POPC   D2A40060  25.979  33.722   8.425
 3028POPC   C3A40061  26.118  33.558   8.056
 3028POPC   C4A40062  25.869  33.766   7.783
 3028POPC   C1B40063  26.215  34.044   8.753
 3028POPC   C2B40064  26.360  34.248   8.399
 3028POPC   C3B40065  26.167  34.078   8.057
 3028POPC   C4B40066  26.265  34.019   7.619
 3029POPC   NC340067  18.134  18.803   9.350
 3029POPC   PO440068  18.362  18.142   9.527
 3029POPC   GL140069  18.355  18.150   9.121
 3029POPC   GL240070  18.053  18.329   9.111
 3029POPC   C1A40071  18.324  17.998   8.711
 3029POPC   D2A40072  18.209  18.150   8.312
 3029POPC   C3A40073  18.443  18.126   7.953
 3029POPC   C4A40074  18.504  18.537   7.746
 3029POPC   C1B40075  18.129  18.545   8.729
 3029POPC   C2B40076  17.896  18.555   8.359
 3029POPC   C3B40077  18.015  18.465   7.899
 3029POPC   C4B40078  18.109  18.616   7.416
 3030POPC   NC340079   1.480  44.639   9.394
 3030POPC   PO440080   0.926  44.996   9.494
 3030POPC   GL140081   1.138  44.837   9.078
 3030POPC   GL240082   1.110  44.452   9.083
 3030POPC   C1A40083   1.437  44.676   8.738
 3030POPC   D2A40084   1.418  44.383   8.375
 3030POPC   C3A40085   1.182  44.481   8.031
 3030POPC   C4A40086   1.451  44.689   7.748
 3030POPC   C1B40087   0.953  44.523   8.645
 3030POPC   C2B40088   0.802  44.777   8.271
 3030POPC   C3B40089   0.904  44.848   7.806
 3030POPC   C4B40090   0.824  44.511   7.502
 3031POPC   NC340091  42.652  18.116   9.916
 3031POPC   PO440092  42.049  18.203   9.605
 3031POPC   GL140093  42.260  18.217   9.128
 3031POPC   GL240094  42.082  18.093   8.834
 3031POPC   C1A40095  42.450  18.516   8.828
 3031POPC   D2A40096  42.682  18.549   8.434
 3031POPC   C3A40097  42.518  18.503   7.988
 3031POPC   C4A40098  42.157  18.612   7.754
 3031POPC   C1B40099  42.477  18.031   8.663
 3031POPC   C2B40100  42.519  18.065   8.227
 3031POPC   C3B40101  42.129  18.140   7.978
 3031POPC   C4B40102  42.043  18.136   7.527
 3032POPC   NC340103  36.351  29.807   9.350
 3032POPC   PO440104  35.674  30.053   9.387
 3032POPC   GL140105  35.952  29.973   9.063
 3032POPC   GL240106  36.160  30.214   9.040
 3032POPC   C1A40107  36.170  29.853   8.673
 3032POPC   D2A40108  35.959  29.620   8.344
 3032POPC   C3A40109  36.069  29.732   7.932
 3032POPC   C4A40110  36.045  29.750   7.489
 3032POPC   C1B40111  36.144  30.367   8.657
 3032POPC   C2B40112  36.312  30.209   8.283
 3032POPC   C3B40113  36.126  30.228   7.881
 3032POPC   C4B40114  35.929  30.542   7.651
 3033POPC   NC340115   0.940  23.608   9.496
 3033POPC   PO440116   1.066  23.015   9.726
 3033POPC   GL140117   1.283  22.920   9.281
 3033POPC   GL240118   1.042  22.823   9.064
 3033POPC   C1A40119   1.481  22.855   8.832
 3033POPC   D2A40120   1.212  22.686   8.518
 3033POPC   C3A40121   1.340  22.781   8.127
 3033POPC   C4A40122   1.190  22.637   7.737
 3033POPC   C1B40123   1.197  23.258   8.927
 3033POPC   C2B40124   1.309  23.455   8.524
 3033POPC   C3B40125   1.192  23.266   8.137
 3033POPC   C4B40126   1.158  23.131   7.703
 3034POPC   NC340127  22.175  32.877   9.607
 3034POPC   PO440128  22.441  33.439   9.523
 3034POPC   GL140129  22.244  33.160   9.179
 3034POPC   GL240130  22.080  32.810   9.115
 3034POPC   C1A40131  22.056  33.211   8.783
 3034POPC   D2A40132  22.283  33.196   8.414
 3034POPC   C3A40133  22.064  33.144   8.016
 3034POPC   C4A40134  22.336  33.152   7.692
 3034POPC   C1B40135  22.212  32.703   8.714
 3034POPC   C2B40136  22.288  32.694   8.284
 3034POPC   C3B40137  22.296  32.679   7.861
 3034POPC   C4B40138  22.440  32.633   7.437
 3035POPC   NC340139  23.267  43.552   9.368
 3035POPC   PO440140  22.785  43.971   9.406
 3035POPC   GL140141  23.044  43.924   9.076
 3035POPC   GL240142  23.147  44.262   8.937
 3035POPC   C1A40143  22.977  43.795   8.707
 3035POPC   D2A40144  22.687  43.879   8.429
 3035POPC   C3A40145  22.846  43.823   8.026
 3035POPC   C4A40146  22.802  43.420   7.786
 3035POPC   C1B40147  22.704  44.232   8.826
 3035POPC   C2B40148  22.501  44.358   8.461
 3035POPC   C3B40149  22.720  44.495   8.123
 3035POPC   C4B40150  22.751  44.263   7.748
 3036POPC   NC340151  41.866  28.255   9.496
 3036POPC   PO440152  42.523  28.269   9.404
 3036POPC   GL140153  42.571  28.538   9.062
 3036POPC   GL240154  42.241  28.632   9.105
 3036POPC   C1A40155  42.608  28.411   8.641
 3036POPC   D2A40156  42.620  28.021   8.418
 3036POPC   C3A40157  42.390  28.140   8.020
 3036POPC   C4A40158  42.535  28.437   7.720
 3036POPC   C1B40159  42.204  28.746   8.650
 3036POPC   C2B40160  42.342  28.629   8.232
 3036POPC   C3B40161  42.274  28.839   7.863
 3036POPC   C4B40162  42.258  28.770   7.450
 3037POPC   NC340163  29.241  23.155   9.488
 3037POPC   PO440164  28.580  23.081   9.423
 3037POPC   GL140165  28.944  22.883   9.145
 3037POPC   GL240166  29.357  22.800   9.128
 3037POPC   C1A40167  29.012  22.631   8.776
 3037POPC   D2A40168  29.202  22.619   8.376
 3037POPC   C3A40169  28.979  22.558   7.981
 3037POPC   C4A40170  29.218  22.675   7.606
 3037POPC   C1B40171  29.256  23.122   8.815
 3037POPC   C2B40172  29.391  23.121   8.396
 3037POPC   C3B40173  29.204  23.030   8.021
 3037POPC   C4B40174  29.146  23.309   7.686
 3038POPC   NC340175  18.848   4.624   9.438
 3038POPC   PO440176  19.389   4.460   9.425
 3038POPC   GL140177  19.216   4.116   9.194
 3038POPC   GL240178  19.471   3.915   9.059
 3038POPC   C1A40179  19.007   4.038   8.791
 3038POPC   D2A40180  19.128   4.142   8.356
 3038POPC   C3A40181  18.820   4.158   8.011
 3038POPC   C4A40182  18.826   4.499   7.717
 3038POPC   C1B40183  19.478   4.234   8.723
 3038POPC   C2B40184  19.549   4.476   8.342
 3038POPC   C3B40185  19.504   4.636   7.962
 3038POPC   C4B40186  19.298   4.289   7.787
 3039POPC   NC340187  38.693   0.335   9.543
 3039POPC   PO440188  38.342   0.971   9.590
 3039POPC   GL140189  38.311   0.601   9.270
 3039POPC   GL240190  38.642   0.507   9.079
 3039POPC   C1A40191  38.201   0.446   8.844
 3039POPC   D2A40192  38.121   0.321   8.413
 3039POPC   C3A40193  38.481   0.329   8.128
 3039POPC   C4A40194  38.478   0.298   7.678
 3039POPC   C1B40195  38.720   0.388   8.631
 3039POPC   C2B40196  38.916   0.690   8.354
 3039POPC   C3B40197  38.815   0.836   7.975
 3039POPC   C4B40198  38.835   0.646   7.594
 3040POPC   NC340199  40.118  35.172   9.423
 3040POPC   PO440200  40.161  35.768   9.226
 3040POPC   GL140201  40.010  35.502   9.017
 3040POPC   GL240202  40.242  35.241   8.948
 3040POPC   C1A40203  40.005  35.489   8.576
 3040POPC   D2A40204  39.900  35.727   8.262
 3040POPC   C3A40205  39.865  35.538   7.920
 3040POPC   C4A40206  40.278  35.338   7.858
 3040POPC   C1B40207  39.750  35.133   8.835
 3040POPC   C2B40208  39.622  35.006   8.466
 3040POPC   C3B40209  39.918  35.115   8.191
 3040POPC   C4B40210  39.859  35.048   7.784
 3041POPC   NC340211  20.069   1.032   9.446
 3041POPC   PO440212  19.455   1.365   9.571
 3041POPC   GL140213  19.613   1.370   9.183
 3041POPC   GL240214  19.610   1.025   9.183
 3041POPC   C1A40215  19.910   1.266   8.834
 3041POPC   D2A40216  20.046   0.930   8.551
 3041POPC   C3A40217  20.077   1.095   8.155
 3041POPC   C4A40218  19.890   1.111   7.745
 3041POPC   C1B40219  19.413   1.120   8.780
 3041POPC   C2B40220  19.605   1.100   8.396
 3041POPC   C3B40221  19.443   1.116   8.017
 3041POPC   C4B40222  19.429   1.350   7.660
 3042POPC   NC340223  39.548  32.208   9.453
 3042POPC   PO440224  38.987  32.223   9.605
 3042POPC   GL140225  39.061  32.330   9.185
 3042POPC   GL240226  39.399  32.336   8.997
 3042POPC   C1A40227  38.999  32.156   8.765
 3042POPC   D2A40228  39.235  32.168   8.381
 3042POPC   C3A40229  38.970  32.186   8.001
 3042POPC   C4A40230  38.888  32.469   7.666
 3042POPC   C1B40231  39.713  32.164   8.705
 3042POPC   C2B40232  39.737  31.962   8.312
 3042POPC   C3B40233  39.544  32.104   7.945
 3042POPC   C4B40234  39.338  32.192   7.590
 3043POPC   NC340235  25.259  25.002   9.582
 3043POPC   PO440236  25.695  25.441   9.517
 3043POPC   GL140237  25.509  25.480   9.136
 3043POPC   GL240238  25.218  25.318   9.160
 3043POPC   C1A40239  25.447  25.330   8.696
 3043POPC   D2A40240  25.169  25.139   8.365
 3043POPC   C3A40241  25.341  24.984   7.984
 3043POPC   C4A40242  25.222  25.079   7.566
 3043POPC   C1B40243  24.952  25.101   8.865
 3043POPC   C2B40244  24.833  24.764   8.586
 3043POPC   C3B40245  24.948  24.673   8.155
 3043POPC   C4B40246  24.906  24.725   7.733
 3044POPC   NC340247  26.538  15.929   9.611
 3044POPC   PO440248  27.305  15.782   9.420
 3044POPC   GL140249  26.997  15.974   9.234
 3044POPC   GL240250  26.801  15.751   9.228
 3044POPC   C1A40251  26.931  16.029   8.790
 3044POPC   D2A40252  27.047  16.154   8.357
 3044POPC   C3A40253  27.073  15.856   8.015
 3044POPC   C4A40254  26.858  15.974   7.650
 3044POPC   C1B40255  26.570  15.671   8.865
 3044POPC   C2B40256  26.743  15.669   8.454
 3044POPC   C3B40257  26.577  15.810   8.093
 3044POPC   C4B40258  26.357  15.918   7.756
 3045POPC   NC340259  27.664  29.228   9.531
 3045POPC   PO440260  27.314  29.825   9.474
 3045POPC   GL140261  27.390  29.435   9.122
 3045POPC   GL240262  27.571  29.049   9.083
 3045POPC   C1A40263  27.368  29.253   8.686
 3045POPC   D2A40264  27.308  28.962   8.338
 3045POPC   C3A40265  27.397  29.179   7.931
 3045POPC   C4A40266  27.623  29.168   7.512
 3045POPC   C1B40267  27.859  29.093   8.734
 3045POPC   C2B40268  27.763  29.208   8.306
 3045POPC   C3B40269  27.938  29.305   7.891
 3045POPC   C4B40270  28.147  29.408   7.474
 3046POPC   NC340271  19.254  38.671   9.284
 3046POPC   PO440272  18.851  38.442   9.810
 3046POPC   GL140273  18.757  38.337   9.323
 3046POPC   GL240274  19.064  38.193   9.225
 3046POPC   C1A40275  18.792  38.397   8.834
 3046POPC   D2A40276  18.687  38.346   8.374
 3046POPC   C3A40277  18.889  38.513   8.013
 3046POPC   C4A40278  19.106  38.826   7.752
 3046POPC   C1B40279  19.267  38.187   8.787
 3046POPC   C2B40280  19.222  38.425   8.407
 3046POPC   C3B40281  19.399  38.443   7.989
 3046POPC   C4B40282  19.284  38.394   7.532
 3047POPC   NC340283  19.881  40.404   9.577
 3047POPC   PO440284  19.632  41.016   9.450
 3047POPC   GL140285  19.798  40.686   9.159
 3047POPC   GL240286  19.575  40.404   9.183
 3047POPC   C1A40287  19.998  40.498   8.801
 3047POPC   D2A40288  20.074  40.705   8.410
 3047POPC   C3A40289  19.991  40.563   8.015
 3047POPC   C4A40290  19.777  40.811   7.726
 3047POPC   C1B40291  19.473  40.512   8.764
 3047POPC   C2B40292  19.656  40.390   8.391
 3047POPC   C3B40293  19.474  40.516   8.064
 3047POPC   C4B40294  19.369  40.500   7.697
 3048POPC   NC340295  16.414  39.719   9.622
 3048POPC   PO440296  15.753  39.904   9.519
 3048POPC   GL140297  15.911  40.013   9.132
 3048POPC   GL240298  15.624  40.225   9.060
 3048POPC   C1A40299  16.224  39.865   8.815
 3048POPC   D2A40300  16.341  39.998   8.399
 3048POPC   C3A40301  16.226  39.827   8.001
 3048POPC   C4A40302  15.945  40.014   7.717
 3048POPC   C1B40303  15.647  40.031   8.660
 3048POPC   C2B40304  15.763  40.032   8.230
 3048POPC   C3B40305  15.574  40.326   7.938
 3048POPC   C4B40306  15.742  40.516   7.583
 3049POPC   NC340307  21.087  41.897   9.335
 3049POPC   PO440308  21.665  42.348   9.454
 3049POPC   GL140309  21.524  42.312   9.059
 3049POPC   GL240310  21.183  42.351   9.122
 3049POPC   C1A40311  21.713  42.301   8.647
 3049POPC   D2A40312  21.785  42.100   8.295
 3049POPC   C3A40313  21.597  42.361   8.032
 3049POPC   C4A40314  21.228  42.299   7.796
 3049POPC   C1B40315  21.218  42.489   8.677
 3049POPC   C2B40316  21.154  42.565   8.244
 3049POPC   C3B40317  21.127  42.790   7.831
 3049POPC   C4B40318  21.270  42.703   7.391
 3050POPC   NC340319  15.469   1.449   9.563
 3050POPC   PO440320  15.211   2.145   9.484
 3050POPC   GL140321  15.241   2.007   9.104
 3050POPC   GL240322  15.406   2.314   9.025
 3050POPC   C1A40323  15.027   1.902   8.715
 3050POPC   D2A40324  15.205   1.735   8.320
 3050POPC   C3A40325  15.101   1.977   7.955
 3050POPC   C4A40326  15.338   2.365   7.817
 3050POPC   C1B40327  15.529   2.025   8.697
 3050POPC   C2B40328  15.736   2.091   8.352
 3050POPC   C3B40329  15.604   1.953   7.980
 3050POPC   C4B40330  15.504   1.909   7.548
 3051POPC   NC340331  22.250  12.858   9.612
 3051POPC   PO440332  21.717  12.616   9.370
 3051POPC   GL140333  22.068  12.875   9.133
 3051POPC   GL240334  22.426  12.973   9.167
 3051POPC   C1A40335  22.172  13.130   8.766
 3051POPC   D2A40336  21.856  13.099   8.489
 3051POPC   C3A40337  21.885  12.732   8.271
 3051POPC   C4A40338  21.984  12.742   7.845
 3051POPC   C1B40339  22.465  12.570   8.962
 3051POPC   C2B40340  22.515  12.393   8.540
 3051POPC   C3B40341  22.457  12.571   8.104
 3051POPC   C4B40342  22.404  12.991   7.849
 3052POPC   NC340343  19.562  20.571   9.440
 3052POPC   PO440344  19.982  20.007   9.357
 3052POPC   GL140345  19.859  20.371   9.056
 3052POPC   GL240346  19.572  20.635   8.948
 3052POPC   C1A40347  19.879  20.413   8.604
 3052POPC   D2A40348  19.889  20.762   8.368
 3052POPC   C3A40349  19.757  20.710   7.923
 3052POPC   C4A40350  19.951  20.751   7.496
 3052POPC   C1B40351  19.435  20.207   8.805
 3052POPC   C2B40352  19.323  20.133   8.357
 3052POPC   C3B40353  19.336  20.380   7.955
 3052POPC   C4B40354  19.557  20.413   7.545
 3053POPC   NC340355   6.707   5.535   9.570
 3053POPC   PO440356   6.836   6.277   9.556
 3053POPC   GL140357   6.593   6.010   9.242
 3053POPC   GL240358   6.303   5.790   9.248
 3053POPC   C1A40359   6.612   5.998   8.800
 3053POPC   D2A40360   6.967   6.010   8.496
 3053POPC   C3A40361   6.796   5.888   8.102
 3053POPC   C4A40362   6.559   6.114   7.767
 3053POPC   C1B40363   6.269   5.590   8.829
 3053POPC   C2B40364   6.360   5.723   8.397
 3053POPC   C3B40365   6.418   5.550   7.973
 3053POPC   C4B40366   6.411   5.615   7.542
 3054POPC   NC340367  18.434  12.581   9.749
 3054POPC   PO440368  17.918  12.977   9.649
 3054POPC   GL140369  18.027  12.812   9.229
 3054POPC   GL240370  18.382  12.732   9.225
 3054POPC   C1A40371  18.036  12.623   8.796
 3054POPC   D2A40372  17.862  12.782   8.399
 3054POPC   C3A40373  18.117  12.765   8.011
 3054POPC   C4A40374  18.130  12.450   7.693
 3054POPC   C1B40375  18.600  12.621   8.831
 3054POPC   C2B40376  18.488  12.545   8.393
 3054POPC   C3B40377  18.622  12.634   7.949
 3054POPC   C4B40378  18.602  12.985   7.654
 3055POPC   NC340379  20.363  39.779   9.465
 3055POPC   PO440380  19.733  39.930   9.597
 3055POPC   GL140381  19.794  39.939   9.187
 3055POPC   GL240382  20.066  40.138   9.171
 3055POPC   C1A40383  19.699  40.055   8.776
 3055POPC   D2A40384  19.444  39.886   8.437
 3055POPC   C3A40385  19.492  39.998   7.999
 3055POPC   C4A40386  19.710  39.683   7.769
 3055POPC   C1B40387  20.212  39.938   8.812
 3055POPC   C2B40388  20.126  40.152   8.441
 3055POPC   C3B40389  19.998  40.046   8.065
 3055POPC   C4B40390  20.051  40.066   7.649
 3056POPC   NC340391  38.171  21.518   9.535
 3056POPC   PO440392  38.686  21.142   9.593
 3056POPC   GL140393  38.546  21.139   9.173
 3056POPC   GL240394  38.458  21.516   9.094
 3056POPC   C1A40395  38.760  21.206   8.774
 3056POPC   D2A40396  38.655  21.522   8.477
 3056POPC   C3A40397  38.565  21.404   8.050
 3056POPC   C4A40398  38.307  21.613   7.755
 3056POPC   C1B40399  38.209  21.715   8.743
 3056POPC   C2B40400  38.184  21.674   8.316
 3056POPC   C3B40401  37.903  21.692   8.021
 3056POPC   C4B40402  37.809  21.498   7.628
 3057POPC   NC340403  39.464  19.287   9.504
 3057POPC   PO440404  38.951  18.793   9.469
 3057POPC   GL140405  39.269  18.917   9.178
 3057POPC   GL240406  39.191  19.274   9.084
 3057POPC   C1A40407  39.228  18.908   8.742
 3057POPC   D2A40408  39.066  18.975   8.347
 3057POPC   C3A40409  39.359  18.751   8.108
 3057POPC   C4A40410  39.303  18.743   7.671
 3057POPC   C1B40411  39.155  19.417   8.661
 3057POPC   C2B40412  39.269  19.476   8.228
 3057POPC   C3B40413  39.310  19.197   7.876
 3057POPC   C4B40414  39.149  19.225   7.406
 3058POPC   NC340415  20.742  15.601   9.894
 3058POPC   PO440416  20.404  15.208   9.411
 3058POPC   GL140417  20.547  15.201   9.004
 3058POPC   GL240418  20.733  14.908   9.026
 3058POPC   C1A40419  20.500  15.520   8.683
 3058POPC   D2A40420  20.442  15.575   8.234
 3058POPC   C3A40421  20.850  15.443   8.086
 3058POPC   C4A40422  20.937  15.100   7.817
 3058POPC   C1B40423  20.529  14.828   8.637
 3058POPC   C2B40424  20.622  15.069   8.298
 3058POPC   C3B40425  20.445  15.180   7.901
 3058POPC   C4B40426  20.091  14.990   7.685
 3059POPC   NC340427  20.437  30.948   9.506
 3059POPC   PO440428  20.856  30.445   9.383
 3059POPC   GL140429  20.784  30.807   9.150
 3059POPC   GL240430  20.436  30.700   9.073
 3059POPC   C1A40431  20.752  30.863   8.723
 3059POPC   D2A40432  20.695  30.560   8.405
 3059POPC   C3A40433  20.823  30.746   8.035
 3059POPC   C4A40434  20.633  30.742   7.667
 3059POPC   C1B40435  20.226  30.463   8.751
 3059POPC   C2B40436  20.079  30.495   8.328
 3059POPC   C3B40437  20.378  30.431   7.998
 3059POPC   C4B40438  20.310  30.333   7.575
 3060POPC   NC340439   7.855  11.960   9.297
 3060POPC   PO440440   7.445  11.528   9.548
 3060POPC   GL140441   7.613  11.286   9.190
 3060POPC   GL240442   7.872  11.489   9.097
 3060POPC   C1A40443   7.499  11.195   8.759
 3060POPC   D2A40444   7.215  11.326   8.420
 3060POPC   C3A40445   7.375  11.225   8.009
 3060POPC   C4A40446   7.587  11.179   7.613
 3060POPC   C1B40447   7.732  11.670   8.725
 3060POPC   C2B40448   7.716  11.461   8.356
 3060POPC   C3B40449   7.901  11.313   8.003
 3060POPC   C4B40450   7.811  11.609   7.721
 3061POPC   NC340451  16.542  42.474   9.499
 3061POPC   PO440452  16.536  41.849   9.258
 3061POPC   GL140453  16.561  42.250   9.040
 3061POPC   GL240454  16.410  42.589   9.016
 3061POPC   C1A40455  16.686  42.286   8.621
 3061POPC   D2A40456  17.028  42.130   8.367
 3061POPC   C3A40457  16.883  42.289   8.004
 3061POPC   C4A40458  16.474  42.367   7.885
 3061POPC   C1B40459  16.831  42.696   8.890
 3061POPC   C2B40460  17.028  42.697   8.499
 3061POPC   C3B40461  17.038  42.810   8.075
 3061POPC   C4B40462  16.961  42.666   7.669
 3062POPC   NC340463  32.087  10.762   9.580
 3062POPC   PO440464  32.405  10.077   9.613
 3062POPC   GL140465  32.369  10.460   9.254
 3062POPC   GL240466  32.013  10.531   9.139
 3062POPC   C1A40467  32.411  10.647   8.842
 3062POPC   D2A40468  32.217  10.692   8.449
 3062POPC   C3A40469  32.392  10.805   8.055
 3062POPC   C4A40470  32.689  10.676   7.747
 3062POPC   C1B40471  32.030  10.305   8.769
 3062POPC   C2B40472  32.159  10.132   8.402
 3062POPC   C3B40473  32.183  10.316   8.053
 3062POPC   C4B40474  32.223  10.493   7.685
 3063POPC   NC340475  42.889  37.779   9.270
 3063POPC   PO440476  43.133  38.363   9.572
 3063POPC   GL140477  43.201  38.635   9.163
 3063POPC   GL240478  43.548  38.679   9.174
 3063POPC   C1A40479  43.230  38.608   8.697
 3063POPC   D2A40480  43.081  38.389   8.323
 3063POPC   C3A40481  43.223  38.552   7.932
 3063POPC   C4A40482  43.361  38.358   7.546
 3063POPC   C1B40483  43.481  38.257   8.967
 3063POPC   C2B40484  43.337  38.055   8.628
 3063POPC   C3B40485  43.472  37.806   8.293
 3063POPC   C4B40486  43.570  38.035   7.892
 3064POPC   NC340487   7.187   4.866   9.466
 3064POPC   PO440488   7.607   4.299   9.559
 3064POPC   GL140489   7.493   4.212   9.148
 3064POPC   GL240490   7.222   4.449   9.141
 3064POPC   C1A40491   7.347   4.150   8.727
 3064POPC   D2A40492   7.599   4.215   8.365
 3064POPC   C3A40493   7.566   3.943   8.026
 3064POPC   C4A40494   7.619   4.168   7.660
 3064POPC   C1B40495   6.972   4.524   8.774
 3064POPC   C2B40496   7.136   4.487   8.374
 3064POPC   C3B40497   7.315   4.437   7.972
 3064POPC   C4B40498   7.219   4.746   7.688
 3065POPC   NC340499  26.009   3.401   9.591
 3065POPC   PO440500  26.675   3.472   9.453
 3065POPC   GL140501  26.305   3.617   9.177
 3065POPC   GL240502  25.921   3.472   9.105
 3065POPC   C1A40503  26.124   3.799   8.803
 3065POPC   D2A40504  25.901   3.641   8.424
 3065POPC   C3A40505  26.163   3.704   8.082
 3065POPC   C4A40506  26.198   3.575   7.664
 3065POPC   C1B40507  25.685   3.290   8.743
 3065POPC   C2B40508  25.517   3.220   8.314
 3065POPC   C3B40509  25.649   3.360   7.892
 3065POPC   C4B40510  25.729   3.452   7.448
 3066POPC   NC340511  44.683  16.230   9.531
 3066POPC   PO440512  44.616  15.542   9.519
 3066POPC   GL140513  44.590  15.842   9.175
 3066POPC   GL240514  44.361  16.126   9.031
 3066POPC   C1A40515  44.660  15.859   8.738
 3066POPC   D2A40516  44.391  16.092   8.482
 3066POPC   C3A40517  44.545  16.020   8.059
 3066POPC   C4A40518  44.832  15.845   7.752
 3066POPC   C1B40519  44.724  16.345   8.849
 3066POPC   C2B40520  44.882  16.226   8.446
 3066POPC   C3B40521   0.025  16.236   8.006
 3066POPC   C4B40522  44.960  16.437   7.634
 3067POPC   NC340523   6.436  44.958   9.457
 3067POPC   PO440524   6.706  44.466   9.801
 3067POPC   GL140525   6.789  44.615   9.334
 3067POPC   GL240526   6.458  44.610   9.104
 3067POPC   C1A40527   6.907  44.708   8.882
 3067POPC   D2A40528   6.830  44.941   8.496
 3067POPC   C3A40529   6.853  44.772   8.077
 3067POPC   C4A40530   6.762  44.905   7.657
 3067POPC   C1B40531   6.409  44.844   8.761
 3067POPC   C2B40532   6.364  44.690   8.361
 3067POPC   C3B40533   6.338  44.759   7.929
 3067POPC   C4B40534   6.271  44.513   7.597
 3068POPC   NC340535  23.180  39.590   9.678
 3068POPC   PO440536  23.135  38.991   9.500
 3068POPC   GL140537  22.813  39.150   9.227
 3068POPC   GL240538  22.824  39.476   9.281
 3068POPC   C1A40539  22.617  39.058   8.839
 3068POPC   D2A40540  22.730  39.180   8.457
 3068POPC   C3A40541  22.727  38.913   8.099
 3068POPC   C4A40542  23.056  39.024   7.828
 3068POPC   C1B40543  22.934  39.574   8.858
 3068POPC   C2B40544  22.905  39.714   8.435
 3068POPC   C3B40545  22.865  39.492   8.061
 3068POPC   C4B40546  22.654  39.456   7.703
 3069POPC   NC340547  23.017  35.955   9.573
 3069POPC   PO440548  22.492  36.368   9.453
 3069POPC   GL140549  22.691  36.046   9.178
 3069POPC   GL240550  23.044  35.913   9.081
 3069POPC   C1A40551  22.647  35.970   8.773
 3069POPC   D2A40552  22.839  36.125   8.447
 3069POPC   C3A40553  22.794  35.950   8.033
 3069POPC   C4A40554  22.760  36.185   7.670
 3069POPC   C1B40555  23.268  35.960   8.697
 3069POPC   C2B40556  23.297  36.004   8.248
 3069POPC   C3B40557  23.455  36.219   7.901
 3069POPC   C4B40558  23.231  35.934   7.699
 3070POPC   NC340559   9.888  13.833   9.382
 3070POPC   PO440560   9.719  14.432   9.653
 3070POPC   GL140561   9.754  14.336   9.213
 3070POPC   GL240562   9.483  14.055   9.141
 3070POPC   C1A40563   9.865  14.632   8.855
 3070POPC   D2A40564   9.858  14.524   8.449
 3070POPC   C3A40565   9.705  14.671   8.083
 3070POPC   C4A40566  10.054  14.857   7.877
 3070POPC   C1B40567   9.646  14.166   8.738
 3070POPC   C2B40568   9.603  14.124   8.311
 3070POPC   C3B40569   9.662  13.933   7.957
 3070POPC   C4B40570   9.723  13.972   7.536
 3071POPC   NC340571  10.778   2.230   9.371
 3071POPC   PO440572  11.293   1.831   9.675
 3071POPC   GL140573  11.399   1.827   9.196
 3071POPC   GL240574  11.257   2.120   9.145
 3071POPC   C1A40575  11.238   1.810   8.747
 3071POPC   D2A40576  11.131   1.941   8.332
 3071POPC   C3A40577  11.357   1.751   8.001
 3071POPC   C4A40578  11.233   1.938   7.632
 3071POPC   C1B40579  11.320   2.336   8.718
 3071POPC   C2B40580  11.292   2.428   8.261
 3071POPC   C3B40581  11.268   2.428   7.804
 3071POPC   C4B40582  11.570   2.303   7.458
 3072POPC   NC340583  27.733  37.916   9.700
 3072POPC   PO440584  27.390  37.378   9.583
 3072POPC   GL140585  27.472  37.649   9.244
 3072POPC   GL240586  27.215  37.576   9.074
 3072POPC   C1A40587  27.694  37.664   8.849
 3072POPC   D2A40588  27.719  37.958   8.534
 3072POPC   C3A40589  27.784  37.923   8.096
 3072POPC   C4A40590  27.707  37.638   7.806
 3072POPC   C1B40591  27.231  37.642   8.652
 3072POPC   C2B40592  27.473  37.550   8.293
 3072POPC   C3B40593  27.271  37.394   7.949
 3072POPC   C4B40594  27.274  37.514   7.562
 3073POPC   NC340595  15.460  36.451   9.318
 3073POPC   PO440596  15.120  36.919   9.678
 3073POPC   GL140597  15.163  36.883   9.268
 3073POPC   GL240598  15.509  36.953   9.211
 3073POPC   C1A40599  15.047  36.965   8.863
 3073POPC   D2A40600  15.158  37.091   8.459
 3073POPC   C3A40601  15.173  36.779   8.148
 3073POPC   C4A40602  15.044  36.876   7.756
 3073POPC   C1B40603  15.564  37.044   8.782
 3073POPC   C2B40604  15.633  36.923   8.356
 3073POPC   C3B40605  15.571  37.086   7.946
 3073POPC   C4B40606  15.523  36.803   7.610
 3074POPC   NC340607  18.534  17.030   9.409
 3074POPC   PO440608  18.036  16.561   9.557
 3074POPC   GL140609  18.212  16.703   9.177
 3074POPC   GL240610  18.417  16.438   9.078
 3074POPC   C1A40611  18.319  16.855   8.756
 3074POPC   D2A40612  18.514  16.778   8.379
 3074POPC   C3A40613  18.377  16.986   8.005
 3074POPC   C4A40614  18.477  16.768   7.631
 3074POPC   C1B40615  18.074  16.380   8.806
 3074POPC   C2B40616  18.049  16.545   8.410
 3074POPC   C3B40617  18.236  16.477   8.023
 3074POPC   C4B40618  18.058  16.505   7.619
 3075POPC   NC340619   6.121  11.853   9.757
 3075POPC   PO440620   5.600  12.273   9.484
 3075POPC   GL140621   5.801  12.278   9.106
 3075POPC   GL240622   6.028  12.018   9.189
 3075POPC   C1A40623   5.745  12.080   8.716
 3075POPC   D2A40624   5.898  12.123   8.329
 3075POPC   C3A40625   5.593  12.109   8.039
 3075POPC   C4A40626   5.544  11.963   7.626
 3075POPC   C1B40627   6.186  11.816   8.808
 3075POPC   C2B40628   6.413  11.967   8.453
 3075POPC   C3B40629   6.276  11.935   8.032
 3075POPC   C4B40630   6.089  12.030   7.614
 3076POPC   NC340631   6.506  30.841   9.583
 3076POPC   PO440632   6.684  30.201   9.528
 3076POPC   GL140633   6.526  30.519   9.169
 3076POPC   GL240634   6.364  30.873   9.103
 3076POPC   C1A40635   6.747  30.714   8.820
 3076POPC   D2A40636   6.798  30.891   8.414
 3076POPC   C3A40637   6.754  30.641   8.049
 3076POPC   C4A40638   6.839  30.280   7.751
 3076POPC   C1B40639   6.312  30.939   8.637
 3076POPC   C2B40640   6.346  30.619   8.345
 3076POPC   C3B40641   6.260  30.677   7.923
 3076POPC   C4B40642   6.504  30.659   7.582
 3077POPC   NC340643  40.907  40.464   9.518
 3077POPC   PO440644  40.678  41.035   9.572
 3077POPC   GL140645  40.833  40.861   9.194
 3077POPC   GL240646  40.613  40.566   9.125
 3077POPC   C1A40647  40.832  40.833   8.759
 3077POPC   D2A40648  40.937  40.659   8.402
 3077POPC   C3A40649  40.795  40.897   8.055
 3077POPC   C4A40650  41.102  41.005   7.771
 3077POPC   C1B40651  40.419  40.461   8.738
 3077POPC   C2B40652  40.513  40.420   8.306
 3077POPC   C3B40653  40.796  40.404   7.955
 3077POPC   C4B40654  40.590  40.613   7.634
 3078POPC   NC340655  35.970   7.343   9.442
 3078POPC   PO440656  36.018   8.091   9.519
 3078POPC   GL140657  35.927   7.788   9.151
 3078POPC   GL240658  35.699   7.508   9.029
 3078POPC   C1A40659  36.104   7.692   8.735
 3078POPC   D2A40660  36.157   7.485   8.326
 3078POPC   C3A40661  35.941   7.626   7.980
 3078POPC   C4A40662  36.204   7.583   7.581
 3078POPC   C1B40663  35.890   7.223   8.696
 3078POPC   C2B40664  35.760   7.183   8.251
 3078POPC   C3B40665  36.007   7.148   7.876
 3078POPC   C4B40666  36.083   7.084   7.455
 3079POPC   NC340667  14.651   1.294   9.614
 3079POPC   PO440668  14.071   0.912   9.595
 3079POPC   GL140669  14.164   1.167   9.175
 3079POPC   GL240670  14.542   1.176   9.142
 3079POPC   C1A40671  14.303   1.244   8.701
 3079POPC   D2A40672  14.535   1.135   8.281
 3079POPC   C3A40673  14.334   0.925   7.917
 3079POPC   C4A40674  14.134   1.051   7.543
 3079POPC   C1B40675  14.755   1.466   8.861
 3079POPC   C2B40676  14.721   1.590   8.451
 3079POPC   C3B40677  14.808   1.525   8.023
 3079POPC   C4B40678  14.477   1.411   7.735
 3080POPC   NC340679  32.693  24.962   9.269
 3080POPC   PO440680  32.148  24.722   9.625
 3080POPC   GL140681  32.279  24.638   9.192
 3080POPC   GL240682  32.565  24.407   9.077
 3080POPC   C1A40683  32.122  24.647   8.782
 3080POPC   D2A40684  32.316  24.795   8.388
 3080POPC   C3A40685  32.002  24.740   8.089
 3080POPC   C4A40686  32.021  24.437   7.796
 3080POPC   C1B40687  32.477  24.324   8.653
 3080POPC   C2B40688  32.224  24.295   8.298
 3080POPC   C3B40689  32.452  24.209   7.965
 3080POPC   C4B40690  32.610  24.357   7.624
 3081POPC   NC340691  28.081  24.113   9.530
 3081POPC   PO440692  28.185  24.810   9.694
 3081POPC   GL140693  28.154  24.476   9.216
 3081POPC   GL240694  28.483  24.413   9.017
 3081POPC   C1A40695  28.090  24.298   8.751
 3081POPC   D2A40696  28.385  24.265   8.381
 3081POPC   C3A40697  28.309  24.361   7.972
 3081POPC   C4A40698  28.054  24.209   7.648
 3081POPC   C1B40699  28.475  24.685   8.647
 3081POPC   C2B40700  28.595  24.755   8.220
 3081POPC   C3B40701  28.484  24.865   7.798
 3081POPC   C4B40702  28.364  24.555   7.491
 3082POPC   NC340703   1.035  29.694   9.879
 3082POPC   PO440704   0.961  30.286   9.549
 3082POPC   GL140705   1.222  30.178   9.166
 3082POPC   GL240706   1.608  30.103   9.151
 3082POPC   C1A40707   1.076  29.994   8.745
 3082POPC   D2A40708   0.916  30.084   8.304
 3082POPC   C3A40709   1.179  29.968   7.922
 3082POPC   C4A40710   1.075  29.771   7.486
 3082POPC   C1B40711   1.593  29.827   8.764
 3082POPC   C2B40712   1.422  29.800   8.353
 3082POPC   C3B40713   1.586  29.636   7.975
 3082POPC   C4B40714   1.601  29.808   7.552
 3083POPC   NC340715  31.403  21.970   9.685
 3083POPC   PO440716  31.400  21.290   9.455
 3083POPC   GL140717  31.430  21.384   9.076
 3083POPC   GL240718  31.631  21.689   9.107
 3083POPC   C1A40719  31.209  21.209   8.715
 3083POPC   D2A40720  31.027  21.359   8.360
 3083POPC   C3A40721  31.175  21.372   7.938
 3083POPC   C4A40722  31.082  21.282   7.491
 3083POPC   C1B40723  31.473  21.655   8.671
 3083POPC   C2B40724  31.394  21.740   8.285
 3083POPC   C3B40725  31.272  21.996   8.002
 3083POPC   C4B40726  31.217  21.778   7.641
 3084POPC   NC340727  11.523  16.096   9.409
 3084POPC   PO440728  11.030  15.631   9.395
 3084POPC   GL140729  11.225  15.850   9.038
 3084POPC   GL240730  10.937  15.706   8.869
 3084POPC   C1A40731  11.523  16.073   8.744
 3084POPC   D2A40732  11.698  16.066   8.316
 3084POPC   C3A40733  11.454  16.061   7.949
 3084POPC   C4A40734  11.029  16.197   7.994
 3084POPC   C1B40735  11.058  15.975   8.563
 3084POPC   C2B40736  11.228  15.747   8.282
 3084POPC   C3B40737  11.066  15.617   7.941
 3084POPC   C4B40738  11.274  15.648   7.578
 3085POPC   NC340739  38.181  14.817   9.498
 3085POPC   PO440740  37.513  14.976   9.559
 3085POPC   GL140741  37.740  15.102   9.195
 3085POPC   GL240742  37.945  14.866   9.078
 3085POPC   C1A40743  37.803  15.292   8.776
 3085POPC   D2A40744  38.013  15.301   8.356
 3085POPC   C3A40745  37.680  15.259   8.059
 3085POPC   C4A40746  37.372  15.581   7.942
 3085POPC   C1B40747  38.074  14.883   8.674
 3085POPC   C2B40748  37.912  14.810   8.283
 3085POPC   C3B40749  38.061  14.933   7.893
 3085POPC   C4B40750  38.230  15.248   7.601
 3086POPC   NC340751  13.469  12.728   9.579
 3086POPC   PO440752  14.101  12.939   9.605
 3086POPC   GL140753  13.945  12.944   9.154
 3086POPC   GL240754  13.658  12.730   9.118
 3086POPC   C1A40755  13.849  12.917   8.687
 3086POPC   D2A40756  13.580  12.817   8.355
 3086POPC   C3A40757  13.543  12.986   7.988
 3086POPC   C4A40758  13.883  12.971   7.779
 3086POPC   C1B40759  13.363  12.713   8.796
 3086POPC   C2B40760  13.194  12.482   8.428
 3086POPC   C3B40761  13.189  12.582   8.015
 3086POPC   C4B40762  13.194  12.784   7.645
 3087POPC   NC340763  42.631  17.517   9.550
 3087POPC   PO440764  43.383  17.607   9.575
 3087POPC   GL140765  43.153  17.702   9.228
 3087POPC   GL240766  43.015  17.399   9.143
 3087POPC   C1A40767  43.288  17.716   8.774
 3087POPC   D2A40768  43.197  17.410   8.461
 3087POPC   C3A40769  43.305  17.395   8.031
 3087POPC   C4A40770  43.045  17.200   7.709
 3087POPC   C1B40771  42.791  17.676   8.842
 3087POPC   C2B40772  42.740  17.645   8.388
 3087POPC   C3B40773  42.851  17.628   7.932
 3087POPC   C4B40774  42.683  17.518   7.502
 3088POPC   NC340775  32.016  23.414   9.776
 3088POPC   PO440776  32.273  22.756   9.698
 3088POPC   GL140777  32.187  22.752   9.226
 3088POPC   GL240778  32.545  22.727   9.195
 3088POPC   C1A40779  31.935  22.823   8.825
 3088POPC   D2A40780  32.099  22.882   8.419
 3088POPC   C3A40781  31.981  22.725   8.032
 3088POPC   C4A40782  32.058  23.076   7.780
 3088POPC   C1B40783  32.476  22.799   8.779
 3088POPC   C2B40784  32.592  23.024   8.427
 3088POPC   C3B40785  32.479  23.023   8.054
 3088POPC   C4B40786  32.672  22.997   7.667
 3089POPC   NC340787  34.296  37.407   9.819
 3089POPC   PO440788  34.492  36.851   9.505
 3089POPC   GL140789  34.581  36.973   9.110
 3089POPC   GL240790  34.603  36.604   9.048
 3089POPC   C1A40791  34.494  37.268   8.738
 3089POPC   D2A40792  34.326  37.333   8.305
 3089POPC   C3A40793  34.626  37.290   7.959
 3089POPC   C4A40794  34.688  37.082   7.538
 3089POPC   C1B40795  34.608  36.746   8.659
 3089POPC   C2B40796  34.708  36.627   8.268
 3089POPC   C3B40797  34.509  36.782   7.921
 3089POPC   C4B40798  34.410  36.666   7.471
 3090POPC   NC340799  10.020   6.669   9.671
 3090POPC   PO440800   9.541   7.061   9.745
 3090POPC   GL140801   9.777   6.894   9.307
 3090POPC   GL240802   9.682   6.529   9.246
 3090POPC   C1A40803   9.897   6.761   8.824
 3090POPC   D2A40804   9.875   6.512   8.379
 3090POPC   C3A40805   9.745   6.696   7.941
 3090POPC   C4A40806   9.486   6.746   7.552
 3090POPC   C1B40807   9.762   6.261   8.850
 3090POPC   C2B40808   9.536   6.111   8.469
 3090POPC   C3B40809   9.569   6.205   8.032
 3090POPC   C4B40810   9.881   6.234   7.719
 3091POPC   NC340811  19.478  31.223   9.570
 3091POPC   PO440812  19.959  31.677   9.673
 3091POPC   GL140813  19.817  31.585   9.287
 3091POPC   GL240814  19.539  31.775   9.193
 3091POPC   C1A40815  19.986  31.659   8.890
 3091POPC   D2A40816  19.839  31.533   8.491
 3091POPC   C3A40817  20.077  31.543   8.116
 3091POPC   C4A40818  19.930  31.726   7.736
 3091POPC   C1B40819  19.482  31.454   8.872
 3091POPC   C2B40820  19.349  31.376   8.444
 3091POPC   C3B40821  19.550  31.457   8.061
 3091POPC   C4B40822  19.647  31.253   7.713
 3092POPC   NC340823   6.192  44.294   9.647
 3092POPC   PO440824   5.891  44.938   9.569
 3092POPC   GL140825   5.956  44.626   9.268
 3092POPC   GL240826   5.658  44.450   9.167
 3092POPC   C1A40827   5.932  44.715   8.827
 3092POPC   D2A40828   5.982   0.083   8.561
 3092POPC   C3A40829   5.939  44.981   8.163
 3092POPC   C4A40830   5.940   0.047   7.741
 3092POPC   C1B40831   5.641  44.312   8.727
 3092POPC   C2B40832   5.896  44.461   8.372
 3092POPC   C3B40833   6.042  44.307   8.006
 3092POPC   C4B40834   5.796  44.309   7.626
 3093POPC   NC340835  17.894  44.867   9.389
 3093POPC   PO440836  18.547  44.589   9.522
 3093POPC   GL140837  18.305  44.617   9.189
 3093POPC   GL240838  18.366   0.001   9.200
 3093POPC   C1A40839  18.322  44.394   8.795
 3093POPC   D2A40840  18.390  44.167   8.403
 3093POPC   C3A40841  18.404  44.355   8.016
 3093POPC   C4A40842  18.455  44.416   7.582
 3093POPC   C1B40843  18.491  44.895   8.796
 3093POPC   C2B40844  18.338  44.738   8.417
 3093POPC   C3B40845  18.436  44.879   8.032
 3093POPC   C4B40846  18.251  44.881   7.661
 3094POPC   NC340847  33.723   1.029   9.636
 3094POPC   PO440848  33.412   1.553   9.391
 3094POPC   GL140849  33.666   1.354   9.068
 3094POPC   GL240850  33.910   1.121   9.173
 3094POPC   C1A40851  33.960   1.354   8.731
 3094POPC   D2A40852  33.777   1.218   8.362
 3094POPC   C3A40853  34.030   1.282   8.007
 3094POPC   C4A40854  33.792   1.256   7.642
 3094POPC   C1B40855  33.808   0.859   8.806
 3094POPC   C2B40856  33.923   0.714   8.391
 3094POPC   C3B40857  33.805   0.837   7.960
 3094POPC   C4B40858  34.056   0.843   7.539
 3095POPC   NC340859   9.986  36.723   9.507
 3095POPC   PO440860   9.615  37.167   9.458
 3095POPC   GL140861   9.835  37.108   9.127
 3095POPC   GL240862   9.717  36.788   9.089
 3095POPC   C1A40863   9.576  37.146   8.760
 3095POPC   D2A40864   9.398  36.958   8.443
 3095POPC   C3A40865   9.678  36.973   8.149
 3095POPC   C4A40866   9.881  37.233   7.858
 3095POPC   C1B40867   9.522  36.571   8.787
 3095POPC   C2B40868   9.742  36.548   8.438
 3095POPC   C3B40869   9.666  36.469   8.059
 3095POPC   C4B40870   9.700  36.725   7.705
 3096POPC   NC340871  44.908  44.639   9.538
 3096POPC   PO440872  44.343  44.302   9.502
 3096POPC   GL140873  44.524  44.662   9.195
 3096POPC   GL240874  44.889  44.644   9.039
 3096POPC   C1A40875  44.554  44.857   8.760
 3096POPC   D2A40876  44.814  44.659   8.457
 3096POPC   C3A40877  44.678  44.794   8.070
 3096POPC   C4A40878  44.972   0.101   7.901
 3096POPC   C1B40879  44.681  44.304   8.852
 3096POPC   C2B40880  44.572  44.117   8.510
 3096POPC   C3B40881  44.668  44.260   8.108
 3096POPC   C4B40882  44.611  44.360   7.679
 3097POPC   NC340883  41.708   3.251   9.350
 3097POPC   PO440884  41.571   3.887   9.673
 3097POPC   GL140885  41.771   3.734   9.208
 3097POPC   GL240886  41.501   3.493   8.982
 3097POPC   C1A40887  41.786   3.764   8.715
 3097POPC   D2A40888  41.894   3.604   8.325
 3097POPC   C3A40889  41.560   3.470   8.071
 3097POPC   C4A40890  41.733   3.650   7.728
 3097POPC   C1B40891  41.341   3.463   8.567
 3097POPC   C2B40892  41.193   3.786   8.289
 3097POPC   C3B40893  41.192   3.818   7.860
 3097POPC   C4B40894  41.251   3.461   7.624
 3098POPC   NC340895  30.380   5.658   9.530
 3098POPC   PO440896  30.340   6.300   9.519
 3098POPC   GL140897  30.734   6.114   9.270
 3098POPC   GL240898  30.721   5.761   9.179
 3098POPC   C1A40899  30.853   6.033   8.790
 3098POPC   D2A40900  30.575   5.957   8.399
 3098POPC   C3A40901  30.712   6.027   7.965
 3098POPC   C4A40902  31.070   5.954   7.683
 3098POPC   C1B40903  30.668   5.528   8.787
 3098POPC   C2B40904  30.888   5.417   8.385
 3098POPC   C3B40905  30.901   5.510   7.944
 3098POPC   C4B40906  30.495   5.606   7.757
 3099POPC   NC340907   6.865  31.612   9.527
 3099POPC   PO440908   6.970  30.914   9.552
 3099POPC   GL140909   6.759  31.205   9.217
 3099POPC   GL240910   6.559  31.591   9.146
 3099POPC   C1A40911   6.665  31.249   8.802
 3099POPC   D2A40912   6.760  31.403   8.413
 3099POPC   C3A40913   6.450  31.208   8.170
 3099POPC   C4A40914   6.633  31.112   7.797
 3099POPC   C1B40915   6.572  31.759   8.752
 3099POPC   C2B40916   6.417  31.783   8.344
 3099POPC   C3B40917   6.596  31.674   7.950
 3099POPC   C4B40918   6.447  31.530   7.536
 3100POPC   NC340919  43.411  13.897   9.508
 3100POPC   PO440920  44.072  13.629   9.521
 3100POPC   GL140921  44.027  13.810   9.145
 3100POPC   GL240922  43.700  13.770   9.099
 3100POPC   C1A40923  44.018  13.646   8.731
 3100POPC   D2A40924  43.860  13.499   8.383
 3100POPC   C3A40925  44.096  13.571   8.089
 3100POPC   C4A40926  43.951  13.743   7.774
 3100POPC   C1B40927  43.523  13.738   8.708
 3100POPC   C2B40928  43.588  13.924   8.327
 3100POPC   C3B40929  43.495  13.680   7.954
 3100POPC   C4B40930  43.349  13.796   7.549
 3101POPC   NC340931  34.266  22.813   9.451
 3101POPC   PO440932  34.869  23.214   9.510
 3101POPC   GL140933  34.813  23.083   9.094
 3101POPC   GL240934  34.488  23.104   9.074
 3101POPC   C1A40935  34.791  23.026   8.636
 3101POPC   D2A40936  34.845  23.270   8.257
 3101POPC   C3A40937  34.963  23.024   7.934
 3101POPC   C4A40938  34.809  22.890   7.526
 3101POPC   C1B40939  34.266  23.041   8.710
 3101POPC   C2B40940  34.261  22.813   8.338
 3101POPC   C3B40941  34.441  23.011   7.983
 3101POPC   C4B40942  34.334  23.109   7.535
 3102POPC   NC340943  20.861  16.391   9.753
 3102POPC   PO440944  20.407  16.715   9.446
 3102POPC   GL140945  20.633  16.738   9.087
 3102POPC   GL240946  20.919  16.641   9.268
 3102POPC   C1A40947  20.659  16.734   8.637
 3102POPC   D2A40948  20.629  16.907   8.237
 3102POPC   C3A40949  20.419  16.587   8.071
 3102POPC   C4A40950  20.190  16.557   7.747
 3102POPC   C1B40951  21.072  16.458   8.920
 3102POPC   C2B40952  20.953  16.329   8.543
 3102POPC   C3B40953  20.926  16.472   8.162
 3102POPC   C4B40954  20.800  16.413   7.776
 3103POPC   NC340955  14.309   0.432   9.657
 3103POPC   PO440956  14.930   0.520   9.539
 3103POPC   GL140957  14.555   0.334   9.224
 3103POPC   GL240958  14.151   0.262   9.212
 3103POPC   C1A40959  14.501   0.318   8.776
 3103POPC   D2A40960  14.570   0.141   8.371
 3103POPC   C3A40961  14.458   0.389   7.999
 3103POPC   C4A40962  14.525   0.467   7.550
 3103POPC   C1B40963  14.008   0.485   8.864
 3103POPC   C2B40964  14.201   0.618   8.475
 3103POPC   C3B40965  14.007   0.568   8.102
 3103POPC   C4B40966  14.033   0.547   7.670
 3104POPC   NC340967  11.435  26.220   9.575
 3104POPC   PO440968  10.992  26.614   9.388
 3104POPC   GL140969  11.153  26.243   9.138
 3104POPC   GL240970  11.139  25.864   9.235
 3104POPC   C1A40971  11.470  26.140   8.805
 3104POPC   D2A40972  11.650  26.207   8.384
 3104POPC   C3A40973  11.467  26.142   7.962
 3104POPC   C4A40974  11.069  26.273   7.765
 3104POPC   C1B40975  11.139  25.768   8.766
 3104POPC   C2B40976  11.151  25.932   8.322
 3104POPC   C3B40977  11.095  25.776   7.878
 3104POPC   C4B40978  11.406  25.709   7.528
 3105POPC   NC340979   9.516  41.067   9.274
 3105POPC   PO440980   9.477  41.499   9.848
 3105POPC   GL140981   9.509  41.605   9.371
 3105POPC   GL240982   9.852  41.517   9.226
 3105POPC   C1A40983   9.475  41.769   8.904
 3105POPC   D2A40984   9.670  41.864   8.460
 3105POPC   C3A40985   9.474  41.739   8.044
 3105POPC   C4A40986   9.451  41.642   7.585
 3105POPC   C1B40987   9.810  41.396   8.766
 3105POPC   C2B40988   9.710  41.377   8.316
 3105POPC   C3B40989   9.680  41.278   7.870
 3105POPC   C4B40990  10.113  41.216   7.780
 3106POPC   NC340991  24.286   1.063   9.363
 3106POPC   PO440992  24.926   1.263   9.398
 3106POPC   GL140993  24.701   1.089   9.074
 3106POPC   GL240994  24.538   1.403   9.054
 3106POPC   C1A40995  24.701   1.193   8.621
 3106POPC   D2A40996  24.757   1.404   8.224
 3106POPC   C3A40997  24.739   1.073   7.935
 3106POPC   C4A40998  24.335   0.990   7.805
 3106POPC   C1B40999  24.228   1.416   8.759
 3106POPC   C2B41000  24.056   1.392   8.369
 3106POPC   C3B41001  24.193   1.497   8.021
 3106POPC   C4B41002  24.508   1.486   7.751
 3107POPC   NC341003  25.457   1.802   9.516
 3107POPC   PO441004  24.920   2.142   9.399
 3107POPC   GL141005  25.295   2.150   9.145
 3107POPC   GL241006  25.500   1.918   9.039
 3107POPC   C1A41007  25.476   2.295   8.716
 3107POPC   D2A41008  25.265   2.181   8.352
 3107POPC   C3A41009  25.403   2.080   7.945
 3107POPC   C4A41010  25.483   1.672   7.791
 3107POPC   C1B41011  25.101   1.860   8.785
 3107POPC   C2B41012  24.864   1.884   8.399
 3107POPC   C3B41013  24.986   1.785   7.962
 3107POPC   C4B41014  25.011   1.461   7.688
 3108POPC   NC341015  27.173   8.434   9.510
 3108POPC   PO441016  26.473   8.260   9.505
 3108POPC   GL141017  26.820   8.172   9.238
 3108POPC   GL241018  26.879   7.818   9.218
 3108POPC   C1A41019  26.909   8.260   8.804
 3108POPC   D2A41020  26.556   8.318   8.528
 3108POPC   C3A41021  26.689   8.485   8.170
 3108POPC   C4A41022  26.843   8.305   7.805
 3108POPC   C1B41023  26.588   7.880   8.873
 3108POPC   C2B41024  26.762   7.830   8.475
 3108POPC   C3B41025  26.620   7.935   8.088
 3108POPC   C4B41026  26.886   7.805   7.778
 3109POPC   NC341027  17.901  20.309   9.817
 3109POPC   PO441028  17.350  20.556   9.509
 3109POPC   GL141029  17.549  20.659   9.136
 3109POPC   GL241030  17.515  20.300   9.055
 3109POPC   C1A41031  17.688  20.867   8.769
 3109POPC   D2A41032  17.466  20.860   8.422
 3109POPC   C3A41033  17.556  20.798   8.028
 3109POPC   C4A41034  17.275  20.908   7.744
 3109POPC   C1B41035  17.488  20.420   8.665
 3109POPC   C2B41036  17.767  20.420   8.295
 3109POPC   C3B41037  17.556  20.319   7.878
 3109POPC   C4B41038  17.343  20.377   7.481
 3110POPC   NC341039  18.770  29.859   9.517
 3110POPC   PO441040  19.299  30.210   9.270
 3110POPC   GL141041  18.953  30.057   9.077
 3110POPC   GL241042  19.074  29.740   9.112
 3110POPC   C1A41043  18.809  29.822   8.683
 3110POPC   D2A41044  18.892  29.643   8.261
 3110POPC   C3A41045  19.022  29.903   7.921
 3110POPC   C4A41046  19.099  29.866   7.471
 3110POPC   C1B41047  19.325  29.881   8.724
 3110POPC   C2B41048  19.316  30.072   8.317
 3110POPC   C3B41049  19.535  29.957   7.928
 3110POPC   C4B41050  19.569  29.702   7.555
 3111POPC   NC341051   3.856  31.125   9.396
 3111POPC   PO441052   3.282  31.515   9.538
 3111POPC   GL141053   3.302  31.447   9.106
 3111POPC   GL241054   3.321  31.102   9.198
 3111POPC   C1A41055   3.540  31.666   8.772
 3111POPC   D2A41056   3.896  31.614   8.483
 3111POPC   C3A41057   3.796  31.481   8.075
 3111POPC   C4A41058   3.703  31.823   7.837
 3111POPC   C1B41059   3.614  31.159   8.826
 3111POPC   C2B41060   3.501  31.263   8.432
 3111POPC   C3B41061   3.359  31.213   8.033
 3111POPC   C4B41062   3.459  31.406   7.618
 3112POPC   NC341063   5.887  31.882   9.617
 3112POPC   PO441064   6.358  31.324   9.525
 3112POPC   GL141065   6.136  31.323   9.095
 3112POPC   GL241066   5.843  31.542   9.107
 3112POPC   C1A41067   6.170  31.437   8.657
 3112POPC   D2A41068   5.934  31.617   8.321
 3112POPC   C3A41069   6.106  31.539   7.924
 3112POPC   C4A41070   6.128  31.123   7.741
 3112POPC   C1B41071   5.614  31.613   8.729
 3112POPC   C2B41072   5.567  31.961   8.405
 3112POPC   C3B41073   5.581  31.857   7.983
 3112POPC   C4B41074   5.624  31.414   7.863
 3113POPC   NC341075  25.646  19.688   9.442
 3113POPC   PO441076  26.207  19.885   9.665
 3113POPC   GL141077  26.092  19.943   9.221
 3113POPC   GL241078  26.381  20.163   9.075
 3113POPC   C1A41079  25.896  19.691   8.837
 3113POPC   D2A41080  25.887  19.430   8.443
 3113POPC   C3A41081  25.885  19.689   8.066
 3113POPC   C4A41082  25.938  19.969   7.732
 3113POPC   C1B41083  26.401  19.778   8.837
 3113POPC   C2B41084  26.265  19.763   8.425
 3113POPC   C3B41085  26.379  19.860   8.010
 3113POPC   C4B41086  26.261  19.590   7.678
 3114POPC   NC341087  37.165  41.356   9.741
 3114POPC   PO441088  36.617  41.763   9.619
 3114POPC   GL141089  36.590  41.682   9.147
 3114POPC   GL241090  36.913  41.605   9.016
 3114POPC   C1A41091  36.675  41.876   8.691
 3114POPC   D2A41092  36.950  41.792   8.332
 3114POPC   C3A41093  36.774  41.686   7.931
 3114POPC   C4A41094  36.701  41.809   7.497
 3114POPC   C1B41095  37.073  41.392   8.652
 3114POPC   C2B41096  37.226  41.360   8.255
 3114POPC   C3B41097  37.241  41.478   7.830
 3114POPC   C4B41098  37.034  41.437   7.453
 3115POPC   NC341099  40.487  22.630   9.464
 3115POPC   PO441100  40.935  23.254   9.499
 3115POPC   GL141101  40.735  23.142   9.131
 3115POPC   GL241102  40.848  22.846   9.130
 3115POPC   C1A41103  40.935  23.146   8.728
 3115POPC   D2A41104  41.005  22.909   8.342
 3115POPC   C3A41105  40.808  23.099   7.990
 3115POPC   C4A41106  40.408  23.143   7.812
 3115POPC   C1B41107  40.943  22.616   8.800
 3115POPC   C2B41108  40.683  22.436   8.476
 3115POPC   C3B41109  40.660  22.594   8.064
 3115POPC   C4B41110  40.880  22.642   7.678
 3116POPC   NC341111  25.429  43.068   9.608
 3116POPC   PO441112  24.860  43.034   9.470
 3116POPC   GL141113  25.180  43.265   9.168
 3116POPC   GL241114  25.591  43.296   9.173
 3116POPC   C1A41115  25.196  43.149   8.724
 3116POPC   D2A41116  25.317  42.952   8.327
 3116POPC   C3A41117  25.004  42.973   8.017
 3116POPC   C4A41118  24.815  43.165   7.734
 3116POPC   C1B41119  25.502  43.549   8.804
 3116POPC   C2B41120  25.371  43.494   8.373
 3116POPC   C3B41121  25.344  43.339   7.946
 3116POPC   C4B41122  25.412  43.581   7.645
 3117POPC   NC341123  20.723  14.805   5.534
 3117POPC   PO441124  20.484  15.416   5.326
 3117POPC   GL141125  20.539  15.498   5.768
 3117POPC   GL241126  20.714  15.206   5.902
 3117POPC   C1A41127  20.546  15.597   6.219
 3117POPC   D2A41128  20.424  15.470   6.656
 3117POPC   C3A41129  20.630  15.538   7.078
 3117POPC   C4A41130  20.608  15.217   7.419
 3117POPC   C1B41131  20.757  15.180   6.360
 3117POPC   C2B41132  20.958  15.340   6.703
 3117POPC   C3B41133  20.747  15.060   6.943
 3117POPC   C4B41134  20.482  14.795   7.156
 3118POPC   NC341135  35.930  26.120   5.046
 3118POPC   PO441136  36.485  25.871   5.439
 3118POPC   GL141137  36.426  26.156   5.825
 3118POPC   GL241138  36.073  26.226   5.946
 3118POPC   C1A41139  36.446  26.412   6.204
 3118POPC   D2A41140  36.168  26.169   6.462
 3118POPC   C3A41141  36.186  26.251   6.870
 3118POPC   C4A41142  36.255  26.435   7.265
 3118POPC   C1B41143  35.726  26.066   6.169
 3118POPC   C2B41144  35.728  25.883   6.569
 3118POPC   C3B41145  35.698  26.117   6.943
 3118POPC   C4B41146  35.911  26.032   7.308
 3119POPC   NC341147  10.071  37.461   5.465
 3119POPC   PO441148   9.553  37.900   5.269
 3119POPC   GL141149   9.668  37.712   5.663
 3119POPC   GL241150   9.758  38.032   5.772
 3119POPC   C1A41151   9.931  37.641   6.067
 3119POPC   D2A41152   9.947  37.764   6.488
 3119POPC   C3A41153   9.840  37.490   6.871
 3119POPC   C4A41154   9.916  37.553   7.319
 3119POPC   C1B41155   9.744  38.184   6.189
 3119POPC   C2B41156   9.944  38.273   6.595
 3119POPC   C3B41157   9.949  37.996   6.953
 3119POPC   C4B41158   9.593  37.953   7.246
 3120POPC   NC341159   8.070  44.959   5.524
 3120POPC   PO441160   8.170   0.664   5.403
 3120POPC   GL141161   8.234   0.447   5.786
 3120POPC   GL241162   8.523   0.255   5.685
 3120POPC   C1A41163   8.165   0.400   6.257
 3120POPC   D2A41164   8.226   0.629   6.641
 3120POPC   C3A41165   8.135   0.503   7.068
 3120POPC   C4A41166   7.969   0.115   7.247
 3120POPC   C1B41167   8.625   0.217   6.104
 3120POPC   C2B41168   8.645   0.270   6.512
 3120POPC   C3B41169   8.600   0.363   6.914
 3120POPC   C4B41170   8.555   0.231   7.335
 3121POPC   NC341171  15.192  26.989   5.390
 3121POPC   PO441172  14.927  26.389   5.276
 3121POPC   GL141173  15.051  26.501   5.724
 3121POPC   GL241174  15.281  26.766   5.831
 3121POPC   C1A41175  14.963  26.587   6.182
 3121POPC   D2A41176  14.808  26.732   6.586
 3121POPC   C3A41177  15.001  26.753   7.007
 3121POPC   C4A41178  14.856  27.085   7.264
 3121POPC   C1B41179  15.480  26.576   6.205
 3121POPC   C2B41180  15.760  26.605   6.570
 3121POPC   C3B41181  15.606  26.648   7.008
 3121POPC   C4B41182  15.423  27.005   7.248
 3122POPC   NC341183  21.360  17.091   5.209
 3122POPC   PO441184  21.570  16.477   5.545
 3122POPC   GL141185  21.502  16.640   5.955
 3122POPC   GL241186  21.286  16.912   5.879
 3122POPC   C1A41187  21.606  16.984   6.268
 3122POPC   D2A41188  21.339  17.020   6.640
 3122POPC   C3A41189  21.513  16.886   7.034
 3122POPC   C4A41190  21.780  16.878   7.379
 3122POPC   C1B41191  21.028  16.622   6.164
 3122POPC   C2B41192  20.967  16.414   6.556
 3122POPC   C3B41193  21.144  16.548   6.935
 3122POPC   C4B41194  20.996  16.586   7.346
 3123POPC   NC341195   1.019  28.878   5.587
 3123POPC   PO441196   0.514  29.277   5.309
 3123POPC   GL141197   0.381  29.155   5.769
 3123POPC   GL241198   0.640  29.012   5.926
 3123POPC   C1A41199   0.187  29.207   6.182
 3123POPC   D2A41200   0.409  29.201   6.566
 3123POPC   C3A41201   0.224  29.275   6.968
 3123POPC   C4A41202   0.512  29.303   7.299
 3123POPC   C1B41203   0.440  28.762   6.221
 3123POPC   C2B41204   0.601  28.695   6.606
 3123POPC   C3B41205   0.603  28.913   6.969
 3123POPC   C4B41206   0.270  28.835   7.237
 3124POPC   NC341207  27.820  12.507   5.314
 3124POPC   PO441208  27.329  12.814   5.547
 3124POPC   GL141209  27.530  12.758   5.918
 3124POPC   GL241210  27.639  13.075   5.923
 3124POPC   C1A41211  27.384  12.852   6.346
 3124POPC   D2A41212  27.372  13.019   6.783
 3124POPC   C3A41213  27.526  12.789   7.153
 3124POPC   C4A41214  27.623  12.927   7.562
 3124POPC   C1B41215  27.875  13.020   6.312
 3124POPC   C2B41216  27.891  12.865   6.755
 3124POPC   C3B41217  27.941  13.079   7.171
 3124POPC   C4B41218  28.069  13.174   7.603
 3125POPC   NC341219  43.964  41.322   5.145
 3125POPC   PO441220  44.209  41.923   5.417
 3125POPC   GL141221  44.121  41.607   5.755
 3125POPC   GL241222  43.768  41.467   5.760
 3125POPC   C1A41223  44.161  41.406   6.177
 3125POPC   D2A41224  44.016  41.351   6.600
 3125POPC   C3A41225  44.098  41.706   6.873
 3125POPC   C4A41226  44.090  41.611   7.307
 3125POPC   C1B41227  43.654  41.327   6.199
 3125POPC   C2B41228  43.505  41.259   6.646
 3125POPC   C3B41229  43.662  41.465   7.056
 3125POPC   C4B41230  43.644  41.226   7.473
 3126POPC   NC341231   5.594   8.209   5.603
 3126POPC   PO441232   6.136   8.237   5.225
 3126POPC   GL141233   6.085   8.200   5.733
 3126POPC   GL241234   5.949   8.424   5.902
 3126POPC   C1A41235   5.989   8.006   6.172
 3126POPC   D2A41236   6.170   8.070   6.599
 3126POPC   C3A41237   5.836   8.142   6.904
 3126POPC   C4A41238   5.690   7.862   7.244
 3126POPC   C1B41239   5.598   8.439   6.197
 3126POPC   C2B41240   5.544   8.519   6.615
 3126POPC   C3B41241   5.667   8.614   7.042
 3126POPC   C4B41242   5.677   8.344   7.369
 3127POPC   NC341243  36.500  34.158   5.436
 3127POPC   PO441244  36.092  33.625   5.500
 3127POPC   GL141245  36.141  33.629   5.920
 3127POPC   GL241246  36.225  33.968   5.922
 3127POPC   C1A41247  36.096  33.596   6.380
 3127POPC   D2A41248  36.331  33.827   6.679
 3127POPC   C3A41249  36.250  33.854   7.108
 3127POPC   C4A41250  36.104  33.506   7.263
 3127POPC   C1B41251  35.934  34.065   6.308
 3127POPC   C2B41252  35.871  34.082   6.779
 3127POPC   C3B41253  35.938  34.234   7.216
 3127POPC   C4B41254  35.862  34.190   7.663
 3128POPC   NC341255   4.782   5.486   5.591
 3128POPC   PO441256   5.068   4.957   5.211
 3128POPC   GL141257   4.979   4.988   5.694
 3128POPC   GL241258   5.305   4.959   5.825
 3128POPC   C1A41259   4.925   4.814   6.157
 3128POPC   D2A41260   4.804   5.026   6.544
 3128POPC   C3A41261   4.879   4.827   6.930
 3128POPC   C4A41262   5.142   5.000   7.226
 3128POPC   C1B41263   5.195   5.241   6.185
 3128POPC   C2B41264   5.207   5.352   6.641
 3128POPC   C3B41265   5.512   5.188   6.957
 3128POPC   C4B41266   5.534   5.257   7.422
 3129POPC   NC341267   4.820   2.832   5.625
 3129POPC   PO441268   4.349   2.537   5.395
 3129POPC   GL141269   4.214   2.702   5.817
 3129POPC   GL241270   3.990   3.025   5.795
 3129POPC   C1A41271   4.420   2.661   6.258
 3129POPC   D2A41272   4.686   2.849   6.631
 3129POPC   C3A41273   4.524   2.802   7.066
 3129POPC   C4A41274   4.126   2.663   7.140
 3129POPC   C1B41275   4.052   2.996   6.247
 3129POPC   C2B41276   4.145   2.870   6.662
 3129POPC   C3B41277   4.180   3.162   6.998
 3129POPC   C4B41278   4.152   3.099   7.435
 3130POPC   NC341279  24.092  23.026   5.589
 3130POPC   PO441280  24.610  22.608   5.410
 3130POPC   GL141281  24.518  22.843   5.800
 3130POPC   GL241282  24.581  23.210   5.723
 3130POPC   C1A41283  24.233  22.842   6.200
 3130POPC   D2A41284  24.174  22.628   6.608
 3130POPC   C3A41285  24.476  22.711   6.950
 3130POPC   C4A41286  24.406  22.871   7.359
 3130POPC   C1B41287  24.628  23.207   6.185
 3130POPC   C2B41288  24.439  23.101   6.602
 3130POPC   C3B41289  24.499  23.231   7.013
 3130POPC   C4B41290  24.872  23.025   7.173
 3131POPC   NC341291  44.524  35.551   5.529
 3131POPC   PO441292  44.930  35.084   5.495
 3131POPC   GL141293  44.750  35.230   5.848
 3131POPC   GL241294   0.020  35.453   5.884
 3131POPC   C1A41295  44.528  35.078   6.195
 3131POPC   D2A41296  44.739  34.900   6.531
 3131POPC   C3A41297  44.614  35.075   6.904
 3131POPC   C4A41298  44.556  35.399   7.179
 3131POPC   C1B41299  44.969  35.298   6.300
 3131POPC   C2B41300   0.087  35.218   6.721
 3131POPC   C3B41301   0.032  35.507   7.058
 3131POPC   C4B41302  44.922  35.578   7.492
 3132POPC   NC341303  24.988  20.655   5.368
 3132POPC   PO441304  24.294  20.767   5.412
 3132POPC   GL141305  24.388  20.654   5.840
 3132POPC   GL241306  24.723  20.624   5.824
 3132POPC   C1A41307  24.530  20.767   6.266
 3132POPC   D2A41308  24.766  20.704   6.629
 3132POPC   C3A41309  24.553  20.863   6.989
 3132POPC   C4A41310  24.327  20.682   7.347
 3132POPC   C1B41311  24.808  20.339   6.212
 3132POPC   C2B41312  24.579  20.224   6.587
 3132POPC   C3B41313  24.682  20.360   6.996
 3132POPC   C4B41314  24.776  20.437   7.405
 3133POPC   NC341315   1.193  11.492   5.198
 3133POPC   PO441316   1.427  12.127   5.310
 3133POPC   GL141317   1.149  11.916   5.678
 3133POPC   GL241318   1.225  11.569   5.733
 3133POPC   C1A41319   0.992  12.056   6.110
 3133POPC   D2A41320   1.216  12.169   6.494
 3133POPC   C3A41321   1.064  12.388   6.885
 3133POPC   C4A41322   1.078  12.141   7.257
 3133POPC   C1B41323   1.435  11.789   6.117
 3133POPC   C2B41324   1.427  11.684   6.533
 3133POPC   C3B41325   1.352  11.880   6.908
 3133POPC   C4B41326   1.605  11.979   7.267
 3134POPC   NC341327  22.530   1.711   5.515
 3134POPC   PO441328  22.101   2.280   5.461
 3134POPC   GL141329  22.385   2.120   5.790
 3134POPC   GL241330  22.282   1.774   5.951
 3134POPC   C1A41331  22.467   2.144   6.240
 3134POPC   D2A41332  22.183   2.263   6.572
 3134POPC   C3A41333  22.099   1.925   6.847
 3134POPC   C4A41334  22.122   1.898   7.289
 3134POPC   C1B41335  22.078   1.781   6.354
 3134POPC   C2B41336  21.732   1.616   6.651
 3134POPC   C3B41337  21.736   1.622   7.127
 3134POPC   C4B41338  21.830   1.630   7.614
 3135POPC   NC341339   4.193  20.247   5.526
 3135POPC   PO441340   4.383  20.858   5.602
 3135POPC   GL141341   4.328  20.569   5.901
 3135POPC   GL241342   4.569  20.274   5.859
 3135POPC   C1A41343   4.428  20.636   6.329
 3135POPC   D2A41344   4.382  20.824   6.701
 3135POPC   C3A41345   4.715  20.854   6.980
 3135POPC   C4A41346   4.465  20.826   7.319
 3135POPC   C1B41347   4.249  20.172   6.192
 3135POPC   C2B41348   4.348  20.183   6.628
 3135POPC   C3B41349   4.358  20.402   7.033
 3135POPC   C4B41350   4.169  20.429   7.464
 3136POPC   NC341351  43.551  34.025   5.571
 3136POPC   PO441352  44.100  33.758   5.215
 3136POPC   GL141353  44.062  33.937   5.608
 3136POPC   GL241354  43.866  33.700   5.774
 3136POPC   C1A41355  44.190  33.956   6.039
 3136POPC   D2A41356  44.310  33.985   6.476
 3136POPC   C3A41357  44.176  33.776   6.856
 3136POPC   C4A41358  44.091  34.017   7.227
 3136POPC   C1B41359  43.690  33.811   6.170
 3136POPC   C2B41360  43.735  33.923   6.586
 3136POPC   C3B41361  43.663  33.852   6.992
 3136POPC   C4B41362  43.902  33.548   7.236
 3137POPC   NC341363  37.866   6.246   5.525
 3137POPC   PO441364  37.532   5.630   5.437
 3137POPC   GL141365  37.637   5.859   5.797
 3137POPC   GL241366  37.373   6.064   5.742
 3137POPC   C1A41367  37.839   5.808   6.216
 3137POPC   D2A41368  37.982   5.651   6.653
 3137POPC   C3A41369  37.766   5.747   7.021
 3137POPC   C4A41370  37.863   5.872   7.418
 3137POPC   C1B41371  37.262   6.146   6.143
 3137POPC   C2B41372  37.486   6.283   6.509
 3137POPC   C3B41373  37.443   6.215   6.988
 3137POPC   C4B41374  37.551   6.259   7.488
 3138POPC   NC341375   9.478  13.480   5.479
 3138POPC   PO441376  10.030  13.843   5.280
 3138POPC   GL141377  10.001  13.743   5.736
 3138POPC   GL241378   9.658  13.841   5.801
 3138POPC   C1A41379   9.854  13.512   6.129
 3138POPC   D2A41380   9.938  13.636   6.540
 3138POPC   C3A41381   9.591  13.638   6.799
 3138POPC   C4A41382   9.808  13.565   7.171
 3138POPC   C1B41383   9.598  13.965   6.242
 3138POPC   C2B41384   9.255  13.933   6.526
 3138POPC   C3B41385   9.183  13.994   6.941
 3138POPC   C4B41386   9.354  13.747   7.262
 3139POPC   NC341387   0.075   7.196   5.478
 3139POPC   PO441388   0.745   7.299   5.553
 3139POPC   GL141389   0.446   7.373   5.840
 3139POPC   GL241390   0.286   7.050   5.905
 3139POPC   C1A41391   0.591   7.347   6.248
 3139POPC   D2A41392   0.434   7.471   6.631
 3139POPC   C3A41393   0.659   7.222   6.890
 3139POPC   C4A41394   0.598   7.151   7.290
 3139POPC   C1B41395   0.094   7.289   6.245
 3139POPC   C2B41396  44.964   7.174   6.681
 3139POPC   C3B41397   0.123   7.231   7.103
 3139POPC   C4B41398   0.185   7.163   7.596
 3140POPC   NC341399   0.229  44.272   5.063
 3140POPC   PO441400   0.308  43.699   5.424
 3140POPC   GL141401   0.376  44.041   5.755
 3140POPC   GL241402   0.442  43.766   5.962
 3140POPC   C1A41403   0.447  44.186   6.217
 3140POPC   D2A41404   0.419  43.873   6.565
 3140POPC   C3A41405   0.326  44.037   6.986
 3140POPC   C4A41406   0.587  44.054   7.340
 3140POPC   C1B41407   0.164  43.475   6.173
 3140POPC   C2B41408   0.070  43.475   6.609
 3140POPC   C3B41409   0.301  43.505   7.032
 3140POPC   C4B41410   0.227  43.674   7.464
 3141POPC   NC341411  28.091  21.128   5.416
 3141POPC   PO441412  27.872  21.712   5.369
 3141POPC   GL141413  28.044  21.396   5.817
 3141POPC   GL241414  28.403  21.250   5.800
 3141POPC   C1A41415  28.225  21.450   6.257
 3141POPC   D2A41416  28.186  21.604   6.662
 3141POPC   C3A41417  28.312  21.304   6.914
 3141POPC   C4A41418  28.448  21.516   7.214
 3141POPC   C1B41419  28.690  21.280   6.132
 3141POPC   C2B41420  28.631  21.120   6.540
 3141POPC   C3B41421  28.823  21.268   6.897
 3141POPC   C4B41422  28.931  21.377   7.286
 3142POPC   NC341423   3.128  39.411   5.515
 3142POPC   PO441424   3.801  39.195   5.472
 3142POPC   GL141425   3.512  39.167   5.813
 3142POPC   GL241426   3.440  39.481   5.944
 3142POPC   C1A41427   3.640  39.031   6.222
 3142POPC   D2A41428   3.772  39.157   6.647
 3142POPC   C3A41429   3.567  39.259   7.025
 3142POPC   C4A41430   3.593  39.351   7.487
 3142POPC   C1B41431   3.399  39.436   6.393
 3142POPC   C2B41432   3.435  39.656   6.731
 3142POPC   C3B41433   3.179  39.576   7.109
 3142POPC   C4B41434   3.080  39.305   7.475
 3143POPC   NC341435  12.282  17.151   5.477
 3143POPC   PO441436  12.019  16.478   5.323
 3143POPC   GL141437  12.025  16.666   5.793
 3143POPC   GL241438  12.291  16.841   5.907
 3143POPC   C1A41439  11.912  16.898   6.243
 3143POPC   D2A41440  11.888  16.740   6.679
 3143POPC   C3A41441  12.101  16.771   7.076
 3143POPC   C4A41442  11.880  16.858   7.466
 3143POPC   C1B41443  12.208  16.493   6.258
 3143POPC   C2B41444  12.232  16.337   6.710
 3143POPC   C3B41445  12.263  16.206   7.145
 3143POPC   C4B41446  12.225  16.395   7.556
 3144POPC   NC341447  33.218  26.298   5.412
 3144POPC   PO441448  32.787  25.852   5.522
 3144POPC   GL141449  33.121  26.018   5.843
 3144POPC   GL241450  32.946  26.361   5.831
 3144POPC   C1A41451  33.259  25.965   6.310
 3144POPC   D2A41452  32.965  25.748   6.608
 3144POPC   C3A41453  32.856  25.950   7.003
 3144POPC   C4A41454  33.170  26.226   7.162
 3144POPC   C1B41455  32.854  26.230   6.236
 3144POPC   C2B41456  32.978  26.303   6.648
 3144POPC   C3B41457  32.757  26.473   7.003
 3144POPC   C4B41458  32.652  26.288   7.388
 3145POPC   NC341459   0.075   9.706   5.150
 3145POPC   PO441460   0.603   9.940   5.643
 3145POPC   GL141461   0.438   9.682   5.974
 3145POPC   GL241462   0.212   9.914   6.100
 3145POPC   C1A41463   0.430   9.617   6.434
 3145POPC   D2A41464   0.617   9.415   6.767
 3145POPC   C3A41465   0.326   9.560   7.104
 3145POPC   C4A41466   0.103   9.904   7.302
 3145POPC   C1B41467   0.553  10.095   6.274
 3145POPC   C2B41468   0.296  10.227   6.569
 3145POPC   C3B41469   0.388   9.992   6.866
 3145POPC   C4B41470   0.548  10.096   7.231
 3146POPC   NC341471  42.032   0.701   5.343
 3146POPC   PO441472  42.498   0.259   5.315
 3146POPC   GL141473  42.407   0.409   5.781
 3146POPC   GL241474  42.222   0.742   5.823
 3146POPC   C1A41475  42.518   0.477   6.260
 3146POPC   D2A41476  42.620   0.402   6.727
 3146POPC   C3A41477  42.243   0.220   6.895
 3146POPC   C4A41478  41.912   0.203   7.182
 3146POPC   C1B41479  42.172   0.878   6.242
 3146POPC   C2B41480  42.207   0.689   6.650
 3146POPC   C3B41481  42.319   0.696   7.103
 3146POPC   C4B41482  42.020   0.662   7.453
 3147POPC   NC341483  31.744  44.120   5.492
 3147POPC   PO441484  31.138  43.768   5.299
 3147POPC   GL141485  31.383  43.783   5.730
 3147POPC   GL241486  31.383  44.140   5.849
 3147POPC   C1A41487  31.581  43.823   6.191
 3147POPC   D2A41488  31.734  43.665   6.595
 3147POPC   C3A41489  31.452  43.676   6.936
 3147POPC   C4A41490  31.561  43.734   7.357
 3147POPC   C1B41491  31.631  44.332   6.194
 3147POPC   C2B41492  31.684  44.232   6.639
 3147POPC   C3B41493  31.580  44.162   7.070
 3147POPC   C4B41494  31.645  44.196   7.544
 3148POPC   NC341495  23.888  34.654   5.404
 3148POPC   PO441496  23.417  34.158   5.516
 3148POPC   GL141497  23.645  34.461   5.832
 3148POPC   GL241498  23.713  34.841   5.840
 3148POPC   C1A41499  23.905  34.528   6.211
 3148POPC   D2A41500  23.843  34.773   6.605
 3148POPC   C3A41501  23.873  34.589   7.027
 3148POPC   C4A41502  23.815  34.548   7.477
 3148POPC   C1B41503  23.455  34.772   6.214
 3148POPC   C2B41504  23.304  34.597   6.615
 3148POPC   C3B41505  23.226  34.902   6.950
 3148POPC   C4B41506  23.505  34.990   7.309
 3149POPC   NC341507  10.510  38.810   5.394
 3149POPC   PO441508  10.111  38.269   5.437
 3149POPC   GL141509  10.410  38.449   5.761
 3149POPC   GL241510  10.708  38.240   5.842
 3149POPC   C1A41511  10.540  38.586   6.171
 3149POPC   D2A41512  10.394  38.528   6.571
 3149POPC   C3A41513  10.586  38.670   6.925
 3149POPC   C4A41514  10.476  38.612   7.349
 3149POPC   C1B41515  10.782  38.068   6.247
 3149POPC   C2B41516  10.844  38.284   6.650
 3149POPC   C3B41517  10.949  38.302   7.085
 3149POPC   C4B41518  10.817  38.080   7.428
 3150POPC   NC341519  37.986   2.626   5.365
 3150POPC   PO441520  37.541   3.129   5.276
 3150POPC   GL141521  37.574   2.853   5.667
 3150POPC   GL241522  37.557   2.512   5.766
 3150POPC   C1A41523  37.672   2.906   6.131
 3150POPC   D2A41524  37.744   2.949   6.589
 3150POPC   C3A41525  37.502   2.966   6.981
 3150POPC   C4A41526  37.814   2.869   7.282
 3150POPC   C1B41527  37.597   2.394   6.205
 3150POPC   C2B41528  37.734   2.399   6.639
 3150POPC   C3B41529  37.555   2.452   7.044
 3150POPC   C4B41530  37.509   2.527   7.502
 3151POPC   NC341531  32.604  18.311   5.389
 3151POPC   PO441532  33.000  17.793   5.475
 3151POPC   GL141533  32.743  18.046   5.855
 3151POPC   GL241534  32.705  18.439   5.889
 3151POPC   C1A41535  32.701  18.188   6.329
 3151POPC   D2A41536  32.953  18.358   6.689
 3151POPC   C3A41537  32.968  18.157   7.083
 3151POPC   C4A41538  33.274  17.920   7.332
 3151POPC   C1B41539  32.646  18.703   6.298
 3151POPC   C2B41540  32.587  18.707   6.763
 3151POPC   C3B41541  32.919  18.710   7.098
 3151POPC   C4B41542  33.328  18.493   7.223
 3152POPC   NC341543   6.150  41.169   5.140
 3152POPC   PO441544   5.720  40.728   5.507
 3152POPC   GL141545   5.831  40.604   5.907
 3152POPC   GL241546   6.182  40.546   5.810
 3152POPC   C1A41547   5.732  40.659   6.358
 3152POPC   D2A41548   5.690  40.494   6.767
 3152POPC   C3A41549   5.735  40.846   7.010
 3152POPC   C4A41550   6.050  41.040   7.129
 3152POPC   C1B41551   6.245  40.594   6.247
 3152POPC   C2B41552   6.164  40.751   6.681
 3152POPC   C3B41553   6.140  40.541   7.089
 3152POPC   C4B41554   6.194  40.605   7.565
 3153POPC   NC341555  22.821  14.748   5.102
 3153POPC   PO441556  22.809  15.274   5.492
 3153POPC   GL141557  23.129  15.127   5.764
 3153POPC   GL241558  23.097  15.431   5.973
 3153POPC   C1A41559  23.077  14.971   6.193
 3153POPC   D2A41560  23.015  15.268   6.563
 3153POPC   C3A41561  22.975  15.088   6.980
 3153POPC   C4A41562  22.705  14.971   7.311
 3153POPC   C1B41563  22.689  15.487   6.229
 3153POPC   C2B41564  22.584  15.599   6.677
 3153POPC   C3B41565  22.971  15.612   6.969
 3153POPC   C4B41566  23.050  15.446   7.383
 3154POPC   NC341567  21.163  37.683   5.446
 3154POPC   PO441568  21.791  37.573   5.549
 3154POPC   GL141569  21.480  37.755   5.868
 3154POPC   GL241570  21.156  37.971   5.870
 3154POPC   C1A41571  21.477  37.747   6.316
 3154POPC   D2A41572  21.261  37.593   6.705
 3154POPC   C3A41573  21.546  37.467   7.041
 3154POPC   C4A41574  21.590  37.609   7.489
 3154POPC   C1B41575  21.232  38.209   6.248
 3154POPC   C2B41576  21.354  38.109   6.678
 3154POPC   C3B41577  21.424  37.952   7.096
 3154POPC   C4B41578  21.168  37.920   7.449
 3155POPC   NC341579  23.277   1.049   5.468
 3155POPC   PO441580  23.711   1.580   5.461
 3155POPC   GL141581  23.834   1.329   5.818
 3155POPC   GL241582  24.216   1.380   5.821
 3155POPC   C1A41583  23.679   1.193   6.259
 3155POPC   D2A41584  23.705   1.017   6.715
 3155POPC   C3A41585  23.721   1.134   7.219
 3155POPC   C4A41586  23.527   1.036   7.674
 3155POPC   C1B41587  24.056   1.521   6.224
 3155POPC   C2B41588  23.835   1.525   6.622
 3155POPC   C3B41589  24.058   1.410   6.952
 3155POPC   C4B41590  24.247   1.544   7.316
 3156POPC   NC341591  16.677   9.689   5.275
 3156POPC   PO441592  16.625  10.320   5.220
 3156POPC   GL141593  16.563  10.011   5.645
 3156POPC   GL241594  16.719   9.624   5.766
 3156POPC   C1A41595  16.448   9.912   6.092
 3156POPC   D2A41596  16.590  10.155   6.464
 3156POPC   C3A41597  16.882   9.955   6.754
 3156POPC   C4A41598  16.895   9.916   7.197
 3156POPC   C1B41599  16.889   9.671   6.191
 3156POPC   C2B41600  16.775   9.496   6.578
 3156POPC   C3B41601  16.936   9.442   6.982
 3156POPC   C4B41602  16.584   9.479   7.225
 3157POPC   NC341603  29.427  40.379   5.482
 3157POPC   PO441604  28.984  40.838   5.231
 3157POPC   GL141605  29.014  40.689   5.646
 3157POPC   GL241606  29.076  41.050   5.739
 3157POPC   C1A41607  29.074  40.646   6.112
 3157POPC   D2A41608  29.458  40.588   6.384
 3157POPC   C3A41609  29.374  40.569   6.825
 3157POPC   C4A41610  29.476  40.613   7.230
 3157POPC   C1B41611  29.263  41.135   6.154
 3157POPC   C2B41612  29.240  40.996   6.587
 3157POPC   C3B41613  29.098  40.983   7.023
 3157POPC   C4B41614  28.873  41.135   7.381
 3158POPC   NC341615  28.776  17.027   5.522
 3158POPC   PO441616  29.065  16.428   5.586
 3158POPC   GL141617  28.954  16.706   5.900
 3158POPC   GL241618  28.867  16.418   6.079
 3158POPC   C1A41619  29.023  16.993   6.257
 3158POPC   D2A41620  29.031  17.203   6.676
 3158POPC   C3A41621  29.256  16.966   7.007
 3158POPC   C4A41622  29.007  16.701   7.258
 3158POPC   C1B41623  29.243  16.242   6.309
 3158POPC   C2B41624  29.267  16.267   6.764
 3158POPC   C3B41625  29.355  16.349   7.186
 3158POPC   C4B41626  29.513  16.707   7.443
 3159POPC   NC341627  39.495  42.449   5.798
 3159POPC   PO441628  40.082  42.650   5.526
 3159POPC   GL141629  40.101  42.323   5.863
 3159POPC   GL241630  39.861  42.052   5.763
 3159POPC   C1A41631  40.229  42.330   6.318
 3159POPC   D2A41632  39.999  42.346   6.729
 3159POPC   C3A41633  40.121  42.627   7.065
 3159POPC   C4A41634  40.068  42.655   7.507
 3159POPC   C1B41635  39.913  41.941   6.216
 3159POPC   C2B41636  40.119  41.852   6.623
 3159POPC   C3B41637  39.995  41.952   7.059
 3159POPC   C4B41638  39.835  42.240   7.371
 3160POPC   NC341639  14.546  26.192   5.415
 3160POPC   PO441640  14.256  25.648   5.225
 3160POPC   GL141641  14.296  25.809   5.687
 3160POPC   GL241642  14.611  25.852   5.839
 3160POPC   C1A41643  14.231  25.773   6.192
 3160POPC   D2A41644  14.273  25.987   6.636
 3160POPC   C3A41645  14.366  25.833   7.078
 3160POPC   C4A41646  14.233  25.748   7.523
 3160POPC   C1B41647  14.660  26.127   6.227
 3160POPC   C2B41648  14.793  26.199   6.674
 3160POPC   C3B41649  14.622  26.317   7.079
 3160POPC   C4B41650  14.182  26.393   7.172
 3161POPC   NC341651  37.301  27.641   5.406
 3161POPC   PO441652  36.715  27.411   5.556
 3161POPC   GL141653  36.901  27.707   5.797
 3161POPC   GL241654  37.222  27.642   5.890
 3161POPC   C1A41655  36.839  27.689   6.229
 3161POPC   D2A41656  36.969  27.556   6.627
 3161POPC   C3A41657  36.797  27.755   7.008
 3161POPC   C4A41658  36.747  27.426   7.330
 3161POPC   C1B41659  37.362  27.634   6.277
 3161POPC   C2B41660  37.497  27.568   6.665
 3161POPC   C3B41661  37.254  27.487   7.047
 3161POPC   C4B41662  37.142  27.765   7.398
 3162POPC   NC341663  31.539   0.900   5.472
 3162POPC   PO441664  31.530   1.538   5.281
 3162POPC   GL141665  31.483   1.388   5.736
 3162POPC   GL241666  31.200   1.170   5.731
 3162POPC   C1A41667  31.557   1.126   6.152
 3162POPC   D2A41668  31.507   0.936   6.596
 3162POPC   C3A41669  31.443   1.293   6.921
 3162POPC   C4A41670  31.545   1.330   7.347
 3162POPC   C1B41671  31.079   1.338   6.128
 3162POPC   C2B41672  31.069   1.214   6.581
 3162POPC   C3B41673  31.116   0.919   6.947
 3162POPC   C4B41674  31.240   0.913   7.352
 3163POPC   NC341675  21.348  42.632   5.445
 3163POPC   PO441676  21.050  41.964   5.517
 3163POPC   GL141677  21.264  42.280   5.822
 3163POPC   GL241678  21.630  42.198   5.916
 3163POPC   C1A41679  21.296  42.390   6.267
 3163POPC   D2A41680  21.108  42.165   6.594
 3163POPC   C3A41681  21.190  42.342   6.972
 3163POPC   C4A41682  21.356  42.152   7.340
 3163POPC   C1B41683  21.829  42.264   6.320
 3163POPC   C2B41684  21.658  42.279   6.744
 3163POPC   C3B41685  21.640  42.502   7.125
 3163POPC   C4B41686  21.741  42.530   7.576
 3164POPC   NC341687  16.793   8.654   5.318
 3164POPC   PO441688  16.783   9.257   5.346
 3164POPC   GL141689  16.721   9.030   5.753
 3164POPC   GL241690  16.379   8.953   5.915
 3164POPC   C1A41691  16.736   9.158   6.195
 3164POPC   D2A41692  16.833   8.998   6.608
 3164POPC   C3A41693  16.707   8.992   7.038
 3164POPC   C4A41694  16.943   9.080   7.407
 3164POPC   C1B41695  16.423   8.770   6.324
 3164POPC   C2B41696  16.500   8.610   6.727
 3164POPC   C3B41697  16.582   8.537   7.203
 3164POPC   C4B41698  16.549   8.752   7.602
 3165POPC   NC341699   0.242  12.158   5.558
 3165POPC   PO441700   0.796  11.616   5.437
 3165POPC   GL141701   0.581  11.779   5.840
 3165POPC   GL241702   0.192  11.814   5.913
 3165POPC   C1A41703   0.533  11.908   6.268
 3165POPC   D2A41704   0.692  12.221   6.550
 3165POPC   C3A41705   0.685  12.047   6.934
 3165POPC   C4A41706   0.541  12.094   7.344
 3165POPC   C1B41707   0.084  12.144   6.202
 3165POPC   C2B41708   0.186  12.099   6.615
 3165POPC   C3B41709   0.178  12.177   7.022
 3165POPC   C4B41710   0.095  12.558   7.248
 3166POPC   NC341711  24.087   3.433   5.578
 3166POPC   PO441712  24.672   3.247   5.431
 3166POPC   GL141713  24.547   3.535   5.767
 3166POPC   GL241714  24.715   3.847   5.865
 3166POPC   C1A41715  24.465   3.415   6.184
 3166POPC   D2A41716  24.250   3.460   6.548
 3166POPC   C3A41717  24.390   3.279   6.903
 3166POPC   C4A41718  24.338   3.309   7.323
 3166POPC   C1B41719  24.549   3.927   6.307
 3166POPC   C2B41720  24.593   3.803   6.747
 3166POPC   C3B41721  24.605   3.724   7.183
 3166POPC   C4B41722  24.901   3.682   7.518
 3167POPC   NC341723  35.956  14.986   5.450
 3167POPC   PO441724  36.504  15.305   5.346
 3167POPC   GL141725  36.407  15.110   5.726
 3167POPC   GL241726  36.156  15.366   5.765
 3167POPC   C1A41727  36.286  15.010   6.165
 3167POPC   D2A41728  36.390  14.924   6.612
 3167POPC   C3A41729  36.135  14.831   6.953
 3167POPC   C4A41730  36.356  15.036   7.307
 3167POPC   C1B41731  35.888  15.325   6.111
 3167POPC   C2B41732  35.913  15.194   6.542
 3167POPC   C3B41733  36.047  15.348   6.951
 3167POPC   C4B41734  35.889  15.244   7.348
 3168POPC   NC341735  13.777  18.412   5.304
 3168POPC   PO441736  13.190  18.274   5.446
 3168POPC   GL141737  13.534  18.427   5.769
 3168POPC   GL241738  13.912  18.314   5.785
 3168POPC   C1A41739  13.655  18.487   6.222
 3168POPC   D2A41740  13.588  18.238   6.597
 3168POPC   C3A41741  13.696  18.273   7.034
 3168POPC   C4A41742  13.477  18.333   7.448
 3168POPC   C1B41743  13.977  18.061   6.176
 3168POPC   C2B41744  14.067  18.038   6.617
 3168POPC   C3B41745  14.137  18.010   7.062
 3168POPC   C4B41746  13.989  18.206   7.466
 3169POPC   NC341747  11.923   2.812   5.344
 3169POPC   PO441748  12.511   2.385   5.296
 3169POPC   GL141749  12.282   2.589   5.661
 3169POPC   GL241750  11.906   2.480   5.744
 3169POPC   C1A41751  12.283   2.786   6.085
 3169POPC   D2A41752  12.451   2.871   6.521
 3169POPC   C3A41753  12.290   2.698   6.876
 3169POPC   C4A41754  12.424   2.665   7.287
 3169POPC   C1B41755  11.770   2.748   6.104
 3169POPC   C2B41756  11.961   2.961   6.473
 3169POPC   C3B41757  11.996   3.116   6.891
 3169POPC   C4B41758  11.926   2.846   7.243
 3170POPC   NC341759  23.600  31.622   5.645
 3170POPC   PO441760  24.077  31.207   5.412
 3170POPC   GL141761  23.922  31.261   5.836
 3170POPC   GL241762  23.540  31.168   5.857
 3170POPC   C1A41763  23.891  31.566   6.206
 3170POPC   D2A41764  23.637  31.630   6.573
 3170POPC   C3A41765  23.810  31.474   6.952
 3170POPC   C4A41766  23.714  31.675   7.320
 3170POPC   C1B41767  23.671  31.123   6.253
 3170POPC   C2B41768  23.624  31.104   6.636
 3170POPC   C3B41769  23.504  31.020   7.026
 3170POPC   C4B41770  23.646  31.165   7.379
 3171POPC   NC341771  15.396  10.931   5.558
 3171POPC   PO441772  15.501  11.593   5.292
 3171POPC   GL141773  15.299  11.476   5.712
 3171POPC   GL241774  14.927  11.523   5.727
 3171POPC   C1A41775  15.324  11.309   6.166
 3171POPC   D2A41776  15.431  11.305   6.622
 3171POPC   C3A41777  15.181  11.268   7.032
 3171POPC   C4A41778  15.268  11.087   7.430
 3171POPC   C1B41779  14.887  11.603   6.171
 3171POPC   C2B41780  14.921  11.453   6.595
 3171POPC   C3B41781  14.926  11.690   6.983
 3171POPC   C4B41782  15.023  11.534   7.457
 3172POPC   NC341783  34.049  27.553   5.332
 3172POPC   PO441784  33.442  27.347   5.328
 3172POPC   GL141785  33.716  27.251   5.742
 3172POPC   GL241786  34.007  27.504   5.837
 3172POPC   C1A41787  33.817  27.216   6.214
 3172POPC   D2A41788  34.069  27.352   6.604
 3172POPC   C3A41789  33.864  27.503   6.994
 3172POPC   C4A41790  33.593  27.287   7.292
 3172POPC   C1B41791  33.984  27.735   6.243
 3172POPC   C2B41792  33.919  27.925   6.668
 3172POPC   C3B41793  34.105  27.955   7.090
 3172POPC   C4B41794  33.963  27.766   7.485
 3173POPC   NC341795  12.913  38.989   5.380
 3173POPC   PO441796  12.899  39.675   5.252
 3173POPC   GL141797  12.931  39.571   5.723
 3173POPC   GL241798  12.792  39.248   5.802
 3173POPC   C1A41799  12.888  39.561   6.197
 3173POPC   D2A41800  12.776  39.344   6.597
 3173POPC   C3A41801  12.939  39.429   7.017
 3173POPC   C4A41802  12.740  39.590   7.396
 3173POPC   C1B41803  12.912  39.049   6.183
 3173POPC   C2B41804  12.807  38.819   6.538
 3173POPC   C3B41805  12.695  38.958   6.938
 3173POPC   C4B41806  12.443  39.228   7.167
 3174POPC   NC341807  37.279   5.235   5.436
 3174POPC   PO441808  36.591   5.293   5.482
 3174POPC   GL141809  36.606   4.951   5.772
 3174POPC   GL241810  36.985   4.942   5.793
 3174POPC   C1A41811  36.663   4.780   6.180
 3174POPC   D2A41812  36.858   4.939   6.538
 3174POPC   C3A41813  36.636   5.168   6.851
 3174POPC   C4A41814  36.677   5.150   7.279
 3174POPC   C1B41815  36.913   5.275   6.123
 3174POPC   C2B41816  37.124   5.368   6.542
 3174POPC   C3B41817  37.159   5.196   6.989
 3174POPC   C4B41818  37.420   5.338   7.352
 3175POPC   NC341819   4.702  14.115   5.496
 3175POPC   PO441820   5.167  14.578   5.431
 3175POPC   GL141821   5.228  14.394   5.840
 3175POPC   GL241822   4.875  14.478   5.875
 3175POPC   C1A41823   5.428  14.232   6.272
 3175POPC   D2A41824   5.378  14.483   6.698
 3175POPC   C3A41825   5.472  14.482   7.160
 3175POPC   C4A41826   5.349  14.284   7.555
 3175POPC   C1B41827   5.033  14.539   6.297
 3175POPC   C2B41828   4.834  14.528   6.678
 3175POPC   C3B41829   4.949  14.412   7.086
 3175POPC   C4B41830   4.885  14.420   7.510
 3176POPC   NC341831  17.008  10.304   5.508
 3176POPC   PO441832  17.512  10.738   5.404
 3176POPC   GL141833  17.682  10.570   5.799
 3176POPC   GL241834  17.743  10.226   5.800
 3176POPC   C1A41835  17.487  10.442   6.202
 3176POPC   D2A41836  17.593  10.442   6.644
 3176POPC   C3A41837  17.286  10.226   6.923
 3176POPC   C4A41838  17.095  10.388   7.305
 3176POPC   C1B41839  17.993  10.361   6.201
 3176POPC   C2B41840  18.008  10.112   6.588
 3176POPC   C3B41841  17.801  10.135   7.002
 3176POPC   C4B41842  17.601  10.456   7.247
 3177POPC   NC341843  36.397  39.573   5.501
 3177POPC   PO441844  35.948  39.008   5.545
 3177POPC   GL141845  36.118  39.295   5.838
 3177POPC   GL241846  36.465  39.201   5.923
 3177POPC   C1A41847  36.067  39.316   6.255
 3177POPC   D2A41848  36.069  39.096   6.594
 3177POPC   C3A41849  36.177  39.344   6.940
 3177POPC   C4A41850  36.168  39.185   7.334
 3177POPC   C1B41851  36.528  39.528   6.253
 3177POPC   C2B41852  36.482  39.724   6.705
 3177POPC   C3B41853  36.453  39.713   7.180
 3177POPC   C4B41854  36.523  39.441   7.563
 3178POPC   NC341855  43.337  24.989   5.677
 3178POPC   PO441856  43.891  25.120   5.289
 3178POPC   GL141857  43.862  25.190   5.731
 3178POPC   GL241858  43.615  25.452   5.776
 3178POPC   C1A41859  43.737  25.137   6.170
 3178POPC   D2A41860  43.580  25.236   6.564
 3178POPC   C3A41861  43.854  25.167   6.906
 3178POPC   C4A41862  43.686  25.129   7.301
 3178POPC   C1B41863  43.826  25.657   6.162
 3178POPC   C2B41864  43.909  25.609   6.626
 3178POPC   C3B41865  43.924  25.655   7.073
 3178POPC   C4B41866  43.986  25.727   7.504
 3179POPC   NC341867  27.791  33.994   5.181
 3179POPC   PO441868  27.432  33.589   5.570
 3179POPC   GL141869  27.610  33.976   5.706
 3179POPC   GL241870  27.789  33.828   5.990
 3179POPC   C1A41871  27.509  34.213   6.076
 3179POPC   D2A41872  27.525  33.892   6.429
 3179POPC   C3A41873  27.517  33.914   6.872
 3179POPC   C4A41874  27.422  33.583   7.192
 3179POPC   C1B41875  28.042  33.642   6.289
 3179POPC   C2B41876  27.868  33.575   6.654
 3179POPC   C3B41877  27.930  33.658   7.062
 3179POPC   C4B41878  28.207  33.416   7.307
 3180POPC   NC341879  15.444  25.425   5.526
 3180POPC   PO441880  14.971  24.953   5.288
 3180POPC   GL141881  15.103  25.065   5.724
 3180POPC   GL241882  15.461  25.007   5.823
 3180POPC   C1A41883  15.059  25.135   6.193
 3180POPC   D2A41884  14.878  25.082   6.640
 3180POPC   C3A41885  14.950  25.435   6.921
 3180POPC   C4A41886  15.057  25.478   7.374
 3180POPC   C1B41887  15.588  25.196   6.224
 3180POPC   C2B41888  15.374  25.281   6.603
 3180POPC   C3B41889  15.404  25.241   7.034
 3180POPC   C4B41890  15.491  24.867   7.218
 3181POPC   NC341891   2.237  28.527   5.538
 3181POPC   PO441892   1.540  28.842   5.500
 3181POPC   GL141893   1.724  28.551   5.795
 3181POPC   GL241894   1.605  28.195   5.847
 3181POPC   C1A41895   1.869  28.475   6.205
 3181POPC   D2A41896   2.043  28.236   6.518
 3181POPC   C3A41897   1.958  28.443   6.896
 3181POPC   C4A41898   2.248  28.395   7.219
 3181POPC   C1B41899   1.622  27.996   6.231
 3181POPC   C2B41900   1.681  27.787   6.611
 3181POPC   C3B41901   1.924  27.943   6.920
 3181POPC   C4B41902   1.836  28.113   7.287
 3182POPC   NC341903  35.598  13.795   5.389
 3182POPC   PO441904  35.024  13.440   5.508
 3182POPC   GL141905  35.284  13.725   5.793
 3182POPC   GL241906  35.585  13.550   5.949
 3182POPC   C1A41907  35.388  13.924   6.196
 3182POPC   D2A41908  35.588  13.591   6.456
 3182POPC   C3A41909  35.562  13.528   6.887
 3182POPC   C4A41910  35.387  13.620   7.278
 3182POPC   C1B41911  35.353  13.201   6.226
 3182POPC   C2B41912  35.133  13.240   6.644
 3182POPC   C3B41913  35.030  13.300   7.108
 3182POPC   C4B41914  35.139  13.300   7.596
 3183POPC   NC341915  22.527  38.804   5.504
 3183POPC   PO441916  22.018  39.325   5.406
 3183POPC   GL141917  21.966  39.264   5.838
 3183POPC   GL241918  22.197  38.992   5.849
 3183POPC   C1A41919  22.193  39.365   6.241
 3183POPC   D2A41920  22.082  39.467   6.636
 3183POPC   C3A41921  22.356  39.545   6.945
 3183POPC   C4A41922  22.337  39.382   7.323
 3183POPC   C1B41923  21.965  38.902   6.199
 3183POPC   C2B41924  22.129  38.961   6.598
 3183POPC   C3B41925  22.072  39.064   6.984
 3183POPC   C4B41926  22.147  38.882   7.355
 3184POPC   NC341927   7.308   5.417   5.313
 3184POPC   PO441928   7.768   5.016   5.589
 3184POPC   GL141929   7.422   5.109   5.816
 3184POPC   GL241930   7.599   5.411   5.848
 3184POPC   C1A41931   7.320   4.924   6.230
 3184POPC   D2A41932   7.497   5.070   6.621
 3184POPC   C3A41933   7.573   4.867   6.974
 3184POPC   C4A41934   7.237   4.809   7.180
 3184POPC   C1B41935   7.778   5.158   6.199
 3184POPC   C2B41936   7.950   5.275   6.558
 3184POPC   C3B41937   7.782   5.366   6.970
 3184POPC   C4B41938   7.664   5.430   7.420
 3185POPC   NC341939  28.508  12.262   5.466
 3185POPC   PO441940  27.889  11.931   5.419
 3185POPC   GL141941  28.176  11.985   5.813
 3185POPC   GL241942  28.414  12.265   5.941
 3185POPC   C1A41943  28.185  12.008   6.284
 3185POPC   D2A41944  28.337  12.171   6.662
 3185POPC   C3A41945  28.203  11.993   7.059
 3185POPC   C4A41946  28.384  11.914   7.455
 3185POPC   C1B41947  28.769  12.372   6.198
 3185POPC   C2B41948  28.853  12.157   6.569
 3185POPC   C3B41949  28.736  12.325   6.933
 3185POPC   C4B41950  28.627  12.348   7.314
 3186POPC   NC341951  25.444  29.527   5.340
 3186POPC   PO441952  25.273  30.159   5.429
 3186POPC   GL141953  25.333  30.339   5.842
 3186POPC   GL241954  25.041  30.182   5.952
 3186POPC   C1A41955  25.475  30.129   6.227
 3186POPC   D2A41956  25.512  29.815   6.544
 3186POPC   C3A41957  25.471  29.993   6.949
 3186POPC   C4A41958  25.488  29.827   7.324
 3186POPC   C1B41959  24.866  30.098   6.361
 3186POPC   C2B41960  24.990  29.904   6.748
 3186POPC   C3B41961  25.005  29.865   7.179
 3186POPC   C4B41962  25.120  30.146   7.492
 3187POPC   NC341963  13.018   2.277   5.331
 3187POPC   PO441964  12.713   1.703   5.459
 3187POPC   GL141965  12.710   2.057   5.715
 3187POPC   GL241966  13.041   2.031   5.795
 3187POPC   C1A41967  12.717   2.028   6.197
 3187POPC   D2A41968  12.992   1.988   6.568
 3187POPC   C3A41969  12.951   2.154   6.984
 3187POPC   C4A41970  12.909   2.511   7.221
 3187POPC   C1B41971  13.211   1.767   6.142
 3187POPC   C2B41972  13.376   1.654   6.567
 3187POPC   C3B41973  13.173   1.685   6.979
 3187POPC   C4B41974  13.272   1.890   7.369
 3188POPC   NC341975  24.628   5.428   5.214
 3188POPC   PO441976  24.533   4.868   5.613
 3188POPC   GL141977  24.467   5.012   6.019
 3188POPC   GL241978  24.262   5.283   5.922
 3188POPC   C1A41979  24.449   5.002   6.436
 3188POPC   D2A41980  24.599   5.120   6.777
 3188POPC   C3A41981  24.450   4.945   7.135
 3188POPC   C4A41982  24.595   5.003   7.545
 3188POPC   C1B41983  24.066   5.308   6.265
 3188POPC   C2B41984  24.221   5.458   6.626
 3188POPC   C3B41985  24.214   5.391   7.028
 3188POPC   C4B41986  23.915   5.506   7.267
 3189POPC   NC341987  19.094  15.379   5.497
 3189POPC   PO441988  19.291  14.840   5.143
 3189POPC   GL141989  18.996  14.879   5.619
 3189POPC   GL241990  19.041  15.116   5.935
 3189POPC   C1A41991  18.774  14.719   6.048
 3189POPC   D2A41992  18.971  14.840   6.475
 3189POPC   C3A41993  18.912  15.059   6.872
 3189POPC   C4A41994  19.200  15.145   7.182
 3189POPC   C1B41995  18.978  15.381   6.316
 3189POPC   C2B41996  19.270  15.666   6.494
 3189POPC   C3B41997  19.420  15.650   6.903
 3189POPC   C4B41998  19.494  15.508   7.325
 3190POPC   NC341999  38.985  31.884   5.514
 3190POPC   PO442000  38.932  32.607   5.580
 3190POPC   GL142001  39.153  32.303   5.848
 3190POPC   GL242002  39.519  32.334   5.871
 3190POPC   C1A42003  39.281  32.033   6.216
 3190POPC   D2A42004  39.459  31.841   6.604
 3190POPC   C3A42005  39.279  32.041   6.981
 3190POPC   C4A42006  38.960  32.124   7.268
 3190POPC   C1B42007  39.406  32.557   6.256
 3190POPC   C2B42008  39.276  32.713   6.665
 3190POPC   C3B42009  39.205  32.560   7.079
 3190POPC   C4B42010  39.580  32.439   7.216
 3191POPC   NC342011  43.260  43.579   5.548
 3191POPC   PO442012  42.892  44.126   5.367
 3191POPC   GL142013  42.823  43.842   5.747
 3191POPC   GL242014  43.153  43.822   5.970
 3191POPC   C1A42015  42.740  43.977   6.199
 3191POPC   D2A42016  43.012  44.023   6.569
 3191POPC   C3A42017  42.789  43.973   6.973
 3191POPC   C4A42018  42.956  43.892   7.362
 3191POPC   C1B42019  43.452  43.746   6.325
 3191POPC   C2B42020  43.584  43.855   6.744
 3191POPC   C3B42021  43.399  43.807   7.123
 3191POPC   C4B42022  43.392  43.586   7.487
 3192POPC   NC342023  41.931   9.251   5.361
 3192POPC   PO442024  41.484   8.812   5.263
 3192POPC   GL142025  41.539   8.878   5.719
 3192POPC   GL242026  41.608   9.242   5.770
 3192POPC   C1A42027  41.633   8.931   6.182
 3192POPC   D2A42028  41.582   8.709   6.568
 3192POPC   C3A42029  41.824   8.650   6.971
 3192POPC   C4A42030  41.548   8.868   7.236
 3192POPC   C1B42031  41.470   9.446   6.174
 3192POPC   C2B42032  41.566   9.556   6.610
 3192POPC   C3B42033  41.543   9.412   7.053
 3192POPC   C4B42034  41.525   9.285   7.503
 3193POPC   NC342035  35.504  30.195   5.531
 3193POPC   PO442036  35.162  29.728   5.546
 3193POPC   GL142037  35.233  29.923   5.920
 3193POPC   GL242038  35.589  30.005   5.994
 3193POPC   C1A42039  35.053  29.867   6.308
 3193POPC   D2A42040  35.011  30.029   6.725
 3193POPC   C3A42041  35.137  29.759   7.076
 3193POPC   C4A42042  35.195  29.932   7.504
 3193POPC   C1B42043  35.542  29.970   6.430
 3193POPC   C2B42044  35.673  29.763   6.812
 3193POPC   C3B42045  35.612  29.862   7.230
 3193POPC   C4B42046  35.701  30.100   7.593
 3194POPC   NC342047  15.552  21.471   5.423
 3194POPC   PO442048  14.879  21.176   5.323
 3194POPC   GL142049  15.077  21.274   5.718
 3194POPC   GL242050  15.116  21.620   5.739
 3194POPC   C1A42051  15.332  21.269   6.115
 3194POPC   D2A42052  15.292  21.002   6.499
 3194POPC   C3A42053  15.355  21.156   6.900
 3194POPC   C4A42054  15.210  21.328   7.250
 3194POPC   C1B42055  15.050  21.687   6.202
 3194POPC   C2B42056  15.036  21.490   6.639
 3194POPC   C3B42057  14.899  21.662   7.074
 3194POPC   C4B42058  14.948  21.599   7.588
 3195POPC   NC342059  21.223   7.307   5.469
 3195POPC   PO442060  21.724   7.016   5.779
 3195POPC   GL142061  21.549   7.353   6.004
 3195POPC   GL242062  21.195   7.461   5.955
 3195POPC   C1A42063  21.475   7.482   6.435
 3195POPC   D2A42064  21.711   7.512   6.836
 3195POPC   C3A42065  21.566   7.301   7.193
 3195POPC   C4A42066  21.717   7.435   7.578
 3195POPC   C1B42067  21.102   7.800   6.255
 3195POPC   C2B42068  21.046   7.723   6.712
 3195POPC   C3B42069  21.209   7.658   7.131
 3195POPC   C4B42070  21.024   7.632   7.555
 3196POPC   NC342071   1.575  22.416   5.331
 3196POPC   PO442072   1.005  22.081   5.274
 3196POPC   GL142073   1.202  22.167   5.659
 3196POPC   GL242074   0.937  21.985   5.816
 3196POPC   C1A42075   1.314  22.184   6.094
 3196POPC   D2A42076   1.084  22.028   6.444
 3196POPC   C3A42077   1.262  22.118   6.845
 3196POPC   C4A42078   1.142  22.092   7.273
 3196POPC   C1B42079   0.830  22.370   6.115
 3196POPC   C2B42080   0.962  22.496   6.557
 3196POPC   C3B42081   0.903  22.458   6.998
 3196POPC   C4B42082   0.968  22.755   7.282
 3197POPC   NC342083  30.826  44.169   5.221
 3197POPC   PO442084  30.518  43.582   5.395
 3197POPC   GL142085  30.678  43.737   5.790
 3197POPC   GL242086  30.889  44.031   5.738
 3197POPC   C1A42087  30.521  43.805   6.223
 3197POPC   D2A42088  30.722  43.671   6.603
 3197POPC   C3A42089  30.541  43.865   6.936
 3197POPC   C4A42090  30.553  44.040   7.350
 3197POPC   C1B42091  31.040  43.870   6.153
 3197POPC   C2B42092  31.225  43.998   6.551
 3197POPC   C3B42093  31.068  44.153   6.944
 3197POPC   C4B42094  31.045  43.887   7.276
 3198POPC   NC342095  25.215  42.720   5.583
 3198POPC   PO442096  24.925  43.390   5.389
 3198POPC   GL142097  25.047  43.182   5.772
 3198POPC   GL242098  25.291  43.401   5.964
 3198POPC   C1A42099  24.952  43.089   6.219
 3198POPC   D2A42100  25.193  42.973   6.619
 3198POPC   C3A42101  25.060  43.110   7.026
 3198POPC   C4A42102  25.207  43.017   7.462
 3198POPC   C1B42103  25.475  43.299   6.340
 3198POPC   C2B42104  25.471  43.401   6.760
 3198POPC   C3B42105  25.477  43.391   7.171
 3198POPC   C4B42106  25.689  43.176   7.468
 3199POPC   NC342107  43.887  34.160   5.138
 3199POPC   PO442108  43.535  34.510   5.584
 3199POPC   GL142109  43.877  34.377   5.799
 3199POPC   GL242110  44.084  34.660   5.811
 3199POPC   C1A42111  43.861  34.289   6.224
 3199POPC   D2A42112  44.014  34.411   6.603
 3199POPC   C3A42113  43.729  34.674   6.798
 3199POPC   C4A42114  43.753  34.441   7.168
 3199POPC   C1B42115  43.970  34.796   6.213
 3199POPC   C2B42116  44.217  34.890   6.560
 3199POPC   C3B42117  44.187  34.778   6.972
 3199POPC   C4B42118  43.877  34.913   7.263
 3200POPC   NC342119   5.354  13.485   5.248
 3200POPC   PO442120   4.787  13.660   5.391
 3200POPC   GL142121   5.085  13.561   5.716
 3200POPC   GL242122   5.070  13.896   5.829
 3200POPC   C1A42123   5.152  13.461   6.163
 3200POPC   D2A42124   4.911  13.320   6.519
 3200POPC   C3A42125   4.968  13.550   6.886
 3200POPC   C4A42126   5.315  13.553   7.128
 3200POPC   C1B42127   4.886  14.059   6.199
 3200POPC   C2B42128   5.051  14.070   6.612
 3200POPC   C3B42129   5.271  14.034   6.995
 3200POPC   C4B42130   4.956  13.921   7.294
 3201POPC   NC342131  37.787  32.747   5.196
 3201POPC   PO442132  37.395  33.222   5.450
 3201POPC   GL142133  37.782  33.188   5.685
 3201POPC   GL242134  37.939  32.850   5.782
 3201POPC   C1A42135  37.858  33.251   6.112
 3201POPC   D2A42136  37.703  33.276   6.524
 3201POPC   C3A42137  37.897  33.080   6.866
 3201POPC   C4A42138  37.841  33.096   7.273
 3201POPC   C1B42139  37.767  32.755   6.180
 3201POPC   C2B42140  37.601  32.781   6.574
 3201POPC   C3B42141  37.597  32.703   7.022
 3201POPC   C4B42142  37.508  32.761   7.489
 3202POPC   NC342143  21.451  32.462   5.419
 3202POPC   PO442144  21.346  31.802   5.593
 3202POPC   GL142145  21.465  32.122   5.861
 3202POPC   GL242146  21.365  32.473   5.922
 3202POPC   C1A42147  21.386  32.052   6.284
 3202POPC   D2A42148  21.280  32.122   6.687
 3202POPC   C3A42149  21.516  32.040   7.055
 3202POPC   C4A42150  21.319  32.010   7.493
 3202POPC   C1B42151  21.584  32.565   6.301
 3202POPC   C2B42152  21.725  32.388   6.684
 3202POPC   C3B42153  21.419  32.538   6.944
 3202POPC   C4B42154  21.283  32.665   7.296
 3203POPC   NC342155  20.843  23.602   5.390
 3203POPC   PO442156  20.229  23.600   5.496
 3203POPC   GL142157  20.549  23.718   5.820
 3203POPC   GL242158  20.904  23.538   5.883
 3203POPC   C1A42159  20.511  24.032   6.168
 3203POPC   D2A42160  20.427  23.907   6.593
 3203POPC   C3A42161  20.347  23.666   6.946
 3203POPC   C4A42162  20.530  23.866   7.286
 3203POPC   C1B42163  20.739  23.599   6.289
 3203POPC   C2B42164  20.761  23.528   6.686
 3203POPC   C3B42165  20.883  23.530   7.092
 3203POPC   C4B42166  20.958  23.423   7.549
 3204POPC   NC342167  28.598  40.937   5.442
 3204POPC   PO442168  28.152  40.558   5.577
 3204POPC   GL142169  28.489  40.602   5.885
 3204POPC   GL242170  28.643  40.869   5.938
 3204POPC   C1A42171  28.549  40.585   6.365
 3204POPC   D2A42172  28.249  40.748   6.705
 3204POPC   C3A42173  28.093  40.803   7.170
 3204POPC   C4A42174  28.136  40.524   7.563
 3204POPC   C1B42175  28.744  41.097   6.252
 3204POPC   C2B42176  28.743  40.967   6.659
 3204POPC   C3B42177  28.684  40.675   7.000
 3204POPC   C4B42178  28.541  40.760   7.415
 3205POPC   NC342179  41.256   1.917   5.181
 3205POPC   PO442180  41.821   2.208   5.275
 3205POPC   GL142181  41.640   2.090   5.763
 3205POPC   GL242182  41.277   2.062   5.818
 3205POPC   C1A42183  41.610   2.263   6.219
 3205POPC   D2A42184  41.590   2.350   6.688
 3205POPC   C3A42185  41.855   2.242   7.067
 3205POPC   C4A42186  41.812   1.986   7.456
 3205POPC   C1B42187  41.389   1.806   6.204
 3205POPC   C2B42188  41.329   1.906   6.631
 3205POPC   C3B42189  41.512   1.863   7.047
 3205POPC   C4B42190  41.311   1.817   7.456
 3206POPC   NC342191  27.616  10.902   5.394
 3206POPC   PO442192  27.409  10.217   5.480
 3206POPC   GL142193  27.484  10.471   5.849
 3206POPC   GL242194  27.464  10.832   5.857
 3206POPC   C1A42195  27.810  10.607   6.136
 3206POPC   D2A42196  27.756  10.834   6.479
 3206POPC   C3A42197  27.856  10.629   6.869
 3206POPC   C4A42198  27.973  10.752   7.263
 3206POPC   C1B42199  27.286  10.765   6.229
 3206POPC   C2B42200  27.297  11.017   6.550
 3206POPC   C3B42201  27.408  10.878   6.910
 3206POPC   C4B42202  27.493  10.687   7.271
 3207POPC   NC342203  32.188   5.786   5.419
 3207POPC   PO442204  32.046   6.368   5.616
 3207POPC   GL142205  32.196   6.087   5.887
 3207POPC   GL242206  32.058   6.298   6.146
 3207POPC   C1A42207  32.032   5.743   6.177
 3207POPC   D2A42208  31.942   5.698   6.637
 3207POPC   C3A42209  32.186   5.555   7.023
 3207POPC   C4A42210  32.447   5.471   7.398
 3207POPC   C1B42211  32.368   6.086   6.367
 3207POPC   C2B42212  32.535   6.156   6.733
 3207POPC   C3B42213  32.300   6.135   7.027
 3207POPC   C4B42214  32.492   5.992   7.343
 3208POPC   NC342215  34.144  13.723   5.466
 3208POPC   PO442216  33.541  13.917   5.321
 3208POPC   GL142217  33.682  13.669   5.747
 3208POPC   GL242218  33.939  13.384   5.810
 3208POPC   C1A42219  33.742  13.634   6.224
 3208POPC   D2A42220  33.520  13.762   6.595
 3208POPC   C3A42221  33.563  13.792   7.022
 3208POPC   C4A42222  33.478  13.891   7.461
 3208POPC   C1B42223  34.189  13.337   6.192
 3208POPC   C2B42224  34.092  13.477   6.581
 3208POPC   C3B42225  34.067  13.713   6.926
 3208POPC   C4B42226  33.919  13.592   7.288
 3209POPC   NC342227   8.478  12.312   5.457
 3209POPC   PO442228   7.869  11.961   5.417
 3209POPC   GL142229   8.164  12.023   5.798
 3209POPC   GL242230   8.413  11.761   5.872
 3209POPC   C1A42231   8.010  12.145   6.255
 3209POPC   D2A42232   7.871  12.090   6.709
 3209POPC   C3A42233   8.114  12.126   7.104
 3209POPC   C4A42234   8.111  11.949   7.504
 3209POPC   C1B42235   8.478  11.972   6.221
 3209POPC   C2B42236   8.345  11.886   6.607
 3209POPC   C3B42237   8.557  11.872   6.962
 3209POPC   C4B42238   8.523  11.663   7.295
 3210POPC   NC342239  38.354  31.271   5.156
 3210POPC   PO442240  38.554  31.743   5.656
 3210POPC   GL142241  38.477  31.372   5.848
 3210POPC   GL242242  38.153  31.261   5.712
 3210POPC   C1A42243  38.472  31.464   6.289
 3210POPC   D2A42244  38.511  31.710   6.665
 3210POPC   C3A42245  38.483  31.460   7.015
 3210POPC   C4A42246  38.817  31.611   7.266
 3210POPC   C1B42247  38.005  31.334   6.153
 3210POPC   C2B42248  38.048  31.513   6.585
 3210POPC   C3B42249  37.989  31.287   6.968
 3210POPC   C4B42250  38.100  31.120   7.370
 3211POPC   NC342251  13.357  37.430   5.561
 3211POPC   PO442252  12.733  37.521   5.323
 3211POPC   GL142253  12.786  37.589   5.772
 3211POPC   GL242254  13.095  37.770   5.896
 3211POPC   C1A42255  12.664  37.693   6.195
 3211POPC   D2A42256  12.864  37.800   6.576
 3211POPC   C3A42257  12.582  37.636   6.871
 3211POPC   C4A42258  12.515  37.598   7.293
 3211POPC   C1B42259  13.296  37.639   6.294
 3211POPC   C2B42260  13.273  37.540   6.755
 3211POPC   C3B42261  12.999  37.481   7.112
 3211POPC   C4B42262  13.061  37.553   7.539
 3212POPC   NC342263   9.466  27.477   5.487
 3212POPC   PO442264  10.012  27.805   5.436
 3212POPC   GL142265   9.820  27.693   5.827
 3212POPC   GL242266   9.766  27.319   5.873
 3212POPC   C1A42267   9.967  27.620   6.257
 3212POPC   D2A42268   9.778  27.621   6.662
 3212POPC   C3A42269   9.978  27.604   7.062
 3212POPC   C4A42270  10.025  27.789   7.475
 3212POPC   C1B42271   9.498  27.432   6.227
 3212POPC   C2B42272   9.377  27.310   6.630
 3212POPC   C3B42273   9.437  27.488   7.030
 3212POPC   C4B42274   9.615  27.491   7.436
 3213POPC   NC342275  41.380  22.340   5.332
 3213POPC   PO442276  41.743  21.772   5.588
 3213POPC   GL142277  41.546  22.105   5.888
 3213POPC   GL242278  41.300  22.398   5.832
 3213POPC   C1A42279  41.610  22.289   6.321
 3213POPC   D2A42280  41.793  22.397   6.745
 3213POPC   C3A42281  41.822  22.045   7.055
 3213POPC   C4A42282  41.653  22.030   7.483
 3213POPC   C1B42283  41.072  22.363   6.216
 3213POPC   C2B42284  41.142  22.297   6.658
 3213POPC   C3B42285  41.349  22.306   7.072
 3213POPC   C4B42286  41.190  22.236   7.505
 3214POPC   NC342287  27.321   1.659   5.400
 3214POPC   PO442288  27.916   1.885   5.394
 3214POPC   GL142289  27.669   1.775   5.766
 3214POPC   GL242290  27.494   2.102   5.844
 3214POPC   C1A42291  27.755   1.842   6.211
 3214POPC   D2A42292  27.825   2.031   6.609
 3214POPC   C3A42293  27.585   1.779   6.875
 3214POPC   C4A42294  27.432   1.763   7.291
 3214POPC   C1B42295  27.515   2.318   6.260
 3214POPC   C2B42296  27.351   2.230   6.676
 3214POPC   C3B42297  27.436   2.239   7.128
 3214POPC   C4B42298  27.302   2.413   7.554
 3215POPC   NC342299  14.688  43.567   5.613
 3215POPC   PO442300  14.092  43.920   5.435
 3215POPC   GL142301  14.318  43.877   5.824
 3215POPC   GL242302  14.604  44.070   5.932
 3215POPC   C1A42303  14.210  43.885   6.249
 3215POPC   D2A42304  14.298  43.888   6.669
 3215POPC   C3A42305  14.067  43.991   6.997
 3215POPC   C4A42306  14.273  43.682   7.236
 3215POPC   C1B42307  14.718  44.228   6.353
 3215POPC   C2B42308  14.612  44.273   6.791
 3215POPC   C3B42309  14.678  43.980   7.109
 3215POPC   C4B42310  14.874  43.585   7.047
 3216POPC   NC342311  32.621  28.608   5.574
 3216POPC   PO442312  32.226  28.151   5.394
 3216POPC   GL142313  32.185  28.364   5.788
 3216POPC   GL242314  32.479  28.376   5.995
 3216POPC   C1A42315  31.987  28.342   6.199
 3216POPC   D2A42316  32.238  28.546   6.527
 3216POPC   C3A42317  32.003  28.432   6.877
 3216POPC   C4A42318  32.067  28.335   7.269
 3216POPC   C1B42319  32.399  28.077   6.311
 3216POPC   C2B42320  32.590  28.102   6.698
 3216POPC   C3B42321  32.504  28.102   7.117
 3216POPC   C4B42322  32.516  27.968   7.531
 3217POPC   NC342323  10.866  44.679   5.140
 3217POPC   PO442324  10.316  44.677   5.485
 3217POPC   GL142325  10.461  44.521   5.873
 3217POPC   GL242326  10.769  44.734   5.989
 3217POPC   C1A42327  10.362  44.672   6.296
 3217POPC   D2A42328  10.161   0.019   6.508
 3217POPC   C3A42329  10.092  44.947   6.948
 3217POPC   C4A42330  10.377  44.957   7.318
 3217POPC   C1B42331  10.755  44.333   6.262
 3217POPC   C2B42332  10.486  44.281   6.614
 3217POPC   C3B42333  10.477  44.568   6.942
 3217POPC   C4B42334  10.599  44.473   7.352
 3218POPC   NC342335  36.641  26.355   5.423
 3218POPC   PO442336  37.331  26.288   5.378
 3218POPC   GL142337  37.033  26.177   5.706
 3218POPC   GL242338  36.864  25.855   5.848
 3218POPC   C1A42339  36.941  26.318   6.108
 3218POPC   D2A42340  37.065  26.048   6.440
 3218POPC   C3A42341  37.113  26.104   6.840
 3218POPC   C4A42342  36.952  26.102   7.217
 3218POPC   C1B42343  36.610  25.935   6.252
 3218POPC   C2B42344  36.613  26.006   6.722
 3218POPC   C3B42345  36.469  25.973   7.176
 3218POPC   C4B42346  36.308  25.984   7.608
 3219POPC   NC342347  33.196  33.082   5.474
 3219POPC   PO442348  32.537  33.315   5.624
 3219POPC   GL142349  32.790  33.028   5.873
 3219POPC   GL242350  33.097  33.210   5.947
 3219POPC   C1A42351  32.822  33.079   6.352
 3219POPC   D2A42352  33.118  33.193   6.699
 3219POPC   C3A42353  32.932  33.152   7.106
 3219POPC   C4A42354  32.865  33.015   7.540
 3219POPC   C1B42355  33.314  32.959   6.259
 3219POPC   C2B42356  33.245  32.669   6.581
 3219POPC   C3B42357  33.366  32.817   6.978
 3219POPC   C4B42358  33.419  33.247   7.157
 3220POPC   NC342359  14.681  25.281   5.466
 3220POPC   PO442360  14.035  25.365   5.680
 3220POPC   GL142361  14.415  25.355   5.899
 3220POPC   GL242362  14.501  25.022   5.878
 3220POPC   C1A42363  14.550  25.362   6.319
 3220POPC   D2A42364  14.295  25.407   6.689
 3220POPC   C3A42365  14.499  25.205   7.013
 3220POPC   C4A42366  14.554  25.420   7.329
 3220POPC   C1B42367  14.194  24.990   6.224
 3220POPC   C2B42368  14.348  24.881   6.629
 3220POPC   C3B42369  14.176  24.826   7.028
 3220POPC   C4B42370  14.228  24.997   7.446
 3221POPC   NC342371  13.701  36.493   5.497
 3221POPC   PO442372  13.636  37.157   5.306
 3221POPC   GL142373  13.635  37.005   5.750
 3221POPC   GL242374  13.288  36.973   5.798
 3221POPC   C1A42375  13.723  36.771   6.170
 3221POPC   D2A42376  13.763  36.557   6.607
 3221POPC   C3A42377  13.703  36.773   7.036
 3221POPC   C4A42378  13.851  37.029   7.414
 3221POPC   C1B42379  13.365  37.126   6.229
 3221POPC   C2B42380  13.414  37.023   6.679
 3221POPC   C3B42381  13.390  37.162   7.118
 3221POPC   C4B42382  13.113  37.063   7.453
 3222POPC   NC342383  17.257  21.474   5.520
 3222POPC   PO442384  17.924  21.556   5.376
 3222POPC   GL142385  17.683  21.418   5.805
 3222POPC   GL242386  17.353  21.242   5.975
 3222POPC   C1A42387  17.616  21.605   6.217
 3222POPC   D2A42388  17.795  21.468   6.622
 3222POPC   C3A42389  17.632  21.210   6.918
 3222POPC   C4A42390  17.700  21.262   7.348
 3222POPC   C1B42391  17.372  21.212   6.431
 3222POPC   C2B42392  17.182  21.400   6.793
 3222POPC   C3B42393  17.207  21.206   7.206
 3222POPC   C4B42394  17.274  21.401   7.640
 3223POPC   NC342395  18.928  27.298   5.653
 3223POPC   PO442396  18.968  26.621   5.413
 3223POPC   GL142397  18.834  26.807   5.805
 3223POPC   GL242398  19.166  26.874   5.862
 3223POPC   C1A42399  18.874  26.995   6.258
 3223POPC   D2A42400  18.829  27.168   6.661
 3223POPC   C3A42401  18.732  26.924   6.996
 3223POPC   C4A42402  18.841  26.668   7.354
 3223POPC   C1B42403  19.317  26.712   6.257
 3223POPC   C2B42404  19.480  26.818   6.671
 3223POPC   C3B42405  19.237  26.840   7.015
 3223POPC   C4B42406  19.322  26.876   7.404
 3224POPC   NC342407  25.490  26.301   5.374
 3224POPC   PO442408  25.210  25.661   5.356
 3224POPC   GL142409  25.418  25.874   5.705
 3224POPC   GL242410  25.198  26.181   5.786
 3224POPC   C1A42411  25.453  25.921   6.158
 3224POPC   D2A42412  25.499  26.174   6.544
 3224POPC   C3A42413  25.464  25.940   6.908
 3224POPC   C4A42414  25.244  25.911   7.299
 3224POPC   C1B42415  25.218  26.421   6.188
 3224POPC   C2B42416  25.120  26.553   6.628
 3224POPC   C3B42417  25.138  26.346   7.049
 3224POPC   C4B42418  25.125  26.322   7.554
 3225POPC   NC342419  14.306   1.128   5.549
 3225POPC   PO442420  14.474   1.721   5.536
 3225POPC   GL142421  14.532   1.434   5.893
 3225POPC   GL242422  14.727   1.091   5.832
 3225POPC   C1A42423  14.384   1.213   6.242
 3225POPC   D2A42424  14.298   1.341   6.648
 3225POPC   C3A42425  14.395   1.085   6.953
 3225POPC   C4A42426  14.413   1.333   7.232
 3225POPC   C1B42427  14.902   1.055   6.224
 3225POPC   C2B42428  14.754   0.989   6.617
 3225POPC   C3B42429  14.894   1.040   7.054
 3225POPC   C4B42430  14.631   0.950   7.456
 3226POPC   NC342431  16.637  18.535   5.388
 3226POPC   PO442432  16.965  17.895   5.389
 3226POPC   GL142433  16.756  18.184   5.746
 3226POPC   GL242434  16.379  18.287   5.752
 3226POPC   C1A42435  16.864  18.200   6.212
 3226POPC   D2A42436  17.074  18.452   6.561
 3226POPC   C3A42437  16.941  18.354   7.000
 3226POPC   C4A42438  16.855  17.940   7.205
 3226POPC   C1B42439  16.425  18.450   6.185
 3226POPC   C2B42440  16.570  18.391   6.616
 3226POPC   C3B42441  16.461  18.195   7.002
 3226POPC   C4B42442  16.585  18.313   7.406
 3227POPC   NC342443  18.344  21.740   5.431
 3227POPC   PO442444  18.445  21.056   5.737
 3227POPC   GL142445  18.190  21.379   5.858
 3227POPC   GL242446  18.439  21.584   5.885
 3227POPC   C1A42447  18.124  21.545   6.259
 3227POPC   D2A42448  18.321  21.409   6.632
 3227POPC   C3A42449  18.113  21.401   7.023
 3227POPC   C4A42450  18.112  21.795   7.182
 3227POPC   C1B42451  18.650  21.465   6.255
 3227POPC   C2B42452  18.791  21.699   6.612
 3227POPC   C3B42453  18.572  21.683   6.978
 3227POPC   C4B42454  18.538  21.356   7.320
 3228POPC   NC342455  12.392  38.496   5.547
 3228POPC   PO442456  11.727  38.610   5.347
 3228POPC   GL142457  11.954  38.688   5.775
 3228POPC   GL242458  12.128  38.358   5.959
 3228POPC   C1A42459  12.014  38.773   6.235
 3228POPC   D2A42460  11.996  38.392   6.507
 3228POPC   C3A42461  11.887  38.423   6.939
 3228POPC   C4A42462  11.844  38.185   7.318
 3228POPC   C1B42463  12.455  38.500   6.289
 3228POPC   C2B42464  12.415  38.551   6.769
 3228POPC   C3B42465  12.343  38.466   7.210
 3228POPC   C4B42466  12.253  38.519   7.660
 3229POPC   NC342467  44.350   0.750   5.423
 3229POPC   PO442468  44.329   0.026   5.367
 3229POPC   GL142469  44.577   0.300   5.725
 3229POPC   GL242470  44.617   0.657   5.827
 3229POPC   C1A42471  44.792   0.353   6.168
 3229POPC   D2A42472  44.866   0.580   6.570
 3229POPC   C3A42473  44.672   0.391   6.923
 3229POPC   C4A42474  44.720   0.475   7.343
 3229POPC   C1B42475  44.529   0.812   6.247
 3229POPC   C2B42476  44.351   0.634   6.608
 3229POPC   C3B42477  44.501   0.881   6.928
 3229POPC   C4B42478  44.411   0.885   7.327
 3230POPC   NC342479  17.084  38.745   5.409
 3230POPC   PO442480  17.653  38.236   5.348
 3230POPC   GL142481  17.503  38.399   5.724
 3230POPC   GL242482  17.194  38.234   5.732
 3230POPC   C1A42483  17.577  38.532   6.166
 3230POPC   D2A42484  17.338  38.534   6.562
 3230POPC   C3A42485  17.603  38.472   6.939
 3230POPC   C4A42486  17.424  38.368   7.358
 3230POPC   C1B42487  17.422  38.040   6.098
 3230POPC   C2B42488  17.584  38.095   6.540
 3230POPC   C3B42489  17.363  38.025   6.964
 3230POPC   C4B42490  17.142  37.927   7.369
 3231POPC   NC342491  32.533   2.527   5.591
 3231POPC   PO442492  32.321   1.953   5.148
 3231POPC   GL142493  32.200   2.089   5.600
 3231POPC   GL242494  32.078   2.405   5.749
 3231POPC   C1A42495  32.260   2.023   6.049
 3231POPC   D2A42496  32.343   1.763   6.429
 3231POPC   C3A42497  32.203   1.931   6.859
 3231POPC   C4A42498  32.266   1.837   7.325
 3231POPC   C1B42499  31.809   2.301   6.101
 3231POPC   C2B42500  31.888   2.249   6.534
 3231POPC   C3B42501  31.966   2.410   6.946
 3231POPC   C4B42502  31.863   2.144   7.245
 3232POPC   NC342503  32.014  21.855   5.289
 3232POPC   PO442504  32.003  22.498   5.307
 3232POPC   GL142505  32.275  22.374   5.823
 3232POPC   GL242506  32.468  22.077   5.843
 3232POPC   C1A42507  32.105  22.144   6.266
 3232POPC   D2A42508  32.159  21.980   6.733
 3232POPC   C3A42509  32.047  22.168   7.152
 3232POPC   C4A42510  31.942  22.349   7.564
 3232POPC   C1B42511  32.565  22.330   6.227
 3232POPC   C2B42512  32.416  22.411   6.625
 3232POPC   C3B42513  32.537  22.265   7.009
 3232POPC   C4B42514  32.448  21.868   7.216
 3233POPC   NC342515  39.857  37.115   5.532
 3233POPC   PO442516  40.420  37.453   5.457
 3233POPC   GL142517  40.232  37.631   5.823
 3233POPC   GL242518  40.153  37.984   5.817
 3233POPC   C1A42519  40.157  37.439   6.239
 3233POPC   D2A42520  39.856  37.276   6.561
 3233POPC   C3A42521  40.007  37.365   6.969
 3233POPC   C4A42522  39.818  37.536   7.328
 3233POPC   C1B42523  39.806  37.940   6.110
 3233POPC   C2B42524  39.683  37.905   6.573
 3233POPC   C3B42525  39.748  37.950   7.041
 3233POPC   C4B42526  39.999  38.005   7.423
 3234POPC   NC342527   8.481   3.064   5.520
 3234POPC   PO442528   8.135   2.525   5.295
 3234POPC   GL142529   8.092   2.728   5.688
 3234POPC   GL242530   8.438   2.641   5.801
 3234POPC   C1A42531   7.900   2.764   6.113
 3234POPC   D2A42532   7.934   2.468   6.471
 3234POPC   C3A42533   8.142   2.613   6.846
 3234POPC   C4A42534   8.062   2.910   7.196
 3234POPC   C1B42535   8.375   2.679   6.235
 3234POPC   C2B42536   8.286   3.006   6.540
 3234POPC   C3B42537   8.475   3.024   6.958
 3234POPC   C4B42538   8.490   2.635   7.245
 3235POPC   NC342539  17.059  28.966   5.466
 3235POPC   PO442540  16.353  29.241   5.428
 3235POPC   GL142541  16.671  29.197   5.772
 3235POPC   GL242542  16.752  28.811   5.846
 3235POPC   C1A42543  16.740  29.380   6.193
 3235POPC   D2A42544  16.980  29.339   6.606
 3235POPC   C3A42545  16.778  29.270   7.004
 3235POPC   C4A42546  16.836  29.293   7.450
 3235POPC   C1B42547  16.886  28.891   6.289
 3235POPC   C2B42548  16.639  28.885   6.695
 3235POPC   C3B42549  16.688  28.803   7.146
 3235POPC   C4B42550  16.980  28.792   7.450
 3236POPC   NC342551  25.880  14.628   5.596
 3236POPC   PO442552  26.383  14.215   5.447
 3236POPC   GL142553  26.194  14.312   5.840
 3236POPC   GL242554  25.896  14.203   5.931
 3236POPC   C1A42555  26.357  14.534   6.200
 3236POPC   D2A42556  26.267  14.654   6.606
 3236POPC   C3A42557  25.957  14.368   6.759
 3236POPC   C4A42558  25.851  14.259   7.172
 3236POPC   C1B42559  25.842  14.508   6.268
 3236POPC   C2B42560  25.535  14.599   6.594
 3236POPC   C3B42561  25.635  14.702   7.009
 3236POPC   C4B42562  25.531  14.578   7.422
 3237POPC   NC342563  20.164  13.317   5.482
 3237POPC   PO442564  19.544  13.270   5.209
 3237POPC   GL142565  19.842  13.617   5.684
 3237POPC   GL242566  19.793  13.954   5.834
 3237POPC   C1A42567  20.026  13.496   6.137
 3237POPC   D2A42568  20.228  13.313   6.538
 3237POPC   C3A42569  20.135  13.566   6.914
 3237POPC   C4A42570  19.803  13.540   7.188
 3237POPC   C1B42571  19.567  13.747   6.218
 3237POPC   C2B42572  19.449  13.694   6.692
 3237POPC   C3B42573  19.428  13.882   7.138
 3237POPC   C4B42574  19.587  13.787   7.588
 3238POPC   NC342575   4.971  10.614   5.565
 3238POPC   PO442576   5.419  11.074   5.457
 3238POPC   GL142577   5.388  10.753   5.835
 3238POPC   GL242578   5.281  10.360   5.874
 3238POPC   C1A42579   5.269  10.676   6.275
 3238POPC   D2A42580   5.110  10.378   6.577
 3238POPC   C3A42581   5.019  10.653   6.896
 3238POPC   C4A42582   4.956  10.637   7.316
 3238POPC   C1B42583   4.843  10.369   6.137
 3238POPC   C2B42584   4.601  10.353   6.526
 3238POPC   C3B42585   4.715  10.221   6.949
 3238POPC   C4B42586   4.564  10.297   7.360
 3239POPC   NC342587  26.549  30.525   5.192
 3239POPC   PO442588  26.938  30.900   5.552
 3239POPC   GL142589  26.668  30.737   5.881
 3239POPC   GL242590  26.477  30.454   5.721
 3239POPC   C1A42591  26.692  30.680   6.339
 3239POPC   D2A42592  26.915  30.666   6.728
 3239POPC   C3A42593  26.653  30.809   7.026
 3239POPC   C4A42594  26.507  30.584   7.302
 3239POPC   C1B42595  26.749  30.251   6.055
 3239POPC   C2B42596  26.734  30.124   6.526
 3239POPC   C3B42597  26.740  30.233   7.002
 3239POPC   C4B42598  26.924  30.088   7.436
 3240POPC   NC342599  37.740  35.792   5.517
 3240POPC   PO442600  37.541  35.163   5.336
 3240POPC   GL142601  37.661  35.324   5.744
 3240POPC   GL242602  37.712  35.015   5.862
 3240POPC   C1A42603  37.538  35.378   6.207
 3240POPC   D2A42604  37.750  35.412   6.613
 3240POPC   C3A42605  37.511  35.600   6.949
 3240POPC   C4A42606  37.246  35.619   7.325
 3240POPC   C1B42607  37.929  35.043   6.248
 3240POPC   C2B42608  38.125  35.041   6.663
 3240POPC   C3B42609  37.864  35.062   7.051
 3240POPC   C4B42610  37.637  35.316   7.369
 3241POPC   NC342611  21.464  33.235   5.443
 3241POPC   PO442612  21.860  32.686   5.442
 3241POPC   GL142613  21.621  32.935   5.852
 3241POPC   GL242614  21.299  33.188   5.905
 3241POPC   C1A42615  21.574  33.097   6.315
 3241POPC   D2A42616  21.488  33.204   6.765
 3241POPC   C3A42617  21.241  33.132   7.091
 3241POPC   C4A42618  21.474  33.094   7.466
 3241POPC   C1B42619  21.106  32.912   6.204
 3241POPC   C2B42620  21.148  32.811   6.612
 3241POPC   C3B42621  20.899  32.771   6.961
 3241POPC   C4B42622  20.806  32.817   7.377
 3242POPC   NC342623  28.006  43.512   5.439
 3242POPC   PO442624  28.631  43.241   5.342
 3242POPC   GL142625  28.441  43.422   5.747
 3242POPC   GL242626  28.130  43.243   5.870
 3242POPC   C1A42627  28.396  43.440   6.240
 3242POPC   D2A42628  28.221  43.275   6.628
 3242POPC   C3A42629  28.346  43.456   7.009
 3242POPC   C4A42630  28.204  43.367   7.381
 3242POPC   C1B42631  28.184  42.946   6.223
 3242POPC   C2B42632  28.421  42.807   6.620
 3242POPC   C3B42633  28.395  42.956   7.035
 3242POPC   C4B42634  28.623  42.913   7.411
 3243POPC   NC342635   5.660  18.212   5.429
 3243POPC   PO442636   6.323  18.467   5.384
 3243POPC   GL142637   5.992  18.464   5.738
 3243POPC   GL242638   6.025  18.152   5.797
 3243POPC   C1A42639   5.826  18.420   6.183
 3243POPC   D2A42640   5.705  18.553   6.591
 3243POPC   C3A42641   5.827  18.371   6.981
 3243POPC   C4A42642   5.886  18.727   7.238
 3243POPC   C1B42643   6.183  18.046   6.186
 3243POPC   C2B42644   6.007  18.014   6.585
 3243POPC   C3B42645   6.218  18.049   6.990
 3243POPC   C4B42646   5.994  18.003   7.390
 3244POPC   NC342647  44.797   4.576   5.246
 3244POPC   PO442648  44.592   4.086   5.542
 3244POPC   GL142649  44.662   4.472   5.760
 3244POPC   GL242650  44.991   4.663   5.717
 3244POPC   C1A42651  44.530   4.442   6.185
 3244POPC   D2A42652  44.518   4.126   6.502
 3244POPC   C3A42653  44.453   4.355   6.863
 3244POPC   C4A42654  44.381   4.218   7.259
 3244POPC   C1B42655  44.930   4.743   6.162
 3244POPC   C2B42656  44.892   4.491   6.559
 3244POPC   C3B42657  44.906   4.543   7.029
 3244POPC   C4B42658   0.126   4.182   7.190
 3245POPC   NC342659   7.640  21.390   5.336
 3245POPC   PO442660   7.050  21.686   5.367
 3245POPC   GL142661   7.360  21.621   5.751
 3245POPC   GL242662   7.427  21.257   5.796
 3245POPC   C1A42663   7.266  21.508   6.229
 3245POPC   D2A42664   7.085  21.315   6.636
 3245POPC   C3A42665   7.324  21.409   7.047
 3245POPC   C4A42666   7.231  21.471   7.511
 3245POPC   C1B42667   7.612  21.118   6.188
 3245POPC   C2B42668   7.589  21.223   6.633
 3245POPC   C3B42669   7.720  21.049   7.035
 3245POPC   C4B42670   7.713  21.268   7.396
 3246POPC   NC342671  26.634  10.721   5.442
 3246POPC   PO442672  27.171  10.988   5.474
 3246POPC   GL142673  26.966  10.687   5.822
 3246POPC   GL242674  26.608  10.826   5.926
 3246POPC   C1A42675  26.774  10.374   6.115
 3246POPC   D2A42676  26.514  10.274   6.506
 3246POPC   C3A42677  26.536  10.463   6.955
 3246POPC   C4A42678  26.721  10.259   7.368
 3246POPC   C1B42679  26.789  10.847   6.330
 3246POPC   C2B42680  26.961  10.632   6.673
 3246POPC   C3B42681  27.064  10.499   7.081
 3246POPC   C4B42682  27.053  10.636   7.511
 3247POPC   NC342683  16.942   5.289   5.417
 3247POPC   PO442684  16.322   4.969   5.510
 3247POPC   GL142685  16.607   4.738   5.829
 3247POPC   GL242686  16.961   4.828   5.762
 3247POPC   C1A42687  16.663   4.739   6.315
 3247POPC   D2A42688  16.628   4.737   6.780
 3247POPC   C3A42689  16.517   5.155   7.014
 3247POPC   C4A42690  16.379   5.372   7.387
 3247POPC   C1B42691  17.044   5.049   6.152
 3247POPC   C2B42692  17.108   4.986   6.631
 3247POPC   C3B42693  17.042   5.279   7.010
 3247POPC   C4B42694  16.866   5.297   7.460
 3248POPC   NC342695   6.955   6.555   5.472
 3248POPC   PO442696   6.398   6.966   5.698
 3248POPC   GL142697   6.645   6.712   5.912
 3248POPC   GL242698   6.597   6.406   5.801
 3248POPC   C1A42699   6.499   6.537   6.301
 3248POPC   D2A42700   6.393   6.653   6.713
 3248POPC   C3A42701   6.748   6.703   6.911
 3248POPC   C4A42702   6.879   6.965   7.214
 3248POPC   C1B42703   6.910   6.282   6.109
 3248POPC   C2B42704   6.828   6.180   6.546
 3248POPC   C3B42705   6.538   6.198   6.898
 3248POPC   C4B42706   6.597   6.404   7.282
 3249POPC   NC342707   3.661   1.639   5.487
 3249POPC   PO442708   3.384   2.299   5.456
 3249POPC   GL142709   3.584   2.164   5.828
 3249POPC   GL242710   3.429   1.872   5.886
 3249POPC   C1A42711   3.704   2.157   6.277
 3249POPC   D2A42712   4.038   2.370   6.492
 3249POPC   C3A42713   4.046   2.206   6.904
 3249POPC   C4A42714   3.658   2.142   7.116
 3249POPC   C1B42715   3.485   1.705   6.290
 3249POPC   C2B42716   3.767   1.813   6.659
 3249POPC   C3B42717   3.687   1.648   7.055
 3249POPC   C4B42718   3.605   1.386   7.411
 3250POPC   NC342719  32.399  30.297   5.496
 3250POPC   PO442720  32.791  29.852   5.411
 3250POPC   GL142721  33.034  29.758   5.828
 3250POPC   GL242722  33.202  30.100   5.787
 3250POPC   C1A42723  33.236  29.886   6.241
 3250POPC   D2A42724  33.060  30.110   6.601
 3250POPC   C3A42725  33.287  30.025   6.963
 3250POPC   C4A42726  33.257  29.698   7.280
 3250POPC   C1B42727  32.824  30.154   6.066
 3250POPC   C2B42728  32.669  30.392   6.405
 3250POPC   C3B42729  32.579  30.384   6.819
 3250POPC   C4B42730  32.717  30.266   7.209
 3251POPC   NC342731  14.120   8.388   5.422
 3251POPC   PO442732  14.807   8.471   5.354
 3251POPC   GL142733  14.593   8.266   5.714
 3251POPC   GL242734  14.320   7.985   5.712
 3251POPC   C1A42735  14.461   8.382   6.127
 3251POPC   D2A42736  14.574   8.203   6.534
 3251POPC   C3A42737  14.322   8.289   6.896
 3251POPC   C4A42738  14.541   8.303   7.219
 3251POPC   C1B42739  14.362   7.889   6.166
 3251POPC   C2B42740  14.244   7.786   6.624
 3251POPC   C3B42741  14.382   7.814   7.074
 3251POPC   C4B42742  14.631   7.866   7.440
 3252POPC   NC342743  16.216  36.819   5.441
 3252POPC   PO442744  15.576  36.639   5.461
 3252POPC   GL142745  15.874  36.644   5.803
 3252POPC   GL242746  15.872  36.976   5.809
 3252POPC   C1A42747  16.151  36.807   6.173
 3252POPC   D2A42748  15.949  36.908   6.578
 3252POPC   C3A42749  16.116  37.139   6.903
 3252POPC   C4A42750  16.321  36.927   7.202
 3252POPC   C1B42751  15.639  37.001   6.175
 3252POPC   C2B42752  15.372  37.072   6.508
 3252POPC   C3B42753  15.533  37.084   6.893
 3252POPC   C4B42754  15.778  36.890   7.176
 3253POPC   NC342755  39.619  40.799   5.338
 3253POPC   PO442756  40.195  40.496   5.064
 3253POPC   GL142757  40.072  40.620   5.544
 3253POPC   GL242758  39.740  40.537   5.752
 3253POPC   C1A42759  40.038  40.926   5.946
 3253POPC   D2A42760  39.916  41.047   6.400
 3253POPC   C3A42761  40.119  40.992   6.833
 3253POPC   C4A42762  40.355  40.800   7.198
 3253POPC   C1B42763  39.935  40.468   6.183
 3253POPC   C2B42764  40.125  40.518   6.617
 3253POPC   C3B42765  39.929  40.560   7.042
 3253POPC   C4B42766  39.708  40.456   7.433
 3254POPC   NC342767  29.314   7.594   5.623
 3254POPC   PO442768  29.044   7.008   5.353
 3254POPC   GL142769  29.073   7.186   5.840
 3254POPC   GL242770  29.040   7.547   6.040
 3254POPC   C1A42771  29.338   7.221   6.256
 3254POPC   D2A42772  29.371   7.487   6.618
 3254POPC   C3A42773  29.121   7.500   6.991
 3254POPC   C4A42774  29.372   7.637   7.306
 3254POPC   C1B42775  28.816   7.254   6.318
 3254POPC   C2B42776  28.770   7.178   6.763
 3254POPC   C3B42777  28.687   7.216   7.221
 3254POPC   C4B42778  28.774   7.575   7.467
 3255POPC   NC342779  17.376  27.930   5.561
 3255POPC   PO442780  17.770  27.334   5.607
 3255POPC   GL142781  17.604  27.627   5.931
 3255POPC   GL242782  17.738  27.965   5.933
 3255POPC   C1A42783  17.291  27.642   6.291
 3255POPC   D2A42784  17.132  27.369   6.647
 3255POPC   C3A42785  17.288  27.517   7.044
 3255POPC   C4A42786  17.272  27.977   7.098
 3255POPC   C1B42787  17.732  27.897   6.354
 3255POPC   C2B42788  17.630  27.690   6.705
 3255POPC   C3B42789  17.823  27.574   7.078
 3255POPC   C4B42790  17.734  27.420   7.448
 3256POPC   NC342791  40.634  40.701   5.386
 3256POPC   PO442792  41.311  40.638   5.412
 3256POPC   GL142793  41.032  40.782   5.751
 3256POPC   GL242794  40.823  40.503   5.852
 3256POPC   C1A42795  40.790  40.946   6.138
 3256POPC   D2A42796  40.486  40.885   6.478
 3256POPC   C3A42797  40.652  41.052   6.878
 3256POPC   C4A42798  40.795  41.014   7.345
 3256POPC   C1B42799  41.067  40.516   6.229
 3256POPC   C2B42800  40.957  40.689   6.632
 3256POPC   C3B42801  40.950  40.598   7.073
 3256POPC   C4B42802  41.059  40.558   7.495
 3257POPC   NC342803   8.764  37.072   5.559
 3257POPC   PO442804   9.079  36.470   5.420
 3257POPC   GL142805   8.909  36.597   5.796
 3257POPC   GL242806   9.220  36.775   5.891
 3257POPC   C1A42807   8.828  36.715   6.239
 3257POPC   D2A42808   9.082  36.854   6.617
 3257POPC   C3A42809   9.043  36.649   7.001
 3257POPC   C4A42810   8.735  36.720   7.331
 3257POPC   C1B42811   9.365  37.058   6.240
 3257POPC   C2B42812   9.527  37.140   6.646
 3257POPC   C3B42813   9.410  37.040   7.058
 3257POPC   C4B42814   9.032  37.129   7.272
 3258POPC   NC342815  21.595  39.574   5.327
 3258POPC   PO442816  21.187  39.033   5.452
 3258POPC   GL142817  21.372  39.119   5.848
 3258POPC   GL242818  21.492  39.471   5.845
 3258POPC   C1A42819  21.155  39.278   6.224
 3258POPC   D2A42820  20.988  39.108   6.588
 3258POPC   C3A42821  21.106  39.335   6.952
 3258POPC   C4A42822  21.462  39.175   7.206
 3258POPC   C1B42823  21.662  39.327   6.262
 3258POPC   C2B42824  21.601  39.313   6.717
 3258POPC   C3B42825  21.824  39.474   7.085
 3258POPC   C4B42826  21.810  39.432   7.526
 3259POPC   NC342827  17.299  11.258   5.576
 3259POPC   PO442828  17.819  11.647   5.688
 3259POPC   GL142829  17.661  11.347   5.956
 3259POPC   GL242830  17.847  11.064   5.798
 3259POPC   C1A42831  17.420  11.280   6.342
 3259POPC   D2A42832  17.154  11.231   6.729
 3259POPC   C3A42833  17.362  11.438   7.028
 3259POPC   C4A42834  17.767  11.431   7.195
 3259POPC   C1B42835  17.786  10.876   6.226
 3259POPC   C2B42836  17.685  10.974   6.669
 3259POPC   C3B42837  17.602  10.958   7.105
 3259POPC   C4B42838  17.205  10.996   7.242
 3260POPC   NC342839   8.148  37.857   5.632
 3260POPC   PO442840   8.190  38.563   5.391
 3260POPC   GL142841   8.215  38.659   5.800
 3260POPC   GL242842   8.016  38.379   5.894
 3260POPC   C1A42843   8.377  38.562   6.230
 3260POPC   D2A42844   8.315  38.775   6.621
 3260POPC   C3A42845   8.332  38.594   7.041
 3260POPC   C4A42846   8.526  38.597   7.483
 3260POPC   C1B42847   7.827  38.485   6.311
 3260POPC   C2B42848   7.666  38.456   6.757
 3260POPC   C3B42849   7.774  38.492   7.210
 3260POPC   C4B42850   8.061  38.769   7.429
 3261POPC   NC342851  17.603  41.783   5.320
 3261POPC   PO442852  17.075  41.353   5.479
 3261POPC   GL142853  17.421  41.549   5.740
 3261POPC   GL242854  17.568  41.926   5.805
 3261POPC   C1A42855  17.467  41.574   6.183
 3261POPC   D2A42856  17.386  41.829   6.539
 3261POPC   C3A42857  17.491  41.597   6.899
 3261POPC   C4A42858  17.386  41.730   7.306
 3261POPC   C1B42859  17.816  41.943   6.203
 3261POPC   C2B42860  17.912  41.800   6.630
 3261POPC   C3B42861  17.798  41.959   7.088
 3261POPC   C4B42862  17.637  42.119   7.504
 3262POPC   NC342863   6.220  20.635   5.452
 3262POPC   PO442864   6.876  20.868   5.331
 3262POPC   GL142865   6.707  20.604   5.686
 3262POPC   GL242866   6.466  20.806   5.899
 3262POPC   C1A42867   6.789  20.475   6.126
 3262POPC   D2A42868   6.852  20.741   6.497
 3262POPC   C3A42869   6.884  20.531   6.903
 3262POPC   C4A42870   6.656  20.211   7.114
 3262POPC   C1B42871   6.301  20.601   6.265
 3262POPC   C2B42872   6.412  20.502   6.693
 3262POPC   C3B42873   6.401  20.663   7.107
 3262POPC   C4B42874   6.442  20.940   7.475
 3263POPC   NC342875   0.714   9.493   5.571
 3263POPC   PO442876   1.261   9.722   5.345
 3263POPC   GL142877   1.391   9.682   5.788
 3263POPC   GL242878   1.052   9.773   5.854
 3263POPC   C1A42879   1.384   9.741   6.276
 3263POPC   D2A42880   1.161   9.484   6.626
 3263POPC   C3A42881   1.325   9.505   7.042
 3263POPC   C4A42882   1.372   9.901   7.178
 3263POPC   C1B42883   0.883   9.691   6.240
 3263POPC   C2B42884   0.854   9.910   6.644
 3263POPC   C3B42885   0.879   9.768   7.052
 3263POPC   C4B42886   0.792   9.416   7.243
 3264POPC   NC342887  33.446  34.049   5.538
 3264POPC   PO442888  34.144  34.108   5.586
 3264POPC   GL142889  33.818  33.809   5.845
 3264POPC   GL242890  33.610  34.062   6.013
 3264POPC   C1A42891  33.832  33.633   6.320
 3264POPC   D2A42892  34.063  33.655   6.742
 3264POPC   C3A42893  33.786  33.844   7.081
 3264POPC   C4A42894  33.496  33.706   7.369
 3264POPC   C1B42895  33.993  34.096   6.224
 3264POPC   C2B42896  33.953  34.145   6.612
 3264POPC   C3B42897  34.182  34.114   6.952
 3264POPC   C4B42898  34.122  34.124   7.363
 3265POPC   NC342899   2.950  20.142   5.441
 3265POPC   PO442900   2.401  19.764   5.521
 3265POPC   GL142901   2.693  19.769   5.837
 3265POPC   GL242902   3.061  19.689   5.890
 3265POPC   C1A42903   2.691  19.589   6.219
 3265POPC   D2A42904   2.976  19.614   6.515
 3265POPC   C3A42905   2.646  19.610   6.799
 3265POPC   C4A42906   2.678  19.553   7.222
 3265POPC   C1B42907   2.964  20.044   6.198
 3265POPC   C2B42908   2.825  20.110   6.625
 3265POPC   C3B42909   3.015  19.896   6.964
 3265POPC   C4B42910   3.017  19.914   7.366
 3266POPC   NC342911   0.774  28.067   5.391
 3266POPC   PO442912   0.546  28.735   5.520
 3266POPC   GL142913   0.622  28.423   5.795
 3266POPC   GL242914   0.330  28.215   5.726
 3266POPC   C1A42915   0.782  28.370   6.222
 3266POPC   D2A42916   0.741  28.195   6.645
 3266POPC   C3A42917   0.903  28.476   6.957
 3266POPC   C4A42918   0.700  28.582   7.337
 3266POPC   C1B42919   0.275  28.273   6.166
 3266POPC   C2B42920   0.236  28.336   6.587
 3266POPC   C3B42921   0.377  28.335   7.009
 3266POPC   C4B42922   0.137  28.019   7.221
 3267POPC   NC342923  31.963  40.005   5.210
 3267POPC   PO442924  31.310  39.934   5.339
 3267POPC   GL142925  31.206  39.944   5.795
 3267POPC   GL242926  31.434  39.706   5.868
 3267POPC   C1A42927  31.448  40.088   6.207
 3267POPC   D2A42928  31.568  40.153   6.639
 3267POPC   C3A42929  31.298  40.001   6.984
 3267POPC   C4A42930  31.641  40.084   7.221
 3267POPC   C1B42931  31.277  39.597   6.237
 3267POPC   C2B42932  31.456  39.673   6.613
 3267POPC   C3B42933  31.603  39.575   7.018
 3267POPC   C4B42934  31.446  39.645   7.434
 3268POPC   NC342935   8.044  23.000   5.299
 3268POPC   PO442936   8.656  22.959   5.616
 3268POPC   GL142937   8.289  22.831   5.813
 3268POPC   GL242938   7.946  23.030   5.794
 3268POPC   C1A42939   8.335  22.619   6.220
 3268POPC   D2A42940   8.290  22.822   6.644
 3268POPC   C3A42941   8.193  22.673   7.081
 3268POPC   C4A42942   7.927  22.805   7.447
 3268POPC   C1B42943   8.005  23.008   6.230
 3268POPC   C2B42944   7.977  23.236   6.619
 3268POPC   C3B42945   7.978  23.145   7.053
 3268POPC   C4B42946   7.858  23.315   7.464
 3269POPC   NC342947   5.310   8.380   5.147
 3269POPC   PO442948   5.363   7.796   5.195
 3269POPC   GL142949   5.041   8.047   5.589
 3269POPC   GL242950   4.825   8.330   5.718
 3269POPC   C1A42951   5.106   8.165   6.112
 3269POPC   D2A42952   5.395   8.029   6.462
 3269POPC   C3A42953   5.321   8.138   6.887
 3269POPC   C4A42954   5.231   8.116   7.308
 3269POPC   C1B42955   4.705   8.475   6.161
 3269POPC   C2B42956   4.968   8.435   6.574
 3269POPC   C3B42957   4.883   8.372   7.034
 3269POPC   C4B42958   4.857   8.391   7.489
 3270POPC   NC342959   3.728  29.203   5.385
 3270POPC   PO442960   3.016  29.334   5.304
 3270POPC   GL142961   3.322  29.253   5.693
 3270POPC   GL242962   3.662  29.338   5.855
 3270POPC   C1A42963   3.291  29.054   6.112
 3270POPC   D2A42964   3.217  29.304   6.498
 3270POPC   C3A42965   3.236  29.185   6.913
 3270POPC   C4A42966   3.431  29.316   7.247
 3270POPC   C1B42967   3.691  29.295   6.284
 3270POPC   C2B42968   3.586  28.971   6.543
 3270POPC   C3B42969   3.657  28.900   6.932
 3270POPC   C4B42970   3.868  29.036   7.260
 3271POPC   NC342971   4.826  15.258   5.151
 3271POPC   PO442972   4.278  15.177   5.362
 3271POPC   GL142973   4.378  15.013   5.787
 3271POPC   GL242974   4.637  15.225   5.877
 3271POPC   C1A42975   4.248  14.925   6.231
 3271POPC   D2A42976   4.272  14.725   6.630
 3271POPC   C3A42977   4.282  14.977   6.999
 3271POPC   C4A42978   4.200  14.886   7.416
 3271POPC   C1B42979   4.509  15.381   6.261
 3271POPC   C2B42980   4.399  15.404   6.680
 3271POPC   C3B42981   4.257  15.496   7.081
 3271POPC   C4B42982   4.476  15.319   7.417
 3272POPC   NC342983  31.757  38.556   5.337
 3272POPC   PO442984  31.485  37.904   5.359
 3272POPC   GL142985  31.641  38.182   5.645
 3272POPC   GL242986  31.408  38.468   5.707
 3272POPC   C1A42987  31.764  38.269   6.069
 3272POPC   D2A42988  31.656  38.521   6.438
 3272POPC   C3A42989  31.456  38.324   6.804
 3272POPC   C4A42990  31.628  38.304   7.214
 3272POPC   C1B42991  31.246  38.543   6.129
 3272POPC   C2B42992  31.192  38.714   6.569
 3272POPC   C3B42993  31.440  38.836   6.943
 3272POPC   C4B42994  31.543  38.774   7.366
 3273POPC   NC342995   2.999   8.439   5.301
 3273POPC   PO442996   2.462   7.938   5.420
 3273POPC   GL142997   2.738   8.176   5.701
 3273POPC   GL242998   2.518   8.196   5.974
 3273POPC   C1A42999   2.991   8.315   6.066
 3273POPC   D2A43000   2.764   8.381   6.458
 3273POPC   C3A43001   2.953   8.384   6.864
 3273POPC   C4A43002   2.695   8.545   7.166
 3273POPC   C1B43003   2.706   7.899   6.290
 3273POPC   C2B43004   2.710   7.920   6.741
 3273POPC   C3B43005   2.776   8.021   7.187
 3273POPC   C4B43006   2.994   8.003   7.614
 3274POPC   NC343007  16.478  19.992   5.405
 3274POPC   PO443008  16.994  19.569   5.501
 3274POPC   GL143009  16.692  19.777   5.825
 3274POPC   GL243010  16.687  20.176   5.824
 3274POPC   C1A43011  16.549  19.663   6.244
 3274POPC   D2A43012  16.795  19.586   6.626
 3274POPC   C3A43013  16.869  19.891   6.947
 3274POPC   C4A43014  16.869  19.645   7.267
 3274POPC   C1B43015  16.457  20.170   6.199
 3274POPC   C2B43016  16.521  20.036   6.602
 3274POPC   C3B43017  16.361  19.861   6.991
 3274POPC   C4B43018  16.487  19.985   7.383
 3275POPC   NC343019  28.376  44.438   5.510
 3275POPC   PO443020  28.503   0.115   5.620
 3275POPC   GL143021  28.286  44.789   5.887
 3275POPC   GL243022  28.081  44.430   5.914
 3275POPC   C1A43023  28.392  44.884   6.305
 3275POPC   D2A43024  28.555  44.670   6.649
 3275POPC   C3A43025  28.439  44.840   7.001
 3275POPC   C4A43026  28.752   0.077   7.172
 3275POPC   C1B43027  28.288  44.393   6.269
 3275POPC   C2B43028  28.311  44.221   6.667
 3275POPC   C3B43029  28.505  44.296   7.046
 3275POPC   C4B43030  28.413  44.515   7.413
 3276POPC   NC343031  13.892   9.985   5.378
 3276POPC   PO443032  13.235   9.706   5.301
 3276POPC   GL143033  13.432   9.792   5.712
 3276POPC   GL243034  13.733   9.665   5.811
 3276POPC   C1A43035  13.412   9.652   6.205
 3276POPC   D2A43036  13.341   9.806   6.633
 3276POPC   C3A43037  13.496   9.668   7.060
 3276POPC   C4A43038  13.551   9.853   7.481
 3276POPC   C1B43039  13.930   9.651   6.244
 3276POPC   C2B43040  13.862   9.706   6.673
 3276POPC   C3B43041  14.085   9.780   7.045
 3276POPC   C4B43042  13.974   9.591   7.383
 3277POPC   NC343043   4.895  37.829   5.493
 3277POPC   PO443044   5.403  37.383   5.403
 3277POPC   GL143045   5.174  37.488   5.792
 3277POPC   GL243046   4.790  37.509   5.890
 3277POPC   C1A43047   5.162  37.754   6.135
 3277POPC   D2A43048   5.365  37.730   6.485
 3277POPC   C3A43049   5.176  37.633   6.835
 3277POPC   C4A43050   5.294  37.836   7.166
 3277POPC   C1B43051   4.653  37.867   6.146
 3277POPC   C2B43052   4.606  37.924   6.582
 3277POPC   C3B43053   4.756  38.000   6.989
 3277POPC   C4B43054   4.792  37.752   7.310
 3278POPC   NC343055  31.331  39.481   5.408
 3278POPC   PO443056  31.388  38.837   5.331
 3278POPC   GL143057  31.254  39.031   5.730
 3278POPC   GL243058  31.542  39.216   5.802
 3278POPC   C1A43059  31.184  39.068   6.181
 3278POPC   D2A43060  31.290  39.210   6.610
 3278POPC   C3A43061  31.118  39.452   6.965
 3278POPC   C4A43062  31.232  39.189   7.308
 3278POPC   C1B43063  31.660  39.238   6.230
 3278POPC   C2B43064  31.796  39.013   6.578
 3278POPC   C3B43065  31.899  39.114   6.980
 3278POPC   C4B43066  31.746  39.229   7.376
 3279POPC   NC343067  21.240  15.346   5.275
 3279POPC   PO443068  21.225  14.755   5.417
 3279POPC   GL143069  21.207  15.074   5.754
 3279POPC   GL243070  21.489  15.303   5.746
 3279POPC   C1A43071  21.224  15.067   6.222
 3279POPC   D2A43072  21.134  14.834   6.615
 3279POPC   C3A43073  21.310  14.947   7.025
 3279POPC   C4A43074  21.092  15.267   7.239
 3279POPC   C1B43075  21.629  15.376   6.179
 3279POPC   C2B43076  21.457  15.485   6.588
 3279POPC   C3B43077  21.529  15.409   7.016
 3279POPC   C4B43078  21.780  15.375   7.401
 3280POPC   NC343079  15.562  41.328   5.428
 3280POPC   PO443080  16.122  41.644   5.396
 3280POPC   GL143081  15.874  41.590   5.773
 3280POPC   GL243082  15.866  41.233   5.850
 3280POPC   C1A43083  15.848  41.751   6.215
 3280POPC   D2A43084  16.176  41.659   6.548
 3280POPC   C3A43085  16.072  41.764   6.972
 3280POPC   C4A43086  15.949  41.851   7.390
 3280POPC   C1B43087  15.898  41.236   6.310
 3280POPC   C2B43088  15.729  41.438   6.669
 3280POPC   C3B43089  15.875  41.313   7.063
 3280POPC   C4B43090  16.231  41.069   7.133
 3281POPC   NC343091   1.470  23.348   5.469
 3281POPC   PO443092   1.027  23.878   5.374
 3281POPC   GL143093   1.187  23.733   5.767
 3281POPC   GL243094   0.848  23.693   5.837
 3281POPC   C1A43095   1.375  23.704   6.200
 3281POPC   D2A43096   1.182  23.587   6.602
 3281POPC   C3A43097   1.394  23.620   6.948
 3281POPC   C4A43098   1.386  23.434   7.338
 3281POPC   C1B43099   0.866  23.786   6.259
 3281POPC   C2B43100   1.133  24.102   6.467
 3281POPC   C3B43101   1.269  24.153   6.888
 3281POPC   C4B43102   1.131  23.919   7.258
 3282POPC   NC343103  29.431  20.197   5.329
 3282POPC   PO443104  29.359  19.600   5.537
 3282POPC   GL143105  29.149  19.837   5.844
 3282POPC   GL243106  28.866  20.025   5.655
 3282POPC   C1A43107  29.198  19.888   6.317
 3282POPC   D2A43108  29.112  19.688   6.716
 3282POPC   C3A43109  29.284  19.881   7.107
 3282POPC   C4A43110  29.370  20.254   7.404
 3282POPC   C1B43111  28.754  20.011   6.101
 3282POPC   C2B43112  28.795  20.166   6.539
 3282POPC   C3B43113  28.784  19.986   6.950
 3282POPC   C4B43114  28.866  19.608   7.225
 3283POPC   NC343115   6.341   7.344   5.454
 3283POPC   PO443116   6.844   7.700   5.186
 3283POPC   GL143117   6.806   7.614   5.651
 3283POPC   GL243118   6.859   7.257   5.739
 3283POPC   C1A43119   6.829   7.616   6.129
 3283POPC   D2A43120   6.732   7.413   6.556
 3283POPC   C3A43121   6.876   7.445   6.986
 3283POPC   C4A43122   6.614   7.395   7.327
 3283POPC   C1B43123   6.862   7.092   6.168
 3283POPC   C2B43124   6.430   7.051   6.373
 3283POPC   C3B43125   6.317   7.182   6.794
 3283POPC   C4B43126   6.357   6.954   7.180
 3284POPC   NC343127  38.939  42.471   5.196
 3284POPC   PO443128  39.296  42.048   5.664
 3284POPC   GL143129  39.077  42.152   6.032
 3284POPC   GL243130  38.988  42.493   5.986
 3284POPC   C1A43131  39.220  42.050   6.446
 3284POPC   D2A43132  39.617  41.945   6.671
 3284POPC   C3A43133  39.467  42.117   7.030
 3284POPC   C4A43134  39.014  42.214   6.951
 3284POPC   C1B43135  39.146  42.600   6.385
 3284POPC   C2B43136  39.506  42.477   6.625
 3284POPC   C3B43137  39.597  42.609   7.026
 3284POPC   C4B43138  39.172  42.627   7.212
 3285POPC   NC343139  23.751  23.431   5.389
 3285POPC   PO443140  23.283  23.834   5.462
 3285POPC   GL143141  23.470  23.633   5.805
 3285POPC   GL243142  23.347  23.274   5.769
 3285POPC   C1A43143  23.851  23.746   6.093
 3285POPC   D2A43144  23.963  23.970   6.491
 3285POPC   C3A43145  23.724  23.898   6.874
 3285POPC   C4A43146  23.941  23.996   7.237
 3285POPC   C1B43147  23.588  23.319   6.180
 3285POPC   C2B43148  23.681  23.518   6.560
 3285POPC   C3B43149  23.758  23.403   7.006
 3285POPC   C4B43150  23.612  23.633   7.367
 3286POPC   NC343151   6.812  35.799   5.277
 3286POPC   PO443152   6.576  36.368   5.470
 3286POPC   GL143153   6.628  36.010   5.757
 3286POPC   GL243154   6.914  35.753   5.793
 3286POPC   C1A43155   6.714  36.085   6.187
 3286POPC   D2A43156   6.666  36.284   6.574
 3286POPC   C3A43157   6.403  36.033   6.826
 3286POPC   C4A43158   6.264  36.070   7.224
 3286POPC   C1B43159   7.139  35.794   6.200
 3286POPC   C2B43160   7.049  35.906   6.621
 3286POPC   C3B43161   6.900  36.082   6.996
 3286POPC   C4B43162   6.706  35.863   7.299
 3287POPC   NC343163  29.186  36.236   5.398
 3287POPC   PO443164  28.581  35.830   5.405
 3287POPC   GL143165  28.864  36.012   5.792
 3287POPC   GL243166  29.236  36.101   5.877
 3287POPC   C1A43167  28.944  36.016   6.265
 3287POPC   D2A43168  29.282  36.140   6.537
 3287POPC   C3A43169  29.148  36.063   6.938
 3287POPC   C4A43170  29.216  36.287   7.305
 3287POPC   C1B43171  29.492  35.839   6.147
 3287POPC   C2B43172  29.709  35.849   6.539
 3287POPC   C3B43173  29.607  35.727   6.926
 3287POPC   C4B43174  29.436  35.840   7.286
 3288POPC   NC343175  32.521  23.759   5.220
 3288POPC   PO443176  32.030  23.498   5.327
 3288POPC   GL143177  32.095  23.572   5.791
 3288POPC   GL243178  31.737  23.507   5.895
 3288POPC   C1A43179  32.327  23.733   6.185
 3288POPC   D2A43180  32.374  23.977   6.568
 3288POPC   C3A43181  32.447  23.759   6.945
 3288POPC   C4A43182  32.524  23.685   7.351
 3288POPC   C1B43183  31.886  23.499   6.309
 3288POPC   C2B43184  31.989  23.680   6.729
 3288POPC   C3B43185  31.983  23.710   7.181
 3288POPC   C4B43186  32.033  23.558   7.595
 3289POPC   NC343187  21.893   4.878   5.194
 3289POPC   PO443188  21.191   5.045   5.422
 3289POPC   GL143189  21.281   5.077   5.846
 3289POPC   GL243190  21.533   4.843   5.837
 3289POPC   C1A43191  21.245   5.221   6.277
 3289POPC   D2A43192  21.166   5.048   6.664
 3289POPC   C3A43193  21.080   5.280   7.037
 3289POPC   C4A43194  21.428   5.475   7.306
 3289POPC   C1B43195  21.723   5.095   6.152
 3289POPC   C2B43196  21.664   5.193   6.590
 3289POPC   C3B43197  21.548   5.073   7.015
 3289POPC   C4B43198  21.676   4.710   7.217
 3290POPC   NC343199  24.016   8.639   5.455
 3290POPC   PO443200  23.825   7.952   5.406
 3290POPC   GL143201  23.555   8.148   5.769
 3290POPC   GL243202  23.750   8.400   5.850
 3290POPC   C1A43203  23.511   8.146   6.261
 3290POPC   D2A43204  23.492   7.969   6.697
 3290POPC   C3A43205  23.427   8.216   7.102
 3290POPC   C4A43206  23.618   8.203   7.544
 3290POPC   C1B43207  24.001   8.153   6.154
 3290POPC   C2B43208  23.932   8.208   6.590
 3290POPC   C3B43209  23.948   8.180   7.042
 3290POPC   C4B43210  24.213   8.243   7.413
 3291POPC   NC343211  43.107  37.407   5.520
 3291POPC   PO443212  43.430  37.950   5.205
 3291POPC   GL143213  43.095  37.928   5.630
 3291POPC   GL243214  43.083  37.667   5.933
 3291POPC   C1A43215  43.024  38.121   6.108
 3291POPC   D2A43216  42.874  37.997   6.562
 3291POPC   C3A43217  43.086  37.808   6.938
 3291POPC   C4A43218  42.815  37.556   7.188
 3291POPC   C1B43219  42.882  37.371   6.229
 3291POPC   C2B43220  42.910  37.410   6.678
 3291POPC   C3B43221  43.247  37.327   6.959
 3291POPC   C4B43222  43.246  37.388   7.402
 3292POPC   NC343223  21.631  18.367   5.068
 3292POPC   PO443224  21.084  18.180   5.306
 3292POPC   GL143225  21.049  18.107   5.809
 3292POPC   GL243226  21.344  18.236   5.997
 3292POPC   C1A43227  21.120  17.870   6.248
 3292POPC   D2A43228  21.276  18.103   6.649
 3292POPC   C3A43229  21.211  18.223   7.114
 3292POPC   C4A43230  21.210  18.451   7.554
 3292POPC   C1B43231  21.664  18.274   6.348
 3292POPC   C2B43232  21.733  18.580   6.708
 3292POPC   C3B43233  21.596  18.549   7.117
 3292POPC   C4B43234  21.659  18.233   7.400
 3293POPC   NC343235  35.628  31.164   5.626
 3293POPC   PO443236  35.411  30.637   5.409
 3293POPC   GL143237  35.271  30.598   5.789
 3293POPC   GL243238  35.201  30.937   5.844
 3293POPC   C1A43239  35.250  30.378   6.171
 3293POPC   D2A43240  35.231  30.514   6.585
 3293POPC   C3A43241  35.457  30.261   6.870
 3293POPC   C4A43242  35.399  30.338   7.274
 3293POPC   C1B43243  35.497  30.886   6.196
 3293POPC   C2B43244  35.415  31.100   6.551
 3293POPC   C3B43245  35.149  30.996   6.865
 3293POPC   C4B43246  35.267  30.895   7.278
 3294POPC   NC343247   5.309   1.783   5.552
 3294POPC   PO443248   5.026   2.413   5.573
 3294POPC   GL143249   4.958   2.054   5.854
 3294POPC   GL243250   4.762   1.739   5.951
 3294POPC   C1A43251   5.052   2.057   6.276
 3294POPC   D2A43252   4.855   1.984   6.649
 3294POPC   C3A43253   5.146   2.071   6.927
 3294POPC   C4A43254   5.019   2.066   7.302
 3294POPC   C1B43255   5.175   1.598   6.144
 3294POPC   C2B43256   5.290   1.695   6.584
 3294POPC   C3B43257   5.105   1.586   6.985
 3294POPC   C4B43258   5.166   1.568   7.420
 3295POPC   NC343259  30.231  17.187   5.090
 3295POPC   PO443260  30.168  16.512   5.404
 3295POPC   GL143261  29.754  16.529   5.704
 3295POPC   GL243262  29.554  16.839   5.825
 3295POPC   C1A43263  29.713  16.432   6.157
 3295POPC   D2A43264  29.708  16.503   6.619
 3295POPC   C3A43265  30.117  16.613   6.836
 3295POPC   C4A43266  30.132  16.667   7.280
 3295POPC   C1B43267  29.735  17.059   6.193
 3295POPC   C2B43268  29.869  16.991   6.604
 3295POPC   C3B43269  29.779  16.952   7.030
 3295POPC   C4B43270  30.069  17.204   7.261
 3296POPC   NC343271  11.464  22.944   5.423
 3296POPC   PO443272  10.814  22.706   5.416
 3296POPC   GL143273  11.104  22.717   5.764
 3296POPC   GL243274  11.207  23.068   5.830
 3296POPC   C1A43275  11.366  22.668   6.145
 3296POPC   D2A43276  11.240  22.642   6.581
 3296POPC   C3A43277  11.337  22.859   6.971
 3296POPC   C4A43278  11.623  23.093   7.232
 3296POPC   C1B43279  11.311  23.190   6.220
 3296POPC   C2B43280  11.459  23.217   6.611
 3296POPC   C3B43281  11.276  23.367   6.961
 3296POPC   C4B43282  11.383  23.533   7.373
 3297POPC   NC343283   6.716   2.249   5.394
 3297POPC   PO443284   6.406   1.610   5.436
 3297POPC   GL143285   6.542   1.927   5.771
 3297POPC   GL243286   6.840   2.171   5.855
 3297POPC   C1A43287   6.532   2.022   6.215
 3297POPC   D2A43288   6.518   1.803   6.597
 3297POPC   C3A43289   6.458   2.067   6.945
 3297POPC   C4A43290   6.485   1.745   7.268
 3297POPC   C1B43291   7.054   2.207   6.243
 3297POPC   C2B43292   6.870   2.152   6.633
 3297POPC   C3B43293   6.931   1.925   7.024
 3297POPC   C4B43294   6.767   2.183   7.342
 3298POPC   NC343295   9.344   9.443   5.396
 3298POPC   PO443296   9.636  10.057   5.350
 3298POPC   GL143297   9.750   9.970   5.764
 3298POPC   GL243298   9.660   9.596   5.792
 3298POPC   C1A43299   9.801   9.899   6.209
 3298POPC   D2A43300   9.819  10.041   6.631
 3298POPC   C3A43301   9.852   9.831   7.039
 3298POPC   C4A43302  10.060   9.502   7.204
 3298POPC   C1B43303   9.408   9.576   6.193
 3298POPC   C2B43304   9.441   9.623   6.666
 3298POPC   C3B43305   9.386   9.495   7.134
 3298POPC   C4B43306   9.205   9.348   7.547
 3299POPC   NC343307   9.258   3.249   5.473
 3299POPC   PO443308   8.933   2.625   5.446
 3299POPC   GL143309   9.186   2.819   5.761
 3299POPC   GL243310   8.936   3.101   5.833
 3299POPC   C1A43311   9.340   2.719   6.182
 3299POPC   D2A43312   9.206   2.517   6.562
 3299POPC   C3A43313   9.391   2.576   6.962
 3299POPC   C4A43314   9.150   2.573   7.347
 3299POPC   C1B43315   8.839   2.892   6.193
 3299POPC   C2B43316   8.734   2.738   6.590
 3299POPC   C3B43317   8.910   2.765   6.954
 3299POPC   C4B43318   8.836   2.992   7.330
 3300POPC   NC343319   4.023  21.156   5.504
 3300POPC   PO443320   4.639  21.252   5.165
 3300POPC   GL143321   4.489  21.351   5.614
 3300POPC   GL243322   4.274  21.634   5.611
 3300POPC   C1A43323   4.478  21.308   6.109
 3300POPC   D2A43324   4.635  21.259   6.570
 3300POPC   C3A43325   4.421  21.273   6.946
 3300POPC   C4A43326   4.671  21.285   7.304
 3300POPC   C1B43327   4.289  21.782   6.051
 3300POPC   C2B43328   4.372  21.694   6.478
 3300POPC   C3B43329   4.168  21.729   6.869
 3300POPC   C4B43330   4.252  21.596   7.297
 3301POPC   NC343331  34.007   1.800   5.365
 3301POPC   PO443332  33.660   2.314   5.450
 3301POPC   GL143333  33.927   2.108   5.761
 3301POPC   GL243334  33.695   1.886   5.897
 3301POPC   C1A43335  34.138   1.872   6.127
 3301POPC   D2A43336  34.322   1.639   6.478
 3301POPC   C3A43337  34.121   1.625   6.873
 3301POPC   C4A43338  34.171   1.849   7.253
 3301POPC   C1B43339  33.702   2.173   6.221
 3301POPC   C2B43340  33.894   1.996   6.576
 3301POPC   C3B43341  33.746   1.998   6.974
 3301POPC   C4B43342  33.566   2.337   7.120
 3302POPC   NC343343  34.163  34.557   5.503
 3302POPC   PO443344  33.520  34.508   5.522
 3302POPC   GL143345  33.798  34.528   5.855
 3302POPC   GL243346  34.012  34.862   5.912
 3302POPC   C1A43347  33.784  34.544   6.258
 3302POPC   D2A43348  33.871  34.772   6.586
 3302POPC   C3A43349  33.882  34.527   6.931
 3302POPC   C4A43350  33.665  34.369   7.286
 3302POPC   C1B43351  33.609  35.001   6.136
 3302POPC   C2B43352  33.360  34.888   6.519
 3302POPC   C3B43353  33.473  34.833   6.961
 3302POPC   C4B43354  33.557  35.134   7.281
 3303POPC   NC343355  44.548   9.158   5.442
 3303POPC   PO443356  44.946   8.661   5.472
 3303POPC   GL143357  44.791   8.891   5.818
 3303POPC   GL243358  44.897   9.255   5.798
 3303POPC   C1A43359  44.803   8.776   6.286
 3303POPC   D2A43360  44.650   8.609   6.709
 3303POPC   C3A43361  44.450   8.763   7.090
 3303POPC   C4A43362  44.511   8.804   7.531
 3303POPC   C1B43363  44.599   9.209   6.142
 3303POPC   C2B43364  44.579   9.168   6.579
 3303POPC   C3B43365  44.772   9.119   6.974
 3303POPC   C4B43366  44.665   9.279   7.339
 3304POPC   NC343367   6.529  44.402   5.636
 3304POPC   PO443368   6.799  44.941   5.426
 3304POPC   GL143369   6.711  44.832   5.857
 3304POPC   GL243370   6.357  44.892   5.742
 3304POPC   C1A43371   6.711  44.555   6.268
 3304POPC   D2A43372   6.643  44.166   6.572
 3304POPC   C3A43373   6.742  44.281   7.011
 3304POPC   C4A43374   6.706  44.713   7.164
 3304POPC   C1B43375   6.287  44.826   6.185
 3304POPC   C2B43376   6.337  44.675   6.617
 3304POPC   C3B43377   6.241  44.943   6.972
 3304POPC   C4B43378   6.309  44.970   7.391
 3305POPC   NC343379  30.083  16.908   5.626
 3305POPC   PO443380  29.797  17.415   5.184
 3305POPC   GL143381  29.913  17.655   5.663
 3305POPC   GL243382  29.647  17.477   5.864
 3305POPC   C1A43383  29.985  17.751   6.133
 3305POPC   D2A43384  29.976  17.494   6.525
 3305POPC   C3A43385  30.162  17.612   6.936
 3305POPC   C4A43386  30.096  17.711   7.355
 3305POPC   C1B43387  29.376  17.423   6.245
 3305POPC   C2B43388  29.508  17.341   6.669
 3305POPC   C3B43389  29.664  17.456   7.058
 3305POPC   C4B43390  29.593  17.214   7.435
 3306POPC   NC343391   8.924  26.910   5.565
 3306POPC   PO443392   9.243  26.332   5.400
 3306POPC   GL143393   9.056  26.455   5.788
 3306POPC   GL243394   9.335  26.629   5.891
 3306POPC   C1A43395   8.889  26.677   6.184
 3306POPC   D2A43396   8.675  26.885   6.532
 3306POPC   C3A43397   8.732  26.775   6.977
 3306POPC   C4A43398   8.941  26.885   7.359
 3306POPC   C1B43399   9.345  26.927   6.227
 3306POPC   C2B43400   9.158  26.867   6.627
 3306POPC   C3B43401   9.274  26.710   7.013
 3306POPC   C4B43402   9.441  26.989   7.320
 3307POPC   NC343403   1.406  41.989   5.153
 3307POPC   PO443404   1.114  42.413   5.577
 3307POPC   GL143405   1.132  42.044   5.897
 3307POPC   GL243406   1.242  42.363   6.065
 3307POPC   C1A43407   1.353  41.949   6.311
 3307POPC   D2A43408   1.197  42.291   6.572
 3307POPC   C3A43409   1.245  42.452   6.966
 3307POPC   C4A43410   1.431  42.225   7.214
 3307POPC   C1B43411   1.635  42.412   6.299
 3307POPC   C2B43412   1.706  42.413   6.739
 3307POPC   C3B43413   1.750  42.610   7.151
 3307POPC   C4B43414   1.651  42.515   7.599
 3308POPC   NC343415   2.359  35.449   5.362
 3308POPC   PO443416   1.753  35.440   5.525
 3308POPC   GL143417   2.098  35.333   5.824
 3308POPC   GL243418   2.191  35.668   5.885
 3308POPC   C1A43419   2.149  35.095   6.245
 3308POPC   D2A43420   2.082  35.226   6.701
 3308POPC   C3A43421   2.153  35.063   7.133
 3308POPC   C4A43422   1.936  35.044   7.561
 3308POPC   C1B43423   1.833  35.632   6.221
 3308POPC   C2B43424   1.694  35.568   6.681
 3308POPC   C3B43425   1.865  35.487   7.112
 3308POPC   C4B43426   1.703  35.576   7.543
 3309POPC   NC343427  42.411   8.565   5.521
 3309POPC   PO443428  42.398   9.198   5.314
 3309POPC   GL143429  42.387   9.056   5.729
 3309POPC   GL243430  42.058   8.919   5.735
 3309POPC   C1A43431  42.493   8.926   6.183
 3309POPC   D2A43432  42.562   9.078   6.630
 3309POPC   C3A43433  42.317   8.859   6.938
 3309POPC   C4A43434  42.235   8.672   7.340
 3309POPC   C1B43435  42.059   9.200   6.087
 3309POPC   C2B43436  42.061   9.001   6.477
 3309POPC   C3B43437  41.847   9.121   6.792
 3309POPC   C4B43438  41.963   9.132   7.201
 3310POPC   NC343439   2.965   2.074   5.475
 3310POPC   PO443440   2.447   1.717   5.558
 3310POPC   GL143441   2.602   2.059   5.842
 3310POPC   GL243442   2.944   2.008   5.997
 3310POPC   C1A43443   2.491   2.050   6.264
 3310POPC   D2A43444   2.521   1.745   6.582
 3310POPC   C3A43445   2.798   1.950   6.861
 3310POPC   C4A43446   2.704   1.955   7.268
 3310POPC   C1B43447   2.993   1.760   6.386
 3310POPC   C2B43448   3.267   1.760   6.759
 3310POPC   C3B43449   3.219   1.835   7.190
 3310POPC   C4B43450   3.111   2.170   7.494
 3311POPC   NC343451   0.207  32.729   5.458
 3311POPC   PO443452   0.472  33.302   5.370
 3311POPC   GL143453   0.618  33.148   5.792
 3311POPC   GL243454   0.495  32.837   5.863
 3311POPC   C1A43455   0.428  33.177   6.231
 3311POPC   D2A43456   0.299  33.000   6.628
 3311POPC   C3A43457   0.464  33.274   6.936
 3311POPC   C4A43458   0.382  33.147   7.339
 3311POPC   C1B43459   0.399  32.645   6.267
 3311POPC   C2B43460   0.608  32.593   6.665
 3311POPC   C3B43461   0.372  32.708   7.047
 3311POPC   C4B43462   0.241  32.686   7.485
 3312POPC   NC343463  26.321  29.354   5.601
 3312POPC   PO443464  26.045  28.722   5.515
 3312POPC   GL143465  26.023  28.954   5.956
 3312POPC   GL243466  26.027  29.283   6.013
 3312POPC   C1A43467  25.820  28.940   6.401
 3312POPC   D2A43468  25.758  28.970   6.881
 3312POPC   C3A43469  26.152  29.059   7.117
 3312POPC   C4A43470  26.342  28.906   7.497
 3312POPC   C1B43471  25.882  29.454   6.377
 3312POPC   C2B43472  25.957  29.458   6.803
 3312POPC   C3B43473  25.743  29.403   7.190
 3312POPC   C4B43474  25.631  29.468   7.626
 3313POPC   NC343475   2.409  13.955   5.539
 3313POPC   PO443476   2.679  13.381   5.370
 3313POPC   GL143477   2.547  13.496   5.763
 3313POPC   GL243478   2.792  13.745   5.854
 3313POPC   C1A43479   2.441  13.595   6.182
 3313POPC   D2A43480   2.667  13.532   6.548
 3313POPC   C3A43481   2.557  13.727   6.918
 3313POPC   C4A43482   2.613  13.433   7.237
 3313POPC   C1B43483   3.047  13.970   6.169
 3313POPC   C2B43484   2.975  13.981   6.599
 3313POPC   C3B43485   2.992  14.153   6.998
 3313POPC   C4B43486   2.917  13.874   7.291
 3314POPC   NC343487   2.245  42.460   5.423
 3314POPC   PO443488   2.917  42.372   5.284
 3314POPC   GL143489   2.790  42.328   5.699
 3314POPC   GL243490   3.009  42.046   5.721
 3314POPC   C1A43491   2.670  42.480   6.130
 3314POPC   D2A43492   2.577  42.312   6.542
 3314POPC   C3A43493   2.854  42.429   6.886
 3314POPC   C4A43494   2.686  42.556   7.234
 3314POPC   C1B43495   2.898  42.011   6.140
 3314POPC   C2B43496   3.048  42.099   6.547
 3314POPC   C3B43497   3.074  41.989   6.993
 3314POPC   C4B43498   2.954  42.015   7.414
 3315POPC   NC343499  41.816  33.279   5.430
 3315POPC   PO443500  41.370  32.831   5.650
 3315POPC   GL143501  41.715  32.949   5.854
 3315POPC   GL243502  41.629  33.285   5.919
 3315POPC   C1A43503  41.703  32.738   6.235
 3315POPC   D2A43504  41.401  32.703   6.562
 3315POPC   C3A43505  41.532  32.891   6.944
 3315POPC   C4A43506  41.665  32.799   7.339
 3315POPC   C1B43507  41.344  33.117   6.255
 3315POPC   C2B43508  41.216  33.199   6.660
 3315POPC   C3B43509  41.155  33.317   7.074
 3315POPC   C4B43510  41.382  33.209   7.478
 3316POPC   NC343511   6.494  38.046   5.359
 3316POPC   PO443512   7.175  38.417   5.528
 3316POPC   GL143513   6.846  38.378   5.816
 3316POPC   GL243514   6.531  38.176   5.866
 3316POPC   C1A43515   6.715  38.623   6.175
 3316POPC   D2A43516   6.905  38.563   6.571
 3316POPC   C3A43517   6.704  38.535   6.959
 3316POPC   C4A43518   6.857  38.700   7.330
 3316POPC   C1B43519   6.800  38.116   6.262
 3316POPC   C2B43520   6.695  37.995   6.678
 3316POPC   C3B43521   6.778  38.053   7.091
 3316POPC   C4B43522   7.100  38.244   7.287
 3317POPC   NC343523  21.600  30.873   5.512
 3317POPC   PO443524  21.175  30.360   5.556
 3317POPC   GL143525  21.259  30.610   5.910
 3317POPC   GL243526  21.610  30.747   6.010
 3317POPC   C1A43527  21.338  30.445   6.299
 3317POPC   D2A43528  21.629  30.445   6.618
 3317POPC   C3A43529  21.480  30.462   7.021
 3317POPC   C4A43530  21.406  30.829   7.244
 3317POPC   C1B43531  21.440  30.917   6.430
 3317POPC   C2B43532  21.159  30.902   6.787
 3317POPC   C3B43533  21.121  31.216   7.125
 3317POPC   C4B43534  21.148  31.195   7.584
 3318POPC   NC343535  43.792  19.199   5.408
 3318POPC   PO443536  44.023  18.563   5.680
 3318POPC   GL143537  43.891  18.979   5.864
 3318POPC   GL243538  44.076  19.344   5.817
 3318POPC   C1A43539  43.629  19.067   6.256
 3318POPC   D2A43540  43.497  18.947   6.687
 3318POPC   C3A43541  43.708  19.120   7.031
 3318POPC   C4A43542  43.791  19.043   7.462
 3318POPC   C1B43543  44.141  19.194   6.240
 3318POPC   C2B43544  44.044  19.035   6.613
 3318POPC   C3B43545  44.200  19.159   6.977
 3318POPC   C4B43546  44.144  19.356   7.358
 3319POPC   NC343547  38.716   0.254   5.359
 3319POPC   PO443548  38.346   0.734   5.639
 3319POPC   GL143549  38.638   0.699   5.948
 3319POPC   GL243550  38.641   0.343   5.906
 3319POPC   C1A43551  38.763   0.630   6.360
 3319POPC   D2A43552  38.620   0.259   6.571
 3319POPC   C3A43553  38.407   0.500   6.849
 3319POPC   C4A43554  38.466   0.640   7.255
 3319POPC   C1B43555  38.290   0.416   6.208
 3319POPC   C2B43556  38.089   0.196   6.527
 3319POPC   C3B43557  38.220   0.046   6.908
 3319POPC   C4B43558  38.131   0.274   7.262
 3320POPC   NC343559  12.043  27.291   5.523
 3320POPC   PO443560  11.714  26.760   5.451
 3320POPC   GL143561  11.976  26.771   5.770
 3320POPC   GL243562  12.183  26.478   5.754
 3320POPC   C1A43563  11.997  26.991   6.182
 3320POPC   D2A43564  12.044  27.141   6.614
 3320POPC   C3A43565  12.052  26.972   7.045
 3320POPC   C4A43566  12.152  27.186   7.464
 3320POPC   C1B43567  12.218  26.532   6.170
 3320POPC   C2B43568  12.171  26.652   6.587
 3320POPC   C3B43569  12.378  26.471   6.938
 3320POPC   C4B43570  12.291  26.263   7.319
 3321POPC   NC343571  28.264   9.543   5.400
 3321POPC   PO443572  28.345  10.203   5.495
 3321POPC   GL143573  28.145   9.889   5.779
 3321POPC   GL243574  28.408   9.637   5.885
 3321POPC   C1A43575  28.041   9.792   6.219
 3321POPC   D2A43576  28.333   9.784   6.576
 3321POPC   C3A43577  28.159   9.856   6.996
 3321POPC   C4A43578  28.457   9.994   7.283
 3321POPC   C1B43579  28.389   9.359   6.247
 3321POPC   C2B43580  28.581   9.338   6.675
 3321POPC   C3B43581  28.509   9.482   7.108
 3321POPC   C4B43582  28.103   9.377   7.309
 3322POPC   NC343583  34.153  32.011   5.481
 3322POPC   PO443584  33.941  32.626   5.490
 3322POPC   GL143585  33.752  32.431   5.849
 3322POPC   GL243586  33.836  32.119   5.879
 3322POPC   C1A43587  33.645  32.347   6.290
 3322POPC   D2A43588  33.880  32.287   6.645
 3322POPC   C3A43589  33.706  32.382   7.030
 3322POPC   C4A43590  33.692  32.057   7.333
 3322POPC   C1B43591  34.158  31.989   6.138
 3322POPC   C2B43592  34.220  31.908   6.542
 3322POPC   C3B43593  34.013  31.867   6.919
 3322POPC   C4B43594  34.176  31.839   7.333
 3323POPC   NC343595  37.476  19.807   5.553
 3323POPC   PO443596  38.096  19.632   5.380
 3323POPC   GL143597  37.909  19.735   5.802
 3323POPC   GL243598  37.895  20.099   5.872
 3323POPC   C1A43599  37.812  19.627   6.276
 3323POPC   D2A43600  37.705  19.373   6.671
 3323POPC   C3A43601  37.885  19.437   7.062
 3323POPC   C4A43602  38.016  19.805   7.258
 3323POPC   C1B43603  37.712  20.122   6.323
 3323POPC   C2B43604  37.767  19.951   6.789
 3323POPC   C3B43605  37.719  20.188   7.207
 3323POPC   C4B43606  37.368  20.194   7.516
 3324POPC   NC343607  24.652  34.382   5.524
 3324POPC   PO443608  24.288  34.870   5.332
 3324POPC   GL143609  24.266  34.673   5.782
 3324POPC   GL243610  24.331  34.338   5.965
 3324POPC   C1A43611  24.599  34.756   6.112
 3324POPC   D2A43612  24.611  34.948   6.534
 3324POPC   C3A43613  24.329  34.696   6.805
 3324POPC   C4A43614  24.313  34.677   7.270
 3324POPC   C1B43615  24.152  34.089   6.323
 3324POPC   C2B43616  24.148  34.176   6.800
 3324POPC   C3B43617  24.320  34.179   7.250
 3324POPC   C4B43618  24.460  34.093   7.703
 3325POPC   NC343619   7.594  32.432   5.338
 3325POPC   PO443620   7.065  32.673   5.573
 3325POPC   GL143621   7.205  32.393   5.929
 3325POPC   GL243622   7.490  32.212   5.829
 3325POPC   C1A43623   7.320  32.213   6.356
 3325POPC   D2A43624   7.620  32.376   6.675
 3325POPC   C3A43625   7.449  32.401   7.048
 3325POPC   C4A43626   7.260  32.050   7.258
 3325POPC   C1B43627   7.767  32.060   6.147
 3325POPC   C2B43628   7.805  31.907   6.557
 3325POPC   C3B43629   7.890  32.040   6.974
 3325POPC   C4B43630   7.771  31.886   7.372
 3326POPC   NC343631  34.005   6.952   5.368
 3326POPC   PO443632  33.611   7.494   5.493
 3326POPC   GL143633  33.690   7.271   5.847
 3326POPC   GL243634  33.775   7.609   5.984
 3326POPC   C1A43635  33.824   7.118   6.254
 3326POPC   D2A43636  34.213   7.231   6.518
 3326POPC   C3A43637  34.037   7.438   6.911
 3326POPC   C4A43638  33.651   7.220   7.120
 3326POPC   C1B43639  33.880   7.596   6.398
 3326POPC   C2B43640  33.563   7.566   6.749
 3326POPC   C3B43641  33.583   7.730   7.167
 3326POPC   C4B43642  33.633   7.914   7.616
 3327POPC   NC343643   5.941  24.624   5.390
 3327POPC   PO443644   6.359  24.108   5.613
 3327POPC   GL143645   5.986  24.187   5.850
 3327POPC   GL243646   5.838  24.509   5.878
 3327POPC   C1A43647   5.779  24.132   6.259
 3327POPC   D2A43648   5.697  23.963   6.668
 3327POPC   C3A43649   5.918  24.177   6.982
 3327POPC   C4A43650   5.922  24.362   7.355
 3327POPC   C1B43651   5.613  24.618   6.260
 3327POPC   C2B43652   5.624  24.515   6.715
 3327POPC   C3B43653   5.630  24.715   7.143
 3327POPC   C4B43654   5.961  24.892   7.429
 3328POPC   NC343655  40.494  35.370   5.396
 3328POPC   PO443656  41.106  35.101   5.480
 3328POPC   GL143657  40.894  35.382   5.753
 3328POPC   GL243658  40.578  35.227   5.882
 3328POPC   C1A43659  40.777  35.676   6.072
 3328POPC   D2A43660  40.809  35.785   6.498
 3328POPC   C3A43661  40.989  35.581   6.866
 3328POPC   C4A43662  40.877  35.764   7.240
 3328POPC   C1B43663  40.785  35.249   6.313
 3328POPC   C2B43664  40.583  35.316   6.689
 3328POPC   C3B43665  40.612  35.190   7.103
 3328POPC   C4B43666  40.667  35.371   7.512
 3329POPC   NC343667  42.643  10.388   5.608
 3329POPC   PO443668  43.119  10.736   5.202
 3329POPC   GL143669  43.102  10.624   5.680
 3329POPC   GL243670  43.106  10.268   5.814
 3329POPC   C1A43671  43.209  10.674   6.154
 3329POPC   D2A43672  43.480  10.608   6.531
 3329POPC   C3A43673  43.308  10.793   6.894
 3329POPC   C4A43674  42.907  10.735   7.135
 3329POPC   C1B43675  42.896  10.261   6.226
 3329POPC   C2B43676  43.004  10.439   6.624
 3329POPC   C3B43677  43.204  10.299   6.992
 3329POPC   C4B43678  43.088  10.102   7.372
 3330POPC   NC343679  36.415  10.472   5.434
 3330POPC   PO443680  35.776  10.243   5.504
 3330POPC   GL143681  35.843  10.592   5.790
 3330POPC   GL243682  36.167  10.590   5.865
 3330POPC   C1A43683  35.801  10.825   6.148
 3330POPC   D2A43684  36.071  10.792   6.512
 3330POPC   C3A43685  35.907  10.661   6.902
 3330POPC   C4A43686  36.059  10.675   7.318
 3330POPC   C1B43687  35.946  10.334   6.207
 3330POPC   C2B43688  36.072  10.222   6.611
 3330POPC   C3B43689  36.196  10.255   7.031
 3330POPC   C4B43690  35.846  10.201   7.261
 3331POPC   NC343691  33.109  30.761   5.321
 3331POPC   PO443692  33.557  30.989   5.724
 3331POPC   GL143693  33.211  30.827   5.913
 3331POPC   GL243694  32.983  30.577   5.797
 3331POPC   C1A43695  33.166  30.485   6.267
 3331POPC   D2A43696  33.293  30.551   6.729
 3331POPC   C3A43697  33.146  30.508   7.132
 3331POPC   C4A43698  33.182  30.191   7.432
 3331POPC   C1B43699  32.796  30.831   6.154
 3331POPC   C2B43700  32.972  30.893   6.504
 3331POPC   C3B43701  32.837  30.833   6.881
 3331POPC   C4B43702  32.907  30.954   7.267
 3332POPC   NC343703  29.114  14.714   5.721
 3332POPC   PO443704  29.496  14.254   5.379
 3332POPC   GL143705  29.244  14.211   5.800
 3332POPC   GL243706  28.914  14.019   5.731
 3332POPC   C1A43707  29.281  14.303   6.269
 3332POPC   D2A43708  28.989  14.473   6.611
 3332POPC   C3A43709  29.106  14.537   7.044
 3332POPC   C4A43710  29.497  14.607   7.160
 3332POPC   C1B43711  28.863  13.990   6.209
 3332POPC   C2B43712  28.741  14.030   6.664
 3332POPC   C3B43713  29.023  14.039   7.043
 3332POPC   C4B43714  29.123  14.212   7.465
 3333POPC   NC343715  41.066   1.613   5.676
 3333POPC   PO443716  40.961   0.921   5.524
 3333POPC   GL143717  40.898   1.130   5.855
 3333POPC   GL243718  41.101   0.933   6.085
 3333POPC   C1A43719  40.547   1.027   6.112
 3333POPC   D2A43720  40.710   0.806   6.453
 3333POPC   C3A43721  40.814   1.048   6.773
 3333POPC   C4A43722  40.760   1.223   7.128
 3333POPC   C1B43723  40.912   1.319   6.332
 3333POPC   C2B43724  40.865   1.577   6.715
 3333POPC   C3B43725  41.189   1.483   6.995
 3333POPC   C4B43726  41.201   1.272   7.375
 3334POPC   NC343727  28.325  41.871   5.551
 3334POPC   PO443728  28.677  41.394   5.418
 3334POPC   GL143729  28.491  41.329   5.793
 3334POPC   GL243730  28.211  41.083   5.755
 3334POPC   C1A43731  28.397  41.505   6.179
 3334POPC   D2A43732  28.579  41.690   6.529
 3334POPC   C3A43733  28.300  41.718   6.845
 3334POPC   C4A43734  28.186  41.869   7.213
 3334POPC   C1B43735  28.242  41.009   6.224
 3334POPC   C2B43736  28.322  41.244   6.632
 3334POPC   C3B43737  28.462  41.128   7.056
 3334POPC   C4B43738  28.376  41.222   7.518
 3335POPC   NC343739  19.302   2.499   5.402
 3335POPC   PO443740  18.826   2.951   5.413
 3335POPC   GL143741  19.024   2.741   5.779
 3335POPC   GL243742  18.925   2.384   5.732
 3335POPC   C1A43743  19.164   2.808   6.219
 3335POPC   D2A43744  19.440   3.011   6.549
 3335POPC   C3A43745  19.360   2.987   6.990
 3335POPC   C4A43746  18.988   2.903   7.207
 3335POPC   C1B43747  18.996   2.237   6.146
 3335POPC   C2B43748  18.960   2.440   6.511
 3335POPC   C3B43749  19.119   2.548   6.857
 3335POPC   C4B43750  19.035   2.410   7.233
 3336POPC   NC343751  38.205  36.350   5.581
 3336POPC   PO443752  37.528  36.196   5.394
 3336POPC   GL143753  37.456  36.124   5.812
 3336POPC   GL243754  37.807  36.202   5.868
 3336POPC   C1A43755  37.435  35.906   6.211
 3336POPC   D2A43756  37.319  36.105   6.588
 3336POPC   C3A43757  37.124  35.954   6.960
 3336POPC   C4A43758  37.315  36.112   7.359
 3336POPC   C1B43759  37.939  36.023   6.249
 3336POPC   C2B43760  37.843  35.914   6.654
 3336POPC   C3B43761  37.653  36.106   6.983
 3336POPC   C4B43762  37.828  36.198   7.352
 3337POPC   NC343763   2.347  29.607   5.658
 3337POPC   PO443764   2.783  30.105   5.404
 3337POPC   GL143765   2.964  30.065   5.769
 3337POPC   GL243766   2.640  29.961   5.922
 3337POPC   C1A43767   3.044  30.085   6.191
 3337POPC   D2A43768   2.755  30.026   6.541
 3337POPC   C3A43769   2.978  30.032   6.920
 3337POPC   C4A43770   3.074  30.200   7.289
 3337POPC   C1B43771   2.390  30.235   6.196
 3337POPC   C2B43772   2.286  30.248   6.637
 3337POPC   C3B43773   2.409  30.086   6.986
 3337POPC   C4B43774   2.647  29.951   7.309
 3338POPC   NC343775  33.351   1.952   5.555
 3338POPC   PO443776  32.698   2.053   5.496
 3338POPC   GL143777  32.903   2.233   5.852
 3338POPC   GL243778  33.289   2.338   5.871
 3338POPC   C1A43779  32.719   2.131   6.262
 3338POPC   D2A43780  32.842   1.878   6.624
 3338POPC   C3A43781  32.692   1.892   7.046
 3338POPC   C4A43782  32.786   2.137   7.399
 3338POPC   C1B43783  33.218   2.006   6.196
 3338POPC   C2B43784  33.350   2.028   6.611
 3338POPC   C3B43785  33.132   2.146   6.966
 3338POPC   C4B43786  33.221   1.844   7.226
 3339POPC   NC343787   4.648   2.161   5.434
 3339POPC   PO443788   4.096   1.849   5.498
 3339POPC   GL143789   4.342   2.019   5.834
 3339POPC   GL243790   4.096   2.215   5.969
 3339POPC   C1A43791   4.554   2.169   6.249
 3339POPC   D2A43792   4.513   2.374   6.695
 3339POPC   C3A43793   4.549   2.137   7.093
 3339POPC   C4A43794   4.677   1.706   7.228
 3339POPC   C1B43795   4.149   1.882   6.309
 3339POPC   C2B43796   4.350   1.808   6.716
 3339POPC   C3B43797   4.177   1.751   7.141
 3339POPC   C4B43798   3.874   1.842   7.486
 3340POPC   NC343799  34.292  26.252   5.354
 3340POPC   PO443800  33.659  26.373   5.394
 3340POPC   GL143801  33.651  26.112   5.726
 3340POPC   GL243802  33.979  25.934   5.681
 3340POPC   C1A43803  33.687  26.171   6.150
 3340POPC   D2A43804  33.735  25.934   6.528
 3340POPC   C3A43805  33.430  25.935   6.830
 3340POPC   C4A43806  33.628  25.959   7.224
 3340POPC   C1B43807  34.183  26.121   6.065
 3340POPC   C2B43808  34.082  26.302   6.488
 3340POPC   C3B43809  34.038  26.145   6.922
 3340POPC   C4B43810  34.115  26.453   7.240
 3341POPC   NC343811  44.506  26.529   5.577
 3341POPC   PO443812   0.035  26.915   5.251
 3341POPC   GL143813  44.835  26.949   5.697
 3341POPC   GL243814  44.586  27.193   5.765
 3341POPC   C1A43815  44.808  26.771   6.150
 3341POPC   D2A43816  44.583  26.686   6.531
 3341POPC   C3A43817  44.703  26.611   6.974
 3341POPC   C4A43818  44.377  26.660   7.275
 3341POPC   C1B43819  44.846  27.284   6.159
 3341POPC   C2B43820  44.789  27.165   6.608
 3341POPC   C3B43821  44.857  27.116   7.048
 3341POPC   C4B43822  44.702  27.111   7.455
 3342POPC   NC343823   8.554  11.373   5.568
 3342POPC   PO443824   9.200  11.009   5.526
 3342POPC   GL143825   9.181  11.291   5.870
 3342POPC   GL243826   9.034  11.617   5.768
 3342POPC   C1A43827   9.131  11.135   6.261
 3342POPC   D2A43828   8.888  11.112   6.565
 3342POPC   C3A43829   9.139  11.013   6.915
 3342POPC   C4A43830   9.071  11.097   7.328
 3342POPC   C1B43831   8.787  11.509   6.155
 3342POPC   C2B43832   8.814  11.631   6.573
 3342POPC   C3B43833   8.826  11.425   6.954
 3342POPC   C4B43834   9.025  11.610   7.251
 3343POPC   NC343835  32.671  36.532   5.613
 3343POPC   PO443836  33.148  37.117   5.503
 3343POPC   GL143837  32.868  37.067   5.837
 3343POPC   GL243838  32.990  36.760   5.971
 3343POPC   C1A43839  32.744  37.152   6.260
 3343POPC   D2A43840  32.879  36.900   6.607
 3343POPC   C3A43841  32.943  37.078   7.021
 3343POPC   C4A43842  33.282  36.904   7.301
 3343POPC   C1B43843  32.604  36.663   6.235
 3343POPC   C2B43844  32.364  36.822   6.562
 3343POPC   C3B43845  32.544  36.719   6.939
 3343POPC   C4B43846  32.744  36.767   7.368
 3344POPC   NC343847  38.922  27.554   5.217
 3344POPC   PO443848  38.314  27.741   5.450
 3344POPC   GL143849  38.507  27.453   5.726
 3344POPC   GL243850  38.231  27.475   5.920
 3344POPC   C1A43851  38.703  27.437   6.157
 3344POPC   D2A43852  38.534  27.329   6.550
 3344POPC   C3A43853  38.733  27.426   6.957
 3344POPC   C4A43854  38.722  27.617   7.377
 3344POPC   C1B43855  38.304  27.763   6.263
 3344POPC   C2B43856  38.591  27.861   6.591
 3344POPC   C3B43857  38.456  27.883   7.004
 3344POPC   C4B43858  38.241  27.523   7.169
 3345POPC   NC343859  19.122  30.579   5.400
 3345POPC   PO443860  18.639  30.255   5.719
 3345POPC   GL143861  19.031  30.446   5.884
 3345POPC   GL243862  19.184  30.811   5.878
 3345POPC   C1A43863  19.168  30.490   6.289
 3345POPC   D2A43864  19.113  30.758   6.621
 3345POPC   C3A43865  18.962  30.558   6.969
 3345POPC   C4A43866  19.055  30.834   7.253
 3345POPC   C1B43867  19.541  30.802   6.198
 3345POPC   C2B43868  19.594  30.624   6.630
 3345POPC   C3B43869  19.471  30.574   7.075
 3345POPC   C4B43870  19.510  30.753   7.512
 3346POPC   NC343871   2.217   2.138   5.487
 3346POPC   PO443872   1.679   1.713   5.292
 3346POPC   GL143873   1.897   1.773   5.701
 3346POPC   GL243874   1.800   2.131   5.820
 3346POPC   C1A43875   2.047   1.748   6.151
 3346POPC   D2A43876   2.033   1.908   6.588
 3346POPC   C3A43877   1.938   1.708   6.999
 3346POPC   C4A43878   2.181   1.886   7.349
 3346POPC   C1B43879   1.515   2.235   6.176
 3346POPC   C2B43880   1.549   2.066   6.592
 3346POPC   C3B43881   1.792   2.191   6.978
 3346POPC   C4B43882   1.701   2.193   7.406
 3347POPC   NC343883   8.237  37.558   5.141
 3347POPC   PO443884   8.312  37.155   5.654
 3347POPC   GL143885   8.166  37.449   5.958
 3347POPC   GL243886   8.421  37.725   6.037
 3347POPC   C1A43887   8.061  37.578   6.373
 3347POPC   D2A43888   8.237  37.768   6.723
 3347POPC   C3A43889   8.260  37.512   7.091
 3347POPC   C4A43890   8.620  37.424   7.364
 3347POPC   C1B43891   8.197  38.073   6.271
 3347POPC   C2B43892   8.141  38.283   6.656
 3347POPC   C3B43893   8.100  38.120   7.057
 3347POPC   C4B43894   8.424  37.923   7.328
 3348POPC   NC343895  17.978  31.374   5.151
 3348POPC   PO443896  18.389  31.784   5.579
 3348POPC   GL143897  18.353  31.469   5.889
 3348POPC   GL243898  18.141  31.702   6.042
 3348POPC   C1A43899  18.094  31.191   6.178
 3348POPC   D2A43900  17.871  31.260   6.579
 3348POPC   C3A43901  18.079  31.544   6.904
 3348POPC   C4A43902  18.312  31.275   7.168
 3348POPC   C1B43903  18.206  31.617   6.415
 3348POPC   C2B43904  18.479  31.373   6.599
 3348POPC   C3B43905  18.720  31.498   6.939
 3348POPC   C4B43906  18.518  31.817   7.156
 3349POPC   NC343907   0.478   1.979   5.368
 3349POPC   PO443908   0.130   2.433   5.511
 3349POPC   GL143909   0.403   2.196   5.841
 3349POPC   GL243910   0.640   2.434   6.050
 3349POPC   C1A43911   0.532   1.930   6.191
 3349POPC   D2A43912   0.530   2.055   6.593
 3349POPC   C3A43913   0.790   1.999   6.872
 3349POPC   C4A43914   0.580   1.865   7.247
 3349POPC   C1B43915   0.245   2.356   6.307
 3349POPC   C2B43916   0.045   2.155   6.694
 3349POPC   C3B43917   0.090   2.093   7.160
 3349POPC   C4B43918   0.375   2.249   7.522
 3350POPC   NC343919  35.696  16.556   5.388
 3350POPC   PO443920  34.997  16.613   5.429
 3350POPC   GL143921  35.262  16.557   5.835
 3350POPC   GL243922  35.637  16.495   5.899
 3350POPC   C1A43923  35.183  16.535   6.304
 3350POPC   D2A43924  35.387  16.538   6.703
 3350POPC   C3A43925  35.083  16.697   6.977
 3350POPC   C4A43926  35.140  16.798   7.394
 3350POPC   C1B43927  35.535  16.890   6.144
 3350POPC   C2B43928  35.405  17.040   6.578
 3350POPC   C3B43929  35.516  16.986   7.015
 3350POPC   C4B43930  35.646  16.782   7.397
 3351POPC   NC343931  43.302  44.342   5.498
 3351POPC   PO443932  42.933  44.850   5.513
 3351POPC   GL143933  43.009  44.641   5.924
 3351POPC   GL243934  42.948  44.310   5.869
 3351POPC   C1A43935  42.795  44.471   6.332
 3351POPC   D2A43936  42.850  44.461   6.785
 3351POPC   C3A43937  43.115  44.798   6.931
 3351POPC   C4A43938  42.996  44.993   7.323
 3351POPC   C1B43939  43.286  44.266   6.189
 3351POPC   C2B43940  43.400  44.390   6.596
 3351POPC   C3B43941  43.410  44.316   7.026
 3351POPC   C4B43942  43.378  44.629   7.321
 3352POPC   NC343943  13.845  43.518   5.494
 3352POPC   PO443944  13.429  43.025   5.275
 3352POPC   GL143945  13.622  43.094   5.697
 3352POPC   GL243946  13.470  43.349   5.853
 3352POPC   C1A43947  13.687  42.985   6.156
 3352POPC   D2A43948  13.425  42.849   6.513
 3352POPC   C3A43949  13.630  42.918   6.904
 3352POPC   C4A43950  13.609  43.032   7.347
 3352POPC   C1B43951  13.310  43.334   6.244
 3352POPC   C2B43952  13.516  43.377   6.616
 3352POPC   C3B43953  13.397  43.362   7.027
 3352POPC   C4B43954  13.296  43.617   7.359
 3353POPC   NC343955  43.500   9.706   5.415
 3353POPC   PO443956  42.833   9.976   5.501
 3353POPC   GL143957  42.956   9.714   5.818
 3353POPC   GL243958  42.711   9.470   5.789
 3353POPC   C1A43959  43.096   9.746   6.244
 3353POPC   D2A43960  43.161   9.926   6.654
 3353POPC   C3A43961  43.169   9.697   7.076
 3353POPC   C4A43962  43.338   9.684   7.525
 3353POPC   C1B43963  42.704   9.403   6.242
 3353POPC   C2B43964  42.904   9.469   6.666
 3353POPC   C3B43965  42.800   9.339   7.088
 3353POPC   C4B43966  42.889   9.428   7.559
 3354POPC   NC343967   7.872   6.157   5.465
 3354POPC   PO443968   8.201   6.868   5.481
 3354POPC   GL143969   8.129   6.570   5.785
 3354POPC   GL243970   7.887   6.789   5.915
 3354POPC   C1A43971   8.296   6.575   6.203
 3354POPC   D2A43972   8.181   6.537   6.622
 3354POPC   C3A43973   8.476   6.711   6.898
 3354POPC   C4A43974   8.574   6.537   7.279
 3354POPC   C1B43975   7.988   7.012   6.274
 3354POPC   C2B43976   8.164   7.058   6.669
 3354POPC   C3B43977   8.040   7.109   7.078
 3354POPC   C4B43978   8.085   6.739   7.259
 3355POPC   NC343979  15.665  19.961   5.172
 3355POPC   PO443980  15.138  19.675   5.532
 3355POPC   GL143981  15.034  19.820   5.891
 3355POPC   GL243982  14.756  19.573   5.896
 3355POPC   C1A43983  15.181  20.049   6.279
 3355POPC   D2A43984  15.051  19.936   6.699
 3355POPC   C3A43985  15.187  20.124   7.069
 3355POPC   C4A43986  14.934  20.276   7.383
 3355POPC   C1B43987  14.817  19.674   6.326
 3355POPC   C2B43988  14.979  19.428   6.639
 3355POPC   C3B43989  14.853  19.315   7.036
 3355POPC   C4B43990  14.822  19.544   7.391
 3356POPC   NC343991  38.821  42.004   5.608
 3356POPC   PO443992  38.491  42.521   5.304
 3356POPC   GL143993  38.526  42.385   5.773
 3356POPC   GL243994  38.213  42.277   5.916
 3356POPC   C1A43995  38.607  42.306   6.250
 3356POPC   D2A43996  38.324  42.123   6.584
 3356POPC   C3A43997  38.382  42.297   6.994
 3356POPC   C4A43998  38.703  42.408   7.309
 3356POPC   C1B43999  38.311  42.699   6.140
 3356POPC   C2B44000  38.396  42.856   6.559
 3356POPC   C3B44001  38.291  42.803   6.965
 3356POPC   C4B44002  38.236  42.669   7.358
 3357POPC   NC344003  24.471  24.105   5.372
 3357POPC   PO444004  24.205  23.449   5.430
 3357POPC   GL144005  24.490  23.728   5.737
 3357POPC   GL244006  24.400  24.093   5.878
 3357POPC   C1A44007  24.412  23.676   6.166
 3357POPC   D2A44008  24.170  23.493   6.448
 3357POPC   C3A44009  24.192  23.642   6.859
 3357POPC   C4A44010  24.329  23.654   7.272
 3357POPC   C1B44011  24.676  24.092   6.248
 3357POPC   C2B44012  24.464  24.009   6.611
 3357POPC   C3B44013  24.435  24.101   7.024
 3357POPC   C4B44014  24.748  24.030   7.336
 3358POPC   NC344015  42.437  44.104   5.331
 3358POPC   PO444016  42.084  43.538   5.322
 3358POPC   GL144017  42.162  43.780   5.727
 3358POPC   GL244018  42.346  44.093   5.822
 3358POPC   C1A44019  42.303  43.716   6.172
 3358POPC   D2A44020  42.069  43.732   6.568
 3358POPC   C3A44021  42.252  43.788   6.949
 3358POPC   C4A44022  42.157  43.939   7.331
 3358POPC   C1B44023  42.289  44.254   6.228
 3358POPC   C2B44024  42.422  44.162   6.632
 3358POPC   C3B44025  42.389  44.339   7.048
 3358POPC   C4B44026  42.650  44.328   7.404
 3359POPC   NC344027  21.223  10.316   5.595
 3359POPC   PO444028  21.551  10.792   5.267
 3359POPC   GL144029  21.532  10.725   5.711
 3359POPC   GL244030  21.726  10.428   5.806
 3359POPC   C1A44031  21.394  10.759   6.144
 3359POPC   D2A44032  21.337  10.523   6.543
 3359POPC   C3A44033  21.370  10.725   6.962
 3359POPC   C4A44034  21.196  10.493   7.315
 3359POPC   C1B44035  21.652  10.201   6.211
 3359POPC   C2B44036  21.688  10.076   6.651
 3359POPC   C3B44037  21.628  10.266   7.062
 3359POPC   C4B44038  21.653  10.374   7.493
 3360POPC   NC344039  30.871  14.653   5.301
 3360POPC   PO444040  30.705  15.344   5.359
 3360POPC   GL144041  30.678  15.249   5.764
 3360POPC   GL244042  30.753  14.912   5.713
 3360POPC   C1A44043  30.676  15.403   6.143
 3360POPC   D2A44044  30.818  15.462   6.525
 3360POPC   C3A44045  30.653  15.328   6.851
 3360POPC   C4A44046  30.575  15.237   7.243
 3360POPC   C1B44047  30.695  14.789   6.105
 3360POPC   C2B44048  30.635  14.943   6.509
 3360POPC   C3B44049  30.685  14.823   6.934
 3360POPC   C4B44050  30.437  14.756   7.316
 3361POPC   NC344051   2.670  25.431   5.399
 3361POPC   PO444052   2.984  24.925   5.695
 3361POPC   GL144053   2.774  25.251   5.968
 3361POPC   GL244054   2.480  25.439   5.868
 3361POPC   C1A44055   2.822  25.374   6.403
 3361POPC   D2A44056   3.128  25.146   6.615
 3361POPC   C3A44057   2.912  24.936   6.899
 3361POPC   C4A44058   2.904  25.163   7.242
 3361POPC   C1B44059   2.320  25.234   6.251
 3361POPC   C2B44060   2.462  25.063   6.642
 3361POPC   C3B44061   2.407  25.159   7.062
 3361POPC   C4B44062   2.539  25.516   7.260
 3362POPC   NC344063  42.260  27.977   5.447
 3362POPC   PO444064  42.769  27.604   5.314
 3362POPC   GL144065  42.531  27.508   5.698
 3362POPC   GL244066  42.451  27.811   5.876
 3362POPC   C1A44067  42.408  27.364   6.125
 3362POPC   D2A44068  42.539  27.279   6.567
 3362POPC   C3A44069  42.187  27.328   6.863
 3362POPC   C4A44070  42.107  27.602   7.220
 3362POPC   C1B44071  42.509  28.059   6.218
 3362POPC   C2B44072  42.469  27.866   6.611
 3362POPC   C3B44073  42.331  28.030   7.002
 3362POPC   C4B44074  42.321  28.064   7.434
 3363POPC   NC344075  21.993   4.133   5.546
 3363POPC   PO444076  22.432   4.566   5.318
 3363POPC   GL144077  22.262   4.525   5.754
 3363POPC   GL244078  22.463   4.230   5.782
 3363POPC   C1A44079  21.889   4.498   6.103
 3363POPC   D2A44080  21.826   4.304   6.510
 3363POPC   C3A44081  22.011   4.440   6.898
 3363POPC   C4A44082  21.954   4.294   7.326
 3363POPC   C1B44083  22.295   4.219   6.206
 3363POPC   C2B44084  22.267   4.073   6.623
 3363POPC   C3B44085  22.542   3.981   6.940
 3363POPC   C4B44086  22.436   4.067   7.335
 3364POPC   NC344087  35.838  30.725   5.230
 3364POPC   PO444088  36.470  30.841   5.403
 3364POPC   GL144089  36.094  30.827   5.712
 3364POPC   GL244090  35.777  30.626   5.806
 3364POPC   C1A44091  36.061  30.845   6.175
 3364POPC   D2A44092  36.254  30.542   6.473
 3364POPC   C3A44093  36.290  30.715   6.881
 3364POPC   C4A44094  36.204  30.795   7.297
 3364POPC   C1B44095  35.756  30.441   6.239
 3364POPC   C2B44096  35.739  30.663   6.645
 3364POPC   C3B44097  35.769  30.636   7.101
 3364POPC   C4B44098  35.737  30.954   7.445
 3365POPC   NC344099   6.429  17.915   5.583
 3365POPC   PO444100   6.892  18.188   5.185
 3365POPC   GL144101   6.772  18.278   5.655
 3365POPC   GL244102   6.506  18.431   5.837
 3365POPC   C1A44103   6.724  18.081   6.128
 3365POPC   D2A44104   6.541  18.101   6.545
 3365POPC   C3A44105   6.669  18.319   6.881
 3365POPC   C4A44106   6.779  18.161   7.262
 3365POPC   C1B44107   6.276  18.642   6.149
 3365POPC   C2B44108   6.201  18.481   6.536
 3365POPC   C3B44109   6.256  18.622   6.911
 3365POPC   C4B44110   6.351  18.450   7.284
 3366POPC   NC344111   9.539  26.167   5.710
 3366POPC   PO444112  10.169  25.982   5.540
 3366POPC   GL144113   9.931  25.918   5.908
 3366POPC   GL244114  10.263  25.902   6.045
 3366POPC   C1A44115   9.674  25.918   6.295
 3366POPC   D2A44116   9.804  26.095   6.692
 3366POPC   C3A44117   9.512  26.022   7.030
 3366POPC   C4A44118   9.490  26.363   7.349
 3366POPC   C1B44119  10.078  25.603   6.296
 3366POPC   C2B44120   9.928  25.599   6.636
 3366POPC   C3B44121  10.120  25.798   6.978
 3366POPC   C4B44122   9.947  26.112   7.242
 3367POPC   NC344123  40.591  16.101   5.443
 3367POPC   PO444124  40.073  15.670   5.341
 3367POPC   GL144125  40.095  15.921   5.731
 3367POPC   GL244126  39.824  16.179   5.853
 3367POPC   C1A44127  40.050  15.820   6.171
 3367POPC   D2A44128  39.826  15.884   6.557
 3367POPC   C3A44129  40.087  16.044   6.851
 3367POPC   C4A44130  40.108  15.936   7.260
 3367POPC   C1B44131  39.672  16.306   6.279
 3367POPC   C2B44132  39.674  16.370   6.756
 3367POPC   C3B44133  39.819  16.337   7.188
 3367POPC   C4B44134  39.714  16.026   7.559
 3368POPC   NC344135  36.220  38.646   5.511
 3368POPC   PO444136  36.254  38.056   5.531
 3368POPC   GL144137  36.229  38.319   5.907
 3368POPC   GL244138  35.905  38.550   5.915
 3368POPC   C1A44139  36.088  38.299   6.328
 3368POPC   D2A44140  35.872  38.614   6.563
 3368POPC   C3A44141  35.980  38.472   6.961
 3368POPC   C4A44142  36.029  38.212   7.321
 3368POPC   C1B44143  36.219  38.792   6.176
 3368POPC   C2B44144  36.388  38.705   6.587
 3368POPC   C3B44145  36.310  38.851   6.978
 3368POPC   C4B44146  36.400  38.653   7.320
 3369POPC   NC344147  44.304   3.709   5.388
 3369POPC   PO444148  44.917   3.634   5.295
 3369POPC   GL144149  44.724   3.576   5.706
 3369POPC   GL244150  44.848   3.290   5.855
 3369POPC   C1A44151  44.614   3.660   6.163
 3369POPC   D2A44152  44.612   3.499   6.611
 3369POPC   C3A44153  44.536   3.788   6.937
 3369POPC   C4A44154  44.756   3.824   7.313
 3369POPC   C1B44155  44.731   3.151   6.250
 3369POPC   C2B44156  44.542   2.953   6.605
 3369POPC   C3B44157  44.417   3.173   6.987
 3369POPC   C4B44158  44.669   3.323   7.319
 3370POPC   NC344159  13.737  41.696   5.398
 3370POPC   PO444160  13.221  41.249   5.360
 3370POPC   GL144161  13.346  41.483   5.770
 3370POPC   GL244162  13.716  41.439   5.855
 3370POPC   C1A44163  13.405  41.539   6.243
 3370POPC   D2A44164  13.286  41.717   6.641
 3370POPC   C3A44165  13.408  41.506   7.025
 3370POPC   C4A44166  13.230  41.360   7.419
 3370POPC   C1B44167  13.946  41.597   6.224
 3370POPC   C2B44168  13.804  41.618   6.645
 3370POPC   C3B44169  13.920  41.411   7.027
 3370POPC   C4B44170  13.758  41.633   7.392
 3371POPC   NC344171  31.846  34.345   5.333
 3371POPC   PO444172  31.224  34.596   5.463
 3371POPC   GL144173  31.407  34.746   5.829
 3371POPC   GL244174  31.767  34.702   5.748
 3371POPC   C1A44175  31.276  34.699   6.246
 3371POPC   D2A44176  31.140  34.547   6.619
 3371POPC   C3A44177  31.451  34.674   6.873
 3371POPC   C4A44178  31.328  34.686   7.272
 3371POPC   C1B44179  31.742  34.469   6.128
 3371POPC   C2B44180  31.587  34.308   6.494
 3371POPC   C3B44181  31.738  34.239   6.871
 3371POPC   C4B44182  31.841  34.488   7.189
 3372POPC   NC344183  26.620   0.588   5.413
 3372POPC   PO444184  26.850  44.999   5.389
 3372POPC   GL144185  26.852   0.298   5.757
 3372POPC   GL244186  26.521   0.395   5.910
 3372POPC   C1A44187  26.961   0.683   5.997
 3372POPC   D2A44188  27.166   0.640   6.380
 3372POPC   C3A44189  26.927   0.520   6.735
 3372POPC   C4A44190  26.915   0.617   7.152
 3372POPC   C1B44191  26.804   0.260   6.277
 3372POPC   C2B44192  26.985  44.987   6.609
 3372POPC   C3B44193  27.073   0.078   7.036
 3372POPC   C4B44194  26.658   0.205   7.065
 3373POPC   NC344195   4.237  19.256   5.656
 3373POPC   PO444196   4.222  19.829   5.365
 3373POPC   GL144197   4.386  19.781   5.841
 3373POPC   GL244198   4.434  19.442   6.066
 3373POPC   C1A44199   4.618  19.851   6.273
 3373POPC   D2A44200   4.446  19.654   6.663
 3373POPC   C3A44201   4.487  19.904   7.052
 3373POPC   C4A44202   4.337  19.942   7.483
 3373POPC   C1B44203   4.067  19.678   6.250
 3373POPC   C2B44204   3.905  19.614   6.664
 3373POPC   C3B44205   4.101  19.527   7.057
 3373POPC   C4B44206   3.912  19.655   7.415
 3374POPC   NC344207  41.330  19.322   5.375
 3374POPC   PO444208  41.840  18.835   5.487
 3374POPC   GL144209  41.707  19.056   5.821
 3374POPC   GL244210  41.333  19.028   5.802
 3374POPC   C1A44211  41.596  19.017   6.240
 3374POPC   D2A44212  41.476  19.244   6.555
 3374POPC   C3A44213  41.468  19.020   6.911
 3374POPC   C4A44214  41.784  19.003   7.160
 3374POPC   C1B44215  41.251  19.384   6.069
 3374POPC   C2B44216  41.086  19.525   6.461
 3374POPC   C3B44217  41.221  19.522   6.908
 3374POPC   C4B44218  41.186  19.249   7.280
 3375POPC   NC344219  21.156  11.039   5.311
 3375POPC   PO444220  21.218  11.690   5.337
 3375POPC   GL144221  21.421  11.550   5.746
 3375POPC   GL244222  21.323  11.198   5.771
 3375POPC   C1A44223  21.567  11.398   6.176
 3375POPC   D2A44224  21.342  11.488   6.579
 3375POPC   C3A44225  21.532  11.319   6.971
 3375POPC   C4A44226  21.456  11.427   7.419
 3375POPC   C1B44227  21.105  11.198   6.162
 3375POPC   C2B44228  21.122  11.005   6.561
 3375POPC   C3B44229  21.039  11.179   6.947
 3375POPC   C4B44230  21.068  10.995   7.297
 3376POPC   NC344231   7.896  33.490   5.527
 3376POPC   PO444232   7.292  33.867   5.506
 3376POPC   GL144233   7.313  33.906   5.925
 3376POPC   GL244234   7.595  34.090   5.886
 3376POPC   C1A44235   7.531  33.620   6.247
 3376POPC   D2A44236   7.741  33.473   6.677
 3376POPC   C3A44237   7.525  33.499   7.085
 3376POPC   C4A44238   7.259  33.811   7.315
 3376POPC   C1B44239   7.579  34.110   6.323
 3376POPC   C2B44240   7.442  33.912   6.699
 3376POPC   C3B44241   7.683  33.981   7.059
 3376POPC   C4B44242   7.587  34.210   7.428
 3377POPC   NC344243  44.424  24.044   5.523
 3377POPC   PO444244  44.324  23.474   5.165
 3377POPC   GL144245  44.590  23.558   5.603
 3377POPC   GL244246  44.875  23.814   5.655
 3377POPC   C1A44247  44.594  23.673   6.080
 3377POPC   D2A44248  44.529  23.609   6.548
 3377POPC   C3A44249  44.868  23.473   6.850
 3377POPC   C4A44250  44.749  23.431   7.285
 3377POPC   C1B44251  44.917  24.093   6.048
 3377POPC   C2B44252   0.016  24.131   6.491
 3377POPC   C3B44253  44.815  23.995   6.911
 3377POPC   C4B44254  44.820  24.156   7.330
 3378POPC   NC344255  30.342  38.139   5.334
 3378POPC   PO444256  30.948  38.362   5.517
 3378POPC   GL144257  30.721  38.418   5.863
 3378POPC   GL244258  30.389  38.394   5.777
 3378POPC   C1A44259  30.785  38.443   6.293
 3378POPC   D2A44260  30.969  38.259   6.592
 3378POPC   C3A44261  30.865  38.471   6.931
 3378POPC   C4A44262  31.069  38.607   7.287
 3378POPC   C1B44263  30.331  38.244   6.198
 3378POPC   C2B44264  30.396  38.370   6.612
 3378POPC   C3B44265  30.366  38.239   7.020
 3378POPC   C4B44266  30.595  38.327   7.350
 3379POPC   NC344267  40.438  44.811   5.398
 3379POPC   PO444268  41.126  44.694   5.288
 3379POPC   GL144269  40.882  44.708   5.673
 3379POPC   GL244270  40.620  44.458   5.752
 3379POPC   C1A44271  40.791  44.803   6.125
 3379POPC   D2A44272  40.895  44.601   6.525
 3379POPC   C3A44273  40.849  44.846   6.908
 3379POPC   C4A44274  41.052  44.589   7.213
 3379POPC   C1B44275  40.553  44.315   6.164
 3379POPC   C2B44276  40.424  44.362   6.570
 3379POPC   C3B44277  40.578  44.422   6.967
 3379POPC   C4B44278  40.498  44.599   7.386
 3380POPC   NC344279  21.986  10.768   5.419
 3380POPC   PO444280  22.474  10.350   5.456
 3380POPC   GL144281  22.243  10.555   5.842
 3380POPC   GL244282  21.991  10.851   5.965
 3380POPC   C1A44283  22.120  10.469   6.276
 3380POPC   D2A44284  22.220  10.144   6.566
 3380POPC   C3A44285  22.323  10.351   6.913
 3380POPC   C4A44286  22.120  10.339   7.286
 3380POPC   C1B44287  22.396  10.905   6.238
 3380POPC   C2B44288  22.598  10.625   6.541
 3380POPC   C3B44289  22.556  10.810   6.951
 3380POPC   C4B44290  22.276  10.816   7.289
 3381POPC   NC344291  20.020   2.228   5.365
 3381POPC   PO444292  20.178   1.667   5.570
 3381POPC   GL144293  19.947   1.995   5.839
 3381POPC   GL244294  19.666   2.277   5.880
 3381POPC   C1A44295  19.817   1.988   6.275
 3381POPC   D2A44296  19.711   1.713   6.598
 3381POPC   C3A44297  19.786   1.954   6.912
 3381POPC   C4A44298  19.560   1.850   7.241
 3381POPC   C1B44299  19.476   2.386   6.292
 3381POPC   C2B44300  19.616   2.528   6.713
 3381POPC   C3B44301  19.537   2.353   7.126
 3381POPC   C4B44302  19.386   2.205   7.550
 3382POPC   NC344303   6.163  39.412   5.481
 3382POPC   PO444304   5.627  39.023   5.332
 3382POPC   GL144305   5.723  39.250   5.743
 3382POPC   GL244306   5.716  39.622   5.813
 3382POPC   C1A44307   5.874  39.218   6.171
 3382POPC   D2A44308   5.649  39.216   6.571
 3382POPC   C3A44309   5.891  39.193   6.938
 3382POPC   C4A44310   6.031  39.111   7.344
 3382POPC   C1B44311   6.065  39.693   6.134
 3382POPC   C2B44312   6.119  39.506   6.529
 3382POPC   C3B44313   6.184  39.622   6.950
 3382POPC   C4B44314   5.884  39.617   7.263
 3383POPC   NC344315   3.955  16.528   5.634
 3383POPC   PO444316   3.325  16.505   5.365
 3383POPC   GL144317   3.499  16.649   5.777
 3383POPC   GL244318   3.710  16.982   5.791
 3383POPC   C1A44319   3.634  16.566   6.203
 3383POPC   D2A44320   3.445  16.512   6.590
 3383POPC   C3A44321   3.673  16.551   6.943
 3383POPC   C4A44322   3.384  16.596   7.246
 3383POPC   C1B44323   3.510  17.057   6.195
 3383POPC   C2B44324   3.580  16.998   6.659
 3383POPC   C3B44325   3.462  17.103   7.126
 3383POPC   C4B44326   3.528  17.219   7.612
 3384POPC   NC344327   3.633  36.340   5.413
 3384POPC   PO444328   3.503  35.709   5.566
 3384POPC   GL144329   3.467  36.054   5.863
 3384POPC   GL244330   3.354  36.419   5.837
 3384POPC   C1A44331   3.378  35.992   6.282
 3384POPC   D2A44332   3.631  35.986   6.639
 3384POPC   C3A44333   3.355  35.971   6.969
 3384POPC   C4A44334   3.506  36.050   7.363
 3384POPC   C1B44335   3.540  36.497   6.246
 3384POPC   C2B44336   3.727  36.496   6.716
 3384POPC   C3B44337   3.733  36.572   7.188
 3384POPC   C4B44338   3.486  36.506   7.601
 3385POPC   NC344339  43.684  28.386   5.421
 3385POPC   PO444340  44.296  28.485   5.657
 3385POPC   GL144341  44.032  28.496   6.005
 3385POPC   GL244342  43.740  28.606   5.886
 3385POPC   C1A44343  43.915  28.609   6.441
 3385POPC   D2A44344  44.028  28.411   6.844
 3385POPC   C3A44345  43.976  28.607   7.230
 3385POPC   C4A44346  44.033  28.401   7.604
 3385POPC   C1B44347  43.535  28.345   6.198
 3385POPC   C2B44348  43.435  28.497   6.625
 3385POPC   C3B44349  43.510  28.449   7.076
 3385POPC   C4B44350  43.575  28.272   7.481
 3386POPC   NC344351  25.951  18.535   5.206
 3386POPC   PO444352  25.828  17.899   5.198
 3386POPC   GL144353  26.000  18.076   5.602
 3386POPC   GL244354  25.944  18.413   5.728
 3386POPC   C1A44355  26.197  18.085   6.052
 3386POPC   D2A44356  26.104  18.285   6.465
 3386POPC   C3A44357  25.911  18.090   6.836
 3386POPC   C4A44358  26.050  18.062   7.252
 3386POPC   C1B44359  26.207  18.615   6.063
 3386POPC   C2B44360  26.085  18.804   6.461
 3386POPC   C3B44361  26.159  18.608   6.882
 3386POPC   C4B44362  26.117  18.614   7.342
 3387POPC   NC344363  21.224   1.046   5.430
 3387POPC   PO444364  21.271   1.722   5.456
 3387POPC   GL144365  21.405   1.431   5.800
 3387POPC   GL244366  21.713   1.230   5.750
 3387POPC   C1A44367  21.383   1.344   6.269
 3387POPC   D2A44368  21.258   1.089   6.638
 3387POPC   C3A44369  21.084   1.240   7.079
 3387POPC   C4A44370  21.003   1.168   7.571
 3387POPC   C1B44371  21.892   1.295   6.182
 3387POPC   C2B44372  21.787   1.087   6.594
 3387POPC   C3B44373  21.599   1.140   7.018
 3387POPC   C4B44374  21.473   1.292   7.431
 3388POPC   NC344375  43.841  33.371   5.171
 3388POPC   PO444376  44.286  32.898   5.390
 3388POPC   GL144377  43.992  32.871   5.737
 3388POPC   GL244378  43.914  33.207   5.782
 3388POPC   C1A44379  44.030  32.976   6.209
 3388POPC   D2A44380  43.810  33.015   6.591
 3388POPC   C3A44381  43.992  33.121   6.967
 3388POPC   C4A44382  44.122  33.122   7.386
 3388POPC   C1B44383  43.632  33.297   6.163
 3388POPC   C2B44384  43.484  33.408   6.579
 3388POPC   C3B44385  43.514  33.336   6.989
 3388POPC   C4B44386  43.609  33.032   7.302
 3389POPC   NC344387  36.886  18.138   5.389
 3389POPC   PO444388  36.734  18.688   5.718
 3389POPC   GL144389  37.015  18.274   5.859
 3389POPC   GL244390  36.837  17.914   5.842
 3389POPC   C1A44391  37.156  18.033   6.247
 3389POPC   D2A44392  36.963  18.095   6.680
 3389POPC   C3A44393  37.159  18.192   7.106
 3389POPC   C4A44394  37.210  18.335   7.542
 3389POPC   C1B44395  36.605  17.898   6.240
 3389POPC   C2B44396  36.579  17.738   6.674
 3389POPC   C3B44397  36.586  18.027   7.036
 3389POPC   C4B44398  36.699  18.144   7.437
 3390POPC   NC344399  36.946  11.854   5.374
 3390POPC   PO444400  37.295  12.392   5.513
 3390POPC   GL144401  36.989  12.189   5.810
 3390POPC   GL244402  37.053  11.832   5.855
 3390POPC   C1A44403  36.762  12.253   6.232
 3390POPC   D2A44404  36.886  12.460   6.634
 3390POPC   C3A44405  37.073  12.268   6.981
 3390POPC   C4A44406  36.745  12.101   7.239
 3390POPC   C1B44407  36.992  11.794   6.255
 3390POPC   C2B44408  36.907  11.930   6.645
 3390POPC   C3B44409  36.720  11.675   6.943
 3390POPC   C4B44410  36.505  11.546   7.282
 3391POPC   NC344411  27.221  32.148   5.463
 3391POPC   PO444412  26.489  32.297   5.506
 3391POPC   GL144413  26.798  32.123   5.805
 3391POPC   GL244414  27.019  32.375   5.917
 3391POPC   C1A44415  26.712  32.103   6.258
 3391POPC   D2A44416  26.620  32.117   6.705
 3391POPC   C3A44417  26.688  32.329   7.101
 3391POPC   C4A44418  26.472  32.452   7.508
 3391POPC   C1B44419  27.035  32.537   6.353
 3391POPC   C2B44420  26.917  32.681   6.796
 3391POPC   C3B44421  27.149  32.537   7.194
 3391POPC   C4B44422  27.324  32.292   7.561
 3392POPC   NC344423  33.343  35.808   5.768
 3392POPC   PO444424  32.844  36.152   5.416
 3392POPC   GL144425  32.974  36.166   5.860
 3392POPC   GL244426  32.927  35.839   6.060
 3392POPC   C1A44427  33.061  36.355   6.264
 3392POPC   D2A44428  32.811  36.385   6.639
 3392POPC   C3A44429  33.036  36.545   6.994
 3392POPC   C4A44430  32.976  36.310   7.351
 3392POPC   C1B44431  33.054  35.901   6.496
 3392POPC   C2B44432  33.318  36.224   6.715
 3392POPC   C3B44433  33.377  36.071   7.120
 3392POPC   C4B44434  33.104  35.723   7.168
 3393POPC   NC344435   0.094  36.226   5.420
 3393POPC   PO444436  44.431  36.016   5.467
 3393POPC   GL144437  44.676  36.237   5.734
 3393POPC   GL244438  44.880  35.953   5.857
 3393POPC   C1A44439  44.670  36.371   6.151
 3393POPC   D2A44440  44.579  36.143   6.534
 3393POPC   C3A44441  44.633  36.358   6.931
 3393POPC   C4A44442  44.481  36.258   7.350
 3393POPC   C1B44443  44.644  35.691   6.192
 3393POPC   C2B44444  44.665  35.549   6.641
 3393POPC   C3B44445  44.637  35.846   6.966
 3393POPC   C4B44446  44.941  36.013   7.221
 3394POPC   NC344447  27.904  17.110   5.540
 3394POPC   PO444448  27.435  16.491   5.526
 3394POPC   GL144449  27.650  16.666   5.851
 3394POPC   GL244450  27.535  17.029   5.909
 3394POPC   C1A44451  27.467  16.616   6.241
 3394POPC   D2A44452  27.468  16.842   6.597
 3394POPC   C3A44453  27.614  16.670   6.957
 3394POPC   C4A44454  27.351  16.574   7.274
 3394POPC   C1B44455  27.861  16.952   6.243
 3394POPC   C2B44456  28.023  16.926   6.673
 3394POPC   C3B44457  27.923  17.107   7.088
 3394POPC   C4B44458  27.677  16.987   7.448
 3395POPC   NC344459   3.371   0.147   5.514
 3395POPC   PO444460   3.720   0.583   5.169
 3395POPC   GL144461   3.621   0.556   5.697
 3395POPC   GL244462   3.683   0.269   5.902
 3395POPC   C1A44463   3.533   0.639   6.215
 3395POPC   D2A44464   3.365   0.797   6.656
 3395POPC   C3A44465   3.290   0.525   6.991
 3395POPC   C4A44466   3.142   0.224   7.256
 3395POPC   C1B44467   3.996   0.354   6.184
 3395POPC   C2B44468   3.899   0.265   6.591
 3395POPC   C3B44469   3.853   0.469   6.945
 3395POPC   C4B44470   3.669   0.438   7.325
 3396POPC   NC344471  39.398  18.892   5.442
 3396POPC   PO444472  38.937  19.181   5.506
 3396POPC   GL144473  39.067  18.889   5.843
 3396POPC   GL244474  39.457  18.860   5.953
 3396POPC   C1A44475  39.046  18.972   6.269
 3396POPC   D2A44476  39.132  19.259   6.588
 3396POPC   C3A44477  39.095  19.003   6.926
 3396POPC   C4A44478  39.053  18.718   7.223
 3396POPC   C1B44479  39.487  19.276   6.189
 3396POPC   C2B44480  39.594  19.495   6.595
 3396POPC   C3B44481  39.479  19.357   7.011
 3396POPC   C4B44482  39.540  18.930   7.234
 3397POPC   NC344483   2.678  34.680   5.136
 3397POPC   PO444484   3.046  34.298   5.568
 3397POPC   GL144485   2.791  34.379   5.865
 3397POPC   GL244486   2.562  34.594   5.659
 3397POPC   C1A44487   2.808  34.414   6.317
 3397POPC   D2A44488   2.537  34.310   6.637
 3397POPC   C3A44489   2.733  34.347   7.031
 3397POPC   C4A44490   2.954  34.394   7.398
 3397POPC   C1B44491   2.667  34.840   6.047
 3397POPC   C2B44492   2.984  34.899   6.377
 3397POPC   C3B44493   2.763  34.780   6.746
 3397POPC   C4B44494   2.663  34.834   7.177
 3398POPC   NC344495  44.827  43.462   5.489
 3398POPC   PO444496  44.563  44.134   5.319
 3398POPC   GL144497  44.592  44.160   5.757
 3398POPC   GL244498  44.867  43.915   5.790
 3398POPC   C1A44499  44.532  44.128   6.211
 3398POPC   D2A44500  44.339  44.119   6.611
 3398POPC   C3A44501  44.565  44.152   6.990
 3398POPC   C4A44502  44.916  44.126   7.315
 3398POPC   C1B44503   0.008  43.950   6.216
 3398POPC   C2B44504  44.932  43.997   6.648
 3398POPC   C3B44505  44.855  43.735   6.999
 3398POPC   C4B44506  44.748  43.533   7.359
 3399POPC   NC344507  25.820   0.895   5.359
 3399POPC   PO444508  26.178   0.361   5.484
 3399POPC   GL144509  26.048   0.669   5.792
 3399POPC   GL244510  25.683   0.774   5.845
 3399POPC   C1A44511  26.112   0.660   6.243
 3399POPC   D2A44512  26.443   0.620   6.562
 3399POPC   C3A44513  26.286   0.555   6.987
 3399POPC   C4A44514  26.171   0.165   7.189
 3399POPC   C1B44515  25.698   0.379   6.068
 3399POPC   C2B44516  25.606   0.276   6.495
 3399POPC   C3B44517  25.786   0.316   6.886
 3399POPC   C4B44518  25.660   0.310   7.298
 3400POPC   NC344519  12.999  31.584   5.015
 3400POPC   PO444520  12.753  31.810   5.598
 3400POPC   GL144521  12.846  31.545   5.942
 3400POPC   GL244522  12.486  31.477   5.927
 3400POPC   C1A44523  13.001  31.638   6.381
 3400POPC   D2A44524  13.066  31.693   6.814
 3400POPC   C3A44525  13.015  31.489   7.224
 3400POPC   C4A44526  13.048  31.052   7.408
 3400POPC   C1B44527  12.518  31.424   6.355
 3400POPC   C2B44528  12.307  31.387   6.746
 3400POPC   C3B44529  12.541  31.365   7.123
 3400POPC   C4B44530  12.642  31.353   7.554
 3401POPC   NC344531  41.700  20.213   5.640
 3401POPC   PO444532  41.659  19.606   5.217
 3401POPC   GL144533  41.608  19.543   5.721
 3401POPC   GL244534  41.507  19.794   5.825
 3401POPC   C1A44535  41.779  19.492   6.157
 3401POPC   D2A44536  41.736  19.698   6.563
 3401POPC   C3A44537  41.723  19.485   6.959
 3401POPC   C4A44538  41.554  19.793   7.240
 3401POPC   C1B44539  41.392  19.866   6.217
 3401POPC   C2B44540  41.207  20.000   6.568
 3401POPC   C3B44541  41.171  20.045   6.977
 3401POPC   C4B44542  41.151  20.083   7.383
 3402POPC   NC344543   3.714  11.899   5.492
 3402POPC   PO444544   4.411  11.846   5.300
 3402POPC   GL144545   4.222  12.000   5.720
 3402POPC   GL244546   4.388  12.311   5.896
 3402POPC   C1A44547   4.035  12.025   6.174
 3402POPC   D2A44548   3.916  12.208   6.606
 3402POPC   C3A44549   3.942  11.947   6.995
 3402POPC   C4A44550   4.354  11.759   7.042
 3402POPC   C1B44551   4.254  12.511   6.321
 3402POPC   C2B44552   4.326  12.507   6.776
 3402POPC   C3B44553   4.105  12.404   7.185
 3402POPC   C4B44554   3.962  12.277   7.612
 3403POPC   NC344555  23.386   2.724   5.506
 3403POPC   PO444556  24.037   2.498   5.241
 3403POPC   GL144557  23.896   2.665   5.673
 3403POPC   GL244558  24.012   2.409   5.873
 3403POPC   C1A44559  23.701   2.811   6.106
 3403POPC   D2A44560  23.531   2.990   6.521
 3403POPC   C3A44561  23.559   2.833   6.952
 3403POPC   C4A44562  23.355   2.474   7.128
 3403POPC   C1B44563  24.047   2.505   6.320
 3403POPC   C2B44564  23.842   2.469   6.722
 3403POPC   C3B44565  23.862   2.448   7.156
 3403POPC   C4B44566  24.038   2.753   7.422
 3404POPC   NC344567  27.934   6.799   5.409
 3404POPC   PO444568  27.453   6.239   5.448
 3404POPC   GL144569  27.757   6.445   5.751
 3404POPC   GL244570  27.616   6.801   5.802
 3404POPC   C1A44571  27.836   6.562   6.211
 3404POPC   D2A44572  27.792   6.844   6.573
 3404POPC   C3A44573  27.744   6.741   7.026
 3404POPC   C4A44574  27.820   7.124   7.284
 3404POPC   C1B44575  27.366   6.850   6.191
 3404POPC   C2B44576  27.296   6.759   6.635
 3404POPC   C3B44577  27.427   7.102   6.891
 3404POPC   C4B44578  27.326   7.284   7.266
 3405POPC   NC344579   9.921  29.010   5.162
 3405POPC   PO444580   9.330  29.003   5.481
 3405POPC   GL144581   9.539  29.089   5.889
 3405POPC   GL244582   9.925  29.099   5.982
 3405POPC   C1A44583   9.602  29.134   6.358
 3405POPC   D2A44584   9.844  29.004   6.720
 3405POPC   C3A44585   9.515  28.944   7.050
 3405POPC   C4A44586   9.600  29.281   7.309
 3405POPC   C1B44587  10.106  29.365   6.353
 3405POPC   C2B44588  10.255  29.423   6.800
 3405POPC   C3B44589  10.045  29.525   7.204
 3405POPC   C4B44590   9.888  29.556   7.647
 3406POPC   NC344591  27.694   2.549   5.661
 3406POPC   PO444592  27.975   3.196   5.421
 3406POPC   GL144593  27.732   3.064   5.785
 3406POPC   GL244594  27.951   2.853   5.975
 3406POPC   C1A44595  27.399   2.986   6.147
 3406POPC   D2A44596  27.222   2.695   6.475
 3406POPC   C3A44597  27.368   2.705   6.909
 3406POPC   C4A44598  27.366   2.880   7.335
 3406POPC   C1B44599  27.844   3.183   6.268
 3406POPC   C2B44600  27.643   3.068   6.636
 3406POPC   C3B44601  27.757   3.005   7.057
 3406POPC   C4B44602  27.821   3.012   7.546
 3407POPC   NC344603  33.319   7.880   5.475
 3407POPC   PO444604  33.897   8.152   5.604
 3407POPC   GL144605  33.723   8.300   5.958
 3407POPC   GL244606  33.480   8.041   5.948
 3407POPC   C1A44607  33.753   8.461   6.383
 3407POPC   D2A44608  33.560   8.413   6.753
 3407POPC   C3A44609  33.772   8.644   7.043
 3407POPC   C4A44610  34.207   8.637   7.132
 3407POPC   C1B44611  33.559   7.990   6.391
 3407POPC   C2B44612  33.868   7.961   6.740
 3407POPC   C3B44613  33.837   8.153   7.085
 3407POPC   C4B44614  33.449   8.218   7.235
 3408POPC   NC344615  13.862  24.262   5.274
 3408POPC   PO444616  13.323  24.698   5.464
 3408POPC   GL144617  13.377  24.480   5.854
 3408POPC   GL244618  13.678  24.426   5.732
 3408POPC   C1A44619  13.396  24.540   6.296
 3408POPC   D2A44620  13.454  24.688   6.740
 3408POPC   C3A44621  13.387  24.341   7.068
 3408POPC   C4A44622  13.292  24.263   7.488
 3408POPC   C1B44623  13.865  24.513   6.127
 3408POPC   C2B44624  13.933  24.581   6.554
 3408POPC   C3B44625  13.865  24.442   6.971
 3408POPC   C4B44626  13.843  24.652   7.391
 3409POPC   NC344627  42.396  16.994   5.515
 3409POPC   PO444628  42.420  16.357   5.382
 3409POPC   GL144629  42.262  16.584   5.790
 3409POPC   GL244630  41.915  16.588   5.818
 3409POPC   C1A44631  42.171  16.881   6.180
 3409POPC   D2A44632  42.260  17.083   6.608
 3409POPC   C3A44633  42.573  16.838   6.848
 3409POPC   C4A44634  42.507  16.622   7.223
 3409POPC   C1B44635  41.868  16.480   6.250
 3409POPC   C2B44636  42.037  16.600   6.661
 3409POPC   C3B44637  42.011  16.703   7.117
 3409POPC   C4B44638  41.848  16.445   7.478
 3410POPC   NC344639  22.605  13.570   5.308
 3410POPC   PO444640  23.201  13.360   5.314
 3410POPC   GL144641  23.010  13.390   5.742
 3410POPC   GL244642  22.841  13.698   5.840
 3410POPC   C1A44643  22.887  13.288   6.175
 3410POPC   D2A44644  22.878  13.206   6.609
 3410POPC   C3A44645  22.594  13.324   6.924
 3410POPC   C4A44646  22.794  13.622   7.129
 3410POPC   C1B44647  23.074  13.760   6.260
 3410POPC   C2B44648  23.127  13.666   6.720
 3410POPC   C3B44649  23.254  13.842   7.150
 3410POPC   C4B44650  23.059  14.181   7.430
 3411POPC   NC344651  36.811  17.397   5.470
 3411POPC   PO444652  37.249  17.856   5.513
 3411POPC   GL144653  37.193  17.533   5.820
 3411POPC   GL244654  37.229  17.154   5.765
 3411POPC   C1A44655  36.960  17.535   6.216
 3411POPC   D2A44656  37.171  17.633   6.602
 3411POPC   C3A44657  37.003  17.696   7.006
 3411POPC   C4A44658  36.680  17.594   7.284
 3411POPC   C1B44659  37.357  17.230   6.200
 3411POPC   C2B44660  37.099  17.134   6.577
 3411POPC   C3B44661  37.154  17.179   6.991
 3411POPC   C4B44662  37.174  17.364   7.360
 3412POPC   NC344663   7.689  41.359   5.602
 3412POPC   PO444664   7.165  41.600   5.261
 3412POPC   GL144665   7.211  41.508   5.735
 3412POPC   GL244666   7.464  41.711   5.926
 3412POPC   C1A44667   7.145  41.485   6.228
 3412POPC   D2A44668   7.310  41.387   6.628
 3412POPC   C3A44669   7.324  41.711   6.880
 3412POPC   C4A44670   7.091  41.541   7.208
 3412POPC   C1B44671   7.666  41.404   6.241
 3412POPC   C2B44672   7.760  41.172   6.630
 3412POPC   C3B44673   7.710  41.351   7.034
 3412POPC   C4B44674   7.563  41.709   7.315
 3413POPC   NC344675   0.077   6.241   5.625
 3413POPC   PO444676  44.504   5.999   5.317
 3413POPC   GL144677  44.536   5.914   5.833
 3413POPC   GL244678  44.784   6.128   6.006
 3413POPC   C1A44679  44.589   5.628   6.189
 3413POPC   D2A44680  44.484   5.685   6.628
 3413POPC   C3A44681  44.771   5.654   6.981
 3413POPC   C4A44682  44.477   5.585   7.311
 3413POPC   C1B44683  44.948   6.270   6.392
 3413POPC   C2B44684  44.724   6.133   6.725
 3413POPC   C3B44685  44.661   6.160   7.139
 3413POPC   C4B44686  44.998   6.265   7.419
 3414POPC   NC344687  42.111  24.060   5.487
 3414POPC   PO444688  42.279  24.708   5.464
 3414POPC   GL144689  42.084  24.478   5.790
 3414POPC   GL244690  42.186  24.695   6.023
 3414POPC   C1A44691  41.977  24.309   6.229
 3414POPC   D2A44692  42.199  24.506   6.590
 3414POPC   C3A44693  42.097  24.510   7.047
 3414POPC   C4A44694  42.240  24.325   7.445
 3414POPC   C1B44695  42.494  24.388   6.147
 3414POPC   C2B44696  42.708  24.386   6.546
 3414POPC   C3B44697  42.564  24.289   6.973
 3414POPC   C4B44698  42.578  24.652   7.268
 3415POPC   NC344699  32.007  44.867   5.697
 3415POPC   PO444700  31.460  44.599   5.411
 3415POPC   GL144701  31.496  44.860   5.784
 3415POPC   GL244702  31.268  44.639   5.916
 3415POPC   C1A44703  31.567  44.847   6.270
 3415POPC   D2A44704  31.546  44.973   6.720
 3415POPC   C3A44705  31.670  44.688   7.059
 3415POPC   C4A44706  31.647  44.759   7.508
 3415POPC   C1B44707  31.117  44.401   6.237
 3415POPC   C2B44708  31.240  44.534   6.632
 3415POPC   C3B44709  31.151  44.729   7.017
 3415POPC   C4B44710  31.269  44.456   7.335
 3416POPC   NC344711  44.512  28.081   5.548
 3416POPC   PO444712  44.723  28.667   5.346
 3416POPC   GL144713  44.813  28.452   5.790
 3416POPC   GL244714  44.564  28.533   6.074
 3416POPC   C1A44715  44.791  28.124   6.157
 3416POPC   D2A44716  44.723  28.296   6.571
 3416POPC   C3A44717  44.695  28.058   6.961
 3416POPC   C4A44718  44.400  28.252   7.247
 3416POPC   C1B44719  44.925  28.721   6.287
 3416POPC   C2B44720   0.097  28.808   6.702
 3416POPC   C3B44721  44.913  28.540   7.000
 3416POPC   C4B44722  44.949  28.447   7.429
 3417POPC   NC344723   9.569   5.020   5.631
 3417POPC   PO444724   9.786   5.497   5.176
 3417POPC   GL144725   9.885   5.476   5.648
 3417POPC   GL244726  10.106   5.249   5.755
 3417POPC   C1A44727   9.758   5.452   6.118
 3417POPC   D2A44728   9.947   5.464   6.547
 3417POPC   C3A44729   9.723   5.346   6.906
 3417POPC   C4A44730   9.692   4.986   7.097
 3417POPC   C1B44731  10.109   5.082   6.198
 3417POPC   C2B44732  10.309   5.098   6.621
 3417POPC   C3B44733  10.187   5.156   7.044
 3417POPC   C4B44734  10.132   4.751   7.203
 3418POPC   NC344735  23.163  22.626   5.467
 3418POPC   PO444736  22.672  23.164   5.373
 3418POPC   GL144737  22.828  23.155   5.790
 3418POPC   GL244738  22.922  22.828   5.867
 3418POPC   C1A44739  22.741  23.124   6.240
 3418POPC   D2A44740  22.888  22.972   6.636
 3418POPC   C3A44741  22.857  23.192   7.001
 3418POPC   C4A44742  22.666  23.137   7.418
 3418POPC   C1B44743  22.861  22.603   6.258
 3418POPC   C2B44744  22.763  22.490   6.698
 3418POPC   C3B44745  22.744  22.703   7.120
 3418POPC   C4B44746  23.075  22.830   7.458
 3419POPC   NC344747  41.941  10.917   5.393
 3419POPC   PO444748  41.489  11.495   5.331
 3419POPC   GL144749  41.535  11.205   5.708
 3419POPC   GL244750  41.851  11.118   5.850
 3419POPC   C1A44751  41.405  11.143   6.162
 3419POPC   D2A44752  41.173  11.298   6.554
 3419POPC   C3A44753  41.339  11.184   6.961
 3419POPC   C4A44754  41.677  11.237   7.169
 3419POPC   C1B44755  41.853  11.452   6.148
 3419POPC   C2B44756  42.024  11.453   6.560
 3419POPC   C3B44757  41.901  11.639   6.932
 3419POPC   C4B44758  41.699  11.716   7.288
 3420POPC   NC344759  38.603  25.572   5.458
 3420POPC   PO444760  38.300  25.006   5.323
 3420POPC   GL144761  38.339  25.255   5.750
 3420POPC   GL244762  38.692  25.259   5.861
 3420POPC   C1A44763  38.358  25.448   6.179
 3420POPC   D2A44764  38.592  25.293   6.554
 3420POPC   C3A44765  38.390  25.334   7.001
 3420POPC   C4A44766  38.401  25.380   7.500
 3420POPC   C1B44767  38.772  24.926   6.147
 3420POPC   C2B44768  38.904  24.853   6.547
 3420POPC   C3B44769  38.764  24.984   6.921
 3420POPC   C4B44770  38.917  25.055   7.297
 3421POPC   NC344771   6.873  19.586   5.522
 3421POPC   PO444772   6.287  20.083   5.522
 3421POPC   GL144773   6.606  19.910   5.815
 3421POPC   GL244774   6.921  20.076   5.789
 3421POPC   C1A44775   6.548  19.715   6.229
 3421POPC   D2A44776   6.564  19.987   6.605
 3421POPC   C3A44777   6.572  19.733   6.951
 3421POPC   C4A44778   6.455  19.443   7.255
 3421POPC   C1B44779   7.036  19.800   6.153
 3421POPC   C2B44780   6.942  19.642   6.579
 3421POPC   C3B44781   7.079  19.769   7.004
 3421POPC   C4B44782   6.827  19.785   7.395
 3422POPC   NC344783  40.840   7.749   5.375
 3422POPC   PO444784  40.735   6.993   5.365
 3422POPC   GL144785  40.657   7.345   5.681
 3422POPC   GL244786  40.944   7.507   5.850
 3422POPC   C1A44787  40.575   7.320   6.148
 3422POPC   D2A44788  40.706   7.222   6.595
 3422POPC   C3A44789  40.727   7.457   6.992
 3422POPC   C4A44790  40.564   7.306   7.398
 3422POPC   C1B44791  41.002   7.576   6.295
 3422POPC   C2B44792  41.182   7.444   6.687
 3422POPC   C3B44793  41.203   7.322   7.117
 3422POPC   C4B44794  40.999   7.529   7.449
 3423POPC   NC344795  12.572  40.774   5.557
 3423POPC   PO444796  13.023  40.497   5.139
 3423POPC   GL144797  13.058  40.825   5.599
 3423POPC   GL244798  12.901  41.128   5.745
 3423POPC   C1A44799  12.984  40.795   6.122
 3423POPC   D2A44800  13.157  40.761   6.589
 3423POPC   C3A44801  12.939  40.635   6.981
 3423POPC   C4A44802  13.135  40.722   7.369
 3423POPC   C1B44803  12.945  41.316   6.141
 3423POPC   C2B44804  13.019  41.271   6.571
 3423POPC   C3B44805  13.043  41.143   6.979
 3423POPC   C4B44806  12.736  41.064   7.264
 3424POPC   NC344807  11.900  35.872   5.485
 3424POPC   PO444808  12.296  36.494   5.405
 3424POPC   GL144809  12.263  36.267   5.783
 3424POPC   GL244810  12.345  35.891   5.771
 3424POPC   C1A44811  12.039  36.427   6.143
 3424POPC   D2A44812  11.929  36.252   6.520
 3424POPC   C3A44813  12.026  36.392   6.943
 3424POPC   C4A44814  12.021  36.256   7.377
 3424POPC   C1B44815  12.267  35.954   6.224
 3424POPC   C2B44816  12.378  36.043   6.667
 3424POPC   C3B44817  12.259  35.900   7.089
 3424POPC   C4B44818  12.329  35.847   7.536
 3425POPC   NC344819  32.281  13.109   5.453
 3425POPC   PO444820  32.292  12.544   5.221
 3425POPC   GL144821  32.261  12.601   5.681
 3425POPC   GL244822  32.583  12.755   5.771
 3425POPC   C1A44823  32.157  12.798   6.088
 3425POPC   D2A44824  32.212  12.877   6.544
 3425POPC   C3A44825  32.163  13.162   6.904
 3425POPC   C4A44826  32.031  13.021   7.319
 3425POPC   C1B44827  32.659  12.722   6.244
 3425POPC   C2B44828  32.531  12.489   6.642
 3425POPC   C3B44829  32.469  12.649   7.075
 3425POPC   C4B44830  32.532  13.045   7.301
 3426POPC   NC344831  16.052  23.914   5.266
 3426POPC   PO444832  15.750  23.312   5.447
 3426POPC   GL144833  15.994  23.590   5.696
 3426POPC   GL244834  15.783  23.867   5.710
 3426POPC   C1A44835  16.095  23.664   6.147
 3426POPC   D2A44836  16.017  23.627   6.612
 3426POPC   C3A44837  16.217  23.891   6.956
 3426POPC   C4A44838  16.051  24.088   7.342
 3426POPC   C1B44839  15.562  23.689   6.085
 3426POPC   C2B44840  15.482  23.763   6.546
 3426POPC   C3B44841  15.670  23.889   6.950
 3426POPC   C4B44842  15.682  23.718   7.357
 3427POPC   NC344843   6.854  33.860   5.630
 3427POPC   PO444844   6.223  33.796   5.392
 3427POPC   GL144845   6.391  33.757   5.821
 3427POPC   GL244846   6.556  33.452   5.710
 3427POPC   C1A44847   6.615  33.979   6.193
 3427POPC   D2A44848   6.683  34.193   6.575
 3427POPC   C3A44849   6.891  33.971   6.877
 3427POPC   C4A44850   6.743  33.880   7.260
 3427POPC   C1B44851   6.719  33.451   6.144
 3427POPC   C2B44852   6.718  33.613   6.553
 3427POPC   C3B44853   6.522  33.517   6.936
 3427POPC   C4B44854   6.667  33.363   7.309
 3428POPC   NC344855   8.653   8.282   5.432
 3428POPC   PO444856   9.168   7.960   5.234
 3428POPC   GL144857   9.045   8.101   5.735
 3428POPC   GL244858   8.706   8.068   5.893
 3428POPC   C1A44859   9.042   8.279   6.203
 3428POPC   D2A44860   9.194   8.094   6.600
 3428POPC   C3A44861   9.098   8.405   6.947
 3428POPC   C4A44862   9.139   8.482   7.379
 3428POPC   C1B44863   8.802   7.839   6.270
 3428POPC   C2B44864   8.626   7.751   6.655
 3428POPC   C3B44865   8.815   7.829   7.033
 3428POPC   C4B44866   8.671   7.885   7.451
 3429POPC   NC344867  14.904  34.777   5.261
 3429POPC   PO444868  15.210  34.230   5.385
 3429POPC   GL144869  15.117  34.568   5.720
 3429POPC   GL244870  15.278  34.909   5.725
 3429POPC   C1A44871  15.019  34.468   6.183
 3429POPC   D2A44872  14.841  34.527   6.617
 3429POPC   C3A44873  15.112  34.364   6.859
 3429POPC   C4A44874  15.292  34.355   7.249
 3429POPC   C1B44875  15.470  34.718   6.064
 3429POPC   C2B44876  15.382  34.690   6.493
 3429POPC   C3B44877  15.462  34.759   6.919
 3429POPC   C4B44878  15.351  34.844   7.323
 3430POPC   NC344879  11.481  38.234   5.230
 3430POPC   PO444880  10.858  38.472   5.388
 3430POPC   GL144881  11.192  38.404   5.704
 3430POPC   GL244882  11.029  38.713   5.819
 3430POPC   C1A44883  11.370  38.116   6.094
 3430POPC   D2A44884  11.612  38.029   6.523
 3430POPC   C3A44885  11.438  38.149   6.950
 3430POPC   C4A44886  11.432  38.554   7.173
 3430POPC   C1B44887  11.049  38.505   6.202
 3430POPC   C2B44888  11.308  38.485   6.555
 3430POPC   C3B44889  11.098  38.727   6.840
 3430POPC   C4B44890  10.965  38.792   7.256
 3431POPC   NC344891   0.327  33.886   5.296
 3431POPC   PO444892   0.378  34.610   5.345
 3431POPC   GL144893   0.383  34.670   5.798
 3431POPC   GL244894   0.128  34.885   5.919
 3431POPC   C1A44895   0.478  34.448   6.214
 3431POPC   D2A44896   0.621  34.217   6.641
 3431POPC   C3A44897   0.301  34.235   7.010
 3431POPC   C4A44898   0.309  34.437   7.442
 3431POPC   C1B44899   0.258  34.890   6.352
 3431POPC   C2B44900   0.533  34.712   6.660
 3431POPC   C3B44901   0.667  34.597   7.062
 3431POPC   C4B44902   0.605  34.852   7.407
 3432POPC   NC344903  40.093  22.730   5.364
 3432POPC   PO444904  39.618  23.122   5.304
 3432POPC   GL144905  39.791  23.110   5.734
 3432POPC   GL244906  40.168  23.111   5.759
 3432POPC   C1A44907  39.755  22.758   6.033
 3432POPC   D2A44908  39.800  22.566   6.441
 3432POPC   C3A44909  40.077  22.787   6.720
 3432POPC   C4A44910  39.994  22.832   7.147
 3432POPC   C1B44911  40.144  23.052   6.217
 3432POPC   C2B44912  39.905  23.232   6.572
 3432POPC   C3B44913  40.167  23.289   6.933
 3432POPC   C4B44914  40.257  23.220   7.343
 3433POPC   NC344915  30.390  20.766   5.555
 3433POPC   PO444916  29.785  20.495   5.409
 3433POPC   GL144917  30.013  20.524   5.825
 3433POPC   GL244918  30.372  20.344   5.844
 3433POPC   C1A44919  29.866  20.692   6.250
 3433POPC   D2A44920  29.726  20.926   6.632
 3433POPC   C3A44921  29.844  20.758   7.019
 3433POPC   C4A44922  29.867  20.594   7.425
 3433POPC   C1B44923  30.168  20.273   6.252
 3433POPC   C2B44924  29.956  20.372   6.653
 3433POPC   C3B44925  30.174  20.362   7.056
 3433POPC   C4B44926  30.119  20.143   7.440
 3434POPC   NC344927  23.100  17.436   5.577
 3434POPC   PO444928  23.361  17.983   5.740
 3434POPC   GL144929  23.020  17.710   6.006
 3434POPC   GL244930  22.781  17.375   5.971
 3434POPC   C1A44931  23.071  17.426   6.388
 3434POPC   D2A44932  23.172  17.141   6.741
 3434POPC   C3A44933  22.933  17.271   7.093
 3434POPC   C4A44934  22.988  17.664   7.342
 3434POPC   C1B44935  22.588  17.604   6.331
 3434POPC   C2B44936  22.753  17.635   6.771
 3434POPC   C3B44937  22.522  17.587   7.148
 3434POPC   C4B44938  22.603  17.368   7.519
 3435POPC   NC344939   1.768  44.972   5.523
 3435POPC   PO444940   2.158  44.432   5.364
 3435POPC   GL144941   2.069  44.612   5.774
 3435POPC   GL244942   2.093  44.944   5.923
 3435POPC   C1A44943   2.149  44.468   6.202
 3435POPC   D2A44944   2.307  44.792   6.476
 3435POPC   C3A44945   2.158  44.825   6.910
 3435POPC   C4A44946   2.181  44.489   7.216
 3435POPC   C1B44947   1.773  44.794   6.173
 3435POPC   C2B44948   1.729  44.887   6.587
 3435POPC   C3B44949   1.582  44.797   6.970
 3435POPC   C4B44950   1.793  44.801   7.330
 3436POPC   NC344951  10.386  16.771   5.504
 3436POPC   PO444952  10.904  17.099   5.259
 3436POPC   GL144953  10.767  16.856   5.809
 3436POPC   GL244954  10.625  16.500   5.892
 3436POPC   C1A44955  10.629  16.918   6.247
 3436POPC   D2A44956  10.496  16.696   6.615
 3436POPC   C3A44957  10.735  16.847   6.956
 3436POPC   C4A44958  10.915  16.593   7.269
 3436POPC   C1B44959  10.293  16.325   6.189
 3436POPC   C2B44960  10.059  16.411   6.536
 3436POPC   C3B44961  10.213  16.329   6.932
 3436POPC   C4B44962  10.410  16.570   7.217
 3437POPC   NC344963  14.619  10.663   5.490
 3437POPC   PO444964  14.344  10.114   5.343
 3437POPC   GL144965  14.406  10.341   5.786
 3437POPC   GL244966  14.095  10.489   5.745
 3437POPC   C1A44967  14.447  10.614   6.160
 3437POPC   D2A44968  14.638  10.686   6.534
 3437POPC   C3A44969  14.522  10.804   6.950
 3437POPC   C4A44970  14.518  10.576   7.317
 3437POPC   C1B44971  13.948  10.553   6.183
 3437POPC   C2B44972  14.097  10.698   6.583
 3437POPC   C3B44973  14.094  10.520   7.001
 3437POPC   C4B44974  13.871  10.723   7.315
 3438POPC   NC344975  34.562  23.501   5.349
 3438POPC   PO444976  34.222  24.059   5.632
 3438POPC   GL144977  34.533  23.733   5.806
 3438POPC   GL244978  34.889  23.796   5.823
 3438POPC   C1A44979  34.649  23.556   6.218
 3438POPC   D2A44980  34.412  23.717   6.546
 3438POPC   C3A44981  34.592  23.670   6.892
 3438POPC   C4A44982  34.454  23.826   7.260
 3438POPC   C1B44983  35.004  23.994   6.213
 3438POPC   C2B44984  35.039  23.824   6.645
 3438POPC   C3B44985  34.947  23.993   7.080
 3438POPC   C4B44986  34.935  23.750   7.472
 3439POPC   NC344987   4.162  17.364   5.541
 3439POPC   PO444988   4.768  17.248   5.319
 3439POPC   GL144989   4.699  17.143   5.791
 3439POPC   GL244990   4.377  17.203   5.986
 3439POPC   C1A44991   4.825  17.314   6.225
 3439POPC   D2A44992   4.995  17.456   6.628
 3439POPC   C3A44993   4.646  17.450   6.943
 3439POPC   C4A44994   4.391  17.193   7.206
 3439POPC   C1B44995   4.339  17.377   6.409
 3439POPC   C2B44996   4.147  17.436   6.820
 3439POPC   C3B44997   4.170  17.750   7.149
 3439POPC   C4B44998   3.808  18.037   7.134
 3440POPC   NC344999  31.359  22.487   5.337
 3440POPC   PO445000  31.259  23.187   5.415
 3440POPC   GL145001  31.244  22.905   5.747
 3440POPC   GL245002  31.528  23.032   5.908
 3440POPC   C1A45003  31.197  22.779   6.188
 3440POPC   D2A45004  31.288  22.644   6.586
 3440POPC   C3A45005  30.994  22.774   6.870
 3440POPC   C4A45006  31.355  22.948   7.170
 3440POPC   C1B45007  31.740  22.974   6.281
 3440POPC   C2B45008  31.761  23.153   6.658
 3440POPC   C3B45009  31.677  23.326   7.011
 3440POPC   C4B45010  31.817  23.158   7.351
 3441POPC   NC345011  16.281  10.467   5.512
 3441POPC   PO445012  15.706  10.716   5.229
 3441POPC   GL145013  15.636  10.498   5.696
 3441POPC   GL245014  15.933  10.370   5.903
 3441POPC   C1A45015  15.575  10.681   6.166
 3441POPC   D2A45016  15.526  10.772   6.652
 3441POPC   C3A45017  15.867  10.565   6.892
 3441POPC   C4A45018  16.212  10.550   7.195
 3441POPC   C1B45019  16.080  10.224   6.333
 3441POPC   C2B45020  16.196  10.186   6.793
 3441POPC   C3B45021  16.240   9.982   7.212
 3441POPC   C4B45022  16.097  10.045   7.662
 3442POPC   NC345023  30.833  17.482   5.240
 3442POPC   PO445024  30.244  17.315   5.529
 3442POPC   GL145025  30.654  17.444   5.725
 3442POPC   GL245026  31.026  17.572   5.704
 3442POPC   C1A45027  30.741  17.542   6.156
 3442POPC   D2A45028  30.497  17.670   6.523
 3442POPC   C3A45029  30.658  17.449   6.896
 3442POPC   C4A45030  30.579  17.570   7.311
 3442POPC   C1B45031  31.202  17.314   6.073
 3442POPC   C2B45032  31.127  17.293   6.529
 3442POPC   C3B45033  31.172  17.560   6.893
 3442POPC   C4B45034  31.049  17.382   7.277
 3443POPC   NC345035  36.395  27.072   5.484
 3443POPC   PO445036  36.157  26.407   5.365
 3443POPC   GL145037  36.271  26.657   5.740
 3443POPC   GL245038  35.964  26.881   5.754
 3443POPC   C1A45039  36.279  26.904   6.152
 3443POPC   D2A45040  36.210  26.704   6.553
 3443POPC   C3A45041  36.336  26.887   6.938
 3443POPC   C4A45042  36.331  27.083   7.351
 3443POPC   C1B45043  35.836  26.625   6.129
 3443POPC   C2B45044  35.745  26.457   6.539
 3443POPC   C3B45045  35.879  26.634   6.936
 3443POPC   C4B45046  35.738  26.511   7.307
 3444POPC   NC345047  26.513  14.597   5.222
 3444POPC   PO445048  27.047  14.370   5.503
 3444POPC   GL145049  26.747  14.256   5.840
 3444POPC   GL245050  26.627  14.542   5.778
 3444POPC   C1A45051  26.766  14.123   6.289
 3444POPC   D2A45052  26.961  14.101   6.705
 3444POPC   C3A45053  26.768  14.356   7.028
 3444POPC   C4A45054  26.995  14.701   7.217
 3444POPC   C1B45055  26.863  14.619   6.182
 3444POPC   C2B45056  26.815  14.682   6.631
 3444POPC   C3B45057  26.561  14.821   6.994
 3444POPC   C4B45058  26.259  14.559   7.113
 3445POPC   NC345059  40.513   2.443   5.595
 3445POPC   PO445060  40.808   1.865   5.354
 3445POPC   GL145061  40.693   1.931   5.823
 3445POPC   GL245062  40.803   2.259   5.970
 3445POPC   C1A45063  40.862   1.862   6.274
 3445POPC   D2A45064  40.860   2.118   6.635
 3445POPC   C3A45065  41.014   1.993   7.031
 3445POPC   C4A45066  40.844   1.693   7.316
 3445POPC   C1B45067  40.618   2.482   6.333
 3445POPC   C2B45068  40.451   2.381   6.759
 3445POPC   C3B45069  40.571   2.414   7.192
 3445POPC   C4B45070  40.887   2.209   7.481
 3446POPC   NC345071  29.157  43.320   5.290
 3446POPC   PO445072  29.131  42.750   5.579
 3446POPC   GL145073  29.251  43.093   5.793
 3446POPC   GL245074  28.895  43.180   5.797
 3446POPC   C1A45075  29.243  43.125   6.259
 3446POPC   D2A45076  29.516  42.991   6.611
 3446POPC   C3A45077  29.413  43.095   7.031
 3446POPC   C4A45078  29.114  42.890   7.287
 3446POPC   C1B45079  28.728  43.027   6.209
 3446POPC   C2B45080  28.740  43.240   6.607
 3446POPC   C3B45081  28.837  43.248   7.029
 3446POPC   C4B45082  28.710  43.394   7.424
 3447POPC   NC345083  11.060   7.656   5.488
 3447POPC   PO445084  10.391   7.671   5.317
 3447POPC   GL145085  10.520   7.422   5.682
 3447POPC   GL245086  10.338   7.675   5.865
 3447POPC   C1A45087  10.474   7.236   6.118
 3447POPC   D2A45088  10.231   7.293   6.520
 3447POPC   C3A45089  10.515   7.213   6.876
 3447POPC   C4A45090  10.780   7.322   7.224
 3447POPC   C1B45091  10.740   7.683   6.094
 3447POPC   C2B45092  10.773   7.510   6.509
 3447POPC   C3B45093  10.709   7.718   6.883
 3447POPC   C4B45094  10.907   7.808   7.234
 3448POPC   NC345095  42.282  34.204   5.345
 3448POPC   PO445096  42.537  33.656   5.249
 3448POPC   GL145097  42.382  33.793   5.672
 3448POPC   GL245098  42.666  33.960   5.709
 3448POPC   C1A45099  42.360  33.942   6.135
 3448POPC   D2A45100  42.327  34.103   6.558
 3448POPC   C3A45101  42.297  33.793   6.890
 3448POPC   C4A45102  42.403  33.994   7.262
 3448POPC   C1B45103  42.738  33.615   6.038
 3448POPC   C2B45104  42.711  33.753   6.476
 3448POPC   C3B45105  42.770  33.662   6.892
 3448POPC   C4B45106  42.732  33.506   7.322
 3449POPC   NC345107   4.850  23.059   5.445
 3449POPC   PO445108   5.411  22.693   5.541
 3449POPC   GL145109   5.203  22.887   5.901
 3449POPC   GL245110   5.073  23.240   5.882
 3449POPC   C1A45111   4.918  22.927   6.267
 3449POPC   D2A45112   4.874  22.701   6.643
 3449POPC   C3A45113   4.951  22.871   7.042
 3449POPC   C4A45114   5.049  22.660   7.385
 3449POPC   C1B45115   5.304  23.268   6.281
 3449POPC   C2B45116   5.154  23.179   6.699
 3449POPC   C3B45117   5.256  23.270   7.128
 3449POPC   C4B45118   5.375  23.490   7.488
 3450POPC   NC345119  40.434   6.641   5.470
 3450POPC   PO445120  39.797   6.863   5.503
 3450POPC   GL145121  40.011   6.484   5.766
 3450POPC   GL245122  40.271   6.208   5.653
 3450POPC   C1A45123  40.043   6.410   6.244
 3450POPC   D2A45124  39.839   6.503   6.657
 3450POPC   C3A45125  40.018   6.768   7.012
 3450POPC   C4A45126  39.674   6.919   7.266
 3450POPC   C1B45127  40.443   6.155   6.056
 3450POPC   C2B45128  40.384   6.101   6.524
 3450POPC   C3B45129  40.212   6.281   6.926
 3450POPC   C4B45130  39.800   6.332   7.161
 3451POPC   NC345131   6.652  32.762   5.400
 3451POPC   PO445132   6.180  32.357   5.350
 3451POPC   GL145133   6.460  32.226   5.716
 3451POPC   GL245134   6.678  32.484   5.861
 3451POPC   C1A45135   6.486  32.110   6.185
 3451POPC   D2A45136   6.865  31.972   6.435
 3451POPC   C3A45137   7.004  32.181   6.818
 3451POPC   C4A45138   6.768  32.129   7.211
 3451POPC   C1B45139   6.848  32.461   6.291
 3451POPC   C2B45140   6.721  32.604   6.696
 3451POPC   C3B45141   6.492  32.528   7.095
 3451POPC   C4B45142   6.555  32.557   7.561
 3452POPC   NC345143  42.967  13.058   5.520
 3452POPC   PO445144  43.578  13.036   5.664
 3452POPC   GL145145  43.243  12.951   5.954
 3452POPC   GL245146  42.931  12.706   5.912
 3452POPC   C1A45147  43.309  12.866   6.391
 3452POPC   D2A45148  43.437  12.554   6.691
 3452POPC   C3A45149  43.202  12.699   7.017
 3452POPC   C4A45150  43.148  13.133   7.144
 3452POPC   C1B45151  42.944  12.513   6.309
 3452POPC   C2B45152  42.815  12.805   6.637
 3452POPC   C3B45153  42.716  12.920   7.046
 3452POPC   C4B45154  42.725  12.598   7.374
 3453POPC   NC345155  40.525  27.748   5.453
 3453POPC   PO445156  40.881  27.195   5.285
 3453POPC   GL145157  40.916  27.475   5.676
 3453POPC   GL245158  41.177  27.746   5.673
 3453POPC   C1A45159  40.777  27.352   6.125
 3453POPC   D2A45160  40.614  27.511   6.532
 3453POPC   C3A45161  40.798  27.341   6.904
 3453POPC   C4A45162  40.569  27.445   7.224
 3453POPC   C1B45163  41.003  27.821   6.093
 3453POPC   C2B45164  41.050  27.782   6.554
 3453POPC   C3B45165  40.795  27.843   6.936
 3453POPC   C4B45166  40.824  27.897   7.365
 3454POPC   NC345167  13.510  13.436   5.392
 3454POPC   PO445168  13.928  13.819   5.489
 3454POPC   GL145169  13.701  13.665   5.883
 3454POPC   GL245170  13.326  13.545   5.888
 3454POPC   C1A45171  13.837  13.646   6.345
 3454POPC   D2A45172  13.714  13.789   6.757
 3454POPC   C3A45173  13.913  13.706   7.157
 3454POPC   C4A45174  13.693  13.792   7.556
 3454POPC   C1B45175  13.183  13.163   6.130
 3454POPC   C2B45176  13.291  12.968   6.509
 3454POPC   C3B45177  13.232  13.211   6.917
 3454POPC   C4B45178  13.398  13.584   7.141
 3455POPC   NC345179  15.132  32.809   5.479
 3455POPC   PO445180  14.807  33.424   5.551
 3455POPC   GL145181  15.154  33.223   5.839
 3455POPC   GL245182  15.346  32.884   5.926
 3455POPC   C1A45183  15.278  33.243   6.276
 3455POPC   D2A45184  15.071  33.218   6.675
 3455POPC   C3A45185  15.289  33.378   7.020
 3455POPC   C4A45186  15.550  33.224   7.310
 3455POPC   C1B45187  15.091  32.776   6.266
 3455POPC   C2B45188  15.262  32.744   6.696
 3455POPC   C3B45189  15.178  32.843   7.129
 3455POPC   C4B45190  15.453  32.758   7.489
 3456POPC   NC345191  18.248  11.577   5.572
 3456POPC   PO445192  18.467  10.930   5.430
 3456POPC   GL145193  18.423  11.168   5.837
 3456POPC   GL245194  18.641  11.476   5.871
 3456POPC   C1A45195  18.105  11.288   6.198
 3456POPC   D2A45196  17.936  11.423   6.602
 3456POPC   C3A45197  18.152  11.193   6.945
 3456POPC   C4A45198  18.087  11.017   7.351
 3456POPC   C1B45199  18.586  11.407   6.272
 3456POPC   C2B45200  18.447  11.516   6.655
 3456POPC   C3B45201  18.609  11.610   7.057
 3456POPC   C4B45202  18.557  11.240   7.296
 3457POPC   NC345203  34.987  25.981   5.348
 3457POPC   PO445204  34.337  25.818   5.133
 3457POPC   GL145205  34.512  25.829   5.597
 3457POPC   GL245206  34.810  25.642   5.708
 3457POPC   C1A45207  34.694  26.055   5.987
 3457POPC   D2A45208  34.814  26.089   6.437
 3457POPC   C3A45209  34.542  26.246   6.781
 3457POPC   C4A45210  34.512  26.155   7.204
 3457POPC   C1B45211  34.945  25.587   6.118
 3457POPC   C2B45212  34.780  25.571   6.509
 3457POPC   C3B45213  34.769  25.778   6.869
 3457POPC   C4B45214  34.896  25.855   7.257
 3458POPC   NC345215  41.047  11.578   5.207
 3458POPC   PO445216  40.743  12.211   5.379
 3458POPC   GL145217  40.718  11.957   5.722
 3458POPC   GL245218  41.064  11.884   5.694
 3458POPC   C1A45219  40.584  12.047   6.150
 3458POPC   D2A45220  40.771  12.161   6.543
 3458POPC   C3A45221  40.524  11.993   6.888
 3458POPC   C4A45222  40.714  11.872   7.269
 3458POPC   C1B45223  41.109  12.132   6.092
 3458POPC   C2B45224  41.303  12.296   6.507
 3458POPC   C3B45225  41.125  12.320   6.928
 3458POPC   C4B45226  40.738  12.375   7.165
 3459POPC   NC345227  35.893  37.762   5.453
 3459POPC   PO445228  36.571  37.403   5.485
 3459POPC   GL145229  36.301  37.622   5.817
 3459POPC   GL245230  35.994  37.857   5.931
 3459POPC   C1A45231  36.308  37.670   6.285
 3459POPC   D2A45232  36.250  37.846   6.691
 3459POPC   C3A45233  36.291  37.517   7.003
 3459POPC   C4A45234  36.414  37.557   7.446
 3459POPC   C1B45235  35.745  37.652   6.235
 3459POPC   C2B45236  35.777  37.655   6.649
 3459POPC   C3B45237  35.860  37.785   7.051
 3459POPC   C4B45238  35.921  37.538   7.388
 3460POPC   NC345239  23.984  12.568   5.432
 3460POPC   PO445240  23.564  11.930   5.417
 3460POPC   GL145241  23.446  11.818   5.853
 3460POPC   GL245242  23.746  12.005   5.957
 3460POPC   C1A45243  23.586  11.606   6.248
 3460POPC   D2A45244  23.887  11.832   6.516
 3460POPC   C3A45245  23.668  12.028   6.872
 3460POPC   C4A45246  23.793  12.065   7.288
 3460POPC   C1B45247  23.469  12.105   6.306
 3460POPC   C2B45248  23.233  12.236   6.653
 3460POPC   C3B45249  23.383  12.486   6.976
 3460POPC   C4B45250  23.447  12.418   7.403
 3461POPC   NC345251   2.907  30.587   5.492
 3461POPC   PO445252   2.414  31.032   5.472
 3461POPC   GL145253   2.684  30.916   5.840
 3461POPC   GL245254   3.008  30.908   5.910
 3461POPC   C1A45255   2.796  30.534   6.154
 3461POPC   D2A45256   3.036  30.460   6.560
 3461POPC   C3A45257   2.867  30.592   6.954
 3461POPC   C4A45258   2.619  30.465   7.287
 3461POPC   C1B45259   2.921  30.998   6.348
 3461POPC   C2B45260   3.136  31.195   6.720
 3461POPC   C3B45261   3.140  31.164   7.170
 3461POPC   C4B45262   2.864  30.898   7.377
 3462POPC   NC345263  39.860  36.141   5.454
 3462POPC   PO445264  40.411  36.456   5.540
 3462POPC   GL145265  40.097  36.285   5.870
 3462POPC   GL245266  39.869  35.967   5.934
 3462POPC   C1A45267  39.941  36.322   6.296
 3462POPC   D2A45268  39.828  36.271   6.731
 3462POPC   C3A45269  40.176  36.219   7.032
 3462POPC   C4A45270  40.152  36.181   7.491
 3462POPC   C1B45271  39.922  35.809   6.367
 3462POPC   C2B45272  39.954  35.783   6.817
 3462POPC   C3B45273  39.837  35.886   7.229
 3462POPC   C4B45274  39.688  35.980   7.649
 3463POPC   NC345275   1.916  24.220   5.335
 3463POPC   PO445276   1.969  23.544   5.376
 3463POPC   GL145277   1.975  23.701   5.800
 3463POPC   GL245278   2.132  24.029   5.806
 3463POPC   C1A45279   1.898  23.707   6.241
 3463POPC   D2A45280   1.754  23.869   6.647
 3463POPC   C3A45281   1.891  23.634   7.028
 3463POPC   C4A45282   1.816  23.707   7.471
 3463POPC   C1B45283   2.376  23.864   6.145
 3463POPC   C2B45284   2.295  23.769   6.569
 3463POPC   C3B45285   2.378  23.758   7.013
 3463POPC   C4B45286   2.313  23.383   7.278
 3464POPC   NC345287  17.380  28.440   5.199
 3464POPC   PO445288  17.823  28.032   5.425
 3464POPC   GL145289  17.590  28.382   5.677
 3464POPC   GL245290  17.809  28.547   5.859
 3464POPC   C1A45291  17.408  28.322   6.131
 3464POPC   D2A45292  17.330  28.133   6.572
 3464POPC   C3A45293  17.401  28.451   6.912
 3464POPC   C4A45294  17.526  28.449   7.327
 3464POPC   C1B45295  17.929  28.361   6.243
 3464POPC   C2B45296  17.804  28.301   6.650
 3464POPC   C3B45297  17.764  28.084   7.013
 3464POPC   C4B45298  17.914  28.010   7.404
 3465POPC   NC345299  14.958  33.780   5.312
 3465POPC   PO445300  15.561  33.821   5.578
 3465POPC   GL145301  15.378  33.695   5.952
 3465POPC   GL245302  15.158  33.991   5.976
 3465POPC   C1A45303  15.390  33.703   6.421
 3465POPC   D2A45304  15.150  33.866   6.736
 3465POPC   C3A45305  15.350  33.879   7.129
 3465POPC   C4A45306  15.319  33.654   7.512
 3465POPC   C1B45307  14.911  33.656   6.188
 3465POPC   C2B45308  14.711  33.568   6.602
 3465POPC   C3B45309  14.835  33.603   7.040
 3465POPC   C4B45310  14.897  33.925   7.314
 3466POPC   NC345311  24.237  44.005   5.326
 3466POPC   PO445312  23.582  43.870   5.179
 3466POPC   GL145313  23.485  43.751   5.616
 3466POPC   GL245314  23.841  43.730   5.709
 3466POPC   C1A45315  23.472  43.835   6.081
 3466POPC   D2A45316  23.754  43.862   6.451
 3466POPC   C3A45317  23.614  43.878   6.878
 3466POPC   C4A45318  23.795  43.943   7.277
 3466POPC   C1B45319  23.956  43.535   6.103
 3466POPC   C2B45320  24.089  43.485   6.541
 3466POPC   C3B45321  24.086  43.663   6.956
 3466POPC   C4B45322  24.136  43.513   7.380
 3467POPC   NC345323   5.287  11.536   5.474
 3467POPC   PO445324   5.927  11.432   5.285
 3467POPC   GL145325   6.057  11.402   5.744
 3467POPC   GL245326   5.678  11.384   5.809
 3467POPC   C1A45327   6.003  11.119   6.137
 3467POPC   D2A45328   5.754  10.862   6.423
 3467POPC   C3A45329   5.619  10.994   6.839
 3467POPC   C4A45330   5.828  11.101   7.223
 3467POPC   C1B45331   5.825  11.596   6.180
 3467POPC   C2B45332   5.844  11.395   6.572
 3467POPC   C3B45333   5.694  11.526   6.954
 3467POPC   C4B45334   5.737  11.930   7.127
 3468POPC   NC345335  29.263  28.558   5.483
 3468POPC   PO445336  29.130  27.911   5.377
 3468POPC   GL145337  29.091  28.132   5.732
 3468POPC   GL245338  28.763  28.231   5.635
 3468POPC   C1A45339  29.228  28.168   6.158
 3468POPC   D2A45340  29.104  28.024   6.557
 3468POPC   C3A45341  29.029  28.255   6.916
 3468POPC   C4A45342  29.203  28.269   7.318
 3468POPC   C1B45343  28.762  28.407   6.060
 3468POPC   C2B45344  28.794  28.517   6.517
 3468POPC   C3B45345  28.697  28.664   6.956
 3468POPC   C4B45346  28.807  28.807   7.393
 3469POPC   NC345347  44.928  41.082   5.267
 3469POPC   PO445348   0.069  40.426   5.397
 3469POPC   GL145349  44.841  40.607   5.776
 3469POPC   GL245350  44.827  40.943   5.777
 3469POPC   C1A45351  44.697  40.559   6.202
 3469POPC   D2A45352  44.333  40.560   6.483
 3469POPC   C3A45353  44.393  40.658   6.950
 3469POPC   C4A45354  44.701  40.922   7.192
 3469POPC   C1B45355  44.525  41.030   6.153
 3469POPC   C2B45356  44.447  41.038   6.614
 3469POPC   C3B45357  44.329  41.252   7.007
 3469POPC   C4B45358  44.518  41.361   7.413
 3470POPC   NC345359  32.547   2.358   5.121
 3470POPC   PO445360  32.159   2.884   5.466
 3470POPC   GL145361  32.192   2.923   5.865
 3470POPC   GL245362  31.918   2.803   6.054
 3470POPC   C1A45363  32.543   2.970   6.150
 3470POPC   D2A45364  32.782   2.958   6.534
 3470POPC   C3A45365  32.563   2.917   6.943
 3470POPC   C4A45366  32.214   2.795   7.219
 3470POPC   C1B45367  32.263   2.531   6.223
 3470POPC   C2B45368  32.529   2.494   6.588
 3470POPC   C3B45369  32.495   2.367   7.014
 3470POPC   C4B45370  32.303   2.337   7.425
 3471POPC   NC345371   2.372  21.554   5.549
 3471POPC   PO445372   2.977  21.493   5.277
 3471POPC   GL145373   2.868  21.503   5.730
 3471POPC   GL245374   2.625  21.256   5.854
 3471POPC   C1A45375   2.940  21.600   6.175
 3471POPC   D2A45376   2.867  21.391   6.537
 3471POPC   C3A45377   2.868  21.492   6.969
 3471POPC   C4A45378   2.869  21.181   7.301
 3471POPC   C1B45379   2.446  21.469   6.216
 3471POPC   C2B45380   2.345  21.413   6.637
 3471POPC   C3B45381   2.409  21.271   7.036
 3471POPC   C4B45382   2.498  21.518   7.358
 3472POPC   NC345383  26.407  23.927   5.414
 3472POPC   PO445384  25.816  23.666   5.645
 3472POPC   GL145385  26.144  23.863   5.873
 3472POPC   GL245386  26.516  23.751   5.870
 3472POPC   C1A45387  25.992  23.954   6.278
 3472POPC   D2A45388  25.925  24.233   6.604
 3472POPC   C3A45389  25.695  23.992   6.901
 3472POPC   C4A45390  25.726  23.827   7.313
 3472POPC   C1B45391  26.525  23.805   6.299
 3472POPC   C2B45392  26.331  23.905   6.673
 3472POPC   C3B45393  26.170  23.825   7.047
 3472POPC   C4B45394  26.112  23.511   7.344
 3473POPC   NC345395  33.430  16.805   5.469
 3473POPC   PO445396  32.807  17.000   5.201
 3473POPC   GL145397  32.779  16.906   5.683
 3473POPC   GL245398  32.480  16.961   5.841
 3473POPC   C1A45399  32.951  16.607   6.001
 3473POPC   D2A45400  33.189  16.648   6.402
 3473POPC   C3A45401  33.111  16.484   6.824
 3473POPC   C4A45402  33.023  16.739   7.189
 3473POPC   C1B45403  32.596  16.833   6.280
 3473POPC   C2B45404  32.763  16.867   6.715
 3473POPC   C3B45405  32.621  17.053   7.106
 3473POPC   C4B45406  32.657  16.899   7.533
 3474POPC   NC345407  23.814  22.376   5.233
 3474POPC   PO445408  23.652  22.981   5.453
 3474POPC   GL145409  23.691  22.913   5.897
 3474POPC   GL245410  23.436  22.729   5.890
 3474POPC   C1A45411  23.709  22.843   6.352
 3474POPC   D2A45412  23.921  23.081   6.637
 3474POPC   C3A45413  24.012  22.945   7.035
 3474POPC   C4A45414  23.912  22.792   7.440
 3474POPC   C1B45415  23.234  22.964   6.228
 3474POPC   C2B45416  23.367  23.132   6.623
 3474POPC   C3B45417  23.346  23.000   7.030
 3474POPC   C4B45418  23.543  23.108   7.382
 3475POPC   NC345419  12.567  42.453   5.385
 3475POPC   PO445420  13.088  42.745   5.742
 3475POPC   GL145421  12.876  42.357   5.943
 3475POPC   GL245422  12.521  42.320   6.021
 3475POPC   C1A45423  12.854  42.247   6.398
 3475POPC   D2A45424  13.188  42.381   6.669
 3475POPC   C3A45425  13.107  42.189   7.041
 3475POPC   C4A45426  13.102  42.307   7.463
 3475POPC   C1B45427  12.413  42.561   6.391
 3475POPC   C2B45428  12.344  42.470   6.831
 3475POPC   C3B45429  12.663  42.411   7.188
 3475POPC   C4B45430  12.829  42.715   7.508
 3476POPC   NC345431  21.260  14.319   5.556
 3476POPC   PO445432  21.849  14.178   5.675
 3476POPC   GL145433  21.556  14.331   5.991
 3476POPC   GL245434  21.260  14.600   5.972
 3476POPC   C1A45435  21.557  14.246   6.436
 3476POPC   D2A45436  21.513  14.534   6.762
 3476POPC   C3A45437  21.437  14.347   7.162
 3476POPC   C4A45438  21.502  14.009   7.484
 3476POPC   C1B45439  21.088  14.284   6.268
 3476POPC   C2B45440  21.056  14.286   6.681
 3476POPC   C3B45441  20.990  14.110   7.070
 3476POPC   C4B45442  21.054  14.232   7.515
 3477POPC   NC345443  16.411  41.761   5.731
 3477POPC   PO445444  16.415  41.148   5.685
 3477POPC   GL145445  16.746  41.377   5.868
 3477POPC   GL245446  16.979  41.121   5.936
 3477POPC   C1A45447  16.960  41.511   6.260
 3477POPC   D2A45448  16.950  41.363   6.682
 3477POPC   C3A45449  16.990  41.699   6.962
 3477POPC   C4A45450  16.798  41.768   7.348
 3477POPC   C1B45451  16.639  41.105   6.283
 3477POPC   C2B45452  16.411  41.188   6.659
 3477POPC   C3B45453  16.499  41.478   6.990
 3477POPC   C4B45454  16.327  41.476   7.410
 3478POPC   NC345455  28.780   6.792   5.007
 3478POPC   PO445456  29.162   6.359   5.443
 3478POPC   GL145457  29.414   6.443   5.786
 3478POPC   GL245458  29.231   6.699   5.889
 3478POPC   C1A45459  29.450   6.309   6.190
 3478POPC   D2A45460  29.207   6.353   6.540
 3478POPC   C3A45461  29.393   6.198   6.888
 3478POPC   C4A45462  29.310   6.528   7.177
 3478POPC   C1B45463  29.075   6.783   6.276
 3478POPC   C2B45464  29.233   6.936   6.680
 3478POPC   C3B45465  29.168   7.014   7.115
 3478POPC   C4B45466  29.151   7.215   7.525
 3479POPC   NC345467  12.839  27.470   5.268
 3479POPC   PO445468  12.440  27.395   5.715
 3479POPC   GL145469  12.745  27.445   6.010
 3479POPC   GL245470  12.774  27.801   5.944
 3479POPC   C1A45471  12.898  27.421   6.452
 3479POPC   D2A45472  12.928  27.232   6.870
 3479POPC   C3A45473  12.550  27.366   7.144
 3479POPC   C4A45474  12.625  27.587   7.560
 3479POPC   C1B45475  12.905  27.966   6.361
 3479POPC   C2B45476  13.124  27.793   6.734
 3479POPC   C3B45477  12.954  27.650   7.144
 3479POPC   C4B45478  12.991  27.242   7.408
 3480POPC   NC345479   5.630  14.536   5.405
 3480POPC   PO445480   6.295  14.252   5.413
 3480POPC   GL145481   6.151  14.305   5.817
 3480POPC   GL245482   6.140  14.656   5.857
 3480POPC   C1A45483   6.049  14.161   6.223
 3480POPC   D2A45484   5.814  14.090   6.585
 3480POPC   C3A45485   6.089  14.125   6.953
 3480POPC   C4A45486   5.993  14.479   7.188
 3480POPC   C1B45487   5.849  14.623   6.180
 3480POPC   C2B45488   5.912  14.597   6.625
 3480POPC   C3B45489   5.731  14.871   6.923
 3480POPC   C4B45490   5.714  14.969   7.354
 3481POPC   NC345491   3.243   3.458   5.442
 3481POPC   PO445492   3.842   3.706   5.260
 3481POPC   GL145493   3.607   3.772   5.636
 3481POPC   GL245494   3.661   3.439   5.763
 3481POPC   C1A45495   3.642   3.858   6.089
 3481POPC   D2A45496   3.780   3.766   6.517
 3481POPC   C3A45497   3.458   3.879   6.838
 3481POPC   C4A45498   3.420   3.847   7.275
 3481POPC   C1B45499   3.594   3.216   6.171
 3481POPC   C2B45500   3.770   3.230   6.607
 3481POPC   C3B45501   3.782   3.485   6.952
 3481POPC   C4B45502   3.385   3.363   7.059
 3482POPC   NC345503  18.836  44.219   5.633
 3482POPC   PO445504  19.323  43.896   5.274
 3482POPC   GL145505  19.198  43.783   5.708
 3482POPC   GL245506  19.457  43.879   5.939
 3482POPC   C1A45507  18.979  43.736   6.120
 3482POPC   D2A45508  19.127  43.735   6.565
 3482POPC   C3A45509  18.840  43.758   6.914
 3482POPC   C4A45510  18.762  44.020   7.264
 3482POPC   C1B45511  19.254  44.194   6.210
 3482POPC   C2B45512  19.346  44.283   6.638
 3482POPC   C3B45513  19.209  44.151   7.028
 3482POPC   C4B45514  19.347  44.094   7.432
 3483POPC   NC345515   5.051   3.569   5.647
 3483POPC   PO445516   5.643   3.174   5.374
 3483POPC   GL145517   5.570   3.343   5.836
 3483POPC   GL245518   5.478   3.696   5.857
 3483POPC   C1A45519   5.417   3.156   6.324
 3483POPC   D2A45520   5.186   2.965   6.740
 3483POPC   C3A45521   4.842   3.223   6.985
 3483POPC   C4A45522   4.798   3.688   6.977
 3483POPC   C1B45523   5.327   3.675   6.303
 3483POPC   C2B45524   5.208   3.885   6.728
 3483POPC   C3B45525   5.327   3.785   7.169
 3483POPC   C4B45526   5.345   3.820   7.616
 3484POPC   NC345527  13.248   5.412   5.383
 3484POPC   PO445528  12.713   4.959   5.575
 3484POPC   GL145529  12.863   5.061   5.919
 3484POPC   GL245530  12.750   5.372   5.917
 3484POPC   C1A45531  12.727   5.072   6.329
 3484POPC   D2A45532  12.908   4.856   6.644
 3484POPC   C3A45533  12.862   5.021   7.022
 3484POPC   C4A45534  12.796   5.190   7.426
 3484POPC   C1B45535  12.990   5.534   6.243
 3484POPC   C2B45536  13.004   5.366   6.645
 3484POPC   C3B45537  12.880   5.533   7.004
 3484POPC   C4B45538  13.158   5.532   7.261
 3485POPC   NC345539  42.032  37.603   5.595
 3485POPC   PO445540  42.662  37.522   5.444
 3485POPC   GL145541  42.560  37.557   5.862
 3485POPC   GL245542  42.558  37.921   5.926
 3485POPC   C1A45543  42.295  37.548   6.249
 3485POPC   D2A45544  42.043  37.721   6.612
 3485POPC   C3A45545  42.126  37.495   6.970
 3485POPC   C4A45546  42.492  37.204   6.967
 3485POPC   C1B45547  42.231  38.070   6.245
 3485POPC   C2B45548  42.338  38.144   6.697
 3485POPC   C3B45549  42.424  37.949   7.104
 3485POPC   C4B45550  42.208  37.962   7.496
 3486POPC   NC345551  42.084  15.614   5.529
 3486POPC   PO445552  41.704  16.193   5.272
 3486POPC   GL145553  41.588  16.145   5.721
 3486POPC   GL245554  41.599  15.810   5.671
 3486POPC   C1A45555  41.792  15.981   6.137
 3486POPC   D2A45556  42.002  16.079   6.557
 3486POPC   C3A45557  41.755  15.853   6.867
 3486POPC   C4A45558  41.670  15.979   7.267
 3486POPC   C1B45559  41.412  15.606   6.014
 3486POPC   C2B45560  41.470  15.690   6.457
 3486POPC   C3B45561  41.240  15.554   6.819
 3486POPC   C4B45562  41.352  15.587   7.256
 3487POPC   NC345563   3.038   5.893   5.374
 3487POPC   PO445564   3.748   6.001   5.375
 3487POPC   GL145565   3.463   5.917   5.672
 3487POPC   GL245566   3.448   5.570   5.801
 3487POPC   C1A45567   3.483   5.982   6.104
 3487POPC   D2A45568   3.591   5.675   6.422
 3487POPC   C3A45569   3.575   5.789   6.845
 3487POPC   C4A45570   3.565   5.667   7.270
 3487POPC   C1B45571   3.141   5.598   6.159
 3487POPC   C2B45572   3.037   5.702   6.581
 3487POPC   C3B45573   3.096   5.761   7.018
 3487POPC   C4B45574   3.185   6.025   7.321
 3488POPC   NC345575  34.220  41.178   5.134
 3488POPC   PO445576  34.677  40.754   5.444
 3488POPC   GL145577  34.623  40.588   5.858
 3488POPC   GL245578  34.874  40.334   5.764
 3488POPC   C1A45579  34.388  40.808   6.220
 3488POPC   D2A45580  34.395  41.099   6.586
 3488POPC   C3A45581  34.475  40.948   7.011
 3488POPC   C4A45582  34.720  40.890   7.398
 3488POPC   C1B45583  34.852  40.284   6.204
 3488POPC   C2B45584  34.731  40.559   6.529
 3488POPC   C3B45585  34.812  40.584   6.945
 3488POPC   C4B45586  34.760  40.396   7.303
 3489POPC   NC345587   5.092   1.013   5.298
 3489POPC   PO445588   4.858   1.678   5.447
 3489POPC   GL145589   4.924   1.326   5.684
 3489POPC   GL245590   5.272   1.271   5.715
 3489POPC   C1A45591   4.839   1.222   6.110
 3489POPC   D2A45592   4.827   1.480   6.497
 3489POPC   C3A45593   4.912   1.179   6.809
 3489POPC   C4A45594   4.861   1.164   7.257
 3489POPC   C1B45595   5.348   1.097   6.099
 3489POPC   C2B45596   5.284   1.198   6.473
 3489POPC   C3B45597   5.446   1.192   6.858
 3489POPC   C4B45598   5.348   1.101   7.260
 3490POPC   NC345599   8.695  15.100   5.059
 3490POPC   PO445600   9.191  15.162   5.496
 3490POPC   GL145601   8.928  15.034   5.790
 3490POPC   GL245602   9.145  14.867   6.036
 3490POPC   C1A45603   8.718  15.101   6.153
 3490POPC   D2A45604   8.959  15.186   6.514
 3490POPC   C3A45605   8.919  14.931   6.858
 3490POPC   C4A45606   8.798  15.150   7.230
 3490POPC   C1B45607   9.301  14.827   6.439
 3490POPC   C2B45608   9.415  15.094   6.767
 3490POPC   C3B45609   9.321  15.021   7.187
 3490POPC   C4B45610   9.313  14.733   7.546
 3491POPC   NC345611   7.211  20.517   5.382
 3491POPC   PO445612   7.724  20.953   5.458
 3491POPC   GL145613   7.505  20.730   5.775
 3491POPC   GL245614   7.545  20.353   5.770
 3491POPC   C1A45615   7.220  20.786   6.108
 3491POPC   D2A45616   7.352  20.634   6.499
 3491POPC   C3A45617   7.266  20.869   6.846
 3491POPC   C4A45618   7.328  20.691   7.233
 3491POPC   C1B45619   7.269  20.259   6.119
 3491POPC   C2B45620   7.040  20.221   6.514
 3491POPC   C3B45621   7.299  20.239   6.901
 3491POPC   C4B45622   7.133  20.207   7.291
 3492POPC   NC345623  18.441   4.239   5.517
 3492POPC   PO445624  17.796   4.558   5.553
 3492POPC   GL145625  18.014   4.270   5.904
 3492POPC   GL245626  18.364   4.068   5.970
 3492POPC   C1A45627  18.223   4.382   6.319
 3492POPC   D2A45628  18.521   4.199   6.585
 3492POPC   C3A45629  18.307   4.239   6.977
 3492POPC   C4A45630  18.553   4.339   7.325
 3492POPC   C1B45631  18.264   3.847   6.320
 3492POPC   C2B45632  18.112   3.829   6.721
 3492POPC   C3B45633  18.200   3.801   7.172
 3492POPC   C4B45634  18.244   3.997   7.570
 3493POPC   NC345635  43.493  31.845   5.594
 3493POPC   PO445636  43.610  32.593   5.449
 3493POPC   GL145637  43.623  32.302   5.791
 3493POPC   GL245638  43.968  32.155   5.746
 3493POPC   C1A45639  43.752  32.049   6.198
 3493POPC   D2A45640  44.023  31.888   6.529
 3493POPC   C3A45641  43.923  32.083   6.889
 3493POPC   C4A45642  43.721  32.138   7.266
 3493POPC   C1B45643  43.972  32.493   6.080
 3493POPC   C2B45644  43.726  32.507   6.488
 3493POPC   C3B45645  43.898  32.601   6.885
 3493POPC   C4B45646  43.912  32.649   7.303
 3494POPC   NC345647  32.663  27.876   5.343
 3494POPC   PO445648  33.050  28.495   5.412
 3494POPC   GL145649  33.008  28.320   5.840
 3494POPC   GL245650  32.962  28.635   5.968
 3494POPC   C1A45651  33.278  28.302   6.241
 3494POPC   D2A45652  33.189  28.145   6.673
 3494POPC   C3A45653  33.210  28.321   7.091
 3494POPC   C4A45654  32.867  28.355   7.401
 3494POPC   C1B45655  32.810  28.471   6.371
 3494POPC   C2B45656  32.854  28.533   6.796
 3494POPC   C3B45657  32.985  28.779   7.130
 3494POPC   C4B45658  32.812  28.836   7.549
 3495POPC   NC345659  31.902  43.172   5.564
 3495POPC   PO445660  32.481  42.878   5.544
 3495POPC   GL145661  32.216  42.939   5.873
 3495POPC   GL245662  32.257  43.293   5.920
 3495POPC   C1A45663  32.262  42.926   6.278
 3495POPC   D2A45664  32.518  42.992   6.563
 3495POPC   C3A45665  32.353  42.801   6.834
 3495POPC   C4A45666  32.152  42.914   7.193
 3495POPC   C1B45667  32.104  43.416   6.329
 3495POPC   C2B45668  32.054  43.228   6.728
 3495POPC   C3B45669  31.839  43.312   7.104
 3495POPC   C4B45670  32.073  43.462   7.466
 3496POPC   NC345671  28.863  35.493   5.179
 3496POPC   PO445672  28.266  35.205   5.456
 3496POPC   GL145673  28.163  35.307   5.857
 3496POPC   GL245674  27.857  35.135   5.820
 3496POPC   C1A45675  28.310  35.504   6.267
 3496POPC   D2A45676  28.387  35.666   6.723
 3496POPC   C3A45677  28.624  35.422   7.046
 3496POPC   C4A45678  28.459  35.162   7.403
 3496POPC   C1B45679  27.944  35.083   6.279
 3496POPC   C2B45680  27.915  34.993   6.713
 3496POPC   C3B45681  28.121  35.245   7.034
 3496POPC   C4B45682  27.988  35.355   7.477
 3497POPC   NC345683  40.233  14.552   5.466
 3497POPC   PO445684  39.895  13.986   5.581
 3497POPC   GL145685  40.085  14.247   5.857
 3497POPC   GL245686  39.794  14.446   5.897
 3497POPC   C1A45687  40.175  14.492   6.230
 3497POPC   D2A45688  40.013  14.658   6.622
 3497POPC   C3A45689  40.323  14.683   6.934
 3497POPC   C4A45690  40.469  14.450   7.288
 3497POPC   C1B45691  39.686  14.778   6.200
 3497POPC   C2B45692  39.501  14.793   6.617
 3497POPC   C3B45693  39.572  14.549   6.976
 3497POPC   C4B45694  39.937  14.523   7.250
 3498POPC   NC345695  35.690  28.476   5.371
 3498POPC   PO445696  36.343  28.312   5.403
 3498POPC   GL145697  36.213  28.214   5.804
 3498POPC   GL245698  35.896  28.334   5.832
 3498POPC   C1A45699  36.217  28.109   6.224
 3498POPC   D2A45700  36.447  28.350   6.524
 3498POPC   C3A45701  36.381  28.192   6.905
 3498POPC   C4A45702  36.468  28.481   7.209
 3498POPC   C1B45703  35.713  28.204   6.232
 3498POPC   C2B45704  35.865  27.983   6.602
 3498POPC   C3B45705  35.877  28.189   7.012
 3498POPC   C4B45706  35.838  27.989   7.376
 3499POPC   NC345707  11.479  38.900   5.586
 3499POPC   PO445708  11.554  39.479   5.396
 3499POPC   GL145709  11.666  39.578   5.830
 3499POPC   GL245710  11.470  39.268   5.964
 3499POPC   C1A45711  11.448  39.690   6.254
 3499POPC   D2A45712  11.192  39.424   6.601
 3499POPC   C3A45713  11.430  39.111   6.885
 3499POPC   C4A45714  11.569  39.062   7.325
 3499POPC   C1B45715  11.135  39.026   6.225
 3499POPC   C2B45716  10.768  38.931   6.495
 3499POPC   C3B45717  10.801  39.144   6.891
 3499POPC   C4B45718  11.083  39.281   7.218
 3500POPC   NC345719  17.961  23.042   5.430
 3500POPC   PO445720  18.609  23.233   5.479
 3500POPC   GL145721  18.330  23.168   5.750
 3500POPC   GL245722  18.362  22.828   5.739
 3500POPC   C1A45723  18.275  23.185   6.167
 3500POPC   D2A45724  18.522  22.999   6.481
 3500POPC   C3A45725  18.491  23.158   6.897
 3500POPC   C4A45726  18.760  23.028   7.233
 3500POPC   C1B45727  18.014  22.762   6.035
 3500POPC   C2B45728  18.002  22.846   6.468
 3500POPC   C3B45729  18.242  22.703   6.842
 3500POPC   C4B45730  18.241  22.767   7.275
 3501POPC   NC345731   0.125  25.096   5.476
 3501POPC   PO445732   0.532  25.633   5.634
 3501POPC   GL145733   0.453  25.244   5.861
 3501POPC   GL245734   0.216  25.491   6.051
 3501POPC   C1A45735   0.226  25.025   6.213
 3501POPC   D2A45736   0.164  25.268   6.602
 3501POPC   C3A45737   0.292  25.164   7.033
 3501POPC   C4A45738   0.359  24.954   7.476
 3501POPC   C1B45739   0.583  25.401   6.333
 3501POPC   C2B45740   0.602  25.588   6.735
 3501POPC   C3B45741   0.453  25.634   7.148
 3501POPC   C4B45742   0.717  25.281   7.298
 3502POPC   NC345743   5.685  32.554   5.547
 3502POPC   PO445744   5.812  31.997   5.150
 3502POPC   GL145745   5.909  32.123   5.688
 3502POPC   GL245746   6.076  32.515   5.839
 3502POPC   C1A45747   5.954  32.152   6.169
 3502POPC   D2A45748   5.739  32.369   6.535
 3502POPC   C3A45749   5.623  32.203   6.941
 3502POPC   C4A45750   5.533  32.265   7.370
 3502POPC   C1B45751   6.315  32.608   6.211
 3502POPC   C2B45752   6.244  32.444   6.609
 3502POPC   C3B45753   5.999  32.550   6.965
 3502POPC   C4B45754   6.076  32.482   7.400
 3503POPC   NC345755  10.520  34.231   5.421
 3503POPC   PO445756  10.653  34.924   5.429
 3503POPC   GL145757  10.652  34.632   5.732
 3503POPC   GL245758  10.361  34.554   5.845
 3503POPC   C1A45759  10.747  34.587   6.187
 3503POPC   D2A45760  10.740  34.789   6.610
 3503POPC   C3A45761  10.889  34.591   6.973
 3503POPC   C4A45762  10.654  34.392   7.292
 3503POPC   C1B45763  10.265  34.792   6.247
 3503POPC   C2B45764  10.240  34.775   6.725
 3503POPC   C3B45765  10.369  34.813   7.180
 3503POPC   C4B45766  10.385  34.669   7.631
 3504POPC   NC345767  34.385  37.949   5.468
 3504POPC   PO445768  34.826  37.414   5.379
 3504POPC   GL145769  34.773  37.680   5.742
 3504POPC   GL245770  34.414  37.597   5.845
 3504POPC   C1A45771  34.759  37.675   6.224
 3504POPC   D2A45772  34.885  37.520   6.643
 3504POPC   C3A45773  34.717  37.333   7.024
 3504POPC   C4A45774  34.863  37.532   7.394
 3504POPC   C1B45775  34.288  37.827   6.234
 3504POPC   C2B45776  34.440  37.815   6.678
 3504POPC   C3B45777  34.340  37.692   7.101
 3504POPC   C4B45778  34.075  37.840   7.437
 3505POPC   NC345779  30.232  34.887   5.500
 3505POPC   PO445780  29.755  34.524   5.251
 3505POPC   GL145781  29.766  34.471   5.719
 3505POPC   GL245782  29.825  34.804   5.822
 3505POPC   C1A45783  29.990  34.462   6.169
 3505POPC   D2A45784  30.199  34.465   6.617
 3505POPC   C3A45785  29.989  34.444   7.042
 3505POPC   C4A45786  29.759  34.154   7.293
 3505POPC   C1B45787  30.032  34.978   6.178
 3505POPC   C2B45788  30.196  34.981   6.573
 3505POPC   C3B45789  30.015  34.955   6.960
 3505POPC   C4B45790  29.798  34.899   7.330
 3506POPC   NC345791   3.897  24.179   5.302
 3506POPC   PO445792   4.552  24.471   5.361
 3506POPC   GL145793   4.226  24.399   5.723
 3506POPC   GL245794   3.981  24.698   5.818
 3506POPC   C1A45795   4.208  24.426   6.195
 3506POPC   D2A45796   4.395  24.532   6.613
 3506POPC   C3A45797   4.324  24.305   6.981
 3506POPC   C4A45798   4.164  24.322   7.382
 3506POPC   C1B45799   3.949  24.865   6.271
 3506POPC   C2B45800   3.991  24.824   6.726
 3506POPC   C3B45801   4.256  24.815   7.097
 3506POPC   C4B45802   4.240  24.895   7.537
 3507POPC   NC345803   1.189  21.643   5.346
 3507POPC   PO445804   0.880  21.106   5.491
 3507POPC   GL145805   1.077  21.430   5.814
 3507POPC   GL245806   1.368  21.690   5.817
 3507POPC   C1A45807   1.243  21.253   6.214
 3507POPC   D2A45808   1.272  20.991   6.607
 3507POPC   C3A45809   1.130  21.188   7.001
 3507POPC   C4A45810   1.125  21.145   7.450
 3507POPC   C1B45811   1.444  21.704   6.269
 3507POPC   C2B45812   1.154  21.550   6.610
 3507POPC   C3B45813   1.010  21.679   6.988
 3507POPC   C4B45814   1.411  21.646   7.189
 3508POPC   NC345815  23.581  14.164   5.389
 3508POPC   PO445816  23.984  14.727   5.461
 3508POPC   GL145817  23.749  14.660   5.839
 3508POPC   GL245818  23.615  14.309   5.899
 3508POPC   C1A45819  23.606  14.772   6.234
 3508POPC   D2A45820  23.567  14.507   6.581
 3508POPC   C3A45821  23.831  14.556   6.933
 3508POPC   C4A45822  23.709  14.807   7.267
 3508POPC   C1B45823  23.532  14.029   6.266
 3508POPC   C2B45824  23.499  14.020   6.725
 3508POPC   C3B45825  23.373  14.334   7.045
 3508POPC   C4B45826  23.520  14.377   7.494
 3509POPC   NC345827  10.823  42.157   5.311
 3509POPC   PO445828  11.488  42.456   5.339
 3509POPC   GL145829  11.372  42.466   5.772
 3509POPC   GL245830  11.079  42.275   5.798
 3509POPC   C1A45831  11.434  42.432   6.221
 3509POPC   D2A45832  11.422  42.622   6.645
 3509POPC   C3A45833  11.302  42.302   6.941
 3509POPC   C4A45834  11.560  42.244   7.312
 3509POPC   C1B45835  10.933  42.120   6.223
 3509POPC   C2B45836  11.020  41.856   6.636
 3509POPC   C3B45837  10.978  41.920   7.108
 3509POPC   C4B45838  11.101  42.135   7.528
 3510POPC   NC345839  39.671  12.869   5.531
 3510POPC   PO445840  39.013  12.982   5.457
 3510POPC   GL145841  39.227  12.879   5.839
 3510POPC   GL245842  39.450  13.153   5.871
 3510POPC   C1A45843  39.167  12.677   6.241
 3510POPC   D2A45844  39.309  12.769   6.649
 3510POPC   C3A45845  39.047  12.684   6.995
 3510POPC   C4A45846  39.243  12.831   7.342
 3510POPC   C1B45847  39.592  13.012   6.271
 3510POPC   C2B45848  39.539  13.237   6.661
 3510POPC   C3B45849  39.556  13.047   7.024
 3510POPC   C4B45850  39.718  12.651   7.168
 3511POPC   NC345851  36.815  15.435   5.040
 3511POPC   PO445852  37.305  15.208   5.432
 3511POPC   GL145853  36.998  15.241   5.779
 3511POPC   GL245854  36.796  15.512   5.702
 3511POPC   C1A45855  36.845  14.995   6.154
 3511POPC   D2A45856  36.840  15.165   6.550
 3511POPC   C3A45857  36.797  14.936   6.926
 3511POPC   C4A45858  36.970  15.189   7.238
 3511POPC   C1B45859  36.578  15.431   6.089
 3511POPC   C2B45860  36.393  15.416   6.491
 3511POPC   C3B45861  36.553  15.382   6.923
 3511POPC   C4B45862  36.528  15.532   7.328
 3512POPC   NC345863  37.210  39.565   5.604
 3512POPC   PO445864  37.257  40.205   5.301
 3512POPC   GL145865  37.016  40.090   5.715
 3512POPC   GL245866  36.805  39.776   5.808
 3512POPC   C1A45867  36.886  40.228   6.159
 3512POPC   D2A45868  36.919  40.050   6.594
 3512POPC   C3A45869  36.777  40.107   7.002
 3512POPC   C4A45870  37.125  40.116   7.286
 3512POPC   C1B45871  36.992  39.747   6.198
 3512POPC   C2B45872  36.940  39.509   6.543
 3512POPC   C3B45873  36.992  39.633   6.927
 3512POPC   C4B45874  36.953  39.601   7.323
 3513POPC   NC345875  43.204  32.490   5.269
 3513POPC   PO445876  43.033  31.873   5.492
 3513POPC   GL145877  43.097  32.239   5.734
 3513POPC   GL245878  42.819  32.474   5.697
 3513POPC   C1A45879  43.277  32.333   6.166
 3513POPC   D2A45880  43.184  32.436   6.609
 3513POPC   C3A45881  42.954  32.163   6.901
 3513POPC   C4A45882  43.200  31.948   7.168
 3513POPC   C1B45883  42.889  32.678   6.143
 3513POPC   C2B45884  42.864  32.842   6.591
 3513POPC   C3B45885  42.862  32.643   6.994
 3513POPC   C4B45886  43.036  32.420   7.384
 3514POPC   NC345887   1.993  16.222   5.544
 3514POPC   PO445888   2.187  15.696   5.267
 3514POPC   GL145889   2.128  15.676   5.736
 3514POPC   GL245890   2.177  15.987   5.966
 3514POPC   C1A45891   1.962  15.594   6.160
 3514POPC   D2A45892   1.899  15.874   6.516
 3514POPC   C3A45893   1.885  15.698   6.910
 3514POPC   C4A45894   1.844  15.792   7.315
 3514POPC   C1B45895   2.182  16.269   6.341
 3514POPC   C2B45896   1.918  16.402   6.707
 3514POPC   C3B45897   1.773  16.291   7.108
 3514POPC   C4B45898   1.972  16.299   7.540
 3515POPC   NC345899  28.866  23.531   5.283
 3515POPC   PO445900  29.377  23.896   5.399
 3515POPC   GL145901  29.315  23.725   5.775
 3515POPC   GL245902  28.981  23.888   5.852
 3515POPC   C1A45903  29.374  23.580   6.171
 3515POPC   D2A45904  29.114  23.735   6.498
 3515POPC   C3A45905  29.317  23.792   6.880
 3515POPC   C4A45906  29.219  23.654   7.308
 3515POPC   C1B45907  28.919  23.462   6.017
 3515POPC   C2B45908  28.987  23.236   6.444
 3515POPC   C3B45909  29.074  23.336   6.887
 3515POPC   C4B45910  28.903  23.247   7.257
 3516POPC   NC345911  31.903   3.308   5.536
 3516POPC   PO445912  32.475   3.701   5.417
 3516POPC   GL145913  32.335   3.455   5.763
 3516POPC   GL245914  32.085   3.689   5.822
 3516POPC   C1A45915  32.162   3.324   6.177
 3516POPC   D2A45916  32.360   3.296   6.573
 3516POPC   C3A45917  32.137   3.203   6.924
 3516POPC   C4A45918  32.109   3.303   7.311
 3516POPC   C1B45919  32.348   3.801   6.169
 3516POPC   C2B45920  32.432   3.826   6.582
 3516POPC   C3B45921  32.177   3.726   6.910
 3516POPC   C4B45922  32.313   3.757   7.296
 3517POPC   NC345923  30.929  43.384   5.473
 3517POPC   PO445924  30.897  42.739   5.223
 3517POPC   GL145925  30.729  42.854   5.666
 3517POPC   GL245926  30.557  43.204   5.772
 3517POPC   C1A45927  30.828  42.852   6.123
 3517POPC   D2A45928  30.975  42.961   6.570
 3517POPC   C3A45929  30.678  42.742   6.893
 3517POPC   C4A45930  30.425  42.925   7.268
 3517POPC   C1B45931  30.728  43.342   6.185
 3517POPC   C2B45932  30.528  43.194   6.580
 3517POPC   C3B45933  30.390  43.334   6.978
 3517POPC   C4B45934  30.593  43.532   7.288
 3518POPC   NC345935  14.668  30.995   5.362
 3518POPC   PO445936  15.241  30.573   5.368
 3518POPC   GL145937  15.044  30.568   5.769
 3518POPC   GL245938  14.913  30.847   5.854
 3518POPC   C1A45939  15.229  30.630   6.208
 3518POPC   D2A45940  15.144  30.713   6.672
 3518POPC   C3A45941  15.278  30.391   6.993
 3518POPC   C4A45942  15.031  30.028   7.152
 3518POPC   C1B45943  14.792  31.013   6.262
 3518POPC   C2B45944  14.934  31.180   6.667
 3518POPC   C3B45945  15.309  31.217   6.940
 3518POPC   C4B45946  15.429  30.999   7.292
 3519POPC   NC345947  42.512   9.650   5.338
 3519POPC   PO445948  42.405  10.264   5.231
 3519POPC   GL145949  42.352   9.966   5.692
 3519POPC   GL245950  42.214   9.585   5.745
 3519POPC   C1A45951  42.538   9.871   6.090
 3519POPC   D2A45952  42.671   9.888   6.500
 3519POPC   C3A45953  42.477   9.817   6.881
 3519POPC   C4A45954  42.680   9.809   7.284
 3519POPC   C1B45955  42.057   9.711   6.146
 3519POPC   C2B45956  42.084   9.536   6.555
 3519POPC   C3B45957  42.004   9.621   6.986
 3519POPC   C4B45958  42.327   9.461   7.227
 3520POPC   NC345959  36.715  28.554   5.262
 3520POPC   PO445960  37.135  28.029   5.237
 3520POPC   GL145961  36.879  28.201   5.655
 3520POPC   GL245962  36.684  28.514   5.761
 3520POPC   C1A45963  36.716  28.170   6.120
 3520POPC   D2A45964  36.884  28.069   6.563
 3520POPC   C3A45965  36.879  28.284   6.962
 3520POPC   C4A45966  36.820  28.160   7.413
 3520POPC   C1B45967  37.022  28.584   6.087
 3520POPC   C2B45968  36.924  28.601   6.533
 3520POPC   C3B45969  36.793  28.800   6.934
 3520POPC   C4B45970  36.931  28.663   7.350
 3521POPC   NC345971  32.629  38.103   5.248
 3521POPC   PO445972  33.093  38.571   5.332
 3521POPC   GL145973  33.195  38.607   5.814
 3521POPC   GL245974  33.346  38.282   5.980
 3521POPC   C1A45975  33.243  38.696   6.262
 3521POPC   D2A45976  33.408  38.592   6.671
 3521POPC   C3A45977  33.026  38.597   6.863
 3521POPC   C4A45978  32.809  38.671   7.233
 3521POPC   C1B45979  33.239  38.145   6.372
 3521POPC   C2B45980  32.937  38.030   6.685
 3521POPC   C3B45981  32.910  38.171   7.107
 3521POPC   C4B45982  33.256  38.255   7.399
 3522POPC   NC345983  13.183  18.742   5.516
 3522POPC   PO445984  12.532  18.531   5.425
 3522POPC   GL145985  12.804  18.468   5.784
 3522POPC   GL245986  12.819  18.115   5.884
 3522POPC   C1A45987  12.852  18.486   6.237
 3522POPC   D2A45988  13.077  18.367   6.616
 3522POPC   C3A45989  12.932  18.486   6.999
 3522POPC   C4A45990  12.761  18.181   7.281
 3522POPC   C1B45991  13.159  18.061   6.201
 3522POPC   C2B45992  13.228  17.874   6.625
 3522POPC   C3B45993  13.229  18.047   7.057
 3522POPC   C4B45994  13.160  17.918   7.497
 3523POPC   NC345995  19.568  27.933   5.407
 3523POPC   PO445996  20.144  27.524   5.343
 3523POPC   GL145997  19.954  27.769   5.746
 3523POPC   GL245998  19.602  27.770   5.888
 3523POPC   C1A45999  19.970  27.912   6.214
 3523POPC   D2A46000  19.989  28.110   6.630
 3523POPC   C3A46001  20.128  27.816   6.980
 3523POPC   C4A46002  19.962  27.470   7.268
 3523POPC   C1B46003  19.476  27.824   6.331
 3523POPC   C2B46004  19.510  27.887   6.769
 3523POPC   C3B46005  19.502  27.621   7.123
 3523POPC   C4B46006  19.427  27.364   7.488
 3524POPC   NC346007  10.421  29.786   5.123
 3524POPC   PO446008  10.298  29.512   5.727
 3524POPC   GL146009  10.480  29.650   6.076
 3524POPC   GL246010  10.513  30.006   5.997
 3524POPC   C1A46011  10.420  29.835   6.474
 3524POPC   D2A46012  10.320  30.268   6.433
 3524POPC   C3A46013  10.287  30.271   6.843
 3524POPC   C4A46014  10.415  29.882   7.047
 3524POPC   C1B46015  10.879  29.934   6.290
 3524POPC   C2B46016  10.872  29.802   6.756
 3524POPC   C3B46017  10.889  29.784   7.222
 3524POPC   C4B46018  10.958  29.989   7.628
 3525POPC   NC346019  32.312  22.791   5.478
 3525POPC   PO446020  31.679  22.625   5.666
 3525POPC   GL146021  31.978  22.763   5.882
 3525POPC   GL246022  32.050  23.069   5.835
 3525POPC   C1A46023  32.147  22.659   6.258
 3525POPC   D2A46024  32.191  22.879   6.644
 3525POPC   C3A46025  32.169  22.671   7.032
 3525POPC   C4A46026  32.233  22.738   7.454
 3525POPC   C1B46027  32.263  23.171   6.205
 3525POPC   C2B46028  32.381  23.372   6.575
 3525POPC   C3B46029  32.208  23.281   6.975
 3525POPC   C4B46030  32.326  23.217   7.368
 3526POPC   NC346031  29.691  12.302   5.356
 3526POPC   PO446032  30.227  12.668   5.680
 3526POPC   GL146033  30.059  12.283   5.874
 3526POPC   GL246034  29.958  11.985   5.691
 3526POPC   C1A46035  29.869  12.228   6.267
 3526POPC   D2A46036  29.855  12.389   6.666
 3526POPC   C3A46037  30.058  12.107   6.893
 3526POPC   C4A46038  30.158  12.144   7.292
 3526POPC   C1B46039  29.646  11.858   5.987
 3526POPC   C2B46040  29.631  11.809   6.438
 3526POPC   C3B46041  29.606  11.876   6.873
 3526POPC   C4B46042  29.644  12.190   7.208
 3527POPC   NC346043   7.322  33.040   5.437
 3527POPC   PO446044   7.929  32.709   5.189
 3527POPC   GL146045   7.799  32.608   5.751
 3527POPC   GL246046   7.456  32.837   5.875
 3527POPC   C1A46047   7.658  32.565   6.210
 3527POPC   D2A46048   7.272  32.732   6.466
 3527POPC   C3A46049   7.390  32.975   6.854
 3527POPC   C4A46050   7.616  32.884   7.258
 3527POPC   C1B46051   7.209  33.163   6.148
 3527POPC   C2B46052   7.194  33.415   6.561
 3527POPC   C3B46053   7.039  33.471   6.976
 3527POPC   C4B46054   7.177  33.168   7.283
 3528POPC   NC346055  35.585   1.331   5.455
 3528POPC   PO446056  36.286   1.238   5.453
 3528POPC   GL146057  35.993   1.198   5.779
 3528POPC   GL246058  35.761   0.905   5.708
 3528POPC   C1A46059  36.082   1.339   6.216
 3528POPC   D2A46060  36.107   1.519   6.637
 3528POPC   C3A46061  36.380   1.364   6.964
 3528POPC   C4A46062  36.141   1.483   7.276
 3528POPC   C1B46063  35.955   0.839   6.131
 3528POPC   C2B46064  36.168   0.891   6.518
 3528POPC   C3B46065  36.039   0.981   6.930
 3528POPC   C4B46066  36.196   0.977   7.339
 3529POPC   NC346067  28.436  13.984   5.490
 3529POPC   PO446068  28.718  14.494   5.775
 3529POPC   GL146069  28.322  14.367   5.947
 3529POPC   GL246070  28.128  14.041   5.889
 3529POPC   C1A46071  28.295  14.561   6.352
 3529POPC   D2A46072  28.486  14.489   6.763
 3529POPC   C3A46073  28.275  14.681   7.125
 3529POPC   C4A46074  28.291  14.620   7.569
 3529POPC   C1B46075  28.167  14.045   6.303
 3529POPC   C2B46076  28.018  14.231   6.664
 3529POPC   C3B46077  28.205  14.177   7.070
 3529POPC   C4B46078  28.633  14.324   7.245
 3530POPC   NC346079   9.559  20.204   5.263
 3530POPC   PO446080   9.754  19.585   5.400
 3530POPC   GL146081   9.841  19.752   5.805
 3530POPC   GL246082   9.688  20.083   5.760
 3530POPC   C1A46083  10.004  19.895   6.225
 3530POPC   D2A46084   9.795  20.024   6.619
 3530POPC   C3A46085   9.653  19.684   6.911
 3530POPC   C4A46086  10.055  19.597   7.032
 3530POPC   C1B46087   9.489  19.956   6.147
 3530POPC   C2B46088   9.309  19.879   6.547
 3530POPC   C3B46089   9.367  20.108   6.920
 3530POPC   C4B46090   9.240  20.000   7.333
 3531POPC   NC346091   3.990   3.269   5.321
 3531POPC   PO446092   4.615   3.495   5.498
 3531POPC   GL146093   4.193   3.543   5.708
 3531POPC   GL246094   4.096   3.859   5.740
 3531POPC   C1A46095   4.025   3.492   6.129
 3531POPC   D2A46096   4.241   3.395   6.524
 3531POPC   C3A46097   4.276   3.657   6.876
 3531POPC   C4A46098   4.433   3.519   7.279
 3531POPC   C1B46099   4.150   3.977   6.178
 3531POPC   C2B46100   4.167   4.119   6.609
 3531POPC   C3B46101   3.943   4.032   6.964
 3531POPC   C4B46102   3.951   3.824   7.320
 3532POPC   NC346103   4.579   4.704   5.184
 3532POPC   PO446104   4.413   5.393   5.295
 3532POPC   GL146105   4.325   5.213   5.730
 3532POPC   GL246106   3.960   5.253   5.814
 3532POPC   C1A46107   4.430   5.049   6.172
 3532POPC   D2A46108   4.284   5.141   6.598
 3532POPC   C3A46109   4.384   4.985   7.012
 3532POPC   C4A46110   4.660   4.961   7.392
 3532POPC   C1B46111   4.078   5.463   6.209
 3532POPC   C2B46112   4.086   5.632   6.628
 3532POPC   C3B46113   4.053   5.380   6.997
 3532POPC   C4B46114   3.898   5.286   7.392
 3533POPC   NC346115  13.285   3.426   5.465
 3533POPC   PO446116  13.774   3.827   5.342
 3533POPC   GL146117  13.815   3.762   5.802
 3533POPC   GL246118  13.446   3.756   5.840
 3533POPC   C1A46119  14.048   3.649   6.232
 3533POPC   D2A46120  14.036   3.346   6.619
 3533POPC   C3A46121  13.802   3.500   6.972
 3533POPC   C4A46122  13.456   3.375   7.215
 3533POPC   C1B46123  13.253   3.839   6.237
 3533POPC   C2B46124  13.336   3.628   6.607
 3533POPC   C3B46125  13.194   3.845   6.928
 3533POPC   C4B46126  13.432   3.888   7.262
 3534POPC   NC346127  26.261  34.163   5.240
 3534POPC   PO446128  26.043  34.756   5.358
 3534POPC   GL146129  26.004  34.502   5.707
 3534POPC   GL246130  26.331  34.454   5.734
 3534POPC   C1A46131  25.819  34.520   6.147
 3534POPC   D2A46132  25.671  34.304   6.515
 3534POPC   C3A46133  25.842  34.443   6.893
 3534POPC   C4A46134  25.936  34.882   7.052
 3534POPC   C1B46135  26.292  34.681   6.126
 3534POPC   C2B46136  26.180  34.574   6.534
 3534POPC   C3B46137  26.373  34.605   6.936
 3534POPC   C4B46138  26.377  34.821   7.323
 3535POPC   NC346139  24.392  10.161   5.609
 3535POPC   PO446140  24.672  10.812   5.626
 3535POPC   GL146141  24.499  10.578   5.905
 3535POPC   GL246142  24.698  10.267   6.000
 3535POPC   C1A46143  24.509  10.822   6.266
 3535POPC   D2A46144  24.746  10.714   6.618
 3535POPC   C3A46145  24.606  10.440   6.933
 3535POPC   C4A46146  24.533  10.639   7.315
 3535POPC   C1B46147  24.455  10.340   6.377
 3535POPC   C2B46148  24.150  10.338   6.712
 3535POPC   C3B46149  24.135  10.362   7.196
 3535POPC   C4B46150  24.376  10.256   7.606
 3536POPC   NC346151  25.008  24.568   5.484
 3536POPC   PO446152  25.581  24.265   5.328
 3536POPC   GL146153  25.392  24.329   5.722
 3536POPC   GL246154  25.477  24.683   5.760
 3536POPC   C1A46155  25.212  24.349   6.141
 3536POPC   D2A46156  25.394  24.214   6.531
 3536POPC   C3A46157  25.244  24.290   6.937
 3536POPC   C4A46158  25.536  24.302   7.275
 3536POPC   C1B46159  25.238  24.890   6.091
 3536POPC   C2B46160  25.088  24.722   6.467
 3536POPC   C3B46161  25.247  24.788   6.832
 3536POPC   C4B46162  25.184  24.688   7.251
 3537POPC   NC346163   2.325   5.241   5.487
 3537POPC   PO446164   2.697   4.782   5.773
 3537POPC   GL146165   2.662   5.226   5.901
 3537POPC   GL246166   2.996   5.287   5.784
 3537POPC   C1A46167   2.704   5.357   6.330
 3537POPC   D2A46168   2.737   5.035   6.637
 3537POPC   C3A46169   2.529   5.148   7.019
 3537POPC   C4A46170   2.537   5.350   7.427
 3537POPC   C1B46171   3.104   5.065   6.188
 3537POPC   C2B46172   3.219   5.231   6.575
 3537POPC   C3B46173   3.030   5.259   6.996
 3537POPC   C4B46174   2.906   4.996   7.362
 3538POPC   NC346175  27.878  42.554   5.315
 3538POPC   PO446176  27.235  42.617   5.311
 3538POPC   GL146177  27.542  42.542   5.727
 3538POPC   GL246178  27.981  42.635   5.793
 3538POPC   C1A46179  27.354  42.455   6.167
 3538POPC   D2A46180  27.217  42.543   6.612
 3538POPC   C3A46181  27.422  42.438   7.007
 3538POPC   C4A46182  27.347  42.085   7.299
 3538POPC   C1B46183  27.867  42.510   6.185
 3538POPC   C2B46184  27.687  42.288   6.546
 3538POPC   C3B46185  27.812  42.109   6.944
 3538POPC   C4B46186  27.947  42.409   7.219
 3539POPC   NC346187  37.775   0.295   5.412
 3539POPC   PO446188  37.950   0.768   5.156
 3539POPC   GL146189  37.810   0.737   5.657
 3539POPC   GL246190  37.433   0.709   5.646
 3539POPC   C1A46191  37.790   0.433   6.067
 3539POPC   D2A46192  37.599   0.398   6.489
 3539POPC   C3A46193  37.708   0.241   6.901
 3539POPC   C4A46194  37.623   0.376   7.304
 3539POPC   C1B46195  37.376   0.751   6.117
 3539POPC   C2B46196  37.507   0.912   6.540
 3539POPC   C3B46197  37.438   0.752   6.945
 3539POPC   C4B46198  37.184   0.698   7.297
 3540POPC   NC346199   4.388  15.586   5.554
 3540POPC   PO446200   4.094  16.159   5.406
 3540POPC   GL146201   4.260  16.142   5.856
 3540POPC   GL246202   4.329  15.806   6.004
 3540POPC   C1A46203   4.210  16.182   6.329
 3540POPC   D2A46204   4.111  16.396   6.687
 3540POPC   C3A46205   4.066  16.078   7.024
 3540POPC   C4A46206   4.292  15.924   7.380
 3540POPC   C1B46207   4.588  15.861   6.371
 3540POPC   C2B46208   4.479  15.885   6.795
 3540POPC   C3B46209   4.725  15.773   7.161
 3540POPC   C4B46210   4.740  15.714   7.593
 3541POPC   NC346211  38.410  38.096   5.608
 3541POPC   PO446212  38.683  37.535   5.391
 3541POPC   GL146213  38.685  37.700   5.806
 3541POPC   GL246214  38.892  38.003   5.800
 3541POPC   C1A46215  38.361  37.688   6.155
 3541POPC   D2A46216  38.202  37.779   6.576
 3541POPC   C3A46217  38.399  37.567   6.915
 3541POPC   C4A46218  38.333  37.642   7.358
 3541POPC   C1B46219  38.798  37.935   6.250
 3541POPC   C2B46220  38.748  37.854   6.670
 3541POPC   C3B46221  38.818  37.826   7.095
 3541POPC   C4B46222  38.796  38.105   7.401
 3542POPC   NC346223  30.407  27.382   5.443
 3542POPC   PO446224  31.043  27.229   5.554
 3542POPC   GL146225  30.791  27.480   5.833
 3542POPC   GL246226  30.733  27.811   5.661
 3542POPC   C1A46227  30.811  27.536   6.282
 3542POPC   D2A46228  30.593  27.431   6.664
 3542POPC   C3A46229  30.815  27.462   7.043
 3542POPC   C4A46230  30.618  27.297   7.383
 3542POPC   C1B46231  30.514  27.910   6.035
 3542POPC   C2B46232  30.565  27.927   6.511
 3542POPC   C3B46233  30.475  27.886   6.946
 3542POPC   C4B46234  30.773  27.917   7.285
 3543POPC   NC346235  19.396  39.012   5.397
 3543POPC   PO446236  18.895  39.482   5.354
 3543POPC   GL146237  18.928  39.378   5.778
 3543POPC   GL246238  19.081  39.067   5.802
 3543POPC   C1A46239  19.129  39.453   6.184
 3543POPC   D2A46240  19.001  39.379   6.621
 3543POPC   C3A46241  19.238  39.099   6.880
 3543POPC   C4A46242  19.295  39.085   7.321
 3543POPC   C1B46243  19.047  38.947   6.249
 3543POPC   C2B46244  18.803  38.879   6.617
 3543POPC   C3B46245  18.741  39.088   6.997
 3543POPC   C4B46246  18.800  39.023   7.410
 3544POPC   NC346247  35.493  32.754   5.195
 3544POPC   PO446248  34.892  32.793   5.507
 3544POPC   GL146249  35.159  32.974   5.825
 3544POPC   GL246250  35.362  33.317   5.811
 3544POPC   C1A46251  35.200  32.766   6.206
 3544POPC   D2A46252  35.407  32.846   6.564
 3544POPC   C3A46253  35.202  32.756   6.926
 3544POPC   C4A46254  35.505  32.795   7.255
 3544POPC   C1B46255  35.289  33.298   6.284
 3544POPC   C2B46256  35.314  33.325   6.752
 3544POPC   C3B46257  35.238  33.233   7.159
 3544POPC   C4B46258  35.241  33.414   7.586
 3545POPC   NC346259  32.275   4.823   5.481
 3545POPC   PO446260  32.544   5.463   5.498
 3545POPC   GL146261  32.370   5.198   5.840
 3545POPC   GL246262  32.004   5.074   5.859
 3545POPC   C1A46263  32.428   4.926   6.203
 3545POPC   D2A46264  32.266   4.784   6.607
 3545POPC   C3A46265  32.442   5.037   6.985
 3545POPC   C4A46266  32.534   4.921   7.439
 3545POPC   C1B46267  31.851   5.209   6.292
 3545POPC   C2B46268  31.835   5.086   6.730
 3545POPC   C3B46269  31.966   4.785   7.032
 3545POPC   C4B46270  32.079   5.090   7.344
 3546POPC   NC346271  14.607  38.872   5.430
 3546POPC   PO446272  14.226  38.286   5.379
 3546POPC   GL146273  14.217  38.553   5.746
 3546POPC   GL246274  14.518  38.521   5.770
 3546POPC   C1A46275  14.173  38.412   6.172
 3546POPC   D2A46276  13.973  38.313   6.530
 3546POPC   C3A46277  14.230  38.387   6.894
 3546POPC   C4A46278  14.156  38.382   7.304
 3546POPC   C1B46279  14.594  38.694   6.117
 3546POPC   C2B46280  14.602  38.590   6.525
 3546POPC   C3B46281  14.589  38.833   6.909
 3546POPC   C4B46282  14.643  38.660   7.293
 3547POPC   NC346283  21.723  24.951   5.416
 3547POPC   PO446284  20.971  24.876   5.407
 3547POPC   GL146285  21.101  24.600   5.807
 3547POPC   GL246286  21.417  24.460   5.706
 3547POPC   C1A46287  21.175  24.434   6.256
 3547POPC   D2A46288  21.068  24.475   6.681
 3547POPC   C3A46289  21.449  24.476   6.903
 3547POPC   C4A46290  21.562  24.696   7.290
 3547POPC   C1B46291  21.550  24.179   6.048
 3547POPC   C2B46292  21.535  24.085   6.504
 3547POPC   C3B46293  21.751  24.042   6.912
 3547POPC   C4B46294  21.582  24.175   7.308
 3548POPC   NC346295  20.417  27.893   5.280
 3548POPC   PO446296  20.634  28.363   5.579
 3548POPC   GL146297  20.439  28.501   5.902
 3548POPC   GL246298  20.252  28.210   5.932
 3548POPC   C1A46299  20.619  28.696   6.272
 3548POPC   D2A46300  20.821  28.576   6.656
 3548POPC   C3A46301  20.684  28.533   7.064
 3548POPC   C4A46302  20.399  28.753   7.226
 3548POPC   C1B46303  20.456  28.206   6.354
 3548POPC   C2B46304  20.556  28.109   6.799
 3548POPC   C3B46305  20.740  28.013   7.218
 3548POPC   C4B46306  21.202  28.026   7.368
 3549POPC   NC346307   3.497  19.593   5.228
 3549POPC   PO446308   3.351  20.046   5.655
 3549POPC   GL146309   3.579  19.756   5.879
 3549POPC   GL246310   3.890  19.922   5.799
 3549POPC   C1A46311   3.423  19.793   6.303
 3549POPC   D2A46312   3.339  20.086   6.578
 3549POPC   C3A46313   3.511  19.880   6.878
 3549POPC   C4A46314   3.507  19.898   7.269
 3549POPC   C1B46315   3.741  20.153   6.159
 3549POPC   C2B46316   3.857  20.085   6.543
 3549POPC   C3B46317   3.987  20.036   6.975
 3549POPC   C4B46318   3.759  20.330   7.175
 3550POPC   NC346319  17.659  24.572   5.167
 3550POPC   PO446320  17.234  24.135   5.329
 3550POPC   GL146321  17.350  24.353   5.715
 3550POPC   GL246322  17.481  24.699   5.746
 3550POPC   C1A46323  17.555  24.319   6.118
 3550POPC   D2A46324  17.701  24.502   6.514
 3550POPC   C3A46325  17.545  24.315   6.920
 3550POPC   C4A46326  17.559  24.352   7.406
 3550POPC   C1B46327  17.458  24.847   6.196
 3550POPC   C2B46328  17.270  24.751   6.601
 3550POPC   C3B46329  17.235  24.784   7.051
 3550POPC   C4B46330  17.549  24.903   7.350
 3551POPC   NC346331  29.503  22.510   5.231
 3551POPC   PO446332  29.967  21.950   5.352
 3551POPC   GL146333  30.022  22.183   5.752
 3551POPC   GL246334  29.766  22.181   6.006
 3551POPC   C1A46335  30.251  22.395   6.086
 3551POPC   D2A46336  30.166  22.247   6.499
 3551POPC   C3A46337  29.959  22.434   6.872
 3551POPC   C4A46338  30.152  22.503   7.286
 3551POPC   C1B46339  29.632  22.156   6.443
 3551POPC   C2B46340  29.869  21.925   6.754
 3551POPC   C3B46341  29.999  21.997   7.136
 3551POPC   C4B46342  29.649  22.139   7.331
 3552POPC   NC346343  42.878   5.462   5.450
 3552POPC   PO446344  43.345   4.997   5.256
 3552POPC   GL146345  43.157   5.011   5.653
 3552POPC   GL246346  42.882   4.827   5.633
 3552POPC   C1A46347  43.115   5.209   6.057
 3552POPC   D2A46348  43.257   5.376   6.452
 3552POPC   C3A46349  43.275   5.170   6.849
 3552POPC   C4A46350  43.116   5.227   7.244
 3552POPC   C1B46351  42.876   4.764   6.079
 3552POPC   C2B46352  42.988   4.915   6.484
 3552POPC   C3B46353  42.864   4.853   6.916
 3552POPC   C4B46354  43.076   4.717   7.264
 3553POPC   NC346355  23.386  41.975   5.384
 3553POPC   PO446356  22.909  42.402   5.329
 3553POPC   GL146357  22.910  42.440   5.778
 3553POPC   GL246358  22.608  42.421   5.960
 3553POPC   C1A46359  23.056  42.270   6.201
 3553POPC   D2A46360  23.286  42.313   6.627
 3553POPC   C3A46361  23.364  42.573   6.995
 3553POPC   C4A46362  23.335  42.458   7.445
 3553POPC   C1B46363  22.533  42.247   6.353
 3553POPC   C2B46364  22.811  42.136   6.650
 3553POPC   C3B46365  22.927  42.313   7.051
 3553POPC   C4B46366  22.967  42.075   7.409
 3554POPC   NC346367  38.545  36.268   5.165
 3554POPC   PO446368  38.171  35.890   5.610
 3554POPC   GL146369  38.379  36.046   5.978
 3554POPC   GL246370  38.448  36.406   6.026
 3554POPC   C1A46371  38.458  36.056   6.429
 3554POPC   D2A46372  38.664  36.306   6.751
 3554POPC   C3A46373  38.781  35.992   7.061
 3554POPC   C4A46374  38.452  35.771   7.197
 3554POPC   C1B46375  38.142  36.465   6.386
 3554POPC   C2B46376  38.105  36.371   6.833
 3554POPC   C3B46377  38.352  36.265   7.194
 3554POPC   C4B46378  38.518  36.427   7.564
 3555POPC   NC346379  25.155   4.621   5.494
 3555POPC   PO446380  25.062   5.330   5.404
 3555POPC   GL146381  25.190   5.129   5.782
 3555POPC   GL246382  24.951   4.872   5.882
 3555POPC   C1A46383  25.410   5.265   6.160
 3555POPC   D2A46384  25.643   5.366   6.550
 3555POPC   C3A46385  25.549   5.186   6.962
 3555POPC   C4A46386  25.649   4.850   7.261
 3555POPC   C1B46387  24.956   5.042   6.273
 3555POPC   C2B46388  25.265   4.982   6.569
 3555POPC   C3B46389  25.062   5.051   6.951
 3555POPC   C4B46390  25.101   4.954   7.322
 3556POPC   NC346391   3.302  22.830   5.621
 3556POPC   PO446392   3.995  22.802   5.615
 3556POPC   GL146393   3.796  23.005   5.934
 3556POPC   GL246394   3.449  23.062   6.053
 3556POPC   C1A46395   3.847  22.887   6.331
 3556POPC   D2A46396   3.573  22.896   6.642
 3556POPC   C3A46397   3.854  22.894   6.914
 3556POPC   C4A46398   3.786  23.030   7.267
 3556POPC   C1B46399   3.349  22.622   6.265
 3556POPC   C2B46400   3.418  22.408   6.694
 3556POPC   C3B46401   3.496  22.596   7.133
 3556POPC   C4B46402   3.367  22.882   7.485
 3557POPC   NC346403  41.800  14.865   5.396
 3557POPC   PO446404  42.466  14.893   5.348
 3557POPC   GL146405  42.346  15.180   5.708
 3557POPC   GL246406  42.619  15.377   5.837
 3557POPC   C1A46407  42.273  15.184   6.184
 3557POPC   D2A46408  42.461  15.271   6.602
 3557POPC   C3A46409  42.113  15.199   6.908
 3557POPC   C4A46410  42.053  15.017   7.319
 3557POPC   C1B46411  42.705  14.951   6.035
 3557POPC   C2B46412  42.760  14.817   6.492
 3557POPC   C3B46413  42.672  14.947   6.939
 3557POPC   C4B46414  42.550  15.338   7.140
 3558POPC   NC346415  34.814  31.577   5.414
 3558POPC   PO446416  34.469  31.054   5.558
 3558POPC   GL146417  34.614  31.388   5.827
 3558POPC   GL246418  34.401  31.683   5.796
 3558POPC   C1A46419  34.787  31.635   6.152
 3558POPC   D2A46420  34.851  31.352   6.505
 3558POPC   C3A46421  34.786  31.415   6.938
 3558POPC   C4A46422  34.775  31.032   7.214
 3558POPC   C1B46423  34.276  31.493   6.200
 3558POPC   C2B46424  34.016  31.454   6.554
 3558POPC   C3B46425  34.283  31.373   6.849
 3558POPC   C4B46426  34.385  31.345   7.242
 3559POPC   NC346427  22.667  10.801   5.487
 3559POPC   PO446428  23.145  10.357   5.395
 3559POPC   GL146429  22.963  10.389   5.817
 3559POPC   GL246430  22.745  10.655   5.959
 3559POPC   C1A46431  23.079  10.426   6.272
 3559POPC   D2A46432  23.175  10.342   6.685
 3559POPC   C3A46433  23.026  10.591   6.996
 3559POPC   C4A46434  23.140  10.626   7.433
 3559POPC   C1B46435  22.589  10.264   6.153
 3559POPC   C2B46436  22.729  10.120   6.554
 3559POPC   C3B46437  22.772  10.121   7.004
 3559POPC   C4B46438  22.656  10.449   7.301
 3560POPC   NC346439   6.088  44.616   5.304
 3560POPC   PO446440   5.417  44.571   5.523
 3560POPC   GL146441   5.687  44.490   5.914
 3560POPC   GL246442   6.052  44.477   5.862
 3560POPC   C1A46443   5.856  44.591   6.339
 3560POPC   D2A46444   5.927  44.987   6.546
 3560POPC   C3A46445   5.731  44.996   6.942
 3560POPC   C4A46446   5.847  44.746   7.310
 3560POPC   C1B46447   6.258  44.283   6.223
 3560POPC   C2B46448   6.095  44.181   6.612
 3560POPC   C3B46449   5.921  44.469   6.864
 3560POPC   C4B46450   6.265  44.462   7.111
 3561POPC   NC346451  44.099  44.130   5.424
 3561POPC   PO446452  43.531  43.967   5.633
 3561POPC   GL146453  43.788  43.903   5.973
 3561POPC   GL246454  44.140  43.956   5.916
 3561POPC   C1A46455  43.862  44.087   6.376
 3561POPC   D2A46456  43.881  44.308   6.754
 3561POPC   C3A46457  44.015  44.064   7.110
 3561POPC   C4A46458  43.740  43.986   7.467
 3561POPC   C1B46459  44.153  43.690   6.289
 3561POPC   C2B46460  44.082  43.715   6.734
 3561POPC   C3B46461  44.345  43.676   7.070
 3561POPC   C4B46462  44.446  43.935   7.418
 3562POPC   NC346463   8.259  14.624   5.481
 3562POPC   PO446464   8.087  13.978   5.638
 3562POPC   GL146465   8.345  14.204   5.912
 3562POPC   GL246466   8.143  14.532   5.970
 3562POPC   C1A46467   8.393  14.312   6.343
 3562POPC   D2A46468   8.047  14.461   6.606
 3562POPC   C3A46469   8.125  14.384   7.034
 3562POPC   C4A46470   8.003  14.447   7.454
 3562POPC   C1B46471   8.298  14.834   6.315
 3562POPC   C2B46472   8.424  14.811   6.771
 3562POPC   C3B46473   8.383  14.804   7.236
 3562POPC   C4B46474   8.443  14.708   7.703
 3563POPC   NC346475  17.698   3.861   5.623
 3563POPC   PO446476  17.320   3.313   5.453
 3563POPC   GL146477  17.487   3.432   5.852
 3563POPC   GL246478  17.846   3.339   5.879
 3563POPC   C1A46479  17.296   3.514   6.261
 3563POPC   D2A46480  17.087   3.439   6.638
 3563POPC   C3A46481  17.246   3.598   7.012
 3563POPC   C4A46482  17.406   3.422   7.389
 3563POPC   C1B46483  17.792   3.660   6.226
 3563POPC   C2B46484  17.611   3.681   6.638
 3563POPC   C3B46485  17.758   3.605   7.051
 3563POPC   C4B46486  17.895   3.574   7.482
 3564POPC   NC346487   8.778  17.456   5.544
 3564POPC   PO446488   9.448  17.498   5.410
 3564POPC   GL146489   9.264  17.510   5.777
 3564POPC   GL246490   9.088  17.805   5.776
 3564POPC   C1A46491   9.364  17.581   6.201
 3564POPC   D2A46492   9.372  17.367   6.587
 3564POPC   C3A46493   9.358  17.634   6.932
 3564POPC   C4A46494   9.082  17.554   7.302
 3564POPC   C1B46495   8.870  17.714   6.160
 3564POPC   C2B46496   8.955  17.696   6.607
 3564POPC   C3B46497   8.746  17.782   7.008
 3564POPC   C4B46498   8.610  17.709   7.477
 3565POPC   NC346499  21.966   0.900   5.359
 3565POPC   PO446500  22.071   1.534   5.544
 3565POPC   GL146501  22.285   1.242   5.814
 3565POPC   GL246502  22.121   0.899   5.845
 3565POPC   C1A46503  22.415   1.302   6.240
 3565POPC   D2A46504  22.205   1.381   6.627
 3565POPC   C3A46505  22.369   1.521   6.996
 3565POPC   C4A46506  22.205   1.377   7.381
 3565POPC   C1B46507  22.167   0.842   6.274
 3565POPC   C2B46508  22.438   0.923   6.618
 3565POPC   C3B46509  22.275   1.018   7.011
 3565POPC   C4B46510  21.944   0.802   7.167
 3566POPC   NC346511   2.949   6.844   5.557
 3566POPC   PO446512   2.289   6.606   5.658
 3566POPC   GL146513   2.575   6.329   5.857
 3566POPC   GL246514   2.873   6.503   5.926
 3566POPC   C1A46515   2.566   6.366   6.299
 3566POPC   D2A46516   2.798   6.567   6.615
 3566POPC   C3A46517   2.539   6.876   6.819
 3566POPC   C4A46518   2.571   6.764   7.220
 3566POPC   C1B46519   2.998   6.824   6.215
 3566POPC   C2B46520   2.971   7.060   6.593
 3566POPC   C3B46521   3.031   6.882   7.000
 3566POPC   C4B46522   3.274   6.890   7.382
 3567POPC   NC346523  14.586  24.326   5.560
 3567POPC   PO446524  14.008  24.687   5.347
 3567POPC   GL146525  14.196  24.601   5.766
 3567POPC   GL246526  14.140  24.246   5.778
 3567POPC   C1A46527  14.361  24.505   6.230
 3567POPC   D2A46528  14.527  24.174   6.540
 3567POPC   C3A46529  14.607  24.397   6.933
 3567POPC   C4A46530  14.588  24.678   7.281
 3567POPC   C1B46531  14.175  24.051   6.153
 3567POPC   C2B46532  14.024  24.057   6.553
 3567POPC   C3B46533  14.207  24.053   6.944
 3567POPC   C4B46534  14.242  24.314   7.295
 3568POPC   NC346535  35.882  11.492   5.412
 3568POPC   PO446536  36.144  10.862   5.421
 3568POPC   GL146537  36.004  11.129   5.799
 3568POPC   GL246538  36.138  11.501   5.840
 3568POPC   C1A46539  36.065  11.252   6.264
 3568POPC   D2A46540  36.294  11.393   6.624
 3568POPC   C3A46541  36.160  11.125   6.937
 3568POPC   C4A46542  35.891  11.193   7.271
 3568POPC   C1B46543  35.925  11.739   6.186
 3568POPC   C2B46544  35.985  11.817   6.616
 3568POPC   C3B46545  36.057  11.643   7.020
 3568POPC   C4B46546  35.867  11.733   7.414
 3569POPC   NC346547  36.390  34.967   5.573
 3569POPC   PO446548  36.094  35.537   5.625
 3569POPC   GL146549  36.415  35.369   5.898
 3569POPC   GL246550  36.490  34.994   6.065
 3569POPC   C1A46551  36.530  35.452   6.282
 3569POPC   D2A46552  36.467  35.232   6.622
 3569POPC   C3A46553  36.367  35.550   6.869
 3569POPC   C4A46554  36.247  35.554   7.257
 3569POPC   C1B46555  36.046  35.114   6.167
 3569POPC   C2B46556  35.905  35.259   6.557
 3569POPC   C3B46557  36.046  35.158   6.975
 3569POPC   C4B46558  35.741  35.027   7.237
 3570POPC   NC346559  13.705  44.158   5.470
 3570POPC   PO446560  13.387  43.663   5.485
 3570POPC   GL146561  13.452  43.877   5.850
 3570POPC   GL246562  13.804  43.849   5.884
 3570POPC   C1A46563  13.490  43.833   6.287
 3570POPC   D2A46564  13.786  43.912   6.556
 3570POPC   C3A46565  13.585  43.821   6.906
 3570POPC   C4A46566  13.544  44.042   7.255
 3570POPC   C1B46567  13.853  43.496   6.170
 3570POPC   C2B46568  14.023  43.418   6.553
 3570POPC   C3B46569  13.939  43.353   6.984
 3570POPC   C4B46570  13.791  43.583   7.318
 3571POPC   NC346571  26.320  19.193   5.023
 3571POPC   PO446572  25.899  18.877   5.500
 3571POPC   GL146573  25.939  19.025   5.903
 3571POPC   GL246574  26.258  19.150   6.024
 3571POPC   C1A46575  25.771  19.253   6.229
 3571POPC   D2A46576  25.788  19.422   6.648
 3571POPC   C3A46577  25.973  19.102   6.893
 3571POPC   C4A46578  25.837  19.059   7.293
 3571POPC   C1B46579  26.220  19.458   6.354
 3571POPC   C2B46580  26.288  19.498   6.785
 3571POPC   C3B46581  26.270  19.415   7.204
 3571POPC   C4B46582  26.308  19.089   7.517
 3572POPC   NC346583   1.531  28.317   5.370
 3572POPC   PO446584   0.939  28.516   5.279
 3572POPC   GL146585   1.162  28.422   5.695
 3572POPC   GL246586   1.065  28.174   5.848
 3572POPC   C1A46587   1.320  28.497   6.139
 3572POPC   D2A46588   1.211  28.331   6.532
 3572POPC   C3A46589   1.494  28.223   6.823
 3572POPC   C4A46590   1.384  28.437   7.173
 3572POPC   C1B46591   1.097  27.961   6.203
 3572POPC   C2B46592   1.136  27.820   6.620
 3572POPC   C3B46593   1.063  27.984   6.997
 3572POPC   C4B46594   0.923  28.137   7.341
 3573POPC   NC346595  15.348  31.903   5.636
 3573POPC   PO446596  15.359  32.434   5.152
 3573POPC   GL146597  15.356  32.407   5.687
 3573POPC   GL246598  15.047  32.445   5.876
 3573POPC   C1A46599  15.452  32.376   6.168
 3573POPC   D2A46600  15.404  32.101   6.555
 3573POPC   C3A46601  15.187  32.269   6.926
 3573POPC   C4A46602  15.355  32.221   7.314
 3573POPC   C1B46603  15.009  32.099   6.207
 3573POPC   C2B46604  14.885  31.980   6.611
 3573POPC   C3B46605  14.720  32.036   7.026
 3573POPC   C4B46606  14.956  31.923   7.372
 3574POPC   NC346607  21.295  36.446   5.450
 3574POPC   PO446608  21.221  35.748   5.389
 3574POPC   GL146609  21.429  35.928   5.738
 3574POPC   GL246610  21.141  36.116   5.808
 3574POPC   C1A46611  21.569  35.914   6.201
 3574POPC   D2A46612  21.725  35.799   6.622
 3574POPC   C3A46613  21.564  36.048   6.982
 3574POPC   C4A46614  21.489  36.507   7.142
 3574POPC   C1B46615  21.091  35.775   6.112
 3574POPC   C2B46616  21.124  35.885   6.571
 3574POPC   C3B46617  20.991  35.792   6.997
 3574POPC   C4B46618  21.188  35.578   7.333
 3575POPC   NC346619   5.248  40.817   5.390
 3575POPC   PO446620   4.686  40.903   5.643
 3575POPC   GL146621   4.900  40.623   5.937
 3575POPC   GL246622   5.289  40.600   5.910
 3575POPC   C1A46623   4.983  40.662   6.389
 3575POPC   D2A46624   5.297  40.838   6.690
 3575POPC   C3A46625   5.272  40.714   7.114
 3575POPC   C4A46626   4.954  40.653   7.368
 3575POPC   C1B46627   5.407  40.998   6.196
 3575POPC   C2B46628   5.683  41.148   6.568
 3575POPC   C3B46629   5.474  41.286   6.967
 3575POPC   C4B46630   5.359  41.149   7.402
 3576POPC   NC346631   8.265  24.063   5.385
 3576POPC   PO446632   8.216  23.427   5.219
 3576POPC   GL146633   8.254  23.456   5.738
 3576POPC   GL246634   8.290  23.827   5.851
 3576POPC   C1A46635   8.185  23.479   6.212
 3576POPC   D2A46636   8.205  23.741   6.569
 3576POPC   C3A46637   8.090  23.634   6.952
 3576POPC   C4A46638   8.280  23.487   7.277
 3576POPC   C1B46639   8.595  23.766   6.162
 3576POPC   C2B46640   8.716  23.834   6.574
 3576POPC   C3B46641   8.652  23.719   6.997
 3576POPC   C4B46642   8.586  23.820   7.447
 3577POPC   NC346643  31.715  23.206   5.470
 3577POPC   PO446644  31.248  23.821   5.465
 3577POPC   GL146645  31.271  23.764   5.872
 3577POPC   GL246646  31.209  23.434   5.876
 3577POPC   C1A46647  31.443  23.835   6.268
 3577POPC   D2A46648  31.512  23.620   6.630
 3577POPC   C3A46649  31.500  23.813   7.000
 3577POPC   C4A46650  31.259  23.979   7.292
 3577POPC   C1B46651  31.327  23.300   6.284
 3577POPC   C2B46652  31.236  23.194   6.721
 3577POPC   C3B46653  31.161  23.419   7.131
 3577POPC   C4B46654  31.467  23.530   7.439
 3578POPC   NC346655   0.776  35.973   5.621
 3578POPC   PO446656   0.482  36.517   5.349
 3578POPC   GL146657   0.414  36.262   5.787
 3578POPC   GL246658   0.141  36.384   5.918
 3578POPC   C1A46659   0.369  35.985   6.163
 3578POPC   D2A46660   0.612  35.975   6.528
 3578POPC   C3A46661   0.528  36.110   6.979
 3578POPC   C4A46662   0.676  36.118   7.419
 3578POPC   C1B46663   0.153  36.389   6.342
 3578POPC   C2B46664   0.083  36.193   6.690
 3578POPC   C3B46665   0.144  36.441   6.996
 3578POPC   C4B46666   0.251  36.365   7.377
 3579POPC   NC346667  14.967   7.959   5.397
 3579POPC   PO446668  15.553   8.293   5.367
 3579POPC   GL146669  15.223   8.341   5.705
 3579POPC   GL246670  15.258   8.005   5.810
 3579POPC   C1A46671  14.969   8.369   6.121
 3579POPC   D2A46672  14.907   8.585   6.554
 3579POPC   C3A46673  14.954   8.383   6.972
 3579POPC   C4A46674  14.997   8.205   7.441
 3579POPC   C1B46675  15.385   8.107   6.209
 3579POPC   C2B46676  15.184   8.131   6.584
 3579POPC   C3B46677  15.414   8.201   6.930
 3579POPC   C4B46678  15.452   8.038   7.335
 3580POPC   NC346679  26.248  16.595   5.418
 3580POPC   PO446680  25.933  17.170   5.177
 3580POPC   GL146681  26.066  17.061   5.656
 3580POPC   GL246682  25.932  16.746   5.803
 3580POPC   C1A46683  25.901  17.111   6.136
 3580POPC   D2A46684  25.726  16.889   6.546
 3580POPC   C3A46685  25.929  17.018   6.970
 3580POPC   C4A46686  25.894  17.021   7.444
 3580POPC   C1B46687  26.178  16.610   6.140
 3580POPC   C2B46688  26.151  16.533   6.583
 3580POPC   C3B46689  26.032  16.508   7.007
 3580POPC   C4B46690  26.268  16.725   7.281
 3581POPC   NC346691  41.273  21.706   5.667
 3581POPC   PO446692  41.515  21.138   5.457
 3581POPC   GL146693  41.531  21.193   5.949
 3581POPC   GL246694  41.603  21.542   6.031
 3581POPC   C1A46695  41.749  21.202   6.385
 3581POPC   D2A46696  41.553  21.400   6.767
 3581POPC   C3A46697  41.676  21.387   7.213
 3581POPC   C4A46698  41.403  21.197   7.554
 3581POPC   C1B46699  41.395  21.821   6.313
 3581POPC   C2B46700  41.478  21.922   6.709
 3581POPC   C3B46701  41.373  21.797   7.109
 3581POPC   C4B46702  41.300  21.667   7.507
 3582POPC   NC346703  25.669   9.324   5.207
 3582POPC   PO446704  26.123   8.851   5.339
 3582POPC   GL146705  25.938   8.835   5.760
 3582POPC   GL246706  25.836   9.159   5.898
 3582POPC   C1A46707  25.874   8.653   6.169
 3582POPC   D2A46708  25.927   8.583   6.617
 3582POPC   C3A46709  26.021   8.900   6.869
 3582POPC   C4A46710  26.417   8.877   7.084
 3582POPC   C1B46711  26.179   9.068   6.217
 3582POPC   C2B46712  26.423   9.155   6.619
 3582POPC   C3B46713  26.247   9.353   6.977
 3582POPC   C4B46714  26.043   9.169   7.318
 3583POPC   NC346715  35.178  37.098   5.433
 3583POPC   PO446716  35.275  36.403   5.413
 3583POPC   GL146717  35.276  36.706   5.737
 3583POPC   GL246718  35.586  36.890   5.712
 3583POPC   C1A46719  35.275  37.023   6.104
 3583POPC   D2A46720  35.419  37.147   6.524
 3583POPC   C3A46721  35.133  37.028   6.854
 3583POPC   C4A46722  35.123  37.050   7.280
 3583POPC   C1B46723  35.762  36.847   6.137
 3583POPC   C2B46724  35.706  36.686   6.549
 3583POPC   C3B46725  35.603  36.787   6.966
 3583POPC   C4B46726  35.762  36.653   7.381
 3584POPC   NC346727  43.621  11.488   5.540
 3584POPC   PO446728  44.252  11.532   5.702
 3584POPC   GL146729  43.959  11.220   5.852
 3584POPC   GL246730  43.646  11.013   5.753
 3584POPC   C1A46731  43.795  11.398   6.216
 3584POPC   D2A46732  44.032  11.493   6.544
 3584POPC   C3A46733  43.876  11.543   6.938
 3584POPC   C4A46734  44.140  11.460   7.256
 3584POPC   C1B46735  43.693  10.912   6.201
 3584POPC   C2B46736  43.666  11.102   6.653
 3584POPC   C3B46737  43.731  11.042   7.127
 3584POPC   C4B46738  43.592  11.009   7.593
 3585POPC   NC346739  41.299   9.976   5.319
 3585POPC   PO446740  41.869   9.724   5.407
 3585POPC   GL146741  41.598   9.773   5.778
 3585POPC   GL246742  41.240   9.618   5.713
 3585POPC   C1A46743  41.644   9.993   6.209
 3585POPC   D2A46744  41.850   9.998   6.616
 3585POPC   C3A46745  41.580   9.932   6.957
 3585POPC   C4A46746  41.627   9.772   7.383
 3585POPC   C1B46747  41.168   9.932   6.052
 3585POPC   C2B46748  41.208   9.965   6.525
 3585POPC   C3B46749  41.113   9.702   6.895
 3585POPC   C4B46750  41.158   9.608   7.335
 3586POPC   NC346751  30.196  39.712   5.411
 3586POPC   PO446752  29.507  39.946   5.290
 3586POPC   GL146753  29.711  39.967   5.743
 3586POPC   GL246754  30.057  39.932   5.846
 3586POPC   C1A46755  29.669  39.922   6.235
 3586POPC   D2A46756  29.565  40.141   6.657
 3586POPC   C3A46757  29.815  40.265   7.034
 3586POPC   C4A46758  29.861  39.916   7.334
 3586POPC   C1B46759  30.132  40.143   6.239
 3586POPC   C2B46760  30.049  39.964   6.665
 3586POPC   C3B46761  30.285  40.081   7.040
 3586POPC   C4B46762  30.257  40.409   7.354
 3587POPC   NC346763  32.505  31.804   5.377
 3587POPC   PO446764  31.973  31.344   5.445
 3587POPC   GL146765  32.253  31.334   5.753
 3587POPC   GL246766  32.558  31.291   5.554
 3587POPC   C1A46767  32.271  31.516   6.197
 3587POPC   D2A46768  32.363  31.643   6.636
 3587POPC   C3A46769  32.169  31.598   7.058
 3587POPC   C4A46770  32.005  31.654   7.477
 3587POPC   C1B46771  32.686  31.302   5.989
 3587POPC   C2B46772  32.672  31.285   6.447
 3587POPC   C3B46773  32.476  31.198   6.866
 3587POPC   C4B46774  32.555  31.307   7.272
 3588POPC   NC346775  15.635   7.004   5.515
 3588POPC   PO446776  15.869   6.480   5.306
 3588POPC   GL146777  15.952   6.328   5.716
 3588POPC   GL246778  15.704   6.528   5.851
 3588POPC   C1A46779  15.999   6.333   6.195
 3588POPC   D2A46780  16.018   6.498   6.609
 3588POPC   C3A46781  15.772   6.344   6.932
 3588POPC   C4A46782  15.906   6.328   7.331
 3588POPC   C1B46783  15.558   6.652   6.277
 3588POPC   C2B46784  15.641   6.826   6.686
 3588POPC   C3B46785  15.439   6.766   7.027
 3588POPC   C4B46786  15.610   6.715   7.408
 3589POPC   NC346787  34.149   2.492   5.417
 3589POPC   PO446788  33.772   3.070   5.308
 3589POPC   GL146789  33.659   2.875   5.762
 3589POPC   GL246790  33.880   2.602   5.860
 3589POPC   C1A46791  33.489   2.707   6.177
 3589POPC   D2A46792  33.539   2.505   6.589
 3589POPC   C3A46793  33.674   2.784   6.885
 3589POPC   C4A46794  33.780   2.763   7.281
 3589POPC   C1B46795  34.139   2.429   6.223
 3589POPC   C2B46796  34.047   2.475   6.693
 3589POPC   C3B46797  34.093   2.364   7.146
 3589POPC   C4B46798  34.081   2.509   7.597
 3590POPC   NC346799  16.908  33.537   5.640
 3590POPC   PO446800  16.765  33.062   5.224
 3590POPC   GL146801  16.878  32.870   5.701
 3590POPC   GL246802  16.811  33.153   5.954
 3590POPC   C1A46803  16.774  32.728   6.187
 3590POPC   D2A46804  16.762  33.025   6.552
 3590POPC   C3A46805  16.712  32.874   6.966
 3590POPC   C4A46806  16.422  32.959   7.277
 3590POPC   C1B46807  16.755  33.499   6.275
 3590POPC   C2B46808  16.648  33.570   6.670
 3590POPC   C3B46809  16.557  33.381   7.021
 3590POPC   C4B46810  16.871  33.243   7.309
 3591POPC   NC346811  11.789  26.306   5.445
 3591POPC   PO446812  12.468  26.105   5.438
 3591POPC   GL146813  12.074  25.986   5.716
 3591POPC   GL246814  12.198  26.021   6.029
 3591POPC   C1A46815  11.747  26.150   6.089
 3591POPC   D2A46816  12.036  26.178   6.488
 3591POPC   C3A46817  11.975  26.115   6.921
 3591POPC   C4A46818  11.846  25.922   7.309
 3591POPC   C1B46819  12.333  25.759   6.341
 3591POPC   C2B46820  12.481  25.821   6.749
 3591POPC   C3B46821  12.352  25.766   7.149
 3591POPC   C4B46822  12.263  25.825   7.573
 3592POPC   NC346823   0.043  14.559   5.379
 3592POPC   PO446824   0.400  14.051   5.510
 3592POPC   GL146825   0.387  14.414   5.768
 3592POPC   GL246826   0.224  14.188   5.977
 3592POPC   C1A46827   0.344  14.595   6.237
 3592POPC   D2A46828   0.298  14.216   6.554
 3592POPC   C3A46829   0.287  14.307   6.973
 3592POPC   C4A46830   0.297  14.735   7.119
 3592POPC   C1B46831   0.648  14.218   6.196
 3592POPC   C2B46832   0.843  14.267   6.564
 3592POPC   C3B46833   0.771  14.526   6.894
 3592POPC   C4B46834   0.712  14.353   7.257
 3593POPC   NC346835  28.283   2.158   5.393
 3593POPC   PO446836  28.552   1.638   5.386
 3593POPC   GL146837  28.261   1.793   5.788
 3593POPC   GL246838  28.036   2.103   5.865
 3593POPC   C1A46839  28.291   1.925   6.244
 3593POPC   D2A46840  28.323   2.129   6.611
 3593POPC   C3A46841  28.430   1.893   6.968
 3593POPC   C4A46842  28.481   1.986   7.399
 3593POPC   C1B46843  28.021   2.387   6.259
 3593POPC   C2B46844  28.039   2.544   6.704
 3593POPC   C3B46845  28.051   2.241   7.059
 3593POPC   C4B46846  27.975   1.834   7.221
 3594POPC   NC346847  39.289  14.986   5.491
 3594POPC   PO446848  39.615  15.555   5.720
 3594POPC   GL146849  39.390  15.218   5.968
 3594POPC   GL246850  39.025  15.164   5.926
 3594POPC   C1A46851  39.275  15.242   6.412
 3594POPC   D2A46852  39.467  15.543   6.724
 3594POPC   C3A46853  39.518  15.390   7.129
 3594POPC   C4A46854  39.458  14.941   7.260
 3594POPC   C1B46855  38.889  14.819   6.216
 3594POPC   C2B46856  38.998  14.758   6.659
 3594POPC   C3B46857  39.133  15.126   6.911
 3594POPC   C4B46858  39.043  15.287   7.326
 3595POPC   NC346859  44.091  25.592   5.416
 3595POPC   PO446860  44.661  25.199   5.434
 3595POPC   GL146861  44.626  25.247   5.859
 3595POPC   GL246862  44.346  25.067   5.910
 3595POPC   C1A46863  44.737  25.239   6.288
 3595POPC   D2A46864  44.813  25.640   6.480
 3595POPC   C3A46865  44.934  25.602   6.920
 3595POPC   C4A46866  44.834  25.313   7.212
 3595POPC   C1B46867  44.218  25.290   6.286
 3595POPC   C2B46868  44.321  25.097   6.664
 3595POPC   C3B46869  44.402  25.075   7.088
 3595POPC   C4B46870  44.160  25.281   7.347
 3596POPC   NC346871  16.227  24.805   5.574
 3596POPC   PO446872  16.379  24.273   5.188
 3596POPC   GL146873  16.100  24.298   5.657
 3596POPC   GL246874  16.159  24.552   5.983
 3596POPC   C1A46875  15.892  24.162   6.113
 3596POPC   D2A46876  15.940  24.154   6.587
 3596POPC   C3A46877  15.909  24.488   6.931
 3596POPC   C4A46878  15.856  24.557   7.405
 3596POPC   C1B46879  16.019  24.671   6.406
 3596POPC   C2B46880  16.265  24.813   6.745
 3596POPC   C3B46881  16.272  24.846   7.188
 3596POPC   C4B46882  16.245  24.967   7.598
 3597POPC   NC346883  14.758  18.299   5.167
 3597POPC   PO446884  14.199  18.570   5.272
 3597POPC   GL146885  14.322  18.634   5.735
 3597POPC   GL246886  14.470  18.315   5.820
 3597POPC   C1A46887  14.179  18.545   6.227
 3597POPC   D2A46888  14.053  18.538   6.720
 3597POPC   C3A46889  14.364  18.449   7.093
 3597POPC   C4A46890  14.489  18.220   7.507
 3597POPC   C1B46891  14.508  18.156   6.263
 3597POPC   C2B46892  14.652  18.243   6.699
 3597POPC   C3B46893  14.679  18.011   7.094
 3597POPC   C4B46894  14.563  17.713   7.477
 3598POPC   NC346895  27.678  39.519   5.232
 3598POPC   PO446896  27.840  39.027   5.642
 3598POPC   GL146897  27.970  39.303   5.978
 3598POPC   GL246898  27.750  39.578   5.947
 3598POPC   C1A46899  27.912  39.349   6.463
 3598POPC   D2A46900  27.637  39.268   6.841
 3598POPC   C3A46901  27.763  39.374   7.273
 3598POPC   C4A46902  27.744  39.251   7.709
 3598POPC   C1B46903  27.421  39.438   6.303
 3598POPC   C2B46904  27.128  39.380   6.695
 3598POPC   C3B46905  27.025  39.284   7.127
 3598POPC   C4B46906  27.278  39.420   7.479
 3599POPC   NC346907  14.496  31.939   5.402
 3599POPC   PO446908  14.305  31.308   5.396
 3599POPC   GL146909  14.169  31.357   5.827
 3599POPC   GL246910  14.342  31.669   5.831
 3599POPC   C1A46911  14.330  31.372   6.274
 3599POPC   D2A46912  14.422  31.097   6.646
 3599POPC   C3A46913  14.435  31.271   7.076
 3599POPC   C4A46914  14.509  31.660   7.317
 3599POPC   C1B46915  14.004  31.757   6.139
 3599POPC   C2B46916  13.952  31.829   6.559
 3599POPC   C3B46917  14.153  31.671   6.929
 3599POPC   C4B46918  13.998  31.540   7.351
 3600POPC   NC346919  24.043  11.760   5.352
 3600POPC   PO446920  23.753  11.124   5.505
 3600POPC   GL146921  23.643  11.221   5.889
 3600POPC   GL246922  23.868  11.519   5.835
 3600POPC   C1A46923  23.643  10.962   6.259
 3600POPC   D2A46924  23.635  11.217   6.623
 3600POPC   C3A46925  23.838  11.125   6.992
 3600POPC   C4A46926  23.737  11.279   7.367
 3600POPC   C1B46927  24.016  11.292   6.232
 3600POPC   C2B46928  24.116  11.401   6.669
 3600POPC   C3B46929  23.987  11.629   7.024
 3600POPC   C4B46930  24.060  11.673   7.458
 3601POPC   NC346931  18.632  13.857   5.502
 3601POPC   PO446932  18.014  13.657   5.460
 3601POPC   GL146933  18.105  13.776   5.887
 3601POPC   GL246934  18.360  13.528   5.844
 3601POPC   C1A46935  18.027  13.739   6.354
 3601POPC   D2A46936  18.340  13.852   6.689
 3601POPC   C3A46937  18.165  13.739   7.062
 3601POPC   C4A46938  17.892  13.597   7.360
 3601POPC   C1B46939  18.528  13.640   6.243
 3601POPC   C2B46940  18.695  13.509   6.633
 3601POPC   C3B46941  18.542  13.424   7.036
 3601POPC   C4B46942  18.374  13.383   7.441
 3602POPC   NC346943  17.891   0.456   5.124
 3602POPC   PO446944  18.535   0.330   5.332
 3602POPC   GL146945  18.422   0.402   5.796
 3602POPC   GL246946  18.204   0.163   5.928
 3602POPC   C1A46947  18.366   0.574   6.250
 3602POPC   D2A46948  18.427   0.855   6.616
 3602POPC   C3A46949  18.463   0.652   7.024
 3602POPC   C4A46950  18.236   0.676   7.438
 3602POPC   C1B46951  18.526   0.078   6.225
 3602POPC   C2B46952  18.564   0.258   6.635
 3602POPC   C3B46953  18.346   0.158   7.024
 3602POPC   C4B46954  18.521   0.251   7.400
 3603POPC   NC346955  17.139  17.234   5.575
 3603POPC   PO446956  17.728  17.606   5.388
 3603POPC   GL146957  17.580  17.462   5.762
 3603POPC   GL246958  17.325  17.701   5.834
 3603POPC   C1A46959  17.450  17.336   6.173
 3603POPC   D2A46960  17.338  17.503   6.559
 3603POPC   C3A46961  17.587  17.290   6.866
 3603POPC   C4A46962  17.679  17.310   7.291
 3603POPC   C1B46963  17.706  17.766   6.154
 3603POPC   C2B46964  17.714  17.848   6.601
 3603POPC   C3B46965  17.480  17.779   7.001
 3603POPC   C4B46966  17.680  17.836   7.398
 3604POPC   NC346967  31.894  17.713   5.436
 3604POPC   PO446968  32.246  17.170   5.418
 3604POPC   GL146969  32.208  17.409   5.756
 3604POPC   GL246970  32.383  17.702   5.731
 3604POPC   C1A46971  32.258  17.364   6.182
 3604POPC   D2A46972  32.378  17.190   6.570
 3604POPC   C3A46973  32.097  17.231   6.894
 3604POPC   C4A46974  32.211  17.332   7.296
 3604POPC   C1B46975  32.277  17.890   6.133
 3604POPC   C2B46976  32.301  17.726   6.569
 3604POPC   C3B46977  32.220  17.761   6.996
 3604POPC   C4B46978  31.951  17.830   7.311
 3605POPC   NC346979  36.814  11.144   5.309
 3605POPC   PO446980  36.497  11.783   5.258
 3605POPC   GL146981  36.635  11.513   5.640
 3605POPC   GL246982  36.498  11.148   5.698
 3605POPC   C1A46983  36.814  11.353   6.047
 3605POPC   D2A46984  36.812  11.399   6.512
 3605POPC   C3A46985  37.184  11.513   6.773
 3605POPC   C4A46986  37.175  11.784   7.148
 3605POPC   C1B46987  36.443  10.956   6.116
 3605POPC   C2B46988  36.556  10.963   6.558
 3605POPC   C3B46989  36.674  11.170   6.959
 3605POPC   C4B46990  36.992  11.310   7.272
 3606POPC   NC346991   4.239  10.468   5.235
 3606POPC   PO446992   4.852  10.176   5.485
 3606POPC   GL146993   4.512  10.459   5.703
 3606POPC   GL246994   4.140  10.468   5.731
 3606POPC   C1A46995   4.430  10.704   6.106
 3606POPC   D2A46996   4.237  10.742   6.522
 3606POPC   C3A46997   4.479  10.719   6.912
 3606POPC   C4A46998   4.227  10.681   7.273
 3606POPC   C1B46999   4.269  10.226   6.092
 3606POPC   C2B47000   4.100  10.207   6.492
 3606POPC   C3B47001   4.198  10.289   6.907
 3606POPC   C4B47002   4.081  10.158   7.305
 3607POPC   NC347003  35.136  37.855   5.361
 3607POPC   PO447004  35.574  37.356   5.460
 3607POPC   GL147005  35.293  37.529   5.737
 3607POPC   GL247006  35.466  37.837   5.822
 3607POPC   C1A47007  35.244  37.544   6.182
 3607POPC   D2A47008  35.302  37.786   6.538
 3607POPC   C3A47009  35.342  37.513   6.899
 3607POPC   C4A47010  35.358  37.551   7.317
 3607POPC   C1B47011  35.604  38.134   6.177
 3607POPC   C2B47012  35.623  38.172   6.638
 3607POPC   C3B47013  35.421  38.014   7.008
 3607POPC   C4B47014  35.582  37.965   7.462
 3608POPC   NC347015   4.633   8.761   5.496
 3608POPC   PO447016   4.234   9.312   5.412
 3608POPC   GL147017   4.456   9.161   5.782
 3608POPC   GL247018   4.236   8.853   5.859
 3608POPC   C1A47019   4.584   8.995   6.200
 3608POPC   D2A47020   4.315   8.868   6.539
 3608POPC   C3A47021   4.561   8.719   6.862
 3608POPC   C4A47022   4.574   8.815   7.293
 3608POPC   C1B47023   4.089   8.548   6.200
 3608POPC   C2B47024   4.152   8.389   6.652
 3608POPC   C3B47025   4.060   8.705   6.998
 3608POPC   C4B47026   4.065   8.985   7.353
 3609POPC   NC347027  26.168  30.038   5.447
 3609POPC   PO447028  25.864  29.447   5.539
 3609POPC   GL147029  26.008  29.786   5.885
 3609POPC   GL247030  26.089  30.179   5.911
 3609POPC   C1A47031  25.968  29.954   6.333
 3609POPC   D2A47032  25.901  30.122   6.722
 3609POPC   C3A47033  25.954  29.875   7.102
 3609POPC   C4A47034  26.248  29.578   7.253
 3609POPC   C1B47035  26.295  30.351   6.293
 3609POPC   C2B47036  26.337  30.389   6.749
 3609POPC   C3B47037  26.097  30.358   7.133
 3609POPC   C4B47038  25.728  30.254   7.408
 3610POPC   NC347039  42.797  23.639   5.519
 3610POPC   PO447040  43.447  23.632   5.618
 3610POPC   GL147041  43.261  23.448   5.950
 3610POPC   GL247042  43.028  23.201   5.809
 3610POPC   C1A47043  43.089  23.675   6.306
 3610POPC   D2A47044  42.992  23.979   6.623
 3610POPC   C3A47045  43.076  23.940   7.027
 3610POPC   C4A47046  43.048  23.758   7.393
 3610POPC   C1B47047  42.958  23.171   6.262
 3610POPC   C2B47048  42.952  23.359   6.680
 3610POPC   C3B47049  43.036  23.342   7.097
 3610POPC   C4B47050  42.958  23.284   7.545
 3611POPC   NC347051  30.810  34.500   5.317
 3611POPC   PO447052  30.378  34.062   5.440
 3611POPC   GL147053  30.632  34.336   5.806
 3611POPC   GL247054  30.751  34.704   5.820
 3611POPC   C1A47055  30.811  34.350   6.264
 3611POPC   D2A47056  30.699  34.210   6.701
 3611POPC   C3A47057  30.925  34.370   7.084
 3611POPC   C4A47058  31.005  34.356   7.542
 3611POPC   C1B47059  30.523  34.768   6.227
 3611POPC   C2B47060  30.642  34.720   6.680
 3611POPC   C3B47061  30.464  34.668   7.092
 3611POPC   C4B47062  30.291  34.902   7.454
 3612POPC   NC347063   1.910  34.102   5.200
 3612POPC   PO447064   2.359  33.709   5.395
 3612POPC   GL147065   2.141  33.663   5.766
 3612POPC   GL247066   1.868  33.872   5.691
 3612POPC   C1A47067   2.037  33.511   6.183
 3612POPC   D2A47068   1.860  33.582   6.597
 3612POPC   C3A47069   2.121  33.552   6.948
 3612POPC   C4A47070   1.892  33.594   7.316
 3612POPC   C1B47071   1.972  34.024   6.113
 3612POPC   C2B47072   2.100  34.041   6.538
 3612POPC   C3B47073   1.964  34.060   6.960
 3612POPC   C4B47074   2.191  34.176   7.289
 3613POPC   NC347075  38.465  26.317   5.260
 3613POPC   PO447076  38.128  25.695   5.486
 3613POPC   GL147077  38.353  25.862   5.818
 3613POPC   GL247078  38.565  26.150   5.761
 3613POPC   C1A47079  38.337  25.976   6.244
 3613POPC   D2A47080  38.385  25.762   6.618
 3613POPC   C3A47081  38.483  26.060   6.886
 3613POPC   C4A47082  38.369  25.994   7.269
 3613POPC   C1B47083  38.764  26.374   6.126
 3613POPC   C2B47084  38.681  26.449   6.581
 3613POPC   C3B47085  38.781  26.506   7.033
 3613POPC   C4B47086  38.600  26.437   7.434
 3614POPC   NC347087  37.408  43.501   5.583
 3614POPC   PO447088  38.030  43.263   5.431
 3614POPC   GL147089  37.840  43.278   5.825
 3614POPC   GL247090  37.569  43.067   5.868
 3614POPC   C1A47091  37.823  43.265   6.280
 3614POPC   D2A47092  37.768  42.991   6.665
 3614POPC   C3A47093  37.887  43.096   7.058
 3614POPC   C4A47094  37.672  43.203   7.455
 3614POPC   C1B47095  37.335  43.024   6.224
 3614POPC   C2B47096  37.274  43.133   6.621
 3614POPC   C3B47097  37.384  42.991   7.022
 3614POPC   C4B47098  37.239  42.947   7.416
 3615POPC   NC347099  14.039   0.096   5.557
 3615POPC   PO447100  14.174   0.729   5.381
 3615POPC   GL147101  14.265   0.669   5.803
 3615POPC   GL247102  14.394   0.333   5.856
 3615POPC   C1A47103  14.503   0.725   6.160
 3615POPC   D2A47104  14.597   0.466   6.467
 3615POPC   C3A47105  14.351   0.586   6.798
 3615POPC   C4A47106  14.217   0.675   7.205
 3615POPC   C1B47107  14.138   0.332   6.251
 3615POPC   C2B47108  14.233   0.100   6.644
 3615POPC   C3B47109  14.239   0.154   7.087
 3615POPC   C4B47110  14.174   0.063   7.523
 3616POPC   NC347111  41.004   4.270   5.438
 3616POPC   PO447112  40.433   4.510   5.644
 3616POPC   GL147113  40.652   4.528   5.993
 3616POPC   GL247114  40.969   4.482   5.909
 3616POPC   C1A47115  40.585   4.416   6.416
 3616POPC   D2A47116  40.759   4.235   6.764
 3616POPC   C3A47117  40.573   4.341   7.162
 3616POPC   C4A47118  40.619   4.484   7.595
 3616POPC   C1B47119  41.037   4.227   6.264
 3616POPC   C2B47120  41.335   4.155   6.571
 3616POPC   C3B47121  41.214   4.204   7.004
 3616POPC   C4B47122  41.050   4.546   7.211
 3617POPC   NC347123  15.714  27.932   5.406
 3617POPC   PO447124  16.310  27.532   5.330
 3617POPC   GL147125  16.042  27.316   5.633
 3617POPC   GL247126  16.168  27.090   5.885
 3617POPC   C1A47127  15.708  27.401   5.925
 3617POPC   D2A47128  15.619  27.504   6.373
 3617POPC   C3A47129  15.600  27.595   6.821
 3617POPC   C4A47130  15.868  27.664   7.186
 3617POPC   C1B47131  16.131  27.409   6.223
 3617POPC   C2B47132  16.061  27.466   6.660
 3617POPC   C3B47133  16.297  27.427   7.027
 3617POPC   C4B47134  16.403  27.525   7.438
 3618POPC   NC347135  24.053   1.210   5.351
 3618POPC   PO447136  24.692   0.864   5.415
 3618POPC   GL147137  24.567   1.017   5.767
 3618POPC   GL247138  24.237   0.881   5.694
 3618POPC   C1A47139  24.582   1.219   6.172
 3618POPC   D2A47140  24.350   1.287   6.552
 3618POPC   C3A47141  24.547   1.290   6.960
 3618POPC   C4A47142  24.703   1.216   7.371
 3618POPC   C1B47143  24.120   0.961   6.094
 3618POPC   C2B47144  24.213   0.816   6.459
 3618POPC   C3B47145  24.176   0.915   6.872
 3618POPC   C4B47146  24.236   1.012   7.291
 3619POPC   NC347147  34.092  35.546   5.459
 3619POPC   PO447148  33.454  35.495   5.452
 3619POPC   GL147149  33.706  35.444   5.862
 3619POPC   GL247150  34.082  35.414   5.945
 3619POPC   C1A47151  33.593  35.503   6.303
 3619POPC   D2A47152  33.545  35.784   6.649
 3619POPC   C3A47153  33.562  35.598   7.014
 3619POPC   C4A47154  33.901  35.505   7.202
 3619POPC   C1B47155  34.039  35.275   6.367
 3619POPC   C2B47156  33.793  35.243   6.732
 3619POPC   C3B47157  34.001  35.022   7.055
 3619POPC   C4B47158  34.024  35.108   7.498
 3620POPC   NC347159  39.635  14.339   5.417
 3620POPC   PO447160  39.017  14.599   5.465
 3620POPC   GL147161  39.281  14.418   5.791
 3620POPC   GL247162  39.374  14.053   5.739
 3620POPC   C1A47163  39.259  14.451   6.246
 3620POPC   D2A47164  38.942  14.274   6.508
 3620POPC   C3A47165  39.108  14.293   6.936
 3620POPC   C4A47166  39.020  14.674   7.175
 3620POPC   C1B47167  39.547  14.042   6.145
 3620POPC   C2B47168  39.710  14.263   6.490
 3620POPC   C3B47169  39.754  14.089   6.901
 3620POPC   C4B47170  39.473  14.045   7.232
 3621POPC   NC347171  41.190  29.335   5.384
 3621POPC   PO447172  40.544  29.088   5.443
 3621POPC   GL147173  40.713  29.296   5.795
 3621POPC   GL247174  40.984  29.113   5.923
 3621POPC   C1A47175  40.617  29.196   6.266
 3621POPC   D2A47176  40.846  29.190   6.660
 3621POPC   C3A47177  40.637  29.322   7.057
 3621POPC   C4A47178  40.604  29.115   7.502
 3621POPC   C1B47179  41.039  29.490   6.142
 3621POPC   C2B47180  41.192  29.580   6.537
 3621POPC   C3B47181  41.148  29.485   6.967
 3621POPC   C4B47182  41.065  29.230   7.328
 3622POPC   NC347183   6.509  42.692   5.544
 3622POPC   PO447184   6.752  43.351   5.507
 3622POPC   GL147185   6.503  43.142   5.816
 3622POPC   GL247186   6.494  43.445   5.975
 3622POPC   C1A47187   6.474  42.955   6.259
 3622POPC   D2A47188   6.453  43.163   6.684
 3622POPC   C3A47189   6.466  42.945   7.110
 3622POPC   C4A47190   6.349  43.064   7.573
 3622POPC   C1B47191   6.886  43.247   6.150
 3622POPC   C2B47192   7.015  43.071   6.563
 3622POPC   C3B47193   6.883  43.225   6.992
 3622POPC   C4B47194   6.832  43.209   7.476
 3623POPC   NC347195  28.974  20.894   5.044
 3623POPC   PO447196  28.303  20.734   5.300
 3623POPC   GL147197  28.374  20.745   5.737
 3623POPC   GL247198  28.040  20.675   5.819
 3623POPC   C1A47199  28.302  20.920   6.183
 3623POPC   D2A47200  28.069  20.980   6.574
 3623POPC   C3A47201  28.238  20.798   6.980
 3623POPC   C4A47202  28.609  20.953   7.229
 3623POPC   C1B47203  28.044  20.433   6.225
 3623POPC   C2B47204  27.916  20.478   6.670
 3623POPC   C3B47205  27.928  20.407   7.153
 3623POPC   C4B47206  28.102  20.585   7.551
 3624POPC   NC347207   6.149   6.594   5.628
 3624POPC   PO447208   5.907   7.141   5.345
 3624POPC   GL147209   5.860   6.998   5.764
 3624POPC   GL247210   5.626   6.723   5.780
 3624POPC   C1A47211   5.941   6.887   6.203
 3624POPC   D2A47212   5.980   6.501   6.435
 3624POPC   C3A47213   5.919   6.582   6.860
 3624POPC   C4A47214   6.120   6.495   7.182
 3624POPC   C1B47215   5.505   6.556   6.193
 3624POPC   C2B47216   5.552   6.784   6.565
 3624POPC   C3B47217   5.510   6.835   6.996
 3624POPC   C4B47218   5.556   6.461   7.252
 3625POPC   NC347219   0.919   3.576   5.558
 3625POPC   PO447220   1.528   3.343   5.516
 3625POPC   GL147221   1.340   3.511   5.861
 3625POPC   GL247222   1.522   3.769   5.894
 3625POPC   C1A47223   1.027   3.462   6.179
 3625POPC   D2A47224   1.104   3.369   6.594
 3625POPC   C3A47225   0.981   3.629   6.944
 3625POPC   C4A47226   0.964   3.460   7.379
 3625POPC   C1B47227   1.431   3.709   6.354
 3625POPC   C2B47228   1.460   3.691   6.786
 3625POPC   C3B47229   1.443   3.691   7.224
 3625POPC   C4B47230   1.358   3.636   7.667
 3626POPC   NC347231  30.815   3.110   5.429
 3626POPC   PO447232  30.320   2.678   5.448
 3626POPC   GL147233  30.526   2.544   5.843
 3626POPC   GL247234  30.853   2.484   5.879
 3626POPC   C1A47235  30.599   2.580   6.331
 3626POPC   D2A47236  30.384   2.800   6.673
 3626POPC   C3A47237  30.470   2.728   7.114
 3626POPC   C4A47238  30.450   2.775   7.596
 3626POPC   C1B47239  30.806   2.944   6.050
 3626POPC   C2B47240  30.839   3.016   6.511
 3626POPC   C3B47241  30.914   2.707   6.859
 3626POPC   C4B47242  30.931   2.608   7.311
 3627POPC   NC347243  41.878   6.404   5.529
 3627POPC   PO447244  42.510   6.780   5.431
 3627POPC   GL147245  42.432   6.801   5.854
 3627POPC   GL247246  42.108   6.655   5.949
 3627POPC   C1A47247  42.553   6.619   6.247
 3627POPC   D2A47248  42.548   6.308   6.574
 3627POPC   C3A47249  42.621   6.457   6.959
 3627POPC   C4A47250  42.372   6.506   7.323
 3627POPC   C1B47251  42.060   6.425   6.374
 3627POPC   C2B47252  42.092   6.487   6.833
 3627POPC   C3B47253  42.031   6.839   7.142
 3627POPC   C4B47254  42.074   6.827   7.594
 3628POPC   NC347255   6.148  18.897   5.535
 3628POPC   PO447256   5.491  18.767   5.566
 3628POPC   GL147257   5.771  18.923   5.906
 3628POPC   GL247258   5.908  19.270   5.811
 3628POPC   C1A47259   5.707  19.142   6.307
 3628POPC   D2A47260   5.684  19.050   6.755
 3628POPC   C3A47261   5.672  19.325   7.123
 3628POPC   C4A47262   5.998  19.358   7.437
 3628POPC   C1B47263   6.203  19.197   6.163
 3628POPC   C2B47264   6.177  19.006   6.556
 3628POPC   C3B47265   6.154  19.123   6.984
 3628POPC   C4B47266   6.332  18.957   7.359
 3629POPC   NC347267  28.147  34.509   5.389
 3629POPC   PO447268  28.811  34.409   5.448
 3629POPC   GL147269  28.492  34.480   5.789
 3629POPC   GL247270  28.233  34.777   5.813
 3629POPC   C1A47271  28.339  34.490   6.220
 3629POPC   D2A47272  28.180  34.552   6.637
 3629POPC   C3A47273  28.497  34.412   6.908
 3629POPC   C4A47274  28.522  34.285   7.309
 3629POPC   C1B47275  28.448  34.991   6.167
 3629POPC   C2B47276  28.417  35.130   6.602
 3629POPC   C3B47277  28.511  34.913   6.961
 3629POPC   C4B47278  28.213  34.717   7.202
 3630POPC   NC347279  30.024  33.077   5.539
 3630POPC   PO447280  29.463  32.810   5.640
 3630POPC   GL147281  29.704  33.041   6.000
 3630POPC   GL247282  29.866  33.348   5.970
 3630POPC   C1A47283  29.843  33.030   6.463
 3630POPC   D2A47284  29.782  32.724   6.819
 3630POPC   C3A47285  29.980  32.723   7.241
 3630POPC   C4A47286  29.797  32.863   7.640
 3630POPC   C1B47287  29.892  33.545   6.378
 3630POPC   C2B47288  29.831  33.439   6.799
 3630POPC   C3B47289  29.948  33.216   7.152
 3630POPC   C4B47290  30.074  33.296   7.610
 3631POPC   NC347291  36.765   3.757   5.583
 3631POPC   PO447292  36.582   3.044   5.449
 3631POPC   GL147293  36.647   3.283   5.807
 3631POPC   GL247294  36.454   3.066   5.998
 3631POPC   C1A47295  36.583   3.507   6.240
 3631POPC   D2A47296  36.545   3.476   6.695
 3631POPC   C3A47297  36.862   3.700   6.933
 3631POPC   C4A47298  36.810   3.829   7.329
 3631POPC   C1B47299  36.841   3.040   6.241
 3631POPC   C2B47300  37.009   3.261   6.600
 3631POPC   C3B47301  37.052   3.233   7.044
 3631POPC   C4B47302  37.317   3.474   7.301
 3632POPC   NC347303   7.123  35.295   5.598
 3632POPC   PO447304   6.603  35.393   5.251
 3632POPC   GL147305   6.476  35.512   5.684
 3632POPC   GL247306   6.685  35.261   5.815
 3632POPC   C1A47307   6.568  35.599   6.152
 3632POPC   D2A47308   6.815  35.442   6.494
 3632POPC   C3A47309   6.647  35.550   6.907
 3632POPC   C4A47310   6.525  35.384   7.330
 3632POPC   C1B47311   6.867  34.980   6.157
 3632POPC   C2B47312   7.069  34.991   6.601
 3632POPC   C3B47313   6.823  35.061   6.994
 3632POPC   C4B47314   6.859  35.010   7.445
 3633POPC   NC347315  39.767  31.544   5.287
 3633POPC   PO447316  40.447  31.628   5.310
 3633POPC   GL147317  40.268  31.627   5.748
 3633POPC   GL247318  39.916  31.507   5.782
 3633POPC   C1A47319  40.270  31.773   6.189
 3633POPC   D2A47320  40.142  31.587   6.592
 3633POPC   C3A47321  40.288  31.732   6.999
 3633POPC   C4A47322  40.002  31.657   7.278
 3633POPC   C1B47323  39.751  31.609   6.204
 3633POPC   C2B47324  39.625  31.356   6.578
 3633POPC   C3B47325  39.815  31.282   6.980
 3633POPC   C4B47326  39.722  31.293   7.436
 3634POPC   NC347327  42.311   7.931   5.251
 3634POPC   PO447328  42.721   8.362   5.254
 3634POPC   GL147329  42.498   8.101   5.700
 3634POPC   GL247330  42.152   7.860   5.738
 3634POPC   C1A47331  42.312   8.219   6.141
 3634POPC   D2A47332  42.287   8.504   6.534
 3634POPC   C3A47333  42.253   8.308   6.960
 3634POPC   C4A47334  42.502   8.211   7.348
 3634POPC   C1B47335  42.059   7.766   6.178
 3634POPC   C2B47336  42.219   7.925   6.586
 3634POPC   C3B47337  42.057   7.826   7.009
 3634POPC   C4B47338  42.019   8.006   7.420
 3635POPC   NC347339  43.123  34.726   5.448
 3635POPC   PO447340  43.399  34.155   5.164
 3635POPC   GL147341  43.119  34.272   5.677
 3635POPC   GL247342  43.367  34.231   5.978
 3635POPC   C1A47343  43.003  34.574   6.088
 3635POPC   D2A47344  42.811  34.707   6.513
 3635POPC   C3A47345  43.001  34.652   6.938
 3635POPC   C4A47346  43.371  34.858   7.143
 3635POPC   C1B47347  43.357  34.212   6.398
 3635POPC   C2B47348  43.374  34.292   6.842
 3635POPC   C3B47349  43.304  34.220   7.272
 3635POPC   C4B47350  43.308  34.236   7.701
 3636POPC   NC347351  40.888  38.718   5.189
 3636POPC   PO447352  40.459  38.245   5.445
 3636POPC   GL147353  40.573  38.229   5.940
 3636POPC   GL247354  40.855  38.366   6.045
 3636POPC   C1A47355  40.532  38.431   6.390
 3636POPC   D2A47356  40.510  38.281   6.772
 3636POPC   C3A47357  40.729  38.569   6.965
 3636POPC   C4A47358  40.692  38.714   7.360
 3636POPC   C1B47359  41.171  38.282   6.347
 3636POPC   C2B47360  41.351  37.973   6.607
 3636POPC   C3B47361  41.126  38.204   6.907
 3636POPC   C4B47362  41.029  38.326   7.281
 3637POPC   NC347363  41.618  14.072   5.354
 3637POPC   PO447364  41.327  14.744   5.409
 3637POPC   GL147365  41.483  14.437   5.721
 3637POPC   GL247366  41.221  14.321   5.946
 3637POPC   C1A47367  41.794  14.333   6.052
 3637POPC   D2A47368  41.951  14.379   6.472
 3637POPC   C3A47369  41.680  14.299   6.830
 3637POPC   C4A47370  41.754  14.302   7.282
 3637POPC   C1B47371  41.379  14.559   6.312
 3637POPC   C2B47372  41.267  14.686   6.735
 3637POPC   C3B47373  41.247  14.436   7.096
 3637POPC   C4B47374  41.338  14.440   7.530
 3638POPC   NC347375  27.816  17.927   5.409
 3638POPC   PO447376  27.486  17.305   5.434
 3638POPC   GL147377  27.639  17.540   5.788
 3638POPC   GL247378  27.437  17.855   5.786
 3638POPC   C1A47379  27.780  17.485   6.224
 3638POPC   D2A47380  27.678  17.303   6.643
 3638POPC   C3A47381  27.647  17.550   7.016
 3638POPC   C4A47382  27.706  17.823   7.369
 3638POPC   C1B47383  27.213  17.797   6.187
 3638POPC   C2B47384  27.355  17.719   6.602
 3638POPC   C3B47385  27.140  17.675   6.994
 3638POPC   C4B47386  27.273  17.539   7.389
 3639POPC   NC347387  17.145   1.297   5.448
 3639POPC   PO447388  17.599   0.734   5.345
 3639POPC   GL147389  17.475   0.888   5.802
 3639POPC   GL247390  17.409   1.223   5.875
 3639POPC   C1A47391  17.573   1.004   6.291
 3639POPC   D2A47392  17.716   1.421   6.532
 3639POPC   C3A47393  17.735   1.375   6.995
 3639POPC   C4A47394  17.547   0.982   7.148
 3639POPC   C1B47395  17.258   1.428   6.218
 3639POPC   C2B47396  17.211   1.293   6.608
 3639POPC   C3B47397  17.220   1.464   6.996
 3639POPC   C4B47398  17.261   1.382   7.401
 3640POPC   NC347399  29.245  39.535   5.161
 3640POPC   PO447400  28.816  39.155   5.466
 3640POPC   GL147401  29.058  39.255   5.817
 3640POPC   GL247402  29.413  39.187   5.835
 3640POPC   C1A47403  28.964  39.198   6.239
 3640POPC   D2A47404  29.156  39.146   6.621
 3640POPC   C3A47405  28.868  39.157   6.928
 3640POPC   C4A47406  28.682  39.360   7.276
 3640POPC   C1B47407  29.402  39.443   6.236
 3640POPC   C2B47408  29.395  39.668   6.611
 3640POPC   C3B47409  29.498  39.625   7.036
 3640POPC   C4B47410  29.231  39.336   7.236
 3641POPC   NC347411  18.808  32.398   5.787
 3641POPC   PO447412  18.916  31.951   5.300
 3641POPC   GL147413  19.119  31.918   5.729
 3641POPC   GL247414  18.789  31.901   5.857
 3641POPC   C1A47415  19.197  32.066   6.196
 3641POPC   D2A47416  19.085  32.394   6.515
 3641POPC   C3A47417  19.271  32.397   6.936
 3641POPC   C4A47418  19.222  32.533   7.352
 3641POPC   C1B47419  18.528  31.965   6.217
 3641POPC   C2B47420  18.596  31.894   6.627
 3641POPC   C3B47421  18.855  32.093   6.874
 3641POPC   C4B47422  18.892  32.156   7.261
 3642POPC   NC347423   7.704  24.406   5.458
 3642POPC   PO447424   7.100  24.690   5.410
 3642POPC   GL147425   7.246  24.437   5.791
 3642POPC   GL247426   7.598  24.459   5.950
 3642POPC   C1A47427   7.241  24.165   6.181
 3642POPC   D2A47428   7.417  24.087   6.603
 3642POPC   C3A47429   7.508  24.424   6.900
 3642POPC   C4A47430   7.391  24.519   7.302
 3642POPC   C1B47431   7.589  24.540   6.400
 3642POPC   C2B47432   7.840  24.761   6.716
 3642POPC   C3B47433   7.686  24.947   7.123
 3642POPC   C4B47434   7.698  24.823   7.577
 3643POPC   NC347435  15.749   1.968   5.278
 3643POPC   PO447436  16.274   2.451   5.345
 3643POPC   GL147437  16.129   2.230   5.773
 3643POPC   GL247438  15.986   1.888   5.739
 3643POPC   C1A47439  15.878   2.150   6.160
 3643POPC   D2A47440  15.938   1.923   6.519
 3643POPC   C3A47441  15.670   1.786   6.841
 3643POPC   C4A47442  15.867   1.965   7.201
 3643POPC   C1B47443  16.248   1.766   6.117
 3643POPC   C2B47444  16.262   1.556   6.548
 3643POPC   C3B47445  16.269   1.784   6.937
 3643POPC   C4B47446  16.277   1.587   7.340
 3644POPC   NC347447  43.539  31.169   5.462
 3644POPC   PO447448  43.981  31.665   5.486
 3644POPC   GL147449  43.845  31.401   5.830
 3644POPC   GL247450  43.523  31.273   5.999
 3644POPC   C1A47451  43.929  31.492   6.244
 3644POPC   D2A47452  43.851  31.418   6.686
 3644POPC   C3A47453  44.157  31.628   6.961
 3644POPC   C4A47454  44.165  31.847   7.354
 3644POPC   C1B47455  43.435  31.651   6.286
 3644POPC   C2B47456  43.479  31.840   6.706
 3644POPC   C3B47457  43.625  31.647   7.103
 3644POPC   C4B47458  43.530  31.283   7.376
 3645POPC   NC347459  35.332  14.700   5.490
 3645POPC   PO447460  35.207  14.041   5.397
 3645POPC   GL147461  35.383  14.244   5.755
 3645POPC   GL247462  35.697  14.125   5.825
 3645POPC   C1A47463  35.308  14.446   6.174
 3645POPC   D2A47464  35.080  14.740   6.466
 3645POPC   C3A47465  35.181  14.750   6.945
 3645POPC   C4A47466  35.096  14.588   7.399
 3645POPC   C1B47467  35.874  14.005   6.265
 3645POPC   C2B47468  35.609  14.064   6.646
 3645POPC   C3B47469  35.591  14.039   7.076
 3645POPC   C4B47470  35.273  14.116   7.381
 3646POPC   NC347471  25.491  36.503   5.419
 3646POPC   PO447472  25.164  36.007   5.623
 3646POPC   GL147473  25.398  36.286   5.887
 3646POPC   GL247474  25.228  36.618   5.876
 3646POPC   C1A47475  25.492  36.109   6.279
 3646POPC   D2A47476  25.397  35.822   6.602
 3646POPC   C3A47477  25.607  35.931   6.958
 3646POPC   C4A47478  25.507  36.068   7.336
 3646POPC   C1B47479  25.329  36.601   6.324
 3646POPC   C2B47480  25.264  36.336   6.690
 3646POPC   C3B47481  25.125  36.282   7.093
 3646POPC   C4B47482  25.167  36.371   7.586
 3647POPC   NC347483  12.883  10.150   5.640
 3647POPC   PO447484  13.117  10.722   5.468
 3647POPC   GL147485  12.998  10.595   5.852
 3647POPC   GL247486  12.671  10.718   5.853
 3647POPC   C1A47487  13.004  10.713   6.263
 3647POPC   D2A47488  13.089  10.855   6.652
 3647POPC   C3A47489  13.084  10.696   7.026
 3647POPC   C4A47490  12.947  10.399   7.299
 3647POPC   C1B47491  12.584  10.422   6.165
 3647POPC   C2B47492  12.624  10.561   6.561
 3647POPC   C3B47493  12.668  10.370   6.892
 3647POPC   C4B47494  12.438  10.430   7.229
 3648POPC   NC347495  31.799  26.921   5.513
 3648POPC   PO447496  31.284  26.498   5.619
 3648POPC   GL147497  31.308  26.744   5.946
 3648POPC   GL247498  31.659  26.773   5.961
 3648POPC   C1A47499  31.378  26.701   6.389
 3648POPC   D2A47500  31.232  26.827   6.777
 3648POPC   C3A47501  31.442  26.677   7.110
 3648POPC   C4A47502  31.319  26.612   7.515
 3648POPC   C1B47503  31.806  27.090   6.237
 3648POPC   C2B47504  31.806  26.896   6.633
 3648POPC   C3B47505  31.766  27.053   7.040
 3648POPC   C4B47506  31.655  27.003   7.462
 3649POPC   NC347507  28.272   8.363   5.504
 3649POPC   PO447508  28.203   7.790   5.178
 3649POPC   GL147509  28.360   7.892   5.686
 3649POPC   GL247510  28.148   7.658   5.798
 3649POPC   C1A47511  28.405   8.161   6.102
 3649POPC   D2A47512  28.665   8.162   6.486
 3649POPC   C3A47513  28.447   8.292   6.848
 3649POPC   C4A47514  28.368   8.499   7.232
 3649POPC   C1B47515  28.037   7.753   6.200
 3649POPC   C2B47516  28.163   7.968   6.546
 3649POPC   C3B47517  28.137   7.870   6.959
 3649POPC   C4B47518  28.022   8.125   7.306
 3650POPC   NC347519   2.526   6.388   5.335
 3650POPC   PO447520   2.608   5.699   5.385
 3650POPC   GL147521   2.764   5.759   5.812
 3650POPC   GL247522   3.005   6.015   5.872
 3650POPC   C1A47523   2.659   5.865   6.232
 3650POPC   D2A47524   2.637   6.012   6.659
 3650POPC   C3A47525   2.601   5.688   6.977
 3650POPC   C4A47526   2.694   5.836   7.390
 3650POPC   C1B47527   3.052   6.181   6.297
 3650POPC   C2B47528   3.128   6.190   6.732
 3650POPC   C3B47529   2.830   6.294   7.072
 3650POPC   C4B47530   2.824   6.338   7.522
 3651POPC   NC347531   0.579  12.993   5.395
 3651POPC   PO447532   0.638  12.385   5.625
 3651POPC   GL147533   0.432  12.718   5.808
 3651POPC   GL247534   0.127  12.567   5.874
 3651POPC   C1A47535   0.414  13.017   6.150
 3651POPC   D2A47536   0.362  13.174   6.563
 3651POPC   C3A47537   0.403  13.014   6.989
 3651POPC   C4A47538   0.652  13.254   7.288
 3651POPC   C1B47539   0.383  12.533   6.284
 3651POPC   C2B47540   0.330  12.580   6.725
 3651POPC   C3B47541   0.571  12.531   7.093
 3651POPC   C4B47542   0.506  12.548   7.580
 3652POPC   NC347543  10.779  11.527   5.428
 3652POPC   PO447544  10.877  10.878   5.522
 3652POPC   GL147545  10.589  11.171   5.806
 3652POPC   GL247546  10.525  11.538   5.873
 3652POPC   C1A47547  10.496  11.154   6.240
 3652POPC   D2A47548  10.747  11.151   6.609
 3652POPC   C3A47549  10.540  11.035   6.987
 3652POPC   C4A47550  10.690  11.048   7.400
 3652POPC   C1B47551  10.363  11.647   6.301
 3652POPC   C2B47552  10.350  11.456   6.718
 3652POPC   C3B47553  10.392  11.496   7.191
 3652POPC   C4B47554  10.736  11.543   7.507
 3653POPC   NC347555   2.517  38.622   5.589
 3653POPC   PO447556   3.037  38.979   5.379
 3653POPC   GL147557   3.074  38.699   5.772
 3653POPC   GL247558   2.970  38.326   5.773
 3653POPC   C1A47559   2.861  38.660   6.204
 3653POPC   D2A47560   2.770  38.838   6.624
 3653POPC   C3A47561   2.980  38.576   6.906
 3653POPC   C4A47562   3.048  38.337   7.245
 3653POPC   C1B47563   2.687  38.183   6.127
 3653POPC   C2B47564   2.606  38.323   6.559
 3653POPC   C3B47565   2.509  38.404   6.984
 3653POPC   C4B47566   2.609  38.094   7.251
 3654POPC   NC347567  13.114   3.971   4.976
 3654POPC   PO447568  12.847   3.484   5.302
 3654POPC   GL147569  12.907   3.400   5.775
 3654POPC   GL247570  12.911   3.740   5.845
 3654POPC   C1A47571  13.113   3.369   6.188
 3654POPC   D2A47572  12.844   3.505   6.548
 3654POPC   C3A47573  13.012   3.354   6.930
 3654POPC   C4A47574  12.997   3.557   7.308
 3654POPC   C1B47575  12.564   3.701   6.145
 3654POPC   C2B47576  12.479   3.894   6.568
 3654POPC   C3B47577  12.648   3.802   6.976
 3654POPC   C4B47578  12.503   3.633   7.371
 3655POPC   NC347579  20.494   9.948   5.449
 3655POPC   PO447580  20.793   9.345   5.427
 3655POPC   GL147581  20.759   9.615   5.791
 3655POPC   GL247582  20.390   9.643   5.846
 3655POPC   C1A47583  20.941   9.800   6.190
 3655POPC   D2A47584  20.771   9.832   6.646
 3655POPC   C3A47585  20.892   9.976   7.073
 3655POPC   C4A47586  20.910   9.687   7.417
 3655POPC   C1B47587  20.433   9.800   6.250
 3655POPC   C2B47588  20.270   9.726   6.645
 3655POPC   C3B47589  20.365   9.875   7.035
 3655POPC   C4B47590  20.320   9.697   7.417
 3656POPC   NC347591   0.619  29.781   5.316
 3656POPC   PO447592   0.688  30.281   5.817
 3656POPC   GL147593   0.538  29.864   5.889
 3656POPC   GL247594   0.338  29.645   5.733
 3656POPC   C1A47595   0.533  29.610   6.265
 3656POPC   D2A47596   0.769  29.669   6.629
 3656POPC   C3A47597   0.600  29.791   7.052
 3656POPC   C4A47598   0.671  30.085   7.405
 3656POPC   C1B47599   0.073  29.718   6.144
 3656POPC   C2B47600   0.051  29.598   6.597
 3656POPC   C3B47601   0.069  29.770   7.048
 3656POPC   C4B47602   0.308  29.726   7.472
 3657POPC   NC347603   6.389  43.667   5.402
 3657POPC   PO447604   6.828  44.163   5.395
 3657POPC   GL147605   6.743  43.873   5.735
 3657POPC   GL247606   6.427  43.945   5.866
 3657POPC   C1A47607   6.787  43.817   6.193
 3657POPC   D2A47608   6.826  43.554   6.546
 3657POPC   C3A47609   6.807  43.755   6.895
 3657POPC   C4A47610   6.828  43.685   7.290
 3657POPC   C1B47611   6.204  43.767   6.240
 3657POPC   C2B47612   6.316  43.678   6.654
 3657POPC   C3B47613   6.363  43.945   6.998
 3657POPC   C4B47614   6.460  44.061   7.419
 3658POPC   NC347615  27.923  33.560   5.612
 3658POPC   PO447616  28.246  34.061   5.248
 3658POPC   GL147617  28.174  34.034   5.686
 3658POPC   GL247618  28.009  34.289   5.861
 3658POPC   C1A47619  28.408  33.980   6.082
 3658POPC   D2A47620  28.439  34.077   6.536
 3658POPC   C3A47621  28.438  33.810   6.938
 3658POPC   C4A47622  28.619  33.775   7.359
 3658POPC   C1B47623  27.969  34.161   6.307
 3658POPC   C2B47624  27.972  34.068   6.715
 3658POPC   C3B47625  28.088  34.159   7.083
 3658POPC   C4B47626  28.138  33.940   7.426
 3659POPC   NC347627  11.302  24.676   5.242
 3659POPC   PO447628  11.400  24.070   5.447
 3659POPC   GL147629  11.374  24.303   5.841
 3659POPC   GL247630  11.386  24.651   5.743
 3659POPC   C1A47631  11.669  24.549   6.141
 3659POPC   D2A47632  11.610  24.784   6.520
 3659POPC   C3A47633  11.383  24.580   6.814
 3659POPC   C4A47634  11.417  24.582   7.233
 3659POPC   C1B47635  11.229  24.847   6.144
 3659POPC   C2B47636  11.128  24.983   6.602
 3659POPC   C3B47637  10.973  24.799   7.027
 3659POPC   C4B47638  10.956  24.312   7.086
 3660POPC   NC347639  20.577  43.006   5.298
 3660POPC   PO447640  20.544  43.374   5.898
 3660POPC   GL147641  20.858  43.185   6.094
 3660POPC   GL247642  20.960  42.927   5.832
 3660POPC   C1A47643  20.878  43.135   6.522
 3660POPC   D2A47644  20.461  43.062   6.626
 3660POPC   C3A47645  20.457  43.110   7.043
 3660POPC   C4A47646  20.740  43.323   7.306
 3660POPC   C1B47647  20.699  42.726   6.191
 3660POPC   C2B47648  20.862  42.622   6.597
 3660POPC   C3B47649  20.858  42.748   7.017
 3660POPC   C4B47650  20.801  42.858   7.448
 3661POPC   NC347651  43.430   7.178   5.131
 3661POPC   PO447652  43.980   7.371   5.486
 3661POPC   GL147653  43.989   7.532   5.884
 3661POPC   GL247654  44.295   7.410   5.978
 3661POPC   C1A47655  43.724   7.763   6.169
 3661POPC   D2A47656  43.530   7.625   6.567
 3661POPC   C3A47657  43.528   7.735   6.998
 3661POPC   C4A47658  43.752   7.528   7.304
 3661POPC   C1B47659  43.976   7.303   6.344
 3661POPC   C2B47660  43.931   7.367   6.817
 3661POPC   C3B47661  44.210   7.341   7.198
 3661POPC   C4B47662  44.289   7.411   7.653
 3662POPC   NC347663   3.223  32.374   5.523
 3662POPC   PO447664   3.751  32.118   5.223
 3662POPC   GL147665   3.618  32.045   5.721
 3662POPC   GL247666   3.285  32.036   5.898
 3662POPC   C1A47667   3.663  32.196   6.189
 3662POPC   D2A47668   3.599  32.080   6.640
 3662POPC   C3A47669   3.567  32.383   6.982
 3662POPC   C4A47670   3.850  32.482   7.255
 3662POPC   C1B47671   3.146  32.291   6.254
 3662POPC   C2B47672   3.132  32.305   6.708
 3662POPC   C3B47673   3.207  32.042   7.053
 3662POPC   C4B47674   3.235  32.128   7.497
 3663POPC   NC347675  36.423  16.720   5.294
 3663POPC   PO447676  35.823  17.044   5.369
 3663POPC   GL147677  36.078  16.819   5.689
 3663POPC   GL247678  36.430  16.943   5.771
 3663POPC   C1A47679  36.069  16.726   6.138
 3663POPC   D2A47680  35.833  16.762   6.538
 3663POPC   C3A47681  35.912  16.647   6.960
 3663POPC   C4A47682  36.063  16.981   7.198
 3663POPC   C1B47683  36.590  16.730   6.155
 3663POPC   C2B47684  36.741  16.766   6.591
 3663POPC   C3B47685  36.661  16.966   6.998
 3663POPC   C4B47686  36.494  16.864   7.411
 3664POPC   NC347687  26.184  26.098   5.100
 3664POPC   PO447688  26.157  25.346   5.289
 3664POPC   GL147689  25.930  25.101   5.599
 3664POPC   GL247690  26.044  25.348   5.819
 3664POPC   C1A47691  25.841  24.927   6.039
 3664POPC   D2A47692  25.897  25.170   6.409
 3664POPC   C3A47693  25.892  25.060   6.817
 3664POPC   C4A47694  26.010  25.233   7.217
 3664POPC   C1B47695  26.029  25.594   6.173
 3664POPC   C2B47696  25.743  25.671   6.513
 3664POPC   C3B47697  25.932  25.594   6.875
 3664POPC   C4B47698  26.245  25.720   7.186
 3665POPC   NC347699  13.588  32.385   5.128
 3665POPC   PO447700  14.026  31.996   5.527
 3665POPC   GL147701  13.761  32.142   5.899
 3665POPC   GL247702  13.429  32.329   5.857
 3665POPC   C1A47703  13.890  32.300   6.328
 3665POPC   D2A47704  13.815  32.677   6.618
 3665POPC   C3A47705  13.769  32.549   7.050
 3665POPC   C4A47706  13.670  32.119   7.172
 3665POPC   C1B47707  13.380  32.208   6.311
 3665POPC   C2B47708  13.431  32.050   6.722
 3665POPC   C3B47709  13.179  32.039   7.132
 3665POPC   C4B47710  13.271  32.081   7.566
 3666POPC   NC347711  16.147  20.739   5.387
 3666POPC   PO447712  15.998  20.095   5.488
 3666POPC   GL147713  16.182  20.408   5.804
 3666POPC   GL247714  16.095  20.800   5.873
 3666POPC   C1A47715  16.026  20.446   6.236
 3666POPC   D2A47716  16.050  20.251   6.651
 3666POPC   C3A47717  16.375  20.377   6.942
 3666POPC   C4A47718  16.300  20.476   7.340
 3666POPC   C1B47719  16.163  21.003   6.257
 3666POPC   C2B47720  16.182  20.758   6.606
 3666POPC   C3B47721  15.982  20.692   6.976
 3666POPC   C4B47722  16.012  20.923   7.303
 3667POPC   NC347723  39.161  41.258   5.352
 3667POPC   PO447724  39.230  40.554   5.318
 3667POPC   GL147725  39.254  40.817   5.708
 3667POPC   GL247726  38.946  40.751   5.877
 3667POPC   C1A47727  39.513  40.829   6.111
 3667POPC   D2A47728  39.626  40.653   6.539
 3667POPC   C3A47729  39.508  40.794   6.921
 3667POPC   C4A47730  39.740  41.082   7.150
 3667POPC   C1B47731  38.929  40.670   6.338
 3667POPC   C2B47732  38.986  40.830   6.749
 3667POPC   C3B47733  39.055  40.754   7.181
 3667POPC   C4B47734  39.146  40.464   7.515
 3668POPC   NC347735  10.986  40.622   5.440
 3668POPC   PO447736  11.378  41.230   5.562
 3668POPC   GL147737  11.249  40.876   5.812
 3668POPC   GL247738  11.013  40.998   6.055
 3668POPC   C1A47739  11.334  40.605   6.182
 3668POPC   D2A47740  11.509  40.649   6.614
 3668POPC   C3A47741  11.354  40.451   6.980
 3668POPC   C4A47742  11.027  40.340   7.278
 3668POPC   C1B47743  11.430  41.102   6.271
 3668POPC   C2B47744  11.517  41.163   6.691
 3668POPC   C3B47745  11.243  40.964   6.937
 3668POPC   C4B47746  11.224  40.821   7.307
 3669POPC   NC347747  31.746  36.854   5.412
 3669POPC   PO447748  31.063  36.800   5.376
 3669POPC   GL147749  31.376  36.952   5.763
 3669POPC   GL247750  31.687  36.742   5.888
 3669POPC   C1A47751  31.627  37.202   6.116
 3669POPC   D2A47752  31.866  37.023   6.510
 3669POPC   C3A47753  31.877  37.153   6.968
 3669POPC   C4A47754  31.519  37.087   7.271
 3669POPC   C1B47755  31.477  36.747   6.259
 3669POPC   C2B47756  31.247  36.628   6.584
 3669POPC   C3B47757  31.440  36.735   6.927
 3669POPC   C4B47758  31.241  36.631   7.284
 3670POPC   NC347759  43.256  25.485   5.227
 3670POPC   PO447760  42.921  25.035   5.519
 3670POPC   GL147761  43.048  25.387   5.783
 3670POPC   GL247762  42.967  25.161   6.017
 3670POPC   C1A47763  43.326  25.471   6.191
 3670POPC   D2A47764  43.378  25.727   6.584
 3670POPC   C3A47765  43.439  25.523   7.004
 3670POPC   C4A47766  43.516  25.562   7.465
 3670POPC   C1B47767  42.825  25.404   6.331
 3670POPC   C2B47768  43.068  25.309   6.687
 3670POPC   C3B47769  43.309  25.018   6.935
 3670POPC   C4B47770  43.268  24.835   7.315
 3671POPC   NC347771  29.641  38.049   5.570
 3671POPC   PO447772  30.134  38.556   5.335
 3671POPC   GL147773  29.900  38.529   5.724
 3671POPC   GL247774  29.905  38.242   5.948
 3671POPC   C1A47775  30.097  38.703   6.093
 3671POPC   D2A47776  29.951  38.793   6.477
 3671POPC   C3A47777  29.940  38.502   6.817
 3671POPC   C4A47778  30.104  38.653   7.224
 3671POPC   C1B47779  29.626  38.394   6.276
 3671POPC   C2B47780  29.457  38.194   6.657
 3671POPC   C3B47781  29.658  37.960   6.989
 3671POPC   C4B47782  29.814  38.039   7.400
 3672POPC   NC347783   9.086   1.416   5.366
 3672POPC   PO447784   8.844   0.792   5.426
 3672POPC   GL147785   8.898   1.032   5.785
 3672POPC   GL247786   8.837   1.391   5.819
 3672POPC   C1A47787   9.101   0.871   6.139
 3672POPC   D2A47788   9.236   1.029   6.486
 3672POPC   C3A47789   9.042   0.926   6.871
 3672POPC   C4A47790   9.086   1.061   7.269
 3672POPC   C1B47791   8.824   1.296   6.271
 3672POPC   C2B47792   8.932   1.402   6.708
 3672POPC   C3B47793   8.717   1.348   7.102
 3672POPC   C4B47794   8.627   1.374   7.546
 3673POPC   NC347795  16.970   3.695   5.471
 3673POPC   PO447796  16.438   3.207   5.350
 3673POPC   GL147797  16.628   3.355   5.739
 3673POPC   GL247798  16.577   3.720   5.833
 3673POPC   C1A47799  16.749   3.373   6.188
 3673POPC   D2A47800  16.585   3.563   6.564
 3673POPC   C3A47801  16.660   3.284   6.883
 3673POPC   C4A47802  16.890   3.300   7.267
 3673POPC   C1B47803  16.817   3.898   6.220
 3673POPC   C2B47804  16.928   3.934   6.683
 3673POPC   C3B47805  16.765   3.762   7.092
 3673POPC   C4B47806  17.039   3.765   7.472
 3674POPC   NC347807   6.245  13.815   5.560
 3674POPC   PO447808   5.784  13.282   5.357
 3674POPC   GL147809   5.723  13.504   5.763
 3674POPC   GL247810   6.006  13.408   5.920
 3674POPC   C1A47811   5.627  13.703   6.199
 3674POPC   D2A47812   5.433  13.710   6.612
 3674POPC   C3A47813   5.726  13.768   6.956
 3674POPC   C4A47814   5.723  14.050   7.315
 3674POPC   C1B47815   6.136  13.657   6.183
 3674POPC   C2B47816   6.201  13.762   6.535
 3674POPC   C3B47817   6.433  13.628   6.785
 3674POPC   C4B47818   6.184  13.581   7.096
 3675POPC   NC347819   2.536  39.144   5.311
 3675POPC   PO447820   2.820  39.753   5.489
 3675POPC   GL147821   2.776  39.509   5.868
 3675POPC   GL247822   2.789  39.138   5.809
 3675POPC   C1A47823   2.705  39.334   6.279
 3675POPC   D2A47824   2.949  39.352   6.646
 3675POPC   C3A47825   2.698  39.437   7.029
 3675POPC   C4A47826   2.560  39.366   7.452
 3675POPC   C1B47827   3.132  39.078   6.148
 3675POPC   C2B47828   3.280  38.955   6.605
 3675POPC   C3B47829   3.073  39.052   7.027
 3675POPC   C4B47830   2.634  38.920   7.161
 3676POPC   NC347831  18.570  24.700   5.551
 3676POPC   PO447832  18.009  24.327   5.354
 3676POPC   GL147833  18.038  24.391   5.824
 3676POPC   GL247834  17.917  24.663   6.033
 3676POPC   C1A47835  18.064  24.205   6.253
 3676POPC   D2A47836  18.143  24.343   6.691
 3676POPC   C3A47837  18.481  24.305   6.937
 3676POPC   C4A47838  18.482  24.313   7.384
 3676POPC   C1B47839  18.303  24.673   6.297
 3676POPC   C2B47840  18.532  24.761   6.698
 3676POPC   C3B47841  18.261  24.764   6.996
 3676POPC   C4B47842  17.913  24.607   7.149
 3677POPC   NC347843  13.187  33.917   5.417
 3677POPC   PO447844  12.666  33.544   5.431
 3677POPC   GL147845  12.896  33.589   5.830
 3677POPC   GL247846  13.045  33.928   5.901
 3677POPC   C1A47847  12.957  33.615   6.287
 3677POPC   D2A47848  13.059  33.455   6.661
 3677POPC   C3A47849  12.767  33.694   6.898
 3677POPC   C4A47850  12.848  33.669   7.292
 3677POPC   C1B47851  12.940  34.135   6.304
 3677POPC   C2B47852  13.114  34.048   6.731
 3677POPC   C3B47853  13.127  34.118   7.203
 3677POPC   C4B47854  13.045  34.010   7.669
 3678POPC   NC347855  22.318  23.393   5.164
 3678POPC   PO447856  22.273  23.944   5.499
 3678POPC   GL147857  22.192  23.734   5.873
 3678POPC   GL247858  21.883  23.832   5.938
 3678POPC   C1A47859  22.379  23.776   6.298
 3678POPC   D2A47860  22.209  23.896   6.720
 3678POPC   C3A47861  22.551  23.960   6.991
 3678POPC   C4A47862  22.608  23.591   7.190
 3678POPC   C1B47863  21.881  23.721   6.375
 3678POPC   C2B47864  22.101  23.395   6.620
 3678POPC   C3B47865  22.122  23.464   7.060
 3678POPC   C4B47866  22.121  23.860   7.257
 3679POPC   NC347867  37.657  14.889   5.418
 3679POPC   PO447868  38.058  15.377   5.468
 3679POPC   GL147869  37.772  15.225   5.797
 3679POPC   GL247870  37.487  15.424   5.898
 3679POPC   C1A47871  37.851  15.136   6.249
 3679POPC   D2A47872  37.657  15.245   6.661
 3679POPC   C3A47873  37.825  15.088   7.080
 3679POPC   C4A47874  37.726  15.100   7.547
 3679POPC   C1B47875  37.364  15.022   6.087
 3679POPC   C2B47876  37.271  14.878   6.504
 3679POPC   C3B47877  37.322  14.979   6.932
 3679POPC   C4B47878  37.362  14.809   7.338
 3680POPC   NC347879  23.619  39.727   5.442
 3680POPC   PO447880  23.746  39.129   5.448
 3680POPC   GL147881  23.670  39.211   5.881
 3680POPC   GL247882  23.329  39.129   5.941
 3680POPC   C1A47883  23.644  39.065   6.312
 3680POPC   D2A47884  23.478  39.221   6.704
 3680POPC   C3A47885  23.803  39.270   7.039
 3680POPC   C4A47886  23.904  39.004   7.418
 3680POPC   C1B47887  23.383  39.523   6.230
 3680POPC   C2B47888  23.456  39.735   6.680
 3680POPC   C3B47889  23.356  39.551   7.114
 3680POPC   C4B47890  23.406  39.124   7.342
 3681POPC   NC347891  33.486  15.120   5.520
 3681POPC   PO447892  33.958  15.526   5.348
 3681POPC   GL147893  33.892  15.332   5.795
 3681POPC   GL247894  33.609  15.491   5.878
 3681POPC   C1A47895  34.035  15.262   6.277
 3681POPC   D2A47896  34.121  14.993   6.680
 3681POPC   C3A47897  34.197  15.259   7.036
 3681POPC   C4A47898  34.018  15.333   7.459
 3681POPC   C1B47899  33.518  15.295   6.254
 3681POPC   C2B47900  33.676  15.274   6.671
 3681POPC   C3B47901  33.703  15.117   7.070
 3681POPC   C4B47902  33.488  15.170   7.419
 3682POPC   NC347903  14.238  36.083   5.483
 3682POPC   PO447904  14.832  36.156   5.205
 3682POPC   GL147905  14.648  36.323   5.688
 3682POPC   GL247906  14.370  36.199   5.955
 3682POPC   C1A47907  14.758  36.404   6.182
 3682POPC   D2A47908  14.643  36.264   6.608
 3682POPC   C3A47909  14.327  36.356   6.917
 3682POPC   C4A47910  14.621  36.303   7.274
 3682POPC   C1B47911  14.105  36.145   6.341
 3682POPC   C2B47912  14.290  35.890   6.670
 3682POPC   C3B47913  14.477  35.886   7.028
 3682POPC   C4B47914  14.200  36.051   7.363
 3683POPC   NC347915  25.605  32.648   5.334
 3683POPC   PO447916  26.217  32.925   5.152
 3683POPC   GL147917  26.092  32.830   5.622
 3683POPC   GL247918  25.787  32.988   5.660
 3683POPC   C1A47919  26.044  32.941   6.124
 3683POPC   D2A47920  26.165  33.068   6.604
 3683POPC   C3A47921  26.030  33.091   7.080
 3683POPC   C4A47922  25.736  32.928   7.440
 3683POPC   C1B47923  25.714  33.355   5.879
 3683POPC   C2B47924  25.760  33.346   6.323
 3683POPC   C3B47925  25.687  33.299   6.755
 3683POPC   C4B47926  25.710  33.478   7.182
 3684POPC   NC347927  31.922  37.763   5.371
 3684POPC   PO447928  32.578  37.581   5.193
 3684POPC   GL147929  32.444  37.771   5.654
 3684POPC   GL247930  32.097  37.796   5.833
 3684POPC   C1A47931  32.492  37.743   6.155
 3684POPC   D2A47932  32.372  37.871   6.595
 3684POPC   C3A47933  32.070  37.622   6.849
 3684POPC   C4A47934  32.179  37.504   7.277
 3684POPC   C1B47935  31.963  37.811   6.253
 3684POPC   C2B47936  31.858  38.063   6.594
 3684POPC   C3B47937  32.049  38.113   6.982
 3684POPC   C4B47938  32.003  37.987   7.405
 3685POPC   NC347939  35.688  41.811   5.420
 3685POPC   PO447940  35.083  41.480   5.382
 3685POPC   GL147941  35.273  41.642   5.775
 3685POPC   GL247942  35.190  41.318   5.895
 3685POPC   C1A47943  35.504  41.600   6.207
 3685POPC   D2A47944  35.624  41.866   6.596
 3685POPC   C3A47945  35.666  41.632   6.984
 3685POPC   C4A47946  35.422  41.423   7.287
 3685POPC   C1B47947  35.043  41.307   6.305
 3685POPC   C2B47948  35.266  41.273   6.719
 3685POPC   C3B47949  35.043  41.152   7.110
 3685POPC   C4B47950  34.796  41.384   7.460
 3686POPC   NC347951  16.493  42.852   5.664
 3686POPC   PO447952  16.483  42.156   5.477
 3686POPC   GL147953  16.786  42.405   5.775
 3686POPC   GL247954  16.517  42.440   5.946
 3686POPC   C1A47955  16.928  42.467   6.239
 3686POPC   D2A47956  16.890  42.098   6.576
 3686POPC   C3A47957  16.802  42.195   7.023
 3686POPC   C4A47958  16.726  42.271   7.461
 3686POPC   C1B47959  16.427  42.622   6.320
 3686POPC   C2B47960  16.496  42.485   6.713
 3686POPC   C3B47961  16.499  42.646   7.112
 3686POPC   C4B47962  16.471  42.742   7.535
 3687POPC   NC347963  38.093  27.031   5.431
 3687POPC   PO447964  38.697  27.148   5.304
 3687POPC   GL147965  38.586  26.949   5.723
 3687POPC   GL247966  38.367  26.652   5.730
 3687POPC   C1A47967  38.329  27.016   6.126
 3687POPC   D2A47968  38.332  26.829   6.546
 3687POPC   C3A47969  38.299  27.055   6.925
 3687POPC   C4A47970  38.483  26.906   7.279
 3687POPC   C1B47971  38.264  26.486   6.160
 3687POPC   C2B47972  38.158  26.343   6.607
 3687POPC   C3B47973  38.233  26.484   7.056
 3687POPC   C4B47974  38.103  26.613   7.495
 3688POPC   NC347975  13.133  10.156   5.179
 3688POPC   PO447976  12.768   9.699   5.569
 3688POPC   GL147977  12.990   9.752   5.951
 3688POPC   GL247978  13.182  10.097   6.048
 3688POPC   C1A47979  12.817   9.812   6.338
 3688POPC   D2A47980  12.814   9.893   6.772
 3688POPC   C3A47981  12.706   9.552   7.009
 3688POPC   C4A47982  12.721   9.290   7.350
 3688POPC   C1B47983  13.042  10.247   6.461
 3688POPC   C2B47984  13.210  10.223   6.878
 3688POPC   C3B47985  13.081   9.931   7.207
 3688POPC   C4B47986  12.629   9.966   7.290
 3689POPC   NC347987  42.883  11.115   5.124
 3689POPC   PO447988  43.182  11.650   5.413
 3689POPC   GL147989  43.098  11.447   5.799
 3689POPC   GL247990  42.854  11.649   5.979
 3689POPC   C1A47991  43.287  11.338   6.210
 3689POPC   D2A47992  43.436  11.572   6.581
 3689POPC   C3A47993  43.384  11.422   6.999
 3689POPC   C4A47994  43.231  11.130   7.267
 3689POPC   C1B47995  42.776  11.243   6.188
 3689POPC   C2B47996  42.974  11.148   6.591
 3689POPC   C3B47997  42.853  11.322   6.974
 3689POPC   C4B47998  42.567  11.104   7.234
 3690POPC   NC347999  41.047  15.132   5.429
 3690POPC   PO448000  41.710  15.368   5.433
 3690POPC   GL148001  41.824  15.204   5.814
 3690POPC   GL248002  41.551  14.943   5.876
 3690POPC   C1A48003  41.766  15.317   6.231
 3690POPC   D2A48004  41.458  15.174   6.515
 3690POPC   C3A48005  41.581  15.220   6.951
 3690POPC   C4A48006  41.212  15.052   7.150
 3690POPC   C1B48007  41.827  14.821   6.242
 3690POPC   C2B48008  41.763  14.806   6.707
 3690POPC   C3B48009  41.636  14.765   7.160
 3690POPC   C4B48010  41.748  14.712   7.620
 3691POPC   NC348011  21.566   8.244   5.494
 3691POPC   PO448012  21.034   7.735   5.508
 3691POPC   GL148013  21.203   8.004   5.787
 3691POPC   GL248014  21.505   7.846   5.835
 3691POPC   C1A48015  21.284   8.306   6.111
 3691POPC   D2A48016  21.412   8.572   6.448
 3691POPC   C3A48017  21.506   8.431   6.835
 3691POPC   C4A48018  21.234   8.297   7.117
 3691POPC   C1B48019  21.621   7.946   6.244
 3691POPC   C2B48020  21.502   7.955   6.665
 3691POPC   C3B48021  21.631   7.954   7.103
 3691POPC   C4B48022  21.360   8.002   7.488
 3692POPC   NC348023  23.409  40.591   5.463
 3692POPC   PO448024  22.738  40.883   5.390
 3692POPC   GL148025  22.789  40.742   5.769
 3692POPC   GL248026  22.983  40.450   5.722
 3692POPC   C1A48027  22.671  40.908   6.152
 3692POPC   D2A48028  22.873  40.949   6.538
 3692POPC   C3A48029  22.690  40.979   6.928
 3692POPC   C4A48030  22.986  41.049   7.246
 3692POPC   C1B48031  23.100  40.599   6.151
 3692POPC   C2B48032  23.098  40.486   6.591
 3692POPC   C3B48033  23.221  40.712   6.961
 3692POPC   C4B48034  23.360  40.610   7.385
 3693POPC   NC348035   6.630  33.747   5.148
 3693POPC   PO448036   6.851  33.174   5.350
 3693POPC   GL148037   6.783  33.016   5.825
 3693POPC   GL248038   6.420  32.931   5.814
 3693POPC   C1A48039   6.749  32.949   6.286
 3693POPC   D2A48040   6.795  33.123   6.699
 3693POPC   C3A48041   6.797  32.921   7.088
 3693POPC   C4A48042   7.032  32.598   7.305
 3693POPC   C1B48043   6.308  33.147   6.146
 3693POPC   C2B48044   6.331  33.253   6.533
 3693POPC   C3B48045   6.313  32.980   6.870
 3693POPC   C4B48046   6.311  32.972   7.295
 3694POPC   NC348047  20.719  28.805   5.606
 3694POPC   PO448048  20.399  29.256   5.186
 3694POPC   GL148049  20.447  29.388   5.724
 3694POPC   GL248050  20.745  29.262   5.830
 3694POPC   C1A48051  20.404  29.181   6.213
 3694POPC   D2A48052  20.582  29.033   6.651
 3694POPC   C3A48053  20.383  29.211   7.011
 3694POPC   C4A48054  20.456  29.204   7.452
 3694POPC   C1B48055  20.935  29.133   6.221
 3694POPC   C2B48056  21.086  29.099   6.630
 3694POPC   C3B48057  21.006  29.082   7.050
 3694POPC   C4B48058  20.883  28.924   7.411
 3695POPC   NC348059   2.187  43.160   5.562
 3695POPC   PO448060   1.769  42.614   5.494
 3695POPC   GL148061   1.842  42.806   5.864
 3695POPC   GL248062   2.189  42.757   5.877
 3695POPC   C1A48063   1.847  42.887   6.305
 3695POPC   D2A48064   1.765  42.922   6.735
 3695POPC   C3A48065   1.797  43.324   6.909
 3695POPC   C4A48066   1.899  43.468   7.313
 3695POPC   C1B48067   2.363  42.926   6.240
 3695POPC   C2B48068   2.226  43.113   6.641
 3695POPC   C3B48069   2.138  42.979   7.078
 3695POPC   C4B48070   2.326  43.104   7.472
 3696POPC   NC348071  35.926  31.964   5.630
 3696POPC   PO448072  36.568  31.878   5.411
 3696POPC   GL148073  36.428  32.115   5.788
 3696POPC   GL248074  36.478  32.493   5.885
 3696POPC   C1A48075  36.314  32.075   6.219
 3696POPC   D2A48076  36.191  32.267   6.597
 3696POPC   C3A48077  36.035  32.058   6.921
 3696POPC   C4A48078  36.343  32.126   7.194
 3696POPC   C1B48079  36.097  32.572   6.186
 3696POPC   C2B48080  35.906  32.702   6.604
 3696POPC   C3B48081  36.081  32.581   7.023
 3696POPC   C4B48082  36.507  32.611   7.209
 3697POPC   NC348083  28.598  22.635   5.636
 3697POPC   PO448084  28.533  23.189   5.188
 3697POPC   GL148085  28.596  23.177   5.647
 3697POPC   GL248086  28.260  23.113   5.767
 3697POPC   C1A48087  28.630  23.074   6.114
 3697POPC   D2A48088  28.425  23.155   6.484
 3697POPC   C3A48089  28.599  23.078   6.883
 3697POPC   C4A48090  28.447  23.038   7.296
 3697POPC   C1B48091  28.217  22.793   6.132
 3697POPC   C2B48092  28.185  22.712   6.566
 3697POPC   C3B48093  28.068  22.956   6.922
 3697POPC   C4B48094  28.035  22.752   7.307
 3698POPC   NC348095   5.129  10.916   5.146
 3698POPC   PO448096   4.857  11.388   5.553
 3698POPC   GL148097   5.146  11.215   5.859
 3698POPC   GL248098   4.939  10.974   6.019
 3698POPC   C1A48099   5.398  11.211   6.257
 3698POPC   D2A48100   5.255  11.419   6.659
 3698POPC   C3A48101   5.262  11.281   7.111
 3698POPC   C4A48102   5.408  11.326   7.550
 3698POPC   C1B48103   4.903  11.405   6.255
 3698POPC   C2B48104   4.668  11.544   6.620
 3698POPC   C3B48105   4.829  11.559   7.018
 3698POPC   C4B48106   4.769  11.268   7.350
 3699POPC   NC348107  26.944  18.176   5.478
 3699POPC   PO448108  26.736  18.778   5.563
 3699POPC   GL148109  26.682  18.448   5.904
 3699POPC   GL248110  26.978  18.209   5.982
 3699POPC   C1A48111  26.638  18.358   6.358
 3699POPC   D2A48112  26.967  18.104   6.599
 3699POPC   C3A48113  26.968  18.221   7.038
 3699POPC   C4A48114  26.589  18.476   7.181
 3699POPC   C1B48115  26.679  17.892   6.163
 3699POPC   C2B48116  26.465  17.922   6.592
 3699POPC   C3B48117  26.525  17.980   7.048
 3699POPC   C4B48118  26.847  17.848   7.391
 3700POPC   NC348119  35.165  27.640   5.209
 3700POPC   PO448120  34.502  27.607   5.392
 3700POPC   GL148121  34.539  27.472   5.821
 3700POPC   GL248122  34.641  27.784   5.966
 3700POPC   C1A48123  34.455  27.453   6.275
 3700POPC   D2A48124  34.409  27.765   6.595
 3700POPC   C3A48125  34.392  27.547   6.979
 3700POPC   C4A48126  34.549  27.516   7.384
 3700POPC   C1B48127  34.877  27.766   6.356
 3700POPC   C2B48128  34.875  27.590   6.771
 3700POPC   C3B48129  34.989  27.653   7.206
 3700POPC   C4B48130  34.907  27.767   7.680
 3701POPC   NC348131   4.857  38.816   5.561
 3701POPC   PO448132   5.279  38.239   5.512
 3701POPC   GL148133   5.020  38.197   5.879
 3701POPC   GL248134   4.804  38.486   5.939
 3701POPC   C1A48135   4.976  38.217   6.326
 3701POPC   D2A48136   5.161  38.146   6.699
 3701POPC   C3A48137   5.074  38.407   7.039
 3701POPC   C4A48138   5.112  38.206   7.445
 3701POPC   C1B48139   4.858  38.758   6.318
 3701POPC   C2B48140   5.190  38.978   6.536
 3701POPC   C3B48141   5.393  38.868   6.938
 3701POPC   C4B48142   5.092  38.869   7.271
 3702POPC   NC348143  24.409   2.781   5.223
 3702POPC   PO448144  24.959   2.514   5.627
 3702POPC   GL148145  24.600   2.799   5.730
 3702POPC   GL248146  24.590   2.604   5.989
 3702POPC   C1A48147  24.228   2.943   6.058
 3702POPC   D2A48148  24.037   2.995   6.505
 3702POPC   C3A48149  24.143   2.839   6.925
 3702POPC   C4A48150  24.505   2.867   7.242
 3702POPC   C1B48151  24.685   2.876   6.338
 3702POPC   C2B48152  24.640   2.743   6.774
 3702POPC   C3B48153  24.835   2.515   7.200
 3702POPC   C4B48154  24.844   2.654   7.661
 3703POPC   NC348155  18.131  38.210   5.383
 3703POPC   PO448156  18.691  38.579   5.429
 3703POPC   GL148157  18.349  38.537   5.779
 3703POPC   GL248158  18.006  38.369   5.874
 3703POPC   C1A48159  18.155  38.805   6.120
 3703POPC   D2A48160  18.289  38.871   6.539
 3703POPC   C3A48161  18.113  38.574   6.845
 3703POPC   C4A48162  18.074  38.669   7.270
 3703POPC   C1B48163  18.064  38.360   6.343
 3703POPC   C2B48164  18.164  38.072   6.656
 3703POPC   C3B48165  17.898  38.024   6.952
 3703POPC   C4B48166  17.880  38.212   7.313
 3704POPC   NC348167  38.967  39.159   5.434
 3704POPC   PO448168  38.314  39.248   5.422
 3704POPC   GL148169  38.477  39.043   5.809
 3704POPC   GL248170  38.685  39.309   5.837
 3704POPC   C1A48171  38.695  39.097   6.276
 3704POPC   D2A48172  38.851  39.092   6.715
 3704POPC   C3A48173  38.483  39.203   7.021
 3704POPC   C4A48174  38.105  38.902   7.077
 3704POPC   C1B48175  38.670  39.636   6.147
 3704POPC   C2B48176  38.732  39.731   6.550
 3704POPC   C3B48177  38.860  39.551   6.905
 3704POPC   C4B48178  38.714  39.641   7.295
 3705POPC   NC348179   3.365  14.146   5.318
 3705POPC   PO448180   3.556  14.752   5.170
 3705POPC   GL148181   3.578  14.508   5.623
 3705POPC   GL248182   3.749  14.179   5.678
 3705POPC   C1A48183   3.530  14.549   6.101
 3705POPC   D2A48184   3.794  14.697   6.449
 3705POPC   C3A48185   3.726  14.530   6.888
 3705POPC   C4A48186   3.361  14.499   7.184
 3705POPC   C1B48187   3.570  14.046   6.090
 3705POPC   C2B48188   3.432  14.222   6.521
 3705POPC   C3B48189   3.497  14.030   6.955
 3705POPC   C4B48190   3.642  14.049   7.396
 3706POPC   NC348191  43.430  36.667   5.228
 3706POPC   PO448192  42.971  36.973   5.649
 3706POPC   GL148193  43.176  36.940   5.969
 3706POPC   GL248194  43.504  37.053   5.847
 3706POPC   C1A48195  43.013  36.721   6.315
 3706POPC   D2A48196  42.772  36.942   6.581
 3706POPC   C3A48197  42.967  36.897   6.907
 3706POPC   C4A48198  42.880  37.049   7.266
 3706POPC   C1B48199  43.548  36.872   6.296
 3706POPC   C2B48200  43.479  36.690   6.679
 3706POPC   C3B48201  43.452  36.869   7.071
 3706POPC   C4B48202  43.249  36.749   7.432
 3707POPC   NC348203  11.687   1.273   5.424
 3707POPC   PO448204  11.114   1.642   5.446
 3707POPC   GL148205  11.320   1.349   5.809
 3707POPC   GL248206  11.599   1.050   5.870
 3707POPC   C1A48207  11.156   1.035   6.115
 3707POPC   D2A48208  11.245   0.829   6.528
 3707POPC   C3A48209  11.287   0.950   6.921
 3707POPC   C4A48210  11.108   1.027   7.311
 3707POPC   C1B48211  11.586   1.243   6.280
 3707POPC   C2B48212  11.609   1.313   6.726
 3707POPC   C3B48213  11.364   1.428   7.056
 3707POPC   C4B48214  11.398   1.482   7.488
 3708POPC   NC348215  34.856  41.871   5.336
 3708POPC   PO448216  34.200  41.628   5.350
 3708POPC   GL148217  34.382  41.596   5.765
 3708POPC   GL248218  34.745  41.607   5.766
 3708POPC   C1A48219  34.526  41.446   6.196
 3708POPC   D2A48220  34.620  41.681   6.564
 3708POPC   C3A48221  34.613  41.478   6.974
 3708POPC   C4A48222  34.254  41.348   7.238
 3708POPC   C1B48223  34.920  41.806   6.138
 3708POPC   C2B48224  35.130  41.739   6.541
 3708POPC   C3B48225  35.098  41.703   6.975
 3708POPC   C4B48226  34.892  41.866   7.331
 3709POPC   NC348227   4.478  41.238   5.395
 3709POPC   PO448228   4.069  41.796   5.240
 3709POPC   GL148229   4.314  41.641   5.648
 3709POPC   GL248230   4.132  41.367   5.875
 3709POPC   C1A48231   4.519  41.606   6.094
 3709POPC   D2A48232   4.419  41.276   6.427
 3709POPC   C3A48233   4.468  41.332   6.875
 3709POPC   C4A48234   4.221  41.373   7.237
 3709POPC   C1B48235   4.042  41.598   6.298
 3709POPC   C2B48236   4.274  41.756   6.633
 3709POPC   C3B48237   4.132  41.866   7.040
 3709POPC   C4B48238   3.953  41.793   7.426
 3710POPC   NC348239   3.961  14.802   5.424
 3710POPC   PO448240   4.247  14.185   5.480
 3710POPC   GL148241   4.331  14.480   5.809
 3710POPC   GL248242   4.012  14.617   5.905
 3710POPC   C1A48243   4.509  14.468   6.241
 3710POPC   D2A48244   4.421  14.227   6.626
 3710POPC   C3A48245   4.435  14.453   7.047
 3710POPC   C4A48246   4.440  14.190   7.420
 3710POPC   C1B48247   4.025  14.264   6.202
 3710POPC   C2B48248   3.916  14.076   6.611
 3710POPC   C3B48249   4.025  14.128   7.050
 3710POPC   C4B48250   3.999  14.432   7.368
 3711POPC   NC348251  11.170  33.737   5.506
 3711POPC   PO448252  10.535  33.759   5.387
 3711POPC   GL148253  10.690  33.801   5.792
 3711POPC   GL248254  10.712  34.142   5.894
 3711POPC   C1A48255  10.432  33.615   6.140
 3711POPC   D2A48256  10.457  33.446   6.552
 3711POPC   C3A48257  10.605  33.716   6.861
 3711POPC   C4A48258  10.460  33.936   7.239
 3711POPC   C1B48259  10.825  33.983   6.292
 3711POPC   C2B48260  10.821  34.164   6.699
 3711POPC   C3B48261  10.982  34.044   7.092
 3711POPC   C4B48262  10.887  34.012   7.543
 3712POPC   NC348263  19.248  24.055   5.422
 3712POPC   PO448264  18.925  23.585   5.232
 3712POPC   GL148265  18.903  23.788   5.709
 3712POPC   GL248266  18.649  23.580   5.872
 3712POPC   C1A48267  19.045  23.815   6.188
 3712POPC   D2A48268  19.280  23.739   6.613
 3712POPC   C3A48269  19.371  24.009   6.973
 3712POPC   C4A48270  19.169  23.816   7.280
 3712POPC   C1B48271  18.650  23.493   6.307
 3712POPC   C2B48272  18.889  23.389   6.641
 3712POPC   C3B48273  18.923  23.460   7.034
 3712POPC   C4B48274  18.761  23.477   7.474
 3713POPC   NC348275   9.476  42.743   5.515
 3713POPC   PO448276  10.123  42.510   5.519
 3713POPC   GL148277   9.815  42.442   5.870
 3713POPC   GL248278   9.434  42.295   5.788
 3713POPC   C1A48279   9.925  42.241   6.294
 3713POPC   D2A48280  10.165  42.360   6.666
 3713POPC   C3A48281   9.964  42.272   7.029
 3713POPC   C4A48282   9.788  42.680   6.983
 3713POPC   C1B48283   9.447  42.361   6.237
 3713POPC   C2B48284   9.557  42.284   6.706
 3713POPC   C3B48285   9.459  42.344   7.184
 3713POPC   C4B48286   9.368  42.464   7.656
 3714POPC   NC348287  41.567  41.004   5.581
 3714POPC   PO448288  41.520  41.607   5.281
 3714POPC   GL148289  41.557  41.638   5.726
 3714POPC   GL248290  41.893  41.620   5.865
 3714POPC   C1A48291  41.422  41.547   6.154
 3714POPC   D2A48292  41.458  41.634   6.592
 3714POPC   C3A48293  41.229  41.473   6.928
 3714POPC   C4A48294  41.553  41.422   7.228
 3714POPC   C1B48295  41.863  41.764   6.279
 3714POPC   C2B48296  41.984  41.617   6.672
 3714POPC   C3B48297  41.942  41.780   7.110
 3714POPC   C4B48298  41.799  42.178   7.283
 3715POPC   NC348299  35.390   9.986   5.573
 3715POPC   PO448300  35.884   9.386   5.509
 3715POPC   GL148301  35.554   9.552   5.886
 3715POPC   GL248302  35.192   9.706   5.964
 3715POPC   C1A48303  35.525   9.738   6.354
 3715POPC   D2A48304  35.323   9.868   6.790
 3715POPC   C3A48305  35.577   9.768   7.169
 3715POPC   C4A48306  35.831   9.419   7.384
 3715POPC   C1B48307  35.075   9.960   6.340
 3715POPC   C2B48308  34.858  10.177   6.626
 3715POPC   C3B48309  34.896  10.074   7.041
 3715POPC   C4B48310  35.132   9.926   7.387
 3716POPC   NC348311  17.098  20.775   5.449
 3716POPC   PO448312  16.522  20.454   5.350
 3716POPC   GL148313  16.609  20.719   5.727
 3716POPC   GL248314  16.875  20.956   5.865
 3716POPC   C1A48315  16.542  20.678   6.160
 3716POPC   D2A48316  16.664  20.629   6.583
 3716POPC   C3A48317  16.956  20.378   6.780
 3716POPC   C4A48318  16.834  20.334   7.204
 3716POPC   C1B48319  17.031  20.856   6.281
 3716POPC   C2B48320  17.100  20.887   6.728
 3716POPC   C3B48321  16.795  20.877   7.042
 3716POPC   C4B48322  16.953  20.775   7.412
 3717POPC   NC348323  11.550  21.700   5.377
 3717POPC   PO448324  11.209  21.184   5.220
 3717POPC   GL148325  11.107  21.189   5.674
 3717POPC   GL248326  11.142  21.536   5.707
 3717POPC   C1A48327  11.266  21.126   6.121
 3717POPC   D2A48328  11.552  20.997   6.470
 3717POPC   C3A48329  11.392  21.146   6.856
 3717POPC   C4A48330  11.282  21.335   7.228
 3717POPC   C1B48331  11.297  21.648   6.142
 3717POPC   C2B48332  11.536  21.542   6.525
 3717POPC   C3B48333  11.593  21.640   6.967
 3717POPC   C4B48334  11.330  21.849   7.250
 3718POPC   NC348335  44.085  35.889   5.202
 3718POPC   PO448336  43.603  36.293   5.474
 3718POPC   GL148337  43.955  36.146   5.727
 3718POPC   GL248338  44.046  35.806   5.726
 3718POPC   C1A48339  44.199  36.126   6.126
 3718POPC   D2A48340  44.079  35.968   6.527
 3718POPC   C3A48341  44.178  36.130   6.917
 3718POPC   C4A48342  43.958  36.178   7.288
 3718POPC   C1B48343  43.828  35.745   6.121
 3718POPC   C2B48344  43.680  35.654   6.541
 3718POPC   C3B48345  43.869  35.716   6.941
 3718POPC   C4B48346  43.616  35.805   7.263
 3719POPC   NC348347  18.033  28.739   5.441
 3719POPC   PO448348  18.380  29.319   5.481
 3719POPC   GL148349  18.203  29.313   5.860
 3719POPC   GL248350  18.261  28.973   5.876
 3719POPC   C1A48351  18.233  29.293   6.300
 3719POPC   D2A48352  18.292  29.171   6.746
 3719POPC   C3A48353  18.171  29.467   7.097
 3719POPC   C4A48354  18.243  29.517   7.570
 3719POPC   C1B48355  17.926  28.899   6.211
 3719POPC   C2B48356  17.985  28.759   6.636
 3719POPC   C3B48357  17.888  28.819   7.081
 3719POPC   C4B48358  17.866  29.169   7.399
 3720POPC   NC348359  11.816   7.725   5.350
 3720POPC   PO448360  12.447   7.275   5.441
 3720POPC   GL148361  12.226   7.173   5.803
 3720POPC   GL248362  11.947   7.440   5.797
 3720POPC   C1A48363  12.226   7.337   6.221
 3720POPC   D2A48364  12.307   7.647   6.527
 3720POPC   C3A48365  12.289   7.470   6.925
 3720POPC   C4A48366  12.286   7.613   7.332
 3720POPC   C1B48367  11.725   7.416   6.223
 3720POPC   C2B48368  11.795   7.570   6.677
 3720POPC   C3B48369  11.798   7.570   7.155
 3720POPC   C4B48370  11.821   7.395   7.588
 3721POPC   NC348371  13.302  40.411   5.524
 3721POPC   PO448372  13.770  39.919   5.462
 3721POPC   GL148373  13.573  39.836   5.851
 3721POPC   GL248374  13.506  40.174   5.914
 3721POPC   C1A48375  13.664  39.884   6.299
 3721POPC   D2A48376  13.990  39.773   6.587
 3721POPC   C3A48377  13.792  39.831   6.982
 3721POPC   C4A48378  13.913  40.030   7.353
 3721POPC   C1B48379  13.348  40.440   6.220
 3721POPC   C2B48380  13.463  40.327   6.633
 3721POPC   C3B48381  13.360  40.354   7.062
 3721POPC   C4B48382  13.346  40.262   7.508
 3722POPC   NC348383  43.489  17.647   5.415
 3722POPC   PO448384  44.218  17.612   5.439
 3722POPC   GL148385  43.943  17.492   5.786
 3722POPC   GL248386  44.157  17.260   5.963
 3722POPC   C1A48387  43.698  17.317   6.183
 3722POPC   D2A48388  43.569  17.145   6.614
 3722POPC   C3A48389  43.870  17.265   6.931
 3722POPC   C4A48390  44.055  17.455   7.298
 3722POPC   C1B48391  44.129  17.625   6.241
 3722POPC   C2B48392  44.080  17.703   6.680
 3722POPC   C3B48393  44.367  17.751   6.989
 3722POPC   C4B48394  44.352  17.866   7.380
 3723POPC   NC348395  17.684  25.933   5.333
 3723POPC   PO448396  17.135  26.112   5.540
 3723POPC   GL148397  17.442  26.120   5.874
 3723POPC   GL248398  17.801  26.068   5.823
 3723POPC   C1A48399  17.604  26.205   6.289
 3723POPC   D2A48400  17.512  25.997   6.675
 3723POPC   C3A48401  17.549  26.095   7.101
 3723POPC   C4A48402  17.334  25.855   7.390
 3723POPC   C1B48403  18.017  25.931   6.190
 3723POPC   C2B48404  18.022  26.117   6.590
 3723POPC   C3B48405  18.163  26.171   6.993
 3723POPC   C4B48406  17.991  26.084   7.363
 3724POPC   NC348407  28.868  42.448   5.358
 3724POPC   PO448408  29.458  42.370   5.331
 3724POPC   GL148409  29.219  42.303   5.778
 3724POPC   GL248410  28.929  42.073   5.776
 3724POPC   C1A48411  29.032  42.558   6.193
 3724POPC   D2A48412  28.972  42.749   6.636
 3724POPC   C3A48413  28.950  42.448   7.013
 3724POPC   C4A48414  28.920  42.458   7.488
 3724POPC   C1B48415  29.111  42.052   6.208
 3724POPC   C2B48416  29.184  41.883   6.619
 3724POPC   C3B48417  29.241  41.973   7.040
 3724POPC   C4B48418  29.375  42.245   7.290
 3725POPC   NC348419  11.198   0.287   5.364
 3725POPC   PO448420  11.341   0.905   5.436
 3725POPC   GL148421  11.396   0.582   5.772
 3725POPC   GL248422  11.512   0.213   5.790
 3725POPC   C1A48423  11.521   0.612   6.185
 3725POPC   D2A48424  11.464   0.351   6.562
 3725POPC   C3A48425  11.185   0.456   6.903
 3725POPC   C4A48426  11.370   0.605   7.303
 3725POPC   C1B48427  11.260   0.098   6.168
 3725POPC   C2B48428  11.144  44.963   6.637
 3725POPC   C3B48429  11.364   0.009   7.058
 3725POPC   C4B48430  11.191   0.163   7.457
 3726POPC   NC348431  18.381   9.634   5.395
 3726POPC   PO448432  17.769   9.421   5.322
 3726POPC   GL148433  17.938   9.768   5.658
 3726POPC   GL248434  18.293   9.852   5.835
 3726POPC   C1A48435  17.896   9.852   6.131
 3726POPC   D2A48436  18.068   9.594   6.459
 3726POPC   C3A48437  18.001   9.655   6.894
 3726POPC   C4A48438  17.837   9.703   7.278
 3726POPC   C1B48439  18.435   9.907   6.286
 3726POPC   C2B48440  18.454   9.830   6.740
 3726POPC   C3B48441  18.477   9.564   7.143
 3726POPC   C4B48442  18.602   9.279   7.514
 3727POPC   NC348443   5.165   7.392   5.269
 3727POPC   PO448444   5.432   7.787   5.743
 3727POPC   GL148445   5.068   7.619   5.920
 3727POPC   GL248446   4.795   7.458   5.698
 3727POPC   C1A48447   5.045   7.648   6.373
 3727POPC   D2A48448   5.323   7.492   6.713
 3727POPC   C3A48449   5.249   7.657   7.108
 3727POPC   C4A48450   5.342   7.636   7.557
 3727POPC   C1B48451   4.763   7.259   6.132
 3727POPC   C2B48452   4.896   7.185   6.569
 3727POPC   C3B48453   4.882   7.342   6.958
 3727POPC   C4B48454   5.011   7.298   7.382
 3728POPC   NC348455  25.190  13.903   5.442
 3728POPC   PO448456  25.692  13.521   5.241
 3728POPC   GL148457  25.538  13.647   5.693
 3728POPC   GL248458  25.771  13.711   5.969
 3728POPC   C1A48459  25.260  13.719   6.076
 3728POPC   D2A48460  25.334  13.714   6.539
 3728POPC   C3A48461  25.030  13.795   6.876
 3728POPC   C4A48462  25.107  13.617   7.266
 3728POPC   C1B48463  25.583  13.345   6.244
 3728POPC   C2B48464  25.454  13.082   6.593
 3728POPC   C3B48465  25.337  13.261   6.997
 3728POPC   C4B48466  25.551  13.362   7.391
 3729POPC   NC348467  41.205  37.943   5.376
 3729POPC   PO448468  41.856  38.088   5.537
 3729POPC   GL148469  41.585  37.806   5.786
 3729POPC   GL248470  41.477  37.449   5.779
 3729POPC   C1A48471  41.723  37.630   6.203
 3729POPC   D2A48472  41.628  37.406   6.579
 3729POPC   C3A48473  41.626  37.669   6.941
 3729POPC   C4A48474  41.885  37.988   7.088
 3729POPC   C1B48475  41.226  37.488   6.200
 3729POPC   C2B48476  41.128  37.337   6.609
 3729POPC   C3B48477  41.320  37.274   6.987
 3729POPC   C4B48478  41.319  37.494   7.359
 3730POPC   NC348479  33.809  33.065   5.446
 3730POPC   PO448480  33.248  32.616   5.548
 3730POPC   GL148481  33.526  32.880   5.815
 3730POPC   GL248482  33.614  33.236   5.892
 3730POPC   C1A48483  33.818  32.829   6.154
 3730POPC   D2A48484  33.744  32.771   6.574
 3730POPC   C3A48485  34.040  32.771   6.891
 3730POPC   C4A48486  33.793  32.894   7.249
 3730POPC   C1B48487  34.046  33.272   6.052
 3730POPC   C2B48488  34.101  33.159   6.483
 3730POPC   C3B48489  33.799  33.223   6.813
 3730POPC   C4B48490  33.934  33.371   7.191
 3731POPC   NC348491  11.520  34.227   5.427
 3731POPC   PO448492  11.539  33.481   5.463
 3731POPC   GL148493  11.579  33.872   5.799
 3731POPC   GL248494  11.222  33.978   5.948
 3731POPC   C1A48495  11.617  34.131   6.203
 3731POPC   D2A48496  11.306  34.041   6.571
 3731POPC   C3A48497  11.388  33.754   6.936
 3731POPC   C4A48498  11.415  33.445   7.299
 3731POPC   C1B48499  11.408  33.632   6.231
 3731POPC   C2B48500  11.329  33.327   6.585
 3731POPC   C3B48501  11.033  33.392   6.912
 3731POPC   C4B48502  10.862  33.573   7.273
 3732POPC   NC348503   8.855  20.572   5.407
 3732POPC   PO448504   9.475  20.947   5.423
 3732POPC   GL148505   9.173  20.813   5.729
 3732POPC   GL248506   8.853  20.785   5.860
 3732POPC   C1A48507   9.241  20.475   6.042
 3732POPC   D2A48508   9.175  20.366   6.484
 3732POPC   C3A48509   9.266  20.627   6.846
 3732POPC   C4A48510   9.331  20.510   7.274
 3732POPC   C1B48511   8.741  20.525   6.223
 3732POPC   C2B48512   8.745  20.575   6.683
 3732POPC   C3B48513   8.845  20.698   7.112
 3732POPC   C4B48514   9.174  21.015   7.253
 3733POPC   NC348515  42.015   1.773   5.406
 3733POPC   PO448516  42.182   1.120   5.460
 3733POPC   GL148517  42.279   1.300   5.831
 3733POPC   GL248518  42.035   1.543   5.854
 3733POPC   C1A48519  42.465   1.303   6.223
 3733POPC   D2A48520  42.606   1.005   6.514
 3733POPC   C3A48521  42.672   1.256   6.847
 3733POPC   C4A48522  42.572   1.133   7.266
 3733POPC   C1B48523  41.932   1.344   6.229
 3733POPC   C2B48524  42.099   1.403   6.597
 3733POPC   C3B48525  42.184   1.152   6.887
 3733POPC   C4B48526  42.059   1.144   7.259
 3734POPC   NC348527  30.334  20.828   4.967
 3734POPC   PO448528  30.706  20.395   5.366
 3734POPC   GL148529  30.835  20.584   5.786
 3734POPC   GL248530  30.746  20.865   5.960
 3734POPC   C1A48531  30.735  20.434   6.221
 3734POPC   D2A48532  30.777  20.715   6.594
 3734POPC   C3A48533  30.666  20.499   6.969
 3734POPC   C4A48534  30.837  20.431   7.400
 3734POPC   C1B48535  30.378  20.814   6.253
 3734POPC   C2B48536  30.267  20.782   6.707
 3734POPC   C3B48537  30.346  20.839   7.154
 3734POPC   C4B48538  30.375  20.579   7.503
 3735POPC   NC348539  34.245  12.192   5.426
 3735POPC   PO448540  34.834  11.827   5.303
 3735POPC   GL148541  34.671  12.032   5.695
 3735POPC   GL248542  34.402  11.811   5.819
 3735POPC   C1A48543  34.736  12.297   6.101
 3735POPC   D2A48544  34.897  12.157   6.514
 3735POPC   C3A48545  34.667  12.184   6.912
 3735POPC   C4A48546  34.734  12.382   7.315
 3735POPC   C1B48547  34.743  11.786   6.150
 3735POPC   C2B48548  34.744  11.650   6.609
 3735POPC   C3B48549  34.604  11.669   7.038
 3735POPC   C4B48550  34.643  11.881   7.437
 3736POPC   NC348551  16.227   6.217   5.240
 3736POPC   PO448552  15.971   5.716   5.331
 3736POPC   GL148553  15.870   5.717   5.764
 3736POPC   GL248554  15.615   5.950   5.776
 3736POPC   C1A48555  15.946   5.829   6.189
 3736POPC   D2A48556  16.131   5.996   6.570
 3736POPC   C3A48557  15.998   5.852   6.949
 3736POPC   C4A48558  16.176   5.887   7.340
 3736POPC   C1B48559  15.518   6.149   6.141
 3736POPC   C2B48560  15.612   6.031   6.548
 3736POPC   C3B48561  15.484   5.912   6.949
 3736POPC   C4B48562  15.653   5.903   7.326
 3737POPC   NC348563   2.558   0.544   5.546
 3737POPC   PO448564   2.945  44.990   5.387
 3737POPC   GL148565   2.902   0.263   5.801
 3737POPC   GL248566   3.163   0.445   5.937
 3737POPC   C1A48567   2.617   0.436   6.179
 3737POPC   D2A48568   2.429   0.281   6.582
 3737POPC   C3A48569   2.697   0.169   6.952
 3737POPC   C4A48570   2.675   0.121   7.432
 3737POPC   C1B48571   3.021   0.716   6.303
 3737POPC   C2B48572   2.830   0.665   6.741
 3737POPC   C3B48573   2.776   0.605   7.211
 3737POPC   C4B48574   2.790   0.905   7.556
 3738POPC   NC348575  37.707  36.606   5.222
 3738POPC   PO448576  37.766  37.159   5.522
 3738POPC   GL148577  37.730  36.914   5.905
 3738POPC   GL248578  37.487  36.641   5.822
 3738POPC   C1A48579  37.821  36.900   6.350
 3738POPC   D2A48580  38.104  36.898   6.665
 3738POPC   C3A48581  37.864  37.012   6.972
 3738POPC   C4A48582  37.548  37.172   7.210
 3738POPC   C1B48583  37.562  36.455   6.251
 3738POPC   C2B48584  37.626  36.534   6.699
 3738POPC   C3B48585  37.636  36.616   7.156
 3738POPC   C4B48586  38.084  36.683   7.276
 3739POPC   NC348587   4.432   1.459   5.502
 3739POPC   PO448588   3.866   1.164   5.433
 3739POPC   GL148589   4.056   1.325   5.825
 3739POPC   GL248590   3.912   1.648   5.929
 3739POPC   C1A48591   4.370   1.400   6.179
 3739POPC   D2A48592   4.471   1.136   6.546
 3739POPC   C3A48593   4.465   1.308   6.978
 3739POPC   C4A48594   4.385   1.042   7.363
 3739POPC   C1B48595   3.894   1.434   6.310
 3739POPC   C2B48596   4.053   1.384   6.698
 3739POPC   C3B48597   3.995   1.258   7.110
 3739POPC   C4B48598   4.088   1.401   7.555
 3740POPC   NC348599  12.339  43.402   5.072
 3740POPC   PO448600  11.874  43.037   5.456
 3740POPC   GL148601  11.889  43.156   5.874
 3740POPC   GL248602  11.807  43.508   5.833
 3740POPC   C1A48603  12.154  43.026   6.231
 3740POPC   D2A48604  12.433  43.051   6.598
 3740POPC   C3A48605  12.173  42.981   6.962
 3740POPC   C4A48606  12.184  43.076   7.400
 3740POPC   C1B48607  11.864  43.475   6.286
 3740POPC   C2B48608  11.860  43.619   6.724
 3740POPC   C3B48609  11.920  43.427   7.137
 3740POPC   C4B48610  11.853  43.420   7.607
 3741POPC   NC348611  23.690   0.208   5.363
 3741POPC   PO448612  23.698   0.886   5.307
 3741POPC   GL148613  23.711   0.812   5.788
 3741POPC   GL248614  23.929   0.502   5.847
 3741POPC   C1A48615  23.687   0.685   6.266
 3741POPC   D2A48616  23.878   0.501   6.657
 3741POPC   C3A48617  23.778   0.650   7.065
 3741POPC   C4A48618  23.461   0.649   7.359
 3741POPC   C1B48619  23.842   0.196   6.190
 3741POPC   C2B48620  23.626   0.078   6.560
 3741POPC   C3B48621  23.860   0.075   6.974
 3741POPC   C4B48622  23.773   0.241   7.364
 3742POPC   NC348623  34.868  30.835   5.446
 3742POPC   PO448624  34.392  30.363   5.488
 3742POPC   GL148625  34.461  30.598   5.851
 3742POPC   GL248626  34.792  30.524   5.927
 3742POPC   C1A48627  34.476  30.705   6.304
 3742POPC   D2A48628  34.598  30.951   6.676
 3742POPC   C3A48629  34.360  30.840   6.991
 3742POPC   C4A48630  34.501  30.534   7.270
 3742POPC   C1B48631  34.764  30.293   6.329
 3742POPC   C2B48632  34.655  30.413   6.755
 3742POPC   C3B48633  34.963  30.551   7.054
 3742POPC   C4B48634  34.982  30.454   7.514
 3743POPC   NC348635  10.368   6.516   5.375
 3743POPC   PO448636  10.848   7.117   5.397
 3743POPC   GL148637  10.770   6.947   5.762
 3743POPC   GL248638  10.418   6.848   5.765
 3743POPC   C1A48639  10.763   6.768   6.159
 3743POPC   D2A48640  10.486   6.856   6.475
 3743POPC   C3A48641  10.673   6.717   6.859
 3743POPC   C4A48642  10.552   6.807   7.245
 3743POPC   C1B48643  10.364   6.477   6.093
 3743POPC   C2B48644  10.442   6.365   6.555
 3743POPC   C3B48645  10.280   6.361   7.002
 3743POPC   C4B48646  10.363   6.353   7.465
 3744POPC   NC348647  17.456  42.768   5.409
 3744POPC   PO448648  17.383  43.474   5.316
 3744POPC   GL148649  17.395  43.267   5.766
 3744POPC   GL248650  17.577  42.976   5.866
 3744POPC   C1A48651  17.474  43.286   6.261
 3744POPC   D2A48652  17.770  43.266   6.651
 3744POPC   C3A48653  17.662  43.051   7.034
 3744POPC   C4A48654  17.301  43.242   7.193
 3744POPC   C1B48655  17.446  42.748   6.212
 3744POPC   C2B48656  17.413  42.876   6.633
 3744POPC   C3B48657  17.255  42.733   7.034
 3744POPC   C4B48658  17.470  42.753   7.441
 3745POPC   NC348659  28.817  21.815   5.455
 3745POPC   PO448660  29.278  21.353   5.320
 3745POPC   GL148661  29.322  21.445   5.751
 3745POPC   GL248662  29.019  21.578   5.843
 3745POPC   C1A48663  29.278  21.332   6.208
 3745POPC   D2A48664  29.225  21.117   6.594
 3745POPC   C3A48665  29.331  21.316   6.988
 3745POPC   C4A48666  29.399  21.327   7.453
 3745POPC   C1B48667  28.855  21.763   6.198
 3745POPC   C2B48668  28.701  21.643   6.595
 3745POPC   C3B48669  28.844  21.789   7.016
 3745POPC   C4B48670  28.730  21.809   7.494
 3746POPC   NC348671   8.656  44.465   5.484
 3746POPC   PO448672   7.953  44.526   5.657
 3746POPC   GL148673   8.219  44.571   5.963
 3746POPC   GL248674   8.487  44.309   5.962
 3746POPC   C1A48675   8.320  44.863   6.317
 3746POPC   D2A48676   8.213   0.080   6.729
 3746POPC   C3A48677   8.360  44.822   7.092
 3746POPC   C4A48678   8.047  44.604   7.346
 3746POPC   C1B48679   8.303  44.321   6.389
 3746POPC   C2B48680   8.292  44.366   6.847
 3746POPC   C3B48681   8.283  44.155   7.238
 3746POPC   C4B48682   8.162  44.273   7.705
 3747POPC   NC348683  14.045  13.261   5.499
 3747POPC   PO448684  14.114  12.596   5.703
 3747POPC   GL148685  14.167  12.852   6.015
 3747POPC   GL248686  14.402  13.028   5.775
 3747POPC   C1A48687  14.352  12.741   6.434
 3747POPC   D2A48688  14.588  12.714   6.846
 3747POPC   C3A48689  14.286  12.824   7.181
 3747POPC   C4A48690  14.073  12.583   7.526
 3747POPC   C1B48691  14.565  13.179   6.148
 3747POPC   C2B48692  14.612  13.181   6.583
 3747POPC   C3B48693  14.845  13.170   6.933
 3747POPC   C4B48694  14.757  13.052   7.341
 3748POPC   NC348695   6.653  21.304   5.394
 3748POPC   PO448696   6.561  22.032   5.466
 3748POPC   GL148697   6.557  21.681   5.745
 3748POPC   GL248698   6.877  21.496   5.821
 3748POPC   C1A48699   6.532  21.602   6.183
 3748POPC   D2A48700   6.772  21.720   6.526
 3748POPC   C3A48701   6.547  21.589   6.883
 3748POPC   C4A48702   6.569  21.379   7.228
 3748POPC   C1B48703   6.825  21.174   6.147
 3748POPC   C2B48704   6.587  21.193   6.530
 3748POPC   C3B48705   6.725  21.017   6.909
 3748POPC   C4B48706   6.987  21.078   7.240
 3749POPC   NC348707  27.383  37.690   5.287
 3749POPC   PO448708  27.990  37.448   5.496
 3749POPC   GL148709  27.737  37.739   5.749
 3749POPC   GL248710  27.702  37.462   5.947
 3749POPC   C1A48711  27.641  37.905   6.189
 3749POPC   D2A48712  27.704  37.787   6.639
 3749POPC   C3A48713  27.501  38.017   6.990
 3749POPC   C4A48714  27.632  37.952   7.423
 3749POPC   C1B48715  27.404  37.469   6.302
 3749POPC   C2B48716  27.249  37.451   6.716
 3749POPC   C3B48717  27.456  37.527   7.086
 3749POPC   C4B48718  27.713  37.348   7.396
 3750POPC   NC348719  30.850   9.246   5.386
 3750POPC   PO448720  31.337   8.716   5.382
 3750POPC   GL148721  31.361   8.879   5.792
 3750POPC   GL248722  31.157   9.150   5.800
 3750POPC   C1A48723  31.215   8.839   6.224
 3750POPC   D2A48724  31.372   8.662   6.615
 3750POPC   C3A48725  31.214   8.727   7.025
 3750POPC   C4A48726  31.405   8.854   7.398
 3750POPC   C1B48727  31.481   9.279   6.104
 3750POPC   C2B48728  31.501   9.181   6.550
 3750POPC   C3B48729  31.716   9.271   6.944
 3750POPC   C4B48730  31.592   9.312   7.381
 3751POPC   NC348731  14.836  39.845   5.447
 3751POPC   PO448732  15.539  39.859   5.442
 3751POPC   GL148733  15.398  40.053   5.835
 3751POPC   GL248734  15.050  40.059   5.916
 3751POPC   C1A48735  15.430  40.181   6.269
 3751POPC   D2A48736  15.329  39.973   6.669
 3751POPC   C3A48737  15.380  40.253   7.078
 3751POPC   C4A48738  15.455  40.079   7.495
 3751POPC   C1B48739  14.907  40.133   6.373
 3751POPC   C2B48740  14.887  40.106   6.860
 3751POPC   C3B48741  15.160  39.792   7.156
 3751POPC   C4B48742  15.085  39.733   7.632
 3752POPC   NC348743  31.896  29.177   5.189
 3752POPC   PO448744  32.506  28.974   5.324
 3752POPC   GL148745  32.234  29.204   5.603
 3752POPC   GL248746  32.104  28.882   5.720
 3752POPC   C1A48747  32.220  29.267   6.059
 3752POPC   D2A48748  32.205  29.120   6.483
 3752POPC   C3A48749  32.286  29.396   6.802
 3752POPC   C4A48750  32.236  29.400   7.223
 3752POPC   C1B48751  31.921  28.831   6.145
 3752POPC   C2B48752  31.819  28.842   6.630
 3752POPC   C3B48753  32.125  28.909   6.994
 3752POPC   C4B48754  32.476  28.617   7.135
 3753POPC   NC348755   4.353  36.999   5.633
 3753POPC   PO448756   4.453  37.675   5.509
 3753POPC   GL148757   4.250  37.478   5.843
 3753POPC   GL248758   4.197  37.779   5.959
 3753POPC   C1A48759   4.438  37.398   6.252
 3753POPC   D2A48760   4.844  37.470   6.464
 3753POPC   C3A48761   4.699  37.460   6.903
 3753POPC   C4A48762   4.331  37.553   7.161
 3753POPC   C1B48763   3.986  37.649   6.299
 3753POPC   C2B48764   4.124  37.734   6.699
 3753POPC   C3B48765   3.883  37.768   7.050
 3753POPC   C4B48766   3.933  37.712   7.479
 3754POPC   NC348767  28.357  38.762   4.983
 3754POPC   PO448768  28.505  38.209   5.375
 3754POPC   GL148769  28.365  38.304   5.800
 3754POPC   GL248770  28.101  38.074   5.971
 3754POPC   C1A48771  28.282  38.496   6.197
 3754POPC   D2A48772  28.417  38.422   6.604
 3754POPC   C3A48773  28.246  38.500   6.981
 3754POPC   C4A48774  28.639  38.397   7.201
 3754POPC   C1B48775  28.384  38.013   6.300
 3754POPC   C2B48776  28.255  37.904   6.686
 3754POPC   C3B48777  28.016  38.038   7.020
 3754POPC   C4B48778  28.200  38.176   7.378
 3755POPC   NC348779  15.720  34.224   5.429
 3755POPC   PO448780  16.020  34.837   5.415
 3755POPC   GL148781  16.148  34.721   5.802
 3755POPC   GL248782  15.901  34.498   5.833
 3755POPC   C1A48783  16.067  34.849   6.207
 3755POPC   D2A48784  15.873  34.783   6.587
 3755POPC   C3A48785  16.066  34.889   6.949
 3755POPC   C4A48786  15.845  34.656   7.270
 3755POPC   C1B48787  15.799  34.382   6.246
 3755POPC   C2B48788  15.464  34.201   6.459
 3755POPC   C3B48789  15.599  34.257   6.863
 3755POPC   C4B48790  15.820  34.149   7.215
 3756POPC   NC348791   8.651   6.729   5.493
 3756POPC   PO448792   9.145   6.229   5.409
 3756POPC   GL148793   9.093   6.350   5.812
 3756POPC   GL248794   8.717   6.415   5.904
 3756POPC   C1A48795   9.122   6.512   6.208
 3756POPC   D2A48796   8.784   6.487   6.505
 3756POPC   C3A48797   8.940   6.448   6.901
 3756POPC   C4A48798   9.093   6.514   7.322
 3756POPC   C1B48799   8.746   6.843   6.138
 3756POPC   C2B48800   9.037   6.961   6.497
 3756POPC   C3B48801   9.159   6.914   6.950
 3756POPC   C4B48802   9.048   6.997   7.413
 3757POPC   NC348803   9.248  12.078   5.418
 3757POPC   PO448804   8.617  11.820   5.429
 3757POPC   GL148805   8.820  12.087   5.785
 3757POPC   GL248806   9.135  12.301   5.856
 3757POPC   C1A48807   8.972  11.979   6.196
 3757POPC   D2A48808   8.859  12.146   6.585
 3757POPC   C3A48809   9.092  12.008   6.925
 3757POPC   C4A48810   8.891  12.108   7.303
 3757POPC   C1B48811   9.242  12.496   6.258
 3757POPC   C2B48812   9.345  12.401   6.671
 3757POPC   C3B48813   9.441  12.404   7.143
 3757POPC   C4B48814   9.310  12.286   7.577
 3758POPC   NC348815  20.789  29.438   5.339
 3758POPC   PO448816  20.394  29.980   5.494
 3758POPC   GL148817  20.538  29.873   5.861
 3758POPC   GL248818  20.898  29.766   5.749
 3758POPC   C1A48819  20.485  29.985   6.307
 3758POPC   D2A48820  20.776  29.983   6.638
 3758POPC   C3A48821  20.608  30.010   7.058
 3758POPC   C4A48822  20.469  29.878   7.453
 3758POPC   C1B48823  20.812  29.614   6.175
 3758POPC   C2B48824  20.616  29.519   6.517
 3758POPC   C3B48825  20.777  29.509   6.867
 3758POPC   C4B48826  20.750  29.535   7.241
 3759POPC   NC348827  32.658  20.844   5.381
 3759POPC   PO448828  33.256  20.818   5.467
 3759POPC   GL148829  33.062  20.622   5.825
 3759POPC   GL248830  32.754  20.764   5.875
 3759POPC   C1A48831  33.075  20.622   6.299
 3759POPC   D2A48832  32.989  20.804   6.713
 3759POPC   C3A48833  33.255  20.703   7.046
 3759POPC   C4A48834  33.450  20.712   7.478
 3759POPC   C1B48835  32.598  20.486   6.170
 3759POPC   C2B48836  32.606  20.476   6.616
 3759POPC   C3B48837  32.726  20.557   7.086
 3759POPC   C4B48838  32.605  20.540   7.529
 3760POPC   NC348839  44.576   1.472   5.460
 3760POPC   PO448840  44.881   0.815   5.393
 3760POPC   GL148841  44.851   1.107   5.734
 3760POPC   GL248842  44.488   1.169   5.876
 3760POPC   C1A48843  44.929   1.121   6.174
 3760POPC   D2A48844  44.692   1.223   6.548
 3760POPC   C3A48845  44.930   1.222   6.932
 3760POPC   C4A48846  44.932   0.936   7.259
 3760POPC   C1B48847  44.342   1.480   6.215
 3760POPC   C2B48848  44.337   1.577   6.703
 3760POPC   C3B48849  44.469   1.402   7.147
 3760POPC   C4B48850  44.322   1.293   7.602
 3761POPC   NC348851  16.526  13.940   5.398
 3761POPC   PO448852  16.239  13.263   5.304
 3761POPC   GL148853  16.521  13.295   5.717
 3761POPC   GL248854  16.878  13.458   5.771
 3761POPC   C1A48855  16.559  13.365   6.182
 3761POPC   D2A48856  16.767  13.458   6.565
 3761POPC   C3A48857  16.610  13.606   6.945
 3761POPC   C4A48858  16.659  13.511   7.344
 3761POPC   C1B48859  17.029  13.694   6.165
 3761POPC   C2B48860  17.094  13.839   6.601
 3761POPC   C3B48861  17.138  13.677   7.022
 3761POPC   C4B48862  16.996  13.869   7.420
 3762POPC   NC348863  36.040  25.982   5.525
 3762POPC   PO448864  35.407  26.111   5.147
 3762POPC   GL148865  35.425  26.033   5.630
 3762POPC   GL248866  35.335  25.681   5.700
 3762POPC   C1A48867  35.212  26.044   6.079
 3762POPC   D2A48868  35.307  26.172   6.539
 3762POPC   C3A48869  35.048  26.199   6.928
 3762POPC   C4A48870  35.330  26.158   7.316
 3762POPC   C1B48871  35.460  25.601   6.153
 3762POPC   C2B48872  35.292  25.576   6.566
 3762POPC   C3B48873  35.328  25.771   6.955
 3762POPC   C4B48874  35.537  25.696   7.359
 3763POPC   NC348875  37.822  42.028   5.567
 3763POPC   PO448876  37.719  41.403   5.376
 3763POPC   GL148877  37.679  41.546   5.798
 3763POPC   GL248878  37.421  41.779   5.817
 3763POPC   C1A48879  37.595  41.336   6.187
 3763POPC   D2A48880  37.835  41.330   6.549
 3763POPC   C3A48881  37.702  41.382   6.974
 3763POPC   C4A48882  37.963  41.482   7.309
 3763POPC   C1B48883  37.588  41.844   6.247
 3763POPC   C2B48884  37.732  41.846   6.700
 3763POPC   C3B48885  37.889  41.960   7.132
 3763POPC   C4B48886  37.858  41.961   7.602
 3764POPC   NC348887  27.529   3.396   5.399
 3764POPC   PO448888  27.913   3.942   5.352
 3764POPC   GL148889  27.737   3.766   5.762
 3764POPC   GL248890  27.492   3.505   5.913
 3764POPC   C1A48891  27.932   3.682   6.163
 3764POPC   D2A48892  28.110   3.534   6.536
 3764POPC   C3A48893  27.797   3.500   6.859
 3764POPC   C4A48894  27.882   3.423   7.290
 3764POPC   C1B48895  27.467   3.529   6.382
 3764POPC   C2B48896  27.141   3.749   6.639
 3764POPC   C3B48897  27.201   3.969   7.034
 3764POPC   C4B48898  27.534   3.792   7.285
 3765POPC   NC348899  36.394  29.886   5.243
 3765POPC   PO448900  35.953  30.331   5.444
 3765POPC   GL148901  36.079  30.131   5.844
 3765POPC   GL248902  36.199  29.756   5.869
 3765POPC   C1A48903  36.077  30.044   6.290
 3765POPC   D2A48904  35.939  30.195   6.683
 3765POPC   C3A48905  36.037  30.077   7.075
 3765POPC   C4A48906  36.280  30.263   7.373
 3765POPC   C1B48907  36.252  29.559   6.326
 3765POPC   C2B48908  36.195  29.645   6.811
 3765POPC   C3B48909  36.459  29.784   7.206
 3765POPC   C4B48910  36.493  29.931   7.694
 3766POPC   NC348911  37.914  25.207   5.475
 3766POPC   PO448912  37.406  25.614   5.469
 3766POPC   GL148913  37.494  25.383   5.859
 3766POPC   GL248914  37.436  25.012   5.833
 3766POPC   C1A48915  37.826  25.434   6.190
 3766POPC   D2A48916  38.062  25.305   6.577
 3766POPC   C3A48917  37.888  25.457   6.973
 3766POPC   C4A48918  37.635  25.409   7.341
 3766POPC   C1B48919  37.681  24.937   6.234
 3766POPC   C2B48920  37.828  24.851   6.680
 3766POPC   C3B48921  37.597  25.000   7.028
 3766POPC   C4B48922  37.194  25.214   7.158
 3767POPC   NC348923  15.509  40.346   5.438
 3767POPC   PO448924  16.179  40.268   5.453
 3767POPC   GL148925  15.937  40.111   5.814
 3767POPC   GL248926  15.831  39.747   5.866
 3767POPC   C1A48927  15.932  40.095   6.277
 3767POPC   D2A48928  15.775  40.202   6.690
 3767POPC   C3A48929  15.701  39.897   7.004
 3767POPC   C4A48930  15.905  40.164   7.244
 3767POPC   C1B48931  16.250  39.745   6.068
 3767POPC   C2B48932  16.392  39.913   6.463
 3767POPC   C3B48933  16.167  39.864   6.842
 3767POPC   C4B48934  16.098  39.716   7.305
 3768POPC   NC348935  23.283  44.230   5.111
 3768POPC   PO448936  23.358  44.900   5.216
 3768POPC   GL148937  23.363  44.658   5.662
 3768POPC   GL248938  23.380  44.274   5.694
 3768POPC   C1A48939  23.573  44.751   6.085
 3768POPC   D2A48940  23.818  44.627   6.465
 3768POPC   C3A48941  23.582  44.674   6.864
 3768POPC   C4A48942  23.790  44.443   7.137
 3768POPC   C1B48943  23.279  44.313   6.154
 3768POPC   C2B48944  23.458  44.271   6.582
 3768POPC   C3B48945  23.325  44.266   7.032
 3768POPC   C4B48946  23.373  44.307   7.496
 3769POPC   NC348947  33.896  41.355   5.574
 3769POPC   PO448948  33.212  41.506   5.439
 3769POPC   GL148949  33.522  41.718   5.783
 3769POPC   GL248950  33.913  41.832   5.815
 3769POPC   C1A48951  33.600  41.851   6.220
 3769POPC   D2A48952  33.610  41.560   6.572
 3769POPC   C3A48953  33.626  41.513   7.028
 3769POPC   C4A48954  33.488  41.596   7.466
 3769POPC   C1B48955  34.023  41.559   6.215
 3769POPC   C2B48956  34.138  41.526   6.679
 3769POPC   C3B48957  34.226  41.818   7.006
 3769POPC   C4B48958  33.952  41.759   7.340
 3770POPC   NC348959  27.897  35.519   5.407
 3770POPC   PO448960  27.354  35.242   5.047
 3770POPC   GL148961  27.388  35.187   5.572
 3770POPC   GL248962  27.464  35.469   5.793
 3770POPC   C1A48963  27.428  35.080   6.088
 3770POPC   D2A48964  27.455  35.339   6.489
 3770POPC   C3A48965  27.417  35.268   6.954
 3770POPC   C4A48966  27.203  35.055   7.351
 3770POPC   C1B48967  27.803  35.547   6.141
 3770POPC   C2B48968  27.920  35.505   6.610
 3770POPC   C3B48969  27.800  35.633   7.044
 3770POPC   C4B48970  27.847  35.864   7.452
 3771POPC   NC348971  44.531  34.017   5.404
 3771POPC   PO448972  44.964  33.471   5.608
 3771POPC   GL148973  44.650  33.719   5.798
 3771POPC   GL248974  44.350  33.513   5.702
 3771POPC   C1A48975  44.671  34.043   6.119
 3771POPC   D2A48976  44.862  34.058   6.522
 3771POPC   C3A48977  44.612  34.071   6.891
 3771POPC   C4A48978  44.644  33.791   7.135
 3771POPC   C1B48979  44.410  33.476   6.177
 3771POPC   C2B48980  44.563  33.510   6.626
 3771POPC   C3B48981  44.468  33.325   7.044
 3771POPC   C4B48982  44.383  33.542   7.457
 3772POPC   NC348983  42.470  40.941   5.465
 3772POPC   PO448984  41.870  40.552   5.339
 3772POPC   GL148985  42.219  40.529   5.759
 3772POPC   GL248986  42.527  40.692   5.883
 3772POPC   C1A48987  42.233  40.758   6.256
 3772POPC   D2A48988  42.523  40.647   6.591
 3772POPC   C3A48989  42.317  40.776   6.961
 3772POPC   C4A48990  41.900  40.773   7.095
 3772POPC   C1B48991  42.660  41.022   6.199
 3772POPC   C2B48992  42.500  41.168   6.610
 3772POPC   C3B48993  42.720  41.129   7.005
 3772POPC   C4B48994  42.789  41.219   7.421
 3773POPC   NC348995  18.153  21.152   5.404
 3773POPC   PO448996  18.219  20.465   5.354
 3773POPC   GL148997  18.165  20.649   5.792
 3773POPC   GL248998  17.898  20.918   5.805
 3773POPC   C1A48999  18.055  20.647   6.236
 3773POPC   D2A49000  18.014  20.476   6.638
 3773POPC   C3A49001  18.334  20.567   6.884
 3773POPC   C4A49002  18.299  20.470   7.285
 3773POPC   C1B49003  17.845  21.115   6.217
 3773POPC   C2B49004  18.018  20.999   6.638
 3773POPC   C3B49005  17.993  20.891   7.081
 3773POPC   C4B49006  18.211  20.952   7.461
 3774POPC   NC349007  22.499   4.962   5.532
 3774POPC   PO449008  21.994   5.338   5.326
 3774POPC   GL149009  22.155   5.297   5.730
 3774POPC   GL249010  22.009   4.974   5.714
 3774POPC   C1A49011  22.471   5.325   6.099
 3774POPC   D2A49012  22.321   5.208   6.510
 3774POPC   C3A49013  22.466   5.412   6.870
 3774POPC   C4A49014  22.362   5.358   7.269
 3774POPC   C1B49015  22.184   4.897   6.116
 3774POPC   C2B49016  21.992   4.801   6.500
 3774POPC   C3B49017  22.032   4.965   6.879
 3774POPC   C4B49018  22.193   4.819   7.209
 3775POPC   NC349019  22.839   9.956   5.409
 3775POPC   PO449020  23.308   9.405   5.306
 3775POPC   GL149021  23.011   9.516   5.711
 3775POPC   GL249022  22.934   9.858   5.905
 3775POPC   C1A49023  22.952   9.440   6.196
 3775POPC   D2A49024  22.971   9.687   6.589
 3775POPC   C3A49025  22.825   9.598   7.012
 3775POPC   C4A49026  23.050   9.412   7.325
 3775POPC   C1B49027  23.260   9.941   6.248
 3775POPC   C2B49028  23.411   9.908   6.711
 3775POPC   C3B49029  23.317  10.113   7.131
 3775POPC   C4B49030  23.382  10.216   7.613
 3776POPC   NC349031   9.068  16.463   5.067
 3776POPC   PO449032   8.952  17.021   5.514
 3776POPC   GL149033   9.157  16.853   5.882
 3776POPC   GL249034   9.380  17.091   6.041
 3776POPC   C1A49035   9.104  16.697   6.308
 3776POPC   D2A49036   9.072  16.729   6.752
 3776POPC   C3A49037   8.766  16.478   6.991
 3776POPC   C4A49038   8.842  16.365   7.446
 3776POPC   C1B49039   8.985  17.217   6.220
 3776POPC   C2B49040   8.786  17.167   6.618
 3776POPC   C3B49041   8.898  17.106   7.048
 3776POPC   C4B49042   9.107  16.774   7.289
 3777POPC   NC349043  10.844  15.886   5.586
 3777POPC   PO449044  10.497  15.240   5.536
 3777POPC   GL149045  10.440  15.079   5.928
 3777POPC   GL249046  10.098  15.072   5.974
 3777POPC   C1A49047  10.681  14.913   6.254
 3777POPC   D2A49048  10.808  15.137   6.606
 3777POPC   C3A49049  10.823  14.908   6.937
 3777POPC   C4A49050  10.575  15.043   7.257
 3777POPC   C1B49051  10.211  15.032   6.401
 3777POPC   C2B49052  10.338  15.135   6.811
 3777POPC   C3B49053  10.191  15.401   7.124
 3777POPC   C4B49054  10.189  15.197   7.522
 3778POPC   NC349055  41.267  25.519   5.448
 3778POPC   PO449056  41.705  25.220   5.833
 3778POPC   GL149057  41.329  25.385   5.971
 3778POPC   GL249058  41.213  25.054   5.891
 3778POPC   C1A49059  41.238  25.353   6.405
 3778POPC   D2A49060  41.491  25.146   6.697
 3778POPC   C3A49061  41.510  25.367   7.072
 3778POPC   C4A49062  41.693  25.490   7.486
 3778POPC   C1B49063  41.262  24.866   6.271
 3778POPC   C2B49064  41.054  24.843   6.653
 3778POPC   C3B49065  41.224  24.880   7.061
 3778POPC   C4B49066  41.351  25.096   7.451
 3779POPC   NC349067  12.769  18.104   5.377
 3779POPC   PO449068  12.478  17.536   5.336
 3779POPC   GL149069  12.632  17.591   5.734
 3779POPC   GL249070  12.501  17.313   5.917
 3779POPC   C1A49071  12.769  17.689   6.158
 3779POPC   D2A49072  12.583  17.653   6.544
 3779POPC   C3A49073  12.781  17.830   6.890
 3779POPC   C4A49074  13.026  17.563   7.171
 3779POPC   C1B49075  12.327  17.234   6.339
 3779POPC   C2B49076  12.474  17.219   6.804
 3779POPC   C3B49077  12.626  17.233   7.228
 3779POPC   C4B49078  12.865  16.987   7.545
 3780POPC   NC349079  43.390  22.446   5.508
 3780POPC   PO449080  42.672  22.116   5.455
 3780POPC   GL149081  42.834  22.180   5.864
 3780POPC   GL249082  43.200  22.210   5.917
 3780POPC   C1A49083  42.848  22.100   6.304
 3780POPC   D2A49084  43.136  22.268   6.596
 3780POPC   C3A49085  43.030  22.450   6.954
 3780POPC   C4A49086  42.769  22.345   7.264
 3780POPC   C1B49087  43.455  22.075   6.251
 3780POPC   C2B49088  43.435  21.879   6.687
 3780POPC   C3B49089  43.431  22.119   7.091
 3780POPC   C4B49090  43.500  22.105   7.581
 3781POPC   NC349091  34.389  42.755   5.371
 3781POPC   PO449092  34.438  43.404   5.267
 3781POPC   GL149093  34.423  43.114   5.749
 3781POPC   GL249094  34.661  42.828   5.819
 3781POPC   C1A49095  34.615  43.170   6.222
 3781POPC   D2A49096  34.627  43.013   6.655
 3781POPC   C3A49097  34.667  43.259   7.012
 3781POPC   C4A49098  34.267  43.310   7.181
 3781POPC   C1B49099  34.380  42.721   6.208
 3781POPC   C2B49100  34.238  42.657   6.664
 3781POPC   C3B49101  34.339  42.782   7.110
 3781POPC   C4B49102  34.506  42.663   7.526
 3782POPC   NC349103  12.512  36.761   5.100
 3782POPC   PO449104  12.096  37.120   5.434
 3782POPC   GL149105  12.080  37.009   5.824
 3782POPC   GL249106  11.788  37.201   5.880
 3782POPC   C1A49107  12.318  36.870   6.168
 3782POPC   D2A49108  12.170  36.713   6.554
 3782POPC   C3A49109  12.373  36.846   6.915
 3782POPC   C4A49110  12.280  36.746   7.318
 3782POPC   C1B49111  11.799  36.950   6.245
 3782POPC   C2B49112  11.698  37.100   6.630
 3782POPC   C3B49113  11.858  36.879   6.946
 3782POPC   C4B49114  11.783  36.710   7.318
 3783POPC   NC349115   6.072  19.700   5.392
 3783POPC   PO449116   5.426  19.752   5.331
 3783POPC   GL149117   5.847  19.905   5.784
 3783POPC   GL249118   6.157  19.710   5.889
 3783POPC   C1A49119   5.872  19.732   6.289
 3783POPC   D2A49120   6.190  19.554   6.580
 3783POPC   C3A49121   6.073  19.661   6.992
 3783POPC   C4A49122   5.743  19.846   7.175
 3783POPC   C1B49123   6.215  20.087   6.200
 3783POPC   C2B49124   6.071  20.121   6.641
 3783POPC   C3B49125   6.116  20.211   7.092
 3783POPC   C4B49126   6.334  19.936   7.386
 3784POPC   NC349127  10.449  22.995   5.416
 3784POPC   PO449128  10.308  22.399   5.629
 3784POPC   GL149129  10.531  22.710   5.864
 3784POPC   GL249130  10.703  23.035   5.844
 3784POPC   C1A49131  10.370  22.935   6.218
 3784POPC   D2A49132  10.533  22.755   6.583
 3784POPC   C3A49133  10.351  22.881   6.948
 3784POPC   C4A49134  10.463  22.872   7.360
 3784POPC   C1B49135  10.894  22.885   6.219
 3784POPC   C2B49136  10.960  23.077   6.612
 3784POPC   C3B49137  10.814  23.113   6.998
 3784POPC   C4B49138  11.026  23.186   7.362
 3785POPC   NC349139   5.432  43.344   5.433
 3785POPC   PO449140   6.029  43.240   5.128
 3785POPC   GL149141   6.031  43.281   5.624
 3785POPC   GL249142   5.744  43.065   5.726
 3785POPC   C1A49143   6.059  43.228   6.123
 3785POPC   D2A49144   5.909  43.297   6.575
 3785POPC   C3A49145   6.014  43.115   6.983
 3785POPC   C4A49146   5.886  42.965   7.379
 3785POPC   C1B49147   5.565  43.086   6.141
 3785POPC   C2B49148   5.538  42.926   6.532
 3785POPC   C3B49149   5.514  43.051   6.932
 3785POPC   C4B49150   5.420  42.828   7.285
 3786POPC   NC349151   4.297  22.471   5.423
 3786POPC   PO449152   3.894  21.889   5.333
 3786POPC   GL149153   4.096  22.116   5.720
 3786POPC   GL249154   4.488  22.201   5.846
 3786POPC   C1A49155   4.077  22.339   6.117
 3786POPC   D2A49156   4.128  22.147   6.513
 3786POPC   C3A49157   4.498  22.108   6.784
 3786POPC   C4A49158   4.341  22.096   7.233
 3786POPC   C1B49159   4.553  22.409   6.296
 3786POPC   C2B49160   4.386  22.595   6.715
 3786POPC   C3B49161   4.645  22.478   7.119
 3786POPC   C4B49162   4.729  22.294   7.563
 3787POPC   NC349163  29.528  10.775   5.610
 3787POPC   PO449164  29.059  10.365   5.370
 3787POPC   GL149165  28.924  10.424   5.777
 3787POPC   GL249166  29.023  10.769   5.870
 3787POPC   C1A49167  28.894  10.367   6.217
 3787POPC   D2A49168  29.189  10.439   6.544
 3787POPC   C3A49169  29.103  10.346   6.961
 3787POPC   C4A49170  29.143  10.610   7.326
 3787POPC   C1B49171  29.162  10.911   6.301
 3787POPC   C2B49172  29.241  10.905   6.781
 3787POPC   C3B49173  29.531  10.892   7.125
 3787POPC   C4B49174  29.547  10.834   7.561
 3788POPC   NC349175   3.527  21.856   5.597
 3788POPC   PO449176   3.073  22.428   5.518
 3788POPC   GL149177   3.298  22.261   5.880
 3788POPC   GL249178   3.070  21.989   5.880
 3788POPC   C1A49179   3.608  22.161   6.249
 3788POPC   D2A49180   3.673  21.942   6.670
 3788POPC   C3A49181   3.869  22.248   6.956
 3788POPC   C4A49182   3.837  22.277   7.392
 3788POPC   C1B49183   3.110  22.088   6.330
 3788POPC   C2B49184   3.161  21.810   6.637
 3788POPC   C3B49185   3.320  21.748   7.020
 3788POPC   C4B49186   3.382  22.114   7.201
 3789POPC   NC349187  40.798  28.744   5.632
 3789POPC   PO449188  40.820  28.127   5.444
 3789POPC   GL149189  41.105  28.258   5.823
 3789POPC   GL249190  40.787  28.359   5.983
 3789POPC   C1A49191  41.144  28.260   6.327
 3789POPC   D2A49192  40.822  28.272   6.658
 3789POPC   C3A49193  40.960  28.342   7.099
 3789POPC   C4A49194  41.083  28.317   7.570
 3789POPC   C1B49195  40.883  28.698   6.274
 3789POPC   C2B49196  41.060  28.717   6.680
 3789POPC   C3B49197  40.843  28.845   7.063
 3789POPC   C4B49198  40.736  28.644   7.437
 3790POPC   NC349199  13.341  44.831   5.409
 3790POPC   PO449200  13.951  44.566   5.506
 3790POPC   GL149201  13.662  44.722   5.812
 3790POPC   GL249202  13.406  44.455   5.776
 3790POPC   C1A49203  13.620  44.919   6.243
 3790POPC   D2A49204  13.732  44.939   6.714
 3790POPC   C3A49205  13.467  44.802   7.083
 3790POPC   C4A49206  13.613  44.832   7.532
 3790POPC   C1B49207  13.696  44.299   6.112
 3790POPC   C2B49208  13.610  44.429   6.490
 3790POPC   C3B49209  13.679  44.348   6.878
 3790POPC   C4B49210  13.853  44.493   7.243
 3791POPC   NC349211  28.077  23.463   5.429
 3791POPC   PO449212  28.566  23.875   5.366
 3791POPC   GL149213  28.479  23.684   5.777
 3791POPC   GL249214  28.131  23.708   5.867
 3791POPC   C1A49215  28.507  23.671   6.257
 3791POPC   D2A49216  28.658  23.561   6.696
 3791POPC   C3A49217  28.717  23.715   7.144
 3791POPC   C4A49218  28.577  23.477   7.559
 3791POPC   C1B49219  28.048  23.382   6.170
 3791POPC   C2B49220  28.000  23.393   6.627
 3791POPC   C3B49221  28.243  23.466   7.023
 3791POPC   C4B49222  28.247  23.825   7.333
 3792POPC   NC349223  18.850  28.162   5.450
 3792POPC   PO449224  19.125  28.689   5.631
 3792POPC   GL149225  19.159  28.304   5.840
 3792POPC   GL249226  18.805  28.377   5.918
 3792POPC   C1A49227  19.109  28.145   6.250
 3792POPC   D2A49228  19.289  28.350   6.597
 3792POPC   C3A49229  19.181  28.231   6.987
 3792POPC   C4A49230  18.950  28.367   7.309
 3792POPC   C1B49231  18.853  28.571   6.357
 3792POPC   C2B49232  18.874  28.621   6.827
 3792POPC   C3B49233  18.589  28.703   7.207
 3792POPC   C4B49234  18.591  28.551   7.662
 3793POPC   NC349235  36.632  44.093   5.366
 3793POPC   PO449236  37.320  43.964   5.571
 3793POPC   GL149237  36.925  43.954   5.772
 3793POPC   GL249238  36.974  44.268   5.895
 3793POPC   C1A49239  36.633  43.856   6.137
 3793POPC   D2A49240  36.521  43.898   6.610
 3793POPC   C3A49241  36.785  43.804   7.025
 3793POPC   C4A49242  37.036  43.852   7.441
 3793POPC   C1B49243  37.112  43.989   6.252
 3793POPC   C2B49244  37.143  43.698   6.620
 3793POPC   C3B49245  37.274  43.926   6.978
 3793POPC   C4B49246  37.112  44.326   7.069
 3794POPC   NC349247  23.928   5.547   5.599
 3794POPC   PO449248  23.524   6.010   5.289
 3794POPC   GL149249  23.708   6.006   5.731
 3794POPC   GL249250  24.036   6.182   5.686
 3794POPC   C1A49251  23.695   5.723   6.154
 3794POPC   D2A49252  23.704   5.486   6.574
 3794POPC   C3A49253  23.550   5.744   6.892
 3794POPC   C4A49254  23.647   5.917   7.241
 3794POPC   C1B49255  24.003   6.250   6.128
 3794POPC   C2B49256  23.852   6.032   6.519
 3794POPC   C3B49257  24.043   5.875   6.868
 3794POPC   C4B49258  24.041   6.212   7.107
 3795POPC   NC349259   1.516  30.115   5.433
 3795POPC   PO449260   0.851  30.218   5.264
 3795POPC   GL149261   1.022  29.901   5.651
 3795POPC   GL249262   1.376  29.756   5.803
 3795POPC   C1A49263   0.994  29.800   6.136
 3795POPC   D2A49264   1.032  30.111   6.512
 3795POPC   C3A49265   1.079  29.977   6.947
 3795POPC   C4A49266   1.454  30.058   7.136
 3795POPC   C1B49267   1.461  29.914   6.276
 3795POPC   C2B49268   1.494  29.738   6.721
 3795POPC   C3B49269   1.386  29.537   7.143
 3795POPC   C4B49270   1.487  29.328   7.581
 3796POPC   NC349271   0.651  42.656   5.504
 3796POPC   PO449272   0.170  42.145   5.388
 3796POPC   GL149273   0.314  42.316   5.772
 3796POPC   GL249274   0.652  42.189   5.738
 3796POPC   C1A49275   0.185  42.346   6.228
 3796POPC   D2A49276   0.265  42.571   6.640
 3796POPC   C3A49277   0.304  42.361   7.064
 3796POPC   C4A49278   0.204  42.294   7.550
 3796POPC   C1B49279   0.725  42.302   6.168
 3796POPC   C2B49280   0.703  42.157   6.601
 3796POPC   C3B49281   0.923  42.060   7.001
 3796POPC   C4B49282   0.679  42.185   7.351
 3797POPC   NC349283  15.947   5.274   5.450
 3797POPC   PO449284  15.835   4.605   5.238
 3797POPC   GL149285  15.897   4.777   5.709
 3797POPC   GL249286  15.687   5.051   5.851
 3797POPC   C1A49287  16.027   4.784   6.168
 3797POPC   D2A49288  15.833   4.846   6.613
 3797POPC   C3A49289  16.003   5.020   7.057
 3797POPC   C4A49290  16.078   5.004   7.556
 3797POPC   C1B49291  15.876   5.313   6.161
 3797POPC   C2B49292  15.789   5.511   6.570
 3797POPC   C3B49293  15.685   5.430   6.981
 3797POPC   C4B49294  15.895   5.451   7.337
 3798POPC   NC349295  32.970  28.967   5.281
 3798POPC   PO449296  33.414  29.360   5.487
 3798POPC   GL149297  33.085  29.161   5.819
 3798POPC   GL249298  32.720  29.073   5.787
 3798POPC   C1A49299  33.083  29.009   6.284
 3798POPC   D2A49300  33.295  29.142   6.677
 3798POPC   C3A49301  33.103  29.265   7.049
 3798POPC   C4A49302  33.223  29.139   7.456
 3798POPC   C1B49303  32.568  28.893   6.192
 3798POPC   C2B49304  32.683  28.985   6.639
 3798POPC   C3B49305  32.610  29.100   7.065
 3798POPC   C4B49306  32.716  29.325   7.425
 3799POPC   NC349307  16.070  19.121   5.485
 3799POPC   PO449308  16.184  18.489   5.216
 3799POPC   GL149309  16.003  18.688   5.738
 3799POPC   GL249310  15.802  19.062   5.896
 3799POPC   C1A49311  16.047  18.799   6.221
 3799POPC   D2A49312  16.210  18.742   6.635
 3799POPC   C3A49313  16.152  19.001   7.001
 3799POPC   C4A49314  15.939  18.911   7.354
 3799POPC   C1B49315  15.615  19.101   6.309
 3799POPC   C2B49316  15.765  19.147   6.716
 3799POPC   C3B49317  15.636  19.239   7.135
 3799POPC   C4B49318  15.726  19.285   7.634
 3800POPC   NC349319  35.117  28.449   5.448
 3800POPC   PO449320  35.634  28.773   5.722
 3800POPC   GL149321  35.389  28.418   5.883
 3800POPC   GL249322  35.156  28.633   5.913
 3800POPC   C1A49323  35.205  28.286   6.308
 3800POPC   D2A49324  35.466  28.311   6.683
 3800POPC   C3A49325  35.374  28.152   7.079
 3800POPC   C4A49326  35.546  28.489   7.336
 3800POPC   C1B49327  34.850  28.701   6.199
 3800POPC   C2B49328  34.923  28.631   6.596
 3800POPC   C3B49329  35.116  28.573   6.951
 3800POPC   C4B49330  34.977  28.630   7.307
 3801POPC   NC349331  31.188   6.887   5.577
 3801POPC   PO449332  31.686   6.549   5.222
 3801POPC   GL149333  31.589   6.592   5.691
 3801POPC   GL249334  31.600   6.956   5.863
 3801POPC   C1A49335  31.609   6.525   6.127
 3801POPC   D2A49336  31.345   6.471   6.466
 3801POPC   C3A49337  31.441   6.446   6.864
 3801POPC   C4A49338  31.665   6.404   7.194
 3801POPC   C1B49339  31.336   6.950   6.274
 3801POPC   C2B49340  31.327   6.932   6.750
 3801POPC   C3B49341  31.417   6.884   7.212
 3801POPC   C4B49342  31.418   7.056   7.649
 3802POPC   NC349343  31.880  18.660   5.323
 3802POPC   PO449344  32.217  18.048   5.402
 3802POPC   GL149345  32.216  18.357   5.733
 3802POPC   GL249346  31.898  18.482   5.812
 3802POPC   C1A49347  32.256  18.406   6.181
 3802POPC   D2A49348  32.141  18.231   6.582
 3802POPC   C3A49349  32.470  18.209   6.883
 3802POPC   C4A49350  32.461  18.142   7.314
 3802POPC   C1B49351  31.782  18.571   6.236
 3802POPC   C2B49352  32.010  18.734   6.601
 3802POPC   C3B49353  32.137  18.607   6.995
 3802POPC   C4B49354  31.982  18.318   7.265
 3803POPC   NC349355   0.003  13.785   5.500
 3803POPC   PO449356  44.347  13.592   5.556
 3803POPC   GL149357  44.604  13.669   5.901
 3803POPC   GL249358  44.728  13.985   5.919
 3803POPC   C1A49359  44.482  13.757   6.328
 3803POPC   D2A49360  44.407  13.622   6.738
 3803POPC   C3A49361  44.512  13.814   7.095
 3803POPC   C4A49362  44.717  13.563   7.403
 3803POPC   C1B49363  44.938  13.948   6.302
 3803POPC   C2B49364  44.826  14.059   6.731
 3803POPC   C3B49365   0.028  13.878   7.092
 3803POPC   C4B49366   0.129  13.822   7.526
 3804POPC   NC349367  43.599   8.775   5.534
 3804POPC   PO449368  44.101   9.187   5.382
 3804POPC   GL149369  43.988   9.057   5.768
 3804POPC   GL249370  44.077   8.707   5.730
 3804POPC   C1A49371  43.913   9.152   6.203
 3804POPC   D2A49372  43.620   9.009   6.523
 3804POPC   C3A49373  43.768   9.091   6.930
 3804POPC   C4A49374  43.746   8.965   7.350
 3804POPC   C1B49375  44.291   8.793   6.121
 3804POPC   C2B49376  44.178   8.793   6.568
 3804POPC   C3B49377  43.978   8.619   6.952
 3804POPC   C4B49378  44.073   8.600   7.403
 3805POPC   NC349379  31.677  13.903   5.503
 3805POPC   PO449380  31.114  13.531   5.516
 3805POPC   GL149381  31.238  13.767   5.843
 3805POPC   GL249382  31.287  13.442   6.005
 3805POPC   C1A49383  31.475  13.860   6.245
 3805POPC   D2A49384  31.394  14.039   6.650
 3805POPC   C3A49385  31.492  13.830   7.039
 3805POPC   C4A49386  31.125  13.883   7.230
 3805POPC   C1B49387  31.656  13.368   6.250
 3805POPC   C2B49388  31.722  13.549   6.665
 3805POPC   C3B49389  31.722  13.371   7.109
 3805POPC   C4B49390  31.849  13.500   7.546
 3806POPC   NC349391  19.710   1.601   5.544
 3806POPC   PO449392  19.998   0.967   5.437
 3806POPC   GL149393  19.742   1.130   5.732
 3806POPC   GL249394  20.025   1.276   5.850
 3806POPC   C1A49395  19.619   1.107   6.140
 3806POPC   D2A49396  19.759   1.026   6.553
 3806POPC   C3A49397  19.623   1.212   6.912
 3806POPC   C4A49398  19.623   1.026   7.298
 3806POPC   C1B49399  19.954   1.482   6.210
 3806POPC   C2B49400  20.133   1.407   6.592
 3806POPC   C3B49401  20.028   1.505   6.998
 3806POPC   C4B49402  19.831   1.469   7.380
 3807POPC   NC349403  39.551  26.270   5.429
 3807POPC   PO449404  38.906  26.173   5.226
 3807POPC   GL149405  39.078  26.113   5.658
 3807POPC   GL249406  39.011  25.762   5.719
 3807POPC   C1A49407  39.216  26.110   6.108
 3807POPC   D2A49408  39.189  26.395   6.489
 3807POPC   C3A49409  39.226  26.252   6.926
 3807POPC   C4A49410  39.272  26.215   7.379
 3807POPC   C1B49411  38.779  25.762   6.081
 3807POPC   C2B49412  38.834  25.964   6.451
 3807POPC   C3B49413  38.937  25.840   6.838
 3807POPC   C4B49414  38.855  26.036   7.241
 3808POPC   NC349415   1.658   6.741   5.317
 3808POPC   PO449416   1.095   6.958   5.264
 3808POPC   GL149417   1.255   6.905   5.711
 3808POPC   GL249418   0.959   6.825   5.880
 3808POPC   C1A49419   1.368   6.794   6.188
 3808POPC   D2A49420   1.495   6.995   6.584
 3808POPC   C3A49421   1.362   6.798   6.951
 3808POPC   C4A49422   1.597   6.461   7.137
 3808POPC   C1B49423   0.970   6.463   6.204
 3808POPC   C2B49424   1.190   6.458   6.617
 3808POPC   C3B49425   1.095   6.398   7.095
 3808POPC   C4B49426   0.988   6.546   7.534
 3809POPC   NC349427  40.332  41.474   5.528
 3809POPC   PO449428  39.675  41.276   5.411
 3809POPC   GL149429  39.852  41.500   5.809
 3809POPC   GL249430  39.556  41.686   5.950
 3809POPC   C1A49431  40.129  41.480   6.181
 3809POPC   D2A49432  40.314  41.365   6.553
 3809POPC   C3A49433  40.232  41.494   6.971
 3809POPC   C4A49434  40.200  41.293   7.329
 3809POPC   C1B49435  39.626  41.501   6.325
 3809POPC   C2B49436  39.778  41.425   6.726
 3809POPC   C3B49437  39.648  41.581   7.099
 3809POPC   C4B49438  39.578  41.807   7.429
 3810POPC   NC349439  24.609  37.726   5.170
 3810POPC   PO449440  23.997  37.409   5.475
 3810POPC   GL149441  24.210  37.652   5.822
 3810POPC   GL249442  24.588  37.622   5.861
 3810POPC   C1A49443  24.288  37.630   6.292
 3810POPC   D2A49444  24.002  37.640   6.637
 3810POPC   C3A49445  24.234  37.657   6.990
 3810POPC   C4A49446  24.554  37.705   7.303
 3810POPC   C1B49447  24.701  37.912   6.205
 3810POPC   C2B49448  24.706  37.777   6.633
 3810POPC   C3B49449  24.948  37.753   6.983
 3810POPC   C4B49450  24.977  37.970   7.381
 3811POPC   NC349451  10.660  32.578   5.110
 3811POPC   PO449452  10.444  32.042   5.407
 3811POPC   GL149453  10.347  32.220   5.799
 3811POPC   GL249454  10.071  32.462   5.748
 3811POPC   C1A49455  10.507  32.149   6.224
 3811POPC   D2A49456  10.357  32.209   6.641
 3811POPC   C3A49457  10.574  32.034   6.942
 3811POPC   C4A49458  10.568  32.273   7.278
 3811POPC   C1B49459  10.114  32.590   6.169
 3811POPC   C2B49460   9.973  32.547   6.589
 3811POPC   C3B49461  10.212  32.667   6.949
 3811POPC   C4B49462  10.175  32.587   7.393
 3812POPC   NC349463  39.360  43.818   5.228
 3812POPC   PO449464  38.744  43.948   5.287
 3812POPC   GL149465  39.065  43.838   5.694
 3812POPC   GL249466  39.321  44.071   5.771
 3812POPC   C1A49467  39.005  43.960   6.184
 3812POPC   D2A49468  39.021  44.115   6.651
 3812POPC   C3A49469  39.168  43.850   7.015
 3812POPC   C4A49470  39.486  43.546   7.086
 3812POPC   C1B49471  39.533  44.077   6.183
 3812POPC   C2B49472  39.555  44.267   6.600
 3812POPC   C3B49473  39.602  44.119   7.013
 3812POPC   C4B49474  39.649  43.948   7.427
 3813POPC   NC349475  42.598  31.786   5.640
 3813POPC   PO449476  43.183  31.392   5.639
 3813POPC   GL149477  43.041  31.504   6.000
 3813POPC   GL249478  42.953  31.833   6.004
 3813POPC   C1A49479  43.043  31.324   6.387
 3813POPC   D2A49480  43.351  31.157   6.654
 3813POPC   C3A49481  43.142  31.108   7.023
 3813POPC   C4A49482  43.101  31.458   7.167
 3813POPC   C1B49483  43.013  31.957   6.411
 3813POPC   C2B49484  42.948  31.686   6.740
 3813POPC   C3B49485  42.654  31.402   6.890
 3813POPC   C4B49486  42.662  31.243   7.321
 3814POPC   NC349487  17.562   2.889   5.486
 3814POPC   PO449488  17.848   2.190   5.471
 3814POPC   GL149489  17.646   2.449   5.829
 3814POPC   GL249490  17.797   2.791   5.954
 3814POPC   C1A49491  17.447   2.529   6.271
 3814POPC   D2A49492  17.531   2.714   6.721
 3814POPC   C3A49493  17.449   2.662   7.204
 3814POPC   C4A49494  17.323   2.496   7.657
 3814POPC   C1B49495  17.633   3.066   6.319
 3814POPC   C2B49496  17.562   3.203   6.791
 3814POPC   C3B49497  17.764   3.109   7.209
 3814POPC   C4B49498  17.957   3.099   7.631
 3815POPC   NC349499  33.564  37.364   5.483
 3815POPC   PO449500  33.966  37.904   5.241
 3815POPC   GL149501  33.942  37.660   5.648
 3815POPC   GL249502  33.631  37.822   5.798
 3815POPC   C1A49503  33.934  37.489   6.104
 3815POPC   D2A49504  33.935  37.702   6.571
 3815POPC   C3A49505  33.837  37.556   7.005
 3815POPC   C4A49506  33.852  37.381   7.420
 3815POPC   C1B49507  33.498  37.685   6.239
 3815POPC   C2B49508  33.410  37.742   6.646
 3815POPC   C3B49509  33.345  37.903   7.026
 3815POPC   C4B49510  33.535  37.799   7.404
 3816POPC   NC349511  29.877  14.550   5.325
 3816POPC   PO449512  29.558  14.861   5.825
 3816POPC   GL149513  29.727  14.439   5.827
 3816POPC   GL249514  30.078  14.419   5.771
 3816POPC   C1A49515  29.876  14.189   6.178
 3816POPC   D2A49516  29.735  14.343   6.568
 3816POPC   C3A49517  29.515  14.050   6.816
 3816POPC   C4A49518  29.564  14.096   7.248
 3816POPC   C1B49519  30.220  14.595   6.158
 3816POPC   C2B49520  30.102  14.752   6.567
 3816POPC   C3B49521  29.992  14.575   6.968
 3816POPC   C4B49522  29.940  14.651   7.397
 3817POPC   NC349523   2.285  37.658   5.469
 3817POPC   PO449524   1.789  38.008   5.698
 3817POPC   GL149525   1.896  37.606   5.882
 3817POPC   GL249526   2.180  37.352   5.878
 3817POPC   C1A49527   1.999  37.622   6.310
 3817POPC   D2A49528   1.768  37.772   6.656
 3817POPC   C3A49529   1.938  37.631   7.059
 3817POPC   C4A49530   2.001  37.697   7.540
 3817POPC   C1B49531   2.378  37.262   6.277
 3817POPC   C2B49532   2.274  37.344   6.740
 3817POPC   C3B49533   2.425  37.169   7.168
 3817POPC   C4B49534   2.339  37.332   7.636
 3818POPC   NC349535  23.420  11.459   5.491
 3818POPC   PO449536  22.772  11.303   5.429
 3818POPC   GL149537  23.019  11.306   5.807
 3818POPC   GL249538  23.189  10.986   5.729
 3818POPC   C1A49539  22.900  11.379   6.252
 3818POPC   D2A49540  22.854  11.056   6.581
 3818POPC   C3A49541  22.919  11.158   7.004
 3818POPC   C4A49542  22.821  11.472   7.297
 3818POPC   C1B49543  23.143  10.924   6.177
 3818POPC   C2B49544  23.303  10.826   6.619
 3818POPC   C3B49545  23.385  10.934   7.076
 3818POPC   C4B49546  23.199  11.149   7.436
 3819POPC   NC349547   3.626  37.082   5.310
 3819POPC   PO449548   3.099  36.603   5.375
 3819POPC   GL149549   3.271  36.925   5.686
 3819POPC   GL249550   3.629  37.054   5.831
 3819POPC   C1A49551   3.260  36.928   6.142
 3819POPC   D2A49552   3.547  36.926   6.504
 3819POPC   C3A49553   3.388  37.024   6.915
 3819POPC   C4A49554   3.517  37.004   7.332
 3819POPC   C1B49555   3.909  37.149   6.208
 3819POPC   C2B49556   3.849  37.301   6.690
 3819POPC   C3B49557   3.894  37.277   7.184
 3819POPC   C4B49558   3.673  37.335   7.669
 3820POPC   NC349559  41.544  44.525   5.492
 3820POPC   PO449560  41.503   0.194   5.500
 3820POPC   GL149561  41.350  44.942   5.824
 3820POPC   GL249562  41.681  44.798   5.926
 3820POPC   C1A49563  41.314  44.846   6.279
 3820POPC   D2A49564  41.664  44.674   6.515
 3820POPC   C3A49565  41.549  44.611   6.915
 3820POPC   C4A49566  41.559  44.830   7.257
 3820POPC   C1B49567  41.797  44.383   6.106
 3820POPC   C2B49568  41.823  44.184   6.505
 3820POPC   C3B49569  41.915  44.181   6.906
 3820POPC   C4B49570  41.853  44.385   7.267
 3821POPC   NC349571  10.957  26.069   5.336
 3821POPC   PO449572  11.620  25.870   5.420
 3821POPC   GL149573  11.345  26.104   5.706
 3821POPC   GL249574  11.135  25.838   5.775
 3821POPC   C1A49575  11.243  26.264   6.145
 3821POPC   D2A49576  11.531  26.296   6.533
 3821POPC   C3A49577  11.465  26.158   6.982
 3821POPC   C4A49578  11.448  26.201   7.439
 3821POPC   C1B49579  11.315  25.756   6.175
 3821POPC   C2B49580  11.212  25.881   6.598
 3821POPC   C3B49581  11.174  25.731   7.022
 3821POPC   C4B49582  10.996  25.975   7.335
 3822POPC   NC349583  12.813   3.021   5.349
 3822POPC   PO449584  13.293   2.611   5.190
 3822POPC   GL149585  12.908   2.610   5.654
 3822POPC   GL249586  12.700   2.894   5.807
 3822POPC   C1A49587  12.835   2.521   6.118
 3822POPC   D2A49588  12.823   2.485   6.587
 3822POPC   C3A49589  13.214   2.617   6.790
 3822POPC   C4A49590  13.272   2.885   7.148
 3822POPC   C1B49591  12.688   3.127   6.167
 3822POPC   C2B49592  12.944   3.003   6.532
 3822POPC   C3B49593  12.785   2.889   6.924
 3822POPC   C4B49594  12.806   3.067   7.324
 3823POPC   NC349595  12.357  16.311   5.576
 3823POPC   PO449596  12.126  15.725   5.351
 3823POPC   GL149597  12.056  15.918   5.726
 3823POPC   GL249598  11.842  16.198   5.731
 3823POPC   C1A49599  12.027  16.001   6.165
 3823POPC   D2A49600  11.865  15.763   6.501
 3823POPC   C3A49601  12.135  15.813   6.817
 3823POPC   C4A49602  12.009  15.760   7.211
 3823POPC   C1B49603  11.702  16.399   6.106
 3823POPC   C2B49604  11.757  16.276   6.500
 3823POPC   C3B49605  11.772  16.165   6.899
 3823POPC   C4B49606  11.791  16.379   7.271
 3824POPC   NC349607  24.520   7.039   5.512
 3824POPC   PO449608  24.808   7.771   5.369
 3824POPC   GL149609  24.717   7.700   5.816
 3824POPC   GL249610  24.761   7.319   5.904
 3824POPC   C1A49611  24.629   7.648   6.267
 3824POPC   D2A49612  24.721   7.394   6.654
 3824POPC   C3A49613  24.640   7.577   7.077
 3824POPC   C4A49614  24.266   7.790   7.184
 3824POPC   C1B49615  24.446   7.145   6.248
 3824POPC   C2B49616  24.496   6.912   6.644
 3824POPC   C3B49617  24.545   7.074   7.046
 3824POPC   C4B49618  24.140   7.316   7.093
 3825POPC   NC349619  23.610  13.305   5.540
 3825POPC   PO449620  24.122  12.975   5.253
 3825POPC   GL149621  23.843  12.922   5.739
 3825POPC   GL249622  23.638  12.674   5.785
 3825POPC   C1A49623  23.768  13.001   6.209
 3825POPC   D2A49624  23.588  12.748   6.547
 3825POPC   C3A49625  23.652  12.944   6.917
 3825POPC   C4A49626  23.914  13.204   7.160
 3825POPC   C1B49627  23.784  12.478   6.128
 3825POPC   C2B49628  23.898  12.349   6.543
 3825POPC   C3B49629  23.895  12.498   6.943
 3825POPC   C4B49630  23.842  12.708   7.312
 3826POPC   NC349631   0.023  44.426   5.670
 3826POPC   PO449632   0.468  44.605   5.249
 3826POPC   GL149633   0.555  44.546   5.702
 3826POPC   GL249634   0.403  44.863   5.788
 3826POPC   C1A49635   0.678  44.631   6.157
 3826POPC   D2A49636   0.777  44.403   6.572
 3826POPC   C3A49637   0.581  44.521   6.984
 3826POPC   C4A49638   0.336  44.517   7.372
 3826POPC   C1B49639   0.302  44.989   6.229
 3826POPC   C2B49640   0.258  44.770   6.627
 3826POPC   C3B49641   0.195  44.923   7.054
 3826POPC   C4B49642   0.069   0.117   7.419
 3827POPC   NC349643  28.412   2.942   5.281
 3827POPC   PO449644  28.145   2.518   5.630
 3827POPC   GL149645  28.473   2.484   5.875
 3827POPC   GL249646  28.473   2.833   5.903
 3827POPC   C1A49647  28.510   2.508   6.312
 3827POPC   D2A49648  28.563   2.735   6.668
 3827POPC   C3A49649  28.510   2.443   6.962
 3827POPC   C4A49650  28.610   2.504   7.348
 3827POPC   C1B49651  28.300   2.977   6.311
 3827POPC   C2B49652  28.168   3.063   6.747
 3827POPC   C3B49653  28.218   2.822   7.132
 3827POPC   C4B49654  28.310   2.871   7.545
 3828POPC   NC349655  34.781  13.871   5.389
 3828POPC   PO449656  34.335  13.305   5.471
 3828POPC   GL149657  34.449  13.588   5.838
 3828POPC   GL249658  34.769  13.692   5.859
 3828POPC   C1A49659  34.505  13.761   6.266
 3828POPC   D2A49660  34.605  13.672   6.674
 3828POPC   C3A49661  34.508  13.972   6.963
 3828POPC   C4A49662  34.360  13.860   7.361
 3828POPC   C1B49663  35.013  13.582   6.205
 3828POPC   C2B49664  35.123  13.748   6.600
 3828POPC   C3B49665  35.035  13.889   6.986
 3828POPC   C4B49666  34.884  13.732   7.351
 3829POPC   NC349667  14.361  39.360   5.365
 3829POPC   PO449668  14.905  39.475   5.732
 3829POPC   GL149669  14.643  39.188   5.910
 3829POPC   GL249670  14.345  39.083   5.855
 3829POPC   C1A49671  14.542  39.134   6.353
 3829POPC   D2A49672  14.196  39.300   6.558
 3829POPC   C3A49673  14.322  39.331   6.955
 3829POPC   C4A49674  14.163  39.558   7.294
 3829POPC   C1B49675  14.097  38.924   6.192
 3829POPC   C2B49676  14.169  38.803   6.611
 3829POPC   C3B49677  14.075  38.863   7.051
 3829POPC   C4B49678  14.329  39.059   7.381
 3830POPC   NC349679   8.710  43.589   5.422
 3830POPC   PO449680   9.143  44.127   5.518
 3830POPC   GL149681   8.873  43.982   5.826
 3830POPC   GL249682   8.959  43.644   5.851
 3830POPC   C1A49683   8.730  43.849   6.253
 3830POPC   D2A49684   8.819  43.525   6.571
 3830POPC   C3A49685   8.940  43.658   6.990
 3830POPC   C4A49686   8.797  43.968   7.247
 3830POPC   C1B49687   9.202  43.651   6.236
 3830POPC   C2B49688   9.138  43.946   6.590
 3830POPC   C3B49689   9.274  44.105   6.982
 3830POPC   C4B49690   9.316  43.861   7.363
 3831POPC   NC349691   5.530  34.628   5.212
 3831POPC   PO449692   4.981  34.950   5.366
 3831POPC   GL149693   4.782  34.725   5.752
 3831POPC   GL249694   4.965  34.432   5.910
 3831POPC   C1A49695   4.749  34.749   6.227
 3831POPC   D2A49696   5.136  34.720   6.516
 3831POPC   C3A49697   5.073  34.595   6.941
 3831POPC   C4A49698   4.953  34.808   7.309
 3831POPC   C1B49699   5.225  34.285   6.256
 3831POPC   C2B49700   5.434  34.318   6.668
 3831POPC   C3B49701   5.457  34.232   7.098
 3831POPC   C4B49702   5.376  34.537   7.370
 3832POPC   NC349703  25.533  38.120   5.245
 3832POPC   PO449704  24.918  37.833   5.524
 3832POPC   GL149705  25.119  37.692   5.906
 3832POPC   GL249706  25.461  37.631   5.719
 3832POPC   C1A49707  25.092  37.585   6.332
 3832POPC   D2A49708  25.024  37.328   6.657
 3832POPC   C3A49709  25.260  37.315   7.005
 3832POPC   C4A49710  25.126  37.480   7.386
 3832POPC   C1B49711  25.547  37.475   6.125
 3832POPC   C2B49712  25.581  37.614   6.564
 3832POPC   C3B49713  25.466  37.767   6.978
 3832POPC   C4B49714  25.630  37.666   7.357
 3833POPC   NC349715   4.175  29.676   5.284
 3833POPC   PO449716   4.760  29.894   5.312
 3833POPC   GL149717   4.530  29.730   5.691
 3833POPC   GL249718   4.161  29.898   5.733
 3833POPC   C1A49719   4.399  29.774   6.147
 3833POPC   D2A49720   4.447  30.008   6.499
 3833POPC   C3A49721   4.452  29.777   6.887
 3833POPC   C4A49722   4.294  29.863   7.311
 3833POPC   C1B49723   3.879  29.754   6.073
 3833POPC   C2B49724   3.811  29.726   6.524
 3833POPC   C3B49725   3.936  29.820   6.942
 3833POPC   C4B49726   3.862  29.567   7.311
 3834POPC   NC349727  38.907   2.538   5.409
 3834POPC   PO449728  38.374   2.925   5.289
 3834POPC   GL149729  38.412   2.626   5.680
 3834POPC   GL249730  38.731   2.721   5.836
 3834POPC   C1A49731  38.176   2.693   6.098
 3834POPC   D2A49732  38.245   2.845   6.530
 3834POPC   C3A49733  38.109   2.667   6.907
 3834POPC   C4A49734  38.294   2.729   7.312
 3834POPC   C1B49735  38.644   2.534   6.206
 3834POPC   C2B49736  38.753   2.718   6.561
 3834POPC   C3B49737  38.627   2.810   6.915
 3834POPC   C4B49738  38.714   2.501   7.161
 3835POPC   NC349739  22.875   5.349   5.290
 3835POPC   PO449740  23.532   5.411   5.392
 3835POPC   GL149741  23.262   5.232   5.788
 3835POPC   GL249742  22.875   5.158   5.846
 3835POPC   C1A49743  23.129   5.281   6.252
 3835POPC   D2A49744  22.841   5.131   6.576
 3835POPC   C3A49745  22.960   5.243   6.988
 3835POPC   C4A49746  23.146   5.070   7.326
 3835POPC   C1B49747  22.681   4.845   6.170
 3835POPC   C2B49748  22.487   4.625   6.555
 3835POPC   C3B49749  22.560   4.518   7.014
 3835POPC   C4B49750  22.678   4.897   7.287
 3836POPC   NC349751   0.053  19.173   5.091
 3836POPC   PO449752  44.397  19.174   5.440
 3836POPC   GL149753  44.636  19.267   5.803
 3836POPC   GL249754  44.970  19.228   5.650
 3836POPC   C1A49755  44.643  19.072   6.232
 3836POPC   D2A49756  44.638  19.137   6.653
 3836POPC   C3A49757  44.616  18.884   7.001
 3836POPC   C4A49758  44.573  19.094   7.370
 3836POPC   C1B49759   0.084  18.962   6.023
 3836POPC   C2B49760   0.103  18.884   6.482
 3836POPC   C3B49761   0.100  19.029   6.921
 3836POPC   C4B49762   0.039  18.847   7.324
 3837POPC   NC349763  40.844  31.822   5.512
 3837POPC   PO449764  40.861  31.135   5.597
 3837POPC   GL149765  40.639  31.275   5.941
 3837POPC   GL249766  40.736  31.608   5.972
 3837POPC   C1A49767  40.620  31.347   6.401
 3837POPC   D2A49768  40.914  31.431   6.761
 3837POPC   C3A49769  40.729  31.360   7.127
 3837POPC   C4A49770  40.298  31.211   7.175
 3837POPC   C1B49771  41.041  31.650   6.302
 3837POPC   C2B49772  41.147  31.886   6.680
 3837POPC   C3B49773  41.061  31.852   7.129
 3837POPC   C4B49774  40.857  31.691   7.506
 3838POPC   NC349775  24.615  22.201   5.694
 3838POPC   PO449776  25.215  22.117   5.234
 3838POPC   GL149777  25.130  22.102   5.736
 3838POPC   GL249778  25.110  21.764   5.889
 3838POPC   C1A49779  25.198  22.330   6.194
 3838POPC   D2A49780  25.514  22.462   6.574
 3838POPC   C3A49781  25.368  22.380   7.016
 3838POPC   C4A49782  24.930  22.353   7.199
 3838POPC   C1B49783  25.378  21.864   6.239
 3838POPC   C2B49784  25.292  21.986   6.664
 3838POPC   C3B49785  25.161  21.893   7.085
 3838POPC   C4B49786  25.406  22.043   7.419
 3839POPC   NC349787  18.507  15.735   5.416
 3839POPC   PO449788  17.864  15.566   5.499
 3839POPC   GL149789  18.110  15.831   5.811
 3839POPC   GL249790  18.402  16.086   5.802
 3839POPC   C1A49791  18.159  15.914   6.241
 3839POPC   D2A49792  18.070  15.726   6.623
 3839POPC   C3A49793  18.106  15.996   6.912
 3839POPC   C4A49794  18.212  16.209   7.250
 3839POPC   C1B49795  18.543  16.282   6.200
 3839POPC   C2B49796  18.483  16.250   6.638
 3839POPC   C3B49797  18.622  16.055   6.946
 3839POPC   C4B49798  18.522  15.808   7.219
 3840POPC   NC349799  19.496  44.244   5.574
 3840POPC   PO449800  20.138  44.198   5.504
 3840POPC   GL149801  19.930  44.127   5.867
 3840POPC   GL249802  20.160  43.890   6.019
 3840POPC   C1A49803  19.766  44.123   6.276
 3840POPC   D2A49804  20.012  44.071   6.608
 3840POPC   C3A49805  19.758  44.132   6.959
 3840POPC   C4A49806  19.863  44.213   7.347
 3840POPC   C1B49807  19.934  43.625   6.315
 3840POPC   C2B49808  19.629  43.723   6.638
 3840POPC   C3B49809  19.478  43.712   7.064
 3840POPC   C4B49810  19.725  43.739   7.440
 3841POPC   NC349811  38.745  12.583   5.466
 3841POPC   PO449812  38.338  13.112   5.273
 3841POPC   GL149813  38.330  12.889   5.669
 3841POPC   GL249814  38.464  13.211   5.803
 3841POPC   C1A49815  38.297  12.637   6.096
 3841POPC   D2A49816  38.254  12.712   6.603
 3841POPC   C3A49817  38.198  12.570   7.071
 3841POPC   C4A49818  38.394  12.680   7.497
 3841POPC   C1B49819  38.714  12.946   6.114
 3841POPC   C2B49820  38.788  12.914   6.591
 3841POPC   C3B49821  38.591  12.945   7.037
 3841POPC   C4B49822  38.765  13.055   7.455
 3842POPC   NC349823  33.746   4.696   5.188
 3842POPC   PO449824  34.038   5.228   5.450
 3842POPC   GL149825  33.861   5.085   5.858
 3842POPC   GL249826  34.104   4.817   5.866
 3842POPC   C1A49827  33.714   5.204   6.307
 3842POPC   D2A49828  33.652   5.419   6.732
 3842POPC   C3A49829  33.882   5.197   7.037
 3842POPC   C4A49830  34.112   5.178   7.397
 3842POPC   C1B49831  33.982   4.731   6.294
 3842POPC   C2B49832  34.062   4.757   6.741
 3842POPC   C3B49833  34.061   4.702   7.183
 3842POPC   C4B49834  33.659   4.789   7.293
 3843POPC   NC349835  10.627  42.990   4.975
 3843POPC   PO449836  10.513  43.394   5.520
 3843POPC   GL149837  10.592  43.044   5.802
 3843POPC   GL249838  10.323  42.838   5.877
 3843POPC   C1A49839  10.574  43.053   6.265
 3843POPC   D2A49840  10.453  43.327   6.582
 3843POPC   C3A49841  10.573  43.231   7.013
 3843POPC   C4A49842  10.654  42.872   7.254
 3843POPC   C1B49843  10.183  42.676   6.212
 3843POPC   C2B49844  10.069  42.887   6.557
 3843POPC   C3B49845  10.270  42.835   6.912
 3843POPC   C4B49846  10.117  43.013   7.276
 3844POPC   NC349847  20.150  33.712   5.493
 3844POPC   PO449848  19.642  34.151   5.511
 3844POPC   GL149849  19.701  33.979   5.903
 3844POPC   GL249850  20.069  33.954   5.969
 3844POPC   C1A49851  19.634  33.782   6.298
 3844POPC   D2A49852  19.869  33.644   6.656
 3844POPC   C3A49853  19.629  33.715   7.030
 3844POPC   C4A49854  19.863  33.960   7.304
 3844POPC   C1B49855  20.064  33.500   6.143
 3844POPC   C2B49856  20.166  33.200   6.472
 3844POPC   C3B49857  20.242  33.330   6.889
 3844POPC   C4B49858  20.060  33.488   7.241
 3845POPC   NC349859  35.294   4.814   5.652
 3845POPC   PO449860  34.997   5.493   5.540
 3845POPC   GL149861  35.239   5.293   5.859
 3845POPC   GL249862  35.432   5.561   5.945
 3845POPC   C1A49863  35.252   5.053   6.277
 3845POPC   D2A49864  35.011   4.989   6.660
 3845POPC   C3A49865  35.302   5.037   6.986
 3845POPC   C4A49866  35.297   5.183   7.430
 3845POPC   C1B49867  35.574   5.651   6.305
 3845POPC   C2B49868  35.583   5.379   6.619
 3845POPC   C3B49869  35.547   5.475   7.002
 3845POPC   C4B49870  35.755   5.344   7.322
 3846POPC   NC349871   5.270  19.374   5.581
 3846POPC   PO449872   4.641  19.276   5.431
 3846POPC   GL149873   4.865  19.089   5.825
 3846POPC   GL249874   5.254  19.036   5.935
 3846POPC   C1A49875   4.915  18.911   6.262
 3846POPC   D2A49876   5.204  19.119   6.546
 3846POPC   C3A49877   5.088  19.086   6.978
 3846POPC   C4A49878   4.813  19.043   7.352
 3846POPC   C1B49879   5.380  18.724   6.234
 3846POPC   C2B49880   5.191  18.620   6.633
 3846POPC   C3B49881   5.434  18.704   7.015
 3846POPC   C4B49882   5.376  18.998   7.391
 3847POPC   NC349883  33.296  43.652   5.437
 3847POPC   PO449884  33.017  44.305   5.368
 3847POPC   GL149885  33.068  44.097   5.812
 3847POPC   GL249886  33.366  43.904   5.865
 3847POPC   C1A49887  32.901  43.968   6.226
 3847POPC   D2A49888  32.644  43.987   6.633
 3847POPC   C3A49889  32.819  43.992   7.090
 3847POPC   C4A49890  32.630  44.156   7.527
 3847POPC   C1B49891  33.295  43.654   6.226
 3847POPC   C2B49892  33.080  43.683   6.649
 3847POPC   C3B49893  33.106  43.572   7.089
 3847POPC   C4B49894  33.313  43.481   7.435
 3848POPC   NC349895  18.005  33.068   5.376
 3848POPC   PO449896  18.528  32.653   5.528
 3848POPC   GL149897  18.204  32.772   5.819
 3848POPC   GL249898  18.266  33.116   5.819
 3848POPC   C1A49899  18.163  32.891   6.268
 3848POPC   D2A49900  18.387  32.918   6.658
 3848POPC   C3A49901  18.245  32.807   7.063
 3848POPC   C4A49902  18.355  32.766   7.523
 3848POPC   C1B49903  18.151  33.375   6.165
 3848POPC   C2B49904  18.040  33.321   6.554
 3848POPC   C3B49905  18.265  33.332   6.936
 3848POPC   C4B49906  18.282  33.225   7.364
 3849POPC   NC349907  24.667   6.209   5.464
 3849POPC   PO449908  24.216   6.672   5.574
 3849POPC   GL149909  24.525   6.566   5.854
 3849POPC   GL249910  24.518   6.212   5.942
 3849POPC   C1A49911  24.393   6.571   6.281
 3849POPC   D2A49912  24.233   6.388   6.649
 3849POPC   C3A49913  24.399   6.582   7.034
 3849POPC   C4A49914  24.147   6.858   7.308
 3849POPC   C1B49915  24.844   6.327   6.211
 3849POPC   C2B49916  24.790   6.485   6.628
 3849POPC   C3B49917  24.973   6.344   7.005
 3849POPC   C4B49918  24.795   6.354   7.375
 3850POPC   NC349919  10.167  25.538   5.677
 3850POPC   PO449920   9.942  25.066   5.209
 3850POPC   GL149921   9.717  25.267   5.648
 3850POPC   GL249922   9.513  25.003   5.805
 3850POPC   C1A49923   9.646  25.387   6.136
 3850POPC   D2A49924   9.407  25.499   6.531
 3850POPC   C3A49925   9.570  25.466   6.951
 3850POPC   C4A49926   9.784  25.588   7.288
 3850POPC   C1B49927   9.567  24.871   6.231
 3850POPC   C2B49928   9.717  25.072   6.602
 3850POPC   C3B49929   9.612  24.971   7.020
 3850POPC   C4B49930   9.725  25.091   7.420
 3851POPC   NC349931  40.297  11.426   5.291
 3851POPC   PO449932  39.782  11.035   5.363
 3851POPC   GL149933  39.910  11.264   5.731
 3851POPC   GL249934  40.250  11.387   5.784
 3851POPC   C1A49935  40.033  11.159   6.171
 3851POPC   D2A49936  40.122  10.975   6.580
 3851POPC   C3A49937  40.032  11.079   7.007
 3851POPC   C4A49938  40.222  11.188   7.410
 3851POPC   C1B49939  40.316  11.596   6.192
 3851POPC   C2B49940  40.169  11.512   6.614
 3851POPC   C3B49941  40.341  11.518   7.020
 3851POPC   C4B49942  40.257  11.716   7.391
 3852POPC   NC349943  42.787   7.124   5.601
 3852POPC   PO449944  43.258   7.527   5.375
 3852POPC   GL149945  43.269   7.564   5.832
 3852POPC   GL249946  42.968   7.400   6.019
 3852POPC   C1A49947  43.447   7.310   6.169
 3852POPC   D2A49948  43.200   7.226   6.538
 3852POPC   C3A49949  43.454   7.196   6.896
 3852POPC   C4A49950  43.347   7.208   7.291
 3852POPC   C1B49951  43.098   7.752   6.298
 3852POPC   C2B49952  43.075   7.823   6.735
 3852POPC   C3B49953  43.048   7.500   6.999
 3852POPC   C4B49954  42.774   7.313   7.265
 3853POPC   NC349955   2.888  27.081   5.450
 3853POPC   PO449956   2.632  26.488   5.494
 3853POPC   GL149957   2.709  26.640   5.877
 3853POPC   GL249958   2.947  26.393   5.950
 3853POPC   C1A49959   2.882  26.873   6.230
 3853POPC   D2A49960   2.801  27.081   6.639
 3853POPC   C3A49961   2.706  26.843   7.018
 3853POPC   C4A49962   2.832  26.885   7.447
 3853POPC   C1B49963   2.836  26.384   6.368
 3853POPC   C2B49964   3.043  26.627   6.681
 3853POPC   C3B49965   3.106  26.480   7.104
 3853POPC   C4B49966   3.035  26.432   7.523
 3854POPC   NC349967  22.771  41.353   5.355
 3854POPC   PO449968  23.394  41.528   5.306
 3854POPC   GL149969  23.085  41.596   5.675
 3854POPC   GL249970  22.939  41.929   5.731
 3854POPC   C1A49971  22.942  41.370   6.067
 3854POPC   D2A49972  23.214  41.323   6.435
 3854POPC   C3A49973  23.049  41.374   6.860
 3854POPC   C4A49974  23.137  41.553   7.274
 3854POPC   C1B49975  22.707  41.828   6.129
 3854POPC   C2B49976  22.720  41.632   6.551
 3854POPC   C3B49977  22.756  41.788   7.015
 3854POPC   C4B49978  22.668  41.677   7.467
 3855POPC   NC349979   7.872   8.285   5.506
 3855POPC   PO449980   8.438   7.839   5.513
 3855POPC   GL149981   8.198   7.994   5.844
 3855POPC   GL249982   8.235   8.328   5.911
 3855POPC   C1A49983   8.290   7.947   6.286
 3855POPC   D2A49984   8.195   8.138   6.683
 3855POPC   C3A49985   8.246   7.933   7.080
 3855POPC   C4A49986   8.216   8.094   7.471
 3855POPC   C1B49987   8.511   8.406   6.279
 3855POPC   C2B49988   8.703   8.250   6.648
 3855POPC   C3B49989   8.604   8.285   7.090
 3855POPC   C4B49990   8.287   8.562   7.278
 3856POPC   NC349991  21.554   5.355   5.487
 3856POPC   PO449992  21.642   6.019   5.495
 3856POPC   GL149993  21.759   5.842   5.874
 3856POPC   GL249994  21.551   5.546   5.961
 3856POPC   C1A49995  21.665   5.891   6.322
 3856POPC   D2A49996  21.486   5.666   6.678
 3856POPC   C3A49997  21.637   5.861   7.048
 3856POPC   C4A49998  21.622   5.969   7.501
 3856POPC   C1B49999  21.196   5.724   6.215
 3856POPC   C2B50000  20.987   5.577   6.613
 3856POPC   C3B50001  21.108   5.787   7.011
 3856POPC   C4B50002  21.134   5.879   7.438
 3857POPC   NC350003  22.517  24.343   5.405
 3857POPC   PO450004  21.843  24.491   5.414
 3857POPC   GL150005  22.059  24.317   5.791
 3857POPC   GL250006  22.331  24.533   5.850
 3857POPC   C1A50007  22.079  24.199   6.230
 3857POPC   D2A50008  21.964  24.400   6.623
 3857POPC   C3A50009  22.181  24.315   7.026
 3857POPC   C4A50010  22.128  24.325   7.492
 3857POPC   C1B50011  22.309  24.687   6.302
 3857POPC   C2B50012  22.346  24.744   6.784
 3857POPC   C3B50013  22.369  24.725   7.252
 3857POPC   C4B50014  22.466  25.037   7.560
 3858POPC   NC350015   2.103  41.489   5.342
 3858POPC   PO450016   1.502  41.717   5.517
 3858POPC   GL150017   1.779  41.481   5.772
 3858POPC   GL250018   2.155  41.503   5.849
 3858POPC   C1A50019   1.774  41.439   6.202
 3858POPC   D2A50020   1.810  41.636   6.592
 3858POPC   C3A50021   1.685  41.435   6.952
 3858POPC   C4A50022   1.764  41.585   7.330
 3858POPC   C1B50023   2.304  41.419   6.257
 3858POPC   C2B50024   2.262  41.421   6.672
 3858POPC   C3B50025   2.188  41.622   7.018
 3858POPC   C4B50026   2.222  41.377   7.352
 3859POPC   NC350027  29.118  44.930   5.429
 3859POPC   PO450028  28.847  44.340   5.409
 3859POPC   GL150029  28.787  44.647   5.765
 3859POPC   GL250030  29.020  44.899   5.912
 3859POPC   C1A50031  28.781  44.526   6.205
 3859POPC   D2A50032  28.823  44.228   6.571
 3859POPC   C3A50033  28.978  44.470   6.938
 3859POPC   C4A50034  28.941  44.527   7.380
 3859POPC   C1B50035  29.193  44.863   6.302
 3859POPC   C2B50036  29.031  44.964   6.695
 3859POPC   C3B50037  29.236   0.094   7.026
 3859POPC   C4B50038  29.482  44.810   7.230
 3860POPC   NC350039  40.775  39.610   5.134
 3860POPC   PO450040  40.693  40.163   5.497
 3860POPC   GL150041  40.744  39.969   5.889
 3860POPC   GL250042  40.850  39.629   5.817
 3860POPC   C1A50043  40.758  40.109   6.321
 3860POPC   D2A50044  40.907  40.173   6.744
 3860POPC   C3A50045  40.569  40.240   7.037
 3860POPC   C4A50046  40.727  40.184   7.422
 3860POPC   C1B50047  40.948  39.607   6.273
 3860POPC   C2B50048  40.843  39.659   6.712
 3860POPC   C3B50049  40.828  39.714   7.174
 3860POPC   C4B50050  41.022  39.744   7.600
 3861POPC   NC350051  32.936  15.949   5.625
 3861POPC   PO450052  33.480  16.335   5.528
 3861POPC   GL150053  33.327  16.251   5.939
 3861POPC   GL250054  33.356  15.919   5.924
 3861POPC   C1A50055  32.966  16.146   6.259
 3861POPC   D2A50056  32.809  15.906   6.630
 3861POPC   C3A50057  33.070  15.968   6.984
 3861POPC   C4A50058  33.056  16.246   7.297
 3861POPC   C1B50059  33.123  15.640   6.208
 3861POPC   C2B50060  33.248  15.610   6.625
 3861POPC   C3B50061  33.270  15.471   7.039
 3861POPC   C4B50062  33.232  15.729   7.438
 3862POPC   NC350063  12.204   8.702   5.152
 3862POPC   PO450064  12.147   8.168   5.481
 3862POPC   GL150065  11.856   8.009   5.800
 3862POPC   GL250066  12.096   8.171   6.027
 3862POPC   C1A50067  11.704   7.924   6.238
 3862POPC   D2A50068  11.960   8.087   6.576
 3862POPC   C3A50069  11.810   8.074   6.992
 3862POPC   C4A50070  12.043   8.049   7.362
 3862POPC   C1B50071  12.124   8.519   6.315
 3862POPC   C2B50072  11.896   8.633   6.667
 3862POPC   C3B50073  12.045   8.551   7.077
 3862POPC   C4B50074  12.203   8.546   7.515
 3863POPC   NC350075  44.144  18.092   5.523
 3863POPC   PO450076  43.472  18.093   5.535
 3863POPC   GL150077  43.814  18.012   5.901
 3863POPC   GL250078  44.200  18.168   6.014
 3863POPC   C1A50079  43.850  18.035   6.348
 3863POPC   D2A50080  43.875  18.295   6.655
 3863POPC   C3A50081  44.024  18.141   7.029
 3863POPC   C4A50082  43.708  18.121   7.274
 3863POPC   C1B50083  44.258  18.524   6.338
 3863POPC   C2B50084  44.219  18.612   6.812
 3863POPC   C3B50085  43.790  18.614   7.050
 3863POPC   C4B50086  43.736  18.564   7.494
 3864POPC   NC350087  40.694  37.277   5.100
 3864POPC   PO450088  41.001  36.798   5.439
 3864POPC   GL150089  40.846  36.995   5.792
 3864POPC   GL250090  40.677  36.703   5.897
 3864POPC   C1A50091  40.975  37.007   6.230
 3864POPC   D2A50092  40.816  36.830   6.598
 3864POPC   C3A50093  40.864  37.062   6.972
 3864POPC   C4A50094  41.081  37.058   7.394
 3864POPC   C1B50095  40.405  36.509   6.197
 3864POPC   C2B50096  40.287  36.526   6.616
 3864POPC   C3B50097  40.530  36.601   6.955
 3864POPC   C4B50098  40.751  36.691   7.309
 3865POPC   NC350099  23.307  38.936   5.462
 3865POPC   PO450100  22.763  39.296   5.369
 3865POPC   GL150101  22.869  39.276   5.797
 3865POPC   GL250102  22.826  38.943   5.889
 3865POPC   C1A50103  22.933  39.276   6.253
 3865POPC   D2A50104  22.996  39.542   6.582
 3865POPC   C3A50105  22.854  39.367   6.933
 3865POPC   C4A50106  22.913  39.209   7.331
 3865POPC   C1B50107  22.536  38.948   6.230
 3865POPC   C2B50108  22.652  38.981   6.652
 3865POPC   C3B50109  22.558  38.965   7.087
 3865POPC   C4B50110  22.581  38.950   7.600
 3866POPC   NC350111  35.700  31.776   5.148
 3866POPC   PO450112  35.217  31.284   5.398
 3866POPC   GL150113  35.201  31.468   5.771
 3866POPC   GL250114  35.527  31.646   5.808
 3866POPC   C1A50115  35.264  31.431   6.192
 3866POPC   D2A50116  35.205  31.702   6.538
 3866POPC   C3A50117  35.286  31.483   6.908
 3866POPC   C4A50118  35.094  31.418   7.350
 3866POPC   C1B50119  35.586  31.840   6.215
 3866POPC   C2B50120  35.687  31.719   6.666
 3866POPC   C3B50121  35.576  31.899   7.092
 3866POPC   C4B50122  35.553  31.879   7.578
 3867POPC   NC350123  35.877  43.497   5.416
 3867POPC   PO450124  36.348  42.976   5.513
 3867POPC   GL150125  36.101  43.199   5.836
 3867POPC   GL250126  35.836  43.035   5.680
 3867POPC   C1A50127  36.153  43.145   6.317
 3867POPC   D2A50128  36.434  42.914   6.625
 3867POPC   C3A50129  36.489  43.170   6.993
 3867POPC   C4A50130  36.148  43.348   7.209
 3867POPC   C1B50131  35.717  42.948   6.118
 3867POPC   C2B50132  35.678  43.083   6.554
 3867POPC   C3B50133  35.972  42.992   6.904
 3867POPC   C4B50134  36.308  42.701   7.098
 3868POPC   NC350135  24.091  35.273   5.269
 3868POPC   PO450136  24.315  35.869   5.354
 3868POPC   GL150137  24.261  35.550   5.745
 3868POPC   GL250138  24.135  35.173   5.774
 3868POPC   C1A50139  24.365  35.484   6.221
 3868POPC   D2A50140  24.468  35.657   6.649
 3868POPC   C3A50141  24.503  35.421   7.014
 3868POPC   C4A50142  24.617  35.012   7.067
 3868POPC   C1B50143  24.158  34.993   6.215
 3868POPC   C2B50144  24.167  35.188   6.641
 3868POPC   C3B50145  24.088  35.087   7.070
 3868POPC   C4B50146  24.309  35.165   7.464
 3869POPC   NC350147  31.387  29.434   5.507
 3869POPC   PO450148  31.562  28.820   5.294
 3869POPC   GL150149  31.578  28.967   5.731
 3869POPC   GL250150  31.765  29.284   5.827
 3869POPC   C1A50151  31.313  29.087   6.084
 3869POPC   D2A50152  31.340  28.955   6.534
 3869POPC   C3A50153  31.260  29.159   6.935
 3869POPC   C4A50154  31.302  29.089   7.383
 3869POPC   C1B50155  31.731  29.260   6.298
 3869POPC   C2B50156  31.765  29.359   6.711
 3869POPC   C3B50157  31.740  29.225   7.123
 3869POPC   C4B50158  31.858  29.117   7.517
 3870POPC   NC350159  17.900  14.134   5.489
 3870POPC   PO450160  18.544  14.359   5.426
 3870POPC   GL150161  18.366  14.208   5.793
 3870POPC   GL250162  18.101  14.409   5.877
 3870POPC   C1A50163  18.310  14.137   6.245
 3870POPC   D2A50164  18.007  14.215   6.600
 3870POPC   C3A50165  18.248  14.267   6.994
 3870POPC   C4A50166  18.105  14.116   7.386
 3870POPC   C1B50167  18.106  14.616   6.270
 3870POPC   C2B50168  18.079  14.710   6.712
 3870POPC   C3B50169  17.857  14.593   7.095
 3870POPC   C4B50170  18.021  14.620   7.503
 3871POPC   NC350171  19.451  16.207   5.065
 3871POPC   PO450172  18.938  15.767   5.270
 3871POPC   GL150173  18.912  15.898   5.702
 3871POPC   GL250174  18.838  15.608   5.869
 3871POPC   C1A50175  19.113  15.982   6.108
 3871POPC   D2A50176  18.938  16.077   6.502
 3871POPC   C3A50177  19.116  16.087   6.904
 3871POPC   C4A50178  18.944  16.099   7.358
 3871POPC   C1B50179  18.636  15.782   6.167
 3871POPC   C2B50180  18.572  15.714   6.569
 3871POPC   C3B50181  18.896  15.612   6.821
 3871POPC   C4B50182  19.001  15.622   7.219
 3872POPC   NC350183  33.093  39.006   5.205
 3872POPC   PO450184  32.485  38.931   5.452
 3872POPC   GL150185  32.868  39.015   5.700
 3872POPC   GL250186  32.926  39.367   5.667
 3872POPC   C1A50187  32.848  39.031   6.158
 3872POPC   D2A50188  32.815  39.292   6.542
 3872POPC   C3A50189  32.861  39.089   6.942
 3872POPC   C4A50190  33.206  39.009   7.181
 3872POPC   C1B50191  32.856  39.559   6.092
 3872POPC   C2B50192  32.985  39.779   6.476
 3872POPC   C3B50193  33.126  39.604   6.870
 3872POPC   C4B50194  32.998  39.509   7.285
 3873POPC   NC350195  16.580  12.937   5.317
 3873POPC   PO450196  17.132  13.190   5.395
 3873POPC   GL150197  16.910  12.944   5.705
 3873POPC   GL250198  16.942  12.611   5.702
 3873POPC   C1A50199  16.666  12.878   6.067
 3873POPC   D2A50200  16.811  12.953   6.499
 3873POPC   C3A50201  16.554  13.079   6.847
 3873POPC   C4A50202  16.610  13.032   7.260
 3873POPC   C1B50203  17.122  12.673   6.137
 3873POPC   C2B50204  16.968  12.476   6.553
 3873POPC   C3B50205  16.872  12.637   6.947
 3873POPC   C4B50206  17.256  12.685   7.152
 3874POPC   NC350207  24.891  28.126   5.551
 3874POPC   PO450208  25.249  28.658   5.542
 3874POPC   GL150209  25.267  28.347   5.866
 3874POPC   GL250210  25.595  28.179   5.817
 3874POPC   C1A50211  25.096  28.214   6.277
 3874POPC   D2A50212  24.885  28.311   6.699
 3874POPC   C3A50213  25.126  28.496   7.063
 3874POPC   C4A50214  25.062  28.477   7.508
 3874POPC   C1B50215  25.634  28.293   6.274
 3874POPC   C2B50216  25.412  28.294   6.679
 3874POPC   C3B50217  25.456  28.101   7.103
 3874POPC   C4B50218  25.480  28.190   7.558
 3875POPC   NC350219  27.101  19.071   5.459
 3875POPC   PO450220  27.853  19.198   5.384
 3875POPC   GL150221  27.539  19.126   5.727
 3875POPC   GL250222  27.591  18.768   5.760
 3875POPC   C1A50223  27.439  19.002   6.187
 3875POPC   D2A50224  27.490  18.791   6.593
 3875POPC   C3A50225  27.443  19.086   6.917
 3875POPC   C4A50226  27.286  19.133   7.323
 3875POPC   C1B50227  27.934  18.965   6.027
 3875POPC   C2B50228  27.933  19.029   6.456
 3875POPC   C3B50229  27.938  18.941   6.870
 3875POPC   C4B50230  27.750  18.926   7.288
 3876POPC   NC350231   7.968   5.348   5.338
 3876POPC   PO450232   8.326   5.952   5.465
 3876POPC   GL150233   8.077   5.911   5.851
 3876POPC   GL250234   8.070   5.556   5.831
 3876POPC   C1A50235   8.108   6.103   6.271
 3876POPC   D2A50236   8.458   6.091   6.575
 3876POPC   C3A50237   8.322   6.181   6.988
 3876POPC   C4A50238   8.393   5.975   7.361
 3876POPC   C1B50239   7.835   5.670   6.245
 3876POPC   C2B50240   8.010   5.767   6.700
 3876POPC   C3B50241   7.920   5.833   7.148
 3876POPC   C4B50242   8.039   5.721   7.583
 3877POPC   NC350243  10.650  26.946   5.317
 3877POPC   PO450244  10.156  26.616   5.286
 3877POPC   GL150245  10.423  26.692   5.721
 3877POPC   GL250246  10.614  27.017   5.822
 3877POPC   C1A50247  10.389  26.744   6.196
 3877POPC   D2A50248  10.546  26.869   6.614
 3877POPC   C3A50249  10.605  26.704   7.016
 3877POPC   C4A50250  10.394  26.875   7.356
 3877POPC   C1B50251  10.709  27.190   6.256
 3877POPC   C2B50252  10.730  27.343   6.718
 3877POPC   C3B50253  10.769  27.150   7.159
 3877POPC   C4B50254  10.708  27.160   7.648
 3878POPC   NC350255  19.716  11.224   5.392
 3878POPC   PO450256  19.863  11.867   5.501
 3878POPC   GL150257  19.923  11.747   5.906
 3878POPC   GL250258  19.659  11.489   5.903
 3878POPC   C1A50259  20.051  11.714   6.360
 3878POPC   D2A50260  20.209  11.448   6.699
 3878POPC   C3A50261  19.881  11.267   6.937
 3878POPC   C4A50262  19.480  11.331   7.116
 3878POPC   C1B50263  19.829  11.268   6.289
 3878POPC   C2B50264  20.116  10.966   6.521
 3878POPC   C3B50265  19.978  10.731   6.878
 3878POPC   C4B50266  19.619  10.843   7.144
 3879POPC   NC350267  42.138  16.112   5.120
 3879POPC   PO450268  42.549  15.673   5.409
 3879POPC   GL150269  42.413  15.919   5.747
 3879POPC   GL250270  42.095  16.098   5.711
 3879POPC   C1A50271  42.326  15.707   6.153
 3879POPC   D2A50272  42.083  15.590   6.508
 3879POPC   C3A50273  42.252  15.712   6.895
 3879POPC   C4A50274  41.992  15.575   7.262
 3879POPC   C1B50275  42.293  16.210   6.133
 3879POPC   C2B50276  42.541  16.055   6.488
 3879POPC   C3B50277  42.412  16.285   6.829
 3879POPC   C4B50278  42.141  16.180   7.149
 3880POPC   NC350279  13.294   1.569   5.502
 3880POPC   PO450280  13.879   1.286   5.543
 3880POPC   GL150281  13.695   1.233   5.929
 3880POPC   GL250282  13.458   0.956   5.883
 3880POPC   C1A50283  13.878   1.231   6.350
 3880POPC   D2A50284  13.958   0.942   6.705
 3880POPC   C3A50285  13.922   1.206   7.076
 3880POPC   C4A50286  13.614   1.532   7.172
 3880POPC   C1B50287  13.437   0.997   6.340
 3880POPC   C2B50288  13.502   1.192   6.737
 3880POPC   C3B50289  13.448   1.053   7.142
 3880POPC   C4B50290  13.738   0.787   7.335
 3881POPC   NC350291   5.489   2.672   5.591
 3881POPC   PO450292   5.117   3.136   5.774
 3881POPC   GL150293   5.169   2.740   5.984
 3881POPC   GL250294   5.351   2.393   5.989
 3881POPC   C1A50295   4.927   2.551   6.265
 3881POPC   D2A50296   5.109   2.456   6.613
 3881POPC   C3A50297   4.930   2.521   6.995
 3881POPC   C4A50298   4.894   2.639   7.418
 3881POPC   C1B50299   5.538   2.642   6.316
 3881POPC   C2B50300   5.573   2.623   6.760
 3881POPC   C3B50301   5.391   2.692   7.176
 3881POPC   C4B50302   5.626   2.990   7.418
 3882POPC   NC350303  16.584  38.324   5.111
 3882POPC   PO450304  16.627  38.849   5.571
 3882POPC   GL150305  16.814  38.579   5.857
 3882POPC   GL250306  17.137  38.711   5.939
 3882POPC   C1A50307  16.744  38.172   6.097
 3882POPC   D2A50308  16.571  38.070   6.522
 3882POPC   C3A50309  16.619  38.488   6.731
 3882POPC   C4A50310  16.640  38.651   7.145
 3882POPC   C1B50311  16.911  38.805   6.328
 3882POPC   C2B50312  16.992  38.864   6.766
 3882POPC   C3B50313  17.090  38.500   7.021
 3882POPC   C4B50314  16.941  38.409   7.461
 3883POPC   NC350315   9.893  29.392   5.567
 3883POPC   PO450316   9.367  29.755   5.456
 3883POPC   GL150317   9.468  29.893   5.876
 3883POPC   GL250318   9.795  30.004   5.782
 3883POPC   C1A50319   9.512  29.969   6.336
 3883POPC   D2A50320   9.426  30.079   6.803
 3883POPC   C3A50321   9.475  29.759   7.120
 3883POPC   C4A50322   9.664  29.965   7.458
 3883POPC   C1B50323  10.004  29.913   6.181
 3883POPC   C2B50324   9.927  29.784   6.615
 3883POPC   C3B50325   9.908  29.979   7.000
 3883POPC   C4B50326  10.075  30.216   7.327
 3884POPC   NC350327  23.595  16.108   5.434
 3884POPC   PO450328  23.993  15.695   5.666
 3884POPC   GL150329  23.688  15.874   5.876
 3884POPC   GL250330  23.876  16.150   5.893
 3884POPC   C1A50331  23.602  15.760   6.273
 3884POPC   D2A50332  23.402  15.614   6.644
 3884POPC   C3A50333  23.519  15.826   6.993
 3884POPC   C4A50334  23.933  15.696   7.147
 3884POPC   C1B50335  23.894  16.205   6.304
 3884POPC   C2B50336  23.898  15.991   6.684
 3884POPC   C3B50337  24.009  16.188   7.059
 3884POPC   C4B50338  23.843  16.547   7.202
 3885POPC   NC350339  38.509  39.667   5.503
 3885POPC   PO450340  38.376  40.220   5.088
 3885POPC   GL150341  38.374  40.190   5.581
 3885POPC   GL250342  38.658  40.340   5.752
 3885POPC   C1A50343  38.305  40.043   6.056
 3885POPC   D2A50344  38.257  40.175   6.528
 3885POPC   C3A50345  38.405  39.930   6.922
 3885POPC   C4A50346  38.114  39.779   7.270
 3885POPC   C1B50347  38.764  40.213   6.183
 3885POPC   C2B50348  38.755  40.241   6.624
 3885POPC   C3B50349  38.697  40.395   7.027
 3885POPC   C4B50350  38.753  40.170   7.437
 3886POPC   NC350351   6.447  18.062   5.074
 3886POPC   PO450352   6.718  17.552   5.467
 3886POPC   GL150353   6.747  17.566   5.883
 3886POPC   GL250354   6.620  17.225   5.905
 3886POPC   C1A50355   6.537  17.621   6.282
 3886POPC   D2A50356   6.364  17.651   6.688
 3886POPC   C3A50357   6.657  17.762   6.984
 3886POPC   C4A50358   6.885  17.449   7.240
 3886POPC   C1B50359   6.890  17.234   6.281
 3886POPC   C2B50360   6.831  17.372   6.717
 3886POPC   C3B50361   6.464  17.266   7.006
 3886POPC   C4B50362   6.222  17.178   7.367
 3887POPC   NC350363  23.238  24.878   5.548
 3887POPC   PO450364  23.763  24.422   5.390
 3887POPC   GL150365  23.946  24.373   5.762
 3887POPC   GL250366  23.808  24.667   5.857
 3887POPC   C1A50367  23.715  24.257   6.143
 3887POPC   D2A50368  23.720  24.450   6.544
 3887POPC   C3A50369  23.708  24.381   6.987
 3887POPC   C4A50370  23.434  24.123   7.241
 3887POPC   C1B50371  23.603  24.809   6.205
 3887POPC   C2B50372  23.697  24.963   6.622
 3887POPC   C3B50373  23.746  24.867   7.071
 3887POPC   C4B50374  23.737  24.944   7.531
 3888POPC   NC350375  25.854  31.173   5.506
 3888POPC   PO450376  26.042  30.477   5.413
 3888POPC   GL150377  25.962  30.683   5.777
 3888POPC   GL250378  26.223  30.948   5.775
 3888POPC   C1A50379  25.802  30.514   6.174
 3888POPC   D2A50380  25.881  30.610   6.589
 3888POPC   C3A50381  25.647  30.519   6.978
 3888POPC   C4A50382  25.762  30.758   7.416
 3888POPC   C1B50383  26.190  30.852   6.219
 3888POPC   C2B50384  26.321  30.872   6.637
 3888POPC   C3B50385  26.069  30.849   6.994
 3888POPC   C4B50386  25.640  31.011   6.996
 3889POPC   NC350387  23.574  14.965   5.463
 3889POPC   PO450388  23.542  15.620   5.367
 3889POPC   GL150389  23.602  15.368   5.799
 3889POPC   GL250390  23.946  15.176   5.771
 3889POPC   C1A50391  23.478  15.264   6.268
 3889POPC   D2A50392  23.449  15.037   6.698
 3889POPC   C3A50393  23.426  15.326   7.077
 3889POPC   C4A50394  23.543  15.605   7.461
 3889POPC   C1B50395  23.975  15.275   6.210
 3889POPC   C2B50396  23.948  14.987   6.580
 3889POPC   C3B50397  23.886  15.185   6.965
 3889POPC   C4B50398  23.914  15.260   7.426
 3890POPC   NC350399  11.664  12.568   5.364
 3890POPC   PO450400  12.240  12.176   5.501
 3890POPC   GL150401  12.070  12.191   5.854
 3890POPC   GL250402  11.743  12.306   5.800
 3890POPC   C1A50403  12.191  12.092   6.235
 3890POPC   D2A50404  12.151  11.804   6.531
 3890POPC   C3A50405  12.336  11.939   6.899
 3890POPC   C4A50406  12.367  11.762   7.289
 3890POPC   C1B50407  11.689  12.183   6.240
 3890POPC   C2B50408  11.896  12.233   6.641
 3890POPC   C3B50409  11.828  12.110   7.075
 3890POPC   C4B50410  11.743  12.422   7.424
 3891POPC   NC350411  27.260  36.254   5.639
 3891POPC   PO450412  26.807  36.014   5.247
 3891POPC   GL150413  26.817  36.029   5.733
 3891POPC   GL250414  27.087  35.831   5.836
 3891POPC   C1A50415  26.570  36.147   6.119
 3891POPC   D2A50416  26.413  35.931   6.493
 3891POPC   C3A50417  26.646  35.919   6.861
 3891POPC   C4A50418  26.511  36.106   7.258
 3891POPC   C1B50419  27.067  36.165   6.250
 3891POPC   C2B50420  27.075  36.198   6.721
 3891POPC   C3B50421  27.025  36.293   7.181
 3891POPC   C4B50422  27.144  36.372   7.629
 3892POPC   NC350423  14.094   5.194   5.669
 3892POPC   PO450424  14.564   4.761   5.405
 3892POPC   GL150425  14.582   5.074   5.755
 3892POPC   GL250426  14.417   4.864   5.989
 3892POPC   C1A50427  14.561   5.316   6.161
 3892POPC   D2A50428  14.402   5.083   6.508
 3892POPC   C3A50429  14.333   5.193   6.915
 3892POPC   C4A50430  14.501   5.130   7.307
 3892POPC   C1B50431  14.122   4.685   6.302
 3892POPC   C2B50432  13.990   4.808   6.684
 3892POPC   C3B50433  14.115   4.739   7.042
 3892POPC   C4B50434  14.086   4.828   7.454
 3893POPC   NC350435  40.530  33.733   5.431
 3893POPC   PO450436  40.942  34.164   5.628
 3893POPC   GL150437  41.022  33.817   5.888
 3893POPC   GL250438  40.739  33.597   5.891
 3893POPC   C1A50439  40.911  33.906   6.305
 3893POPC   D2A50440  40.537  33.910   6.540
 3893POPC   C3A50441  40.683  34.081   6.917
 3893POPC   C4A50442  40.524  34.088   7.297
 3893POPC   C1B50443  40.892  33.396   6.279
 3893POPC   C2B50444  40.762  33.480   6.702
 3893POPC   C3B50445  40.689  33.592   7.135
 3893POPC   C4B50446  40.500  33.295   7.391
 3894POPC   NC350447  28.368  14.717   5.582
 3894POPC   PO450448  28.099  15.285   5.486
 3894POPC   GL150449  28.331  15.224   5.895
 3894POPC   GL250450  28.547  14.938   6.011
 3894POPC   C1A50451  28.200  15.164   6.330
 3894POPC   D2A50452  28.324  14.972   6.703
 3894POPC   C3A50453  28.434  15.169   7.106
 3894POPC   C4A50454  28.244  15.126   7.532
 3894POPC   C1B50455  28.740  14.886   6.414
 3894POPC   C2B50456  28.800  14.897   6.888
 3894POPC   C3B50457  28.708  14.826   7.364
 3894POPC   C4B50458  28.678  14.965   7.818
 3895POPC   NC350459  14.131  40.331   5.419
 3895POPC   PO450460  14.393  39.795   5.269
 3895POPC   GL150461  14.236  39.861   5.709
 3895POPC   GL250462  14.551  39.902   5.876
 3895POPC   C1A50463  14.140  40.066   6.152
 3895POPC   D2A50464  14.420  40.064   6.548
 3895POPC   C3A50465  14.282  39.975   6.975
 3895POPC   C4A50466  14.450  39.980   7.399
 3895POPC   C1B50467  14.419  39.630   6.216
 3895POPC   C2B50468  14.633  39.590   6.621
 3895POPC   C3B50469  14.682  39.675   7.051
 3895POPC   C4B50470  14.666  39.494   7.429
 3896POPC   NC350471  36.214  14.124   5.453
 3896POPC   PO450472  35.777  14.587   5.567
 3896POPC   GL150473  36.164  14.598   5.839
 3896POPC   GL250474  36.182  14.259   5.944
 3896POPC   C1A50475  36.312  14.530   6.324
 3896POPC   D2A50476  36.038  14.346   6.649
 3896POPC   C3A50477  36.101  14.266   7.065
 3896POPC   C4A50478  36.189  14.564   7.393
 3896POPC   C1B50479  35.817  14.504   6.209
 3896POPC   C2B50480  35.577  14.590   6.619
 3896POPC   C3B50481  35.665  14.539   7.063
 3896POPC   C4B50482  35.738  14.360   7.472
 3897POPC   NC350483  30.267  17.706   5.275
 3897POPC   PO450484  29.882  18.210   5.397
 3897POPC   GL150485  30.076  18.287   5.796
 3897POPC   GL250486  29.838  18.504   5.919
 3897POPC   C1A50487  30.118  18.243   6.246
 3897POPC   D2A50488  30.064  17.993   6.621
 3897POPC   C3A50489  30.116  18.148   7.055
 3897POPC   C4A50490  29.813  18.339   7.317
 3897POPC   C1B50491  29.589  18.787   6.135
 3897POPC   C2B50492  29.545  18.825   6.570
 3897POPC   C3B50493  29.620  18.600   6.940
 3897POPC   C4B50494  29.492  18.732   7.379
 3898POPC   NC350495   3.308  21.160   5.300
 3898POPC   PO450496   3.712  21.448   5.717
 3898POPC   GL150497   3.348  21.433   5.900
 3898POPC   GL250498   3.440  21.699   6.145
 3898POPC   C1A50499   3.284  21.224   6.282
 3898POPC   D2A50500   3.447  21.393   6.645
 3898POPC   C3A50501   3.308  21.224   7.032
 3898POPC   C4A50502   3.393  21.432   7.437
 3898POPC   C1B50503   3.862  21.569   6.352
 3898POPC   C2B50504   3.963  21.274   6.696
 3898POPC   C3B50505   3.769  21.437   7.053
 3898POPC   C4B50506   3.799  21.811   7.218
 3899POPC   NC350507  33.075   0.551   5.212
 3899POPC   PO450508  33.568   0.744   5.692
 3899POPC   GL150509  33.183   0.640   5.896
 3899POPC   GL250510  32.908   0.439   5.745
 3899POPC   C1A50511  33.021   0.492   6.296
 3899POPC   D2A50512  32.804   0.282   6.633
 3899POPC   C3A50513  33.068   0.271   6.984
 3899POPC   C4A50514  33.184   0.554   7.274
 3899POPC   C1B50515  32.647   0.717   6.046
 3899POPC   C2B50516  32.558   0.738   6.530
 3899POPC   C3B50517  32.715   0.661   6.994
 3899POPC   C4B50518  32.704   0.609   7.473
 3900POPC   NC350519  23.772  33.975   5.746
 3900POPC   PO450520  23.573  33.385   5.429
 3900POPC   GL150521  23.560  33.494   5.850
 3900POPC   GL250522  23.750  33.686   6.139
 3900POPC   C1A50523  23.459  33.304   6.240
 3900POPC   D2A50524  23.461  33.615   6.550
 3900POPC   C3A50525  23.625  33.684   6.912
 3900POPC   C4A50526  23.407  33.733   7.269
 3900POPC   C1B50527  23.633  34.081   6.374
 3900POPC   C2B50528  23.628  34.190   6.807
 3900POPC   C3B50529  23.818  34.081   7.235
 3900POPC   C4B50530  23.947  34.125   7.729
 3901POPC   NC350531  31.723   2.716   5.561
 3901POPC   PO450532  31.220   3.045   5.160
 3901POPC   GL150533  31.190   2.823   5.673
 3901POPC   GL250534  31.351   2.476   5.774
 3901POPC   C1A50535  31.245   2.770   6.211
 3901POPC   D2A50536  31.402   2.646   6.660
 3901POPC   C3A50537  31.363   2.912   7.064
 3901POPC   C4A50538  31.685   3.052   7.361
 3901POPC   C1B50539  31.297   2.273   6.154
 3901POPC   C2B50540  31.226   2.171   6.569
 3901POPC   C3B50541  31.484   2.186   6.890
 3901POPC   C4B50542  31.404   2.413   7.208
 3902POPC   NC350543  23.561   4.954   5.462
 3902POPC   PO450544  23.713   4.400   5.389
 3902POPC   GL150545  23.810   4.302   5.823
 3902POPC   GL250546  23.607   4.545   5.967
 3902POPC   C1A50547  23.641   4.080   6.211
 3902POPC   D2A50548  23.389   3.951   6.565
 3902POPC   C3A50549  23.660   3.961   6.919
 3902POPC   C4A50550  23.522   4.035   7.308
 3902POPC   C1B50551  23.553   4.553   6.408
 3902POPC   C2B50552  23.851   4.431   6.724
 3902POPC   C3B50553  23.778   4.461   7.158
 3902POPC   C4B50554  23.759   4.642   7.584
 3903POPC   NC350555  11.491  32.069   5.333
 3903POPC   PO450556  12.137  32.069   5.488
 3903POPC   GL150557  11.903  32.243   5.835
 3903POPC   GL250558  11.855  32.605   5.775
 3903POPC   C1A50559  12.037  32.246   6.268
 3903POPC   D2A50560  12.421  32.302   6.538
 3903POPC   C3A50561  12.326  32.255   6.963
 3903POPC   C4A50562  11.923  32.210   7.136
 3903POPC   C1B50563  11.990  32.733   6.208
 3903POPC   C2B50564  11.994  32.559   6.666
 3903POPC   C3B50565  11.977  32.724   7.080
 3903POPC   C4B50566  11.880  32.584   7.500
 3904POPC   NC350567  25.572  12.375   5.224
 3904POPC   PO450568  26.037  11.997   5.099
 3904POPC   GL150569  26.126  12.204   5.596
 3904POPC   GL250570  26.229  11.915   5.859
 3904POPC   C1A50571  26.065  12.339   6.080
 3904POPC   D2A50572  25.855  12.185   6.481
 3904POPC   C3A50573  25.976  12.120   6.934
 3904POPC   C4A50574  25.721  11.850   7.216
 3904POPC   C1B50575  26.228  11.883   6.295
 3904POPC   C2B50576  26.393  12.003   6.688
 3904POPC   C3B50577  26.374  11.741   7.065
 3904POPC   C4B50578  26.337  11.839   7.536
 3905POPC   NC350579   9.451   5.160   5.122
 3905POPC   PO450580   8.794   5.075   5.361
 3905POPC   GL150581   8.794   5.102   5.828
 3905POPC   GL250582   9.132   5.150   5.872
 3905POPC   C1A50583   8.791   5.245   6.254
 3905POPC   D2A50584   9.008   5.237   6.604
 3905POPC   C3A50585   8.759   5.196   6.961
 3905POPC   C4A50586   8.934   5.189   7.357
 3905POPC   C1B50587   9.225   4.922   6.246
 3905POPC   C2B50588   9.455   4.985   6.627
 3905POPC   C3B50589   9.212   4.948   6.996
 3905POPC   C4B50590   8.954   4.679   7.204
 3906POPC   NC350591  44.343  23.118   5.453
 3906POPC   PO450592  43.814  22.705   5.550
 3906POPC   GL150593  43.893  22.890   5.937
 3906POPC   GL250594  44.227  22.860   5.919
 3906POPC   C1A50595  43.948  23.138   6.314
 3906POPC   D2A50596  43.897  22.977   6.734
 3906POPC   C3A50597  43.764  23.287   7.025
 3906POPC   C4A50598  43.821  23.078   7.397
 3906POPC   C1B50599  44.142  22.668   6.337
 3906POPC   C2B50600  44.178  22.535   6.780
 3906POPC   C3B50601  44.204  22.746   7.187
 3906POPC   C4B50602  44.178  22.762   7.657
 3907POPC   NC350603  26.434  34.918   5.565
 3907POPC   PO450604  26.708  34.253   5.383
 3907POPC   GL150605  26.839  34.514   5.712
 3907POPC   GL250606  26.773  34.219   5.893
 3907POPC   C1A50607  26.800  34.805   6.072
 3907POPC   D2A50608  26.631  34.835   6.476
 3907POPC   C3A50609  26.877  34.617   6.746
 3907POPC   C4A50610  26.871  34.702   7.180
 3907POPC   C1B50611  26.656  34.356   6.279
 3907POPC   C2B50612  26.565  34.211   6.648
 3907POPC   C3B50613  26.711  34.230   7.036
 3907POPC   C4B50614  26.572  34.349   7.393
 3908POPC   NC350615  43.241  36.511   5.684
 3908POPC   PO450616  42.853  35.971   5.500
 3908POPC   GL150617  43.072  35.995   5.876
 3908POPC   GL250618  43.446  36.009   5.888
 3908POPC   C1A50619  43.048  36.187   6.263
 3908POPC   D2A50620  43.125  36.322   6.667
 3908POPC   C3A50621  42.879  36.054   6.882
 3908POPC   C4A50622  42.866  35.984   7.282
 3908POPC   C1B50623  43.559  36.131   6.351
 3908POPC   C2B50624  43.608  36.153   6.823
 3908POPC   C3B50625  43.405  36.296   7.226
 3908POPC   C4B50626  43.488  36.380   7.700
 3909POPC   NC350627  25.331  27.283   5.475
 3909POPC   PO450628  25.110  26.644   5.480
 3909POPC   GL150629  25.444  26.654   5.791
 3909POPC   GL250630  25.689  26.337   5.834
 3909POPC   C1A50631  25.369  26.924   6.174
 3909POPC   D2A50632  25.259  27.172   6.559
 3909POPC   C3A50633  25.325  26.999   6.985
 3909POPC   C4A50634  25.292  26.736   7.345
 3909POPC   C1B50635  25.716  26.540   6.216
 3909POPC   C2B50636  25.589  26.728   6.584
 3909POPC   C3B50637  25.607  26.537   6.958
 3909POPC   C4B50638  25.592  26.301   7.302
 3910POPC   NC350639  10.392  10.822   5.497
 3910POPC   PO450640  10.606  10.278   5.245
 3910POPC   GL150641  10.610  10.365   5.778
 3910POPC   GL250642  10.427  10.670   5.964
 3910POPC   C1A50643  10.662  10.388   6.285
 3910POPC   D2A50644  10.641  10.632   6.679
 3910POPC   C3A50645  10.685  10.442   7.098
 3910POPC   C4A50646  10.859  10.567   7.486
 3910POPC   C1B50647  10.104  10.789   6.257
 3910POPC   C2B50648  10.076  10.908   6.692
 3910POPC   C3B50649  10.205  10.639   7.024
 3910POPC   C4B50650  10.349  10.678   7.440
 3911POPC   NC350651  30.280  33.306   4.897
 3911POPC   PO450652  30.483  33.108   5.501
 3911POPC   GL150653  30.556  32.978   5.891
 3911POPC   GL250654  30.239  32.990   5.987
 3911POPC   C1A50655  30.806  33.096   6.265
 3911POPC   D2A50656  30.800  32.923   6.673
 3911POPC   C3A50657  30.691  33.207   6.964
 3911POPC   C4A50658  30.431  33.148   7.285
 3911POPC   C1B50659  30.343  32.928   6.384
 3911POPC   C2B50660  30.259  32.930   6.821
 3911POPC   C3B50661  30.494  32.692   7.090
 3911POPC   C4B50662  30.457  32.332   7.347
 3912POPC   NC350663  35.092  23.879   5.349
 3912POPC   PO450664  35.542  23.394   5.384
 3912POPC   GL150665  35.347  23.601   5.742
 3912POPC   GL250666  35.421  23.862   5.903
 3912POPC   C1A50667  35.207  23.531   6.221
 3912POPC   D2A50668  35.414  23.475   6.649
 3912POPC   C3A50669  35.208  23.510   7.061
 3912POPC   C4A50670  35.561  23.458   7.376
 3912POPC   C1B50671  35.530  24.093   6.244
 3912POPC   C2B50672  35.414  24.214   6.635
 3912POPC   C3B50673  35.448  23.941   6.934
 3912POPC   C4B50674  35.408  23.913   7.311
 3913POPC   NC350675  31.544  16.893   4.990
 3913POPC   PO450676  31.261  16.489   5.535
 3913POPC   GL150677  31.235  16.657   5.931
 3913POPC   GL250678  31.611  16.669   5.936
 3913POPC   C1A50679  31.341  16.863   6.304
 3913POPC   D2A50680  31.510  16.613   6.608
 3913POPC   C3A50681  31.287  16.464   6.967
 3913POPC   C4A50682  31.325  16.722   7.313
 3913POPC   C1B50683  31.827  16.394   6.242
 3913POPC   C2B50684  31.922  16.304   6.696
 3913POPC   C3B50685  31.795  16.599   7.029
 3913POPC   C4B50686  31.791  16.581   7.446
 3914POPC   NC350687  27.073  43.860   5.339
 3914POPC   PO450688  26.553  44.254   5.144
 3914POPC   GL150689  26.724  44.109   5.600
 3914POPC   GL250690  26.487  43.888   5.807
 3914POPC   C1A50691  26.962  44.064   6.005
 3914POPC   D2A50692  27.083  43.889   6.414
 3914POPC   C3A50693  26.996  44.027   6.842
 3914POPC   C4A50694  27.251  44.090   7.206
 3914POPC   C1B50695  26.615  43.785   6.261
 3914POPC   C2B50696  26.697  43.598   6.713
 3914POPC   C3B50697  26.696  43.740   7.186
 3914POPC   C4B50698  26.622  43.591   7.659
 3915POPC   NC350699  41.087   6.833   5.095
 3915POPC   PO450700  40.777   6.323   5.407
 3915POPC   GL150701  40.901   6.599   5.754
 3915POPC   GL250702  40.689   6.867   5.882
 3915POPC   C1A50703  40.822   6.492   6.218
 3915POPC   D2A50704  40.556   6.611   6.586
 3915POPC   C3A50705  40.693   6.440   6.975
 3915POPC   C4A50706  40.870   6.179   7.258
 3915POPC   C1B50707  40.992   6.983   6.237
 3915POPC   C2B50708  41.144   6.940   6.638
 3915POPC   C3B50709  40.891   6.927   6.980
 3915POPC   C4B50710  41.130   6.643   7.181
 3916POPC   NC350711  17.569  29.577   5.365
 3916POPC   PO450712  17.542  28.845   5.350
 3916POPC   GL150713  17.482  29.185   5.685
 3916POPC   GL250714  17.766  29.067   5.768
 3916POPC   C1A50715  17.578  29.319   6.165
 3916POPC   D2A50716  17.749  29.203   6.584
 3916POPC   C3A50717  17.645  29.377   6.980
 3916POPC   C4A50718  17.232  29.462   7.128
 3916POPC   C1B50719  17.438  28.835   6.045
 3916POPC   C2B50720  17.410  28.749   6.483
 3916POPC   C3B50721  17.184  28.918   6.858
 3916POPC   C4B50722  17.418  28.948   7.234
 3917POPC   NC350723  23.954  25.550   5.358
 3917POPC   PO450724  23.629  25.042   5.394
 3917POPC   GL150725  23.648  25.143   5.800
 3917POPC   GL250726  23.999  25.160   5.844
 3917POPC   C1A50727  23.696  25.309   6.218
 3917POPC   D2A50728  23.753  25.488   6.629
 3917POPC   C3A50729  23.546  25.331   7.000
 3917POPC   C4A50730  23.395  25.471   7.415
 3917POPC   C1B50731  24.120  25.023   6.284
 3917POPC   C2B50732  24.152  25.161   6.741
 3917POPC   C3B50733  24.188  25.075   7.219
 3917POPC   C4B50734  24.302  25.178   7.663
 3918POPC   NC350735   7.708   9.175   5.448
 3918POPC   PO450736   8.272   8.643   5.492
 3918POPC   GL150737   8.209   8.840   5.881
 3918POPC   GL250738   8.093   9.133   5.777
 3918POPC   C1A50739   8.095   8.771   6.311
 3918POPC   D2A50740   7.903   8.598   6.706
 3918POPC   C3A50741   7.914   8.885   7.069
 3918POPC   C4A50742   8.302   9.079   7.191
 3918POPC   C1B50743   7.810   9.213   6.139
 3918POPC   C2B50744   7.802   9.122   6.579
 3918POPC   C3B50745   7.990   9.407   6.851
 3918POPC   C4B50746   7.965   9.499   7.245
 3919POPC   NC350747   4.911  31.949   5.503
 3919POPC   PO450748   4.930  31.302   5.412
 3919POPC   GL150749   5.067  31.374   5.821
 3919POPC   GL250750   5.274  31.633   5.861
 3919POPC   C1A50751   4.964  31.505   6.269
 3919POPC   D2A50752   5.058  31.223   6.637
 3919POPC   C3A50753   5.008  31.405   7.065
 3919POPC   C4A50754   4.802  31.761   7.264
 3919POPC   C1B50755   5.409  31.302   6.182
 3919POPC   C2B50756   5.531  31.412   6.625
 3919POPC   C3B50757   5.509  31.266   7.043
 3919POPC   C4B50758   5.380  31.408   7.424
 3920POPC   NC350759  20.933  43.449   5.666
 3920POPC   PO450760  21.486  43.115   5.562
 3920POPC   GL150761  21.643  43.250   5.967
 3920POPC   GL250762  21.320  43.338   6.012
 3920POPC   C1A50763  21.618  43.468   6.396
 3920POPC   D2A50764  21.733  43.611   6.812
 3920POPC   C3A50765  21.580  43.427   7.151
 3920POPC   C4A50766  21.649  42.999   7.203
 3920POPC   C1B50767  21.291  42.938   6.265
 3920POPC   C2B50768  21.306  42.849   6.732
 3920POPC   C3B50769  21.161  43.147   7.053
 3920POPC   C4B50770  21.195  43.212   7.495
 3921POPC   NC350771  33.968   0.925   5.456
 3921POPC   PO450772  33.560   1.532   5.527
 3921POPC   GL150773  33.640   1.378   5.955
 3921POPC   GL250774  33.780   1.040   6.042
 3921POPC   C1A50775  33.819   1.430   6.380
 3921POPC   D2A50776  33.685   1.097   6.682
 3921POPC   C3A50777  33.786   1.209   7.085
 3921POPC   C4A50778  34.154   1.302   7.280
 3921POPC   C1B50779  33.450   0.818   6.311
 3921POPC   C2B50780  33.464   0.596   6.689
 3921POPC   C3B50781  33.642   0.703   7.044
 3921POPC   C4B50782  33.546   0.897   7.405
 3922POPC   NC350783  10.076   4.126   5.477
 3922POPC   PO450784   9.979   4.787   5.560
 3922POPC   GL150785   9.765   4.594   5.883
 3922POPC   GL250786   9.619   4.270   5.775
 3922POPC   C1A50787   9.775   4.696   6.315
 3922POPC   D2A50788   9.953   4.740   6.710
 3922POPC   C3A50789   9.757   4.470   7.005
 3922POPC   C4A50790   9.681   4.609   7.418
 3922POPC   C1B50791   9.847   4.172   6.160
 3922POPC   C2B50792  10.134   4.303   6.481
 3922POPC   C3B50793  10.251   4.301   6.931
 3922POPC   C4B50794  10.084   4.240   7.361
 3923POPC   NC350795  35.461   5.542   5.437
 3923POPC   PO450796  35.220   6.193   5.336
 3923POPC   GL150797  35.318   5.978   5.702
 3923POPC   GL250798  35.651   6.026   5.637
 3923POPC   C1A50799  35.197   5.978   6.150
 3923POPC   D2A50800  35.375   6.006   6.592
 3923POPC   C3A50801  35.180   5.945   6.989
 3923POPC   C4A50802  35.382   5.769   7.366
 3923POPC   C1B50803  35.680   6.135   6.065
 3923POPC   C2B50804  35.886   6.083   6.444
 3923POPC   C3B50805  35.875   5.815   6.802
 3923POPC   C4B50806  35.927   5.818   7.275
 3924POPC   NC350807  15.409   2.274   5.719
 3924POPC   PO450808  15.306   1.773   5.253
 3924POPC   GL150809  15.359   1.775   5.755
 3924POPC   GL250810  15.030   1.968   5.848
 3924POPC   C1A50811  15.420   1.776   6.255
 3924POPC   D2A50812  15.126   1.806   6.644
 3924POPC   C3A50813  15.215   1.733   7.107
 3924POPC   C4A50814  15.007   1.909   7.465
 3924POPC   C1B50815  15.078   2.174   6.268
 3924POPC   C2B50816  14.936   2.339   6.643
 3924POPC   C3B50817  15.066   2.205   6.998
 3924POPC   C4B50818  15.313   2.308   7.310
 3925POPC   NC350819  37.313  30.032   5.478
 3925POPC   PO450820  37.951  29.914   5.337
 3925POPC   GL150821  37.883  29.993   5.787
 3925POPC   GL250822  37.561  29.878   5.905
 3925POPC   C1A50823  37.929  29.980   6.242
 3925POPC   D2A50824  37.698  30.098   6.600
 3925POPC   C3A50825  37.733  29.984   7.021
 3925POPC   C4A50826  37.734  30.342   7.282
 3925POPC   C1B50827  37.580  29.610   6.270
 3925POPC   C2B50828  37.474  29.649   6.686
 3925POPC   C3B50829  37.538  29.491   7.077
 3925POPC   C4B50830  37.682  29.644   7.470
 3926POPC   NC350831  10.206  11.708   5.064
 3926POPC   PO450832   9.654  11.816   5.489
 3926POPC   GL150833   9.477  11.920   5.866
 3926POPC   GL250834   9.767  12.132   5.897
 3926POPC   C1A50835   9.448  12.040   6.293
 3926POPC   D2A50836   9.612  11.991   6.675
 3926POPC   C3A50837   9.698  11.800   7.014
 3926POPC   C4A50838   9.449  11.884   7.315
 3926POPC   C1B50839   9.942  11.944   6.273
 3926POPC   C2B50840  10.085  12.143   6.636
 3926POPC   C3B50841   9.922  12.253   7.034
 3926POPC   C4B50842   9.950  12.034   7.439
 3927POPC   NC350843   1.712  39.157   5.463
 3927POPC   PO450844   2.328  39.363   5.653
 3927POPC   GL150845   1.970  39.309   5.878
 3927POPC   GL250846   1.821  39.606   5.692
 3927POPC   C1A50847   1.906  39.246   6.327
 3927POPC   D2A50848   1.895  39.223   6.803
 3927POPC   C3A50849   2.204  39.216   7.107
 3927POPC   C4A50850   2.126  39.103   7.514
 3927POPC   C1B50851   1.741  39.710   6.096
 3927POPC   C2B50852   1.727  39.692   6.509
 3927POPC   C3B50853   1.667  39.677   6.905
 3927POPC   C4B50854   1.769  39.461   7.268
 3928POPC   NC350855  34.625  27.140   5.441
 3928POPC   PO450856  34.790  26.405   5.390
 3928POPC   GL150857  34.833  26.755   5.703
 3928POPC   GL250858  34.478  26.883   5.852
 3928POPC   C1A50859  34.911  26.873   6.147
 3928POPC   D2A50860  34.744  26.620   6.475
 3928POPC   C3A50861  34.846  26.673   6.893
 3928POPC   C4A50862  34.692  26.630   7.291
 3928POPC   C1B50863  34.355  26.954   6.296
 3928POPC   C2B50864  34.558  27.107   6.695
 3928POPC   C3B50865  34.429  27.059   7.137
 3928POPC   C4B50866  34.107  27.274   7.390
 3929POPC   NC350867  12.666  11.006   5.421
 3929POPC   PO450868  13.040  11.594   5.352
 3929POPC   GL150869  12.775  11.541   5.778
 3929POPC   GL250870  12.429  11.765   5.862
 3929POPC   C1A50871  12.919  11.530   6.186
 3929POPC   D2A50872  13.107  11.346   6.563
 3929POPC   C3A50873  12.980  11.231   7.004
 3929POPC   C4A50874  13.304  11.461   7.227
 3929POPC   C1B50875  12.369  11.459   6.184
 3929POPC   C2B50876  12.261  11.298   6.606
 3929POPC   C3B50877  12.431  11.332   7.015
 3929POPC   C4B50878  12.492  11.283   7.460
 3930POPC   NC350879  42.371  25.484   5.082
 3930POPC   PO450880  42.322  26.049   5.438
 3930POPC   GL150881  42.318  25.977   5.833
 3930POPC   GL250882  42.012  26.079   5.901
 3930POPC   C1A50883  42.529  25.855   6.199
 3930POPC   D2A50884  42.470  25.661   6.597
 3930POPC   C3A50885  42.461  25.859   7.018
 3930POPC   C4A50886  42.636  25.636   7.366
 3930POPC   C1B50887  42.021  25.919   6.304
 3930POPC   C2B50888  42.039  25.894   6.726
 3930POPC   C3B50889  41.975  25.644   7.059
 3930POPC   C4B50890  41.943  25.922   7.368
 3931POPC   NC350891  13.275  21.465   5.257
 3931POPC   PO450892  13.949  21.591   5.399
 3931POPC   GL150893  13.797  21.483   5.797
 3931POPC   GL250894  13.574  21.211   5.713
 3931POPC   C1A50895  13.580  21.648   6.183
 3931POPC   D2A50896  13.420  21.422   6.554
 3931POPC   C3A50897  13.337  21.614   6.976
 3931POPC   C4A50898  13.700  21.653   7.273
 3931POPC   C1B50899  13.680  21.135   6.169
 3931POPC   C2B50900  13.874  21.090   6.570
 3931POPC   C3B50901  13.841  21.203   7.002
 3931POPC   C4B50902  13.853  21.100   7.432
 3932POPC   NC350903  10.637  36.941   5.432
 3932POPC   PO450904   9.952  37.003   5.460
 3932POPC   GL150905  10.261  37.045   5.785
 3932POPC   GL250906  10.442  36.703   5.902
 3932POPC   C1A50907  10.484  37.154   6.158
 3932POPC   D2A50908  10.409  36.962   6.550
 3932POPC   C3A50909  10.601  37.088   6.919
 3932POPC   C4A50910  10.399  36.984   7.276
 3932POPC   C1B50911  10.769  36.707   6.282
 3932POPC   C2B50912  10.807  36.636   6.765
 3932POPC   C3B50913  10.901  36.755   7.217
 3932POPC   C4B50914  11.015  36.569   7.662
 3933POPC   NC350915   9.307   4.171   5.090
 3933POPC   PO450916   8.797   4.273   5.563
 3933POPC   GL150917   8.960   4.434   5.912
 3933POPC   GL250918   9.232   4.630   5.814
 3933POPC   C1A50919   8.881   4.279   6.332
 3933POPC   D2A50920   9.027   4.059   6.691
 3933POPC   C3A50921   8.772   4.204   7.003
 3933POPC   C4A50922   8.841   4.204   7.432
 3933POPC   C1B50923   9.362   4.419   6.230
 3933POPC   C2B50924   9.321   4.485   6.708
 3933POPC   C3B50925   9.291   4.290   7.152
 3933POPC   C4B50926   9.228   4.466   7.577
 3934POPC   NC350927  28.652   0.585   5.490
 3934POPC   PO450928  27.915   0.563   5.451
 3934POPC   GL150929  28.187   0.550   5.838
 3934POPC   GL250930  28.117   0.257   6.051
 3934POPC   C1A50931  28.551   0.485   6.163
 3934POPC   D2A50932  28.657   0.261   6.532
 3934POPC   C3A50933  28.445   0.381   6.889
 3934POPC   C4A50934  28.478   0.496   7.325
 3934POPC   C1B50935  28.108   0.502   6.423
 3934POPC   C2B50936  27.937   0.446   6.801
 3934POPC   C3B50937  28.056   0.199   7.153
 3934POPC   C4B50938  28.075   0.362   7.617
 3935POPC   NC350939  38.797  13.403   5.380
 3935POPC   PO450940  38.311  13.891   5.468
 3935POPC   GL150941  38.367  13.768   5.865
 3935POPC   GL250942  38.705  13.761   5.848
 3935POPC   C1A50943  38.446  13.925   6.281
 3935POPC   D2A50944  38.703  13.838   6.642
 3935POPC   C3A50945  38.440  13.955   6.986
 3935POPC   C4A50946  38.196  13.810   7.324
 3935POPC   C1B50947  38.633  13.465   6.231
 3935POPC   C2B50948  38.273  13.503   6.560
 3935POPC   C3B50949  38.233  13.395   7.000
 3935POPC   C4B50950  38.582  13.481   7.262
 3936POPC   NC350951  40.039   4.683   5.507
 3936POPC   PO450952  40.125   5.353   5.459
 3936POPC   GL150953  40.060   5.097   5.795
 3936POPC   GL250954  40.371   4.969   5.862
 3936POPC   C1A50955  39.895   4.970   6.175
 3936POPC   D2A50956  40.011   5.174   6.549
 3936POPC   C3A50957  39.779   5.075   6.901
 3936POPC   C4A50958  39.626   5.268   7.232
 3936POPC   C1B50959  40.376   4.852   6.290
 3936POPC   C2B50960  40.251   4.752   6.705
 3936POPC   C3B50961  40.254   4.943   7.078
 3936POPC   C4B50962  40.128   5.280   7.313
 3937POPC   NC350963  21.822  24.016   5.459
 3937POPC   PO450964  21.186  23.905   5.363
 3937POPC   GL150965  21.390  23.709   5.719
 3937POPC   GL250966  21.667  23.502   5.613
 3937POPC   C1A50967  21.404  23.692   6.170
 3937POPC   D2A50968  21.240  23.644   6.583
 3937POPC   C3A50969  21.265  23.909   6.929
 3937POPC   C4A50970  21.186  23.840   7.351
 3937POPC   C1B50971  21.763  23.360   6.050
 3937POPC   C2B50972  21.599  23.298   6.470
 3937POPC   C3B50973  21.666  23.540   6.836
 3937POPC   C4B50974  21.658  23.668   7.257
 3938POPC   NC350975  11.999  39.393   5.344
 3938POPC   PO450976  12.390  38.956   5.637
 3938POPC   GL150977  12.146  39.289   5.846
 3938POPC   GL250978  12.392  39.519   5.998
 3938POPC   C1A50979  11.905  39.294   6.232
 3938POPC   D2A50980  11.713  39.446   6.611
 3938POPC   C3A50981  11.878  39.365   7.016
 3938POPC   C4A50982  12.114  39.583   7.298
 3938POPC   C1B50983  12.405  39.160   6.297
 3938POPC   C2B50984  12.195  39.041   6.691
 3938POPC   C3B50985  12.048  38.884   7.100
 3938POPC   C4B50986  12.130  38.996   7.519
 3939POPC   NC350987  38.748  11.267   5.054
 3939POPC   PO450988  38.223  11.418   5.244
 3939POPC   GL150989  38.301  11.318   5.723
 3939POPC   GL250990  38.621  11.439   5.887
 3939POPC   C1A50991  38.254  11.245   6.201
 3939POPC   D2A50992  38.529  11.107   6.573
 3939POPC   C3A50993  38.656  11.263   6.980
 3939POPC   C4A50994  38.728  11.026   7.335
 3939POPC   C1B50995  38.614  11.568   6.335
 3939POPC   C2B50996  38.360  11.612   6.730
 3939POPC   C3B50997  38.549  11.776   7.078
 3939POPC   C4B50998  38.868  11.608   7.331
 3940POPC   NC350999  42.886  39.922   5.451
 3940POPC   PO451000  43.595  39.984   5.477
 3940POPC   GL151001  43.439  40.133   5.903
 3940POPC   GL251002  43.103  40.054   5.891
 3940POPC   C1A51003  43.319  40.036   6.361
 3940POPC   D2A51004  43.263  39.887   6.785
 3940POPC   C3A51005  43.311  40.232   7.061
 3940POPC   C4A51006  43.291  40.309   7.477
 3940POPC   C1B51007  42.876  39.757   6.148
 3940POPC   C2B51008  42.749  39.889   6.546
 3940POPC   C3B51009  42.811  40.092   6.919
 3940POPC   C4B51010  42.950  39.940   7.258
 3941POPC   NC351011  16.809   8.127   5.524
 3941POPC   PO451012  16.368   8.683   5.485
 3941POPC   GL151013  16.605   8.511   5.806
 3941POPC   GL251014  16.952   8.538   5.834
 3941POPC   C1A51015  16.533   8.284   6.160
 3941POPC   D2A51016  16.363   8.122   6.532
 3941POPC   C3A51017  16.691   8.156   6.866
 3941POPC   C4A51018  16.856   8.093   7.278
 3941POPC   C1B51019  16.950   8.600   6.308
 3941POPC   C2B51020  17.001   8.561   6.789
 3941POPC   C3B51021  17.090   8.570   7.211
 3941POPC   C4B51022  17.322   8.316   7.504
 3942POPC   NC351023   6.119  36.466   5.532
 3942POPC   PO451024   5.855  35.745   5.453
 3942POPC   GL151025   6.113  35.891   5.767
 3942POPC   GL251026   5.848  36.128   5.822
 3942POPC   C1A51027   6.209  35.983   6.181
 3942POPC   D2A51028   5.853  35.889   6.418
 3942POPC   C3A51029   5.883  35.926   6.825
 3942POPC   C4A51030   5.770  35.999   7.246
 3942POPC   C1B51031   5.842  36.351   6.183
 3942POPC   C2B51032   6.071  36.332   6.544
 3942POPC   C3B51033   5.996  36.395   6.956
 3942POPC   C4B51034   5.722  36.531   7.257
 3943POPC   NC351035  28.296  33.132   5.132
 3943POPC   PO451036  28.738  33.362   5.505
 3943POPC   GL151037  28.448  33.221   5.882
 3943POPC   GL251038  28.143  33.020   5.798
 3943POPC   C1A51039  28.454  33.153   6.363
 3943POPC   D2A51040  28.338  33.293   6.803
 3943POPC   C3A51041  28.668  33.297   7.143
 3943POPC   C4A51042  28.976  33.039   7.358
 3943POPC   C1B51043  27.967  33.105   6.213
 3943POPC   C2B51044  27.923  32.849   6.583
 3943POPC   C3B51045  28.143  32.743   6.974
 3943POPC   C4B51046  28.004  32.686   7.414
 3944POPC   NC351047  25.050  37.394   5.525
 3944POPC   PO451048  25.476  36.950   5.378
 3944POPC   GL151049  25.450  37.070   5.771
 3944POPC   GL251050  25.714  36.765   5.820
 3944POPC   C1A51051  25.149  37.089   6.158
 3944POPC   D2A51052  24.923  36.859   6.511
 3944POPC   C3A51053  25.131  36.810   6.888
 3944POPC   C4A51054  25.073  36.945   7.301
 3944POPC   C1B51055  25.658  36.982   6.207
 3944POPC   C2B51056  25.493  37.087   6.587
 3944POPC   C3B51057  25.631  36.946   6.986
 3944POPC   C4B51058  25.473  36.632   7.256
 3945POPC   NC351059   1.961   8.049   5.397
 3945POPC   PO451060   1.800   8.686   5.464
 3945POPC   GL151061   2.123   8.623   5.817
 3945POPC   GL251062   2.034   8.293   5.844
 3945POPC   C1A51063   2.212   8.483   6.269
 3945POPC   D2A51064   2.291   8.215   6.598
 3945POPC   C3A51065   2.252   8.405   6.969
 3945POPC   C4A51066   2.124   8.290   7.356
 3945POPC   C1B51067   1.768   8.253   6.215
 3945POPC   C2B51068   1.782   8.036   6.569
 3945POPC   C3B51069   1.792   8.101   6.984
 3945POPC   C4B51070   1.832   7.794   7.303
 3946POPC   NC351071   4.048  31.889   5.488
 3946POPC   PO451072   4.484  32.297   5.229
 3946POPC   GL151073   4.407  32.442   5.725
 3946POPC   GL251074   4.090  32.267   5.841
 3946POPC   C1A51075   4.521  32.397   6.182
 3946POPC   D2A51076   4.743  32.582   6.571
 3946POPC   C3A51077   4.543  32.614   6.956
 3946POPC   C4A51078   4.310  32.322   7.158
 3946POPC   C1B51079   4.138  32.006   6.215
 3946POPC   C2B51080   4.143  32.073   6.650
 3946POPC   C3B51081   3.940  31.986   7.032
 3946POPC   C4B51082   4.052  31.972   7.480
 3947POPC   NC351083  39.131  37.697   5.360
 3947POPC   PO451084  39.394  37.114   5.539
 3947POPC   GL151085  39.113  37.409   5.787
 3947POPC   GL251086  39.308  37.702   5.838
 3947POPC   C1A51087  39.055  37.471   6.248
 3947POPC   D2A51088  39.240  37.626   6.653
 3947POPC   C3A51089  39.217  37.530   7.123
 3947POPC   C4A51090  39.053  37.669   7.580
 3947POPC   C1B51091  39.307  37.925   6.214
 3947POPC   C2B51092  39.187  38.138   6.560
 3947POPC   C3B51093  39.263  38.034   6.957
 3947POPC   C4B51094  39.305  38.038   7.359
 3948POPC   NC351095   2.140  40.594   5.566
 3948POPC   PO451096   1.783  41.145   5.248
 3948POPC   GL151097   1.823  40.974   5.695
 3948POPC   GL251098   1.647  40.662   5.782
 3948POPC   C1A51099   2.020  40.992   6.130
 3948POPC   D2A51100   1.836  41.091   6.569
 3948POPC   C3A51101   2.038  41.060   6.988
 3948POPC   C4A51102   1.977  40.934   7.431
 3948POPC   C1B51103   1.599  40.720   6.233
 3948POPC   C2B51104   1.813  40.552   6.615
 3948POPC   C3B51105   1.982  40.543   7.029
 3948POPC   C4B51106   1.858  40.445   7.430
 3949POPC   NC351107   0.235  20.120   5.355
 3949POPC   PO451108   0.824  19.808   5.543
 3949POPC   GL151109   0.439  19.836   5.738
 3949POPC   GL251110   0.347  19.530   5.814
 3949POPC   C1A51111   0.337  19.890   6.178
 3949POPC   D2A51112   0.494  19.665   6.523
 3949POPC   C3A51113   0.492  19.871   6.908
 3949POPC   C4A51114   0.736  19.773   7.253
 3949POPC   C1B51115   0.009  19.471   6.135
 3949POPC   C2B51116   0.082  19.380   6.563
 3949POPC   C3B51117   0.075  19.548   6.990
 3949POPC   C4B51118   0.255  19.737   7.350
 3950POPC   NC351119  35.284   4.685   5.176
 3950POPC   PO451120  35.660   4.151   5.258
 3950POPC   GL151121  35.514   4.280   5.747
 3950POPC   GL251122  35.176   4.370   5.882
 3950POPC   C1A51123  35.509   4.453   6.238
 3950POPC   D2A51124  35.350   4.571   6.666
 3950POPC   C3A51125  35.641   4.439   6.941
 3950POPC   C4A51126  35.690   4.245   7.339
 3950POPC   C1B51127  35.005   4.596   6.291
 3950POPC   C2B51128  34.843   4.480   6.739
 3950POPC   C3B51129  35.109   4.389   7.117
 3950POPC   C4B51130  35.394   4.664   7.340
 3951POPC   NC351131  12.378  44.990   5.402
 3951POPC   PO451132  12.967  44.554   5.330
 3951POPC   GL151133  12.809  44.639   5.699
 3951POPC   GL251134  12.531  44.434   5.756
 3951POPC   C1A51135  12.877  44.615   6.119
 3951POPC   D2A51136  13.143  44.622   6.468
 3951POPC   C3A51137  12.941  44.724   6.820
 3951POPC   C4A51138  12.932  44.787   7.239
 3951POPC   C1B51139  12.651  44.116   6.054
 3951POPC   C2B51140  12.635  44.051   6.498
 3951POPC   C3B51141  12.685  44.242   6.904
 3951POPC   C4B51142  12.661  44.390   7.352
 3952POPC   NC351143   1.486  37.705   5.527
 3952POPC   PO451144   0.931  37.353   5.666
 3952POPC   GL151145   1.108  37.709   5.859
 3952POPC   GL251146   0.834  37.936   5.909
 3952POPC   C1A51147   1.385  37.853   6.224
 3952POPC   D2A51148   1.229  37.996   6.632
 3952POPC   C3A51149   1.408  37.848   7.010
 3952POPC   C4A51150   1.520  37.505   7.293
 3952POPC   C1B51151   0.906  37.715   6.306
 3952POPC   C2B51152   1.076  37.475   6.618
 3952POPC   C3B51153   1.028  37.517   7.033
 3952POPC   C4B51154   0.742  37.658   7.306
 3953POPC   NC351155   0.626  19.416   5.406
 3953POPC   PO451156   0.265  18.861   5.376
 3953POPC   GL151157   0.489  19.044   5.749
 3953POPC   GL251158   0.753  18.847   5.801
 3953POPC   C1A51159   0.468  19.241   6.203
 3953POPC   D2A51160   0.558  19.101   6.613
 3953POPC   C3A51161   0.547  19.351   6.945
 3953POPC   C4A51162   0.434  19.177   7.295
 3953POPC   C1B51163   0.532  18.718   6.194
 3953POPC   C2B51164   0.649  18.597   6.605
 3953POPC   C3B51165   0.456  18.677   7.001
 3953POPC   C4B51166   0.455  18.560   7.418
 3954POPC   NC351167  23.724   9.554   5.177
 3954POPC   PO451168  23.954  10.141   5.441
 3954POPC   GL151169  23.732   9.963   5.770
 3954POPC   GL251170  23.715   9.619   5.684
 3954POPC   C1A51171  23.774   9.852   6.219
 3954POPC   D2A51172  23.977   9.814   6.643
 3954POPC   C3A51173  23.813  10.049   6.969
 3954POPC   C4A51174  23.823  10.012   7.387
 3954POPC   C1B51175  23.447   9.472   6.009
 3954POPC   C2B51176  23.422   9.484   6.451
 3954POPC   C3B51177  23.353   9.412   6.893
 3954POPC   C4B51178  23.741   9.530   7.096
 3955POPC   NC351179  15.868  33.476   5.594
 3955POPC   PO451180  16.193  34.047   5.362
 3955POPC   GL151181  16.050  33.944   5.788
 3955POPC   GL251182  16.212  34.144   6.050
 3955POPC   C1A51183  15.812  33.872   6.178
 3955POPC   D2A51184  15.918  33.979   6.587
 3955POPC   C3A51185  15.719  33.678   6.863
 3955POPC   C4A51186  15.776  33.657   7.305
 3955POPC   C1B51187  16.292  33.742   6.283
 3955POPC   C2B51188  16.157  33.538   6.649
 3955POPC   C3B51189  16.195  33.767   7.062
 3955POPC   C4B51190  16.177  33.918   7.522
 3956POPC   NC351191  33.016  22.809   5.657
 3956POPC   PO451192  32.486  23.215   5.605
 3956POPC   GL151193  32.723  23.093   5.962
 3956POPC   GL251194  32.556  22.784   5.959
 3956POPC   C1A51195  33.074  23.050   6.308
 3956POPC   D2A51196  33.053  23.221   6.727
 3956POPC   C3A51197  33.152  22.928   7.039
 3956POPC   C4A51198  33.128  22.973   7.445
 3956POPC   C1B51199  32.619  22.836   6.383
 3956POPC   C2B51200  32.779  22.745   6.758
 3956POPC   C3B51201  32.679  22.752   7.193
 3956POPC   C4B51202  32.855  22.554   7.553
 3957POPC   NC351203  25.457  18.869   5.377
 3957POPC   PO451204  25.043  19.377   5.375
 3957POPC   GL151205  25.196  19.126   5.740
 3957POPC   GL251206  25.056  18.774   5.677
 3957POPC   C1A51207  25.299  19.049   6.185
 3957POPC   D2A51208  25.543  18.943   6.569
 3957POPC   C3A51209  25.445  19.162   6.951
 3957POPC   C4A51210  25.107  19.319   7.192
 3957POPC   C1B51211  24.966  18.670   6.109
 3957POPC   C2B51212  24.977  18.799   6.552
 3957POPC   C3B51213  25.237  18.678   6.907
 3957POPC   C4B51214  25.334  18.814   7.328
 3958POPC   NC351215  20.662   3.783   5.326
 3958POPC   PO451216  20.462   3.163   5.376
 3958POPC   GL151217  20.725   3.313   5.772
 3958POPC   GL251218  20.725   3.694   5.823
 3958POPC   C1A51219  20.876   3.387   6.188
 3958POPC   D2A51220  20.559   3.264   6.488
 3958POPC   C3A51221  20.559   3.334   6.911
 3958POPC   C4A51222  20.576   3.447   7.367
 3958POPC   C1B51223  20.471   3.688   6.196
 3958POPC   C2B51224  20.424   3.795   6.631
 3958POPC   C3B51225  20.611   3.828   7.039
 3958POPC   C4B51226  20.694   4.042   7.436
 3959POPC   NC351227   1.326  26.462   5.458
 3959POPC   PO451228   1.262  25.797   5.197
 3959POPC   GL151229   1.365  25.964   5.614
 3959POPC   GL251230   1.071  25.942   5.806
 3959POPC   C1A51231   1.506  26.088   6.044
 3959POPC   D2A51232   1.503  26.037   6.516
 3959POPC   C3A51233   1.173  26.310   6.733
 3959POPC   C4A51234   1.161  26.393   7.177
 3959POPC   C1B51235   1.047  26.050   6.264
 3959POPC   C2B51236   1.079  25.788   6.635
 3959POPC   C3B51237   1.289  25.896   7.017
 3959POPC   C4B51238   1.085  25.868   7.433
 3960POPC   NC351239  39.655  13.599   5.547
 3960POPC   PO451240  39.043  13.811   5.397
 3960POPC   GL151241  39.177  13.585   5.785
 3960POPC   GL251242  38.967  13.321   5.857
 3960POPC   C1A51243  39.083  13.750   6.218
 3960POPC   D2A51244  39.293  13.923   6.588
 3960POPC   C3A51245  39.368  13.652   6.923
 3960POPC   C4A51246  39.036  13.740   7.172
 3960POPC   C1B51247  39.118  13.223   6.261
 3960POPC   C2B51248  39.017  13.400   6.634
 3960POPC   C3B51249  39.044  13.222   7.028
 3960POPC   C4B51250  39.296  13.339   7.356
 3961POPC   NC351251  26.852  13.944   5.456
 3961POPC   PO451252  26.644  13.341   5.491
 3961POPC   GL151253  26.809  13.499   5.840
 3961POPC   GL251254  26.975  13.809   5.917
 3961POPC   C1A51255  26.627  13.621   6.229
 3961POPC   D2A51256  26.730  13.668   6.626
 3961POPC   C3A51257  26.463  13.631   6.969
 3961POPC   C4A51258  26.679  13.681   7.363
 3961POPC   C1B51259  27.163  13.765   6.315
 3961POPC   C2B51260  27.243  13.576   6.710
 3961POPC   C3B51261  27.148  13.746   7.091
 3961POPC   C4B51262  27.054  14.095   7.340
 3962POPC   NC351263   9.262  43.672   5.414
 3962POPC   PO451264   9.811  43.983   5.297
 3962POPC   GL151265   9.868  43.795   5.691
 3962POPC   GL251266  10.207  43.876   5.775
 3962POPC   C1A51267   9.723  43.605   6.080
 3962POPC   D2A51268   9.622  43.840   6.468
 3962POPC   C3A51269   9.564  43.658   6.874
 3962POPC   C4A51270   9.838  43.794   7.218
 3962POPC   C1B51271  10.093  43.923   6.245
 3962POPC   C2B51272  10.066  43.917   6.731
 3962POPC   C3B51273  10.252  44.112   7.097
 3962POPC   C4B51274  10.144  44.134   7.559
 3963POPC   NC351275   1.941   6.080   5.437
 3963POPC   PO451276   1.711   5.651   5.824
 3963POPC   GL151277   1.932   6.002   5.959
 3963POPC   GL251278   2.269   5.925   5.822
 3963POPC   C1A51279   2.157   6.041   6.341
 3963POPC   D2A51280   2.169   5.801   6.705
 3963POPC   C3A51281   1.777   5.738   6.913
 3963POPC   C4A51282   1.754   5.997   7.251
 3963POPC   C1B51283   2.274   5.556   6.113
 3963POPC   C2B51284   1.996   5.387   6.430
 3963POPC   C3B51285   2.068   5.326   6.855
 3963POPC   C4B51286   2.152   5.611   7.224
 3964POPC   NC351287   4.215  38.952   5.431
 3964POPC   PO451288   4.447  39.562   5.266
 3964POPC   GL151289   4.341  39.304   5.768
 3964POPC   GL251290   4.016  39.269   5.932
 3964POPC   C1A51291   4.424  39.019   6.133
 3964POPC   D2A51292   4.195  38.900   6.516
 3964POPC   C3A51293   4.256  39.160   6.886
 3964POPC   C4A51294   4.417  39.180   7.316
 3964POPC   C1B51295   3.886  39.520   6.295
 3964POPC   C2B51296   3.950  39.613   6.767
 3964POPC   C3B51297   4.040  39.515   7.206
 3964POPC   C4B51298   4.091  39.388   7.645
 3965POPC   NC351299  25.582   1.646   5.443
 3965POPC   PO451300  26.129   1.243   5.340
 3965POPC   GL151301  26.062   1.194   5.816
 3965POPC   GL251302  26.380   1.400   5.856
 3965POPC   C1A51303  25.828   1.085   6.266
 3965POPC   D2A51304  25.852   0.820   6.692
 3965POPC   C3A51305  26.038   1.009   7.095
 3965POPC   C4A51306  25.865   1.411   7.313
 3965POPC   C1B51307  26.287   1.323   6.301
 3965POPC   C2B51308  26.103   1.349   6.729
 3965POPC   C3B51309  26.356   1.415   7.133
 3965POPC   C4B51310  26.393   1.412   7.590
 3966POPC   NC351311  41.240   6.182   5.446
 3966POPC   PO451312  40.799   5.596   5.304
 3966POPC   GL151313  40.789   5.875   5.710
 3966POPC   GL251314  41.013   6.126   5.898
 3966POPC   C1A51315  40.758   5.778   6.164
 3966POPC   D2A51316  40.768   5.652   6.599
 3966POPC   C3A51317  40.567   5.877   6.967
 3966POPC   C4A51318  40.601   5.779   7.420
 3966POPC   C1B51319  41.236   5.902   6.255
 3966POPC   C2B51320  41.214   5.880   6.673
 3966POPC   C3B51321  41.054   5.695   7.060
 3966POPC   C4B51322  41.152   5.823   7.479
 3967POPC   NC351323   3.469   0.919   5.377
 3967POPC   PO451324   3.181   1.569   5.528
 3967POPC   GL151325   3.464   1.348   5.872
 3967POPC   GL251326   3.638   1.029   5.864
 3967POPC   C1A51327   3.459   1.163   6.306
 3967POPC   D2A51328   3.552   1.325   6.684
 3967POPC   C3A51329   3.313   1.298   7.009
 3967POPC   C4A51330   3.101   0.981   7.146
 3967POPC   C1B51331   3.929   0.947   6.228
 3967POPC   C2B51332   3.852   0.906   6.656
 3967POPC   C3B51333   3.638   0.910   7.075
 3967POPC   C4B51334   3.831   0.938   7.467
 3968POPC   NC351335   5.827  37.364   5.204
 3968POPC   PO451336   6.330  36.970   5.441
 3968POPC   GL151337   6.197  36.892   5.848
 3968POPC   GL251338   5.862  37.017   5.781
 3968POPC   C1A51339   5.953  36.829   6.250
 3968POPC   D2A51340   5.774  36.762   6.662
 3968POPC   C3A51341   6.017  36.892   7.016
 3968POPC   C4A51342   5.890  37.049   7.424
 3968POPC   C1B51343   6.071  37.308   6.121
 3968POPC   C2B51344   6.149  37.172   6.573
 3968POPC   C3B51345   6.088  37.386   6.973
 3968POPC   C4B51346   6.204  37.476   7.381
 3969POPC   NC351347  10.267  18.552   5.375
 3969POPC   PO451348  10.845  18.138   5.386
 3969POPC   GL151349  10.473  18.207   5.700
 3969POPC   GL251350  10.249  17.946   5.884
 3969POPC   C1A51351  10.432  18.389   6.111
 3969POPC   D2A51352  10.820  18.406   6.345
 3969POPC   C3A51353  10.790  18.289   6.772
 3969POPC   C4A51354  10.624  18.486   7.102
 3969POPC   C1B51355  10.364  17.914   6.340
 3969POPC   C2B51356  10.385  17.918   6.813
 3969POPC   C3B51357  10.337  18.059   7.248
 3969POPC   C4B51358  10.277  17.952   7.740
 3970POPC   NC351359   9.480  21.850   5.344
 3970POPC   PO451360   9.876  22.403   5.222
 3970POPC   GL151361   9.790  22.311   5.695
 3970POPC   GL251362   9.806  21.955   5.840
 3970POPC   C1A51363   9.850  22.371   6.166
 3970POPC   D2A51364  10.011  22.400   6.605
 3970POPC   C3A51365   9.687  22.417   6.926
 3970POPC   C4A51366   9.649  22.497   7.357
 3970POPC   C1B51367   9.476  21.952   6.208
 3970POPC   C2B51368   9.318  22.061   6.664
 3970POPC   C3B51369   9.455  21.961   7.113
 3970POPC   C4B51370   9.400  22.086   7.558
 3971POPC   NC351371  31.850  28.456   5.388
 3971POPC   PO451372  31.295  28.115   5.484
 3971POPC   GL151373  31.498  28.383   5.772
 3971POPC   GL251374  31.744  28.104   5.799
 3971POPC   C1A51375  31.467  28.578   6.180
 3971POPC   D2A51376  31.516  28.411   6.591
 3971POPC   C3A51377  31.408  28.589   6.979
 3971POPC   C4A51378  31.627  28.694   7.317
 3971POPC   C1B51379  31.534  28.045   6.206
 3971POPC   C2B51380  31.533  27.898   6.646
 3971POPC   C3B51381  31.621  28.108   6.999
 3971POPC   C4B51382  31.655  28.055   7.369
 3972POPC   NC351383  19.230   3.170   5.407
 3972POPC   PO451384  19.102   3.758   5.475
 3972POPC   GL151385  19.092   3.466   5.831
 3972POPC   GL251386  18.821   3.223   5.844
 3972POPC   C1A51387  19.135   3.341   6.273
 3972POPC   D2A51388  19.096   3.450   6.704
 3972POPC   C3A51389  19.171   3.452   7.130
 3972POPC   C4A51390  19.312   3.709   7.484
 3972POPC   C1B51391  18.704   3.059   6.225
 3972POPC   C2B51392  18.884   2.986   6.652
 3972POPC   C3B51393  18.709   3.250   7.002
 3972POPC   C4B51394  18.795   3.282   7.474
 3973POPC   NC351395   8.302   7.382   5.499
 3973POPC   PO451396   7.690   7.394   5.477
 3973POPC   GL151397   7.859   7.306   5.873
 3973POPC   GL251398   8.150   7.502   5.957
 3973POPC   C1A51399   7.775   7.489   6.297
 3973POPC   D2A51400   7.726   7.323   6.710
 3973POPC   C3A51401   7.809   7.577   7.079
 3973POPC   C4A51402   8.070   7.595   7.456
 3973POPC   C1B51403   8.265   7.452   6.363
 3973POPC   C2B51404   8.178   7.563   6.748
 3973POPC   C3B51405   8.419   7.458   7.123
 3973POPC   C4B51406   8.536   7.049   7.306
 3974POPC   NC351407   8.490  16.532   5.292
 3974POPC   PO451408   7.899  16.843   5.348
 3974POPC   GL151409   8.177  16.688   5.696
 3974POPC   GL251410   8.531  16.788   5.738
 3974POPC   C1A51411   8.210  16.507   6.113
 3974POPC   D2A51412   7.913  16.434   6.435
 3974POPC   C3A51413   8.103  16.286   6.825
 3974POPC   C4A51414   8.163  16.537   7.170
 3974POPC   C1B51415   8.577  16.887   6.169
 3974POPC   C2B51416   8.467  16.701   6.558
 3974POPC   C3B51417   8.423  16.899   6.936
 3974POPC   C4B51418   8.559  16.788   7.340
 3975POPC   NC351419  36.070  41.077   5.497
 3975POPC   PO451420  36.423  40.609   5.494
 3975POPC   GL151421  36.367  40.778   5.875
 3975POPC   GL251422  36.017  40.740   5.884
 3975POPC   C1A51423  36.277  40.843   6.316
 3975POPC   D2A51424  36.024  40.798   6.671
 3975POPC   C3A51425  36.296  40.705   7.010
 3975POPC   C4A51426  36.338  41.013   7.291
 3975POPC   C1B51427  35.806  40.592   6.239
 3975POPC   C2B51428  35.749  40.367   6.635
 3975POPC   C3B51429  35.829  40.489   7.050
 3975POPC   C4B51430  35.967  40.709   7.424
 3976POPC   NC351431  27.761  27.196   5.591
 3976POPC   PO451432  27.406  26.563   5.474
 3976POPC   GL151433  27.424  26.822   5.815
 3976POPC   GL251434  27.718  26.668   5.906
 3976POPC   C1A51435  27.485  26.943   6.256
 3976POPC   D2A51436  27.532  26.740   6.630
 3976POPC   C3A51437  27.478  27.016   6.954
 3976POPC   C4A51438  27.780  27.109   7.213
 3976POPC   C1B51439  27.748  26.421   6.271
 3976POPC   C2B51440  27.926  26.394   6.684
 3976POPC   C3B51441  27.878  26.642   7.025
 3976POPC   C4B51442  27.990  26.706   7.436
 3977POPC   NC351443  34.931  33.334   5.537
 3977POPC   PO451444  34.265  33.191   5.439
 3977POPC   GL151445  34.531  33.120   5.801
 3977POPC   GL251446  34.341  32.870   5.962
 3977POPC   C1A51447  34.799  33.103   6.186
 3977POPC   D2A51448  34.856  33.134   6.638
 3977POPC   C3A51449  34.459  33.260   6.880
 3977POPC   C4A51450  34.323  33.042   7.238
 3977POPC   C1B51451  34.685  32.609   6.124
 3977POPC   C2B51452  34.843  32.569   6.543
 3977POPC   C3B51453  34.606  32.760   6.880
 3977POPC   C4B51454  34.798  32.813   7.231
 3978POPC   NC351455  42.569  39.279   5.414
 3978POPC   PO451456  41.966  38.860   5.467
 3978POPC   GL151457  42.268  39.019   5.786
 3978POPC   GL251458  42.649  38.928   5.793
 3978POPC   C1A51459  42.292  39.358   6.100
 3978POPC   D2A51460  42.537  39.419   6.474
 3978POPC   C3A51461  42.300  39.422   6.859
 3978POPC   C4A51462  42.363  39.387   7.304
 3978POPC   C1B51463  42.523  38.926   6.231
 3978POPC   C2B51464  42.218  39.020   6.566
 3978POPC   C3B51465  42.226  38.942   7.051
 3978POPC   C4B51466  42.421  38.785   7.448
 3979POPC   NC351467   7.783  23.610   5.078
 3979POPC   PO451468   7.458  23.979   5.564
 3979POPC   GL151469   7.481  23.704   5.875
 3979POPC   GL251470   7.766  23.507   5.942
 3979POPC   C1A51471   7.329  23.652   6.250
 3979POPC   D2A51472   7.196  23.485   6.588
 3979POPC   C3A51473   7.100  23.778   6.885
 3979POPC   C4A51474   7.022  23.667   7.295
 3979POPC   C1B51475   7.806  23.843   6.254
 3979POPC   C2B51476   7.679  23.659   6.647
 3979POPC   C3B51477   7.585  23.772   7.062
 3979POPC   C4B51478   7.853  23.851   7.391
 3980POPC   NC351479  28.763  12.487   5.031
 3980POPC   PO451480  29.239  12.154   5.331
 3980POPC   GL151481  29.226  12.046   5.753
 3980POPC   GL251482  28.872  12.064   5.782
 3980POPC   C1A51483  29.201  12.044   6.205
 3980POPC   D2A51484  29.364  12.231   6.584
 3980POPC   C3A51485  29.178  12.106   6.986
 3980POPC   C4A51486  29.151  12.312   7.360
 3980POPC   C1B51487  28.691  11.859   6.154
 3980POPC   C2B51488  28.609  11.710   6.560
 3980POPC   C3B51489  28.717  11.815   6.976
 3980POPC   C4B51490  28.886  11.876   7.370
 3981POPC   NC351491  20.572  42.007   5.357
 3981POPC   PO451492  20.891  42.653   5.299
 3981POPC   GL151493  20.765  42.394   5.679
 3981POPC   GL251494  20.389  42.289   5.747
 3981POPC   C1A51495  20.825  42.243   6.115
 3981POPC   D2A51496  20.570  42.225   6.499
 3981POPC   C3A51497  20.700  42.245   6.967
 3981POPC   C4A51498  20.894  42.366   7.393
 3981POPC   C1B51499  20.434  41.919   6.032
 3981POPC   C2B51500  20.240  41.857   6.442
 3981POPC   C3B51501  20.287  41.969   6.854
 3981POPC   C4B51502  20.480  41.717   7.149
 3982POPC   NC351503  20.007  34.446   5.533
 3982POPC   PO451504  19.427  34.889   5.479
 3982POPC   GL151505  19.764  34.789   5.806
 3982POPC   GL251506  19.981  35.069   5.988
 3982POPC   C1A51507  19.740  34.462   6.139
 3982POPC   D2A51508  19.599  34.505   6.548
 3982POPC   C3A51509  19.784  34.270   6.895
 3982POPC   C4A51510  19.761  34.461   7.299
 3982POPC   C1B51511  20.198  34.708   6.188
 3982POPC   C2B51512  20.108  34.452   6.522
 3982POPC   C3B51513  20.008  34.720   6.869
 3982POPC   C4B51514  20.284  34.743   7.200
 3983POPC   NC351515  38.819   1.762   5.203
 3983POPC   PO451516  39.289   2.220   5.409
 3983POPC   GL151517  39.220   2.030   5.787
 3983POPC   GL251518  38.908   2.219   5.831
 3983POPC   C1A51519  39.372   1.838   6.181
 3983POPC   D2A51520  39.308   1.904   6.627
 3983POPC   C3A51521  39.621   1.799   6.925
 3983POPC   C4A51522  39.428   1.886   7.315
 3983POPC   C1B51523  39.056   2.242   6.259
 3983POPC   C2B51524  38.905   2.228   6.692
 3983POPC   C3B51525  38.993   2.056   7.091
 3983POPC   C4B51526  39.146   2.339   7.386
 3984POPC   NC351527  24.649  38.242   4.795
 3984POPC   PO451528  24.450  38.507   5.372
 3984POPC   GL151529  24.342  38.442   5.798
 3984POPC   GL251530  24.461  38.109   5.767
 3984POPC   C1A51531  24.517  38.424   6.248
 3984POPC   D2A51532  24.766  38.305   6.644
 3984POPC   C3A51533  24.704  38.527   7.070
 3984POPC   C4A51534  24.437  38.542   7.490
 3984POPC   C1B51535  24.155  38.090   6.127
 3984POPC   C2B51536  24.295  38.067   6.569
 3984POPC   C3B51537  24.441  38.107   6.987
 3984POPC   C4B51538  24.174  38.087   7.331
 3985POPC   NC351539  21.926  12.795   5.735
 3985POPC   PO451540  22.396  13.090   5.257
 3985POPC   GL151541  22.447  12.997   5.731
 3985POPC   GL251542  22.419  12.658   5.827
 3985POPC   C1A51543  22.297  13.054   6.194
 3985POPC   D2A51544  21.986  12.909   6.505
 3985POPC   C3A51545  22.145  12.882   6.924
 3985POPC   C4A51546  22.036  12.798   7.344
 3985POPC   C1B51547  22.279  12.535   6.260
 3985POPC   C2B51548  22.282  12.420   6.709
 3985POPC   C3B51549  22.362  12.465   7.150
 3985POPC   C4B51550  22.375  12.499   7.601
 3986POPC   NC351551  25.644  35.753   5.642
 3986POPC   PO451552  25.651  35.177   5.352
 3986POPC   GL151553  25.474  35.281   5.791
 3986POPC   GL251554  25.231  35.589   5.921
 3986POPC   C1A51555  25.489  35.293   6.256
 3986POPC   D2A51556  25.432  35.309   6.696
 3986POPC   C3A51557  25.101  35.111   6.895
 3986POPC   C4A51558  25.001  35.204   7.298
 3986POPC   C1B51559  24.964  35.730   6.318
 3986POPC   C2B51560  24.970  35.592   6.783
 3986POPC   C3B51561  25.250  35.611   7.149
 3986POPC   C4B51562  25.208  35.505   7.644
 3987POPC   NC351563  32.117   3.981   5.360
 3987POPC   PO451564  32.414   4.492   5.098
 3987POPC   GL151565  32.324   4.345   5.624
 3987POPC   GL251566  32.482   4.070   5.762
 3987POPC   C1A51567  32.433   4.405   6.149
 3987POPC   D2A51568  32.582   4.332   6.582
 3987POPC   C3A51569  32.451   4.524   7.016
 3987POPC   C4A51570  32.499   4.212   7.331
 3987POPC   C1B51571  32.039   4.151   5.984
 3987POPC   C2B51572  31.967   4.119   6.413
 3987POPC   C3B51573  32.101   4.260   6.770
 3987POPC   C4B51574  32.028   4.208   7.177
 3988POPC   NC351575   0.754  23.507   5.332
 3988POPC   PO451576   0.140  23.795   5.208
 3988POPC   GL151577   0.400  23.811   5.584
 3988POPC   GL251578   0.387  23.469   5.711
 3988POPC   C1A51579   0.404  23.896   6.036
 3988POPC   D2A51580   0.370  23.666   6.430
 3988POPC   C3A51581   0.296  23.842   6.826
 3988POPC   C4A51582   0.134  23.750   7.237
 3988POPC   C1B51583   0.617  23.333   6.087
 3988POPC   C2B51584   0.753  23.332   6.507
 3988POPC   C3B51585   0.599  23.415   6.886
 3988POPC   C4B51586   0.652  23.711   7.190
 3989POPC   NC351587   8.894  33.455   5.472
 3989POPC   PO451588   8.770  34.040   5.657
 3989POPC   GL151589   8.843  33.766   5.933
 3989POPC   GL251590   9.194  33.769   5.980
 3989POPC   C1A51591   8.822  33.798   6.356
 3989POPC   D2A51592   8.997  33.609   6.700
 3989POPC   C3A51593   8.755  33.733   7.009
 3989POPC   C4A51594   8.887  33.457   7.253
 3989POPC   C1B51595   9.401  33.578   6.358
 3989POPC   C2B51596   9.534  33.399   6.783
 3989POPC   C3B51597   9.399  33.495   7.214
 3989POPC   C4B51598   9.187  33.836   7.375
 3990POPC   NC351599  26.986   7.117   5.415
 3990POPC   PO451600  26.561   7.589   5.424
 3990POPC   GL151601  26.720   7.394   5.795
 3990POPC   GL251602  26.519   7.096   5.853
 3990POPC   C1A51603  26.951   7.552   6.184
 3990POPC   D2A51604  26.689   7.625   6.530
 3990POPC   C3A51605  26.612   7.485   6.921
 3990POPC   C4A51606  26.815   7.577   7.302
 3990POPC   C1B51607  26.813   7.076   6.202
 3990POPC   C2B51608  26.984   7.178   6.575
 3990POPC   C3B51609  26.921   7.094   6.981
 3990POPC   C4B51610  26.734   7.094   7.373
 3991POPC   NC351611  17.965   0.884   5.580
 3991POPC   PO451612  18.566   1.214   5.428
 3991POPC   GL151613  18.342   1.248   5.797
 3991POPC   GL251614  18.371   0.905   5.878
 3991POPC   C1A51615  18.317   1.554   6.143
 3991POPC   D2A51616  18.460   1.625   6.564
 3991POPC   C3A51617  18.267   1.486   6.914
 3991POPC   C4A51618  18.369   1.384   7.348
 3991POPC   C1B51619  18.112   1.054   6.248
 3991POPC   C2B51620  17.934   0.964   6.673
 3991POPC   C3B51621  18.126   1.030   7.067
 3991POPC   C4B51622  17.939   1.144   7.442
 3992POPC   NC351623   3.189  43.718   5.365
 3992POPC   PO451624   3.843  43.783   5.410
 3992POPC   GL151625   3.692  43.660   5.824
 3992POPC   GL251626   3.664  44.015   5.884
 3992POPC   C1A51627   3.453  43.754   6.257
 3992POPC   D2A51628   3.170  43.760   6.628
 3992POPC   C3A51629   3.400  43.698   6.994
 3992POPC   C4A51630   3.507  43.706   7.432
 3992POPC   C1B51631   3.864  44.133   6.299
 3992POPC   C2B51632   3.758  44.147   6.748
 3992POPC   C3B51633   3.718  44.090   7.186
 3992POPC   C4B51634   3.907  43.974   7.581
 3993POPC   NC351635  33.088  41.011   5.124
 3993POPC   PO451636  33.010  40.548   5.643
 3993POPC   GL151637  33.059  40.876   5.922
 3993POPC   GL251638  32.724  40.933   6.004
 3993POPC   C1A51639  33.169  40.863   6.355
 3993POPC   D2A51640  33.452  40.637   6.636
 3993POPC   C3A51641  33.222  40.665   7.022
 3993POPC   C4A51642  33.046  40.710   7.447
 3993POPC   C1B51643  32.687  40.581   6.269
 3993POPC   C2B51644  32.799  40.566   6.717
 3993POPC   C3B51645  32.727  40.852   7.060
 3993POPC   C4B51646  32.805  41.199   7.329
 3994POPC   NC351647  23.363  29.205   5.289
 3994POPC   PO451648  23.824  28.834   5.328
 3994POPC   GL151649  23.793  29.071   5.748
 3994POPC   GL251650  24.008  28.936   6.025
 3994POPC   C1A51651  23.729  29.342   6.172
 3994POPC   D2A51652  23.850  29.236   6.624
 3994POPC   C3A51653  23.641  29.350   7.027
 3994POPC   C4A51654  23.637  29.302   7.467
 3994POPC   C1B51655  24.239  28.902   6.415
 3994POPC   C2B51656  24.211  28.920   6.850
 3994POPC   C3B51657  23.914  28.939   7.187
 3994POPC   C4B51658  24.015  28.808   7.596
 3995POPC   NC351659  41.984  19.350   5.456
 3995POPC   PO451660  42.496  19.001   5.282
 3995POPC   GL151661  42.317  19.083   5.718
 3995POPC   GL251662  42.445  19.460   5.644
 3995POPC   C1A51663  42.126  19.088   6.161
 3995POPC   D2A51664  41.974  19.155   6.610
 3995POPC   C3A51665  42.251  19.121   6.977
 3995POPC   C4A51666  42.440  18.815   7.229
 3995POPC   C1B51667  42.513  19.420   6.083
 3995POPC   C2B51668  42.520  19.306   6.529
 3995POPC   C3B51669  42.684  19.417   6.952
 3995POPC   C4B51670  42.520  19.381   7.367
 3996POPC   NC351671  15.939   7.940   5.337
 3996POPC   PO451672  15.538   7.423   5.341
 3996POPC   GL151673  15.659   7.417   5.817
 3996POPC   GL251674  15.479   7.122   5.982
 3996POPC   C1A51675  15.802   7.483   6.278
 3996POPC   D2A51676  16.099   7.668   6.622
 3996POPC   C3A51677  16.104   7.518   7.067
 3996POPC   C4A51678  16.123   7.488   7.526
 3996POPC   C1B51679  15.409   7.183   6.401
 3996POPC   C2B51680  15.658   7.360   6.769
 3996POPC   C3B51681  15.801   7.115   7.114
 3996POPC   C4B51682  16.061   6.747   7.094
 3997POPC   NC351683  40.306  20.689   5.165
 3997POPC   PO451684  40.045  21.211   5.360
 3997POPC   GL151685  40.080  20.834   5.690
 3997POPC   GL251686  40.182  20.496   5.731
 3997POPC   C1A51687  40.188  20.838   6.146
 3997POPC   D2A51688  40.291  20.689   6.553
 3997POPC   C3A51689  40.060  20.849   6.876
 3997POPC   C4A51690  40.131  20.702   7.245
 3997POPC   C1B51691  39.869  20.443   6.089
 3997POPC   C2B51692  39.832  20.492   6.537
 3997POPC   C3B51693  40.104  20.340   6.876
 3997POPC   C4B51694  39.858  20.275   7.215
 3998POPC   NC351695  36.508   0.835   5.321
 3998POPC   PO451696  36.047   0.292   5.362
 3998POPC   GL151697  36.021   0.459   5.761
 3998POPC   GL251698  36.260   0.732   5.741
 3998POPC   C1A51699  35.981   0.324   6.204
 3998POPC   D2A51700  36.190   0.347   6.605
 3998POPC   C3A51701  35.956   0.451   6.991
 3998POPC   C4A51702  35.890   0.241   7.387
 3998POPC   C1B51703  36.438   0.577   6.126
 3998POPC   C2B51704  36.621   0.646   6.530
 3998POPC   C3B51705  36.433   0.655   6.939
 3998POPC   C4B51706  36.343   0.485   7.373
 3999POPC   NC351707  39.984   7.303   5.501
 3999POPC   PO451708  40.351   7.908   5.465
 3999POPC   GL151709  40.382   8.146   5.904
 3999POPC   GL251710  40.113   8.406   5.900
 3999POPC   C1A51711  40.344   8.377   6.351
 3999POPC   D2A51712  40.407   8.540   6.789
 3999POPC   C3A51713  40.112   8.286   7.061
 3999POPC   C4A51714  40.109   7.836   7.120
 3999POPC   C1B51715  39.822   8.335   6.287
 3999POPC   C2B51716  39.626   8.264   6.723
 3999POPC   C3B51717  39.585   8.106   7.152
 3999POPC   C4B51718  39.765   7.897   7.514
 4000POPC   NC351719  35.684  39.390   5.568
 4000POPC   PO451720  35.145  39.052   5.370
 4000POPC   GL151721  35.285  39.123   5.807
 4000POPC   GL251722  35.616  39.143   5.999
 4000POPC   C1A51723  35.160  39.301   6.206
 4000POPC   D2A51724  35.345  39.164   6.577
 4000POPC   C3A51725  35.313  39.323   6.993
 4000POPC   C4A51726  35.136  39.335   7.396
 4000POPC   C1B51727  35.613  39.532   6.271
 4000POPC   C2B51728  35.734  39.454   6.704
 4000POPC   C3B51729  35.750  39.056   7.006
 4000POPC   C4B51730  35.467  38.947   7.366
 4001POPC   NC351731  22.357  44.272   5.486
 4001POPC   PO451732  22.092  43.609   5.501
 4001POPC   GL151733  22.121  43.684   5.897
 4001POPC   GL251734  22.067  44.041   5.898
 4001POPC   C1A51735  22.039  43.762   6.317
 4001POPC   D2A51736  22.210  43.597   6.640
 4001POPC   C3A51737  22.126  43.902   6.936
 4001POPC   C4A51738  21.955  43.767   7.305
 4001POPC   C1B51739  22.451  44.042   6.101
 4001POPC   C2B51740  22.497  44.040   6.534
 4001POPC   C3B51741  22.565  44.161   6.949
 4001POPC   C4B51742  22.425  43.970   7.367
 4002POPC   NC351743  44.290  24.814   5.430
 4002POPC   PO451744  44.780  24.318   5.445
 4002POPC   GL151745  44.518  24.502   5.764
 4002POPC   GL251746  44.756  24.774   5.731
 4002POPC   C1A51747  44.354  24.393   6.176
 4002POPC   D2A51748  44.511  24.224   6.581
 4002POPC   C3A51749  44.571  24.494   6.980
 4002POPC   C4A51750  44.553  24.655   7.425
 4002POPC   C1B51751  44.842  24.613   6.144
 4002POPC   C2B51752  44.646  24.725   6.502
 4002POPC   C3B51753  44.813  24.964   6.813
 4002POPC   C4B51754  44.965  24.813   7.175
 4003POPC   NC351755  13.519  19.477   5.400
 4003POPC   PO451756  13.657  18.833   5.442
 4003POPC   GL151757  13.734  19.166   5.747
 4003POPC   GL251758  13.389  19.321   5.869
 4003POPC   C1A51759  13.816  19.316   6.166
 4003POPC   D2A51760  13.509  19.369   6.510
 4003POPC   C3A51761  13.655  19.135   6.857
 4003POPC   C4A51762  13.766  19.137   7.270
 4003POPC   C1B51763  13.407  18.961   6.164
 4003POPC   C2B51764  13.390  18.771   6.590
 4003POPC   C3B51765  13.415  18.705   7.052
 4003POPC   C4B51766  13.443  18.832   7.490
 4004POPC   NC351767   2.396  23.723   5.502
 4004POPC   PO451768   3.021  23.406   5.606
 4004POPC   GL151769   2.749  23.589   5.854
 4004POPC   GL251770   2.427  23.380   5.890
 4004POPC   C1A51771   2.886  23.846   6.180
 4004POPC   D2A51772   2.706  24.066   6.523
 4004POPC   C3A51773   2.842  23.926   6.888
 4004POPC   C4A51774   2.761  24.103   7.259
 4004POPC   C1B51775   2.615  23.402   6.313
 4004POPC   C2B51776   3.011  23.473   6.538
 4004POPC   C3B51777   3.030  23.465   6.977
 4004POPC   C4B51778   2.775  23.595   7.304
 4005POPC   NC351779   5.615  38.577   5.409
 4005POPC   PO451780   6.052  38.135   5.518
 4005POPC   GL151781   5.836  38.277   5.876
 4005POPC   GL251782   5.495  38.483   5.903
 4005POPC   C1A51783   6.057  38.281   6.256
 4005POPC   D2A51784   6.401  38.375   6.539
 4005POPC   C3A51785   6.205  38.355   6.952
 4005POPC   C4A51786   5.894  38.659   7.120
 4005POPC   C1B51787   5.476  38.158   6.208
 4005POPC   C2B51788   5.677  38.143   6.590
 4005POPC   C3B51789   5.566  38.261   7.013
 4005POPC   C4B51790   5.588  38.385   7.438
 4006POPC   NC351791  26.790   4.623   5.170
 4006POPC   PO451792  26.521   4.313   5.729
 4006POPC   GL151793  26.819   4.291   6.045
 4006POPC   GL251794  26.584   4.506   6.216
 4006POPC   C1A51795  26.892   4.222   6.490
 4006POPC   D2A51796  26.818   4.571   6.779
 4006POPC   C3A51797  26.856   4.405   7.195
 4006POPC   C4A51798  26.890   4.228   7.608
 4006POPC   C1B51799  26.433   4.007   6.255
 4006POPC   C2B51800  26.612   3.787   6.568
 4006POPC   C3B51801  26.697   3.967   6.942
 4006POPC   C4B51802  26.469   4.037   7.292
 4007POPC   NC351803  26.029  33.287   4.972
 4007POPC   PO451804  25.844  33.851   5.207
 4007POPC   GL151805  25.965  33.952   5.676
 4007POPC   GL251806  26.341  33.957   5.726
 4007POPC   C1A51807  26.084  33.679   6.077
 4007POPC   D2A51808  26.274  33.552   6.473
 4007POPC   C3A51809  26.073  33.607   6.854
 4007POPC   C4A51810  26.192  33.637   7.277
 4007POPC   C1B51811  26.189  34.168   6.138
 4007POPC   C2B51812  26.100  34.038   6.575
 4007POPC   C3B51813  26.210  34.099   7.024
 4007POPC   C4B51814  26.076  34.415   7.330
 4008POPC   NC351815  29.505  17.759   5.431
 4008POPC   PO451816  28.981  17.376   5.280
 4008POPC   GL151817  29.020  17.415   5.746
 4008POPC   GL251818  29.170  17.683   5.826
 4008POPC   C1A51819  28.852  17.477   6.192
 4008POPC   D2A51820  28.797  17.652   6.610
 4008POPC   C3A51821  29.169  17.670   6.893
 4008POPC   C4A51822  29.183  17.407   7.238
 4008POPC   C1B51823  29.453  17.916   6.111
 4008POPC   C2B51824  29.569  17.840   6.547
 4008POPC   C3B51825  29.632  17.963   6.984
 4008POPC   C4B51826  29.616  17.834   7.429
 4009POPC   NC351827   5.910  17.251   5.308
 4009POPC   PO451828   6.037  17.908   5.324
 4009POPC   GL151829   5.894  17.676   5.683
 4009POPC   GL251830   6.177  17.437   5.724
 4009POPC   C1A51831   5.695  17.844   6.111
 4009POPC   D2A51832   5.474  17.742   6.530
 4009POPC   C3A51833   5.705  17.831   6.952
 4009POPC   C4A51834   6.028  17.584   7.108
 4009POPC   C1B51835   5.889  17.366   6.104
 4009POPC   C2B51836   5.917  17.463   6.556
 4009POPC   C3B51837   5.954  17.149   6.890
 4009POPC   C4B51838   5.732  17.168   7.280
 4010POPC   NC351839   3.825   9.569   5.362
 4010POPC   PO451840   3.182   9.798   5.376
 4010POPC   GL151841   3.345   9.789   5.779
 4010POPC   GL251842   3.504   9.515   5.861
 4010POPC   C1A51843   3.219   9.750   6.224
 4010POPC   D2A51844   3.324   9.555   6.626
 4010POPC   C3A51845   3.617   9.749   6.875
 4010POPC   C4A51846   3.566  10.036   7.188
 4010POPC   C1B51847   3.693   9.484   6.267
 4010POPC   C2B51848   3.772   9.266   6.658
 4010POPC   C3B51849   3.926   9.375   7.051
 4010POPC   C4B51850   3.885   9.677   7.348
 4011POPC   NC351851  36.954  25.598   5.392
 4011POPC   PO451852  36.817  24.928   5.424
 4011POPC   GL151853  36.958  25.224   5.728
 4011POPC   GL251854  36.620  25.393   5.748
 4011POPC   C1A51855  37.066  25.246   6.156
 4011POPC   D2A51856  36.782  25.003   6.433
 4011POPC   C3A51857  36.775  25.129   6.849
 4011POPC   C4A51858  36.697  24.936   7.219
 4011POPC   C1B51859  36.594  25.432   6.192
 4011POPC   C2B51860  36.869  25.571   6.542
 4011POPC   C3B51861  36.872  25.633   6.988
 4011POPC   C4B51862  36.519  25.464   7.194
 4012POPC   NC351863  31.768  23.848   5.492
 4012POPC   PO451864  31.724  24.571   5.507
 4012POPC   GL151865  31.473  24.509   5.881
 4012POPC   GL251866  31.148  24.628   5.855
 4012POPC   C1A51867  31.499  24.362   6.303
 4012POPC   D2A51868  31.693  24.122   6.636
 4012POPC   C3A51869  31.544  24.335   7.016
 4012POPC   C4A51870  31.736  24.447   7.386
 4012POPC   C1B51871  31.086  24.691   6.267
 4012POPC   C2B51872  31.261  24.680   6.669
 4012POPC   C3B51873  31.074  24.875   7.006
 4012POPC   C4B51874  31.093  24.682   7.381
 4013POPC   NC351875   3.878  43.308   5.400
 4013POPC   PO451876   4.391  42.722   5.374
 4013POPC   GL151877   4.262  42.959   5.796
 4013POPC   GL251878   4.065  43.268   5.871
 4013POPC   C1A51879   4.537  43.221   6.109
 4013POPC   D2A51880   4.424  43.427   6.491
 4013POPC   C3A51881   4.548  43.285   6.914
 4013POPC   C4A51882   4.630  42.940   7.190
 4013POPC   C1B51883   4.089  43.085   6.295
 4013POPC   C2B51884   4.043  43.183   6.728
 4013POPC   C3B51885   4.102  43.129   7.159
 4013POPC   C4B51886   4.031  43.036   7.571
 4014POPC   NC351887  29.898  27.075   5.302
 4014POPC   PO451888  29.451  26.654   5.674
 4014POPC   GL151889  29.792  26.903   5.781
 4014POPC   GL251890  30.091  26.703   5.771
 4014POPC   C1A51891  30.045  27.121   6.090
 4014POPC   D2A51892  30.207  27.101   6.533
 4014POPC   C3A51893  29.975  27.020   6.911
 4014POPC   C4A51894  30.104  27.190   7.305
 4014POPC   C1B51895  30.259  26.670   6.223
 4014POPC   C2B51896  30.415  26.636   6.655
 4014POPC   C3B51897  30.173  26.556   7.031
 4014POPC   C4B51898  29.793  26.466   7.202
 4015POPC   NC351899  11.062  37.341   5.396
 4015POPC   PO451900  11.577  37.780   5.281
 4015POPC   GL151901  11.651  37.672   5.732
 4015POPC   GL251902  11.332  37.515   5.806
 4015POPC   C1A51903  11.622  37.597   6.203
 4015POPC   D2A51904  11.297  37.611   6.528
 4015POPC   C3A51905  11.527  37.623   6.924
 4015POPC   C4A51906  11.517  37.779   7.352
 4015POPC   C1B51907  10.954  37.501   6.099
 4015POPC   C2B51908  10.850  37.303   6.507
 4015POPC   C3B51909  11.052  37.358   6.914
 4015POPC   C4B51910  11.068  37.777   7.108
 4016POPC   NC351911  21.785  16.068   5.453
 4016POPC   PO451912  22.410  15.911   5.434
 4016POPC   GL151913  22.170  15.886   5.787
 4016POPC   GL251914  21.909  15.625   5.741
 4016POPC   C1A51915  22.048  16.064   6.189
 4016POPC   D2A51916  22.117  16.281   6.569
 4016POPC   C3A51917  22.129  16.069   6.978
 4016POPC   C4A51918  22.269  16.204   7.368
 4016POPC   C1B51919  22.118  15.552   6.163
 4016POPC   C2B51920  21.984  15.711   6.586
 4016POPC   C3B51921  22.051  15.558   7.007
 4016POPC   C4B51922  22.097  15.747   7.447
 4017POPC   NC351923  35.448  13.240   5.587
 4017POPC   PO451924  35.149  12.764   5.261
 4017POPC   GL151925  35.134  12.848   5.750
 4017POPC   GL251926  35.464  12.773   5.877
 4017POPC   C1A51927  34.985  12.802   6.196
 4017POPC   D2A51928  35.205  12.737   6.587
 4017POPC   C3A51929  34.976  12.795   6.986
 4017POPC   C4A51930  34.897  12.887   7.410
 4017POPC   C1B51931  35.658  12.769   6.285
 4017POPC   C2B51932  35.681  13.066   6.619
 4017POPC   C3B51933  35.450  13.015   6.978
 4017POPC   C4B51934  35.459  12.960   7.383
 4018POPC   NC351935  20.388  10.835   5.666
 4018POPC   PO451936  20.768  10.321   5.519
 4018POPC   GL151937  20.779  10.507   5.866
 4018POPC   GL251938  20.995  10.791   5.812
 4018POPC   C1A51939  20.583  10.346   6.246
 4018POPC   D2A51940  20.419  10.228   6.652
 4018POPC   C3A51941  20.398  10.469   7.038
 4018POPC   C4A51942  20.370  10.237   7.437
 4018POPC   C1B51943  20.747  10.855   6.221
 4018POPC   C2B51944  20.605  10.725   6.607
 4018POPC   C3B51945  20.856  10.669   6.957
 4018POPC   C4B51946  20.721  10.632   7.393
 4019POPC   NC351947   4.734  21.682   5.301
 4019POPC   PO451948   5.174  21.234   5.564
 4019POPC   GL151949   4.927  21.364   5.871
 4019POPC   GL251950   4.786  21.725   5.802
 4019POPC   C1A51951   4.968  21.108   6.231
 4019POPC   D2A51952   5.212  21.026   6.584
 4019POPC   C3A51953   5.061  21.256   6.940
 4019POPC   C4A51954   5.158  21.163   7.357
 4019POPC   C1B51955   4.798  21.923   6.185
 4019POPC   C2B51956   4.879  21.729   6.587
 4019POPC   C3B51957   4.728  21.697   6.996
 4019POPC   C4B51958   5.029  21.648   7.303
 4020POPC   NC351959  25.833   3.251   5.418
 4020POPC   PO451960  26.119   3.830   5.388
 4020POPC   GL151961  25.843   3.676   5.712
 4020POPC   GL251962  25.600   3.932   5.759
 4020POPC   C1A51963  25.931   3.451   6.106
 4020POPC   D2A51964  26.116   3.625   6.484
 4020POPC   C3A51965  25.920   3.530   6.869
 4020POPC   C4A51966  26.144   3.362   7.208
 4020POPC   C1B51967  25.887   3.982   6.129
 4020POPC   C2B51968  25.878   4.091   6.570
 4020POPC   C3B51969  26.077   4.033   6.949
 4020POPC   C4B51970  25.974   3.864   7.311
 4021POPC   NC351971   7.887  43.142   5.392
 4021POPC   PO451972   8.537  43.174   5.548
 4021POPC   GL151973   8.466  43.351   5.909
 4021POPC   GL251974   8.113  43.369   5.858
 4021POPC   C1A51975   8.403  43.352   6.348
 4021POPC   D2A51976   8.410  43.047   6.683
 4021POPC   C3A51977   8.620  43.070   7.077
 4021POPC   C4A51978   8.270  42.999   7.405
 4021POPC   C1B51979   7.865  43.480   6.228
 4021POPC   C2B51980   7.979  43.354   6.648
 4021POPC   C3B51981   7.953  42.988   6.945
 4021POPC   C4B51982   7.700  42.994   7.321
 4022POPC   NC351983  15.973  42.116   5.321
 4022POPC   PO451984  15.841  42.840   5.444
 4022POPC   GL151985  16.065  42.515   5.701
 4022POPC   GL251986  15.785  42.342   5.735
 4022POPC   C1A51987  16.102  42.242   6.140
 4022POPC   D2A51988  15.915  42.128   6.588
 4022POPC   C3A51989  16.118  42.265   6.997
 4022POPC   C4A51990  16.220  42.318   7.414
 4022POPC   C1B51991  15.620  42.352   6.141
 4022POPC   C2B51992  15.461  42.372   6.553
 4022POPC   C3B51993  15.632  42.432   6.980
 4022POPC   C4B51994  15.708  42.323   7.428
 4023POPC   NC351995   9.110  32.500   5.676
 4023POPC   PO451996   8.869  33.034   5.283
 4023POPC   GL151997   9.046  33.011   5.705
 4023POPC   GL251998   8.729  33.073   5.826
 4023POPC   C1A51999   9.203  33.083   6.164
 4023POPC   D2A52000   9.266  32.901   6.602
 4023POPC   C3A52001   9.165  33.091   7.006
 4023POPC   C4A52002   9.008  33.031   7.466
 4023POPC   C1B52003   8.735  32.903   6.253
 4023POPC   C2B52004   8.801  33.108   6.638
 4023POPC   C3B52005   8.716  32.877   7.010
 4023POPC   C4B52006   8.601  32.742   7.373
 4024POPC   NC352007  25.152  15.467   5.415
 4024POPC   PO452008  25.552  14.951   5.525
 4024POPC   GL152009  25.281  15.167   5.794
 4024POPC   GL252010  25.063  14.944   5.926
 4024POPC   C1A52011  25.197  15.352   6.179
 4024POPC   D2A52012  25.302  15.029   6.484
 4024POPC   C3A52013  25.283  15.103   6.908
 4024POPC   C4A52014  25.127  15.273   7.288
 4024POPC   C1B52015  24.843  14.997   6.286
 4024POPC   C2B52016  24.834  15.198   6.680
 4024POPC   C3B52017  24.742  15.012   7.070
 4024POPC   C4B52018  24.676  15.156   7.475
 4025POPC   NC352019  23.092  35.234   5.230
 4025POPC   PO452020  22.876  35.456   5.850
 4025POPC   GL152021  22.836  35.078   5.945
 4025POPC   GL252022  22.457  35.053   5.852
 4025POPC   C1A52023  22.998  34.988   6.346
 4025POPC   D2A52024  22.901  35.431   6.453
 4025POPC   C3A52025  22.924  35.543   6.873
 4025POPC   C4A52026  23.116  35.375   7.217
 4025POPC   C1B52027  22.489  35.080   6.307
 4025POPC   C2B52028  22.625  34.908   6.698
 4025POPC   C3B52029  22.669  35.072   7.128
 4025POPC   C4B52030  22.551  35.223   7.543
 4026POPC   NC352031  13.496   7.683   5.515
 4026POPC   PO452032  14.011   7.142   5.591
 4026POPC   GL152033  13.673   7.320   5.833
 4026POPC   GL252034  13.880   7.620   5.870
 4026POPC   C1A52035  13.446   7.536   6.191
 4026POPC   D2A52036  13.271   7.539   6.618
 4026POPC   C3A52037  13.581   7.349   6.880
 4026POPC   C4A52038  13.647   7.348   7.306
 4026POPC   C1B52039  13.865   7.838   6.246
 4026POPC   C2B52040  13.698   7.834   6.646
 4026POPC   C3B52041  13.867   7.828   7.056
 4026POPC   C4B52042  13.857   7.761   7.487
 4027POPC   NC352043   1.641  29.326   5.451
 4027POPC   PO452044   2.213  29.628   5.207
 4027POPC   GL152045   2.079  29.202   5.631
 4027POPC   GL252046   1.805  29.289   5.924
 4027POPC   C1A52047   2.109  28.933   6.081
 4027POPC   D2A52048   2.021  28.861   6.540
 4027POPC   C3A52049   1.952  29.242   6.778
 4027POPC   C4A52050   1.846  29.333   7.190
 4027POPC   C1B52051   1.605  28.933   6.193
 4027POPC   C2B52052   1.533  28.721   6.611
 4027POPC   C3B52053   1.684  28.854   7.015
 4027POPC   C4B52054   2.089  28.878   7.143
 4028POPC   NC352055  30.552  25.781   5.392
 4028POPC   PO452056  31.084  26.034   5.117
 4028POPC   GL152057  30.963  25.934   5.649
 4028POPC   GL252058  30.573  25.889   5.874
 4028POPC   C1A52059  30.957  26.071   6.125
 4028POPC   D2A52060  31.098  25.898   6.544
 4028POPC   C3A52061  30.837  25.890   6.910
 4028POPC   C4A52062  30.935  25.998   7.319
 4028POPC   C1B52063  30.394  25.500   6.130
 4028POPC   C2B52064  30.266  25.332   6.561
 4028POPC   C3B52065  30.298  25.612   6.935
 4028POPC   C4B52066  30.485  25.736   7.324
 4029POPC   NC352067  40.200  10.893   5.513
 4029POPC   PO452068  40.066  10.239   5.523
 4029POPC   GL152069  40.052  10.409   5.881
 4029POPC   GL252070  39.851  10.723   5.838
 4029POPC   C1A52071  40.344  10.218   6.170
 4029POPC   D2A52072  40.214  10.370   6.534
 4029POPC   C3A52073  40.290  10.319   6.937
 4029POPC   C4A52074  39.966  10.457   7.233
 4029POPC   C1B52075  39.847  10.649   6.287
 4029POPC   C2B52076  39.800  10.591   6.729
 4029POPC   C3B52077  39.517  10.613   7.050
 4029POPC   C4B52078  39.645  10.903   7.340
 4030POPC   NC352079   8.799   5.840   5.459
 4030POPC   PO452080   9.392   5.454   5.524
 4030POPC   GL152081   9.166   5.812   5.791
 4030POPC   GL252082   8.883   5.606   5.906
 4030POPC   C1A52083   8.934   6.006   6.192
 4030POPC   D2A52084   8.896   5.733   6.574
 4030POPC   C3A52085   8.722   5.756   6.990
 4030POPC   C4A52086   8.849   6.085   7.237
 4030POPC   C1B52087   9.240   5.541   6.210
 4030POPC   C2B52088   9.405   5.621   6.614
 4030POPC   C3B52089   9.200   5.492   7.001
 4030POPC   C4B52090   9.116   5.692   7.389
 4031POPC   NC352091  33.611  11.224   5.570
 4031POPC   PO452092  34.076  11.739   5.418
 4031POPC   GL152093  34.099  11.368   5.778
 4031POPC   GL252094  33.780  11.307   6.018
 4031POPC   C1A52095  34.167  11.063   6.165
 4031POPC   D2A52096  33.961  11.264   6.538
 4031POPC   C3A52097  33.789  11.066   6.920
 4031POPC   C4A52098  33.885  11.167   7.339
 4031POPC   C1B52099  33.501  11.345   6.338
 4031POPC   C2B52100  33.569  11.579   6.676
 4031POPC   C3B52101  33.479  11.448   7.055
 4031POPC   C4B52102  33.591  11.679   7.348
 4032POPC   NC352103   7.843  22.081   5.412
 4032POPC   PO452104   8.307  22.583   5.314
 4032POPC   GL152105   8.168  22.326   5.725
 4032POPC   GL252106   8.149  21.925   5.796
 4032POPC   C1A52107   7.977  22.263   6.153
 4032POPC   D2A52108   8.229  22.232   6.553
 4032POPC   C3A52109   8.003  22.070   6.870
 4032POPC   C4A52110   7.881  22.279   7.251
 4032POPC   C1B52111   8.229  21.825   6.243
 4032POPC   C2B52112   8.320  21.661   6.657
 4032POPC   C3B52113   8.492  21.847   7.003
 4032POPC   C4B52114   8.402  22.219   7.219
 4033POPC   NC352115  16.622  41.376   5.348
 4033POPC   PO452116  16.712  40.659   5.123
 4033POPC   GL152117  16.775  40.701   5.668
 4033POPC   GL252118  16.488  40.667   5.930
 4033POPC   C1A52119  16.912  40.687   6.179
 4033POPC   D2A52120  16.663  40.722   6.606
 4033POPC   C3A52121  16.859  40.940   6.966
 4033POPC   C4A52122  16.878  41.271   7.264
 4033POPC   C1B52123  16.308  40.446   6.311
 4033POPC   C2B52124  16.273  40.383   6.762
 4033POPC   C3B52125  16.511  40.588   7.111
 4033POPC   C4B52126  16.915  40.596   7.356
 4034POPC   NC352127  17.685  24.003   5.438
 4034POPC   PO452128  17.109  23.663   5.494
 4034POPC   GL152129  17.358  23.822   5.812
 4034POPC   GL252130  17.585  23.550   5.800
 4034POPC   C1A52131  17.606  23.816   6.215
 4034POPC   D2A52132  17.497  23.571   6.556
 4034POPC   C3A52133  17.298  23.820   6.865
 4034POPC   C4A52134  17.457  23.881   7.264
 4034POPC   C1B52135  17.776  23.312   6.150
 4034POPC   C2B52136  17.964  23.338   6.584
 4034POPC   C3B52137  17.741  23.353   6.967
 4034POPC   C4B52138  17.814  23.116   7.327
 4035POPC   NC352139  24.321  13.505   5.524
 4035POPC   PO452140  24.964  13.475   5.455
 4035POPC   GL152141  24.698  13.502   5.893
 4035POPC   GL252142  24.307  13.584   6.020
 4035POPC   C1A52143  24.681  13.670   6.337
 4035POPC   D2A52144  24.293  13.796   6.557
 4035POPC   C3A52145  24.447  13.884   6.942
 4035POPC   C4A52146  24.701  13.915   7.298
 4035POPC   C1B52147  24.304  13.300   6.399
 4035POPC   C2B52148  24.386  13.350   6.834
 4035POPC   C3B52149  24.349  13.466   7.249
 4035POPC   C4B52150  24.252  13.301   7.632
 4036POPC   NC352151  24.516  10.162   5.122
 4036POPC   PO452152  24.272   9.487   5.283
 4036POPC   GL152153  24.261   9.704   5.765
 4036POPC   GL252154  24.627   9.751   5.839
 4036POPC   C1A52155  24.314   9.857   6.250
 4036POPC   D2A52156  24.508   9.958   6.694
 4036POPC   C3A52157  24.337   9.913   7.087
 4036POPC   C4A52158  24.244   9.507   7.167
 4036POPC   C1B52159  24.560   9.426   6.181
 4036POPC   C2B52160  24.478   9.428   6.649
 4036POPC   C3B52161  24.725   9.575   6.993
 4036POPC   C4B52162  24.797   9.454   7.388
 4037POPC   NC352163  30.111  13.191   5.529
 4037POPC   PO452164  29.489  13.409   5.610
 4037POPC   GL152165  29.751  13.650   5.930
 4037POPC   GL252166  30.110  13.786   5.852
 4037POPC   C1A52167  29.679  13.751   6.374
 4037POPC   D2A52168  29.890  13.563   6.719
 4037POPC   C3A52169  29.625  13.578   7.061
 4037POPC   C4A52170  29.794  13.696   7.433
 4037POPC   C1B52171  30.190  13.769   6.310
 4037POPC   C2B52172  30.151  14.039   6.689
 4037POPC   C3B52173  30.123  13.970   7.150
 4037POPC   C4B52174  30.268  13.788   7.587
 4038POPC   NC352175  16.606   0.455   5.430
 4038POPC   PO452176  17.093  44.976   5.756
 4038POPC   GL152177  16.887   0.422   5.857
 4038POPC   GL252178  16.547   0.677   5.876
 4038POPC   C1A52179  16.834   0.417   6.275
 4038POPC   D2A52180  16.617   0.272   6.609
 4038POPC   C3A52181  16.854   0.359   6.945
 4038POPC   C4A52182  16.767   0.373   7.352
 4038POPC   C1B52183  16.599   0.849   6.302
 4038POPC   C2B52184  16.618   0.773   6.748
 4038POPC   C3B52185  16.615   0.839   7.192
 4038POPC   C4B52186  16.650   0.832   7.653
 4039POPC   NC352187  22.539  40.457   5.413
 4039POPC   PO452188  21.863  40.658   5.468
 4039POPC   GL152189  21.921  40.743   5.886
 4039POPC   GL252190  22.282  40.701   5.872
 4039POPC   C1A52191  22.039  41.017   6.228
 4039POPC   D2A52192  22.347  40.963   6.529
 4039POPC   C3A52193  22.201  40.773   6.860
 4039POPC   C4A52194  22.049  40.945   7.215
 4039POPC   C1B52195  22.162  40.511   6.279
 4039POPC   C2B52196  21.970  40.357   6.655
 4039POPC   C3B52197  21.934  40.382   7.105
 4039POPC   C4B52198  22.325  40.461   7.251
 4040POPC   NC352199  20.429  16.970   5.382
 4040POPC   PO452200  21.056  17.204   5.524
 4040POPC   GL152201  20.769  16.917   5.839
 4040POPC   GL252202  20.488  16.689   5.800
 4040POPC   C1A52203  20.561  16.952   6.286
 4040POPC   D2A52204  20.752  17.059   6.729
 4040POPC   C3A52205  20.541  17.016   7.163
 4040POPC   C4A52206  20.604  16.876   7.628
 4040POPC   C1B52207  20.521  16.449   6.165
 4040POPC   C2B52208  20.461  16.349   6.588
 4040POPC   C3B52209  20.622  16.556   6.948
 4040POPC   C4B52210  20.507  16.435   7.361
 4041POPC   NC352211  36.387  13.226   5.154
 4041POPC   PO452212  35.897  13.333   5.602
 4041POPC   GL152213  35.889  13.103   5.960
 4041POPC   GL252214  36.113  12.846   5.864
 4041POPC   C1A52215  36.140  13.026   6.350
 4041POPC   D2A52216  36.225  13.013   6.795
 4041POPC   C3A52217  35.939  13.118   7.097
 4041POPC   C4A52218  35.834  12.664   7.156
 4041POPC   C1B52219  36.396  12.623   6.142
 4041POPC   C2B52220  36.356  12.460   6.546
 4041POPC   C3B52221  36.468  12.585   6.971
 4041POPC   C4B52222  36.445  12.980   7.277
 4042POPC   NC352223  30.989  13.680   5.105
 4042POPC   PO452224  30.453  13.536   5.473
 4042POPC   GL152225  30.733  13.455   5.823
 4042POPC   GL252226  30.606  13.707   6.015
 4042POPC   C1A52227  30.859  13.353   6.241
 4042POPC   D2A52228  30.665  13.579   6.558
 4042POPC   C3A52229  30.969  13.570   6.857
 4042POPC   C4A52230  30.885  13.402   7.251
 4042POPC   C1B52231  30.951  13.876   6.269
 4042POPC   C2B52232  30.845  14.045   6.695
 4042POPC   C3B52233  30.639  13.882   7.100
 4042POPC   C4B52234  30.759  13.795   7.554
 4043POPC   NC352235  30.857  36.421   5.563
 4043POPC   PO452236  30.400  36.058   5.273
 4043POPC   GL152237  30.515  36.096   5.757
 4043POPC   GL252238  30.875  36.109   5.967
 4043POPC   C1A52239  30.487  36.269   6.209
 4043POPC   D2A52240  30.863  36.287   6.503
 4043POPC   C3A52241  30.751  36.277   6.941
 4043POPC   C4A52242  30.496  36.106   7.307
 4043POPC   C1B52243  31.088  35.806   6.253
 4043POPC   C2B52244  31.127  35.668   6.705
 4043POPC   C3B52245  30.927  35.839   7.093
 4043POPC   C4B52246  31.016  36.163   7.427
 4044POPC   NC352247   8.629  21.539   5.349
 4044POPC   PO452248   8.024  21.645   5.362
 4044POPC   GL152249   8.260  21.392   5.683
 4044POPC   GL252250   7.967  21.236   5.823
 4044POPC   C1A52251   8.377  21.355   6.134
 4044POPC   D2A52252   8.065  21.261   6.431
 4044POPC   C3A52253   8.203  21.149   6.845
 4044POPC   C4A52254   8.333  21.390   7.197
 4044POPC   C1B52255   7.803  21.588   6.082
 4044POPC   C2B52256   7.812  21.681   6.548
 4044POPC   C3B52257   7.876  21.544   6.957
 4044POPC   C4B52258   8.031  21.789   7.279
 4045POPC   NC352259  37.689  25.975   5.480
 4045POPC   PO452260  38.036  26.548   5.343
 4045POPC   GL152261  37.917  26.364   5.767
 4045POPC   GL252262  37.553  26.330   5.833
 4045POPC   C1A52263  37.846  26.178   6.213
 4045POPC   D2A52264  37.880  25.835   6.537
 4045POPC   C3A52265  37.957  25.973   6.966
 4045POPC   C4A52266  37.915  26.171   7.374
 4045POPC   C1B52267  37.386  25.945   6.065
 4045POPC   C2B52268  37.389  25.641   6.441
 4045POPC   C3B52269  37.411  25.676   6.913
 4045POPC   C4B52270  37.470  26.033   7.204
 4046POPC   NC352271  41.242  13.355   5.060
 4046POPC   PO452272  41.619  13.210   5.576
 4046POPC   GL152273  41.427  13.024   5.884
 4046POPC   GL252274  41.567  12.699   5.871
 4046POPC   C1A52275  41.502  13.028   6.299
 4046POPC   D2A52276  41.774  12.936   6.621
 4046POPC   C3A52277  41.447  12.985   6.878
 4046POPC   C4A52278  41.309  13.028   7.255
 4046POPC   C1B52279  41.907  12.637   6.188
 4046POPC   C2B52280  41.976  12.434   6.597
 4046POPC   C3B52281  41.899  12.581   7.013
 4046POPC   C4B52282  41.485  12.571   7.195
 4047POPC   NC352283  13.873   9.238   5.577
 4047POPC   PO452284  13.298   8.809   5.489
 4047POPC   GL152285  13.518   8.945   5.823
 4047POPC   GL252286  13.368   9.286   5.818
 4047POPC   C1A52287  13.775   8.895   6.207
 4047POPC   D2A52288  13.671   8.771   6.631
 4047POPC   C3A52289  14.002   8.776   6.937
 4047POPC   C4A52290  13.893   8.877   7.341
 4047POPC   C1B52291  13.321   9.142   6.257
 4047POPC   C2B52292  13.530   9.292   6.635
 4047POPC   C3B52293  13.790   9.267   7.009
 4047POPC   C4B52294  13.601   9.258   7.455
 4048POPC   NC352295  11.794  23.819   5.394
 4048POPC   PO452296  12.435  23.501   5.538
 4048POPC   GL152297  12.174  23.759   5.786
 4048POPC   GL252298  11.886  23.543   5.795
 4048POPC   C1A52299  12.148  23.684   6.231
 4048POPC   D2A52300  12.144  23.383   6.581
 4048POPC   C3A52301  12.254  23.626   6.950
 4048POPC   C4A52302  12.534  23.845   7.214
 4048POPC   C1B52303  11.668  23.530   6.154
 4048POPC   C2B52304  11.706  23.670   6.547
 4048POPC   C3B52305  11.760  23.503   6.933
 4048POPC   C4B52306  11.769  23.793   7.216
 4049POPC   NC352307   4.178   6.130   5.508
 4049POPC   PO452308   4.084   6.754   5.405
 4049POPC   GL152309   4.375   6.642   5.717
 4049POPC   GL252310   4.617   6.918   5.783
 4049POPC   C1A52311   4.341   6.380   6.088
 4049POPC   D2A52312   4.171   6.480   6.461
 4049POPC   C3A52313   4.350   6.483   6.854
 4049POPC   C4A52314   4.128   6.366   7.195
 4049POPC   C1B52315   4.373   6.908   6.157
 4049POPC   C2B52316   4.547   6.826   6.518
 4049POPC   C3B52317   4.498   6.976   6.891
 4049POPC   C4B52318   4.261   6.841   7.238
 4050POPC   NC352319  28.649  26.670   5.521
 4050POPC   PO452320  28.041  26.905   5.367
 4050POPC   GL152321  28.198  26.810   5.797
 4050POPC   GL252322  28.475  27.053   5.849
 4050POPC   C1A52323  28.057  26.836   6.274
 4050POPC   D2A52324  27.955  27.037   6.701
 4050POPC   C3A52325  28.259  26.984   7.045
 4050POPC   C4A52326  28.426  26.594   7.221
 4050POPC   C1B52327  28.563  26.743   6.186
 4050POPC   C2B52328  28.462  26.672   6.630
 4050POPC   C3B52329  28.799  26.694   6.910
 4050POPC   C4B52330  28.754  27.003   7.222
 4051POPC   NC352331  27.780  24.119   5.096
 4051POPC   PO452332  27.714  23.409   5.127
 4051POPC   GL152333  27.720  23.378   5.744
 4051POPC   GL252334  27.596  23.668   5.872
 4051POPC   C1A52335  27.524  23.370   6.252
 4051POPC   D2A52336  27.511  23.335   6.742
 4051POPC   C3A52337  27.661  23.590   7.123
 4051POPC   C4A52338  27.480  23.518   7.566
 4051POPC   C1B52339  27.754  23.845   6.250
 4051POPC   C2B52340  27.594  23.867   6.663
 4051POPC   C3B52341  27.568  24.099   7.063
 4051POPC   C4B52342  27.594  24.039   7.499
 4052POPC   NC352343  33.873  14.250   5.208
 4052POPC   PO452344  33.866  14.804   5.574
 4052POPC   GL152345  34.013  14.452   5.855
 4052POPC   GL252346  33.897  14.141   5.700
 4052POPC   C1A52347  34.011  14.477   6.328
 4052POPC   D2A52348  33.705  14.664   6.622
 4052POPC   C3A52349  33.842  14.630   7.020
 4052POPC   C4A52350  33.634  14.624   7.386
 4052POPC   C1B52351  34.088  13.972   6.063
 4052POPC   C2B52352  34.125  14.003   6.505
 4052POPC   C3B52353  33.844  14.165   6.800
 4052POPC   C4B52354  33.837  14.165   7.247
 4053POPC   NC352355  38.092  44.600   5.369
 4053POPC   PO452356  37.489  44.921   5.419
 4053POPC   GL152357  37.730  44.752   5.763
 4053POPC   GL252358  37.475  44.608   6.012
 4053POPC   C1A52359  37.900  44.865   6.174
 4053POPC   D2A52360  37.686  44.858   6.573
 4053POPC   C3A52361  37.841  44.728   6.982
 4053POPC   C4A52362  38.010  44.447   7.260
 4053POPC   C1B52363  37.375   0.030   6.184
 4053POPC   C2B52364  37.201   0.048   6.606
 4053POPC   C3B52365  37.336  44.846   6.993
 4053POPC   C4B52366  37.429  44.699   7.421
 4054POPC   NC352367  16.006  39.800   5.385
 4054POPC   PO452368  15.740  39.075   5.458
 4054POPC   GL152369  16.015  39.180   5.822
 4054POPC   GL252370  16.266  38.895   5.928
 4054POPC   C1A52371  15.925  39.381   6.211
 4054POPC   D2A52372  15.786  39.653   6.539
 4054POPC   C3A52373  15.883  39.439   6.922
 4054POPC   C4A52374  15.985  39.213   7.282
 4054POPC   C1B52375  15.950  38.868   6.221
 4054POPC   C2B52376  15.875  39.038   6.600
 4054POPC   C3B52377  16.204  38.975   6.874
 4054POPC   C4B52378  16.171  38.742   7.223
 4055POPC   NC352379   7.760   0.747   5.607
 4055POPC   PO452380   7.295   1.273   5.411
 4055POPC   GL152381   7.372   1.049   5.762
 4055POPC   GL252382   7.638   1.270   5.886
 4055POPC   C1A52383   7.452   0.900   6.186
 4055POPC   D2A52384   7.763   0.871   6.506
 4055POPC   C3A52385   7.549   1.012   6.842
 4055POPC   C4A52386   7.173   0.996   7.049
 4055POPC   C1B52387   7.480   1.422   6.253
 4055POPC   C2B52388   7.496   1.510   6.694
 4055POPC   C3B52389   7.383   1.647   7.111
 4055POPC   C4B52390   7.246   1.349   7.416
 4056POPC   NC352391  44.778  23.519   5.114
 4056POPC   PO452392  44.782  22.894   5.384
 4056POPC   GL152393  44.719  23.072   5.806
 4056POPC   GL252394  44.735  22.783   5.988
 4056POPC   C1A52395  44.484  23.177   6.217
 4056POPC   D2A52396  44.399  23.021   6.647
 4056POPC   C3A52397  44.684  22.994   7.007
 4056POPC   C4A52398  44.584  22.990   7.459
 4056POPC   C1B52399  44.896  22.909   6.388
 4056POPC   C2B52400  44.982  22.604   6.689
 4056POPC   C3B52401  44.907  22.544   7.118
 4056POPC   C4B52402   0.007  22.727   7.520
 4057POPC   NC352403  38.024  19.202   5.489
 4057POPC   PO452404  38.192  18.615   5.329
 4057POPC   GL152405  38.448  18.961   5.634
 4057POPC   GL252406  38.488  19.358   5.688
 4057POPC   C1A52407  38.400  19.058   6.101
 4057POPC   D2A52408  38.607  19.084   6.533
 4057POPC   C3A52409  38.300  19.066   6.857
 4057POPC   C4A52410  38.163  19.039   7.262
 4057POPC   C1B52411  38.754  19.415   6.119
 4057POPC   C2B52412  38.749  19.585   6.555
 4057POPC   C3B52413  38.815  19.430   6.986
 4057POPC   C4B52414  38.682  19.083   7.247
 4058POPC   NC352415  16.623   2.770   5.311
 4058POPC   PO452416  17.225   2.556   5.457
 4058POPC   GL152417  16.876   2.770   5.753
 4058POPC   GL252418  16.542   2.569   5.795
 4058POPC   C1A52419  16.743   2.836   6.214
 4058POPC   D2A52420  16.979   2.928   6.618
 4058POPC   C3A52421  16.845   2.826   7.054
 4058POPC   C4A52422  17.018   2.853   7.460
 4058POPC   C1B52423  16.895   2.363   6.049
 4058POPC   C2B52424  16.986   2.300   6.474
 4058POPC   C3B52425  17.116   2.458   6.843
 4058POPC   C4B52426  17.017   2.359   7.261
 4059POPC   NC352427  12.484   3.807   5.380
 4059POPC   PO452428  12.034   3.264   5.393
 4059POPC   GL152429  12.128   3.586   5.697
 4059POPC   GL252430  12.417   3.397   5.731
 4059POPC   C1A52431  12.043   3.790   6.118
 4059POPC   D2A52432  11.955   3.895   6.572
 4059POPC   C3A52433  12.097   3.637   6.927
 4059POPC   C4A52434  11.979   3.575   7.367
 4059POPC   C1B52435  12.206   3.297   6.123
 4059POPC   C2B52436  12.324   3.385   6.531
 4059POPC   C3B52437  12.494   3.303   6.933
 4059POPC   C4B52438  12.310   3.168   7.312
 4060POPC   NC352439  26.775  31.264   5.324
 4060POPC   PO452440  27.184  31.695   5.421
 4060POPC   GL152441  26.936  31.606   5.837
 4060POPC   GL252442  26.700  31.298   5.822
 4060POPC   C1A52443  26.859  31.606   6.327
 4060POPC   D2A52444  26.602  31.628   6.732
 4060POPC   C3A52445  26.686  31.796   7.134
 4060POPC   C4A52446  26.972  31.633   7.445
 4060POPC   C1B52447  26.575  31.181   6.219
 4060POPC   C2B52448  26.751  31.156   6.644
 4060POPC   C3B52449  26.818  31.287   7.086
 4060POPC   C4B52450  26.574  31.338   7.448
 4061POPC   NC352451  33.212  34.863   5.468
 4061POPC   PO452452  32.941  34.172   5.534
 4061POPC   GL152453  32.857  34.557   5.802
 4061POPC   GL252454  33.123  34.794   5.966
 4061POPC   C1A52455  32.769  34.536   6.246
 4061POPC   D2A52456  32.955  34.320   6.601
 4061POPC   C3A52457  33.026  34.551   6.984
 4061POPC   C4A52458  32.806  34.503   7.374
 4061POPC   C1B52459  33.285  34.438   6.201
 4061POPC   C2B52460  33.471  34.389   6.622
 4061POPC   C3B52461  33.361  34.136   6.942
 4061POPC   C4B52462  33.197  34.155   7.330
 4062POPC   NC352463  11.705  35.191   5.305
 4062POPC   PO452464  12.230  35.552   5.388
 4062POPC   GL152465  12.038  35.316   5.737
 4062POPC   GL252466  11.697  35.336   5.826
 4062POPC   C1A52467  12.003  35.094   6.159
 4062POPC   D2A52468  11.958  35.262   6.577
 4062POPC   C3A52469  12.199  35.190   6.922
 4062POPC   C4A52470  11.970  35.122   7.273
 4062POPC   C1B52471  11.883  35.594   6.173
 4062POPC   C2B52472  11.934  35.760   6.604
 4062POPC   C3B52473  11.866  35.580   7.016
 4062POPC   C4B52474  11.903  35.586   7.452
 4063POPC   NC352475  43.723  15.687   5.509
 4063POPC   PO452476  43.955  16.352   5.359
 4063POPC   GL152477  43.963  16.051   5.790
 4063POPC   GL252478  44.079  15.692   5.910
 4063POPC   C1A52479  43.691  16.021   6.215
 4063POPC   D2A52480  43.811  16.197   6.613
 4063POPC   C3A52481  43.877  15.839   6.845
 4063POPC   C4A52482  43.773  15.758   7.246
 4063POPC   C1B52483  44.142  15.856   6.356
 4063POPC   C2B52484  44.349  16.026   6.722
 4063POPC   C3B52485  44.303  15.908   7.178
 4063POPC   C4B52486  44.348  15.768   7.637
 4064POPC   NC352487   8.617  38.344   5.342
 4064POPC   PO452488   9.177  38.610   5.542
 4064POPC   GL152489   8.861  38.406   5.838
 4064POPC   GL252490   8.510  38.222   5.832
 4064POPC   C1A52491   8.901  38.585   6.262
 4064POPC   D2A52492   8.851  38.837   6.635
 4064POPC   C3A52493   9.045  38.664   7.024
 4064POPC   C4A52494   9.187  38.289   7.316
 4064POPC   C1B52495   8.702  38.115   6.243
 4064POPC   C2B52496   8.657  38.330   6.669
 4064POPC   C3B52497   8.719  38.272   7.131
 4064POPC   C4B52498   8.771  38.181   7.618
 4065POPC   NC352499  10.128  22.048   5.400
 4065POPC   PO452500  10.742  21.776   5.472
 4065POPC   GL152501  10.437  21.929   5.809
 4065POPC   GL252502  10.546  22.208   6.016
 4065POPC   C1A52503  10.171  21.946   6.203
 4065POPC   D2A52504  10.431  22.128   6.519
 4065POPC   C3A52505  10.308  22.092   6.934
 4065POPC   C4A52506  10.167  22.447   7.144
 4065POPC   C1B52507  10.855  22.385   6.238
 4065POPC   C2B52508  10.870  22.322   6.673
 4065POPC   C3B52509  10.668  22.495   7.006
 4065POPC   C4B52510  10.945  22.683   7.254
 4066POPC   NC352511  39.033  24.172   5.523
 4066POPC   PO452512  39.045  23.503   5.428
 4066POPC   GL152513  39.216  23.698   5.831
 4066POPC   GL252514  39.229  24.062   5.958
 4066POPC   C1A52515  39.164  23.510   6.253
 4066POPC   D2A52516  38.886  23.505   6.623
 4066POPC   C3A52517  39.106  23.507   7.049
 4066POPC   C4A52518  39.115  23.752   7.442
 4066POPC   C1B52519  39.301  23.983   6.352
 4066POPC   C2B52520  39.189  23.935   6.747
 4066POPC   C3B52521  39.430  23.936   7.072
 4066POPC   C4B52522  39.449  24.170   7.418
 4067POPC   NC352523  16.808  23.328   5.464
 4067POPC   PO452524  16.577  22.756   5.372
 4067POPC   GL152525  16.562  22.980   5.752
 4067POPC   GL252526  16.338  22.754   5.811
 4067POPC   C1A52527  16.782  23.005   6.142
 4067POPC   D2A52528  16.982  22.778   6.469
 4067POPC   C3A52529  16.773  22.887   6.836
 4067POPC   C4A52530  16.692  23.086   7.196
 4067POPC   C1B52531  16.336  22.650   6.183
 4067POPC   C2B52532  16.509  22.530   6.535
 4067POPC   C3B52533  16.288  22.611   6.894
 4067POPC   C4B52534  16.376  22.692   7.319
 4068POPC   NC352535  32.703  25.386   5.549
 4068POPC   PO452536  33.348  25.030   5.427
 4068POPC   GL152537  33.168  25.273   5.733
 4068POPC   GL252538  32.951  24.994   5.821
 4068POPC   C1A52539  33.100  25.516   6.128
 4068POPC   D2A52540  33.430  25.509   6.467
 4068POPC   C3A52541  33.287  25.442   6.892
 4068POPC   C4A52542  33.193  25.667   7.253
 4068POPC   C1B52543  33.241  25.041   6.185
 4068POPC   C2B52544  33.018  25.161   6.579
 4068POPC   C3B52545  32.898  25.110   7.048
 4068POPC   C4B52546  32.970  24.989   7.531
 4069POPC   NC352547   9.072  29.382   5.545
 4069POPC   PO452548   8.523  29.054   5.342
 4069POPC   GL152549   8.630  29.039   5.780
 4069POPC   GL252550   8.978  28.979   5.860
 4069POPC   C1A52551   8.704  29.312   6.155
 4069POPC   D2A52552   8.753  29.508   6.565
 4069POPC   C3A52553   8.787  29.288   6.964
 4069POPC   C4A52554   9.099  29.393   7.263
 4069POPC   C1B52555   9.175  28.850   6.258
 4069POPC   C2B52556   9.106  28.834   6.733
 4069POPC   C3B52557   8.915  28.787   7.155
 4069POPC   C4B52558   8.923  28.701   7.592
 4070POPC   NC352559  18.916  19.300   5.497
 4070POPC   PO452560  19.332  18.757   5.485
 4070POPC   GL152561  18.963  18.746   5.838
 4070POPC   GL252562  18.786  19.046   5.911
 4070POPC   C1A52563  18.921  18.872   6.356
 4070POPC   D2A52564  19.239  19.018   6.709
 4070POPC   C3A52565  19.228  18.975   7.195
 4070POPC   C4A52566  18.987  18.650   7.438
 4070POPC   C1B52567  18.743  19.360   6.239
 4070POPC   C2B52568  18.870  19.390   6.652
 4070POPC   C3B52569  18.802  19.121   6.977
 4070POPC   C4B52570  18.858  19.319   7.339
 4071POPC   NC352571   7.317  29.006   5.404
 4071POPC   PO452572   7.055  29.655   5.323
 4071POPC   GL152573   7.173  29.422   5.750
 4071POPC   GL252574   7.212  29.057   5.894
 4071POPC   C1A52575   7.286  29.442   6.227
 4071POPC   D2A52576   7.578  29.254   6.549
 4071POPC   C3A52577   7.489  29.293   6.991
 4071POPC   C4A52578   7.794  29.184   7.269
 4071POPC   C1B52579   7.247  28.920   6.331
 4071POPC   C2B52580   7.395  28.811   6.754
 4071POPC   C3B52581   7.442  28.810   7.208
 4071POPC   C4B52582   7.265  28.707   7.624
 4072POPC   NC352583  10.007  14.288   5.456
 4072POPC   PO452584   9.305  14.176   5.614
 4072POPC   GL152585   9.629  14.352   5.888
 4072POPC   GL252586   9.972  14.227   5.942
 4072POPC   C1A52587   9.735  14.553   6.275
 4072POPC   D2A52588   9.888  14.709   6.670
 4072POPC   C3A52589   9.740  14.567   7.118
 4072POPC   C4A52590   9.814  14.469   7.599
 4072POPC   C1B52591  10.119  14.033   6.268
 4072POPC   C2B52592   9.918  14.161   6.628
 4072POPC   C3B52593   9.755  14.070   7.016
 4072POPC   C4B52594  10.094  14.210   7.261
 4073POPC   NC352595   5.834   9.231   5.169
 4073POPC   PO452596   5.719   8.673   5.527
 4073POPC   GL152597   5.767   8.896   5.899
 4073POPC   GL252598   6.146   8.886   5.949
 4073POPC   C1A52599   5.835   8.865   6.339
 4073POPC   D2A52600   6.136   9.059   6.574
 4073POPC   C3A52601   5.943   9.075   6.981
 4073POPC   C4A52602   5.519   9.088   7.183
 4073POPC   C1B52603   6.195   8.529   6.318
 4073POPC   C2B52604   6.055   8.568   6.709
 4073POPC   C3B52605   6.213   8.505   7.083
 4073POPC   C4B52606   6.153   8.472   7.492
 4074POPC   NC352607  28.289  19.334   5.258
 4074POPC   PO452608  28.778  18.946   5.555
 4074POPC   GL152609  28.552  19.155   5.901
 4074POPC   GL252610  28.225  19.360   5.808
 4074POPC   C1A52611  28.643  19.118   6.357
 4074POPC   D2A52612  28.392  19.160   6.715
 4074POPC   C3A52613  28.459  18.914   7.061
 4074POPC   C4A52614  28.158  18.635   7.220
 4074POPC   C1B52615  28.203  19.435   6.287
 4074POPC   C2B52616  28.011  19.473   6.737
 4074POPC   C3B52617  28.119  19.290   7.167
 4074POPC   C4B52618  28.465  19.307   7.450
 4075POPC   NC352619  20.207  31.989   5.461
 4075POPC   PO452620  19.764  32.474   5.387
 4075POPC   GL152621  19.660  32.405   5.838
 4075POPC   GL252622  19.656  32.056   5.829
 4075POPC   C1A52623  19.595  32.399   6.322
 4075POPC   D2A52624  19.801  32.257   6.724
 4075POPC   C3A52625  19.610  32.050   7.100
 4075POPC   C4A52626  19.597  32.233   7.505
 4075POPC   C1B52627  19.989  32.099   6.132
 4075POPC   C2B52628  20.141  31.922   6.507
 4075POPC   C3B52629  20.024  31.813   6.924
 4075POPC   C4B52630  20.145  31.933   7.331
 4076POPC   NC352631  19.896   3.417   5.446
 4076POPC   PO452632  20.237   3.991   5.246
 4076POPC   GL152633  20.234   3.749   5.722
 4076POPC   GL252634  20.233   3.389   5.816
 4076POPC   C1A52635  19.977   3.774   6.172
 4076POPC   D2A52636  19.589   3.586   6.397
 4076POPC   C3A52637  19.617   3.425   6.824
 4076POPC   C4A52638  19.687   3.357   7.253
 4076POPC   C1B52639  20.025   3.260   6.187
 4076POPC   C2B52640  20.072   3.435   6.578
 4076POPC   C3B52641  20.109   3.539   7.007
 4076POPC   C4B52642  20.163   3.162   7.213
 4077POPC   NC352643  33.238   6.394   5.049
 4077POPC   PO452644  32.979   6.723   5.573
 4077POPC   GL152645  33.188   6.552   5.904
 4077POPC   GL252646  32.930   6.352   5.978
 4077POPC   C1A52647  33.176   6.625   6.368
 4077POPC   D2A52648  33.341   6.721   6.798
 4077POPC   C3A52649  33.076   6.677   7.154
 4077POPC   C4A52650  33.273   6.960   7.417
 4077POPC   C1B52651  32.881   6.211   6.366
 4077POPC   C2B52652  33.028   6.309   6.769
 4077POPC   C3B52653  32.933   6.165   7.173
 4077POPC   C4B52654  32.869   6.266   7.636
 4078POPC   NC352655  30.427  29.155   5.503
 4078POPC   PO452656  30.937  29.492   5.546
 4078POPC   GL152657  30.819  29.164   5.875
 4078POPC   GL252658  30.904  28.821   5.776
 4078POPC   C1A52659  30.587  29.099   6.291
 4078POPC   D2A52660  30.616  28.972   6.744
 4078POPC   C3A52661  30.764  29.258   7.103
 4078POPC   C4A52662  30.951  29.456   7.492
 4078POPC   C1B52663  30.969  28.738   6.231
 4078POPC   C2B52664  30.999  28.598   6.674
 4078POPC   C3B52665  30.934  28.764   7.102
 4078POPC   C4B52666  30.460  28.816   7.214
 4079POPC   NC352667  14.311  12.442   5.313
 4079POPC   PO452668  13.700  12.141   5.237
 4079POPC   GL152669  13.750  12.030   5.748
 4079POPC   GL252670  13.757  12.317   5.908
 4079POPC   C1A52671  13.613  12.003   6.261
 4079POPC   D2A52672  13.605  12.203   6.706
 4079POPC   C3A52673  13.437  11.945   7.089
 4079POPC   C4A52674  13.701  11.765   7.441
 4079POPC   C1B52675  14.043  12.285   6.289
 4079POPC   C2B52676  14.183  12.330   6.717
 4079POPC   C3B52677  13.918  12.472   7.049
 4079POPC   C4B52678  13.672  12.289   7.386
 4080POPC   NC352679  33.059  27.386   5.073
 4080POPC   PO452680  33.069  26.739   5.368
 4080POPC   GL152681  33.030  26.873   5.761
 4080POPC   GL252682  33.193  27.170   5.739
 4080POPC   C1A52683  32.832  26.777   6.156
 4080POPC   D2A52684  32.803  26.796   6.601
 4080POPC   C3A52685  33.178  26.744   6.891
 4080POPC   C4A52686  33.145  26.708   7.358
 4080POPC   C1B52687  33.293  27.072   6.161
 4080POPC   C2B52688  33.140  27.217   6.574
 4080POPC   C3B52689  32.768  27.255   6.816
 4080POPC   C4B52690  32.764  26.969   7.144
 4081POPC   NC352691  32.421  26.144   5.416
 4081POPC   PO452692  31.824  25.768   5.447
 4081POPC   GL152693  32.197  25.828   5.756
 4081POPC   GL252694  32.298  26.192   5.888
 4081POPC   C1A52695  32.357  25.778   6.184
 4081POPC   D2A52696  32.071  25.759   6.538
 4081POPC   C3A52697  32.179  25.724   6.944
 4081POPC   C4A52698  32.439  25.807   7.292
 4081POPC   C1B52699  32.374  26.265   6.310
 4081POPC   C2B52700  32.502  26.048   6.637
 4081POPC   C3B52701  32.335  26.206   6.977
 4081POPC   C4B52702  32.148  26.229   7.362
 4082POPC   NC352703   2.978  14.741   5.599
 4082POPC   PO452704   2.928  14.079   5.500
 4082POPC   GL152705   2.743  14.291   5.850
 4082POPC   GL252706   2.997  14.487   6.058
 4082POPC   C1A52707   2.582  14.208   6.259
 4082POPC   D2A52708   2.690  14.429   6.640
 4082POPC   C3A52709   2.484  14.255   7.019
 4082POPC   C4A52710   2.639  14.307   7.442
 4082POPC   C1B52711   2.629  14.737   6.199
 4082POPC   C2B52712   2.358  14.868   6.532
 4082POPC   C3B52713   2.323  14.759   6.956
 4082POPC   C4B52714   2.413  14.761   7.392
 4083POPC   NC352715  17.712  36.164   5.598
 4083POPC   PO452716  17.127  35.847   5.388
 4083POPC   GL152717  17.317  35.835   5.763
 4083POPC   GL252718  17.207  36.137   5.831
 4083POPC   C1A52719  17.481  35.883   6.197
 4083POPC   D2A52720  17.496  36.227   6.519
 4083POPC   C3A52721  17.528  36.041   6.926
 4083POPC   C4A52722  17.588  36.215   7.320
 4083POPC   C1B52723  17.049  36.204   6.269
 4083POPC   C2B52724  17.013  36.185   6.744
 4083POPC   C3B52725  17.178  36.405   7.098
 4083POPC   C4B52726  17.180  36.436   7.595
 4084POPC   NC352727   3.636   6.624   5.385
 4084POPC   PO452728   2.987   6.363   5.436
 4084POPC   GL152729   3.356   6.417   5.769
 4084POPC   GL252730   3.751   6.331   5.799
 4084POPC   C1A52731   3.452   6.495   6.224
 4084POPC   D2A52732   3.338   6.701   6.623
 4084POPC   C3A52733   3.373   6.500   7.045
 4084POPC   C4A52734   3.647   6.187   7.200
 4084POPC   C1B52735   3.900   6.699   6.054
 4084POPC   C2B52736   3.827   6.845   6.495
 4084POPC   C3B52737   3.848   6.655   6.880
 4084POPC   C4B52738   3.762   6.723   7.307
 4085POPC   NC352739  16.030  43.094   5.118
 4085POPC   PO452740  16.434  43.307   5.582
 4085POPC   GL152741  16.066  43.083   5.827
 4085POPC   GL252742  15.771  43.225   6.044
 4085POPC   C1A52743  15.982  42.769   6.123
 4085POPC   D2A52744  16.016  42.966   6.487
 4085POPC   C3A52745  16.024  42.738   6.844
 4085POPC   C4A52746  16.013  42.763   7.291
 4085POPC   C1B52747  15.649  43.324   6.448
 4085POPC   C2B52748  15.826  43.276   6.851
 4085POPC   C3B52749  15.885  43.257   7.327
 4085POPC   C4B52750  15.740  43.360   7.769
 4086POPC   NC352751  33.901   0.006   5.067
 4086POPC   PO452752  33.552   0.599   5.187
 4086POPC   GL152753  33.964   0.443   5.582
 4086POPC   GL252754  33.838   0.269   5.899
 4086POPC   C1A52755  34.162   0.633   6.017
 4086POPC   D2A52756  33.934   0.695   6.430
 4086POPC   C3A52757  33.987   0.408   6.793
 4086POPC   C4A52758  34.016   0.432   7.239
 4086POPC   C1B52759  33.475   0.277   6.185
 4086POPC   C2B52760  33.326   0.139   6.549
 4086POPC   C3B52761  33.576   0.092   6.866
 4086POPC   C4B52762  33.571   0.224   7.231
 4087POPC   NC352763  13.751  35.560   5.180
 4087POPC   PO452764  13.603  35.099   5.679
 4087POPC   GL152765  13.591  35.311   6.001
 4087POPC   GL252766  13.932  35.408   5.920
 4087POPC   C1A52767  13.265  35.461   6.230
 4087POPC   D2A52768  13.078  35.574   6.604
 4087POPC   C3A52769  13.416  35.495   6.839
 4087POPC   C4A52770  13.556  35.369   7.206
 4087POPC   C1B52771  13.943  35.106   6.283
 4087POPC   C2B52772  13.793  35.130   6.697
 4087POPC   C3B52773  13.923  35.039   7.109
 4087POPC   C4B52774  13.991  35.339   7.464
 4088POPC   NC352775  42.393  43.297   5.573
 4088POPC   PO452776  42.034  42.838   5.294
 4088POPC   GL152777  42.220  42.819   5.754
 4088POPC   GL252778  41.886  42.884   5.875
 4088POPC   C1A52779  42.513  43.006   6.135
 4088POPC   D2A52780  42.676  42.960   6.572
 4088POPC   C3A52781  42.456  43.194   6.920
 4088POPC   C4A52782  42.547  43.509   7.248
 4088POPC   C1B52783  42.049  42.861   6.291
 4088POPC   C2B52784  41.970  43.017   6.720
 4088POPC   C3B52785  42.004  42.772   7.083
 4088POPC   C4B52786  42.305  42.934   7.341
 4089POPC   NC352787  21.958  43.157   5.558
 4089POPC   PO452788  22.487  42.744   5.591
 4089POPC   GL152789  22.278  42.971   5.893
 4089POPC   GL252790  22.458  43.242   5.852
 4089POPC   C1A52791  22.092  43.243   6.244
 4089POPC   D2A52792  21.917  43.139   6.663
 4089POPC   C3A52793  22.073  43.274   7.055
 4089POPC   C4A52794  22.134  42.949   7.394
 4089POPC   C1B52795  22.560  43.052   6.299
 4089POPC   C2B52796  22.493  43.155   6.725
 4089POPC   C3B52797  22.554  43.139   7.161
 4089POPC   C4B52798  22.371  43.436   7.445
 4090POPC   NC352799  13.467  33.051   5.428
 4090POPC   PO452800  14.079  32.895   5.647
 4090POPC   GL152801  13.801  33.143   5.827
 4090POPC   GL252802  13.607  32.831   5.900
 4090POPC   C1A52803  13.688  33.207   6.244
 4090POPC   D2A52804  13.480  33.083   6.601
 4090POPC   C3A52805  13.710  33.066   6.994
 4090POPC   C4A52806  13.690  33.359   7.364
 4090POPC   C1B52807  13.343  32.706   6.257
 4090POPC   C2B52808  13.278  32.541   6.697
 4090POPC   C3B52809  13.283  32.528   7.165
 4090POPC   C4B52810  13.464  32.883   7.397
 4091POPC   NC352811   7.979  18.054   5.603
 4091POPC   PO452812   8.360  18.596   5.289
 4091POPC   GL152813   8.293  18.489   5.716
 4091POPC   GL252814   8.490  18.212   5.704
 4091POPC   C1A52815   8.082  18.413   6.140
 4091POPC   D2A52816   8.032  18.562   6.563
 4091POPC   C3A52817   8.114  18.350   6.935
 4091POPC   C4A52818   8.193  18.491   7.368
 4091POPC   C1B52819   8.487  18.060   6.099
 4091POPC   C2B52820   8.487  17.884   6.501
 4091POPC   C3B52821   8.246  17.841   6.868
 4091POPC   C4B52822   8.378  18.052   7.224
 4092POPC   NC352823  23.720  43.405   5.301
 4092POPC   PO452824  24.113  42.870   5.396
 4092POPC   GL152825  24.019  43.179   5.731
 4092POPC   GL252826  23.660  43.248   5.777
 4092POPC   C1A52827  23.894  43.039   6.182
 4092POPC   D2A52828  23.674  43.110   6.591
 4092POPC   C3A52829  23.898  43.192   6.975
 4092POPC   C4A52830  24.057  43.021   7.358
 4092POPC   C1B52831  23.459  43.339   6.175
 4092POPC   C2B52832  23.300  43.574   6.546
 4092POPC   C3B52833  23.443  43.419   6.953
 4092POPC   C4B52834  23.643  43.431   7.336
 4093POPC   NC352835   8.370  35.626   5.317
 4093POPC   PO452836   8.100  36.194   5.476
 4093POPC   GL152837   8.126  35.852   5.793
 4093POPC   GL252838   8.482  35.769   5.800
 4093POPC   C1A52839   8.161  35.909   6.259
 4093POPC   D2A52840   8.428  36.148   6.571
 4093POPC   C3A52841   8.211  36.259   6.985
 4093POPC   C4A52842   7.821  36.438   7.203
 4093POPC   C1B52843   8.624  35.678   6.200
 4093POPC   C2B52844   8.439  35.593   6.585
 4093POPC   C3B52845   8.493  35.790   6.936
 4093POPC   C4B52846   8.488  35.917   7.361
 4094POPC   NC352847  27.385  43.203   5.207
 4094POPC   PO452848  28.004  43.019   5.435
 4094POPC   GL152849  27.668  43.031   5.780
 4094POPC   GL252850  27.319  43.113   5.726
 4094POPC   C1A52851  27.628  42.960   6.247
 4094POPC   D2A52852  27.897  42.795   6.621
 4094POPC   C3A52853  27.865  42.959   7.043
 4094POPC   C4A52854  27.626  42.761   7.364
 4094POPC   C1B52855  27.288  43.376   6.122
 4094POPC   C2B52856  27.188  43.417   6.563
 4094POPC   C3B52857  27.143  43.487   6.988
 4094POPC   C4B52858  27.332  43.153   7.227
 4095POPC   NC352859  26.612   8.040   5.332
 4095POPC   PO452860  27.027   8.501   5.388
 4095POPC   GL152861  26.825   8.275   5.736
 4095POPC   GL252862  26.482   8.370   5.710
 4095POPC   C1A52863  26.841   8.060   6.147
 4095POPC   D2A52864  27.079   7.952   6.549
 4095POPC   C3A52865  26.793   7.976   6.894
 4095POPC   C4A52866  26.841   8.071   7.326
 4095POPC   C1B52867  26.412   8.410   6.160
 4095POPC   C2B52868  26.345   8.291   6.601
 4095POPC   C3B52869  26.467   8.355   7.018
 4095POPC   C4B52870  26.523   8.446   7.439
 4096POPC   NC352871  29.770  11.189   5.242
 4096POPC   PO452872  30.154  11.756   5.278
 4096POPC   GL152873  29.982  11.458   5.637
 4096POPC   GL252874  30.154  11.131   5.788
 4096POPC   C1A52875  29.819  11.387   6.086
 4096POPC   D2A52876  29.926  11.408   6.530
 4096POPC   C3A52877  29.709  11.372   6.932
 4096POPC   C4A52878  29.857  11.664   7.254
 4096POPC   C1B52879  30.288  11.137   6.265
 4096POPC   C2B52880  30.315  11.171   6.731
 4096POPC   C3B52881  30.177  11.238   7.183
 4096POPC   C4B52882  30.043  10.937   7.505
 4097POPC   NC352883  14.565  37.027   5.440
 4097POPC   PO452884  14.139  36.516   5.629
 4097POPC   GL152885  14.430  36.751   5.894
 4097POPC   GL252886  14.788  36.781   5.847
 4097POPC   C1A52887  14.319  37.071   6.180
 4097POPC   D2A52888  14.027  37.008   6.518
 4097POPC   C3A52889  14.170  36.855   6.899
 4097POPC   C4A52890  14.312  37.038   7.249
 4097POPC   C1B52891  14.806  36.912   6.248
 4097POPC   C2B52892  14.573  36.849   6.596
 4097POPC   C3B52893  14.661  36.724   7.000
 4097POPC   C4B52894  14.673  36.759   7.449
 4098POPC   NC352895  38.413  44.221   5.129
 4098POPC   PO452896  38.434  44.898   5.244
 4098POPC   GL152897  38.457  44.889   5.725
 4098POPC   GL252898  38.728  44.696   5.866
 4098POPC   C1A52899  38.426  44.891   6.226
 4098POPC   D2A52900  38.223  44.629   6.573
 4098POPC   C3A52901  38.426  44.593   7.001
 4098POPC   C4A52902  38.421  44.858   7.388
 4098POPC   C1B52903  38.685  44.413   6.199
 4098POPC   C2B52904  38.746  44.573   6.590
 4098POPC   C3B52905  38.831  44.897   6.884
 4098POPC   C4B52906  38.894  44.706   7.271
 4099POPC   NC352907  29.271   8.291   5.460
 4099POPC   PO452908  28.885   7.822   5.605
 4099POPC   GL152909  29.132   8.041   5.884
 4099POPC   GL252910  28.878   8.310   5.850
 4099POPC   C1A52911  29.286   7.923   6.289
 4099POPC   D2A52912  28.958   7.764   6.575
 4099POPC   C3A52913  28.987   8.012   6.963
 4099POPC   C4A52914  29.031   8.036   7.413
 4099POPC   C1B52915  29.056   8.428   6.240
 4099POPC   C2B52916  29.268   8.320   6.631
 4099POPC   C3B52917  29.457   8.239   7.036
 4099POPC   C4B52918  29.324   8.465   7.375
 4100POPC   NC352919  31.382  10.765   5.461
 4100POPC   PO452920  31.731  10.200   5.526
 4100POPC   GL152921  31.534  10.444   5.829
 4100POPC   GL252922  31.202  10.316   5.814
 4100POPC   C1A52923  31.670  10.594   6.221
 4100POPC   D2A52924  31.979  10.637   6.530
 4100POPC   C3A52925  31.799  10.501   6.899
 4100POPC   C4A52926  31.491  10.698   7.105
 4100POPC   C1B52927  31.314  10.214   6.234
 4100POPC   C2B52928  31.374  10.399   6.629
 4100POPC   C3B52929  31.351  10.223   7.039
 4100POPC   C4B52930  31.236  10.384   7.425
 4101POPC   NC352931  40.850  17.865   5.386
 4101POPC   PO452932  40.512  18.476   5.301
 4101POPC   GL152933  40.567  18.210   5.689
 4101POPC   GL252934  40.922  18.145   5.861
 4101POPC   C1A52935  40.477  18.073   6.115
 4101POPC   D2A52936  40.792  18.091   6.438
 4101POPC   C3A52937  40.762  18.010   6.865
 4101POPC   C4A52938  40.607  18.342   7.132
 4101POPC   C1B52939  41.145  18.379   6.237
 4101POPC   C2B52940  41.200  18.299   6.714
 4101POPC   C3B52941  41.108  18.319   7.188
 4101POPC   C4B52942  41.085  18.027   7.557
 4102POPC   NC352943  27.531  25.078   5.231
 4102POPC   PO452944  28.082  25.185   5.335
 4102POPC   GL152945  27.750  25.158   5.710
 4102POPC   GL252946  27.439  24.935   5.741
 4102POPC   C1A52947  27.540  25.260   6.146
 4102POPC   D2A52948  27.455  25.556   6.512
 4102POPC   C3A52949  27.582  25.464   6.949
 4102POPC   C4A52950  27.295  25.580   7.286
 4102POPC   C1B52951  27.424  24.752   6.157
 4102POPC   C2B52952  27.339  24.951   6.567
 4102POPC   C3B52953  27.247  24.885   6.993
 4102POPC   C4B52954  27.526  25.086   7.297
 4103POPC   NC352955  28.176   3.606   5.526
 4103POPC   PO452956  28.687   3.321   5.232
 4103POPC   GL152957  28.579   3.298   5.695
 4103POPC   GL252958  28.235   3.286   5.903
 4103POPC   C1A52959  28.723   3.216   6.138
 4103POPC   D2A52960  28.591   3.310   6.557
 4103POPC   C3A52961  28.583   3.612   6.887
 4103POPC   C4A52962  28.386   3.408   7.242
 4103POPC   C1B52963  28.457   3.638   6.119
 4103POPC   C2B52964  28.500   3.901   6.450
 4103POPC   C3B52965  28.196   3.995   6.737
 4103POPC   C4B52966  28.041   3.859   7.126
 4104POPC   NC352967  37.913  34.852   5.223
 4104POPC   PO452968  37.535  34.380   5.474
 4104POPC   GL152969  37.610  34.514   5.843
 4104POPC   GL252970  37.970  34.584   5.701
 4104POPC   C1A52971  37.519  34.360   6.248
 4104POPC   D2A52972  37.660  34.146   6.587
 4104POPC   C3A52973  37.375  34.172   6.916
 4104POPC   C4A52974  37.607  34.194   7.259
 4104POPC   C1B52975  38.013  34.483   6.140
 4104POPC   C2B52976  37.876  34.621   6.534
 4104POPC   C3B52977  37.777  34.563   6.952
 4104POPC   C4B52978  37.467  34.696   7.264
 4105POPC   NC352979   1.937  23.112   5.187
 4105POPC   PO452980   1.692  22.686   5.678
 4105POPC   GL152981   2.032  22.904   5.911
 4105POPC   GL252982   1.961  23.184   5.732
 4105POPC   C1A52983   2.125  23.224   6.286
 4105POPC   D2A52984   2.246  23.297   6.745
 4105POPC   C3A52985   2.154  22.956   7.033
 4105POPC   C4A52986   1.836  22.675   7.112
 4105POPC   C1B52987   1.657  23.265   6.081
 4105POPC   C2B52988   1.637  23.352   6.532
 4105POPC   C3B52989   1.661  23.169   6.945
 4105POPC   C4B52990   1.849  23.204   7.372
 4106POPC   NC352991   7.740  10.797   5.495
 4106POPC   PO452992   7.232  10.291   5.446
 4106POPC   GL152993   7.111  10.418   5.844
 4106POPC   GL252994   7.365  10.678   5.854
 4106POPC   C1A52995   7.244  10.324   6.245
 4106POPC   D2A52996   7.084  10.290   6.654
 4106POPC   C3A52997   7.416  10.326   6.949
 4106POPC   C4A52998   7.284  10.414   7.349
 4106POPC   C1B52999   7.689  10.851   6.164
 4106POPC   C2B53000   7.845  10.984   6.586
 4106POPC   C3B53001   7.624  10.806   6.958
 4106POPC   C4B53002   7.673  10.742   7.397
 4107POPC   NC353003  40.537   3.258   5.364
 4107POPC   PO453004  41.052   3.765   5.471
 4107POPC   GL153005  40.723   3.700   5.725
 4107POPC   GL253006  40.763   4.008   5.895
 4107POPC   C1A53007  40.622   3.455   6.052
 4107POPC   D2A53008  40.781   3.397   6.431
 4107POPC   C3A53009  40.736   3.355   6.870
 4107POPC   C4A53010  40.851   3.423   7.295
 4107POPC   C1B53011  40.594   3.901   6.301
 4107POPC   C2B53012  40.471   3.779   6.700
 4107POPC   C3B53013  40.661   3.833   7.084
 4107POPC   C4B53014  40.911   3.988   7.415
 4108POPC   NC353015   3.422  20.372   5.346
 4108POPC   PO453016   3.711  20.895   5.266
 4108POPC   GL153017   3.516  20.773   5.670
 4108POPC   GL253018   3.774  20.504   5.786
 4108POPC   C1A53019   3.453  20.731   6.137
 4108POPC   D2A53020   3.607  20.905   6.550
 4108POPC   C3A53021   3.520  20.749   6.965
 4108POPC   C4A53022   3.267  20.792   7.326
 4108POPC   C1B53023   3.934  20.608   6.241
 4108POPC   C2B53024   3.953  20.545   6.708
 4108POPC   C3B53025   4.012  20.776   7.084
 4108POPC   C4B53026   4.057  21.129   7.306
 4109POPC   NC353027  27.924  28.115   5.522
 4109POPC   PO453028  27.451  28.623   5.530
 4109POPC   GL153029  27.646  28.473   5.852
 4109POPC   GL253030  27.470  28.203   5.936
 4109POPC   C1A53031  27.590  28.561   6.299
 4109POPC   D2A53032  27.690  28.802   6.665
 4109POPC   C3A53033  27.534  28.657   7.060
 4109POPC   C4A53034  27.869  28.423   7.154
 4109POPC   C1B53035  27.557  28.043   6.337
 4109POPC   C2B53036  27.483  28.265   6.717
 4109POPC   C3B53037  27.417  28.105   7.088
 4109POPC   C4B53038  27.792  27.941   7.200
 4110POPC   NC353039  30.320   2.225   5.405
 4110POPC   PO453040  30.791   1.799   5.384
 4110POPC   GL153041  30.875   1.929   5.814
 4110POPC   GL253042  30.530   2.010   5.832
 4110POPC   C1A53043  30.825   2.111   6.236
 4110POPC   D2A53044  30.699   2.060   6.658
 4110POPC   C3A53045  30.947   2.169   7.042
 4110POPC   C4A53046  31.007   2.108   7.513
 4110POPC   C1B53047  30.319   2.173   6.197
 4110POPC   C2B53048  30.249   2.312   6.605
 4110POPC   C3B53049  30.332   2.162   7.030
 4110POPC   C4B53050  30.529   2.296   7.403
 4111POPC   NC353051   6.515  11.463   5.435
 4111POPC   PO453052   7.211  11.223   5.415
 4111POPC   GL153053   6.926  11.362   5.782
 4111POPC   GL253054   6.587  11.230   5.894
 4111POPC   C1A53055   6.871  11.431   6.252
 4111POPC   D2A53056   6.917  11.141   6.590
 4111POPC   C3A53057   6.767  11.245   7.006
 4111POPC   C4A53058   6.807  11.541   7.373
 4111POPC   C1B53059   6.477  11.018   6.312
 4111POPC   C2B53060   6.203  11.030   6.707
 4111POPC   C3B53061   6.269  11.310   7.098
 4111POPC   C4B53062   6.519  11.139   7.473
 4112POPC   NC353063  14.216  26.786   5.477
 4112POPC   PO453064  14.732  27.143   5.486
 4112POPC   GL153065  14.654  26.847   5.816
 4112POPC   GL253066  14.374  27.040   5.919
 4112POPC   C1A53067  14.453  26.622   6.202
 4112POPC   D2A53068  14.356  26.497   6.650
 4112POPC   C3A53069  14.472  26.796   6.978
 4112POPC   C4A53070  14.250  26.883   7.326
 4112POPC   C1B53071  14.440  27.153   6.372
 4112POPC   C2B53072  14.555  27.281   6.816
 4112POPC   C3B53073  14.443  27.383   7.263
 4112POPC   C4B53074  14.102  27.280   7.566
 4113POPC   NC353075   7.847  17.296   5.353
 4113POPC   PO453076   8.361  17.752   5.485
 4113POPC   GL153077   8.062  17.539   5.766
 4113POPC   GL253078   8.167  17.194   5.792
 4113POPC   C1A53079   7.875  17.387   6.180
 4113POPC   D2A53080   7.784  17.544   6.609
 4113POPC   C3A53081   7.947  17.373   6.982
 4113POPC   C4A53082   8.076  17.656   7.318
 4113POPC   C1B53083   8.414  17.400   6.156
 4113POPC   C2B53084   8.330  17.397   6.612
 4113POPC   C3B53085   8.456  17.388   7.053
 4113POPC   C4B53086   8.254  17.186   7.359
 4114POPC   NC353087  33.895  23.030   5.235
 4114POPC   PO453088  34.127  22.346   5.334
 4114POPC   GL153089  34.037  22.701   5.712
 4114POPC   GL253090  34.056  23.092   5.872
 4114POPC   C1A53091  33.768  22.766   6.112
 4114POPC   D2A53092  33.846  22.665   6.569
 4114POPC   C3A53093  34.059  22.900   6.898
 4114POPC   C4A53094  33.988  22.793   7.349
 4114POPC   C1B53095  33.897  23.195   6.326
 4114POPC   C2B53096  33.570  23.107   6.648
 4114POPC   C3B53097  33.628  23.050   7.085
 4114POPC   C4B53098  33.841  23.277   7.396
 4115POPC   NC353099  42.453  32.521   5.287
 4115POPC   PO453100  42.423  31.892   5.224
 4115POPC   GL153101  42.379  32.222   5.675
 4115POPC   GL253102  42.261  32.531   5.832
 4115POPC   C1A53103  42.582  32.222   6.115
 4115POPC   D2A53104  42.658  32.384   6.530
 4115POPC   C3A53105  42.398  32.408   6.902
 4115POPC   C4A53106  42.562  32.287   7.291
 4115POPC   C1B53107  42.148  32.448   6.291
 4115POPC   C2B53108  41.917  32.579   6.674
 4115POPC   C3B53109  41.892  32.426   7.080
 4115POPC   C4B53110  42.084  32.279   7.436
 4116POPC   NC353111  23.193  33.164   5.615
 4116POPC   PO453112  22.625  33.137   5.228
 4116POPC   GL153113  22.700  32.909   5.668
 4116POPC   GL253114  23.006  32.718   5.810
 4116POPC   C1A53115  22.613  32.778   6.127
 4116POPC   D2A53116  22.685  32.926   6.565
 4116POPC   C3A53117  22.904  32.858   6.984
 4116POPC   C4A53118  22.690  33.082   7.315
 4116POPC   C1B53119  23.097  32.916   6.230
 4116POPC   C2B53120  23.189  33.130   6.639
 4116POPC   C3B53121  23.309  33.266   7.056
 4116POPC   C4B53122  23.136  33.273   7.469
 4117POPC   NC353123  23.696  17.001   5.492
 4117POPC   PO453124  24.017  16.354   5.460
 4117POPC   GL153125  23.937  16.643   5.782
 4117POPC   GL253126  23.571  16.561   5.746
 4117POPC   C1A53127  23.820  16.716   6.221
 4117POPC   D2A53128  24.038  16.763   6.640
 4117POPC   C3A53129  23.853  17.023   6.978
 4117POPC   C4A53130  23.513  16.960   7.260
 4117POPC   C1B53131  23.425  16.306   6.075
 4117POPC   C2B53132  23.413  16.169   6.498
 4117POPC   C3B53133  23.525  16.330   6.888
 4117POPC   C4B53134  23.291  16.503   7.242
 4118POPC   NC353135  12.226  43.359   5.572
 4118POPC   PO453136  12.193  43.940   5.171
 4118POPC   GL153137  12.099  43.940   5.629
 4118POPC   GL253138  11.737  44.008   5.705
 4118POPC   C1A53139  12.187  43.826   6.086
 4118POPC   D2A53140  12.345  43.609   6.498
 4118POPC   C3A53141  12.278  43.886   6.886
 4118POPC   C4A53142  12.196  44.274   7.149
 4118POPC   C1B53143  11.623  43.910   6.119
 4118POPC   C2B53144  11.535  44.053   6.532
 4118POPC   C3B53145  11.773  44.118   6.898
 4118POPC   C4B53146  11.840  43.900   7.273
 4119POPC   NC353147   2.160   8.982   5.420
 4119POPC   PO453148   2.576   9.473   5.557
 4119POPC   GL153149   2.295   9.192   5.871
 4119POPC   GL253150   1.911   9.089   5.858
 4119POPC   C1A53151   2.184   9.049   6.287
 4119POPC   D2A53152   2.255   9.241   6.687
 4119POPC   C3A53153   2.191   8.952   7.032
 4119POPC   C4A53154   2.099   9.156   7.427
 4119POPC   C1B53155   1.776   8.769   6.205
 4119POPC   C2B53156   1.872   8.578   6.648
 4119POPC   C3B53157   1.796   8.614   7.120
 4119POPC   C4B53158   1.870   8.676   7.585
 4120POPC   NC353159  26.898  42.824   5.561
 4120POPC   PO453160  27.009  43.402   5.398
 4120POPC   GL153161  26.739  43.384   5.802
 4120POPC   GL253162  26.536  43.057   5.851
 4120POPC   C1A53163  26.771  43.303   6.260
 4120POPC   D2A53164  26.966  42.957   6.471
 4120POPC   C3A53165  26.964  42.938   6.942
 4120POPC   C4A53166  26.768  43.246   7.254
 4120POPC   C1B53167  26.449  42.909   6.284
 4120POPC   C2B53168  26.515  43.026   6.725
 4120POPC   C3B53169  26.504  42.824   7.171
 4120POPC   C4B53170  26.333  42.700   7.567
 4121POPC   NC353171   6.384  40.277   5.394
 4121POPC   PO453172   7.009  40.043   5.180
 4121POPC   GL153173   6.765  40.022   5.667
 4121POPC   GL253174   6.465  40.103   5.858
 4121POPC   C1A53175   6.882  40.003   6.183
 4121POPC   D2A53176   6.904  40.237   6.598
 4121POPC   C3A53177   6.886  40.044   7.025
 4121POPC   C4A53178   6.680  39.917   7.454
 4121POPC   C1B53179   6.395  40.085   6.278
 4121POPC   C2B53180   6.400  40.293   6.639
 4121POPC   C3B53181   6.398  40.107   6.995
 4121POPC   C4B53182   6.557  40.366   7.311
 4122POPC   NC353183  19.508   0.073   5.505
 4122POPC   PO453184  19.134  44.462   5.360
 4122POPC   GL153185  19.084  44.682   5.722
 4122POPC   GL253186  19.373  44.634   5.909
 4122POPC   C1A53187  18.928  44.687   6.154
 4122POPC   D2A53188  18.808  44.803   6.569
 4122POPC   C3A53189  18.947  44.593   6.954
 4122POPC   C4A53190  19.131  44.868   7.295
 4122POPC   C1B53191  19.410  44.732   6.361
 4122POPC   C2B53192  19.379  44.789   6.809
 4122POPC   C3B53193  19.508  44.554   7.184
 4122POPC   C4B53194  19.430  44.552   7.662
 4123POPC   NC353195   8.135  34.867   5.457
 4123POPC   PO453196   8.704  34.518   5.329
 4123POPC   GL153197   8.436  34.574   5.751
 4123POPC   GL253198   8.451  34.297   5.930
 4123POPC   C1A53199   8.374  34.757   6.184
 4123POPC   D2A53200   8.498  34.718   6.641
 4123POPC   C3A53201   8.167  34.792   6.946
 4123POPC   C4A53202   8.158  34.596   7.319
 4123POPC   C1B53203   8.584  34.294   6.333
 4123POPC   C2B53204   8.544  34.112   6.730
 4123POPC   C3B53205   8.538  34.249   7.170
 4123POPC   C4B53206   8.449  34.316   7.654
 4124POPC   NC353207  40.650  18.831   5.062
 4124POPC   PO453208  40.851  19.290   5.419
 4124POPC   GL153209  40.744  19.039   5.811
 4124POPC   GL253210  40.485  18.747   5.752
 4124POPC   C1A53211  40.849  19.043   6.268
 4124POPC   D2A53212  40.996  19.053   6.697
 4124POPC   C3A53213  40.756  19.298   6.961
 4124POPC   C4A53214  40.478  19.319   7.291
 4124POPC   C1B53215  40.593  18.577   6.172
 4124POPC   C2B53216  40.517  18.733   6.607
 4124POPC   C3B53217  40.599  18.834   7.053
 4124POPC   C4B53218  40.415  18.702   7.446
 4125POPC   NC353219  21.623  34.210   5.315
 4125POPC   PO453220  21.250  33.662   5.434
 4125POPC   GL153221  21.443  33.719   5.757
 4125POPC   GL253222  21.507  34.068   5.791
 4125POPC   C1A53223  21.578  33.584   6.114
 4125POPC   D2A53224  21.413  33.598   6.481
 4125POPC   C3A53225  21.639  33.745   6.829
 4125POPC   C4A53226  21.495  33.628   7.233
 4125POPC   C1B53227  21.301  34.017   6.183
 4125POPC   C2B53228  21.277  34.069   6.615
 4125POPC   C3B53229  21.272  34.051   7.047
 4125POPC   C4B53230  21.630  34.199   7.274
 4126POPC   NC353231  33.473   2.719   5.306
 4126POPC   PO453232  32.806   2.812   5.313
 4126POPC   GL153233  33.040   2.768   5.693
 4126POPC   GL253234  33.192   3.094   5.720
 4126POPC   C1A53235  32.964   2.658   6.138
 4126POPC   D2A53236  33.044   2.430   6.504
 4126POPC   C3A53237  32.965   2.613   6.887
 4126POPC   C4A53238  33.230   2.689   7.219
 4126POPC   C1B53239  33.160   3.142   6.174
 4126POPC   C2B53240  33.292   2.985   6.583
 4126POPC   C3B53241  33.074   3.109   6.946
 4126POPC   C4B53242  32.959   3.107   7.353
 4127POPC   NC353243  41.091   8.714   5.457
 4127POPC   PO453244  40.494   8.897   5.496
 4127POPC   GL153245  40.777   8.822   5.874
 4127POPC   GL253246  41.072   9.068   5.853
 4127POPC   C1A53247  40.677   8.794   6.334
 4127POPC   D2A53248  40.793   8.995   6.706
 4127POPC   C3A53249  40.713   8.856   7.114
 4127POPC   C4A53250  40.571   9.033   7.497
 4127POPC   C1B53251  41.140   9.019   6.292
 4127POPC   C2B53252  41.301   9.123   6.682
 4127POPC   C3B53253  41.110   9.177   7.063
 4127POPC   C4B53254  41.082   9.037   7.453
 4128POPC   NC353255  38.766  27.871   5.626
 4128POPC   PO453256  39.287  27.381   5.423
 4128POPC   GL153257  39.396  27.521   5.804
 4128POPC   GL253258  39.126  27.691   5.927
 4128POPC   C1A53259  39.392  27.362   6.218
 4128POPC   D2A53260  39.080  27.316   6.538
 4128POPC   C3A53261  39.262  27.344   6.931
 4128POPC   C4A53262  39.213  27.472   7.352
 4128POPC   C1B53263  39.063  27.811   6.364
 4128POPC   C2B53264  39.064  27.826   6.823
 4128POPC   C3B53265  39.228  27.972   7.209
 4128POPC   C4B53266  39.069  27.910   7.626
 4129POPC   NC353267  26.795  15.558   5.440
 4129POPC   PO453268  26.488  16.177   5.461
 4129POPC   GL153269  26.668  15.950   5.795
 4129POPC   GL253270  26.374  15.760   5.855
 4129POPC   C1A53271  26.986  15.857   6.130
 4129POPC   D2A53272  27.166  15.809   6.560
 4129POPC   C3A53273  26.970  16.076   6.860
 4129POPC   C4A53274  26.964  16.265   7.254
 4129POPC   C1B53275  26.476  15.856   6.284
 4129POPC   C2B53276  26.562  15.745   6.726
 4129POPC   C3B53277  26.660  15.821   7.176
 4129POPC   C4B53278  27.120  15.740   7.269
 4130POPC   NC353279  37.762  12.417   5.546
 4130POPC   PO453280  38.048  11.762   5.704
 4130POPC   GL153281  37.877  12.080   5.969
 4130POPC   GL253282  37.525  12.066   5.876
 4130POPC   C1A53283  37.746  12.118   6.409
 4130POPC   D2A53284  37.420  11.982   6.719
 4130POPC   C3A53285  37.637  11.956   7.123
 4130POPC   C4A53286  37.693  12.100   7.553
 4130POPC   C1B53287  37.280  12.204   6.220
 4130POPC   C2B53288  37.387  12.452   6.521
 4130POPC   C3B53289  37.681  12.400   6.855
 4130POPC   C4B53290  37.490  12.437   7.238
 4131POPC   NC353291  39.558  41.728   5.452
 4131POPC   PO453292  38.971  41.709   5.267
 4131POPC   GL153293  39.081  41.583   5.723
 4131POPC   GL253294  38.884  41.294   5.809
 4131POPC   C1A53295  39.105  41.628   6.164
 4131POPC   D2A53296  39.009  41.458   6.567
 4131POPC   C3A53297  39.193  41.716   6.858
 4131POPC   C4A53298  39.107  41.806   7.255
 4131POPC   C1B53299  39.101  41.125   6.176
 4131POPC   C2B53300  39.383  41.106   6.531
 4131POPC   C3B53301  39.293  41.233   6.934
 4131POPC   C4B53302  38.905  41.291   7.095
 4132POPC   NC353303   8.645  23.375   5.435
 4132POPC   PO453304   9.238  23.055   5.354
 4132POPC   GL153305   9.133  22.810   5.794
 4132POPC   GL253306   8.813  22.785   6.049
 4132POPC   C1A53307   9.261  22.823   6.258
 4132POPC   D2A53308   8.961  22.995   6.585
 4132POPC   C3A53309   8.969  22.803   6.981
 4132POPC   C4A53310   8.736  22.656   7.313
 4132POPC   C1B53311   8.522  23.099   6.245
 4132POPC   C2B53312   8.512  23.327   6.636
 4132POPC   C3B53313   8.516  23.099   7.015
 4132POPC   C4B53314   8.376  23.022   7.438
 4133POPC   NC353315  40.357  25.313   5.367
 4133POPC   PO453316  41.031  25.097   5.420
 4133POPC   GL153317  40.858  25.408   5.750
 4133POPC   GL253318  40.511  25.463   5.840
 4133POPC   C1A53319  40.805  25.220   6.169
 4133POPC   D2A53320  40.679  25.215   6.582
 4133POPC   C3A53321  40.998  25.304   6.872
 4133POPC   C4A53322  40.882  25.249   7.295
 4133POPC   C1B53323  40.454  25.698   6.217
 4133POPC   C2B53324  40.616  25.725   6.637
 4133POPC   C3B53325  40.550  25.516   7.012
 4133POPC   C4B53326  40.326  25.429   7.364
 4134POPC   NC353327  29.086  41.291   5.254
 4134POPC   PO453328  29.664  41.555   5.384
 4134POPC   GL153329  29.434  41.732   5.732
 4134POPC   GL253330  29.103  41.573   5.704
 4134POPC   C1A53331  29.396  41.637   6.174
 4134POPC   D2A53332  29.515  41.417   6.540
 4134POPC   C3A53333  29.361  41.470   6.949
 4134POPC   C4A53334  29.114  41.562   7.310
 4134POPC   C1B53335  28.895  41.580   6.098
 4134POPC   C2B53336  29.007  41.433   6.509
 4134POPC   C3B53337  28.842  41.430   6.900
 4134POPC   C4B53338  28.601  41.569   7.239
 4135POPC   NC353339  19.377  22.416   5.322
 4135POPC   PO453340  18.850  22.020   5.539
 4135POPC   GL153341  19.205  22.105   5.756
 4135POPC   GL253342  19.148  22.422   5.813
 4135POPC   C1A53343  19.230  22.071   6.179
 4135POPC   D2A53344  19.211  22.335   6.523
 4135POPC   C3A53345  18.957  22.168   6.865
 4135POPC   C4A53346  19.077  22.205   7.285
 4135POPC   C1B53347  18.823  22.413   6.199
 4135POPC   C2B53348  18.705  22.545   6.653
 4135POPC   C3B53349  18.706  22.546   7.135
 4135POPC   C4B53350  18.876  22.541   7.601
 4136POPC   NC353351  40.210  29.529   5.436
 4136POPC   PO453352  39.918  28.978   5.403
 4136POPC   GL153353  39.882  29.259   5.764
 4136POPC   GL253354  40.214  29.266   5.886
 4136POPC   C1A53355  39.608  29.370   6.122
 4136POPC   D2A53356  39.573  29.138   6.505
 4136POPC   C3A53357  39.646  29.287   6.921
 4136POPC   C4A53358  39.772  28.980   7.204
 4136POPC   C1B53359  40.065  29.153   6.294
 4136POPC   C2B53360  40.236  29.130   6.721
 4136POPC   C3B53361  40.273  28.982   7.146
 4136POPC   C4B53362  40.099  29.167   7.535
 4137POPC   NC353363  39.090  26.968   5.470
 4137POPC   PO453364  39.543  26.627   5.730
 4137POPC   GL153365  39.184  26.770   5.960
 4137POPC   GL253366  39.040  27.127   5.945
 4137POPC   C1A53367  39.322  26.876   6.365
 4137POPC   D2A53368  39.293  26.849   6.791
 4137POPC   C3A53369  39.427  26.665   7.160
 4137POPC   C4A53370  39.560  26.550   7.570
 4137POPC   C1B53371  38.807  26.919   6.300
 4137POPC   C2B53372  38.791  26.936   6.757
 4137POPC   C3B53373  38.975  26.999   7.159
 4137POPC   C4B53374  38.860  27.107   7.557
 4138POPC   NC353375  42.936   1.408   5.540
 4138POPC   PO453376  43.135   0.824   5.527
 4138POPC   GL153377  43.171   1.078   5.863
 4138POPC   GL253378  43.495   1.159   5.880
 4138POPC   C1A53379  43.005   1.245   6.251
 4138POPC   D2A53380  43.159   1.196   6.665
 4138POPC   C3A53381  43.092   1.503   6.987
 4138POPC   C4A53382  43.089   1.195   7.317
 4138POPC   C1B53383  43.440   0.948   6.284
 4138POPC   C2B53384  43.502   0.749   6.697
 4138POPC   C3B53385  43.350   0.803   7.100
 4138POPC   C4B53386  43.544   0.988   7.475
 4139POPC   NC353387  43.186  41.244   5.472
 4139POPC   PO453388  42.850  40.651   5.462
 4139POPC   GL153389  43.006  40.893   5.804
 4139POPC   GL253390  43.002  40.567   5.952
 4139POPC   C1A53391  43.190  41.021   6.207
 4139POPC   D2A53392  43.043  40.955   6.633
 4139POPC   C3A53393  43.281  40.760   6.994
 4139POPC   C4A53394  43.096  40.802   7.433
 4139POPC   C1B53395  42.876  40.327   6.282
 4139POPC   C2B53396  43.024  40.447   6.660
 4139POPC   C3B53397  42.804  40.591   7.039
 4139POPC   C4B53398  42.805  40.389   7.430
 4140POPC   NC353399   5.982  15.527   5.365
 4140POPC   PO453400   5.904  14.899   5.462
 4140POPC   GL153401   6.035  15.183   5.815
 4140POPC   GL253402   5.800  15.481   5.854
 4140POPC   C1A53403   5.843  15.145   6.250
 4140POPC   D2A53404   5.800  15.373   6.629
 4140POPC   C3A53405   5.984  15.302   7.031
 4140POPC   C4A53406   6.058  15.360   7.458
 4140POPC   C1B53407   5.546  15.617   6.223
 4140POPC   C2B53408   5.355  15.611   6.643
 4140POPC   C3B53409   5.449  15.348   7.032
 4140POPC   C4B53410   5.539  15.424   7.472
 4141POPC   NC353411   7.064  22.836   5.415
 4141POPC   PO453412   7.555  23.242   5.293
 4141POPC   GL153413   7.417  23.174   5.773
 4141POPC   GL253414   7.369  22.843   5.849
 4141POPC   C1A53415   7.523  23.167   6.263
 4141POPC   D2A53416   7.678  22.807   6.583
 4141POPC   C3A53417   7.552  22.867   7.037
 4141POPC   C4A53418   7.401  23.297   7.128
 4141POPC   C1B53419   7.211  22.771   6.282
 4141POPC   C2B53420   7.209  22.997   6.682
 4141POPC   C3B53421   7.023  22.960   7.084
 4141POPC   C4B53422   7.068  22.734   7.445
 4142POPC   NC353423  33.770  24.799   5.485
 4142POPC   PO453424  33.473  24.292   5.411
 4142POPC   GL153425  33.599  24.366   5.799
 4142POPC   GL253426  33.943  24.441   5.833
 4142POPC   C1A53427  33.593  24.638   6.159
 4142POPC   D2A53428  33.823  24.616   6.531
 4142POPC   C3A53429  33.677  24.461   6.897
 4142POPC   C4A53430  33.800  24.521   7.322
 4142POPC   C1B53431  33.919  24.170   6.223
 4142POPC   C2B53432  34.142  24.184   6.634
 4142POPC   C3B53433  34.081  24.162   7.085
 4142POPC   C4B53434  34.097  24.130   7.543
 4143POPC   NC353435  43.624  21.525   5.547
 4143POPC   PO453436  44.233  21.692   5.533
 4143POPC   GL153437  44.007  21.531   5.898
 4143POPC   GL253438  43.623  21.585   6.038
 4143POPC   C1A53439  43.982  21.251   6.242
 4143POPC   D2A53440  43.767  21.518   6.542
 4143POPC   C3A53441  43.760  21.465   6.976
 4143POPC   C4A53442  43.921  21.098   7.135
 4143POPC   C1B53443  43.487  21.166   6.182
 4143POPC   C2B53444  43.663  21.002   6.581
 4143POPC   C3B53445  43.442  21.010   6.982
 4143POPC   C4B53446  43.434  21.067   7.411
 4144POPC   NC353447  44.997   8.193   5.465
 4144POPC   PO453448  44.493   7.789   5.562
 4144POPC   GL153449  44.746   8.013   5.875
 4144POPC   GL253450  44.759   8.384   5.886
 4144POPC   C1A53451  44.950   8.096   6.270
 4144POPC   D2A53452  44.743   8.104   6.678
 4144POPC   C3A53453  44.970   8.025   7.054
 4144POPC   C4A53454  44.896   8.385   7.288
 4144POPC   C1B53455  44.495   8.346   6.262
 4144POPC   C2B53456  44.252   8.266   6.626
 4144POPC   C3B53457  44.374   8.256   7.049
 4144POPC   C4B53458  44.444   8.276   7.471
 4145POPC   NC353459   0.770  13.854   5.336
 4145POPC   PO453460   0.301  13.359   5.371
 4145POPC   GL153461   0.325  13.460   5.802
 4145POPC   GL253462   0.577  13.706   5.808
 4145POPC   C1A53463   0.067  13.417   6.196
 4145POPC   D2A53464   0.020  13.570   6.631
 4145POPC   C3A53465   0.361  13.529   6.930
 4145POPC   C4A53466   0.165  13.393   7.263
 4145POPC   C1B53467   0.424  13.767   6.203
 4145POPC   C2B53468   0.610  13.762   6.555
 4145POPC   C3B53469   0.685  13.940   6.930
 4145POPC   C4B53470   0.579  13.829   7.316
 4146POPC   NC353471  23.785  19.690   5.374
 4146POPC   PO453472  23.664  20.355   5.378
 4146POPC   GL153473  23.612  20.147   5.776
 4146POPC   GL253474  23.435  20.398   5.960
 4146POPC   C1A53475  23.568  19.976   6.237
 4146POPC   D2A53476  23.680  19.734   6.639
 4146POPC   C3A53477  23.536  19.727   7.084
 4146POPC   C4A53478  23.906  19.662   7.314
 4146POPC   C1B53479  23.776  20.449   6.265
 4146POPC   C2B53480  23.763  20.258   6.688
 4146POPC   C3B53481  23.864  20.133   7.119
 4146POPC   C4B53482  23.929  20.360   7.512
 4147POPC   NC353483  31.147  15.580   5.520
 4147POPC   PO453484  31.325  14.957   5.250
 4147POPC   GL153485  31.424  15.155   5.692
 4147POPC   GL253486  31.163  15.179   5.856
 4147POPC   C1A53487  31.571  15.306   6.118
 4147POPC   D2A53488  31.599  15.049   6.472
 4147POPC   C3A53489  31.569  15.241   6.875
 4147POPC   C4A53490  31.486  15.530   7.218
 4147POPC   C1B53491  31.087  15.106   6.270
 4147POPC   C2B53492  31.129  15.017   6.687
 4147POPC   C3B53493  31.082  15.163   7.070
 4147POPC   C4B53494  30.972  15.039   7.479
 4148POPC   NC353495   5.237  30.955   5.308
 4148POPC   PO453496   5.158  30.440   5.592
 4148POPC   GL153497   5.061  30.852   5.783
 4148POPC   GL253498   4.717  30.954   5.740
 4148POPC   C1A53499   5.045  30.906   6.221
 4148POPC   D2A53500   5.213  30.610   6.532
 4148POPC   C3A53501   5.293  30.820   6.908
 4148POPC   C4A53502   5.181  30.952   7.324
 4148POPC   C1B53503   4.660  30.605   6.022
 4148POPC   C2B53504   4.694  30.476   6.449
 4148POPC   C3B53505   4.811  30.611   6.870
 4148POPC   C4B53506   4.591  30.548   7.225
 4149POPC   NC353507  37.369  15.700   5.488
 4149POPC   PO453508  36.760  15.953   5.310
 4149POPC   GL153509  36.796  16.017   5.768
 4149POPC   GL253510  37.128  15.848   5.912
 4149POPC   C1A53511  36.705  15.906   6.198
 4149POPC   D2A53512  36.761  15.745   6.619
 4149POPC   C3A53513  36.534  15.919   6.967
 4149POPC   C4A53514  36.628  16.057   7.380
 4149POPC   C1B53515  37.096  15.526   6.261
 4149POPC   C2B53516  37.193  15.506   6.738
 4149POPC   C3B53517  36.988  15.691   7.130
 4149POPC   C4B53518  36.986  15.583   7.574
 4150POPC   NC353519  22.901  42.847   5.435
 4150POPC   PO453520  23.242  43.342   5.260
 4150POPC   GL153521  23.127  43.380   5.711
 4150POPC   GL253522  23.194  43.036   5.822
 4150POPC   C1A53523  22.956  43.357   6.142
 4150POPC   D2A53524  23.021  43.135   6.532
 4150POPC   C3A53525  22.963  43.316   6.935
 4150POPC   C4A53526  23.137  43.277   7.342
 4150POPC   C1B53527  22.965  42.799   6.125
 4150POPC   C2B53528  22.874  42.632   6.516
 4150POPC   C3B53529  22.858  42.803   6.903
 4150POPC   C4B53530  22.998  42.806   7.316
 4151POPC   NC353531  20.140  24.621   5.012
 4151POPC   PO453532  19.667  24.243   5.360
 4151POPC   GL153533  19.765  24.339   5.801
 4151POPC   GL253534  20.056  24.539   5.786
 4151POPC   C1A53535  19.677  24.451   6.215
 4151POPC   D2A53536  19.574  24.164   6.525
 4151POPC   C3A53537  19.645  24.431   6.850
 4151POPC   C4A53538  19.683  24.414   7.262
 4151POPC   C1B53539  20.186  24.573   6.224
 4151POPC   C2B53540  20.075  24.744   6.652
 4151POPC   C3B53541  20.145  24.526   7.056
 4151POPC   C4B53542  20.166  24.636   7.544
 4152POPC   NC353543  42.730  24.629   5.384
 4152POPC   PO453544  43.386  24.610   5.419
 4152POPC   GL153545  43.244  24.498   5.847
 4152POPC   GL253546  42.906  24.656   5.886
 4152POPC   C1A53547  43.261  24.243   6.266
 4152POPC   D2A53548  43.497  24.151   6.691
 4152POPC   C3A53549  43.403  24.315   7.135
 4152POPC   C4A53550  43.355  24.447   7.608
 4152POPC   C1B53551  43.127  24.755   6.282
 4152POPC   C2B53552  43.210  24.580   6.662
 4152POPC   C3B53553  42.984  24.579   6.982
 4152POPC   C4B53554  42.946  24.329   7.336
 4153POPC   NC353555  18.611  44.198   5.111
 4153POPC   PO453556  18.320  43.707   5.412
 4153POPC   GL153557  18.477  43.698   5.840
 4153POPC   GL253558  18.183  43.509   5.858
 4153POPC   C1A53559  18.429  43.917   6.286
 4153POPC   D2A53560  18.179  44.168   6.627
 4153POPC   C3A53561  18.302  44.177   7.093
 4153POPC   C4A53562  18.027  44.112   7.453
 4153POPC   C1B53563  17.950  43.476   6.181
 4153POPC   C2B53564  18.019  43.686   6.531
 4153POPC   C3B53565  18.061  43.758   6.942
 4153POPC   C4B53566  18.389  43.671   7.219
 4154POPC   NC353567   2.513  31.442   5.251
 4154POPC   PO453568   2.946  31.832   5.593
 4154POPC   GL153569   2.672  31.517   5.766
 4154POPC   GL253570   2.952  31.406   5.954
 4154POPC   C1A53571   2.511  31.296   6.155
 4154POPC   D2A53572   2.672  31.388   6.560
 4154POPC   C3A53573   2.668  31.102   6.901
 4154POPC   C4A53574   2.655  31.359   7.272
 4154POPC   C1B53575   3.043  31.736   6.241
 4154POPC   C2B53576   2.947  31.850   6.625
 4154POPC   C3B53577   2.936  31.606   6.951
 4154POPC   C4B53578   3.071  31.665   7.380
 4155POPC   NC353579  37.343  28.409   5.059
 4155POPC   PO453580  37.906  28.651   5.377
 4155POPC   GL153581  37.764  28.310   5.707
 4155POPC   GL253582  37.419  28.104   5.685
 4155POPC   C1A53583  37.590  28.447   6.140
 4155POPC   D2A53584  37.435  28.656   6.527
 4155POPC   C3A53585  37.581  28.562   6.971
 4155POPC   C4A53586  37.879  28.659   7.322
 4155POPC   C1B53587  37.217  28.099   6.091
 4155POPC   C2B53588  37.393  28.111   6.497
 4155POPC   C3B53589  37.302  27.984   6.899
 4155POPC   C4B53590  37.299  28.232   7.245
 4156POPC   NC353591  44.348  28.924   5.471
 4156POPC   PO453592  43.655  28.907   5.266
 4156POPC   GL153593  43.781  29.078   5.675
 4156POPC   GL253594  44.056  29.325   5.673
 4156POPC   C1A53595  43.922  29.038   6.116
 4156POPC   D2A53596  43.731  29.149   6.512
 4156POPC   C3A53597  43.693  28.917   6.899
 4156POPC   C4A53598  43.765  29.119   7.301
 4156POPC   C1B53599  44.219  29.477   6.076
 4156POPC   C2B53600  44.234  29.292   6.489
 4156POPC   C3B53601  44.165  29.137   6.869
 4156POPC   C4B53602  44.265  29.197   7.272
 4157POPC   NC353603  11.006  10.236   5.453
 4157POPC   PO453604  11.578  10.578   5.353
 4157POPC   GL153605  11.318  10.555   5.710
 4157POPC   GL253606  11.385  10.856   5.852
 4157POPC   C1A53607  11.132  10.498   6.103
 4157POPC   D2A53608  11.132  10.278   6.452
 4157POPC   C3A53609  11.162  10.359   6.855
 4157POPC   C4A53610  11.290  10.035   7.123
 4157POPC   C1B53611  11.583  10.745   6.191
 4157POPC   C2B53612  11.587  10.545   6.542
 4157POPC   C3B53613  11.522  10.736   6.912
 4157POPC   C4B53614  11.373  10.540   7.281
 4158POPC   NC353615   0.278  22.653   5.121
 4158POPC   PO453616   0.770  23.044   5.408
 4158POPC   GL153617   0.648  22.887   5.821
 4158POPC   GL253618   0.280  22.985   5.883
 4158POPC   C1A53619   0.775  22.877   6.277
 4158POPC   D2A53620   0.697  22.885   6.747
 4158POPC   C3A53621   0.271  23.007   6.855
 4158POPC   C4A53622   0.216  23.241   7.223
 4158POPC   C1B53623   0.324  22.668   6.208
 4158POPC   C2B53624   0.466  22.421   6.529
 4158POPC   C3B53625   0.414  22.503   6.942
 4158POPC   C4B53626   0.462  22.783   7.283
 4159POPC   NC353627  18.377  35.800   5.511
 4159POPC   PO453628  18.136  36.441   5.592
 4159POPC   GL153629  18.218  36.145   5.852
 4159POPC   GL253630  18.570  36.163   5.803
 4159POPC   C1A53631  18.117  36.018   6.253
 4159POPC   D2A53632  17.982  36.134   6.632
 4159POPC   C3A53633  18.048  35.976   7.008
 4159POPC   C4A53634  18.093  36.317   7.265
 4159POPC   C1B53635  18.550  36.314   6.199
 4159POPC   C2B53636  18.426  36.417   6.593
 4159POPC   C3B53637  18.519  36.237   7.003
 4159POPC   C4B53638  18.586  36.348   7.441
 4160POPC   NC353639   6.889  22.072   5.134
 4160POPC   PO453640   7.408  22.226   5.510
 4160POPC   GL153641   7.586  22.073   5.874
 4160POPC   GL253642   7.430  22.365   6.016
 4160POPC   C1A53643   7.497  21.970   6.306
 4160POPC   D2A53644   7.303  21.802   6.686
 4160POPC   C3A53645   7.517  21.900   7.086
 4160POPC   C4A53646   7.267  21.973   7.438
 4160POPC   C1B53647   7.078  22.265   6.300
 4160POPC   C2B53648   7.140  22.346   6.720
 4160POPC   C3B53649   7.267  22.381   7.127
 4160POPC   C4B53650   7.510  22.546   7.440
 4161POPC   NC353651  11.287   6.881   5.434
 4161POPC   PO453652  11.190   6.220   5.566
 4161POPC   GL153653  11.358   6.405   5.907
 4161POPC   GL253654  11.227   6.736   5.927
 4161POPC   C1A53655  11.433   6.408   6.327
 4161POPC   D2A53656  11.379   6.681   6.681
 4161POPC   C3A53657  11.299   6.524   7.108
 4161POPC   C4A53658  10.873   6.399   7.237
 4161POPC   C1B53659  11.451   6.976   6.237
 4161POPC   C2B53660  11.769   7.023   6.570
 4161POPC   C3B53661  11.671   6.952   7.000
 4161POPC   C4B53662  11.521   7.071   7.353
 4162POPC   NC353663   9.588   8.086   5.135
 4162POPC   PO453664   9.958   8.523   5.476
 4162POPC   GL153665   9.760   8.252   5.769
 4162POPC   GL253666   9.933   8.008   5.953
 4162POPC   C1A53667   9.549   8.321   6.147
 4162POPC   D2A53668   9.748   8.172   6.486
 4162POPC   C3A53669   9.602   8.306   6.852
 4162POPC   C4A53670   9.597   8.582   7.159
 4162POPC   C1B53671   9.574   7.810   6.149
 4162POPC   C2B53672   9.578   7.678   6.554
 4162POPC   C3B53673   9.807   7.831   6.873
 4162POPC   C4B53674   9.662   7.987   7.240
 4163POPC   NC353675  18.609  12.313   5.423
 4163POPC   PO453676  18.218  11.878   5.234
 4163POPC   GL153677  18.346  12.032   5.744
 4163POPC   GL253678  18.062  12.030   5.908
 4163POPC   C1A53679  18.356  12.282   6.213
 4163POPC   D2A53680  18.488  12.459   6.633
 4163POPC   C3A53681  18.338  12.217   6.988
 4163POPC   C4A53682  18.490  12.048   7.370
 4163POPC   C1B53683  18.228  11.786   6.231
 4163POPC   C2B53684  18.129  11.923   6.617
 4163POPC   C3B53685  18.123  11.736   7.000
 4163POPC   C4B53686  18.201  11.598   7.408
 4164POPC   NC353687  10.914  41.313   5.586
 4164POPC   PO453688  10.509  41.786   5.240
 4164POPC   GL153689  10.458  41.676   5.709
 4164POPC   GL253690  10.216  41.515   5.836
 4164POPC   C1A53691  10.627  41.697   6.152
 4164POPC   D2A53692  10.485  41.587   6.555
 4164POPC   C3A53693  10.667  41.548   6.908
 4164POPC   C4A53694  10.529  41.563   7.293
 4164POPC   C1B53695  10.120  41.747   6.219
 4164POPC   C2B53696  10.038  41.856   6.634
 4164POPC   C3B53697  10.129  41.657   6.995
 4164POPC   C4B53698  10.132  41.887   7.379
 4165POPC   NC353699  10.856  17.523   5.086
 4165POPC   PO453700  10.500  17.226   5.605
 4165POPC   GL153701  10.505  17.493   5.885
 4165POPC   GL253702  10.673  17.738   5.672
 4165POPC   C1A53703  10.346  17.397   6.289
 4165POPC   D2A53704  10.446  17.219   6.681
 4165POPC   C3A53705  10.370  17.425   7.058
 4165POPC   C4A53706  10.715  17.265   7.277
 4165POPC   C1B53707  10.826  17.810   6.111
 4165POPC   C2B53708  10.760  17.640   6.555
 4165POPC   C3B53709  10.829  17.699   7.012
 4165POPC   C4B53710  10.668  17.748   7.461
 4166POPC   NC353711  31.414   4.422   5.499
 4166POPC   PO453712  31.712   3.779   5.477
 4166POPC   GL153713  31.559   4.034   5.835
 4166POPC   GL253714  31.193   4.072   5.810
 4166POPC   C1A53715  31.634   4.405   6.146
 4166POPC   D2A53716  31.750   4.602   6.553
 4166POPC   C3A53717  31.608   4.377   6.924
 4166POPC   C4A53718  31.632   4.529   7.345
 4166POPC   C1B53719  31.138   4.439   6.112
 4166POPC   C2B53720  31.234   4.516   6.543
 4166POPC   C3B53721  31.086   4.439   6.940
 4166POPC   C4B53722  31.039   4.308   7.314
 4167POPC   NC353723   5.740   5.804   5.239
 4167POPC   PO453724   6.208   6.136   5.605
 4167POPC   GL153725   6.001   5.879   5.937
 4167POPC   GL253726   5.806   5.598   5.784
 4167POPC   C1A53727   5.742   6.058   6.297
 4167POPC   D2A53728   5.583   6.233   6.695
 4167POPC   C3A53729   5.837   6.089   7.044
 4167POPC   C4A53730   5.662   5.999   7.482
 4167POPC   C1B53731   5.596   5.572   6.215
 4167POPC   C2B53732   5.614   5.687   6.656
 4167POPC   C3B53733   5.602   5.661   7.095
 4167POPC   C4B53734   5.942   5.603   7.358
 4168POPC   NC353735  35.925  29.036   5.482
 4168POPC   PO453736  36.408  29.442   5.398
 4168POPC   GL153737  36.283  29.217   5.806
 4168POPC   GL253738  36.250  28.812   5.798
 4168POPC   C1A53739  35.970  29.159   6.152
 4168POPC   D2A53740  35.987  28.986   6.557
 4168POPC   C3A53741  35.923  29.210   6.903
 4168POPC   C4A53742  36.174  29.342   7.226
 4168POPC   C1B53743  36.133  28.623   6.193
 4168POPC   C2B53744  35.957  28.490   6.598
 4168POPC   C3B53745  36.045  28.680   7.003
 4168POPC   C4B53746  35.884  28.913   7.342
 4169POPC   NC353747  26.126  27.077   5.293
 4169POPC   PO453748  25.963  26.415   5.385
 4169POPC   GL153749  25.960  26.771   5.694
 4169POPC   GL253750  26.284  26.903   5.776
 4169POPC   C1A53751  25.936  26.978   6.127
 4169POPC   D2A53752  26.074  26.873   6.557
 4169POPC   C3A53753  25.841  26.992   6.945
 4169POPC   C4A53754  25.764  26.880   7.396
 4169POPC   C1B53755  26.472  26.934   6.191
 4169POPC   C2B53756  26.502  27.164   6.586
 4169POPC   C3B53757  26.383  26.958   6.954
 4169POPC   C4B53758  26.126  26.585   7.074
 4170POPC   NC353759  18.836   5.056   5.516
 4170POPC   PO453760  18.255   5.344   5.545
 4170POPC   GL153761  18.361   5.096   5.914
 4170POPC   GL253762  18.292   4.721   5.883
 4170POPC   C1A53763  18.367   5.269   6.345
 4170POPC   D2A53764  18.127   5.239   6.706
 4170POPC   C3A53765  18.153   5.450   7.086
 4170POPC   C4A53766  18.258   5.277   7.485
 4170POPC   C1B53767  18.053   4.866   6.275
 4170POPC   C2B53768  18.052   4.722   6.720
 4170POPC   C3B53769  18.196   4.908   7.125
 4170POPC   C4B53770  18.454   4.822   7.531
 4171POPC   NC353771  36.504   1.682   5.633
 4171POPC   PO453772  36.124   2.149   5.405
 4171POPC   GL153773  36.205   2.064   5.823
 4171POPC   GL253774  36.038   1.730   5.849
 4171POPC   C1A53775  36.330   1.929   6.246
 4171POPC   D2A53776  36.140   2.042   6.614
 4171POPC   C3A53777  36.316   1.899   6.978
 4171POPC   C4A53778  36.298   2.094   7.359
 4171POPC   C1B53779  35.727   1.937   6.110
 4171POPC   C2B53780  35.615   2.000   6.545
 4171POPC   C3B53781  35.779   1.863   6.943
 4171POPC   C4B53782  35.493   1.744   7.224
 4172POPC   NC353783  32.768  32.574   5.497
 4172POPC   PO453784  32.174  32.247   5.277
 4172POPC   GL153785  32.288  32.363   5.729
 4172POPC   GL253786  31.981  32.551   5.770
 4172POPC   C1A53787  32.446  32.260   6.193
 4172POPC   D2A53788  32.306  32.153   6.626
 4172POPC   C3A53789  32.560  32.271   6.971
 4172POPC   C4A53790  32.833  32.173   7.308
 4172POPC   C1B53791  31.983  32.465   6.215
 4172POPC   C2B53792  32.051  32.590   6.632
 4172POPC   C3B53793  32.064  32.420   7.059
 4172POPC   C4B53794  32.011  32.295   7.504
 4173POPC   NC353795  14.807  34.184   5.623
 4173POPC   PO453796  14.329  33.758   5.398
 4173POPC   GL153797  14.425  33.810   5.805
 4173POPC   GL253798  14.116  34.027   5.868
 4173POPC   C1A53799  14.369  33.719   6.243
 4173POPC   D2A53800  14.216  33.870   6.649
 4173POPC   C3A53801  14.343  33.585   6.965
 4173POPC   C4A53802  14.186  33.262   7.239
 4173POPC   C1B53803  14.439  34.218   6.136
 4173POPC   C2B53804  14.738  34.070   6.431
 4173POPC   C3B53805  14.675  34.060   6.856
 4173POPC   C4B53806  14.413  34.047   7.207
 4174POPC   NC353807   9.357   6.670   5.454
 4174POPC   PO453808   9.917   6.913   5.094
 4174POPC   GL153809   9.841   6.749   5.637
 4174POPC   GL253810   9.660   6.390   5.747
 4174POPC   C1A53811   9.563   6.798   6.101
 4174POPC   D2A53812   9.459   6.641   6.575
 4174POPC   C3A53813   9.657   6.767   6.997
 4174POPC   C4A53814   9.942   6.615   7.340
 4174POPC   C1B53815   9.869   6.404   6.148
 4174POPC   C2B53816   9.930   6.379   6.584
 4174POPC   C3B53817   9.770   6.241   6.952
 4174POPC   C4B53818   9.552   6.274   7.332
 4175POPC   NC353819  19.660  36.964   5.478
 4175POPC   PO453820  20.308  36.927   5.667
 4175POPC   GL153821  20.009  36.730   5.845
 4175POPC   GL253822  20.232  36.425   5.807
 4175POPC   C1A53823  19.696  36.808   6.172
 4175POPC   D2A53824  19.762  36.724   6.610
 4175POPC   C3A53825  20.018  37.023   6.899
 4175POPC   C4A53826  19.839  37.172   7.303
 4175POPC   C1B53827  20.049  36.408   6.240
 4175POPC   C2B53828  20.226  36.510   6.631
 4175POPC   C3B53829  20.062  36.539   7.050
 4175POPC   C4B53830  19.642  36.736   7.095
 4176POPC   NC353831  15.272   8.685   5.307
 4176POPC   PO453832  14.924   9.300   5.306
 4176POPC   GL153833  15.034   9.002   5.700
 4176POPC   GL253834  15.387   8.899   5.758
 4176POPC   C1A53835  15.095   8.862   6.154
 4176POPC   D2A53836  15.148   9.048   6.557
 4176POPC   C3A53837  15.042   8.896   6.956
 4176POPC   C4A53838  15.321   9.065   7.249
 4176POPC   C1B53839  15.529   8.585   6.048
 4176POPC   C2B53840  15.446   8.567   6.485
 4176POPC   C3B53841  15.513   8.693   6.910
 4176POPC   C4B53842  15.335   8.554   7.297
 4177POPC   NC353843  42.630  26.395   5.402
 4177POPC   PO453844  42.436  27.042   5.427
 4177POPC   GL153845  42.488  26.791   5.759
 4177POPC   GL253846  42.271  26.508   5.745
 4177POPC   C1A53847  42.586  26.857   6.203
 4177POPC   D2A53848  42.338  26.761   6.586
 4177POPC   C3A53849  42.524  26.903   6.990
 4177POPC   C4A53850  42.316  27.136   7.322
 4177POPC   C1B53851  42.404  26.369   6.152
 4177POPC   C2B53852  42.433  26.205   6.565
 4177POPC   C3B53853  42.323  26.387   6.941
 4177POPC   C4B53854  42.029  26.736   7.091
 4178POPC   NC353855  30.492  11.832   4.986
 4178POPC   PO453856  30.803  12.106   5.534
 4178POPC   GL153857  30.908  11.871   5.891
 4178POPC   GL253858  31.023  12.179   6.010
 4178POPC   C1A53859  30.704  11.915   6.307
 4178POPC   D2A53860  30.441  12.188   6.544
 4178POPC   C3A53861  30.568  12.143   6.953
 4178POPC   C4A53862  30.641  12.039   7.392
 4178POPC   C1B53863  30.890  12.417   6.377
 4178POPC   C2B53864  31.049  12.200   6.683
 4178POPC   C3B53865  31.060  12.026   7.047
 4178POPC   C4B53866  31.083  12.289   7.366
 4179POPC   NC353867  22.599   3.341   5.473
 4179POPC   PO453868  21.971   3.671   5.537
 4179POPC   GL153869  22.180   3.794   5.904
 4179POPC   GL253870  22.554   3.709   5.842
 4179POPC   C1A53871  21.965   3.751   6.319
 4179POPC   D2A53872  21.818   3.340   6.504
 4179POPC   C3A53873  21.886   3.268   6.947
 4179POPC   C4A53874  21.898   3.383   7.389
 4179POPC   C1B53875  22.492   3.741   6.295
 4179POPC   C2B53876  22.323   3.555   6.685
 4179POPC   C3B53877  22.287   3.569   7.138
 4179POPC   C4B53878  22.248   3.683   7.588
 4180POPC   NC353879   4.068  39.645   5.556
 4180POPC   PO453880   3.580  40.060   5.277
 4180POPC   GL153881   3.678  39.937   5.759
 4180POPC   GL253882   3.979  40.126   5.906
 4180POPC   C1A53883   3.532  39.927   6.233
 4180POPC   D2A53884   3.340  40.213   6.577
 4180POPC   C3A53885   3.339  40.075   7.011
 4180POPC   C4A53886   3.627  39.780   7.190
 4180POPC   C1B53887   4.037  40.009   6.359
 4180POPC   C2B53888   3.831  40.109   6.781
 4180POPC   C3B53889   4.070  40.038   7.173
 4180POPC   C4B53890   3.964  39.874   7.601
 4181POPC   NC353891   7.477  29.842   5.148
 4181POPC   PO453892   7.287  30.418   5.401
 4181POPC   GL153893   7.422  30.114   5.709
 4181POPC   GL253894   7.737  30.278   5.760
 4181POPC   C1A53895   7.514  29.918   6.158
 4181POPC   D2A53896   7.597  29.760   6.603
 4181POPC   C3A53897   7.437  29.818   7.025
 4181POPC   C4A53898   7.485  29.691   7.453
 4181POPC   C1B53899   7.627  30.410   6.174
 4181POPC   C2B53900   7.778  30.261   6.589
 4181POPC   C3B53901   7.591  30.317   6.990
 4181POPC   C4B53902   7.699  30.230   7.427
 4182POPC   NC353903   3.582  17.871   5.405
 4182POPC   PO453904   3.730  18.537   5.523
 4182POPC   GL153905   3.509  18.266   5.841
 4182POPC   GL253906   3.253  17.971   5.804
 4182POPC   C1A53907   3.427  18.383   6.284
 4182POPC   D2A53908   3.725  18.370   6.644
 4182POPC   C3A53909   3.504  18.438   7.021
 4182POPC   C4A53910   3.639  18.406   7.466
 4182POPC   C1B53911   3.479  17.881   6.220
 4182POPC   C2B53912   3.404  17.963   6.697
 4182POPC   C3B53913   3.292  17.973   7.143
 4182POPC   C4B53914   3.298  18.059   7.601
 4183POPC   NC353915  30.603  35.647   5.407
 4183POPC   PO453916  30.693  34.947   5.370
 4183POPC   GL153917  30.643  35.215   5.729
 4183POPC   GL253918  30.957  35.394   5.818
 4183POPC   C1A53919  30.454  35.280   6.152
 4183POPC   D2A53920  30.393  35.450   6.575
 4183POPC   C3A53921  30.480  35.188   6.965
 4183POPC   C4A53922  30.609  35.306   7.381
 4183POPC   C1B53923  30.940  35.090   6.164
 4183POPC   C2B53924  30.839  35.175   6.599
 4183POPC   C3B53925  31.007  35.143   7.042
 4183POPC   C4B53926  31.110  35.471   7.360
 4184POPC   NC353927  37.120  24.606   5.561
 4184POPC   PO453928  36.524  24.313   5.336
 4184POPC   GL153929  36.662  24.442   5.761
 4184POPC   GL253930  36.772  24.776   5.925
 4184POPC   C1A53931  36.858  24.322   6.163
 4184POPC   D2A53932  37.026  24.428   6.588
 4184POPC   C3A53933  36.722  24.536   6.906
 4184POPC   C4A53934  36.809  24.436   7.343
 4184POPC   C1B53935  37.170  24.748   6.202
 4184POPC   C2B53936  37.274  24.891   6.627
 4184POPC   C3B53937  37.160  24.728   7.037
 4184POPC   C4B53938  37.330  24.454   7.351
 4185POPC   NC353939   0.663   4.956   5.480
 4185POPC   PO453940   0.862   5.573   5.302
 4185POPC   GL153941   0.750   5.419   5.752
 4185POPC   GL253942   0.389   5.324   5.783
 4185POPC   C1A53943   0.736   5.094   6.122
 4185POPC   D2A53944   0.791   5.040   6.536
 4185POPC   C3A53945   0.606   5.071   6.931
 4185POPC   C4A53946   0.743   5.075   7.311
 4185POPC   C1B53947   0.458   5.500   6.199
 4185POPC   C2B53948   0.341   5.354   6.590
 4185POPC   C3B53949   0.394   5.547   6.983
 4185POPC   C4B53950   0.347   5.404   7.403
 4186POPC   NC353951   6.965  38.866   5.535
 4186POPC   PO453952   7.527  39.311   5.447
 4186POPC   GL153953   7.459  39.383   5.887
 4186POPC   GL253954   7.177  39.133   5.935
 4186POPC   C1A53955   7.400  39.300   6.348
 4186POPC   D2A53956   7.202  39.364   6.719
 4186POPC   C3A53957   7.442  39.243   7.023
 4186POPC   C4A53958   7.642  39.554   7.216
 4186POPC   C1B53959   6.944  39.060   6.377
 4186POPC   C2B53960   6.918  38.994   6.877
 4186POPC   C3B53961   7.012  39.172   7.296
 4186POPC   C4B53962   7.000  39.004   7.758
 4187POPC   NC353963  12.657  35.368   5.388
 4187POPC   PO453964  13.282  35.161   5.277
 4187POPC   GL153965  13.015  35.288   5.785
 4187POPC   GL253966  12.771  35.571   5.891
 4187POPC   C1A53967  12.834  35.204   6.248
 4187POPC   D2A53968  12.778  34.997   6.666
 4187POPC   C3A53969  12.947  35.207   7.027
 4187POPC   C4A53970  13.039  35.608   7.171
 4187POPC   C1B53971  12.394  35.447   6.090
 4187POPC   C2B53972  12.392  35.512   6.516
 4187POPC   C3B53973  12.625  35.611   6.866
 4187POPC   C4B53974  12.522  35.427   7.249
 4188POPC   NC353975  42.965   0.348   5.413
 4188POPC   PO453976  43.648   0.464   5.252
 4188POPC   GL153977  43.493   0.463   5.752
 4188POPC   GL253978  43.129   0.445   5.872
 4188POPC   C1A53979  43.452   0.445   6.249
 4188POPC   D2A53980  43.236   0.210   6.597
 4188POPC   C3A53981  43.102   0.363   6.997
 4188POPC   C4A53982  43.304   0.395   7.423
 4188POPC   C1B53983  42.976   0.719   6.183
 4188POPC   C2B53984  43.016   0.704   6.593
 4188POPC   C3B53985  42.844   0.806   6.968
 4188POPC   C4B53986  42.893   0.696   7.369
 4189POPC   NC353987   1.064  20.662   5.493
 4189POPC   PO453988   1.515  21.243   5.465
 4189POPC   GL153989   1.308  20.978   5.800
 4189POPC   GL253990   1.459  20.706   5.924
 4189POPC   C1A53991   1.026  20.798   6.162
 4189POPC   D2A53992   0.832  20.601   6.524
 4189POPC   C3A53993   0.828  20.786   6.915
 4189POPC   C4A53994   0.834  20.727   7.351
 4189POPC   C1B53995   1.560  20.496   6.297
 4189POPC   C2B53996   1.345  20.474   6.683
 4189POPC   C3B53997   1.282  20.605   7.104
 4189POPC   C4B53998   1.420  20.304   7.388
 4190POPC   NC353999   8.537  41.442   5.444
 4190POPC   PO454000   8.859  41.996   5.351
 4190POPC   GL154001   8.892  41.759   5.760
 4190POPC   GL254002   9.254  41.758   5.893
 4190POPC   C1A54003   8.863  41.543   6.176
 4190POPC   D2A54004   8.581  41.481   6.536
 4190POPC   C3A54005   8.727  41.222   6.897
 4190POPC   C4A54006   8.928  41.424   7.253
 4190POPC   C1B54007   9.072  42.015   6.178
 4190POPC   C2B54008   8.802  41.959   6.520
 4190POPC   C3B54009   8.937  41.820   6.917
 4190POPC   C4B54010   9.166  41.952   7.296
 4191POPC   NC354011   0.709  37.716   5.484
 4191POPC   PO454012   0.093  38.007   5.404
 4191POPC   GL154013   0.312  37.934   5.816
 4191POPC   GL254014   0.427  37.595   5.874
 4191POPC   C1A54015   0.459  37.925   6.265
 4191POPC   D2A54016   0.562  37.708   6.680
 4191POPC   C3A54017   0.409  37.949   7.008
 4191POPC   C4A54018   0.319  37.878   7.427
 4191POPC   C1B54019   0.488  37.399   6.269
 4191POPC   C2B54020   0.208  37.330   6.639
 4191POPC   C3B54021   0.331  37.438   7.071
 4191POPC   C4B54022   0.681  37.170   7.223
 4192POPC   NC354023  24.814   8.203   5.183
 4192POPC   PO454024  25.400   8.211   5.390
 4192POPC   GL154025  25.057   8.105   5.681
 4192POPC   GL254026  25.059   8.405   5.828
 4192POPC   C1A54027  25.005   8.010   6.132
 4192POPC   D2A54028  25.224   8.128   6.503
 4192POPC   C3A54029  25.022   8.065   6.874
 4192POPC   C4A54030  25.231   8.053   7.245
 4192POPC   C1B54031  25.415   8.383   6.093
 4192POPC   C2B54032  25.452   8.589   6.489
 4192POPC   C3B54033  25.496   8.452   6.932
 4192POPC   C4B54034  25.572   8.399   7.390
 4193POPC   NC354035  11.556  39.939   5.400
 4193POPC   PO454036  11.449  40.610   5.380
 4193POPC   GL154037  11.332  40.315   5.718
 4193POPC   GL254038  11.640  40.142   5.853
 4193POPC   C1A54039  11.156  40.121   6.101
 4193POPC   D2A54040  11.198  40.238   6.538
 4193POPC   C3A54041  11.063  39.991   6.885
 4193POPC   C4A54042  11.124  39.790   7.266
 4193POPC   C1B54043  11.652  40.203   6.282
 4193POPC   C2B54044  11.659  39.975   6.657
 4193POPC   C3B54045  11.562  39.997   7.072
 4193POPC   C4B54046  11.621  39.687   7.347
 4194POPC   NC354047  36.468  27.863   5.511
 4194POPC   PO454048  36.006  27.380   5.540
 4194POPC   GL154049  36.106  27.683   5.854
 4194POPC   GL254050  35.794  27.823   5.917
 4194POPC   C1A54051  36.315  27.584   6.250
 4194POPC   D2A54052  36.491  27.247   6.531
 4194POPC   C3A54053  36.411  27.405   6.944
 4194POPC   C4A54054  36.129  27.746   7.030
 4194POPC   C1B54055  35.779  27.505   6.269
 4194POPC   C2B54056  35.965  27.405   6.672
 4194POPC   C3B54057  35.926  27.280   7.114
 4194POPC   C4B54058  35.778  27.459   7.497
 4195POPC   NC354059   1.823  36.779   5.353
 4195POPC   PO454060   1.883  37.440   5.374
 4195POPC   GL154061   1.750  37.126   5.747
 4195POPC   GL254062   1.978  36.838   5.828
 4195POPC   C1A54063   1.899  37.122   6.224
 4195POPC   D2A54064   2.122  36.884   6.568
 4195POPC   C3A54065   1.944  36.983   6.995
 4195POPC   C4A54066   1.923  37.213   7.390
 4195POPC   C1B54067   1.867  36.616   6.202
 4195POPC   C2B54068   1.990  36.378   6.569
 4195POPC   C3B54069   2.137  36.500   6.956
 4195POPC   C4B54070   1.841  36.524   7.297
 4196POPC   NC354071  44.122   0.066   5.775
 4196POPC   PO454072  43.931  44.565   5.378
 4196POPC   GL154073  43.872  44.400   5.796
 4196POPC   GL254074  44.206  44.482   5.910
 4196POPC   C1A54075  43.761  44.549   6.213
 4196POPC   D2A54076  43.877  44.824   6.548
 4196POPC   C3A54077  43.690  44.777   6.928
 4196POPC   C4A54078  43.858  44.518   7.242
 4196POPC   C1B54079  44.288  44.567   6.364
 4196POPC   C2B54080  44.282  44.606   6.823
 4196POPC   C3B54081  44.362  44.535   7.253
 4196POPC   C4B54082  44.149  44.784   7.586
 4197POPC   NC354083  27.904  26.465   5.473
 4197POPC   PO454084  27.634  25.825   5.469
 4197POPC   GL154085  27.581  26.176   5.822
 4197POPC   GL254086  27.232  26.345   5.894
 4197POPC   C1A54087  27.534  25.974   6.199
 4197POPC   D2A54088  27.887  25.909   6.478
 4197POPC   C3A54089  27.745  25.950   6.896
 4197POPC   C4A54090  27.765  25.806   7.318
 4197POPC   C1B54091  27.225  26.452   6.304
 4197POPC   C2B54092  27.399  26.238   6.630
 4197POPC   C3B54093  27.471  26.345   7.032
 4197POPC   C4B54094  27.597  26.379   7.424
 4198POPC   NC354095  25.307   7.749   5.414
 4198POPC   PO454096  25.720   7.268   5.295
 4198POPC   GL154097  25.351   7.321   5.696
 4198POPC   GL254098  25.213   7.610   5.875
 4198POPC   C1A54099  25.287   7.234   6.207
 4198POPC   D2A54100  25.412   7.217   6.691
 4198POPC   C3A54101  25.074   7.271   7.026
 4198POPC   C4A54102  24.927   7.262   7.474
 4198POPC   C1B54103  25.481   7.857   6.119
 4198POPC   C2B54104  25.504   7.679   6.520
 4198POPC   C3B54105  25.398   7.680   6.951
 4198POPC   C4B54106  25.377   7.506   7.379
 4199POPC   NC354107  29.768  42.012   5.379
 4199POPC   PO454108  30.110  42.548   5.542
 4199POPC   GL154109  30.041  42.267   5.843
 4199POPC   GL254110  29.708  42.167   5.858
 4199POPC   C1A54111  29.998  42.180   6.291
 4199POPC   D2A54112  30.053  41.980   6.686
 4199POPC   C3A54113  29.848  42.098   7.069
 4199POPC   C4A54114  29.995  42.403   7.365
 4199POPC   C1B54115  29.538  42.413   6.192
 4199POPC   C2B54116  29.338  42.379   6.591
 4199POPC   C3B54117  29.443  42.598   6.941
 4199POPC   C4B54118  29.576  42.692   7.345
 4200POPC   NC354119  43.611  30.227   5.455
 4200POPC   PO454120  44.234  30.215   5.245
 4200POPC   GL154121  44.120  30.048   5.668
 4200POPC   GL254122  43.823  29.789   5.698
 4200POPC   C1A54123  44.041  29.972   6.119
 4200POPC   D2A54124  44.048  29.757   6.519
 4200POPC   C3A54125  43.971  29.983   6.887
 4200POPC   C4A54126  44.128  30.088   7.291
 4200POPC   C1B54127  43.693  29.565   6.112
 4200POPC   C2B54128  43.550  29.636   6.567
 4200POPC   C3B54129  43.797  29.486   6.915
 4200POPC   C4B54130  43.889  29.636   7.322
 4201POPC   NC354131  15.289  24.556   5.335
 4201POPC   PO454132  14.825  24.630   5.806
 4201POPC   GL154133  15.254  24.551   5.891
 4201POPC   GL254134  15.496  24.300   5.767
 4201POPC   C1A54135  15.523  24.668   6.248
 4201POPC   D2A54136  15.521  24.787   6.702
 4201POPC   C3A54137  15.110  24.694   6.931
 4201POPC   C4A54138  14.957  25.004   7.215
 4201POPC   C1B54139  15.388  24.164   6.211
 4201POPC   C2B54140  15.446  24.282   6.655
 4201POPC   C3B54141  15.453  24.340   7.108
 4201POPC   C4B54142  15.507  24.156   7.506
 4202POPC   NC354143  27.960   6.052   5.432
 4202POPC   PO454144  28.529   5.587   5.383
 4202POPC   GL154145  28.211   5.707   5.717
 4202POPC   GL254146  28.401   5.996   5.756
 4202POPC   C1A54147  28.082   5.803   6.167
 4202POPC   D2A54148  27.850   5.796   6.593
 4202POPC   C3A54149  28.050   5.766   7.010
 4202POPC   C4A54150  28.441   5.773   7.273
 4202POPC   C1B54151  28.584   5.754   6.140
 4202POPC   C2B54152  28.421   5.740   6.594
 4202POPC   C3B54153  28.403   6.104   6.887
 4202POPC   C4B54154  28.648   6.298   7.210
 4203POPC   NC354155  34.592  29.897   5.248
 4203POPC   PO454156  34.247  29.388   5.614
 4203POPC   GL154157  34.612  29.638   5.793
 4203POPC   GL254158  34.699  30.006   5.858
 4203POPC   C1A54159  34.579  29.664   6.249
 4203POPC   D2A54160  34.506  29.926   6.585
 4203POPC   C3A54161  34.557  29.824   6.986
 4203POPC   C4A54162  34.801  30.104   7.211
 4203POPC   C1B54163  34.322  30.126   6.128
 4203POPC   C2B54164  34.158  30.291   6.531
 4203POPC   C3B54165  34.197  30.229   7.003
 4203POPC   C4B54166  34.356  30.070   7.424
 4204POPC   NC354167  32.791   4.298   5.357
 4204POPC   PO454168  33.360   4.594   5.406
 4204POPC   GL154169  33.131   4.454   5.792
 4204POPC   GL254170  33.022   4.119   5.795
 4204POPC   C1A54171  32.971   4.505   6.230
 4204POPC   D2A54172  33.185   4.445   6.638
 4204POPC   C3A54173  32.924   4.369   6.983
 4204POPC   C4A54174  32.852   4.546   7.390
 4204POPC   C1B54175  32.814   4.018   6.199
 4204POPC   C2B54176  32.941   3.959   6.644
 4204POPC   C3B54177  32.816   3.883   7.087
 4204POPC   C4B54178  32.966   4.033   7.503
 4205POPC   NC354179  17.856  12.080   5.449
 4205POPC   PO454180  17.186  12.329   5.324
 4205POPC   GL154181  17.373  12.347   5.775
 4205POPC   GL254182  17.547  12.031   5.876
 4205POPC   C1A54183  17.252  12.201   6.227
 4205POPC   D2A54184  17.433  12.235   6.617
 4205POPC   C3A54185  17.163  12.180   6.959
 4205POPC   C4A54186  17.179  12.255   7.402
 4205POPC   C1B54187  17.683  11.839   6.317
 4205POPC   C2B54188  17.648  11.812   6.811
 4205POPC   C3B54189  17.513  11.872   7.262
 4205POPC   C4B54190  17.714  11.689   7.645
 4206POPC   NC354191  13.935  37.537   5.354
 4206POPC   PO454192  13.412  37.882   5.508
 4206POPC   GL154193  13.685  37.744   5.874
 4206POPC   GL254194  14.060  37.615   5.846
 4206POPC   C1A54195  13.910  37.849   6.293
 4206POPC   D2A54196  14.033  37.855   6.774
 4206POPC   C3A54197  13.753  38.023   7.100
 4206POPC   C4A54198  13.411  37.753   7.229
 4206POPC   C1B54199  13.847  37.326   6.121
 4206POPC   C2B54200  13.714  37.414   6.525
 4206POPC   C3B54201  13.853  37.279   6.916
 4206POPC   C4B54202  13.895  37.531   7.234
 4207POPC   NC354203   9.293  23.493   5.515
 4207POPC   PO454204   8.719  23.894   5.514
 4207POPC   GL154205   8.979  23.694   5.850
 4207POPC   GL254206   8.968  23.303   5.863
 4207POPC   C1A54207   9.233  23.778   6.224
 4207POPC   D2A54208   9.190  24.024   6.556
 4207POPC   C3A54209   9.223  23.935   6.943
 4207POPC   C4A54210   9.076  23.743   7.298
 4207POPC   C1B54211   8.917  23.401   6.288
 4207POPC   C2B54212   9.097  23.502   6.669
 4207POPC   C3B54213   9.012  23.306   7.037
 4207POPC   C4B54214   8.762  23.347   7.374
 4208POPC   NC354215  19.060  23.324   5.596
 4208POPC   PO454216  18.994  22.716   5.331
 4208POPC   GL154217  18.903  22.859   5.768
 4208POPC   GL254218  18.778  23.100   5.997
 4208POPC   C1A54219  19.168  22.795   6.160
 4208POPC   D2A54220  19.068  22.910   6.573
 4208POPC   C3A54221  19.173  22.654   6.913
 4208POPC   C4A54222  19.219  22.755   7.304
 4208POPC   C1B54223  19.156  23.309   6.218
 4208POPC   C2B54224  19.459  23.275   6.527
 4208POPC   C3B54225  19.366  23.154   6.942
 4208POPC   C4B54226  19.268  23.278   7.351
 4209POPC   NC354227   3.156  38.049   5.171
 4209POPC   PO454228   3.472  37.512   5.403
 4209POPC   GL154229   3.720  37.585   5.783
 4209POPC   GL254230   3.730  37.936   5.878
 4209POPC   C1A54231   3.524  37.482   6.179
 4209POPC   D2A54232   3.247  37.328   6.472
 4209POPC   C3A54233   3.195  37.516   6.847
 4209POPC   C4A54234   3.441  37.503   7.221
 4209POPC   C1B54235   3.599  38.048   6.253
 4209POPC   C2B54236   3.559  37.787   6.597
 4209POPC   C3B54237   3.430  37.955   6.952
 4209POPC   C4B54238   3.512  38.011   7.350
 4210POPC   NC354239  24.828  17.176   5.387
 4210POPC   PO454240  24.654  17.869   5.497
 4210POPC   GL154241  24.543  17.492   5.739
 4210POPC   GL254242  24.205  17.334   5.808
 4210POPC   C1A54243  24.587  17.431   6.177
 4210POPC   D2A54244  24.766  17.298   6.566
 4210POPC   C3A54245  24.623  17.524   6.949
 4210POPC   C4A54246  24.292  17.793   7.146
 4210POPC   C1B54247  24.211  17.098   6.254
 4210POPC   C2B54248  24.266  17.223   6.722
 4210POPC   C3B54249  24.276  17.266   7.207
 4210POPC   C4B54250  24.238  17.336   7.689
 4211POPC   NC354251  44.426  15.383   5.530
 4211POPC   PO454252  44.939  15.011   5.367
 4211POPC   GL154253  44.676  14.972   5.727
 4211POPC   GL254254  44.752  15.278   5.911
 4211POPC   C1A54255  44.572  14.851   6.167
 4211POPC   D2A54256  44.644  15.118   6.522
 4211POPC   C3A54257  44.616  14.981   6.932
 4211POPC   C4A54258  44.819  15.042   7.331
 4211POPC   C1B54259  44.498  15.510   6.222
 4211POPC   C2B54260  44.333  15.495   6.674
 4211POPC   C3B54261  44.496  15.447   7.086
 4211POPC   C4B54262  44.821  15.551   7.338
 4212POPC   NC354263  26.960  26.640   5.372
 4212POPC   PO454264  26.589  27.192   5.354
 4212POPC   GL154265  26.787  26.966   5.731
 4212POPC   GL254266  26.712  26.585   5.805
 4212POPC   C1A54267  26.984  26.870   6.134
 4212POPC   D2A54268  26.854  26.786   6.565
 4212POPC   C3A54269  27.108  26.662   6.895
 4212POPC   C4A54270  27.273  26.756   7.324
 4212POPC   C1B54271  26.641  26.439   6.224
 4212POPC   C2B54272  26.452  26.493   6.646
 4212POPC   C3B54273  26.649  26.551   7.050
 4212POPC   C4B54274  26.809  26.935   7.237
 4213POPC   NC354275  26.986  33.899   5.534
 4213POPC   PO454276  26.762  33.259   5.482
 4213POPC   GL154277  26.710  33.593   5.823
 4213POPC   GL254278  27.056  33.680   5.992
 4213POPC   C1A54279  26.586  33.837   6.184
 4213POPC   D2A54280  26.764  33.753   6.563
 4213POPC   C3A54281  26.566  33.709   6.932
 4213POPC   C4A54282  26.657  33.830   7.357
 4213POPC   C1B54283  27.067  34.045   6.252
 4213POPC   C2B54284  27.090  34.144   6.653
 4213POPC   C3B54285  27.045  33.873   7.018
 4213POPC   C4B54286  27.165  33.966   7.441
 4214POPC   NC354287  13.138   4.795   5.537
 4214POPC   PO454288  12.826   4.140   5.292
 4214POPC   GL154289  12.811   4.254   5.772
 4214POPC   GL254290  12.637   4.573   5.915
 4214POPC   C1A54291  12.842   4.144   6.230
 4214POPC   D2A54292  12.658   4.407   6.565
 4214POPC   C3A54293  12.758   4.323   7.009
 4214POPC   C4A54294  12.943   4.066   7.335
 4214POPC   C1B54295  13.008   4.617   6.187
 4214POPC   C2B54296  13.196   4.437   6.584
 4214POPC   C3B54297  13.172   4.617   7.017
 4214POPC   C4B54298  12.915   4.644   7.412
 4215POPC   NC354299   0.774  43.776   5.553
 4215POPC   PO454300   1.319  43.457   5.559
 4215POPC   GL154301   1.159  43.790   5.885
 4215POPC   GL254302   0.876  44.075   5.948
 4215POPC   C1A54303   1.311  44.002   6.234
 4215POPC   D2A54304   1.465  43.811   6.584
 4215POPC   C3A54305   1.403  44.006   6.948
 4215POPC   C4A54306   1.492  43.787   7.305
 4215POPC   C1B54307   0.844  43.795   6.287
 4215POPC   C2B54308   0.947  43.860   6.700
 4215POPC   C3B54309   0.967  43.785   7.117
 4215POPC   C4B54310   1.082  44.104   7.348
 4216POPC   NC354311  28.178   4.531   5.682
 4216POPC   PO454312  28.506   4.030   5.571
 4216POPC   GL154313  28.520   4.227   5.974
 4216POPC   GL254314  28.661   4.550   5.959
 4216POPC   C1A54315  28.294   4.383   6.355
 4216POPC   D2A54316  27.932   4.433   6.654
 4216POPC   C3A54317  28.141   4.375   7.066
 4216POPC   C4A54318  28.494   4.065   7.147
 4216POPC   C1B54319  28.956   4.752   6.198
 4216POPC   C2B54320  28.938   4.706   6.598
 4216POPC   C3B54321  28.600   4.487   6.786
 4216POPC   C4B54322  28.674   4.535   7.192
 4217POPC   NC354323  33.267   9.364   5.543
 4217POPC   PO454324  32.777   8.927   5.306
 4217POPC   GL154325  33.110   8.880   5.660
 4217POPC   GL254326  33.344   8.586   5.708
 4217POPC   C1A54327  33.079   8.969   6.137
 4217POPC   D2A54328  32.758   8.991   6.505
 4217POPC   C3A54329  32.923   9.035   6.934
 4217POPC   C4A54330  32.958   8.932   7.395
 4217POPC   C1B54331  33.279   8.484   6.177
 4217POPC   C2B54332  33.174   8.701   6.586
 4217POPC   C3B54333  33.159   8.589   7.034
 4217POPC   C4B54334  33.397   8.695   7.397
 4218POPC   NC354335  29.438  16.133   5.554
 4218POPC   PO454336  29.069  15.515   5.397
 4218POPC   GL154337  29.063  15.781   5.771
 4218POPC   GL254338  29.394  15.622   5.806
 4218POPC   C1A54339  28.861  15.905   6.205
 4218POPC   D2A54340  28.724  15.772   6.648
 4218POPC   C3A54341  28.957  15.912   7.047
 4218POPC   C4A54342  28.881  16.218   7.381
 4218POPC   C1B54343  29.252  15.583   6.206
 4218POPC   C2B54344  29.238  15.776   6.599
 4218POPC   C3B54345  29.474  15.852   6.959
 4218POPC   C4B54346  29.540  15.917   7.404
 4219POPC   NC354347   2.185  26.589   5.505
 4219POPC   PO454348   1.735  27.093   5.354
 4219POPC   GL154349   1.902  26.944   5.769
 4219POPC   GL254350   2.266  27.024   5.782
 4219POPC   C1A54351   1.921  26.887   6.251
 4219POPC   D2A54352   2.137  27.028   6.678
 4219POPC   C3A54353   1.874  26.954   7.055
 4219POPC   C4A54354   1.643  26.550   7.126
 4219POPC   C1B54355   2.409  27.028   6.221
 4219POPC   C2B54356   2.479  26.687   6.555
 4219POPC   C3B54357   2.255  26.604   6.968
 4219POPC   C4B54358   2.323  26.830   7.387
 4220POPC   NC354359  37.107  27.136   5.564
 4220POPC   PO454360  37.705  27.139   5.182
 4220POPC   GL154361  37.697  26.846   5.673
 4220POPC   GL254362  37.360  26.801   5.845
 4220POPC   C1A54363  37.827  26.773   6.100
 4220POPC   D2A54364  37.868  27.007   6.486
 4220POPC   C3A54365  37.848  26.808   6.888
 4220POPC   C4A54366  37.563  26.888   7.212
 4220POPC   C1B54367  37.369  26.569   6.263
 4220POPC   C2B54368  37.435  26.507   6.717
 4220POPC   C3B54369  37.267  26.497   7.146
 4220POPC   C4B54370  37.552  26.465   7.545
 4221POPC   NC354371  26.108  15.853   5.432
 4221POPC   PO454372  25.738  16.462   5.439
 4221POPC   GL154373  25.821  16.235   5.826
 4221POPC   GL254374  25.842  15.884   5.853
 4221POPC   C1A54375  25.969  16.154   6.261
 4221POPC   D2A54376  26.119  16.010   6.646
 4221POPC   C3A54377  25.871  16.027   7.000
 4221POPC   C4A54378  26.043  16.065   7.383
 4221POPC   C1B54379  26.011  15.652   6.193
 4221POPC   C2B54380  26.023  15.503   6.596
 4221POPC   C3B54381  26.153  15.602   6.995
 4221POPC   C4B54382  26.249  15.585   7.411
 4222POPC   NC354383  12.930   6.146   5.342
 4222POPC   PO454384  12.794   5.453   5.404
 4222POPC   GL154385  12.840   5.831   5.745
 4222POPC   GL254386  13.148   6.066   5.799
 4222POPC   C1A54387  12.609   5.880   6.173
 4222POPC   D2A54388  12.634   5.722   6.588
 4222POPC   C3A54389  12.724   6.017   6.945
 4222POPC   C4A54390  12.828   5.938   7.345
 4222POPC   C1B54391  13.067   6.083   6.244
 4222POPC   C2B54392  13.137   5.880   6.660
 4222POPC   C3B54393  13.272   6.022   7.075
 4222POPC   C4B54394  13.165   6.317   7.406
 4223POPC   NC354395  32.262  19.292   5.321
 4223POPC   PO454396  32.391  18.712   5.350
 4223POPC   GL154397  32.152  18.918   5.692
 4223POPC   GL254398  32.057  19.288   5.776
 4223POPC   C1A54399  32.146  18.927   6.145
 4223POPC   D2A54400  32.366  19.092   6.507
 4223POPC   C3A54401  32.242  19.128   6.928
 4223POPC   C4A54402  32.470  18.938   7.227
 4223POPC   C1B54403  32.319  19.435   6.136
 4223POPC   C2B54404  32.365  19.589   6.607
 4223POPC   C3B54405  32.493  19.582   7.060
 4223POPC   C4B54406  32.574  19.369   7.460
 4224POPC   NC354407   1.230   7.368   5.449
 4224POPC   PO454408   1.841   7.616   5.366
 4224POPC   GL154409   1.512   7.584   5.793
 4224POPC   GL254410   1.102   7.637   5.876
 4224POPC   C1A54411   1.366   7.318   6.160
 4224POPC   D2A54412   1.052   7.266   6.498
 4224POPC   C3A54413   1.209   7.284   6.919
 4224POPC   C4A54414   1.441   7.372   7.310
 4224POPC   C1B54415   0.923   7.733   6.324
 4224POPC   C2B54416   0.878   7.687   6.808
 4224POPC   C3B54417   0.943   7.537   7.262
 4224POPC   C4B54418   1.080   7.526   7.717
 4225POPC   NC354419  31.245   3.594   5.553
 4225POPC   PO454420  31.593   3.097   5.793
 4225POPC   GL154421  31.602   3.518   5.916
 4225POPC   GL254422  31.280   3.626   6.061
 4225POPC   C1A54423  31.783   3.677   6.262
 4225POPC   D2A54424  31.801   3.423   6.629
 4225POPC   C3A54425  31.697   3.533   7.065
 4225POPC   C4A54426  31.320   3.414   7.299
 4225POPC   C1B54427  31.361   3.991   6.310
 4225POPC   C2B54428  31.263   4.016   6.725
 4225POPC   C3B54429  31.343   3.934   7.143
 4225POPC   C4B54430  31.657   4.034   7.450
 4226POPC   NC354431  15.408   2.886   5.479
 4226POPC   PO454432  15.026   2.353   5.498
 4226POPC   GL154433  15.024   2.532   5.920
 4226POPC   GL254434  15.353   2.709   5.966
 4226POPC   C1A54435  15.013   2.777   6.333
 4226POPC   D2A54436  15.302   2.724   6.688
 4226POPC   C3A54437  15.075   2.716   7.070
 4226POPC   C4A54438  14.774   2.983   7.204
 4226POPC   C1B54439  15.600   2.906   6.275
 4226POPC   C2B54440  15.694   3.087   6.673
 4226POPC   C3B54441  15.470   3.083   7.060
 4226POPC   C4B54442  15.502   3.256   7.471
 4227POPC   NC354443  34.048  43.355   5.511
 4227POPC   PO454444  33.352  43.189   5.407
 4227POPC   GL154445  33.642  43.110   5.721
 4227POPC   GL254446  33.603  43.437   5.817
 4227POPC   C1A54447  33.908  42.972   6.087
 4227POPC   D2A54448  34.136  43.141   6.445
 4227POPC   C3A54449  33.934  43.143   6.838
 4227POPC   C4A54450  33.828  42.841   7.154
 4227POPC   C1B54451  33.768  43.453   6.228
 4227POPC   C2B54452  33.549  43.443   6.617
 4227POPC   C3B54453  33.631  43.543   7.025
 4227POPC   C4B54454  33.789  43.308   7.360
 4228POPC   NC354455   2.867  27.934   5.330
 4228POPC   PO454456   2.479  27.342   5.412
 4228POPC   GL154457   2.650  27.670   5.718
 4228POPC   GL254458   2.828  27.443   5.943
 4228POPC   C1A54459   2.603  27.841   6.175
 4228POPC   D2A54460   2.874  27.787   6.552
 4228POPC   C3A54461   2.750  27.824   6.984
 4228POPC   C4A54462   2.363  27.895   7.169
 4228POPC   C1B54463   3.099  27.366   6.325
 4228POPC   C2B54464   3.133  27.435   6.809
 4228POPC   C3B54465   2.879  27.312   7.182
 4228POPC   C4B54466   3.061  27.327   7.633
 4229POPC   NC354467   6.796  10.497   5.448
 4229POPC   PO454468   6.340  10.937   5.565
 4229POPC   GL154469   6.651  10.729   5.875
 4229POPC   GL254470   6.555  10.393   5.898
 4229POPC   C1A54471   6.865  10.680   6.275
 4229POPC   D2A54472   6.667  10.689   6.699
 4229POPC   C3A54473   6.810  10.480   7.078
 4229POPC   C4A54474   6.776  10.679   7.497
 4229POPC   C1B54475   6.505  10.331   6.328
 4229POPC   C2B54476   6.571  10.162   6.720
 4229POPC   C3B54477   6.341  10.269   7.071
 4229POPC   C4B54478   6.357  10.404   7.492
 4230POPC   NC354479   1.359   5.501   5.196
 4230POPC   PO454480   1.097   5.049   5.607
 4230POPC   GL154481   1.253   4.822   5.903
 4230POPC   GL254482   1.605   4.762   5.818
 4230POPC   C1A54483   1.260   4.956   6.323
 4230POPC   D2A54484   1.251   5.274   6.610
 4230POPC   C3A54485   1.141   5.000   6.914
 4230POPC   C4A54486   1.262   4.877   7.271
 4230POPC   C1B54487   1.495   4.499   6.193
 4230POPC   C2B54488   1.266   4.504   6.580
 4230POPC   C3B54489   1.447   4.542   6.948
 4230POPC   C4B54490   1.737   4.704   7.249
 4231POPC   NC354491  37.114  13.905   5.486
 4231POPC   PO454492  36.789  13.250   5.426
 4231POPC   GL154493  36.788  13.476   5.855
 4231POPC   GL254494  36.859  13.821   5.904
 4231POPC   C1A54495  36.991  13.474   6.271
 4231POPC   D2A54496  37.096  13.382   6.680
 4231POPC   C3A54497  36.865  13.532   7.023
 4231POPC   C4A54498  36.749  13.392   7.426
 4231POPC   C1B54499  37.114  13.982   6.208
 4231POPC   C2B54500  36.981  13.910   6.611
 4231POPC   C3B54501  36.909  14.054   7.006
 4231POPC   C4B54502  36.995  13.929   7.412
 4232POPC   NC354503  37.535  26.683   5.243
 4232POPC   PO454504  36.814  26.802   5.449
 4232POPC   GL154505  36.729  26.954   5.878
 4232POPC   GL254506  36.955  27.222   6.035
 4232POPC   C1A54507  36.771  26.826   6.314
 4232POPC   D2A54508  36.931  26.524   6.594
 4232POPC   C3A54509  36.693  26.462   6.954
 4232POPC   C4A54510  36.699  26.736   7.276
 4232POPC   C1B54511  37.361  27.116   6.263
 4232POPC   C2B54512  37.402  27.040   6.696
 4232POPC   C3B54513  37.074  26.938   6.947
 4232POPC   C4B54514  37.109  27.070   7.336
 4233POPC   NC354515  29.329  44.245   5.413
 4233POPC   PO454516  29.018  43.712   5.087
 4233POPC   GL154517  28.884  43.748   5.548
 4233POPC   GL254518  29.181  43.608   5.737
 4233POPC   C1A54519  28.900  43.959   5.988
 4233POPC   D2A54520  29.065  43.725   6.377
 4233POPC   C3A54521  29.075  43.696   6.843
 4233POPC   C4A54522  29.183  43.969   7.224
 4233POPC   C1B54523  29.499  43.559   6.089
 4233POPC   C2B54524  29.640  43.533   6.549
 4233POPC   C3B54525  29.538  43.606   7.026
 4233POPC   C4B54526  29.211  43.453   7.323
 4234POPC   NC354527  18.401  34.077   5.622
 4234POPC   PO454528  18.315  33.481   5.281
 4234POPC   GL154529  18.437  33.585   5.743
 4234POPC   GL254530  18.167  33.794   5.942
 4234POPC   C1A54531  18.623  33.651   6.148
 4234POPC   D2A54532  18.443  33.625   6.529
 4234POPC   C3A54533  18.562  33.798   6.900
 4234POPC   C4A54534  18.391  33.702   7.280
 4234POPC   C1B54535  18.356  34.082   6.269
 4234POPC   C2B54536  18.412  34.302   6.629
 4234POPC   C3B54537  18.203  34.192   6.979
 4234POPC   C4B54538  18.095  34.091   7.383
 4235POPC   NC354539  31.758  25.303   5.527
 4235POPC   PO454540  32.413  24.997   5.496
 4235POPC   GL154541  32.217  25.257   5.822
 4235POPC   GL254542  31.986  25.015   5.930
 4235POPC   C1A54543  32.213  25.312   6.300
 4235POPC   D2A54544  32.521  25.460   6.635
 4235POPC   C3A54545  32.386  25.272   7.027
 4235POPC   C4A54546  31.938  25.278   7.131
 4235POPC   C1B54547  32.394  24.863   6.149
 4235POPC   C2B54548  32.554  24.928   6.570
 4235POPC   C3B54549  32.505  24.770   6.985
 4235POPC   C4B54550  32.493  24.918   7.413
 4236POPC   NC354551   3.271  10.266   5.383
 4236POPC   PO454552   3.819  10.702   5.277
 4236POPC   GL154553   3.629  10.526   5.669
 4236POPC   GL254554   3.678  10.805   5.822
 4236POPC   C1A54555   3.379  10.431   6.097
 4236POPC   D2A54556   3.345  10.213   6.543
 4236POPC   C3A54557   3.247  10.413   6.980
 4236POPC   C4A54558   3.349  10.404   7.440
 4236POPC   C1B54559   3.861  10.593   6.197
 4236POPC   C2B54560   3.748  10.546   6.654
 4236POPC   C3B54561   3.747  10.503   7.099
 4236POPC   C4B54562   3.811  10.550   7.531
 4237POPC   NC354563  44.191   3.116   5.495
 4237POPC   PO454564  44.798   2.953   5.478
 4237POPC   GL154565  44.695   2.785   5.878
 4237POPC   GL254566  44.349   2.770   5.850
 4237POPC   C1A54567  44.850   2.675   6.286
 4237POPC   D2A54568   0.062   2.673   6.686
 4237POPC   C3A54569  44.879   2.938   6.978
 4237POPC   C4A54570  44.626   2.818   7.299
 4237POPC   C1B54571  44.291   2.517   6.188
 4237POPC   C2B54572  44.139   2.638   6.565
 4237POPC   C3B54573  44.262   2.661   6.970
 4237POPC   C4B54574  44.150   2.661   7.397
 4238POPC   NC354575  14.951   5.336   5.518
 4238POPC   PO454576  15.028   5.986   5.524
 4238POPC   GL154577  15.132   5.724   5.835
 4238POPC   GL254578  15.410   5.485   5.749
 4238POPC   C1A54579  14.942   5.650   6.236
 4238POPC   D2A54580  14.719   5.666   6.653
 4238POPC   C3A54581  14.938   5.954   6.968
 4238POPC   C4A54582  15.135   5.887   7.392
 4238POPC   C1B54583  15.469   5.647   6.189
 4238POPC   C2B54584  15.276   5.591   6.613
 4238POPC   C3B54585  15.192   5.509   7.047
 4238POPC   C4B54586  15.406   5.468   7.430
 4239POPC   NC354587  40.719  34.600   5.522
 4239POPC   PO454588  41.360  34.633   5.278
 4239POPC   GL154589  41.202  34.657   5.753
 4239POPC   GL254590  40.939  34.874   5.890
 4239POPC   C1A54591  41.096  34.535   6.217
 4239POPC   D2A54592  41.002  34.353   6.613
 4239POPC   C3A54593  41.126  34.571   7.000
 4239POPC   C4A54594  41.034  34.250   7.267
 4239POPC   C1B54595  40.644  34.776   6.219
 4239POPC   C2B54596  40.794  34.818   6.634
 4239POPC   C3B54597  40.643  34.666   6.999
 4239POPC   C4B54598  40.513  34.587   7.377
 4240POPC   NC354599   0.948  22.574   5.458
 4240POPC   PO454600   1.501  22.949   5.239
 4240POPC   GL154601   1.245  22.930   5.685
 4240POPC   GL254602   1.056  23.227   5.774
 4240POPC   C1A54603   1.237  22.721   6.137
 4240POPC   D2A54604   1.458  22.504   6.513
 4240POPC   C3A54605   1.356  22.676   6.931
 4240POPC   C4A54606   1.430  22.913   7.318
 4240POPC   C1B54607   1.149  23.242   6.191
 4240POPC   C2B54608   1.194  23.038   6.587
 4240POPC   C3B54609   1.079  23.176   7.000
 4240POPC   C4B54610   0.746  23.214   7.335
 4241POPC   NC354611  35.125   8.136   5.495
 4241POPC   PO454612  35.207   8.750   5.502
 4241POPC   GL154613  35.132   8.454   5.882
 4241POPC   GL254614  35.408   8.225   5.908
 4241POPC   C1A54615  35.061   8.315   6.302
 4241POPC   D2A54616  34.921   8.187   6.715
 4241POPC   C3A54617  35.284   8.125   6.994
 4241POPC   C4A54618  35.447   8.213   7.413
 4241POPC   C1B54619  35.310   7.874   6.174
 4241POPC   C2B54620  35.434   7.791   6.581
 4241POPC   C3B54621  35.598   7.707   6.983
 4241POPC   C4B54622  35.360   7.712   7.323
 4242POPC   NC354623  36.066  42.608   5.447
 4242POPC   PO454624  36.632  42.306   5.240
 4242POPC   GL154625  36.372  42.204   5.658
 4242POPC   GL254626  35.973  42.169   5.722
 4242POPC   C1A54627  36.289  42.138   6.132
 4242POPC   D2A54628  36.079  42.150   6.576
 4242POPC   C3A54629  36.313  42.194   6.978
 4242POPC   C4A54630  36.285  42.134   7.456
 4242POPC   C1B54631  35.823  42.366   6.146
 4242POPC   C2B54632  35.935  42.636   6.515
 4242POPC   C3B54633  35.830  42.494   6.948
 4242POPC   C4B54634  35.836  42.129   7.214
 4243POPC   NC354635  24.674   9.245   5.135
 4243POPC   PO454636  24.376   8.898   5.623
 4243POPC   GL154637  24.471   8.948   5.995
 4243POPC   GL254638  24.671   8.682   6.029
 4243POPC   C1A54639  24.524   8.967   6.431
 4243POPC   D2A54640  24.628   8.876   6.831
 4243POPC   C3A54641  24.524   9.090   7.170
 4243POPC   C4A54642  24.444   9.203   7.620
 4243POPC   C1B54643  24.952   8.556   6.322
 4243POPC   C2B54644  25.021   8.569   6.756
 4243POPC   C3B54645  24.832   8.516   7.147
 4243POPC   C4B54646  24.860   8.797   7.441
 4244POPC   NC354647  12.728   7.676   5.550
 4244POPC   PO454648  13.301   7.274   5.426
 4244POPC   GL154649  13.127   7.430   5.803
 4244POPC   GL254650  12.830   7.236   5.812
 4244POPC   C1A54651  12.926   7.549   6.222
 4244POPC   D2A54652  12.765   7.407   6.634
 4244POPC   C3A54653  12.832   7.562   7.058
 4244POPC   C4A54654  13.090   7.348   7.402
 4244POPC   C1B54655  12.664   7.065   6.200
 4244POPC   C2B54656  12.425   7.044   6.582
 4244POPC   C3B54657  12.576   7.045   6.973
 4244POPC   C4B54658  12.604   7.215   7.334
 4245POPC   NC354659   0.185  10.692   5.277
 4245POPC   PO454660   0.337  10.079   5.210
 4245POPC   GL154661   0.329  10.387   5.651
 4245POPC   GL254662   0.475  10.751   5.746
 4245POPC   C1A54663   0.261  10.450   6.101
 4245POPC   D2A54664   0.632  10.585   6.419
 4245POPC   C3A54665   0.548  10.517   6.895
 4245POPC   C4A54666   0.133  10.391   7.079
 4245POPC   C1B54667   0.291  10.941   6.152
 4245POPC   C2B54668   0.175  10.751   6.571
 4245POPC   C3B54669   0.212  10.902   6.987
 4245POPC   C4B54670   0.390  10.762   7.370
 4246POPC   NC354671  30.933  26.753   5.473
 4246POPC   PO454672  30.346  26.941   5.332
 4246POPC   GL154673  30.534  26.979   5.750
 4246POPC   GL254674  30.608  26.630   5.861
 4246POPC   C1A54675  30.576  27.086   6.177
 4246POPC   D2A54676  30.803  26.971   6.546
 4246POPC   C3A54677  30.703  26.944   6.979
 4246POPC   C4A54678  30.476  26.801   7.353
 4246POPC   C1B54679  30.868  26.578   6.230
 4246POPC   C2B54680  30.890  26.397   6.654
 4246POPC   C3B54681  30.967  26.474   7.101
 4246POPC   C4B54682  30.822  26.497   7.536
 4247POPC   NC354683   2.932  23.107   5.280
 4247POPC   PO454684   2.425  22.656   5.320
 4247POPC   GL154685   2.534  22.747   5.746
 4247POPC   GL254686   2.815  22.973   5.794
 4247POPC   C1A54687   2.479  22.862   6.177
 4247POPC   D2A54688   2.468  22.818   6.625
 4247POPC   C3A54689   2.668  23.040   6.973
 4247POPC   C4A54690   2.524  22.931   7.405
 4247POPC   C1B54691   2.966  22.991   6.236
 4247POPC   C2B54692   3.043  22.802   6.652
 4247POPC   C3B54693   3.225  23.008   7.007
 4247POPC   C4B54694   2.967  23.141   7.377
 4248POPC   NC354695  42.463  25.483   5.630
 4248POPC   PO454696  41.999  25.246   5.217
 4248POPC   GL154697  42.184  25.113   5.740
 4248POPC   GL254698  42.523  25.006   5.824
 4248POPC   C1A54699  42.236  25.213   6.212
 4248POPC   D2A54700  42.046  25.393   6.583
 4248POPC   C3A54701  42.332  25.311   6.939
 4248POPC   C4A54702  42.240  25.004   7.199
 4248POPC   C1B54703  42.611  24.871   6.285
 4248POPC   C2B54704  42.561  24.853   6.759
 4248POPC   C3B54705  42.801  25.077   7.075
 4248POPC   C4B54706  43.073  25.331   7.334
 4249POPC   NC354707  21.654  35.513   5.482
 4249POPC   PO454708  21.048  35.300   5.238
 4249POPC   GL154709  21.230  35.321   5.680
 4249POPC   GL254710  20.968  35.293   5.903
 4249POPC   C1A54711  21.429  35.389   6.102
 4249POPC   D2A54712  21.167  35.396   6.480
 4249POPC   C3A54713  21.384  35.484   6.853
 4249POPC   C4A54714  21.666  35.551   7.189
 4249POPC   C1B54715  21.084  34.991   6.180
 4249POPC   C2B54716  21.044  34.924   6.638
 4249POPC   C3B54717  21.227  35.052   7.064
 4249POPC   C4B54718  21.223  35.104   7.498
 4250POPC   NC354719  26.390   9.863   5.506
 4250POPC   PO454720  25.710   9.773   5.371
 4250POPC   GL154721  25.936   9.996   5.718
 4250POPC   GL254722  26.013   9.653   5.815
 4250POPC   C1A54723  26.142  10.008   6.153
 4250POPC   D2A54724  25.985   9.963   6.586
 4250POPC   C3A54725  26.286   9.998   6.890
 4250POPC   C4A54726  26.233  10.172   7.276
 4250POPC   C1B54727  25.823   9.573   6.226
 4250POPC   C2B54728  25.682   9.514   6.659
 4250POPC   C3B54729  25.682   9.432   7.096
 4250POPC   C4B54730  26.027   9.709   7.257
 4251POPC   NC354731  20.799  35.581   5.525
 4251POPC   PO454732  20.203  35.515   5.403
 4251POPC   GL154733  20.424  35.325   5.772
 4251POPC   GL254734  20.576  35.615   5.968
 4251POPC   C1A54735  20.553  35.147   6.170
 4251POPC   D2A54736  20.538  35.189   6.596
 4251POPC   C3A54737  20.833  35.312   6.899
 4251POPC   C4A54738  20.768  35.261   7.330
 4251POPC   C1B54739  20.682  35.644   6.395
 4251POPC   C2B54740  20.517  35.677   6.792
 4251POPC   C3B54741  20.520  35.682   7.208
 4251POPC   C4B54742  20.783  35.777   7.538
 4252POPC   NC354743  41.201  35.445   5.199
 4252POPC   PO454744  41.813  35.433   5.535
 4252POPC   GL154745  41.410  35.479   5.747
 4252POPC   GL254746  41.399  35.138   5.900
 4252POPC   C1A54747  41.278  35.549   6.203
 4252POPC   D2A54748  41.570  35.438   6.553
 4252POPC   C3A54749  41.556  35.570   6.983
 4252POPC   C4A54750  41.754  35.334   7.326
 4252POPC   C1B54751  41.240  35.014   6.288
 4252POPC   C2B54752  41.190  35.120   6.695
 4252POPC   C3B54753  41.102  35.103   7.103
 4252POPC   C4B54754  41.220  35.428   7.338
 4253POPC   NC354755  32.385  36.146   5.233
 4253POPC   PO454756  31.851  36.360   5.556
 4253POPC   GL154757  32.067  36.030   5.798
 4253POPC   GL254758  32.460  36.068   5.781
 4253POPC   C1A54759  32.084  36.045   6.268
 4253POPC   D2A54760  32.258  36.320   6.607
 4253POPC   C3A54761  32.152  36.204   7.032
 4253POPC   C4A54762  32.333  36.480   7.309
 4253POPC   C1B54763  32.578  36.150   6.230
 4253POPC   C2B54764  32.556  35.921   6.650
 4253POPC   C3B54765  32.640  35.990   7.102
 4253POPC   C4B54766  32.783  35.841   7.526
 4254POPC   NC354767  12.796  24.875   5.455
 4254POPC   PO454768  12.517  25.449   5.289
 4254POPC   GL154769  12.739  25.390   5.740
 4254POPC   GL254770  13.049  25.570   5.842
 4254POPC   C1A54771  12.660  25.347   6.205
 4254POPC   D2A54772  12.877  25.109   6.562
 4254POPC   C3A54773  12.727  25.183   6.988
 4254POPC   C4A54774  12.897  25.075   7.341
 4254POPC   C1B54775  13.175  25.289   6.167
 4254POPC   C2B54776  13.379  25.316   6.556
 4254POPC   C3B54777  13.244  25.194   6.932
 4254POPC   C4B54778  13.318  25.374   7.313
 4255POPC   NC354779  28.138  37.929   5.491
 4255POPC   PO454780  28.597  37.455   5.455
 4255POPC   GL154781  28.343  37.604   5.827
 4255POPC   GL254782  28.563  37.835   5.864
 4255POPC   C1A54783  28.102  37.593   6.237
 4255POPC   D2A54784  28.198  37.397   6.644
 4255POPC   C3A54785  28.001  37.530   7.011
 4255POPC   C4A54786  28.081  37.686   7.420
 4255POPC   C1B54787  28.639  37.568   6.264
 4255POPC   C2B54788  28.681  37.577   6.751
 4255POPC   C3B54789  28.498  37.805   7.133
 4255POPC   C4B54790  28.712  37.990   7.498
 4256POPC   NC354791   6.527   0.351   5.320
 4256POPC   PO454792   7.076   0.727   5.298
 4256POPC   GL154793   6.789   0.675   5.706
 4256POPC   GL254794   6.611   0.352   5.802
 4256POPC   C1A54795   6.538   0.728   6.128
 4256POPC   D2A54796   6.331   0.775   6.542
 4256POPC   C3A54797   6.542   0.600   6.902
 4256POPC   C4A54798   6.757   0.788   7.244
 4256POPC   C1B54799   6.656   0.207   6.199
 4256POPC   C2B54800   6.420   0.209   6.558
 4256POPC   C3B54801   6.714   0.113   6.852
 4256POPC   C4B54802   6.762   0.216   7.257
 4257POPC   NC354803  24.395  15.510   5.636
 4257POPC   PO454804  24.791  14.980   5.489
 4257POPC   GL154805  24.568  15.085   5.859
 4257POPC   GL254806  24.800  15.383   5.891
 4257POPC   C1A54807  24.355  14.965   6.261
 4257POPC   D2A54808  24.462  14.805   6.674
 4257POPC   C3A54809  24.244  14.848   7.068
 4257POPC   C4A54810  24.394  14.749   7.479
 4257POPC   C1B54811  24.574  15.438   6.291
 4257POPC   C2B54812  24.335  15.319   6.686
 4257POPC   C3B54813  24.323  15.354   7.149
 4257POPC   C4B54814  24.349  15.537   7.592
 4258POPC   NC354815  33.489   0.305   5.536
 4258POPC   PO454816  33.679  44.634   5.259
 4258POPC   GL154817  33.619  44.809   5.680
 4258POPC   GL254818  33.927  44.748   5.894
 4258POPC   C1A54819  33.443  44.749   6.103
 4258POPC   D2A54820  33.607  44.718   6.512
 4258POPC   C3A54821  33.577  44.503   6.886
 4258POPC   C4A54822  33.752  44.752   7.218
 4258POPC   C1B54823  33.962  44.464   6.271
 4258POPC   C2B54824  34.058  44.374   6.709
 4258POPC   C3B54825  34.148  44.434   7.157
 4258POPC   C4B54826  34.017  44.547   7.607
 4259POPC   NC354827  12.457  19.052   5.307
 4259POPC   PO454828  13.077  19.268   5.431
 4259POPC   GL154829  12.792  19.121   5.732
 4259POPC   GL254830  12.538  19.379   5.715
 4259POPC   C1A54831  12.864  19.004   6.166
 4259POPC   D2A54832  12.841  18.857   6.600
 4259POPC   C3A54833  13.091  19.086   6.890
 4259POPC   C4A54834  13.029  19.089   7.325
 4259POPC   C1B54835  12.754  19.531   6.089
 4259POPC   C2B54836  12.917  19.414   6.495
 4259POPC   C3B54837  12.619  19.294   6.807
 4259POPC   C4B54838  12.583  19.352   7.232
 4260POPC   NC354839  36.109   3.201   5.468
 4260POPC   PO454840  36.320   3.830   5.663
 4260POPC   GL154841  36.188   3.493   5.906
 4260POPC   GL254842  35.868   3.404   5.888
 4260POPC   C1A54843  36.086   3.360   6.334
 4260POPC   D2A54844  35.819   3.514   6.646
 4260POPC   C3A54845  36.088   3.464   6.989
 4260POPC   C4A54846  36.493   3.445   7.210
 4260POPC   C1B54847  35.816   3.788   6.161
 4260POPC   C2B54848  35.700   4.037   6.539
 4260POPC   C3B54849  35.819   3.930   6.960
 4260POPC   C4B54850  35.707   3.618   7.269
 4261POPC   NC354851  29.670   0.581   5.324
 4261POPC   PO454852  29.024   0.351   5.278
 4261POPC   GL154853  29.194   0.358   5.715
 4261POPC   GL254854  29.526   0.171   5.728
 4261POPC   C1A54855  29.047   0.370   6.162
 4261POPC   D2A54856  28.945   0.696   6.487
 4261POPC   C3A54857  28.935   0.511   6.901
 4261POPC   C4A54858  29.012   0.485   7.327
 4261POPC   C1B54859  29.540   0.245   6.190
 4261POPC   C2B54860  29.344   0.405   6.616
 4261POPC   C3B54861  29.433   0.587   7.061
 4261POPC   C4B54862  29.496   0.302   7.414
 4262POPC   NC354863   7.016  41.173   5.344
 4262POPC   PO454864   6.456  40.755   5.415
 4262POPC   GL154865   6.702  40.584   5.722
 4262POPC   GL254866   6.765  40.937   5.849
 4262POPC   C1A54867   6.751  40.503   6.162
 4262POPC   D2A54868   6.879  40.751   6.517
 4262POPC   C3A54869   6.758  40.617   6.917
 4262POPC   C4A54870   6.959  40.679   7.327
 4262POPC   C1B54871   6.535  41.017   6.252
 4262POPC   C2B54872   6.586  41.195   6.694
 4262POPC   C3B54873   6.805  41.130   7.069
 4262POPC   C4B54874   6.503  40.891   7.272
 4263POPC   NC354875  37.750  24.073   5.518
 4263POPC   PO454876  37.793  24.740   5.529
 4263POPC   GL154877  38.014  24.537   5.872
 4263POPC   GL254878  38.121  24.197   5.895
 4263POPC   C1A54879  37.963  24.518   6.301
 4263POPC   D2A54880  37.548  24.458   6.451
 4263POPC   C3A54881  37.546  24.448   6.874
 4263POPC   C4A54882  37.848  24.563   7.196
 4263POPC   C1B54883  37.809  24.061   6.165
 4263POPC   C2B54884  37.867  23.958   6.547
 4263POPC   C3B54885  37.916  24.084   6.937
 4263POPC   C4B54886  37.579  24.046   7.205
 4264POPC   NC354887  42.663   7.015   5.061
 4264POPC   PO454888  42.264   7.474   5.288
 4264POPC   GL154889  42.313   7.352   5.729
 4264POPC   GL254890  42.587   7.585   5.724
 4264POPC   C1A54891  42.330   7.322   6.205
 4264POPC   D2A54892  42.090   7.432   6.618
 4264POPC   C3A54893  42.268   7.323   7.031
 4264POPC   C4A54894  42.511   6.942   7.054
 4264POPC   C1B54895  42.587   7.768   6.129
 4264POPC   C2B54896  42.636   7.602   6.548
 4264POPC   C3B54897  42.570   7.745   6.953
 4264POPC   C4B54898  42.443   7.707   7.371
 4265POPC   NC354899  34.853   1.385   5.390
 4265POPC   PO454900  35.312   0.838   5.428
 4265POPC   GL154901  35.277   1.070   5.804
 4265POPC   GL254902  35.082   1.374   5.848
 4265POPC   C1A54903  35.563   1.255   6.133
 4265POPC   D2A54904  35.718   1.156   6.555
 4265POPC   C3A54905  35.648   1.314   6.992
 4265POPC   C4A54906  35.375   1.279   7.368
 4265POPC   C1B54907  35.069   1.182   6.255
 4265POPC   C2B54908  35.180   0.926   6.595
 4265POPC   C3B54909  35.102   1.007   7.017
 4265POPC   C4B54910  35.108   0.841   7.423
 4266POPC   NC354911  39.467  25.615   5.026
 4266POPC   PO454912  39.022  25.307   5.480
 4266POPC   GL154913  39.175  25.059   5.790
 4266POPC   GL254914  39.352  25.362   5.893
 4266POPC   C1A54915  39.290  24.946   6.210
 4266POPC   D2A54916  39.468  24.814   6.592
 4266POPC   C3A54917  39.273  24.926   6.950
 4266POPC   C4A54918  39.440  25.097   7.355
 4266POPC   C1B54919  39.209  25.553   6.268
 4266POPC   C2B54920  39.144  25.305   6.614
 4266POPC   C3B54921  39.136  25.408   7.023
 4266POPC   C4B54922  38.787  25.549   7.234
 4267POPC   NC354923  40.243  26.060   5.406
 4267POPC   PO454924  39.851  26.571   5.264
 4267POPC   GL154925  39.963  26.337   5.710
 4267POPC   GL254926  39.734  26.074   5.868
 4267POPC   C1A54927  40.196  26.140   6.083
 4267POPC   D2A54928  40.342  26.142   6.533
 4267POPC   C3A54929  40.157  25.851   6.868
 4267POPC   C4A54930  40.138  25.900   7.326
 4267POPC   C1B54931  39.708  26.319   6.288
 4267POPC   C2B54932  39.687  26.420   6.762
 4267POPC   C3B54933  39.723  26.168   7.183
 4267POPC   C4B54934  39.636  26.003   7.655
 4268POPC   NC354935   7.571   1.656   5.495
 4268POPC   PO454936   7.171   2.263   5.338
 4268POPC   GL154937   7.307   2.028   5.749
 4268POPC   GL254938   7.093   1.707   5.896
 4268POPC   C1A54939   7.472   1.927   6.170
 4268POPC   D2A54940   7.800   1.958   6.443
 4268POPC   C3A54941   7.764   2.155   6.861
 4268POPC   C4A54942   7.667   2.026   7.282
 4268POPC   C1B54943   7.054   1.704   6.389
 4268POPC   C2B54944   7.323   1.975   6.680
 4268POPC   C3B54945   7.281   2.291   7.028
 4268POPC   C4B54946   7.236   2.158   7.466
 4269POPC   NC354947  11.775  19.301   5.066
 4269POPC   PO454948  11.252  18.999   5.430
 4269POPC   GL154949  11.290  19.032   5.897
 4269POPC   GL254950  11.386  19.297   5.997
 4269POPC   C1A54951  11.059  18.865   6.275
 4269POPC   D2A54952  10.762  18.826   6.644
 4269POPC   C3A54953  10.928  18.875   7.067
 4269POPC   C4A54954  11.261  19.004   7.305
 4269POPC   C1B54955  11.239  19.325   6.370
 4269POPC   C2B54956  11.258  19.108   6.735
 4269POPC   C3B54957  11.185  19.419   7.019
 4269POPC   C4B54958  11.313  19.542   7.434
 4270POPC   NC354959   2.588  33.312   5.330
 4270POPC   PO454960   3.004  32.769   5.358
 4270POPC   GL154961   2.883  33.061   5.689
 4270POPC   GL254962   3.136  33.206   5.893
 4270POPC   C1A54963   2.694  33.065   6.107
 4270POPC   D2A54964   2.575  32.822   6.464
 4270POPC   C3A54965   2.646  33.028   6.856
 4270POPC   C4A54966   2.551  32.797   7.244
 4270POPC   C1B54967   3.128  32.829   6.198
 4270POPC   C2B54968   3.057  32.796   6.663
 4270POPC   C3B54969   3.095  32.984   7.094
 4270POPC   C4B54970   3.239  33.409   7.206
 4271POPC   NC354971  37.716   3.588   5.322
 4271POPC   PO454972  37.118   3.455   5.618
 4271POPC   GL154973  37.541   3.345   5.812
 4271POPC   GL254974  37.912   3.251   5.719
 4271POPC   C1A54975  37.675   3.453   6.245
 4271POPC   D2A54976  37.783   3.794   6.545
 4271POPC   C3A54977  37.550   3.731   6.914
 4271POPC   C4A54978  37.718   3.804   7.295
 4271POPC   C1B54979  38.094   3.198   6.160
 4271POPC   C2B54980  38.061   3.352   6.597
 4271POPC   C3B54981  37.863   3.346   7.017
 4271POPC   C4B54982  37.942   3.335   7.466
 4272POPC   NC354983  25.025   2.948   5.447
 4272POPC   PO454984  25.728   2.733   5.332
 4272POPC   GL154985  25.400   2.710   5.772
 4272POPC   GL254986  25.092   2.902   5.931
 4272POPC   C1A54987  25.460   2.662   6.210
 4272POPC   D2A54988  25.467   2.402   6.546
 4272POPC   C3A54989  25.486   2.630   6.881
 4272POPC   C4A54990  25.651   2.560   7.238
 4272POPC   C1B54991  25.193   3.116   6.265
 4272POPC   C2B54992  25.147   2.869   6.580
 4272POPC   C3B54993  25.077   2.902   6.959
 4272POPC   C4B54994  25.193   2.850   7.339
 4273POPC   NC354995  44.310  32.439   5.461
 4273POPC   PO454996  44.800  31.875   5.463
 4273POPC   GL154997  44.813  32.060   5.858
 4273POPC   GL254998  44.600  32.342   5.902
 4273POPC   C1A54999  44.901  31.956   6.285
 4273POPC   D2A55000  44.572  31.961   6.601
 4273POPC   C3A55001  44.678  32.058   7.028
 4273POPC   C4A55002  44.723  32.471   7.264
 4273POPC   C1B55003  44.331  32.115   6.150
 4273POPC   C2B55004  44.212  32.346   6.497
 4273POPC   C3B55005  44.378  32.394   6.833
 4273POPC   C4B55006  44.249  32.312   7.204
 4274POPC   NC355007  14.049  20.982   5.644
 4274POPC   PO455008  13.547  20.690   5.381
 4274POPC   GL155009  13.683  20.679   5.820
 4274POPC   GL255010  13.927  20.409   5.748
 4274POPC   C1A55011  13.858  20.654   6.243
 4274POPC   D2A55012  13.636  20.618   6.629
 4274POPC   C3A55013  13.396  20.980   6.795
 4274POPC   C4A55014  13.377  21.159   7.234
 4274POPC   C1B55015  13.965  20.153   6.119
 4274POPC   C2B55016  13.980  20.246   6.564
 4274POPC   C3B55017  13.970  20.425   6.988
 4274POPC   C4B55018  13.677  20.720   7.132
 4275POPC   NC355019  19.620  31.118   5.491
 4275POPC   PO455020  19.812  31.755   5.366
 4275POPC   GL155021  19.716  31.554   5.740
 4275POPC   GL255022  20.050  31.611   5.845
 4275POPC   C1A55023  19.489  31.661   6.113
 4275POPC   D2A55024  19.626  31.817   6.515
 4275POPC   C3A55025  19.581  31.556   6.895
 4275POPC   C4A55026  19.793  31.532   7.282
 4275POPC   C1B55027  20.208  31.496   6.238
 4275POPC   C2B55028  19.994  31.421   6.595
 4275POPC   C3B55029  20.121  31.246   6.934
 4275POPC   C4B55030  20.296  31.464   7.251
 4276POPC   NC355031   8.386  33.036   5.241
 4276POPC   PO455032   7.783  33.051   5.559
 4276POPC   GL155033   8.169  32.986   5.733
 4276POPC   GL255034   8.265  33.279   5.834
 4276POPC   C1A55035   8.231  32.909   6.172
 4276POPC   D2A55036   8.313  33.013   6.591
 4276POPC   C3A55037   8.001  33.001   6.904
 4276POPC   C4A55038   8.123  32.889   7.318
 4276POPC   C1B55039   8.528  33.392   6.186
 4276POPC   C2B55040   8.465  33.532   6.614
 4276POPC   C3B55041   8.448  33.311   6.994
 4276POPC   C4B55042   8.473  33.242   7.415
 4277POPC   NC355043  19.832   5.165   5.410
 4277POPC   PO455044  19.759   4.506   5.458
 4277POPC   GL155045  19.940   4.806   5.774
 4277POPC   GL255046  19.778   5.076   5.913
 4277POPC   C1A55047  20.010   4.819   6.267
 4277POPC   D2A55048  20.121   5.119   6.595
 4277POPC   C3A55049  19.828   5.066   6.931
 4277POPC   C4A55050  19.706   5.110   7.358
 4277POPC   C1B55051  19.725   5.285   6.306
 4277POPC   C2B55052  19.958   5.591   6.551
 4277POPC   C3B55053  19.865   5.572   6.963
 4277POPC   C4B55054  19.451   5.494   7.089
 4278POPC   NC355055  26.458  37.623   5.313
 4278POPC   PO455056  25.889  37.817   5.287
 4278POPC   GL155057  25.962  37.778   5.756
 4278POPC   GL255058  26.299  37.632   5.848
 4278POPC   C1A55059  25.911  37.856   6.217
 4278POPC   D2A55060  26.138  37.931   6.594
 4278POPC   C3A55061  25.985  37.807   6.981
 4278POPC   C4A55062  26.122  37.825   7.395
 4278POPC   C1B55063  26.466  37.628   6.282
 4278POPC   C2B55064  26.640  37.914   6.569
 4278POPC   C3B55065  26.514  38.055   6.975
 4278POPC   C4B55066  26.627  37.914   7.354
 4279POPC   NC355067  29.617  42.718   5.592
 4279POPC   PO455068  29.620  43.376   5.391
 4279POPC   GL155069  29.796  43.227   5.758
 4279POPC   GL255070  30.080  42.994   5.799
 4279POPC   C1A55071  29.764  43.130   6.188
 4279POPC   D2A55072  30.032  43.065   6.542
 4279POPC   C3A55073  29.888  43.248   6.887
 4279POPC   C4A55074  29.864  43.316   7.298
 4279POPC   C1B55075  30.017  42.684   6.178
 4279POPC   C2B55076  29.865  42.579   6.621
 4279POPC   C3B55077  29.974  42.781   7.040
 4279POPC   C4B55078  29.985  42.890   7.536
 4280POPC   NC355079  41.687  18.396   5.492
 4280POPC   PO455080  41.300  17.902   5.526
 4280POPC   GL155081  41.468  18.204   5.895
 4280POPC   GL255082  41.578  18.566   5.956
 4280POPC   C1A55083  41.649  18.175   6.326
 4280POPC   D2A55084  41.895  18.012   6.688
 4280POPC   C3A55085  41.717  18.000   7.101
 4280POPC   C4A55086  41.541  18.201   7.439
 4280POPC   C1B55087  41.912  18.621   6.271
 4280POPC   C2B55088  41.905  18.567   6.714
 4280POPC   C3B55089  41.575  18.504   7.013
 4280POPC   C4B55090  41.395  18.723   7.366
 4281POPC   NC355091  42.928   2.203   5.431
 4281POPC   PO455092  43.342   1.644   5.535
 4281POPC   GL155093  43.298   1.901   5.921
 4281POPC   GL255094  43.460   2.250   5.835
 4281POPC   C1A55095  43.056   1.819   6.338
 4281POPC   D2A55096  42.845   2.045   6.720
 4281POPC   C3A55097  42.828   2.051   7.192
 4281POPC   C4A55098  42.852   2.125   7.680
 4281POPC   C1B55099  43.290   2.295   6.259
 4281POPC   C2B55100  43.364   2.079   6.650
 4281POPC   C3B55101  43.281   2.315   7.009
 4281POPC   C4B55102  43.300   2.129   7.415
 4282POPC   NC355103  25.500  13.143   5.477
 4282POPC   PO455104  25.145  12.509   5.279
 4282POPC   GL155105  25.166  12.673   5.756
 4282POPC   GL255106  25.441  12.922   5.938
 4282POPC   C1A55107  25.103  12.695   6.234
 4282POPC   D2A55108  25.264  12.549   6.621
 4282POPC   C3A55109  25.087  12.516   7.025
 4282POPC   C4A55110  25.093  12.851   7.314
 4282POPC   C1B55111  25.628  12.620   6.252
 4282POPC   C2B55112  25.766  12.635   6.702
 4282POPC   C3B55113  25.528  12.798   7.031
 4282POPC   C4B55114  25.565  12.875   7.472
 4283POPC   NC355115  20.948   2.061   5.510
 4283POPC   PO455116  20.415   2.357   5.153
 4283POPC   GL155117  20.435   2.118   5.654
 4283POPC   GL255118  20.586   1.804   5.828
 4283POPC   C1A55119  20.659   2.215   6.107
 4283POPC   D2A55120  20.599   2.253   6.543
 4283POPC   C3A55121  20.762   1.964   6.839
 4283POPC   C4A55122  20.823   1.995   7.251
 4283POPC   C1B55123  20.310   1.865   6.227
 4283POPC   C2B55124  20.249   1.904   6.702
 4283POPC   C3B55125  20.346   1.841   7.178
 4283POPC   C4B55126  20.161   1.782   7.610
 4284POPC   NC355127  35.792  44.157   5.441
 4284POPC   PO455128  36.276  43.721   5.296
 4284POPC   GL155129  36.247  43.719   5.782
 4284POPC   GL255130  36.012  43.939   5.892
 4284POPC   C1A55131  36.172  43.669   6.283
 4284POPC   D2A55132  36.191  43.511   6.724
 4284POPC   C3A55133  36.286  43.815   7.088
 4284POPC   C4A55134  36.482  43.759   7.509
 4284POPC   C1B55135  36.081  44.185   6.276
 4284POPC   C2B55136  36.006  44.064   6.718
 4284POPC   C3B55137  35.945  44.183   7.166
 4284POPC   C4B55138  35.744  44.104   7.571
 4285POPC   NC355139  10.169  43.633   5.303
 4285POPC   PO455140  10.657  44.081   5.462
 4285POPC   GL155141  10.714  43.828   5.881
 4285POPC   GL255142  10.513  43.515   6.002
 4285POPC   C1A55143  10.586  43.857   6.344
 4285POPC   D2A55144  10.553  43.792   6.771
 4285POPC   C3A55145  10.769  44.115   7.006
 4285POPC   C4A55146  10.820  44.019   7.405
 4285POPC   C1B55147  10.893  43.465   6.272
 4285POPC   C2B55148  10.944  43.412   6.715
 4285POPC   C3B55149  10.919  43.629   7.090
 4285POPC   C4B55150  10.901  43.519   7.506
 4286POPC   NC355151   3.082  26.373   5.456
 4286POPC   PO455152   2.682  25.841   5.176
 4286POPC   GL155153   2.857  25.882   5.606
 4286POPC   GL255154   2.598  26.062   5.749
 4286POPC   C1A55155   2.833  25.759   6.061
 4286POPC   D2A55156   2.788  25.889   6.487
 4286POPC   C3A55157   2.884  25.743   6.904
 4286POPC   C4A55158   2.892  26.016   7.254
 4286POPC   C1B55159   2.412  26.248   6.112
 4286POPC   C2B55160   2.377  26.181   6.566
 4286POPC   C3B55161   2.673  26.300   6.880
 4286POPC   C4B55162   2.571  26.399   7.320
 4287POPC   NC355163  28.551  36.287   5.479
 4287POPC   PO455164  27.987  36.666   5.389
 4287POPC   GL155165  28.181  36.569   5.817
 4287POPC   GL255166  28.202  36.189   5.840
 4287POPC   C1A55167  28.067  36.461   6.280
 4287POPC   D2A55168  28.001  36.057   6.553
 4287POPC   C3A55169  28.096  36.046   6.999
 4287POPC   C4A55170  28.283  35.712   7.260
 4287POPC   C1B55171  28.529  36.288   6.143
 4287POPC   C2B55172  28.515  36.177   6.585
 4287POPC   C3B55173  28.621  36.030   7.007
 4287POPC   C4B55174  28.862  35.936   7.363
 4288POPC   NC355175  25.419  43.493   5.490
 4288POPC   PO455176  25.098  44.092   5.562
 4288POPC   GL155177  25.060  43.886   5.901
 4288POPC   GL255178  24.864  43.648   5.819
 4288POPC   C1A55179  25.245  43.814   6.279
 4288POPC   D2A55180  25.316  44.065   6.602
 4288POPC   C3A55181  25.438  43.911   6.951
 4288POPC   C4A55182  25.218  43.947   7.314
 4288POPC   C1B55183  24.737  43.614   6.228
 4288POPC   C2B55184  24.990  43.468   6.567
 4288POPC   C3B55185  25.044  43.607   6.958
 4288POPC   C4B55186  24.999  43.482   7.377
 4289POPC   NC355187  38.824   3.403   5.547
 4289POPC   PO455188  39.466   3.199   5.510
 4289POPC   GL155189  39.271   3.386   5.889
 4289POPC   GL255190  38.979   3.189   5.958
 4289POPC   C1A55191  39.283   3.769   6.210
 4289POPC   D2A55192  39.106   3.957   6.635
 4289POPC   C3A55193  39.235   3.709   7.049
 4289POPC   C4A55194  39.238   3.366   7.369
 4289POPC   C1B55195  38.867   3.487   6.240
 4289POPC   C2B55196  39.067   3.442   6.614
 4289POPC   C3B55197  38.949   3.237   6.969
 4289POPC   C4B55198  38.710   3.573   7.136
 4290POPC   NC355199  14.440  20.914   5.153
 4290POPC   PO455200  14.378  20.317   5.428
 4290POPC   GL155201  14.403  20.576   5.837
 4290POPC   GL255202  14.539  20.938   5.839
 4290POPC   C1A55203  14.364  20.490   6.293
 4290POPC   D2A55204  14.657  20.411   6.644
 4290POPC   C3A55205  14.503  20.322   7.073
 4290POPC   C4A55206  14.456  20.448   7.512
 4290POPC   C1B55207  14.330  21.000   6.275
 4290POPC   C2B55208  14.274  20.791   6.706
 4290POPC   C3B55209  14.262  20.834   7.157
 4290POPC   C4B55210  14.344  20.991   7.572
 4291POPC   NC355211   0.143  17.270   5.102
 4291POPC   PO455212   0.645  17.210   5.518
 4291POPC   GL155213   0.342  17.425   5.769
 4291POPC   GL255214   0.129  17.159   5.864
 4291POPC   C1A55215   0.426  17.689   6.137
 4291POPC   D2A55216   0.570  17.818   6.556
 4291POPC   C3A55217   0.728  17.603   6.938
 4291POPC   C4A55218   0.657  17.638   7.362
 4291POPC   C1B55219   0.084  17.294   6.233
 4291POPC   C2B55220   0.295  17.387   6.582
 4291POPC   C3B55221   0.283  17.365   7.013
 4291POPC   C4B55222  44.995  17.135   7.214
 4292POPC   NC355223  30.802  37.134   5.235
 4292POPC   PO455224  30.473  36.701   5.624
 4292POPC   GL155225  30.584  37.013   5.888
 4292POPC   GL255226  30.887  37.136   5.754
 4292POPC   C1A55227  30.490  37.000   6.318
 4292POPC   D2A55228  30.774  37.074   6.636
 4292POPC   C3A55229  30.810  36.775   6.966
 4292POPC   C4A55230  30.746  36.576   7.358
 4292POPC   C1B55231  31.049  37.031   6.177
 4292POPC   C2B55232  31.290  37.138   6.569
 4292POPC   C3B55233  31.117  37.175   6.995
 4292POPC   C4B55234  30.967  37.054   7.410
 4293POPC   NC355235  29.711   5.336   5.449
 4293POPC   PO455236  30.175   4.950   5.374
 4293POPC   GL155237  29.955   4.977   5.807
 4293POPC   GL255238  29.707   5.254   5.941
 4293POPC   C1A55239  29.850   4.877   6.254
 4293POPC   D2A55240  29.964   5.004   6.675
 4293POPC   C3A55241  29.749   4.928   7.063
 4293POPC   C4A55242  29.912   4.907   7.495
 4293POPC   C1B55243  29.849   5.397   6.309
 4293POPC   C2B55244  29.709   5.453   6.708
 4293POPC   C3B55245  29.906   5.411   7.100
 4293POPC   C4B55246  29.665   5.359   7.450
 4294POPC   NC355247   3.128  25.691   5.015
 4294POPC   PO455248   3.527  26.041   5.471
 4294POPC   GL155249   3.443  26.239   5.849
 4294POPC   GL255250   3.267  25.977   5.947
 4294POPC   C1A55251   3.329  26.339   6.301
 4294POPC   D2A55252   3.170  26.138   6.698
 4294POPC   C3A55253   3.389  26.029   7.070
 4294POPC   C4A55254   3.533  26.327   7.382
 4294POPC   C1B55255   3.642  25.908   6.253
 4294POPC   C2B55256   3.881  25.753   6.645
 4294POPC   C3B55257   3.747  25.637   7.047
 4294POPC   C4B55258   3.701  25.838   7.465
 4295POPC   NC355259  42.664  22.654   5.408
 4295POPC   PO455260  42.467  23.309   5.430
 4295POPC   GL155261  42.541  22.996   5.810
 4295POPC   GL255262  42.228  22.867   5.894
 4295POPC   C1A55263  42.489  22.987   6.308
 4295POPC   D2A55264  42.231  23.274   6.580
 4295POPC   C3A55265  42.357  23.147   6.993
 4295POPC   C4A55266  42.433  22.723   7.179
 4295POPC   C1B55267  42.053  22.718   6.274
 4295POPC   C2B55268  42.193  22.760   6.693
 4295POPC   C3B55269  41.962  22.785   7.067
 4295POPC   C4B55270  41.795  22.479   7.293
 4296POPC   NC355271  41.790  32.506   5.595
 4296POPC   PO455272  41.326  32.018   5.537
 4296POPC   GL155273  41.532  32.173   5.928
 4296POPC   GL255274  41.889  32.138   5.931
 4296POPC   C1A55275  41.663  32.245   6.378
 4296POPC   D2A55276  41.501  32.255   6.789
 4296POPC   C3A55277  41.509  32.112   7.203
 4296POPC   C4A55278  41.612  32.350   7.561
 4296POPC   C1B55279  42.049  31.917   6.298
 4296POPC   C2B55280  42.054  32.083   6.704
 4296POPC   C3B55281  41.973  31.910   7.103
 4296POPC   C4B55282  41.829  31.855   7.518
 4297POPC   NC355283  41.243  13.493   5.652
 4297POPC   PO455284  41.739  13.631   5.194
 4297POPC   GL155285  41.748  13.689   5.688
 4297POPC   GL255286  41.510  13.911   5.840
 4297POPC   C1A55287  41.648  13.520   6.145
 4297POPC   D2A55288  41.651  13.640   6.567
 4297POPC   C3A55289  41.385  13.507   6.854
 4297POPC   C4A55290  41.425  13.497   7.281
 4297POPC   C1B55291  41.477  14.023   6.288
 4297POPC   C2B55292  41.211  14.126   6.634
 4297POPC   C3B55293  41.175  13.921   7.028
 4297POPC   C4B55294  41.381  13.976   7.383
 4298POPC   NC355295  27.481   8.632   5.441
 4298POPC   PO455296  27.912   8.077   5.582
 4298POPC   GL155297  27.713   8.369   5.864
 4298POPC   GL255298  27.325   8.420   5.852
 4298POPC   C1A55299  27.824   8.291   6.288
 4298POPC   D2A55300  27.644   7.942   6.525
 4298POPC   C3A55301  27.661   8.064   6.923
 4298POPC   C4A55302  27.523   8.091   7.304
 4298POPC   C1B55303  27.321   8.267   6.235
 4298POPC   C2B55304  27.377   8.404   6.637
 4298POPC   C3B55305  27.171   8.307   7.005
 4298POPC   C4B55306  27.173   8.427   7.443
 4299POPC   NC355307  43.544  42.107   5.600
 4299POPC   PO455308  42.917  42.370   5.335
 4299POPC   GL155309  43.010  42.440   5.788
 4299POPC   GL255310  43.335  42.541   5.899
 4299POPC   C1A55311  42.930  42.340   6.236
 4299POPC   D2A55312  42.694  42.320   6.652
 4299POPC   C3A55313  42.932  42.338   7.065
 4299POPC   C4A55314  43.228  42.044   7.147
 4299POPC   C1B55315  43.452  42.297   6.300
 4299POPC   C2B55316  43.558  42.454   6.726
 4299POPC   C3B55317  43.419  42.526   7.162
 4299POPC   C4B55318  43.475  42.259   7.569
 4300POPC   NC355319  11.178  16.974   5.598
 4300POPC   PO455320  11.516  17.327   5.161
 4300POPC   GL155321  11.454  17.418   5.654
 4300POPC   GL255322  11.072  17.436   5.763
 4300POPC   C1A55323  11.403  17.629   6.103
 4300POPC   D2A55324  11.301  17.555   6.561
 4300POPC   C3A55325  11.597  17.594   6.928
 4300POPC   C4A55326  11.575  17.919   7.262
 4300POPC   C1B55327  10.961  17.307   6.197
 4300POPC   C2B55328  10.980  17.171   6.644
 4300POPC   C3B55329  11.175  17.300   7.052
 4300POPC   C4B55330  11.156  17.111   7.479
 4301POPC   NC355331  28.889  37.157   5.650
 4301POPC   PO455332  29.205  36.684   5.264
 4301POPC   GL155333  29.307  36.848   5.705
 4301POPC   GL255334  29.114  36.611   5.856
 4301POPC   C1A55335  29.227  37.031   6.182
 4301POPC   D2A55336  28.992  36.955   6.575
 4301POPC   C3A55337  29.008  37.163   6.999
 4301POPC   C4A55338  29.421  37.117   7.179
 4301POPC   C1B55339  28.991  36.524   6.267
 4301POPC   C2B55340  28.913  36.471   6.712
 4301POPC   C3B55341  29.143  36.676   7.010
 4301POPC   C4B55342  29.143  36.765   7.460
 4302POPC   NC355343   4.412   7.091   5.364
 4302POPC   PO455344   4.032   7.735   5.346
 4302POPC   GL155345   4.079   7.520   5.737
 4302POPC   GL255346   4.122   7.144   5.776
 4302POPC   C1A55347   4.318   7.542   6.123
 4302POPC   D2A55348   4.561   7.570   6.508
 4302POPC   C3A55349   4.397   7.505   6.919
 4302POPC   C4A55350   4.492   7.288   7.279
 4302POPC   C1B55351   3.939   7.214   6.158
 4302POPC   C2B55352   4.167   7.234   6.526
 4302POPC   C3B55353   4.013   7.155   6.905
 4302POPC   C4B55354   3.972   7.271   7.305
 4303POPC   NC355355  29.052  11.712   5.399
 4303POPC   PO455356  29.364  11.170   5.458
 4303POPC   GL155357  28.964  11.277   5.731
 4303POPC   GL255358  29.034  11.585   5.881
 4303POPC   C1A55359  28.746  11.298   6.164
 4303POPC   D2A55360  28.912  11.280   6.563
 4303POPC   C3A55361  28.776  11.210   6.943
 4303POPC   C4A55362  29.071  11.108   7.250
 4303POPC   C1B55363  29.242  11.527   6.247
 4303POPC   C2B55364  29.149  11.724   6.641
 4303POPC   C3B55365  29.190  11.580   7.062
 4303POPC   C4B55366  29.383  11.802   7.391
 4304POPC   NC355367  15.796  44.892   5.593
 4304POPC   PO455368  16.223  44.417   5.692
 4304POPC   GL155369  16.025  44.727   6.023
 4304POPC   GL255370  15.731   0.022   6.063
 4304POPC   C1A55371  15.789  44.602   6.396
 4304POPC   D2A55372  15.739  44.719   6.818
 4304POPC   C3A55373  15.847  44.481   7.197
 4304POPC   C4A55374  16.151  44.581   7.545
 4304POPC   C1B55375  15.965   0.082   6.409
 4304POPC   C2B55376  16.218  44.958   6.698
 4304POPC   C3B55377  16.169  44.875   7.089
 4304POPC   C4B55378  15.847  44.971   7.280
 4305POPC   NC355379  20.945  31.981   5.703
 4305POPC   PO455380  20.585  32.387   5.320
 4305POPC   GL155381  20.546  32.353   5.743
 4305POPC   GL255382  20.863  32.487   5.843
 4305POPC   C1A55383  20.473  32.333   6.184
 4305POPC   D2A55384  20.262  32.417   6.567
 4305POPC   C3A55385  20.373  32.178   6.898
 4305POPC   C4A55386  20.560  32.423   7.166
 4305POPC   C1B55387  20.991  32.411   6.285
 4305POPC   C2B55388  20.825  32.340   6.707
 4305POPC   C3B55389  21.022  32.237   7.137
 4305POPC   C4B55390  20.980  32.375   7.598
 4306POPC   NC355391  26.288  26.298   5.680
 4306POPC   PO455392  25.808  25.947   5.315
 4306POPC   GL155393  25.965  25.894   5.758
 4306POPC   GL255394  26.342  25.778   5.742
 4306POPC   C1A55395  25.939  26.085   6.222
 4306POPC   D2A55396  25.973  26.342   6.615
 4306POPC   C3A55397  25.967  26.109   6.987
 4306POPC   C4A55398  25.780  25.841   7.286
 4306POPC   C1B55399  26.432  25.927   6.187
 4306POPC   C2B55400  26.289  25.886   6.611
 4306POPC   C3B55401  26.503  26.078   6.947
 4306POPC   C4B55402  26.419  26.209   7.354
 4307POPC   NC355403  34.999  32.338   5.588
 4307POPC   PO455404  35.624  32.196   5.344
 4307POPC   GL155405  35.444  32.159   5.791
 4307POPC   GL255406  35.117  31.959   5.906
 4307POPC   C1A55407  35.583  32.386   6.167
 4307POPC   D2A55408  35.681  32.217   6.557
 4307POPC   C3A55409  35.593  32.407   6.918
 4307POPC   C4A55410  35.290  32.325   7.230
 4307POPC   C1B55411  35.141  32.175   6.303
 4307POPC   C2B55412  35.152  32.167   6.747
 4307POPC   C3B55413  35.054  31.891   7.096
 4307POPC   C4B55414  35.063  31.988   7.551
 4308POPC   NC355415  24.045  24.832   5.421
 4308POPC   PO455416  24.611  24.533   5.257
 4308POPC   GL155417  24.526  24.552   5.691
 4308POPC   GL255418  24.313  24.753   5.862
 4308POPC   C1A55419  24.724  24.571   6.105
 4308POPC   D2A55420  24.608  24.520   6.541
 4308POPC   C3A55421  24.699  24.764   6.910
 4308POPC   C4A55422  24.721  24.522   7.289
 4308POPC   C1B55423  24.171  24.515   6.247
 4308POPC   C2B55424  24.144  24.651   6.717
 4308POPC   C3B55425  24.220  24.546   7.153
 4308POPC   C4B55426  24.302  24.199   7.511
 4309POPC   NC355427  14.799   9.740   5.150
 4309POPC   PO455428  14.205   9.560   5.499
 4309POPC   GL155429  14.268   9.665   5.877
 4309POPC   GL255430  14.129   9.952   5.856
 4309POPC   C1A55431  14.520   9.710   6.237
 4309POPC   D2A55432  14.374   9.754   6.624
 4309POPC   C3A55433  14.575   9.610   6.973
 4309POPC   C4A55434  14.484   9.647   7.367
 4309POPC   C1B55435  14.214  10.123   6.251
 4309POPC   C2B55436  14.387  10.263   6.651
 4309POPC   C3B55437  14.499  10.118   7.063
 4309POPC   C4B55438  14.384  10.124   7.511
 4310POPC   NC355439   0.617   2.544   5.536
 4310POPC   PO455440   0.636   3.219   5.553
 4310POPC   GL155441   0.611   2.946   5.874
 4310POPC   GL255442   0.228   2.895   5.849
 4310POPC   C1A55443   0.827   2.999   6.274
 4310POPC   D2A55444   0.606   3.237   6.590
 4310POPC   C3A55445   0.410   2.982   6.899
 4310POPC   C4A55446   0.584   2.824   7.261
 4310POPC   C1B55447   0.337   2.876   6.304
 4310POPC   C2B55448   0.620   2.605   6.588
 4310POPC   C3B55449   0.469   2.412   6.978
 4310POPC   C4B55450   0.130   2.601   7.239
 4311POPC   NC355451  26.978  16.334   5.536
 4311POPC   PO455452  26.613  16.923   5.449
 4311POPC   GL155453  26.832  16.863   5.830
 4311POPC   GL255454  26.618  16.550   5.842
 4311POPC   C1A55455  26.990  16.851   6.277
 4311POPC   D2A55456  26.987  16.589   6.668
 4311POPC   C3A55457  26.910  16.763   7.077
 4311POPC   C4A55458  26.737  16.718   7.488
 4311POPC   C1B55459  26.786  16.341   6.204
 4311POPC   C2B55460  26.584  16.254   6.584
 4311POPC   C3B55461  26.521  16.342   7.007
 4311POPC   C4B55462  26.486  16.288   7.450
 4312POPC   NC355463  15.665   0.772   5.542
 4312POPC   PO455464  15.993   1.491   5.350
 4312POPC   GL155465  16.100   1.378   5.772
 4312POPC   GL255466  16.092   1.022   5.804
 4312POPC   C1A55467  15.907   1.396   6.195
 4312POPC   D2A55468  15.749   1.233   6.585
 4312POPC   C3A55469  15.957   1.370   6.971
 4312POPC   C4A55470  15.758   1.476   7.378
 4312POPC   C1B55471  16.086   0.913   6.208
 4312POPC   C2B55472  16.220   1.038   6.591
 4312POPC   C3B55473  16.138   0.879   6.994
 4312POPC   C4B55474  15.757   0.963   7.218
 4313POPC   NC355475   7.159   8.617   5.670
 4313POPC   PO455476   7.462   8.056   5.485
 4313POPC   GL155477   7.408   7.971   5.880
 4313POPC   GL255478   7.717   7.791   5.854
 4313POPC   C1A55479   7.293   8.206   6.274
 4313POPC   D2A55480   7.448   8.361   6.665
 4313POPC   C3A55481   7.273   8.217   7.059
 4313POPC   C4A55482   7.367   8.302   7.505
 4313POPC   C1B55483   7.783   8.006   6.234
 4313POPC   C2B55484   7.724   7.889   6.651
 4313POPC   C3B55485   7.774   8.119   7.021
 4313POPC   C4B55486   7.720   7.952   7.406
 4314POPC   NC355487  42.623   6.336   5.566
 4314POPC   PO455488  43.070   6.882   5.282
 4314POPC   GL155489  43.207   6.752   5.706
 4314POPC   GL255490  42.918   6.591   5.867
 4314POPC   C1A55491  43.198   6.840   6.180
 4314POPC   D2A55492  43.011   6.601   6.541
 4314POPC   C3A55493  42.996   6.888   6.895
 4314POPC   C4A55494  42.922   6.715   7.291
 4314POPC   C1B55495  42.887   6.224   6.183
 4314POPC   C2B55496  43.002   6.035   6.574
 4314POPC   C3B55497  43.058   6.203   7.011
 4314POPC   C4B55498  42.797   6.213   7.415
 4315POPC   NC355499  39.973  39.054   5.354
 4315POPC   PO455500  39.940  39.663   5.460
 4315POPC   GL155501  39.920  39.325   5.803
 4315POPC   GL255502  40.208  39.082   5.815
 4315POPC   C1A55503  40.056  39.345   6.245
 4315POPC   D2A55504  39.995  39.539   6.668
 4315POPC   C3A55505  40.019  39.267   7.031
 4315POPC   C4A55506  39.711  39.146   7.372
 4315POPC   C1B55507  40.317  38.868   6.209
 4315POPC   C2B55508  40.244  39.018   6.624
 4315POPC   C3B55509  40.290  38.825   7.024
 4315POPC   C4B55510  40.313  39.054   7.395
 4316POPC   NC355511  39.397  40.118   5.374
 4316POPC   PO455512  38.987  39.610   5.555
 4316POPC   GL155513  39.044  39.946   5.848
 4316POPC   GL255514  39.181  40.296   5.808
 4316POPC   C1A55515  39.149  39.885   6.276
 4316POPC   D2A55516  39.513  39.757   6.494
 4316POPC   C3A55517  39.388  39.864   6.877
 4316POPC   C4A55518  39.011  40.002   7.044
 4316POPC   C1B55519  39.331  40.359   6.238
 4316POPC   C2B55520  39.238  40.358   6.678
 4316POPC   C3B55521  39.388  40.337   7.071
 4316POPC   C4B55522  39.416  40.033   7.375
 4317POPC   NC355523  18.125  25.450   5.061
 4317POPC   PO455524  18.442  25.205   5.555
 4317POPC   GL155525  18.563  25.081   5.928
 4317POPC   GL255526  18.209  25.083   6.002
 4317POPC   C1A55527  18.556  25.123   6.353
 4317POPC   D2A55528  18.280  25.247   6.700
 4317POPC   C3A55529  18.502  25.199   7.070
 4317POPC   C4A55530  18.400  25.288   7.470
 4317POPC   C1B55531  17.910  25.099   6.339
 4317POPC   C2B55532  17.792  24.992   6.771
 4317POPC   C3B55533  17.967  25.138   7.168
 4317POPC   C4B55534  17.933  25.118   7.627
 4318POPC   NC355535  43.512  39.148   5.543
 4318POPC   PO455536  42.992  39.467   5.400
 4318POPC   GL155537  43.107  39.375   5.795
 4318POPC   GL255538  43.366  39.613   5.815
 4318POPC   C1A55539  42.937  39.217   6.160
 4318POPC   D2A55540  42.977  38.972   6.537
 4318POPC   C3A55541  42.692  39.055   6.835
 4318POPC   C4A55542  42.776  39.095   7.247
 4318POPC   C1B55543  43.329  39.529   6.276
 4318POPC   C2B55544  43.027  39.472   6.595
 4318POPC   C3B55545  42.825  39.540   6.962
 4318POPC   C4B55546  43.197  39.506   7.191
 4319POPC   NC355547   2.973  16.349   5.696
 4319POPC   PO455548   2.699  16.745   5.297
 4319POPC   GL155549   2.737  16.810   5.805
 4319POPC   GL255550   3.066  16.845   5.917
 4319POPC   C1A55551   2.668  16.607   6.234
 4319POPC   D2A55552   2.930  16.327   6.492
 4319POPC   C3A55553   3.042  16.478   6.897
 4319POPC   C4A55554   2.980  16.299   7.297
 4319POPC   C1B55555   3.107  16.803   6.358
 4319POPC   C2B55556   2.801  16.880   6.680
 4319POPC   C3B55557   2.953  17.051   7.048
 4319POPC   C4B55558   3.006  17.062   7.479
 4320POPC   NC355559  41.388   2.832   5.308
 4320POPC   PO455560  41.884   2.853   5.731
 4320POPC   GL155561  41.549   2.681   5.881
 4320POPC   GL255562  41.365   2.982   5.821
 4320POPC   C1A55563  41.550   2.764   6.315
 4320POPC   D2A55564  41.598   3.021   6.638
 4320POPC   C3A55565  41.449   2.745   6.979
 4320POPC   C4A55566  41.635   2.595   7.379
 4320POPC   C1B55567  41.259   3.180   6.225
 4320POPC   C2B55568  41.109   3.059   6.629
 4320POPC   C3B55569  41.214   3.189   7.025
 4320POPC   C4B55570  41.368   3.028   7.403
 4321POPC   NC355571  36.006  24.232   5.423
 4321POPC   PO455572  36.351  23.688   5.581
 4321POPC   GL155573  36.140  23.801   5.920
 4321POPC   GL255574  36.293  24.119   5.918
 4321POPC   C1A55575  36.191  23.621   6.335
 4321POPC   D2A55576  36.309  23.724   6.763
 4321POPC   C3A55577  36.300  23.393   7.065
 4321POPC   C4A55578  35.963  23.198   7.238
 4321POPC   C1B55579  36.036  24.126   6.310
 4321POPC   C2B55580  35.830  23.843   6.623
 4321POPC   C3B55581  35.909  23.768   7.095
 4321POPC   C4B55582  35.865  23.830   7.549
 4322POPC   NC355583   3.079  42.744   5.610
 4322POPC   PO455584   3.373  43.262   5.306
 4322POPC   GL155585   3.549  43.095   5.742
 4322POPC   GL255586   3.321  42.911   6.007
 4322POPC   C1A55587   3.626  43.270   6.175
 4322POPC   D2A55588   3.381  43.298   6.549
 4322POPC   C3A55589   3.572  43.212   6.922
 4322POPC   C4A55590   3.611  43.195   7.339
 4322POPC   C1B55591   3.256  42.613   6.357
 4322POPC   C2B55592   3.162  42.845   6.736
 4322POPC   C3B55593   3.251  42.831   7.157
 4322POPC   C4B55594   3.258  42.902   7.594
 4323POPC   NC355595   3.357  18.800   5.525
 4323POPC   PO455596   3.867  19.245   5.353
 4323POPC   GL155597   3.684  19.138   5.741
 4323POPC   GL255598   3.360  19.294   5.721
 4323POPC   C1A55599   3.609  18.838   6.130
 4323POPC   D2A55600   3.699  18.875   6.579
 4323POPC   C3A55601   3.388  18.931   6.907
 4323POPC   C4A55602   3.390  18.849   7.343
 4323POPC   C1B55603   3.509  19.327   6.172
 4323POPC   C2B55604   3.463  19.368   6.618
 4323POPC   C3B55605   3.583  19.400   7.066
 4323POPC   C4B55606   3.468  19.385   7.506
 4324POPC   NC355607  18.915   1.577   5.411
 4324POPC   PO455608  19.553   2.079   5.427
 4324POPC   GL155609  19.327   1.892   5.805
 4324POPC   GL255610  18.958   1.856   5.826
 4324POPC   C1A55611  19.323   1.862   6.273
 4324POPC   D2A55612  19.335   2.091   6.696
 4324POPC   C3A55613  19.105   1.945   7.065
 4324POPC   C4A55614  18.758   1.650   7.146
 4324POPC   C1B55615  18.867   1.615   6.196
 4324POPC   C2B55616  18.927   1.794   6.591
 4324POPC   C3B55617  18.708   2.103   6.802
 4324POPC   C4B55618  18.600   2.126   7.217
 4325POPC   NC355619  36.057   6.272   5.415
 4325POPC   PO455620  35.990   5.611   5.506
 4325POPC   GL155621  35.940   5.715   5.919
 4325POPC   GL255622  36.128   6.026   5.879
 4325POPC   C1A55623  36.069   5.565   6.309
 4325POPC   D2A55624  36.099   5.337   6.668
 4325POPC   C3A55625  36.323   5.595   6.960
 4325POPC   C4A55626  36.359   5.550   7.386
 4325POPC   C1B55627  36.376   5.976   6.250
 4325POPC   C2B55628  36.350   6.121   6.666
 4325POPC   C3B55629  36.133   6.234   7.022
 4325POPC   C4B55630  36.440   6.027   7.241
 4326POPC   NC355631   0.051  22.603   5.627
 4326POPC   PO455632  44.629  22.131   5.471
 4326POPC   GL155633  44.516  22.010   5.864
 4326POPC   GL255634  44.444  22.353   5.940
 4326POPC   C1A55635  44.737  21.923   6.236
 4326POPC   D2A55636  44.756  22.141   6.638
 4326POPC   C3A55637  44.733  21.803   6.929
 4326POPC   C4A55638  44.716  21.612   7.295
 4326POPC   C1B55639  44.326  22.202   6.327
 4326POPC   C2B55640  44.288  21.971   6.688
 4326POPC   C3B55641  44.449  22.199   7.080
 4326POPC   C4B55642  44.536  22.449   7.456
 4327POPC   NC355643  27.016  19.880   5.416
 4327POPC   PO455644  26.756  19.283   5.212
 4327POPC   GL155645  26.562  19.579   5.646
 4327POPC   GL255646  26.649  19.923   5.759
 4327POPC   C1A55647  26.646  19.656   6.169
 4327POPC   D2A55648  26.577  19.892   6.589
 4327POPC   C3A55649  26.660  19.744   7.026
 4327POPC   C4A55650  26.687  19.713   7.461
 4327POPC   C1B55651  27.078  19.982   6.047
 4327POPC   C2B55652  27.158  19.996   6.487
 4327POPC   C3B55653  27.127  19.919   6.920
 4327POPC   C4B55654  26.999  20.078   7.296
 4328POPC   NC355655  14.394  11.468   5.526
 4328POPC   PO455656  14.932  11.008   5.493
 4328POPC   GL155657  14.613  11.122   5.820
 4328POPC   GL255658  14.296  10.964   5.815
 4328POPC   C1A55659  14.447  11.340   6.193
 4328POPC   D2A55660  14.468  11.163   6.595
 4328POPC   C3A55661  14.534  11.350   7.009
 4328POPC   C4A55662  14.752  11.116   7.331
 4328POPC   C1B55663  13.994  11.080   6.166
 4328POPC   C2B55664  13.977  11.293   6.565
 4328POPC   C3B55665  14.071  11.073   6.954
 4328POPC   C4B55666  14.252  11.093   7.385
 4329POPC   NC355667   6.315  41.895   5.389
 4329POPC   PO455668   6.834  42.358   5.424
 4329POPC   GL155669   6.739  42.294   5.850
 4329POPC   GL255670   6.463  42.062   5.855
 4329POPC   C1A55671   6.863  42.498   6.263
 4329POPC   D2A55672   6.656  42.666   6.647
 4329POPC   C3A55673   6.769  42.541   7.073
 4329POPC   C4A55674   6.705  42.711   7.501
 4329POPC   C1B55675   6.341  42.367   6.174
 4329POPC   C2B55676   6.138  42.301   6.536
 4329POPC   C3B55677   6.284  42.441   6.919
 4329POPC   C4B55678   6.462  42.163   7.239
 4330POPC   NC355679  44.554   5.512   5.500
 4330POPC   PO455680  44.409   4.789   5.388
 4330POPC   GL155681  44.539   4.982   5.805
 4330POPC   GL255682  44.861   5.176   5.775
 4330POPC   C1A55683  44.494   5.008   6.281
 4330POPC   D2A55684  44.619   4.871   6.730
 4330POPC   C3A55685  44.467   5.051   7.125
 4330POPC   C4A55686  44.340   5.145   7.573
 4330POPC   C1B55687  44.992   5.254   6.190
 4330POPC   C2B55688  44.842   5.306   6.589
 4330POPC   C3B55689   0.009   5.174   6.984
 4330POPC   C4B55690  44.857   5.260   7.384
 4331POPC   NC355691   8.444   3.829   5.461
 4331POPC   PO455692   8.068   3.272   5.573
 4331POPC   GL155693   8.356   3.469   5.877
 4331POPC   GL255694   8.183   3.793   5.900
 4331POPC   C1A55695   8.304   3.537   6.356
 4331POPC   D2A55696   8.044   3.795   6.686
 4331POPC   C3A55697   8.066   3.651   7.152
 4331POPC   C4A55698   8.449   3.406   7.330
 4331POPC   C1B55699   8.537   3.939   6.120
 4331POPC   C2B55700   8.551   3.940   6.556
 4331POPC   C3B55701   8.526   3.746   6.933
 4331POPC   C4B55702   8.463   3.916   7.331
 4332POPC   NC355703  10.646  31.588   5.338
 4332POPC   PO455704  10.131  31.145   5.553
 4332POPC   GL155705  10.507  31.372   5.792
 4332POPC   GL255706  10.627  31.765   5.821
 4332POPC   C1A55707  10.699  31.395   6.223
 4332POPC   D2A55708  10.585  31.245   6.639
 4332POPC   C3A55709  10.633  31.452   7.035
 4332POPC   C4A55710  10.536  31.285   7.461
 4332POPC   C1B55711  10.271  31.695   6.116
 4332POPC   C2B55712  10.268  31.693   6.584
 4332POPC   C3B55713  10.194  31.696   7.038
 4332POPC   C4B55714  10.510  31.787   7.387
 4333POPC   NC355715  31.602  41.696   5.518
 4333POPC   PO455716  31.496  41.034   5.262
 4333POPC   GL155717  31.511  41.196   5.734
 4333POPC   GL255718  31.220  41.420   5.874
 4333POPC   C1A55719  31.607  41.337   6.202
 4333POPC   D2A55720  31.402  41.414   6.632
 4333POPC   C3A55721  31.691  41.409   6.984
 4333POPC   C4A55722  31.521  41.431   7.412
 4333POPC   C1B55723  31.301  41.743   6.242
 4333POPC   C2B55724  31.392  41.916   6.636
 4333POPC   C3B55725  31.336  41.784   7.044
 4333POPC   C4B55726  31.237  42.031   7.366
 4334POPC   NC355727  14.609  42.876   5.434
 4334POPC   PO455728  14.271  43.380   5.648
 4334POPC   GL155729  14.393  43.027   5.904
 4334POPC   GL255730  14.726  43.127   5.965
 4334POPC   C1A55731  14.193  42.912   6.308
 4334POPC   D2A55732  14.218  42.953   6.764
 4334POPC   C3A55733  14.070  42.878   7.181
 4334POPC   C4A55734  14.073  43.137   7.580
 4334POPC   C1B55735  14.498  43.356   6.324
 4334POPC   C2B55736  14.462  43.418   6.796
 4334POPC   C3B55737  14.465  43.194   7.173
 4334POPC   C4B55738  14.714  42.801   7.219
 4335POPC   NC355739  26.182   2.403   5.166
 4335POPC   PO455740  25.669   2.117   5.498
 4335POPC   GL155741  25.905   2.029   5.905
 4335POPC   GL255742  26.256   1.933   5.884
 4335POPC   C1A55743  25.984   1.791   6.295
 4335POPC   D2A55744  25.716   1.810   6.624
 4335POPC   C3A55745  25.706   2.160   6.931
 4335POPC   C4A55746  25.684   2.069   7.401
 4335POPC   C1B55747  26.375   2.118   6.319
 4335POPC   C2B55748  26.148   2.114   6.696
 4335POPC   C3B55749  26.052   1.806   7.017
 4335POPC   C4B55750  26.156   1.829   7.446
 4336POPC   NC355751   1.837  31.880   5.207
 4336POPC   PO455752   2.115  32.388   5.612
 4336POPC   GL155753   1.919  32.189   5.949
 4336POPC   GL255754   2.247  32.192   6.116
 4336POPC   C1A55755   1.830  32.406   6.343
 4336POPC   D2A55756   2.204  32.466   6.615
 4336POPC   C3A55757   2.120  32.414   7.051
 4336POPC   C4A55758   1.694  32.247   7.124
 4336POPC   C1B55759   2.041  31.955   6.449
 4336POPC   C2B55760   1.944  31.842   6.875
 4336POPC   C3B55761   2.190  31.941   7.225
 4336POPC   C4B55762   2.009  32.210   7.542
 4337POPC   NC355763  42.018   5.557   5.517
 4337POPC   PO455764  42.225   6.194   5.752
 4337POPC   GL155765  42.537   5.949   5.926
 4337POPC   GL255766  42.507   5.618   5.815
 4337POPC   C1A55767  42.463   5.857   6.356
 4337POPC   D2A55768  42.143   5.967   6.662
 4337POPC   C3A55769  42.362   6.025   7.069
 4337POPC   C4A55770  42.267   6.042   7.510
 4337POPC   C1B55771  42.174   5.499   6.144
 4337POPC   C2B55772  42.196   5.431   6.584
 4337POPC   C3B55773  42.092   5.569   6.997
 4337POPC   C4B55774  42.274   5.512   7.400
 4338POPC   NC355775  17.510  13.465   5.350
 4338POPC   PO455776  17.455  14.063   5.404
 4338POPC   GL155777  17.598  13.791   5.762
 4338POPC   GL255778  17.743  13.422   5.814
 4338POPC   C1A55779  17.537  13.778   6.191
 4338POPC   D2A55780  17.564  13.647   6.600
 4338POPC   C3A55781  17.684  13.868   6.943
 4338POPC   C4A55782  17.493  13.897   7.340
 4338POPC   C1B55783  17.640  13.274   6.221
 4338POPC   C2B55784  17.729  13.182   6.640
 4338POPC   C3B55785  17.549  13.334   7.029
 4338POPC   C4B55786  17.626  13.155   7.419
 4339POPC   NC355787  18.310  14.761   5.557
 4339POPC   PO455788  18.615  15.305   5.541
 4339POPC   GL155789  18.217  15.311   5.800
 4339POPC   GL255790  18.026  14.985   5.919
 4339POPC   C1A55791  18.278  15.411   6.233
 4339POPC   D2A55792  18.536  15.197   6.546
 4339POPC   C3A55793  18.502  15.354   6.975
 4339POPC   C4A55794  18.544  15.348   7.421
 4339POPC   C1B55795  17.909  15.095   6.354
 4339POPC   C2B55796  18.060  15.225   6.758
 4339POPC   C3B55797  18.141  15.035   7.158
 4339POPC   C4B55798  17.771  15.078   7.346
 4340POPC   NC355799  16.490  17.863   5.408
 4340POPC   PO455800  16.685  17.206   5.534
 4340POPC   GL155801  16.660  17.434   5.916
 4340POPC   GL255802  16.794  17.687   5.806
 4340POPC   C1A55803  16.904  17.677   6.291
 4340POPC   D2A55804  17.006  17.894   6.696
 4340POPC   C3A55805  17.025  17.522   6.985
 4340POPC   C4A55806  16.716  17.225   7.160
 4340POPC   C1B55807  16.469  17.885   6.088
 4340POPC   C2B55808  16.484  17.910   6.539
 4340POPC   C3B55809  16.512  17.683   6.937
 4340POPC   C4B55810  16.365  17.838   7.371
 4341POPC   NC355811   3.912  35.459   5.498
 4341POPC   PO455812   3.326  35.107   5.446
 4341POPC   GL155813   3.553  35.217   5.828
 4341POPC   GL255814   3.663  35.561   6.014
 4341POPC   C1A55815   3.443  35.163   6.249
 4341POPC   D2A55816   3.510  35.500   6.532
 4341POPC   C3A55817   3.349  35.443   6.920
 4341POPC   C4A55818   3.417  35.204   7.247
 4341POPC   C1B55819   3.972  35.666   6.351
 4341POPC   C2B55820   4.041  35.668   6.798
 4341POPC   C3B55821   3.738  35.668   7.135
 4341POPC   C4B55822   3.618  35.576   7.560
 4342POPC   NC355823   9.724  34.826   5.310
 4342POPC   PO455824  10.042  34.281   5.336
 4342POPC   GL155825   9.883  34.566   5.703
 4342POPC   GL255826   9.994  34.930   5.758
 4342POPC   C1A55827   9.732  34.607   6.127
 4342POPC   D2A55828   9.398  34.535   6.414
 4342POPC   C3A55829   9.441  34.464   6.857
 4342POPC   C4A55830   9.376  34.555   7.298
 4342POPC   C1B55831   9.851  35.099   6.186
 4342POPC   C2B55832   9.728  34.900   6.600
 4342POPC   C3B55833   9.824  34.778   7.052
 4342POPC   C4B55834   9.923  34.836   7.492
 4343POPC   NC355835  33.533  28.542   5.364
 4343POPC   PO455836  33.868  27.941   5.567
 4343POPC   GL155837  33.966  28.275   5.877
 4343POPC   GL255838  33.749  28.590   5.874
 4343POPC   C1A55839  33.880  28.340   6.315
 4343POPC   D2A55840  33.898  28.633   6.649
 4343POPC   C3A55841  33.836  28.408   7.045
 4343POPC   C4A55842  34.047  28.293   7.473
 4343POPC   C1B55843  33.544  28.753   6.269
 4343POPC   C2B55844  33.367  28.644   6.684
 4343POPC   C3B55845  33.501  28.842   7.083
 4343POPC   C4B55846  33.758  28.714   7.443
 4344POPC   NC355847  21.133  17.644   5.610
 4344POPC   PO455848  21.738  17.298   5.404
 4344POPC   GL155849  21.570  17.359   5.848
 4344POPC   GL255850  21.526  17.732   5.951
 4344POPC   C1A55851  21.281  17.365   6.229
 4344POPC   D2A55852  21.179  17.531   6.650
 4344POPC   C3A55853  21.183  17.305   7.060
 4344POPC   C4A55854  21.314  17.478   7.473
 4344POPC   C1B55855  21.605  17.730   6.414
 4344POPC   C2B55856  21.701  17.395   6.710
 4344POPC   C3B55857  21.685  17.362   7.162
 4344POPC   C4B55858  21.724  17.740   7.463
 4345POPC   NC355859  22.417  30.504   5.412
 4345POPC   PO455860  22.023  31.114   5.560
 4345POPC   GL155861  22.334  30.885   5.818
 4345POPC   GL255862  22.079  30.632   5.811
 4345POPC   C1A55863  22.310  30.745   6.263
 4345POPC   D2A55864  21.943  30.844   6.521
 4345POPC   C3A55865  21.953  30.803   6.969
 4345POPC   C4A55866  22.317  30.933   7.215
 4345POPC   C1B55867  21.939  30.402   6.187
 4345POPC   C2B55868  22.098  30.279   6.589
 4345POPC   C3B55869  21.968  30.282   6.992
 4345POPC   C4B55870  22.144  30.462   7.315
 4346POPC   NC355871  10.171  19.357   5.351
 4346POPC   PO455872  10.720  19.845   5.392
 4346POPC   GL155873  10.575  19.956   5.800
 4346POPC   GL255874  10.231  20.113   5.776
 4346POPC   C1A55875  10.522  19.759   6.199
 4346POPC   D2A55876  10.346  19.633   6.583
 4346POPC   C3A55877  10.594  19.780   6.916
 4346POPC   C4A55878  10.468  19.653   7.301
 4346POPC   C1B55879  10.352  20.265   6.168
 4346POPC   C2B55880  10.414  20.148   6.584
 4346POPC   C3B55881  10.198  20.095   6.977
 4346POPC   C4B55882  10.225  20.066   7.416
 4347POPC   NC355883  21.069   0.261   5.398
 4347POPC   PO455884  21.551   0.726   5.286
 4347POPC   GL155885  21.463   0.483   5.650
 4347POPC   GL255886  21.145   0.624   5.757
 4347POPC   C1A55887  21.388   0.272   6.056
 4347POPC   D2A55888  21.479   0.443   6.473
 4347POPC   C3A55889  21.327   0.193   6.824
 4347POPC   C4A55890  21.384   0.296   7.248
 4347POPC   C1B55891  21.058   0.638   6.191
 4347POPC   C2B55892  21.016   0.583   6.618
 4347POPC   C3B55893  21.297   0.694   6.946
 4347POPC   C4B55894  21.120   0.749   7.315
 4348POPC   NC355895  12.298   6.815   5.357
 4348POPC   PO455896  11.687   6.616   5.527
 4348POPC   GL155897  12.034   6.672   5.784
 4348POPC   GL255898  12.122   6.343   5.787
 4348POPC   C1A55899  12.195   6.793   6.182
 4348POPC   D2A55900  12.268   6.564   6.564
 4348POPC   C3A55901  12.134   6.785   6.915
 4348POPC   C4A55902  12.106   7.105   7.259
 4348POPC   C1B55903  11.935   6.324   6.212
 4348POPC   C2B55904  11.809   6.319   6.668
 4348POPC   C3B55905  12.030   6.255   7.051
 4348POPC   C4B55906  12.195   6.514   7.326
 4349POPC   NC355907  30.925  38.810   5.410
 4349POPC   PO455908  30.598  39.440   5.404
 4349POPC   GL155909  30.727  39.213   5.723
 4349POPC   GL255910  30.491  38.903   5.710
 4349POPC   C1A55911  30.811  39.406   6.116
 4349POPC   D2A55912  30.853  39.554   6.538
 4349POPC   C3A55913  30.590  39.416   6.892
 4349POPC   C4A55914  30.740  39.320   7.316
 4349POPC   C1B55915  30.705  38.889   6.102
 4349POPC   C2B55916  30.790  39.047   6.518
 4349POPC   C3B55917  30.908  38.984   6.944
 4349POPC   C4B55918  30.605  38.830   7.250
 4350POPC   NC355919   3.647  25.555   5.569
 4350POPC   PO455920   3.113  25.299   5.266
 4350POPC   GL155921   3.164  25.459   5.717
 4350POPC   GL255922   3.387  25.210   5.855
 4350POPC   C1A55923   3.270  25.545   6.205
 4350POPC   D2A55924   3.363  25.667   6.640
 4350POPC   C3A55925   3.283  25.424   7.015
 4350POPC   C4A55926   3.446  25.409   7.424
 4350POPC   C1B55927   3.502  25.105   6.265
 4350POPC   C2B55928   3.669  25.239   6.673
 4350POPC   C3B55929   3.704  25.111   7.080
 4350POPC   C4B55930   3.346  24.931   7.276
 4351POPC   NC355931  30.595   4.747   5.417
 4351POPC   PO455932  30.961   5.369   5.474
 4351POPC   GL155933  30.747   5.151   5.792
 4351POPC   GL255934  30.937   4.841   5.859
 4351POPC   C1A55935  30.557   5.230   6.192
 4351POPC   D2A55936  30.469   5.105   6.608
 4351POPC   C3A55937  30.634   5.309   6.982
 4351POPC   C4A55938  30.387   5.299   7.366
 4351POPC   C1B55939  30.916   4.874   6.336
 4351POPC   C2B55940  30.892   4.890   6.791
 4351POPC   C3B55941  30.834   4.783   7.221
 4351POPC   C4B55942  31.214   4.761   7.500
 4352POPC   NC355943  33.195  41.966   5.399
 4352POPC   PO455944  32.975  42.573   5.346
 4352POPC   GL155945  33.037  42.440   5.767
 4352POPC   GL255946  33.312  42.200   5.835
 4352POPC   C1A55947  33.134  42.595   6.181
 4352POPC   D2A55948  33.228  42.510   6.620
 4352POPC   C3A55949  32.988  42.664   6.949
 4352POPC   C4A55950  33.019  42.489   7.348
 4352POPC   C1B55951  33.137  42.068   6.228
 4352POPC   C2B55952  33.317  42.005   6.634
 4352POPC   C3B55953  33.117  42.099   7.018
 4352POPC   C4B55954  33.186  41.998   7.438
 4353POPC   NC355955  15.371   1.295   5.153
 4353POPC   PO455956  15.155   0.829   5.547
 4353POPC   GL155957  15.232   1.225   5.748
 4353POPC   GL255958  14.976   1.485   5.608
 4353POPC   C1A55959  15.396   1.258   6.183
 4353POPC   D2A55960  15.195   1.285   6.597
 4353POPC   C3A55961  15.419   1.286   6.984
 4353POPC   C4A55962  15.323   1.177   7.403
 4353POPC   C1B55963  14.984   1.537   6.082
 4353POPC   C2B55964  14.751   1.499   6.458
 4353POPC   C3B55965  14.769   1.503   6.909
 4353POPC   C4B55966  14.878   1.435   7.381
 4354POPC   NC355967  39.605  15.934   5.456
 4354POPC   PO455968  39.030  16.336   5.498
 4354POPC   GL155969  39.291  16.043   5.848
 4354POPC   GL255970  39.151  15.677   5.886
 4354POPC   C1A55971  39.378  15.870   6.288
 4354POPC   D2A55972  39.295  16.041   6.684
 4354POPC   C3A55973  39.509  15.950   7.065
 4354POPC   C4A55974  39.305  16.236   7.364
 4354POPC   C1B55975  38.892  15.673   6.205
 4354POPC   C2B55976  38.979  15.636   6.618
 4354POPC   C3B55977  39.052  15.708   7.027
 4354POPC   C4B55978  38.816  15.803   7.367
 4355POPC   NC355979  42.022  27.158   5.581
 4355POPC   PO455980  41.671  27.686   5.402
 4355POPC   GL155981  41.629  27.491   5.767
 4355POPC   GL255982  41.969  27.628   5.840
 4355POPC   C1A55983  41.312  27.405   6.074
 4355POPC   D2A55984  41.450  27.418   6.506
 4355POPC   C3A55985  41.299  27.474   6.907
 4355POPC   C4A55986  41.583  27.522   7.253
 4355POPC   C1B55987  42.047  27.810   6.253
 4355POPC   C2B55988  41.951  27.799   6.712
 4355POPC   C3B55989  41.789  27.971   7.108
 4355POPC   C4B55990  41.830  27.873   7.573
 4356POPC   NC355991  35.273  12.272   5.223
 4356POPC   PO455992  35.581  11.804   5.575
 4356POPC   GL155993  35.212  11.951   5.806
 4356POPC   GL255994  35.127  12.316   5.741
 4356POPC   C1A55995  35.242  11.838   6.233
 4356POPC   D2A55996  35.472  11.760   6.577
 4356POPC   C3A55997  35.163  11.820   6.878
 4356POPC   C4A55998  35.111  12.065   7.216
 4356POPC   C1B55999  35.286  12.361   6.180
 4356POPC   C2B56000  35.387  12.261   6.614
 4356POPC   C3B56001  35.376  12.477   7.014
 4356POPC   C4B56002  35.220  12.507   7.447
 4357POPC   NC356003  33.274   7.076   5.529
 4357POPC   PO456004  32.940   7.676   5.609
 4357POPC   GL156005  33.244   7.551   5.867
 4357POPC   GL256006  33.055   7.257   5.948
 4357POPC   C1A56007  33.343   7.530   6.286
 4357POPC   D2A56008  33.052   7.536   6.644
 4357POPC   C3A56009  33.162   7.444   7.108
 4357POPC   C4A56010  33.168   7.761   7.450
 4357POPC   C1B56011  32.691   7.019   6.090
 4357POPC   C2B56012  32.697   6.875   6.492
 4357POPC   C3B56013  32.894   7.059   6.836
 4357POPC   C4B56014  32.789   7.100   7.236
 4358POPC   NC356015  42.835  30.196   5.318
 4358POPC   PO456016  43.395  29.807   5.391
 4358POPC   GL156017  43.078  29.671   5.723
 4358POPC   GL256018  42.852  29.950   5.785
 4358POPC   C1A56019  42.856  29.604   6.161
 4358POPC   D2A56020  42.809  29.853   6.569
 4358POPC   C3A56021  43.063  29.766   6.953
 4358POPC   C4A56022  43.515  29.892   7.077
 4358POPC   C1B56023  43.063  30.083   6.180
 4358POPC   C2B56024  43.266  30.125   6.612
 4358POPC   C3B56025  43.205  30.276   7.034
 4358POPC   C4B56026  42.836  30.179   7.301
 4359POPC   NC356027  18.693  31.482   5.401
 4359POPC   PO456028  19.174  31.041   5.406
 4359POPC   GL156029  19.212  31.341   5.750
 4359POPC   GL256030  18.869  31.394   5.876
 4359POPC   C1A56031  19.229  31.226   6.183
 4359POPC   D2A56032  18.971  31.231   6.541
 4359POPC   C3A56033  19.151  31.221   6.925
 4359POPC   C4A56034  19.347  31.270   7.304
 4359POPC   C1B56035  18.914  31.639   6.266
 4359POPC   C2B56036  19.134  31.714   6.657
 4359POPC   C3B56037  19.153  31.732   7.117
 4359POPC   C4B56038  18.902  31.697   7.493
 4360POPC   NC356039  39.527   0.944   5.365
 4360POPC   PO456040  39.053   1.403   5.433
 4360POPC   GL156041  39.262   1.202   5.793
 4360POPC   GL256042  39.645   1.167   5.822
 4360POPC   C1A56043  39.207   1.324   6.248
 4360POPC   D2A56044  39.449   1.374   6.640
 4360POPC   C3A56045  39.214   1.504   7.015
 4360POPC   C4A56046  39.113   1.469   7.454
 4360POPC   C1B56047  39.585   0.990   6.240
 4360POPC   C2B56048  39.262   0.870   6.552
 4360POPC   C3B56049  39.363   0.979   6.972
 4360POPC   C4B56050  39.545   1.208   7.281
 4361POPC   NC356051  12.366   4.687   5.456
 4361POPC   PO456052  12.034   4.051   5.436
 4361POPC   GL156053  12.282   4.229   5.738
 4361POPC   GL256054  12.106   4.534   5.881
 4361POPC   C1A56055  12.346   4.212   6.179
 4361POPC   D2A56056  12.134   4.393   6.516
 4361POPC   C3A56057  12.263   4.343   6.915
 4361POPC   C4A56058  12.236   4.038   7.205
 4361POPC   C1B56059  11.799   4.684   6.204
 4361POPC   C2B56060  11.844   4.804   6.648
 4361POPC   C3B56061  11.948   4.755   7.071
 4361POPC   C4B56062  12.069   4.512   7.427
 4362POPC   NC356063  28.851   4.343   5.554
 4362POPC   PO456064  29.276   4.554   5.189
 4362POPC   GL156065  29.292   4.523   5.718
 4362POPC   GL256066  29.131   4.241   5.951
 4362POPC   C1A56067  29.431   4.592   6.180
 4362POPC   D2A56068  29.484   4.742   6.629
 4362POPC   C3A56069  29.320   4.456   6.936
 4362POPC   C4A56070  29.501   4.034   7.061
 4362POPC   C1B56071  28.885   4.243   6.338
 4362POPC   C2B56072  28.898   4.047   6.745
 4362POPC   C3B56073  28.980   4.132   7.159
 4362POPC   C4B56074  28.788   4.141   7.608
 4363POPC   NC356075   2.820  17.684   5.521
 4363POPC   PO456076   2.308  17.292   5.543
 4363POPC   GL156077   2.525  17.431   5.896
 4363POPC   GL256078   2.901  17.320   5.852
 4363POPC   C1A56079   2.738  17.702   6.192
 4363POPC   D2A56080   2.943  17.752   6.569
 4363POPC   C3A56081   2.710  17.676   6.941
 4363POPC   C4A56082   2.813  17.843   7.344
 4363POPC   C1B56083   2.778  17.179   6.246
 4363POPC   C2B56084   2.502  17.360   6.538
 4363POPC   C3B56085   2.463  17.215   6.948
 4363POPC   C4B56086   2.625  17.349   7.320
 4364POPC   NC356087  42.045   3.223   5.509
 4364POPC   PO456088  42.496   2.756   5.212
 4364POPC   GL156089  42.408   2.747   5.692
 4364POPC   GL256090  42.324   3.063   5.935
 4364POPC   C1A56091  42.440   2.613   6.138
 4364POPC   D2A56092  42.561   2.937   6.447
 4364POPC   C3A56093  42.376   3.007   6.852
 4364POPC   C4A56094  42.584   2.912   7.226
 4364POPC   C1B56095  42.060   2.924   6.338
 4364POPC   C2B56096  41.968   2.711   6.742
 4364POPC   C3B56097  41.895   2.981   7.105
 4364POPC   C4B56098  42.121   2.887   7.460
 4365POPC   NC356099   9.662  33.095   5.166
 4365POPC   PO456100   9.491  32.465   5.369
 4365POPC   GL156101   9.589  32.663   5.763
 4365POPC   GL256102   9.824  32.925   5.810
 4365POPC   C1A56103   9.590  32.704   6.214
 4365POPC   D2A56104   9.746  33.005   6.504
 4365POPC   C3A56105   9.681  32.860   6.933
 4365POPC   C4A56106   9.546  33.020   7.324
 4365POPC   C1B56107  10.091  33.112   6.123
 4365POPC   C2B56108  10.256  32.989   6.520
 4365POPC   C3B56109  10.079  33.189   6.867
 4365POPC   C4B56110  10.057  33.057   7.260
 4366POPC   NC356111  18.168  27.342   5.405
 4366POPC   PO456112  18.708  27.712   5.417
 4366POPC   GL156113  18.483  27.540   5.778
 4366POPC   GL256114  18.130  27.633   5.825
 4366POPC   C1A56115  18.489  27.334   6.194
 4366POPC   D2A56116  18.479  27.540   6.626
 4366POPC   C3A56117  18.335  27.303   7.000
 4366POPC   C4A56118  18.571  27.251   7.385
 4366POPC   C1B56119  18.197  27.749   6.233
 4366POPC   C2B56120  18.191  27.976   6.627
 4366POPC   C3B56121  18.254  27.841   7.035
 4366POPC   C4B56122  18.224  27.613   7.415
 4367POPC   NC356123  14.696  19.824   5.447
 4367POPC   PO456124  14.002  19.544   5.408
 4367POPC   GL156125  14.261  19.592   5.749
 4367POPC   GL256126  14.308  19.934   5.777
 4367POPC   C1A56127  14.316  19.537   6.212
 4367POPC   D2A56128  14.466  19.458   6.645
 4367POPC   C3A56129  14.636  19.766   6.961
 4367POPC   C4A56130  14.357  19.606   7.252
 4367POPC   C1B56131  14.485  20.019   6.145
 4367POPC   C2B56132  14.404  19.966   6.563
 4367POPC   C3B56133  14.149  19.943   6.942
 4367POPC   C4B56134  14.113  20.090   7.378
 4368POPC   NC356135  43.490  14.732   5.692
 4368POPC   PO456136  43.789  14.337   5.191
 4368POPC   GL156137  43.936  14.486   5.655
 4368POPC   GL256138  44.032  14.234   5.871
 4368POPC   C1A56139  43.947  14.632   6.159
 4368POPC   D2A56140  43.957  14.485   6.604
 4368POPC   C3A56141  43.947  14.634   7.035
 4368POPC   C4A56142  43.968  14.411   7.454
 4368POPC   C1B56143  43.883  14.115   6.251
 4368POPC   C2B56144  43.748  14.019   6.641
 4368POPC   C3B56145  43.878  14.121   7.010
 4368POPC   C4B56146  43.797  13.933   7.344
 4369POPC   NC356147  19.632  10.302   5.285
 4369POPC   PO456148  19.938  10.874   5.592
 4369POPC   GL156149  19.898  10.444   5.822
 4369POPC   GL256150  19.546  10.268   5.797
 4369POPC   C1A56151  20.050  10.371   6.274
 4369POPC   D2A56152  19.921  10.108   6.618
 4369POPC   C3A56153  19.979  10.206   7.045
 4369POPC   C4A56154  19.949  10.503   7.348
 4369POPC   C1B56155  19.549  10.262   6.253
 4369POPC   C2B56156  19.568  10.482   6.646
 4369POPC   C3B56157  19.492  10.299   7.028
 4369POPC   C4B56158  19.598  10.132   7.411
 4370POPC   NC356159   0.866  18.639   5.326
 4370POPC   PO456160   1.124  19.251   5.393
 4370POPC   GL156161   1.183  19.183   5.822
 4370POPC   GL256162   0.873  19.379   5.893
 4370POPC   C1A56163   1.422  19.024   6.240
 4370POPC   D2A56164   1.465  19.259   6.644
 4370POPC   C3A56165   1.453  18.999   6.998
 4370POPC   C4A56166   1.306  18.934   7.408
 4370POPC   C1B56167   0.926  19.046   6.241
 4370POPC   C2B56168   1.050  18.929   6.672
 4370POPC   C3B56169   0.874  18.937   7.104
 4370POPC   C4B56170   0.785  18.942   7.581
 4371POPC   NC356171  28.623  10.548   5.364
 4371POPC   PO456172  28.087  10.951   5.446
 4371POPC   GL156173  28.177  10.635   5.761
 4371POPC   GL256174  28.498  10.706   5.828
 4371POPC   C1A56175  28.286  10.395   6.169
 4371POPC   D2A56176  28.516  10.321   6.565
 4371POPC   C3A56177  28.310  10.394   6.948
 4371POPC   C4A56178  28.383  10.494   7.358
 4371POPC   C1B56179  28.639  10.807   6.223
 4371POPC   C2B56180  28.771  10.771   6.624
 4371POPC   C3B56181  28.746  10.693   7.040
 4371POPC   C4B56182  28.624  10.928   7.406
 4372POPC   NC356183  12.386  20.690   5.550
 4372POPC   PO456184  11.784  20.381   5.379
 4372POPC   GL156185  11.948  20.463   5.795
 4372POPC   GL256186  12.280  20.347   5.923
 4372POPC   C1A56187  11.753  20.597   6.171
 4372POPC   D2A56188  11.856  20.478   6.566
 4372POPC   C3A56189  11.750  20.741   6.885
 4372POPC   C4A56190  11.858  20.495   7.246
 4372POPC   C1B56191  12.258  20.738   6.190
 4372POPC   C2B56192  12.186  20.881   6.586
 4372POPC   C3B56193  12.251  20.683   6.944
 4372POPC   C4B56194  12.174  20.878   7.294
 4373POPC   NC356195  19.331  29.803   5.338
 4373POPC   PO456196  18.753  30.154   5.216
 4373POPC   GL156197  18.935  29.866   5.647
 4373POPC   GL256198  19.273  30.004   5.794
 4373POPC   C1A56199  18.984  29.794   6.144
 4373POPC   D2A56200  19.223  30.040   6.505
 4373POPC   C3A56201  19.142  29.976   6.947
 4373POPC   C4A56202  19.159  29.532   7.053
 4373POPC   C1B56203  19.517  29.821   6.142
 4373POPC   C2B56204  19.704  29.847   6.585
 4373POPC   C3B56205  19.630  29.827   7.053
 4373POPC   C4B56206  19.573  30.163   7.363
 4374POPC   NC356207   3.055   9.398   5.579
 4374POPC   PO456208   2.733  10.031   5.231
 4374POPC   GL156209   2.778   9.923   5.692
 4374POPC   GL256210   3.007  10.163   5.799
 4374POPC   C1A56211   2.704   9.738   6.143
 4374POPC   D2A56212   2.420   9.727   6.523
 4374POPC   C3A56213   2.595   9.743   6.951
 4374POPC   C4A56214   2.531   9.516   7.311
 4374POPC   C1B56215   2.895  10.202   6.209
 4374POPC   C2B56216   2.905   9.951   6.584
 4374POPC   C3B56217   3.109   9.897   6.959
 4374POPC   C4B56218   3.216   9.672   7.320
 4375POPC   NC356219   6.111  22.142   5.461
 4375POPC   PO456220   5.597  21.773   5.396
 4375POPC   GL156221   5.747  21.974   5.803
 4375POPC   GL256222   5.725  22.321   5.777
 4375POPC   C1A56223   6.026  22.177   6.163
 4375POPC   D2A56224   6.129  22.133   6.608
 4375POPC   C3A56225   5.879  21.877   6.877
 4375POPC   C4A56226   6.076  21.655   7.173
 4375POPC   C1B56227   5.582  22.429   6.155
 4375POPC   C2B56228   5.801  22.532   6.525
 4375POPC   C3B56229   5.738  22.368   6.924
 4375POPC   C4B56230   5.894  22.214   7.311
 4376POPC   NC356231  42.835  17.800   5.460
 4376POPC   PO456232  43.273  17.258   5.325
 4376POPC   GL156233  43.055  17.388   5.678
 4376POPC   GL256234  43.186  17.720   5.832
 4376POPC   C1A56235  42.893  17.357   6.095
 4376POPC   D2A56236  43.153  17.402   6.463
 4376POPC   C3A56237  43.025  17.579   6.855
 4376POPC   C4A56238  43.151  17.457   7.277
 4376POPC   C1B56239  43.440  17.762   6.215
 4376POPC   C2B56240  43.563  17.673   6.667
 4376POPC   C3B56241  43.598  17.652   7.141
 4376POPC   C4B56242  43.364  17.838   7.547
 4377POPC   NC356243   0.914  44.745   5.347
 4377POPC   PO456244   1.084  44.109   5.478
 4377POPC   GL156245   1.093  44.500   5.768
 4377POPC   GL256246   1.380  44.751   5.835
 4377POPC   C1A56247   1.163  44.499   6.220
 4377POPC   D2A56248   1.226  44.686   6.612
 4377POPC   C3A56249   1.131  44.473   6.983
 4377POPC   C4A56250   1.477  44.401   7.272
 4377POPC   C1B56251   1.322   0.007   6.224
 4377POPC   C2B56252   1.343   0.220   6.641
 4377POPC   C3B56253   1.128   0.033   6.978
 4377POPC   C4B56254   1.189  44.823   7.352
 4378POPC   NC356255  26.803   3.042   5.544
 4378POPC   PO456256  27.233   2.567   5.654
 4378POPC   GL156257  27.042   2.481   6.029
 4378POPC   GL256258  26.741   2.702   5.963
 4378POPC   C1A56259  26.776   2.446   6.395
 4378POPC   D2A56260  26.737   2.792   6.665
 4378POPC   C3A56261  26.913   2.861   7.083
 4378POPC   C4A56262  26.929   2.792   7.561
 4378POPC   C1B56263  26.440   2.905   6.256
 4378POPC   C2B56264  26.190   3.068   6.617
 4378POPC   C3B56265  26.443   3.062   6.965
 4378POPC   C4B56266  26.526   3.042   7.368
 4379POPC   NC356267  19.660  25.457   5.440
 4379POPC   PO456268  19.976  24.885   5.357
 4379POPC   GL156269  19.936  25.048   5.775
 4379POPC   GL256270  20.005  25.406   5.811
 4379POPC   C1A56271  19.821  24.938   6.208
 4379POPC   D2A56272  19.521  24.887   6.562
 4379POPC   C3A56273  19.603  24.909   7.011
 4379POPC   C4A56274  19.968  24.965   7.204
 4379POPC   C1B56275  19.707  25.435   6.156
 4379POPC   C2B56276  19.817  25.314   6.561
 4379POPC   C3B56277  19.792  25.373   6.969
 4379POPC   C4B56278  20.088  25.490   7.302
 4380POPC   NC356279  16.851  42.379   5.271
 4380POPC   PO456280  17.510  42.292   5.333
 4380POPC   GL156281  17.350  42.407   5.757
 4380POPC   GL256282  17.689  42.470   5.829
 4380POPC   C1A56283  17.389  42.235   6.196
 4380POPC   D2A56284  17.294  42.391   6.606
 4380POPC   C3A56285  17.324  42.134   6.961
 4380POPC   C4A56286  17.209  42.316   7.341
 4380POPC   C1B56287  17.883  42.464   6.238
 4380POPC   C2B56288  17.778  42.291   6.648
 4380POPC   C3B56289  17.720  42.477   7.053
 4380POPC   C4B56290  18.039  42.356   7.322
 4381POPC   NC356291   6.919  41.910   5.481
 4381POPC   PO456292   6.427  41.432   5.438
 4381POPC   GL156293   6.639  41.546   5.841
 4381POPC   GL256294   6.883  41.812   5.969
 4381POPC   C1A56295   6.635  41.517   6.298
 4381POPC   D2A56296   6.857  41.663   6.678
 4381POPC   C3A56297   6.594  41.684   7.035
 4381POPC   C4A56298   6.371  41.406   7.183
 4381POPC   C1B56299   6.692  42.022   6.322
 4381POPC   C2B56300   6.652  42.132   6.751
 4381POPC   C3B56301   6.943  42.030   7.100
 4381POPC   C4B56302   6.937  41.895   7.535
 4382POPC   NC356303   4.498  13.013   5.571
 4382POPC   PO456304   3.971  12.481   5.658
 4382POPC   GL156305   4.153  12.838   5.954
 4382POPC   GL256306   4.259  13.190   5.983
 4382POPC   C1A56307   4.098  13.058   6.420
 4382POPC   D2A56308   3.997  13.150   6.866
 4382POPC   C3A56309   4.285  12.918   7.109
 4382POPC   C4A56310   4.588  12.599   7.203
 4382POPC   C1B56311   4.597  13.003   6.240
 4382POPC   C2B56312   4.742  12.850   6.648
 4382POPC   C3B56313   4.785  13.051   7.044
 4382POPC   C4B56314   4.700  13.012   7.482
 4383POPC   NC356315  16.334   4.495   5.427
 4383POPC   PO456316  16.922   4.141   5.297
 4383POPC   GL156317  16.736   4.220   5.718
 4383POPC   GL256318  16.993   4.340   5.898
 4383POPC   C1A56319  16.484   4.300   6.133
 4383POPC   D2A56320  16.239   4.418   6.540
 4383POPC   C3A56321  16.428   4.233   6.950
 4383POPC   C4A56322  16.866   4.249   7.128
 4383POPC   C1B56323  17.143   4.544   6.264
 4383POPC   C2B56324  17.057   4.445   6.677
 4383POPC   C3B56325  17.162   4.650   7.046
 4383POPC   C4B56326  16.863   4.853   7.219
 4384POPC   NC356327  30.286  24.822   5.493
 4384POPC   PO456328  29.820  24.415   5.236
 4384POPC   GL156329  29.875  24.469   5.682
 4384POPC   GL256330  30.203  24.341   5.669
 4384POPC   C1A56331  29.799  24.613   6.135
 4384POPC   D2A56332  29.694  24.330   6.508
 4384POPC   C3A56333  29.580  24.375   6.971
 4384POPC   C4A56334  29.722  24.726   7.213
 4384POPC   C1B56335  30.142  24.243   6.087
 4384POPC   C2B56336  30.203  24.210   6.526
 4384POPC   C3B56337  30.080  24.436   6.877
 4384POPC   C4B56338  30.018  24.290   7.252
 4385POPC   NC356339  27.312   9.750   5.465
 4385POPC   PO456340  26.675   9.512   5.413
 4385POPC   GL156341  26.855   9.739   5.764
 4385POPC   GL256342  27.153   9.558   5.916
 4385POPC   C1A56343  26.737   9.808   6.208
 4385POPC   D2A56344  26.963   9.652   6.571
 4385POPC   C3A56345  26.674   9.616   6.900
 4385POPC   C4A56346  26.534   9.761   7.269
 4385POPC   C1B56347  27.177  10.008   6.085
 4385POPC   C2B56348  27.039  10.158   6.483
 4385POPC   C3B56349  26.866  10.082   6.870
 4385POPC   C4B56350  27.104   9.941   7.201
 4386POPC   NC356351  15.038  40.844   5.279
 4386POPC   PO456352  15.054  40.259   5.428
 4386POPC   GL156353  15.132  40.565   5.756
 4386POPC   GL256354  15.159  40.928   5.769
 4386POPC   C1A56355  15.112  40.594   6.204
 4386POPC   D2A56356  15.224  40.483   6.641
 4386POPC   C3A56357  15.031  40.603   7.073
 4386POPC   C4A56358  15.247  40.562   7.513
 4386POPC   C1B56359  15.033  41.098   6.178
 4386POPC   C2B56360  14.949  40.923   6.584
 4386POPC   C3B56361  14.883  41.078   6.970
 4386POPC   C4B56362  14.973  41.367   7.283
 4387POPC   NC356363  34.338  14.744   5.592
 4387POPC   PO456364  34.314  14.118   5.319
 4387POPC   GL156365  34.470  14.120   5.732
 4387POPC   GL256366  34.853  14.187   5.792
 4387POPC   C1A56367  34.462  14.321   6.123
 4387POPC   D2A56368  34.568  14.291   6.538
 4387POPC   C3A56369  34.283  14.444   6.819
 4387POPC   C4A56370  34.289  14.376   7.250
 4387POPC   C1B56371  34.919  14.089   6.225
 4387POPC   C2B56372  35.094  14.259   6.625
 4387POPC   C3B56373  34.826  14.392   6.974
 4387POPC   C4B56374  34.750  14.213   7.353
 4388POPC   NC356375  41.355  17.457   5.591
 4388POPC   PO456376  41.936  17.131   5.529
 4388POPC   GL156377  41.805  17.390   5.894
 4388POPC   GL256378  41.667  17.745   5.866
 4388POPC   C1A56379  41.522  17.411   6.275
 4388POPC   D2A56380  41.276  17.284   6.657
 4388POPC   C3A56381  41.540  17.400   6.994
 4388POPC   C4A56382  41.826  17.268   7.324
 4388POPC   C1B56383  41.275  17.844   6.184
 4388POPC   C2B56384  41.159  17.780   6.626
 4388POPC   C3B56385  41.220  17.828   7.081
 4388POPC   C4B56386  41.471  17.671   7.422
 4389POPC   NC356387  20.723  39.088   5.380
 4389POPC   PO456388  20.438  39.692   5.383
 4389POPC   GL156389  20.501  39.384   5.767
 4389POPC   GL256390  20.829  39.159   5.858
 4389POPC   C1A56391  20.572  39.398   6.233
 4389POPC   D2A56392  20.731  39.554   6.608
 4389POPC   C3A56393  20.552  39.424   6.996
 4389POPC   C4A56394  20.700  39.495   7.410
 4389POPC   C1B56395  20.632  38.895   6.180
 4389POPC   C2B56396  20.490  39.002   6.606
 4389POPC   C3B56397  20.710  38.930   7.000
 4389POPC   C4B56398  20.520  38.994   7.406
 4390POPC   NC356399   6.142  35.414   5.303
 4390POPC   PO456400   5.962  34.758   5.330
 4390POPC   GL156401   5.836  35.022   5.710
 4390POPC   GL256402   5.986  35.352   5.786
 4390POPC   C1A56403   5.820  35.026   6.176
 4390POPC   D2A56404   5.769  35.303   6.560
 4390POPC   C3A56405   5.890  35.140   6.946
 4390POPC   C4A56406   5.901  35.228   7.363
 4390POPC   C1B56407   6.071  35.487   6.187
 4390POPC   C2B56408   6.229  35.581   6.604
 4390POPC   C3B56409   6.143  35.581   7.067
 4390POPC   C4B56410   6.083  35.683   7.515
 4391POPC   NC356411  40.482  36.891   5.435
 4391POPC   PO456412  39.808  36.651   5.592
 4391POPC   GL156413  40.135  36.801   5.872
 4391POPC   GL256414  40.311  37.117   5.849
 4391POPC   C1A56415  39.985  36.841   6.303
 4391POPC   D2A56416  39.717  36.778   6.661
 4391POPC   C3A56417  39.957  36.821   7.029
 4391POPC   C4A56418  40.212  36.652   7.356
 4391POPC   C1B56419  40.454  37.002   6.248
 4391POPC   C2B56420  40.319  37.022   6.701
 4391POPC   C3B56421  40.391  37.076   7.149
 4391POPC   C4B56422  40.298  37.424   7.409
 4392POPC   NC356423  28.973  19.361   5.633
 4392POPC   PO456424  29.251  18.831   5.287
 4392POPC   GL156425  29.294  18.939   5.718
 4392POPC   GL256426  29.476  19.201   5.822
 4392POPC   C1A56427  29.117  18.982   6.152
 4392POPC   D2A56428  29.177  19.190   6.552
 4392POPC   C3A56429  28.866  19.239   6.856
 4392POPC   C4A56430  28.888  19.108   7.277
 4392POPC   C1B56431  29.447  19.456   6.199
 4392POPC   C2B56432  29.586  19.485   6.665
 4392POPC   C3B56433  29.341  19.356   7.051
 4392POPC   C4B56434  29.333  19.241   7.484
 4393POPC   NC356435  23.161  38.174   5.547
 4393POPC   PO456436  22.609  37.795   5.551
 4393POPC   GL156437  22.920  37.647   5.847
 4393POPC   GL256438  23.138  37.400   5.731
 4393POPC   C1A56439  22.824  37.427   6.252
 4393POPC   D2A56440  23.014  37.474   6.664
 4393POPC   C3A56441  22.903  37.848   6.899
 4393POPC   C4A56442  22.749  37.759   7.309
 4393POPC   C1B56443  23.302  37.567   6.163
 4393POPC   C2B56444  23.477  37.706   6.590
 4393POPC   C3B56445  23.369  37.669   7.046
 4393POPC   C4B56446  23.237  37.868   7.430
 4394POPC   NC356447  39.380  35.718   5.178
 4394POPC   PO456448  38.942  35.262   5.503
 4394POPC   GL156449  39.308  35.325   5.782
 4394POPC   GL256450  39.463  35.692   5.756
 4394POPC   C1A56451  39.178  35.211   6.200
 4394POPC   D2A56452  39.067  35.473   6.491
 4394POPC   C3A56453  39.083  35.232   6.849
 4394POPC   C4A56454  39.249  35.142   7.210
 4394POPC   C1B56455  39.482  35.616   6.207
 4394POPC   C2B56456  39.549  35.376   6.630
 4394POPC   C3B56457  39.622  35.453   7.074
 4394POPC   C4B56458  39.495  35.509   7.546
 4395POPC   NC356459  32.362  35.156   5.374
 4395POPC   PO456460  32.046  35.700   5.108
 4395POPC   GL156461  32.015  35.512   5.573
 4395POPC   GL256462  32.337  35.581   5.696
 4395POPC   C1A56463  32.131  35.253   6.033
 4395POPC   D2A56464  32.304  35.104   6.496
 4395POPC   C3A56465  32.240  35.292   6.932
 4395POPC   C4A56466  32.182  35.702   7.135
 4395POPC   C1B56467  32.440  35.657   6.149
 4395POPC   C2B56468  32.722  35.473   6.460
 4395POPC   C3B56469  32.722  35.487   6.911
 4395POPC   C4B56470  32.563  35.432   7.330
 4396POPC   NC356471   8.180  11.648   5.266
 4396POPC   PO456472   8.397  10.997   5.331
 4396POPC   GL156473   8.108  11.149   5.711
 4396POPC   GL256474   7.974  11.522   5.752
 4396POPC   C1A56475   8.113  11.150   6.169
 4396POPC   D2A56476   8.405  11.351   6.473
 4396POPC   C3A56477   8.333  11.271   6.919
 4396POPC   C4A56478   8.533  11.165   7.332
 4396POPC   C1B56479   8.035  11.644   6.177
 4396POPC   C2B56480   7.954  11.528   6.586
 4396POPC   C3B56481   8.018  11.662   6.960
 4396POPC   C4B56482   8.063  11.477   7.317
 4397POPC   NC356483  29.538  27.820   5.606
 4397POPC   PO456484  30.242  27.813   5.424
 4397POPC   GL156485  30.156  27.577   5.825
 4397POPC   GL256486  29.941  27.791   5.945
 4397POPC   C1A56487  30.269  27.542   6.273
 4397POPC   D2A56488  30.076  27.733   6.636
 4397POPC   C3A56489  29.976  27.819   7.100
 4397POPC   C4A56490  29.850  27.933   7.566
 4397POPC   C1B56491  29.743  27.530   6.238
 4397POPC   C2B56492  29.591  27.571   6.641
 4397POPC   C3B56493  29.592  27.378   6.999
 4397POPC   C4B56494  29.675  27.503   7.373
 4398POPC   NC356495  17.996  42.365   5.406
 4398POPC   PO456496  18.664  42.381   5.484
 4398POPC   GL156497  18.396  42.206   5.746
 4398POPC   GL256498  18.206  42.498   5.828
 4398POPC   C1A56499  18.293  42.108   6.164
 4398POPC   D2A56500  18.286  42.340   6.555
 4398POPC   C3A56501  18.238  42.110   6.902
 4398POPC   C4A56502  18.311  41.908   7.288
 4398POPC   C1B56503  18.388  42.643   6.152
 4398POPC   C2B56504  18.526  42.785   6.534
 4398POPC   C3B56505  18.744  42.588   6.878
 4398POPC   C4B56506  18.552  42.350   7.219
 4399POPC   NC356507   0.109  28.908   5.431
 4399POPC   PO456508  44.527  29.370   5.440
 4399POPC   GL156509  44.820  29.358   5.797
 4399POPC   GL256510  44.814  28.995   5.858
 4399POPC   C1A56511  44.709  29.399   6.243
 4399POPC   D2A56512  44.736  29.148   6.597
 4399POPC   C3A56513  44.702  29.311   7.001
 4399POPC   C4A56514  44.869  29.437   7.390
 4399POPC   C1B56515  44.447  28.989   6.155
 4399POPC   C2B56516  44.394  28.759   6.576
 4399POPC   C3B56517  44.452  28.754   7.050
 4399POPC   C4B56518  44.785  28.930   7.324
 4400POPC   NC356519  17.940  17.155   5.457
 4400POPC   PO456520  18.254  16.487   5.491
 4400POPC   GL156521  18.200  16.809   5.753
 4400POPC   GL256522  18.127  16.537   5.996
 4400POPC   C1A56523  18.318  16.973   6.142
 4400POPC   D2A56524  18.430  16.721   6.466
 4400POPC   C3A56525  18.558  16.784   6.889
 4400POPC   C4A56526  18.629  16.484   7.210
 4400POPC   C1B56527  18.057  16.384   6.409
 4400POPC   C2B56528  18.097  16.529   6.855
 4400POPC   C3B56529  18.167  16.820   7.220
 4400POPC   C4B56530  18.017  17.084   7.595
 4401POPC   NC356531  18.525  26.408   5.439
 4401POPC   PO456532  18.558  27.115   5.402
 4401POPC   GL156533  18.322  26.890   5.728
 4401POPC   GL256534  18.112  26.565   5.725
 4401POPC   C1A56535  18.426  26.780   6.148
 4401POPC   D2A56536  18.365  26.984   6.547
 4401POPC   C3A56537  18.241  26.794   6.904
 4401POPC   C4A56538  18.340  26.820   7.296
 4401POPC   C1B56539  18.063  26.429   6.152
 4401POPC   C2B56540  17.942  26.621   6.543
 4401POPC   C3B56541  17.812  26.538   6.994
 4401POPC   C4B56542  17.943  26.579   7.457
 4402POPC   NC356543  14.705  41.127   5.614
 4402POPC   PO456544  14.129  41.538   5.581
 4402POPC   GL156545  14.304  41.307   5.899
 4402POPC   GL256546  14.545  41.578   5.875
 4402POPC   C1A56547  14.462  41.345   6.322
 4402POPC   D2A56548  14.329  41.585   6.674
 4402POPC   C3A56549  14.596  41.511   6.956
 4402POPC   C4A56550  14.481  41.243   7.234
 4402POPC   C1B56551  14.430  41.850   6.247
 4402POPC   C2B56552  14.130  42.034   6.530
 4402POPC   C3B56553  14.069  41.958   6.947
 4402POPC   C4B56554  14.266  41.722   7.267
 4403POPC   NC356555  22.369  33.636   5.302
 4403POPC   PO456556  22.088  34.261   5.311
 4403POPC   GL156557  22.251  33.970   5.666
 4403POPC   GL256558  21.969  33.721   5.782
 4403POPC   C1A56559  22.364  33.768   6.072
 4403POPC   D2A56560  22.097  33.843   6.435
 4403POPC   C3A56561  22.202  33.758   6.864
 4403POPC   C4A56562  21.977  33.823   7.257
 4403POPC   C1B56563  22.033  33.381   6.133
 4403POPC   C2B56564  21.945  33.370   6.587
 4403POPC   C3B56565  21.896  33.368   7.047
 4403POPC   C4B56566  21.887  33.367   7.527
 4404POPC   NC356567  14.675  21.632   5.460
 4404POPC   PO456568  14.218  22.227   5.369
 4404POPC   GL156569  14.407  22.297   5.733
 4404POPC   GL256570  14.452  21.954   5.796
 4404POPC   C1A56571  14.521  22.442   6.141
 4404POPC   D2A56572  14.506  22.362   6.603
 4404POPC   C3A56573  14.128  22.261   6.850
 4404POPC   C4A56574  14.126  22.149   7.297
 4404POPC   C1B56575  14.604  21.929   6.210
 4404POPC   C2B56576  14.800  21.948   6.616
 4404POPC   C3B56577  14.571  22.040   7.011
 4404POPC   C4B56578  14.551  21.861   7.426
 4405POPC   NC356579  14.692   4.386   5.638
 4405POPC   PO456580  15.271   4.061   5.497
 4405POPC   GL156581  15.214   4.341   5.872
 4405POPC   GL256582  15.456   4.612   5.982
 4405POPC   C1A56583  15.248   4.209   6.287
 4405POPC   D2A56584  14.973   4.194   6.627
 4405POPC   C3A56585  15.239   4.061   6.929
 4405POPC   C4A56586  15.492   4.295   7.219
 4405POPC   C1B56587  15.339   4.688   6.413
 4405POPC   C2B56588  15.073   4.680   6.765
 4405POPC   C3B56589  15.022   4.494   7.182
 4405POPC   C4B56590  15.285   4.616   7.564
 4406POPC   NC356591  30.375  22.296   5.399
 4406POPC   PO456592  30.765  21.765   5.451
 4406POPC   GL156593  30.537  21.964   5.782
 4406POPC   GL256594  30.797  22.150   5.958
 4406POPC   C1A56595  30.418  21.889   6.198
 4406POPC   D2A56596  30.640  22.025   6.566
 4406POPC   C3A56597  30.462  21.832   6.943
 4406POPC   C4A56598  30.468  22.056   7.333
 4406POPC   C1B56599  31.085  22.234   6.309
 4406POPC   C2B56600  31.170  22.164   6.729
 4406POPC   C3B56601  30.840  22.191   7.016
 4406POPC   C4B56602  30.704  22.522   7.283
 4407POPC   NC356603  34.597   3.925   5.484
 4407POPC   PO456604  35.032   3.389   5.414
 4407POPC   GL156605  34.873   3.509   5.804
 4407POPC   GL256606  34.928   3.879   5.860
 4407POPC   C1A56607  34.576   3.320   6.125
 4407POPC   D2A56608  34.326   3.405   6.505
 4407POPC   C3A56609  34.486   3.334   6.925
 4407POPC   C4A56610  34.433   3.467   7.325
 4407POPC   C1B56611  34.861   3.720   6.274
 4407POPC   C2B56612  34.840   3.683   6.695
 4407POPC   C3B56613  34.763   3.997   6.979
 4407POPC   C4B56614  34.830   3.759   7.311
 4408POPC   NC356615  42.811  21.665   5.397
 4408POPC   PO456616  43.285  21.172   5.499
 4408POPC   GL156617  43.010  21.345   5.846
 4408POPC   GL256618  43.106  21.706   5.819
 4408POPC   C1A56619  42.982  21.209   6.314
 4408POPC   D2A56620  43.291  21.336   6.627
 4408POPC   C3A56621  43.231  21.528   7.010
 4408POPC   C4A56622  43.016  21.382   7.313
 4408POPC   C1B56623  43.174  21.670   6.253
 4408POPC   C2B56624  42.930  21.693   6.621
 4408POPC   C3B56625  42.833  21.940   6.951
 4408POPC   C4B56626  43.048  21.921   7.346
 4409POPC   NC356627  16.881  24.085   5.637
 4409POPC   PO456628  16.412  23.567   5.374
 4409POPC   GL156629  16.516  23.507   5.850
 4409POPC   GL256630  16.880  23.582   5.920
 4409POPC   C1A56631  16.635  23.479   6.334
 4409POPC   D2A56632  16.609  23.424   6.770
 4409POPC   C3A56633  16.918  23.517   7.055
 4409POPC   C4A56634  16.531  23.568   7.292
 4409POPC   C1B56635  17.069  23.778   6.294
 4409POPC   C2B56636  16.824  23.888   6.660
 4409POPC   C3B56637  16.724  23.987   7.082
 4409POPC   C4B56638  16.959  23.864   7.441
 4410POPC   NC356639  37.320   7.071   5.376
 4410POPC   PO456640  37.481   6.485   5.449
 4410POPC   GL156641  37.611   6.617   5.869
 4410POPC   GL256642  37.717   6.332   6.014
 4410POPC   C1A56643  37.707   6.726   6.355
 4410POPC   D2A56644  37.647   6.672   6.825
 4410POPC   C3A56645  37.634   7.040   7.135
 4410POPC   C4A56646  37.512   7.059   7.592
 4410POPC   C1B56647  38.005   6.283   6.332
 4410POPC   C2B56648  37.907   6.140   6.738
 4410POPC   C3B56649  37.930   6.321   7.143
 4410POPC   C4B56650  37.872   6.662   7.463
 4411POPC   NC356651  31.516  19.495   5.340
 4411POPC   PO456652  31.336  20.139   5.421
 4411POPC   GL156653  31.357  19.797   5.776
 4411POPC   GL256654  31.689  19.656   5.806
 4411POPC   C1A56655  31.453  19.707   6.248
 4411POPC   D2A56656  31.689  19.702   6.623
 4411POPC   C3A56657  31.531  19.513   6.950
 4411POPC   C4A56658  31.170  19.629   7.180
 4411POPC   C1B56659  31.682  20.100   6.046
 4411POPC   C2B56660  31.600  20.217   6.500
 4411POPC   C3B56661  31.445  20.029   6.915
 4411POPC   C4B56662  31.569  19.878   7.353
 4412POPC   NC356663  35.032   7.476   5.560
 4412POPC   PO456664  34.351   7.273   5.463
 4412POPC   GL156665  34.563   7.321   5.829
 4412POPC   GL256666  34.228   7.344   5.988
 4412POPC   C1A56667  34.666   7.175   6.254
 4412POPC   D2A56668  34.695   7.312   6.691
 4412POPC   C3A56669  34.573   7.074   7.068
 4412POPC   C4A56670  34.801   7.100   7.482
 4412POPC   C1B56671  34.439   7.666   6.221
 4412POPC   C2B56672  34.423   7.865   6.610
 4412POPC   C3B56673  34.569   7.720   6.968
 4412POPC   C4B56674  34.395   7.523   7.271
 4413POPC   NC356675   5.532  42.517   5.423
 4413POPC   PO456676   6.218  42.334   5.508
 4413POPC   GL156677   5.942  42.275   5.858
 4413POPC   GL256678   5.680  42.008   5.806
 4413POPC   C1A56679   5.857  42.604   6.199
 4413POPC   D2A56680   6.045  42.800   6.575
 4413POPC   C3A56681   5.814  42.636   6.950
 4413POPC   C4A56682   5.895  42.275   7.195
 4413POPC   C1B56683   5.657  42.124   6.262
 4413POPC   C2B56684   5.672  42.168   6.732
 4413POPC   C3B56685   5.624  41.862   7.051
 4413POPC   C4B56686   5.658  41.933   7.515
 4414POPC   NC356687  22.738  39.733   5.202
 4414POPC   PO456688  23.356  40.101   5.386
 4414POPC   GL156689  22.972  39.912   5.665
 4414POPC   GL256690  22.635  40.081   5.766
 4414POPC   C1A56691  22.860  39.795   6.124
 4414POPC   D2A56692  22.806  40.050   6.516
 4414POPC   C3A56693  22.939  39.923   6.927
 4414POPC   C4A56694  22.891  39.712   7.291
 4414POPC   C1B56695  22.638  40.383   6.130
 4414POPC   C2B56696  22.572  40.503   6.584
 4414POPC   C3B56697  22.764  40.468   6.990
 4414POPC   C4B56698  22.941  40.276   7.343
 4415POPC   NC356699  43.193  27.872   5.368
 4415POPC   PO456700  43.407  27.244   5.553
 4415POPC   GL156701  43.251  27.631   5.841
 4415POPC   GL256702  42.951  27.847   5.807
 4415POPC   C1A56703  43.318  27.841   6.286
 4415POPC   D2A56704  43.474  27.620   6.691
 4415POPC   C3A56705  43.261  27.603   7.081
 4415POPC   C4A56706  43.066  27.620   7.524
 4415POPC   C1B56707  42.840  27.645   6.199
 4415POPC   C2B56708  42.956  27.616   6.636
 4415POPC   C3B56709  42.802  27.812   7.013
 4415POPC   C4B56710  42.595  27.660   7.349
 4416POPC   NC356711  37.761  37.591   5.386
 4416POPC   PO456712  37.951  38.200   5.542
 4416POPC   GL156713  37.684  37.888   5.818
 4416POPC   GL256714  37.551  37.541   5.843
 4416POPC   C1A56715  37.510  37.902   6.246
 4416POPC   D2A56716  37.710  37.930   6.702
 4416POPC   C3A56717  37.467  37.767   7.070
 4416POPC   C4A56718  37.427  37.868   7.521
 4416POPC   C1B56719  37.730  37.416   6.237
 4416POPC   C2B56720  37.720  37.412   6.690
 4416POPC   C3B56721  37.920  37.496   7.084
 4416POPC   C4B56722  37.984  37.289   7.487
 4417POPC   NC356723   2.673  44.574   5.372
 4417POPC   PO456724   2.253   0.134   5.452
 4417POPC   GL156725   2.567  44.876   5.784
 4417POPC   GL256726   2.916  44.707   5.807
 4417POPC   C1A56727   2.771  44.952   6.225
 4417POPC   D2A56728   3.042  44.704   6.517
 4417POPC   C3A56729   3.044  44.778   6.967
 4417POPC   C4A56730   2.640  44.696   7.160
 4417POPC   C1B56731   3.195  44.455   6.080
 4417POPC   C2B56732   3.293  44.247   6.488
 4417POPC   C3B56733   3.011  44.212   6.873
 4417POPC   C4B56734   3.036  44.386   7.309
 4418POPC   NC356735   2.104   0.333   5.054
 4418POPC   PO456736   1.626   0.411   5.480
 4418POPC   GL156737   1.855   0.391   5.840
 4418POPC   GL256738   1.985   0.731   5.860
 4418POPC   C1A56739   1.770   0.299   6.268
 4418POPC   D2A56740   1.842   0.504   6.668
 4418POPC   C3A56741   1.816   0.256   7.002
 4418POPC   C4A56742   1.512   0.211   7.290
 4418POPC   C1B56743   2.135   0.688   6.289
 4418POPC   C2B56744   2.304   0.748   6.728
 4418POPC   C3B56745   2.295   0.468   7.075
 4418POPC   C4B56746   2.187   0.125   7.333
 4419POPC   NC356747   8.575   8.996   5.540
 4419POPC   PO456748   9.054   8.549   5.494
 4419POPC   GL156749   9.066   8.664   5.886
 4419POPC   GL256750   8.686   8.594   5.849
 4419POPC   C1A56751   9.299   8.778   6.299
 4419POPC   D2A56752   9.290   9.089   6.684
 4419POPC   C3A56753   8.865   9.150   6.922
 4419POPC   C4A56754   8.745   9.246   7.376
 4419POPC   C1B56755   8.720   8.880   6.179
 4419POPC   C2B56756   8.846   8.745   6.559
 4419POPC   C3B56757   8.556   8.732   6.862
 4419POPC   C4B56758   8.751   8.759   7.240
 4420POPC   NC356759  24.207  20.289   5.513
 4420POPC   PO456760  24.236  19.616   5.353
 4420POPC   GL156761  24.468  19.854   5.675
 4420POPC   GL256762  24.720  19.631   5.749
 4420POPC   C1A56763  24.510  19.908   6.156
 4420POPC   D2A56764  24.527  19.667   6.561
 4420POPC   C3A56765  24.361  19.847   6.972
 4420POPC   C4A56766  24.348  20.151   7.300
 4420POPC   C1B56767  24.993  19.759   6.086
 4420POPC   C2B56768  24.987  19.894   6.477
 4420POPC   C3B56769  24.874  19.910   6.864
 4420POPC   C4B56770  24.859  19.803   7.229
 4421POPC   NC356771  41.908  12.847   5.484
 4421POPC   PO456772  42.559  12.965   5.335
 4421POPC   GL156773  42.534  13.069   5.792
 4421POPC   GL256774  42.208  12.954   5.880
 4421POPC   C1A56775  42.567  13.086   6.250
 4421POPC   D2A56776  42.285  12.862   6.521
 4421POPC   C3A56777  42.224  13.006   6.905
 4421POPC   C4A56778  42.281  12.888   7.288
 4421POPC   C1B56779  42.022  13.174   6.207
 4421POPC   C2B56780  42.098  13.390   6.580
 4421POPC   C3B56781  41.842  13.337   6.946
 4421POPC   C4B56782  41.809  13.061   7.238
 4422POPC   NC356783  33.391  42.727   5.434
 4422POPC   PO456784  33.986  42.531   5.449
 4422POPC   GL156785  33.843  42.391   5.838
 4422POPC   GL256786  33.568  42.632   5.913
 4422POPC   C1A56787  34.064  42.314   6.241
 4422POPC   D2A56788  33.992  41.980   6.529
 4422POPC   C3A56789  33.759  42.012   6.915
 4422POPC   C4A56790  34.017  42.326   7.100
 4422POPC   C1B56791  33.575  42.364   6.282
 4422POPC   C2B56792  33.732  42.465   6.689
 4422POPC   C3B56793  33.476  42.487   7.076
 4422POPC   C4B56794  33.470  42.637   7.517
 4423POPC   NC356795  25.013  10.514   5.658
 4423POPC   PO456796  25.583  10.765   5.401
 4423POPC   GL156797  25.589  10.719   5.823
 4423POPC   GL256798  25.497  10.371   5.851
 4423POPC   C1A56799  25.506  10.700   6.266
 4423POPC   D2A56800  25.243  10.628   6.621
 4423POPC   C3A56801  25.370  10.500   7.022
 4423POPC   C4A56802  25.592  10.790   7.260
 4423POPC   C1B56803  25.180  10.299   6.225
 4423POPC   C2B56804  24.933  10.213   6.575
 4423POPC   C3B56805  24.986  10.060   6.991
 4423POPC   C4B56806  25.263  10.129   7.362
 4424POPC   NC356807  25.573  30.515   5.408
 4424POPC   PO456808  25.312  31.157   5.418
 4424POPC   GL156809  25.278  30.889   5.767
 4424POPC   GL256810  24.949  30.699   5.811
 4424POPC   C1A56811  25.494  30.924   6.149
 4424POPC   D2A56812  25.411  30.806   6.570
 4424POPC   C3A56813  25.050  30.852   6.841
 4424POPC   C4A56814  25.204  30.972   7.250
 4424POPC   C1B56815  25.055  30.592   6.256
 4424POPC   C2B56816  25.235  30.344   6.625
 4424POPC   C3B56817  25.167  30.379   7.051
 4424POPC   C4B56818  24.901  30.585   7.292
 4425POPC   NC356819   5.409  20.143   5.629
 4425POPC   PO456820   5.739  20.783   5.427
 4425POPC   GL156821   5.931  20.780   5.843
 4425POPC   GL256822   5.984  20.420   5.890
 4425POPC   C1A56823   5.800  20.759   6.272
 4425POPC   D2A56824   5.787  20.558   6.676
 4425POPC   C3A56825   5.774  20.838   7.014
 4425POPC   C4A56826   5.965  20.700   7.380
 4425POPC   C1B56827   5.708  20.243   6.250
 4425POPC   C2B56828   5.568  20.067   6.669
 4425POPC   C3B56829   5.468  20.261   7.082
 4425POPC   C4B56830   5.708  20.255   7.503
 4426POPC   NC356831  33.631  12.046   5.412
 4426POPC   PO456832  33.362  11.575   5.760
 4426POPC   GL156833  33.769  11.768   5.834
 4426POPC   GL256834  33.944  12.087   5.823
 4426POPC   C1A56835  33.876  11.748   6.253
 4426POPC   D2A56836  33.842  12.051   6.543
 4426POPC   C3A56837  33.762  11.975   6.945
 4426POPC   C4A56838  33.587  12.207   7.221
 4426POPC   C1B56839  34.222  12.136   6.182
 4426POPC   C2B56840  34.192  12.430   6.521
 4426POPC   C3B56841  34.147  12.339   6.930
 4426POPC   C4B56842  34.224  12.024   7.184
 4427POPC   NC356843  21.288   9.351   5.340
 4427POPC   PO456844  21.550   9.984   5.572
 4427POPC   GL156845  21.672   9.727   5.927
 4427POPC   GL256846  21.514   9.423   5.825
 4427POPC   C1A56847  21.479   9.673   6.325
 4427POPC   D2A56848  21.528   9.486   6.725
 4427POPC   C3A56849  21.515   9.751   7.063
 4427POPC   C4A56850  21.813   9.889   7.360
 4427POPC   C1B56851  21.170   9.331   6.070
 4427POPC   C2B56852  21.065   9.421   6.509
 4427POPC   C3B56853  21.068   9.492   6.944
 4427POPC   C4B56854  21.366   9.282   7.196
 4428POPC   NC356855  25.581  34.749   5.473
 4428POPC   PO456856  25.099  34.294   5.431
 4428POPC   GL156857  25.271  34.498   5.796
 4428POPC   GL256858  25.548  34.284   5.801
 4428POPC   C1A56859  25.385  34.767   6.185
 4428POPC   D2A56860  25.653  34.832   6.583
 4428POPC   C3A56861  25.437  34.728   6.965
 4428POPC   C4A56862  25.113  34.712   7.254
 4428POPC   C1B56863  25.274  34.207   6.208
 4428POPC   C2B56864  25.210  34.100   6.668
 4428POPC   C3B56865  25.095  34.205   7.087
 4428POPC   C4B56866  25.462  34.296   7.271
 4429POPC   NC356867  18.069  40.314   5.531
 4429POPC   PO456868  18.362  40.932   5.245
 4429POPC   GL156869  18.435  40.888   5.741
 4429POPC   GL256870  18.344  40.562   5.907
 4429POPC   C1A56871  18.441  40.951   6.231
 4429POPC   D2A56872  18.117  40.837   6.548
 4429POPC   C3A56873  18.153  40.716   6.999
 4429POPC   C4A56874  18.025  41.079   7.256
 4429POPC   C1B56875  18.457  40.432   6.323
 4429POPC   C2B56876  18.588  40.666   6.690
 4429POPC   C3B56877  18.678  40.546   7.106
 4429POPC   C4B56878  18.325  40.376   7.384
 4430POPC   NC356879  25.722  23.228   5.619
 4430POPC   PO456880  26.161  22.749   5.444
 4430POPC   GL156881  26.143  22.966   5.804
 4430POPC   GL256882  26.249  23.318   5.734
 4430POPC   C1A56883  25.967  22.987   6.222
 4430POPC   D2A56884  26.125  22.985   6.632
 4430POPC   C3A56885  25.905  22.779   6.970
 4430POPC   C4A56886  25.866  22.768   7.412
 4430POPC   C1B56887  26.146  23.465   6.171
 4430POPC   C2B56888  26.000  23.516   6.581
 4430POPC   C3B56889  25.797  23.344   6.922
 4430POPC   C4B56890  25.711  23.220   7.308
 4431POPC   NC356891  27.119  35.601   5.267
 4431POPC   PO456892  26.855  35.042   5.453
 4431POPC   GL156893  26.935  35.304   5.824
 4431POPC   GL256894  26.646  35.540   5.835
 4431POPC   C1A56895  26.972  35.239   6.278
 4431POPC   D2A56896  27.005  35.112   6.690
 4431POPC   C3A56897  26.638  35.067   6.932
 4431POPC   C4A56898  26.697  35.196   7.330
 4431POPC   C1B56899  26.812  35.713   6.232
 4431POPC   C2B56900  27.043  35.645   6.611
 4431POPC   C3B56901  26.941  35.506   7.009
 4431POPC   C4B56902  26.912  35.818   7.280
 4432POPC   NC356903  29.467  22.511   5.759
 4432POPC   PO456904  28.897  22.320   5.400
 4432POPC   GL156905  29.070  22.136   5.793
 4432POPC   GL256906  29.384  21.972   5.675
 4432POPC   C1A56907  29.087  22.220   6.251
 4432POPC   D2A56908  28.825  22.129   6.599
 4432POPC   C3A56909  28.880  22.301   6.986
 4432POPC   C4A56910  29.241  22.374   7.175
 4432POPC   C1B56911  29.390  21.826   6.104
 4432POPC   C2B56912  29.255  21.756   6.539
 4432POPC   C3B56913  29.366  21.884   6.954
 4432POPC   C4B56914  29.237  21.810   7.380
 4433POPC   NC356915   8.903  31.742   5.538
 4433POPC   PO456916   9.134  31.076   5.530
 4433POPC   GL156917   8.942  31.269   5.873
 4433POPC   GL256918   8.915  31.625   6.010
 4433POPC   C1A56919   9.162  31.280   6.253
 4433POPC   D2A56920   9.280  31.448   6.622
 4433POPC   C3A56921   9.140  31.208   6.968
 4433POPC   C4A56922   8.831  31.434   7.148
 4433POPC   C1B56923   8.700  31.762   6.375
 4433POPC   C2B56924   8.826  32.042   6.678
 4433POPC   C3B56925   8.944  31.942   7.089
 4433POPC   C4B56926   8.679  31.796   7.451
 4434POPC   NC356927   0.435  21.030   5.584
 4434POPC   PO456928   0.374  21.534   5.174
 4434POPC   GL156929   0.504  21.559   5.642
 4434POPC   GL256930   0.149  21.500   5.711
 4434POPC   C1A56931   0.639  21.415   6.106
 4434POPC   D2A56932   0.793  21.174   6.493
 4434POPC   C3A56933   0.628  21.261   6.907
 4434POPC   C4A56934   0.309  21.223   7.244
 4434POPC   C1B56935   0.166  21.644   6.139
 4434POPC   C2B56936   0.270  21.439   6.542
 4434POPC   C3B56937   0.301  21.634   6.950
 4434POPC   C4B56938   0.211  21.715   7.383
 4435POPC   NC356939  40.981  14.450   5.522
 4435POPC   PO456940  40.389  14.113   5.384
 4435POPC   GL156941  40.613  14.191   5.772
 4435POPC   GL256942  40.555  14.528   5.868
 4435POPC   C1A56943  40.590  14.103   6.218
 4435POPC   D2A56944  40.437  14.270   6.622
 4435POPC   C3A56945  40.766  14.235   6.926
 4435POPC   C4A56946  40.895  14.176   7.355
 4435POPC   C1B56947  40.840  14.538   6.215
 4435POPC   C2B56948  40.759  14.662   6.626
 4435POPC   C3B56949  40.827  14.738   7.037
 4435POPC   C4B56950  40.929  14.698   7.442
 4436POPC   NC356951  20.929  12.676   5.531
 4436POPC   PO456952  20.515  13.116   5.276
 4436POPC   GL156953  20.457  12.928   5.682
 4436POPC   GL256954  20.315  12.603   5.558
 4436POPC   C1A56955  20.621  12.899   6.127
 4436POPC   D2A56956  20.655  13.011   6.563
 4436POPC   C3A56957  20.343  12.950   6.905
 4436POPC   C4A56958  20.529  12.879   7.297
 4436POPC   C1B56959  20.257  12.573   5.993
 4436POPC   C2B56960  20.345  12.590   6.455
 4436POPC   C3B56961  20.240  12.442   6.890
 4436POPC   C4B56962  20.301  12.437   7.350
 4437POPC   NC356963  42.003  41.670   5.378
 4437POPC   PO456964  42.694  41.403   5.457
 4437POPC   GL156965  42.404  41.599   5.696
 4437POPC   GL256966  42.342  41.297   5.879
 4437POPC   C1A56967  42.337  41.798   6.099
 4437POPC   D2A56968  42.508  41.702   6.508
 4437POPC   C3A56969  42.408  41.566   6.960
 4437POPC   C4A56970  42.372  41.701   7.419
 4437POPC   C1B56971  42.080  41.276   6.249
 4437POPC   C2B56972  41.974  41.077   6.644
 4437POPC   C3B56973  41.986  41.258   7.032
 4437POPC   C4B56974  42.280  41.199   7.297
 4438POPC   NC356975  27.790  28.980   5.574
 4438POPC   PO456976  27.339  29.325   5.204
 4438POPC   GL156977  27.328  29.212   5.698
 4438POPC   GL256978  27.571  29.422   5.818
 4438POPC   C1A56979  27.502  29.052   6.166
 4438POPC   D2A56980  27.330  29.162   6.612
 4438POPC   C3A56981  27.604  29.201   6.979
 4438POPC   C4A56982  27.944  28.961   7.171
 4438POPC   C1B56983  27.345  29.527   6.226
 4438POPC   C2B56984  27.425  29.661   6.676
 4438POPC   C3B56985  27.630  29.704   7.110
 4438POPC   C4B56986  27.718  29.688   7.586
 4439POPC   NC356987  33.178   8.807   5.126
 4439POPC   PO456988  32.939   8.214   5.324
 4439POPC   GL156989  33.012   8.177   5.777
 4439POPC   GL256990  32.858   8.471   5.887
 4439POPC   C1A56991  33.048   7.991   6.207
 4439POPC   D2A56992  33.127   8.183   6.605
 4439POPC   C3A56993  33.079   7.956   6.974
 4439POPC   C4A56994  32.947   8.196   7.334
 4439POPC   C1B56995  32.767   8.463   6.335
 4439POPC   C2B56996  32.707   8.537   6.792
 4439POPC   C3B56997  32.625   8.585   7.246
 4439POPC   C4B56998  32.810   8.527   7.696
 4440POPC   NC356999  13.557  10.922   5.487
 4440POPC   PO457000  13.545  10.288   5.315
 4440POPC   GL157001  13.456  10.397   5.702
 4440POPC   GL257002  13.684  10.207   5.849
 4440POPC   C1A57003  13.469  10.636   6.085
 4440POPC   D2A57004  13.462  10.514   6.502
 4440POPC   C3A57005  13.590  10.605   6.898
 4440POPC   C4A57006  13.446  10.410   7.288
 4440POPC   C1B57007  13.673  10.102   6.257
 4440POPC   C2B57008  13.862  10.219   6.621
 4440POPC   C3B57009  13.721  10.118   6.992
 4440POPC   C4B57010  13.908  10.191   7.373
 4441POPC   NC357011  37.764  40.315   5.342
 4441POPC   PO457012  37.661  39.673   5.523
 4441POPC   GL157013  37.556  40.043   5.743
 4441POPC   GL257014  37.888  40.218   5.817
 4441POPC   C1A57015  37.441  40.007   6.176
 4441POPC   D2A57016  37.383  39.749   6.552
 4441POPC   C3A57017  37.429  39.979   6.919
 4441POPC   C4A57018  37.607  39.891   7.357
 4441POPC   C1B57019  37.831  40.417   6.204
 4441POPC   C2B57020  37.760  40.353   6.628
 4441POPC   C3B57021  37.906  40.142   6.968
 4441POPC   C4B57022  37.772  40.401   7.283
 4442POPC   NC357023   9.028  35.197   5.150
 4442POPC   PO457024   8.514  35.284   5.582
 4442POPC   GL157025   8.928  35.448   5.806
 4442POPC   GL257026   9.263  35.250   5.794
 4442POPC   C1A57027   9.024  35.364   6.275
 4442POPC   D2A57028   8.703  35.154   6.499
 4442POPC   C3A57029   8.589  35.117   6.950
 4442POPC   C4A57030   8.613  35.435   7.276
 4442POPC   C1B57031   9.361  35.003   6.197
 4442POPC   C2B57032   9.183  34.975   6.620
 4442POPC   C3B57033   9.040  35.320   6.886
 4442POPC   C4B57034   8.989  35.116   7.290
 4443POPC   NC357035  30.505  33.596   5.497
 4443POPC   PO457036  31.102  33.373   5.411
 4443POPC   GL157037  31.014  33.668   5.763
 4443POPC   GL257038  30.786  33.429   5.883
 4443POPC   C1A57039  30.870  33.807   6.207
 4443POPC   D2A57040  30.780  33.627   6.644
 4443POPC   C3A57041  30.781  33.848   7.053
 4443POPC   C4A57042  30.423  34.119   7.181
 4443POPC   C1B57043  30.407  33.439   6.160
 4443POPC   C2B57044  30.323  33.386   6.601
 4443POPC   C3B57045  30.343  33.577   6.989
 4443POPC   C4B57046  30.466  33.630   7.424
 4444POPC   NC357047  33.446  39.835   5.204
 4444POPC   PO457048  34.019  40.042   5.482
 4444POPC   GL157049  33.722  40.181   5.776
 4444POPC   GL257050  34.000  40.360   5.908
 4444POPC   C1A57051  33.593  40.245   6.206
 4444POPC   D2A57052  33.798  40.188   6.577
 4444POPC   C3A57053  33.601  39.879   6.818
 4444POPC   C4A57054  33.618  39.843   7.241
 4444POPC   C1B57055  34.014  39.930   6.158
 4444POPC   C2B57056  34.128  39.776   6.576
 4444POPC   C3B57057  34.075  39.947   6.997
 4444POPC   C4B57058  34.094  39.803   7.397
 4445POPC   NC357059  34.997   2.978   5.626
 4445POPC   PO457060  34.554   2.533   5.628
 4445POPC   GL157061  34.379   2.778   5.910
 4445POPC   GL257062  34.140   3.057   5.827
 4445POPC   C1A57063  34.613   2.826   6.279
 4445POPC   D2A57064  34.795   3.124   6.570
 4445POPC   C3A57065  34.869   2.901   6.977
 4445POPC   C4A57066  34.855   2.836   7.433
 4445POPC   C1B57067  34.078   2.944   6.283
 4445POPC   C2B57068  34.305   2.911   6.671
 4445POPC   C3B57069  34.250   2.869   7.085
 4445POPC   C4B57070  34.014   3.213   7.252
 4446POPC   NC357071  10.559  39.803   5.513
 4446POPC   PO457072  10.350  39.240   5.440
 4446POPC   GL157073  10.311  38.980   5.839
 4446POPC   GL257074  10.653  39.040   5.975
 4446POPC   C1A57075  10.247  39.086   6.279
 4446POPC   D2A57076  10.373  39.284   6.636
 4446POPC   C3A57077  10.300  39.107   7.028
 4446POPC   C4A57078  10.562  39.138   7.384
 4446POPC   C1B57079  10.738  39.402   6.281
 4446POPC   C2B57080  10.725  39.652   6.682
 4446POPC   C3B57081  10.664  39.572   7.130
 4446POPC   C4B57082  10.840  39.549   7.595
 4447POPC   NC357083  25.468   5.570   5.476
 4447POPC   PO457084  24.773   5.757   5.522
 4447POPC   GL157085  25.052   5.989   5.773
 4447POPC   GL257086  25.183   5.669   5.879
 4447POPC   C1A57087  25.318   6.143   6.113
 4447POPC   D2A57088  25.223   6.225   6.563
 4447POPC   C3A57089  25.364   6.000   6.938
 4447POPC   C4A57090  25.636   5.695   7.093
 4447POPC   C1B57091  25.121   5.708   6.308
 4447POPC   C2B57092  25.160   5.473   6.676
 4447POPC   C3B57093  25.155   5.538   7.111
 4447POPC   C4B57094  24.876   5.873   7.229
 4448POPC   NC357095  40.525   1.490   5.259
 4448POPC   PO457096  39.989   1.062   5.339
 4448POPC   GL157097  40.183   1.205   5.753
 4448POPC   GL257098  40.488   1.426   5.754
 4448POPC   C1A57099  40.031   1.294   6.197
 4448POPC   D2A57100  39.948   1.517   6.598
 4448POPC   C3A57101  39.912   1.182   6.907
 4448POPC   C4A57102  40.259   1.043   7.174
 4448POPC   C1B57103  40.477   1.542   6.168
 4448POPC   C2B57104  40.430   1.312   6.552
 4448POPC   C3B57105  40.347   1.476   6.949
 4448POPC   C4B57106  39.994   1.585   7.227
 4449POPC   NC357107  18.457  43.248   5.498
 4449POPC   PO457108  17.901  42.844   5.503
 4449POPC   GL157109  18.130  43.009   5.887
 4449POPC   GL257110  18.514  43.090   5.966
 4449POPC   C1A57111  18.110  43.027   6.343
 4449POPC   D2A57112  17.939  42.777   6.667
 4449POPC   C3A57113  18.226  42.666   6.969
 4449POPC   C4A57114  18.511  42.843   7.276
 4449POPC   C1B57115  18.479  43.408   6.265
 4449POPC   C2B57116  18.467  43.465   6.681
 4449POPC   C3B57117  18.246  43.183   6.915
 4449POPC   C4B57118  18.020  43.332   7.225
 4450POPC   NC357119  16.675  27.228   5.436
 4450POPC   PO457120  16.942  27.862   5.421
 4450POPC   GL157121  16.706  27.743   5.802
 4450POPC   GL257122  16.515  27.444   5.863
 4450POPC   C1A57123  16.779  27.625   6.246
 4450POPC   D2A57124  16.528  27.653   6.595
 4450POPC   C3A57125  16.792  27.686   6.938
 4450POPC   C4A57126  16.932  27.692   7.365
 4450POPC   C1B57127  16.558  27.151   6.263
 4450POPC   C2B57128  16.643  27.162   6.726
 4450POPC   C3B57129  16.735  27.228   7.177
 4450POPC   C4B57130  16.817  27.273   7.627
 4451POPC   NC357131  37.056   6.302   5.434
 4451POPC   PO457132  36.884   6.966   5.461
 4451POPC   GL157133  37.102   6.716   5.758
 4451POPC   GL257134  36.869   6.470   5.888
 4451POPC   C1A57135  37.227   6.659   6.193
 4451POPC   D2A57136  37.092   6.592   6.595
 4451POPC   C3A57137  37.189   6.884   6.909
 4451POPC   C4A57138  37.334   6.662   7.270
 4451POPC   C1B57139  36.717   6.743   6.225
 4451POPC   C2B57140  36.635   6.790   6.688
 4451POPC   C3B57141  36.744   6.849   7.143
 4451POPC   C4B57142  37.047   7.113   7.382
 4452POPC   NC357143   5.590  40.275   5.503
 4452POPC   PO457144   6.100  39.889   5.495
 4452POPC   GL157145   5.926  40.102   5.866
 4452POPC   GL257146   5.561  40.100   5.966
 4452POPC   C1A57147   5.912  40.204   6.302
 4452POPC   D2A57148   6.005  39.984   6.629
 4452POPC   C3A57149   5.872  40.079   7.012
 4452POPC   C4A57150   6.084  40.099   7.378
 4452POPC   C1B57151   5.606  39.797   6.323
 4452POPC   C2B57152   5.634  39.674   6.779
 4452POPC   C3B57153   5.434  39.845   7.138
 4452POPC   C4B57154   5.633  39.964   7.537
 4453POPC   NC357155  38.975  35.715   5.640
 4453POPC   PO457156  39.406  36.138   5.367
 4453POPC   GL157157  39.090  36.201   5.670
 4453POPC   GL257158  39.370  36.220   5.888
 4453POPC   C1A57159  38.895  36.153   6.115
 4453POPC   D2A57160  38.996  35.981   6.537
 4453POPC   C3A57161  39.186  36.232   6.892
 4453POPC   C4A57162  38.894  36.488   7.184
 4453POPC   C1B57163  39.470  36.127   6.308
 4453POPC   C2B57164  39.481  35.873   6.654
 4453POPC   C3B57165  39.206  35.711   6.930
 4453POPC   C4B57166  39.329  35.886   7.260
 4454POPC   NC357167  14.650   8.917   5.380
 4454POPC   PO457168  14.029   8.805   5.574
 4454POPC   GL157169  14.411   8.877   5.825
 4454POPC   GL257170  14.529   9.227   5.775
 4454POPC   C1A57171  14.595   8.865   6.235
 4454POPC   D2A57172  14.373   8.688   6.569
 4454POPC   C3A57173  14.540   8.758   6.973
 4454POPC   C4A57174  14.349   8.726   7.386
 4454POPC   C1B57175  14.278   9.255   6.177
 4454POPC   C2B57176  14.333   9.225   6.637
 4454POPC   C3B57177  14.291   9.200   7.087
 4454POPC   C4B57178  14.666   9.158   7.314
 4455POPC   NC357179  17.951  10.651   5.336
 4455POPC   PO457180  18.287  10.109   5.343
 4455POPC   GL157181  18.236  10.345   5.756
 4455POPC   GL257182  18.202  10.681   5.798
 4455POPC   C1A57183  18.525  10.372   6.127
 4455POPC   D2A57184  18.629  10.534   6.542
 4455POPC   C3A57185  18.374  10.328   6.850
 4455POPC   C4A57186  18.262  10.024   7.189
 4455POPC   C1B57187  18.323  10.828   6.201
 4455POPC   C2B57188  18.173  10.804   6.595
 4455POPC   C3B57189  17.981  10.651   6.939
 4455POPC   C4B57190  18.136  10.506   7.285
 4456POPC   NC357191  26.957  27.627   5.210
 4456POPC   PO457192  26.665  28.021   5.580
 4456POPC   GL157193  26.766  27.840   5.887
 4456POPC   GL257194  26.745  27.518   5.728
 4456POPC   C1A57195  26.616  27.846   6.283
 4456POPC   D2A57196  26.711  27.623   6.625
 4456POPC   C3A57197  26.519  27.726   6.982
 4456POPC   C4A57198  26.611  27.418   7.261
 4456POPC   C1B57199  26.774  27.361   6.149
 4456POPC   C2B57200  27.055  27.259   6.485
 4456POPC   C3B57201  27.016  27.285   6.926
 4456POPC   C4B57202  27.102  27.334   7.375
 4457POPC   NC357203  10.604  33.298   5.432
 4457POPC   PO457204  10.059  32.964   5.359
 4457POPC   GL157205  10.355  32.928   5.722
 4457POPC   GL257206  10.530  32.660   5.596
 4457POPC   C1A57207  10.604  33.095   6.138
 4457POPC   D2A57208  10.821  33.062   6.573
 4457POPC   C3A57209  10.582  33.152   6.961
 4457POPC   C4A57210  10.356  33.452   7.231
 4457POPC   C1B57211  10.617  32.605   6.027
 4457POPC   C2B57212  10.610  32.613   6.463
 4457POPC   C3B57213  10.729  32.582   6.894
 4457POPC   C4B57214  10.627  32.772   7.286
 4458POPC   NC357215  43.444  12.954   5.225
 4458POPC   PO457216  44.113  12.954   5.324
 4458POPC   GL157217  44.059  12.919   5.807
 4458POPC   GL257218  44.131  12.641   5.969
 4458POPC   C1A57219  43.798  12.877   6.227
 4458POPC   D2A57220  43.860  12.819   6.622
 4458POPC   C3A57221  43.597  13.053   6.847
 4458POPC   C4A57222  43.611  12.981   7.262
 4458POPC   C1B57223  44.303  12.834   6.327
 4458POPC   C2B57224  44.362  12.753   6.755
 4458POPC   C3B57225  44.091  12.815   7.109
 4458POPC   C4B57226  44.060  13.044   7.498
 4459POPC   NC357227  35.638  33.653   5.400
 4459POPC   PO457228  35.306  34.213   5.308
 4459POPC   GL157229  35.371  33.991   5.722
 4459POPC   GL257230  35.726  33.940   5.810
 4459POPC   C1A57231  35.229  33.896   6.160
 4459POPC   D2A57232  35.107  34.153   6.518
 4459POPC   C3A57233  35.239  33.930   6.872
 4459POPC   C4A57234  35.226  33.775   7.250
 4459POPC   C1B57235  35.664  33.622   6.108
 4459POPC   C2B57236  35.578  33.710   6.536
 4459POPC   C3B57237  35.673  33.627   6.985
 4459POPC   C4B57238  35.709  33.781   7.410
 4460POPC   NC357239  21.729  43.877   5.498
 4460POPC   PO457240  21.121  44.036   5.420
 4460POPC   GL157241  21.272  43.824   5.815
 4460POPC   GL257242  21.614  43.767   5.972
 4460POPC   C1A57243  21.169  43.765   6.256
 4460POPC   D2A57244  21.234  43.697   6.690
 4460POPC   C3A57245  21.067  43.988   6.986
 4460POPC   C4A57246  21.131  43.652   7.242
 4460POPC   C1B57247  21.630  44.077   6.290
 4460POPC   C2B57248  21.598  44.081   6.744
 4460POPC   C3B57249  21.543  44.024   7.189
 4460POPC   C4B57250  21.700  44.103   7.627
 4461POPC   NC357251   6.020  10.173   5.446
 4461POPC   PO457252   5.651   9.579   5.412
 4461POPC   GL157253   5.873   9.692   5.783
 4461POPC   GL257254   5.999   9.355   5.787
 4461POPC   C1A57255   5.715   9.827   6.214
 4461POPC   D2A57256   5.513   9.941   6.586
 4461POPC   C3A57257   5.780  10.049   6.909
 4461POPC   C4A57258   5.594   9.971   7.295
 4461POPC   C1B57259   5.768   9.332   6.186
 4461POPC   C2B57260   5.779   9.474   6.621
 4461POPC   C3B57261   5.707   9.540   7.069
 4461POPC   C4B57262   5.554   9.524   7.511
 4462POPC   NC357263  41.903  21.329   5.649
 4462POPC   PO457264  42.501  21.301   5.410
 4462POPC   GL157265  42.417  21.398   5.816
 4462POPC   GL257266  42.540  21.747   5.819
 4462POPC   C1A57267  42.166  21.546   6.190
 4462POPC   D2A57268  41.944  21.667   6.553
 4462POPC   C3A57269  42.064  21.332   6.833
 4462POPC   C4A57270  42.211  21.304   7.257
 4462POPC   C1B57271  42.675  21.607   6.189
 4462POPC   C2B57272  42.524  21.350   6.535
 4462POPC   C3B57273  42.611  21.429   6.958
 4462POPC   C4B57274  42.596  21.654   7.324
 4463POPC   NC357275  20.481  41.062   5.263
 4463POPC   PO457276  20.869  40.548   5.500
 4463POPC   GL157277  20.677  40.903   5.730
 4463POPC   GL257278  20.875  41.099   6.002
 4463POPC   C1A57279  20.374  40.974   6.078
 4463POPC   D2A57280  20.561  41.004   6.511
 4463POPC   C3A57281  20.346  40.879   6.869
 4463POPC   C4A57282  20.550  40.739   7.207
 4463POPC   C1B57283  20.774  40.668   6.203
 4463POPC   C2B57284  20.574  40.447   6.579
 4463POPC   C3B57285  20.719  40.308   7.006
 4463POPC   C4B57286  20.945  40.451   7.376
 4464POPC   NC357287  38.270  32.059   5.463
 4464POPC   PO457288  37.836  31.507   5.331
 4464POPC   GL157289  37.714  31.553   5.768
 4464POPC   GL257290  38.008  31.762   5.865
 4464POPC   C1A57291  37.494  31.309   6.118
 4464POPC   D2A57292  37.659  31.192   6.543
 4464POPC   C3A57293  37.459  31.337   6.899
 4464POPC   C4A57294  37.577  31.351   7.295
 4464POPC   C1B57295  37.712  31.769   6.267
 4464POPC   C2B57296  37.643  31.788   6.753
 4464POPC   C3B57297  37.898  31.743   7.149
 4464POPC   C4B57298  37.832  31.665   7.615
 4465POPC   NC357299  30.991   9.926   5.552
 4465POPC   PO457300  30.506   9.566   5.293
 4465POPC   GL157301  30.473   9.727   5.712
 4465POPC   GL257302  30.584  10.050   5.863
 4465POPC   C1A57303  30.469   9.623   6.179
 4465POPC   D2A57304  30.631   9.752   6.592
 4465POPC   C3A57305  30.596   9.497   6.909
 4465POPC   C4A57306  30.290   9.319   7.150
 4465POPC   C1B57307  30.881   9.949   6.212
 4465POPC   C2B57308  31.053  10.017   6.646
 4465POPC   C3B57309  30.869   9.930   7.044
 4465POPC   C4B57310  31.007   9.955   7.463
 4466POPC   NC357311   7.372  34.338   5.452
 4466POPC   PO457312   8.017  34.420   5.507
 4466POPC   GL157313   7.674  34.585   5.834
 4466POPC   GL257314   7.281  34.507   5.905
 4466POPC   C1A57315   7.572  34.625   6.313
 4466POPC   D2A57316   7.657  34.397   6.723
 4466POPC   C3A57317   7.660  34.594   7.093
 4466POPC   C4A57318   7.266  34.803   7.048
 4466POPC   C1B57319   7.109  34.266   6.237
 4466POPC   C2B57320   7.146  34.419   6.640
 4466POPC   C3B57321   7.254  34.280   7.031
 4466POPC   C4B57322   7.118  34.425   7.386
 4467POPC   NC357323   3.908  39.820   5.042
 4467POPC   PO457324   4.348  40.029   5.535
 4467POPC   GL157325   4.509  40.075   5.927
 4467POPC   GL257326   4.346  39.769   5.984
 4467POPC   C1A57327   4.513  40.275   6.317
 4467POPC   D2A57328   4.320  40.250   6.724
 4467POPC   C3A57329   4.578  40.101   7.041
 4467POPC   C4A57330   4.678  40.226   7.457
 4467POPC   C1B57331   4.394  39.518   6.291
 4467POPC   C2B57332   4.431  39.725   6.661
 4467POPC   C3B57333   4.511  39.598   7.047
 4467POPC   C4B57334   4.444  39.751   7.443
 4468POPC   NC357335  42.012  10.243   5.462
 4468POPC   PO457336  41.514  10.659   5.373
 4468POPC   GL157337  41.595  10.669   5.839
 4468POPC   GL257338  41.889  10.472   5.980
 4468POPC   C1A57339  41.462  10.499   6.270
 4468POPC   D2A57340  41.635  10.465   6.708
 4468POPC   C3A57341  41.340  10.520   7.056
 4468POPC   C4A57342  41.180  10.121   7.221
 4468POPC   C1B57343  41.856  10.839   6.280
 4468POPC   C2B57344  41.734  10.973   6.703
 4468POPC   C3B57345  41.804  10.755   7.123
 4468POPC   C4B57346  41.959  10.947   7.518
 4469POPC   NC357347  19.832  21.526   5.290
 4469POPC   PO457348  19.409  21.275   5.585
 4469POPC   GL157349  19.529  21.587   5.911
 4469POPC   GL257350  19.821  21.772   5.786
 4469POPC   C1A57351  19.653  21.500   6.390
 4469POPC   D2A57352  19.439  21.346   6.799
 4469POPC   C3A57353  19.738  21.197   7.132
 4469POPC   C4A57354  20.167  21.200   7.331
 4469POPC   C1B57355  19.738  21.966   6.204
 4469POPC   C2B57356  19.840  21.946   6.654
 4469POPC   C3B57357  19.706  21.733   7.044
 4469POPC   C4B57358  19.457  21.877   7.393
 4470POPC   NC357359  33.501  23.840   5.398
 4470POPC   PO457360  33.830  23.436   5.036
 4470POPC   GL157361  33.975  23.555   5.579
 4470POPC   GL257362  33.798  23.856   5.806
 4470POPC   C1A57363  34.129  23.585   6.087
 4470POPC   D2A57364  33.900  23.695   6.506
 4470POPC   C3A57365  34.036  23.641   6.952
 4470POPC   C4A57366  33.759  23.821   7.285
 4470POPC   C1B57367  33.606  23.572   6.095
 4470POPC   C2B57368  33.345  23.555   6.455
 4470POPC   C3B57369  33.437  23.644   6.891
 4470POPC   C4B57370  33.355  23.407   7.279
 4471POPC   NC357371  26.917  42.320   5.169
 4471POPC   PO457372  26.458  42.735   5.438
 4471POPC   GL157373  26.654  42.386   5.654
 4471POPC   GL257374  26.418  42.181   5.834
 4471POPC   C1A57375  26.795  42.470   6.104
 4471POPC   D2A57376  26.690  42.528   6.551
 4471POPC   C3A57377  26.847  42.261   6.859
 4471POPC   C4A57378  26.957  42.420   7.232
 4471POPC   C1B57379  26.447  42.150   6.319
 4471POPC   C2B57380  26.352  42.100   6.788
 4471POPC   C3B57381  26.508  42.162   7.242
 4471POPC   C4B57382  26.861  41.970   7.494
 4472POPC   NC357383  35.400   6.606   5.233
 4472POPC   PO457384  35.120   7.039   5.696
 4472POPC   GL157385  35.365   6.804   5.918
 4472POPC   GL257386  35.312   6.473   5.815
 4472POPC   C1A57387  35.372   6.946   6.330
 4472POPC   D2A57388  35.074   6.977   6.638
 4472POPC   C3A57389  35.313   6.800   6.953
 4472POPC   C4A57390  35.302   6.828   7.388
 4472POPC   C1B57391  35.362   6.441   6.293
 4472POPC   C2B57392  35.597   6.461   6.664
 4472POPC   C3B57393  35.618   6.210   7.026
 4472POPC   C4B57394  35.623   6.194   7.449
 4473POPC   NC357395  44.220  10.379   5.510
 4473POPC   PO457396  44.770  10.705   5.484
 4473POPC   GL157397  44.597  10.509   5.845
 4473POPC   GL257398  44.779  10.175   5.925
 4473POPC   C1A57399  44.460  10.563   6.258
 4473POPC   D2A57400  44.757  10.422   6.558
 4473POPC   C3A57401  44.735  10.740   6.848
 4473POPC   C4A57402  44.808  10.745   7.259
 4473POPC   C1B57403  44.427  10.062   6.220
 4473POPC   C2B57404  44.278  10.216   6.654
 4473POPC   C3B57405  44.564  10.288   7.050
 4473POPC   C4B57406  44.802  10.280   7.472
 4474POPC   NC357407  13.956   5.764   5.396
 4474POPC   PO457408  13.308   5.861   5.293
 4474POPC   GL157409  13.549   5.755   5.707
 4474POPC   GL257410  13.758   6.061   5.786
 4474POPC   C1A57411  13.731   5.570   6.108
 4474POPC   D2A57412  13.469   5.517   6.491
 4474POPC   C3A57413  13.593   5.637   6.944
 4474POPC   C4A57414  13.647   5.543   7.401
 4474POPC   C1B57415  13.575   6.034   6.198
 4474POPC   C2B57416  13.803   5.978   6.580
 4474POPC   C3B57417  13.910   6.061   6.995
 4474POPC   C4B57418  13.724   6.050   7.359
 4475POPC   NC357419  36.956  33.335   5.306
 4475POPC   PO457420  36.550  32.821   5.434
 4475POPC   GL157421  36.722  33.038   5.801
 4475POPC   GL257422  37.085  33.078   5.844
 4475POPC   C1A57423  36.785  32.933   6.266
 4475POPC   D2A57424  36.636  32.816   6.694
 4475POPC   C3A57425  36.825  33.026   7.028
 4475POPC   C4A57426  36.880  32.900   7.450
 4475POPC   C1B57427  37.250  33.209   6.267
 4475POPC   C2B57428  37.245  33.116   6.729
 4475POPC   C3B57429  37.314  33.119   7.189
 4475POPC   C4B57430  37.093  33.358   7.529
 4476POPC   NC357431  39.211  29.509   5.415
 4476POPC   PO457432  39.160  28.897   5.299
 4476POPC   GL157433  39.091  29.035   5.705
 4476POPC   GL257434  38.833  29.274   5.691
 4476POPC   C1A57435  39.320  28.910   6.091
 4476POPC   D2A57436  39.223  28.698   6.487
 4476POPC   C3A57437  39.252  28.932   6.858
 4476POPC   C4A57438  39.278  29.041   7.255
 4476POPC   C1B57439  39.079  29.386   6.082
 4476POPC   C2B57440  39.088  29.296   6.536
 4476POPC   C3B57441  39.142  29.453   6.967
 4476POPC   C4B57442  39.389  29.536   7.308
 4477POPC   NC357443  33.785   5.632   5.487
 4477POPC   PO457444  33.492   6.250   5.428
 4477POPC   GL157445  33.753   6.101   5.795
 4477POPC   GL257446  33.666   5.756   5.968
 4477POPC   C1A57447  33.929   6.136   6.212
 4477POPC   D2A57448  33.777   5.876   6.536
 4477POPC   C3A57449  33.888   5.931   6.959
 4477POPC   C4A57450  34.200   6.083   7.200
 4477POPC   C1B57451  34.033   5.591   6.180
 4477POPC   C2B57452  34.185   5.580   6.621
 4477POPC   C3B57453  34.236   5.579   7.065
 4477POPC   C4B57454  34.054   5.672   7.461
 4478POPC   NC357455  33.457  38.319   5.496
 4478POPC   PO457456  34.028  38.695   5.621
 4478POPC   GL157457  33.828  38.419   5.850
 4478POPC   GL257458  34.057  38.137   5.818
 4478POPC   C1A57459  33.735  38.549   6.263
 4478POPC   D2A57460  33.976  38.730   6.597
 4478POPC   C3A57461  33.904  38.563   7.008
 4478POPC   C4A57462  33.548  38.661   7.294
 4478POPC   C1B57463  33.832  38.058   6.205
 4478POPC   C2B57464  33.712  38.169   6.617
 4478POPC   C3B57465  33.843  38.054   7.006
 4478POPC   C4B57466  33.802  38.240   7.395
 4479POPC   NC357467  31.576   9.132   5.386
 4479POPC   PO457468  32.146   8.805   5.475
 4479POPC   GL157469  32.390   8.699   5.833
 4479POPC   GL257470  32.646   8.941   5.863
 4479POPC   C1A57471  32.343   8.777   6.256
 4479POPC   D2A57472  32.002   8.856   6.508
 4479POPC   C3A57473  32.224   8.796   6.869
 4479POPC   C4A57474  32.027   8.916   7.241
 4479POPC   C1B57475  32.530   9.294   6.153
 4479POPC   C2B57476  32.287   9.282   6.525
 4479POPC   C3B57477  32.263   9.300   6.952
 4479POPC   C4B57478  32.513   9.114   7.236
 4480POPC   NC357479  28.373  39.345   5.632
 4480POPC   PO457480  28.330  38.688   5.435
 4480POPC   GL157481  28.314  38.894   5.867
 4480POPC   GL257482  28.629  38.983   5.918
 4480POPC   C1A57483  28.360  39.179   6.286
 4480POPC   D2A57484  28.403  39.428   6.681
 4480POPC   C3A57485  28.189  39.228   7.022
 4480POPC   C4A57486  28.226  39.167   7.492
 4480POPC   C1B57487  28.680  38.789   6.326
 4480POPC   C2B57488  28.490  38.908   6.723
 4480POPC   C3B57489  28.516  38.882   7.177
 4480POPC   C4B57490  28.648  38.857   7.613
 4481POPC   NC357491  43.696  23.208   5.599
 4481POPC   PO457492  43.116  22.814   5.416
 4481POPC   GL157493  43.013  22.681   5.798
 4481POPC   GL257494  43.368  22.783   5.886
 4481POPC   C1A57495  43.026  22.602   6.214
 4481POPC   D2A57496  43.091  22.794   6.575
 4481POPC   C3A57497  42.804  22.910   6.870
 4481POPC   C4A57498  42.895  22.856   7.294
 4481POPC   C1B57499  43.449  23.044   6.230
 4481POPC   C2B57500  43.424  23.143   6.667
 4481POPC   C3B57501  43.360  22.946   7.088
 4481POPC   C4B57502  43.342  22.967   7.568
 4482POPC   NC357503   6.382  14.802   5.434
 4482POPC   PO457504   6.441  15.542   5.330
 4482POPC   GL157505   6.574  15.318   5.696
 4482POPC   GL257506   6.534  14.997   5.858
 4482POPC   C1A57507   6.640  15.445   6.128
 4482POPC   D2A57508   6.564  15.392   6.581
 4482POPC   C3A57509   6.712  15.575   7.006
 4482POPC   C4A57510   6.570  15.462   7.453
 4482POPC   C1B57511   6.330  15.009   6.227
 4482POPC   C2B57512   6.212  15.034   6.650
 4482POPC   C3B57513   6.468  15.098   7.019
 4482POPC   C4B57514   6.226  14.906   7.324
 4483POPC   NC357515  25.088  19.818   5.466
 4483POPC   PO457516  25.559  20.227   5.266
 4483POPC   GL157517  25.598  19.857   5.551
 4483POPC   GL257518  25.444  20.033   5.777
 4483POPC   C1A57519  25.471  19.559   5.937
 4483POPC   D2A57520  25.343  19.517   6.390
 4483POPC   C3A57521  25.300  19.637   6.823
 4483POPC   C4A57522  25.381  19.729   7.232
 4483POPC   C1B57523  25.390  20.053   6.208
 4483POPC   C2B57524  25.532  20.030   6.630
 4483POPC   C3B57525  25.472  20.194   7.042
 4483POPC   C4B57526  25.203  20.169   7.423
 4484POPC   NC357527  39.599  12.063   5.486
 4484POPC   PO457528  38.968  11.984   5.427
 4484POPC   GL157529  39.197  12.027   5.824
 4484POPC   GL257530  39.322  12.371   5.819
 4484POPC   C1A57531  39.331  12.114   6.273
 4484POPC   D2A57532  39.109  12.296   6.640
 4484POPC   C3A57533  39.029  11.993   6.989
 4484POPC   C4A57534  39.360  11.803   7.256
 4484POPC   C1B57535  39.659  12.512   6.118
 4484POPC   C2B57536  39.751  12.468   6.564
 4484POPC   C3B57537  39.554  12.221   6.907
 4484POPC   C4B57538  39.300  12.322   7.267
 4485POPC   NC357539  27.377  23.567   5.417
 4485POPC   PO457540  26.720  23.577   5.390
 4485POPC   GL157541  26.983  23.546   5.756
 4485POPC   GL257542  27.134  23.877   5.738
 4485POPC   C1A57543  26.895  23.427   6.189
 4485POPC   D2A57544  27.004  23.391   6.636
 4485POPC   C3A57545  26.725  23.643   6.875
 4485POPC   C4A57546  26.613  23.680   7.289
 4485POPC   C1B57547  27.224  23.816   6.178
 4485POPC   C2B57548  27.069  23.911   6.575
 4485POPC   C3B57549  27.193  23.776   6.970
 4485POPC   C4B57550  27.127  23.846   7.378
 4486POPC   NC357551  12.369   5.433   5.573
 4486POPC   PO457552  11.923   4.855   5.501
 4486POPC   GL157553  12.008   5.044   5.884
 4486POPC   GL257554  12.341   5.020   5.908
 4486POPC   C1A57555  11.888   5.195   6.306
 4486POPC   D2A57556  11.647   5.289   6.680
 4486POPC   C3A57557  11.925   5.277   7.021
 4486POPC   C4A57558  12.133   5.123   7.412
 4486POPC   C1B57559  12.288   4.825   6.299
 4486POPC   C2B57560  12.385   4.820   6.745
 4486POPC   C3B57561  12.461   4.749   7.177
 4486POPC   C4B57562  12.474   4.812   7.613
 4487POPC   NC357563  11.845  42.598   5.591
 4487POPC   PO457564  12.298  42.145   5.610
 4487POPC   GL157565  12.011  42.209   5.893
 4487POPC   GL257566  11.708  42.036   5.838
 4487POPC   C1A57567  11.950  42.400   6.264
 4487POPC   D2A57568  11.934  42.691   6.585
 4487POPC   C3A57569  11.854  42.544   7.001
 4487POPC   C4A57570  12.196  42.569   7.299
 4487POPC   C1B57571  11.876  41.885   6.255
 4487POPC   C2B57572  11.804  42.098   6.649
 4487POPC   C3B57573  11.965  42.027   7.046
 4487POPC   C4B57574  11.875  41.823   7.439
 4488POPC   NC357575  12.317  34.432   5.481
 4488POPC   PO457576  11.631  34.730   5.355
 4488POPC   GL157577  11.914  34.794   5.723
 4488POPC   GL257578  12.290  34.868   5.739
 4488POPC   C1A57579  11.979  34.566   6.121
 4488POPC   D2A57580  12.074  34.401   6.539
 4488POPC   C3A57581  11.930  34.700   6.869
 4488POPC   C4A57582  12.034  34.542   7.245
 4488POPC   C1B57583  12.456  34.866   6.148
 4488POPC   C2B57584  12.302  34.859   6.542
 4488POPC   C3B57585  12.438  34.728   6.964
 4488POPC   C4B57586  12.400  34.898   7.361
 4489POPC   NC357587   5.629  21.266   5.460
 4489POPC   PO457588   6.269  21.083   5.525
 4489POPC   GL157589   6.061  21.423   5.747
 4489POPC   GL257590   5.789  21.265   5.944
 4489POPC   C1A57591   6.030  21.660   6.150
 4489POPC   D2A57592   6.151  21.517   6.575
 4489POPC   C3A57593   5.806  21.345   6.820
 4489POPC   C4A57594   5.549  21.414   7.169
 4489POPC   C1B57595   6.160  21.132   6.194
 4489POPC   C2B57596   6.146  20.952   6.609
 4489POPC   C3B57597   6.233  21.123   6.965
 4489POPC   C4B57598   6.026  21.190   7.311
 4490POPC   NC357599   7.350  18.086   5.232
 4490POPC   PO457600   7.770  18.490   5.556
 4490POPC   GL157601   7.514  18.123   5.783
 4490POPC   GL257602   7.180  17.966   5.720
 4490POPC   C1A57603   7.473  18.100   6.250
 4490POPC   D2A57604   7.516  18.477   6.522
 4490POPC   C3A57605   7.624  18.492   6.954
 4490POPC   C4A57606   7.741  18.215   7.326
 4490POPC   C1B57607   7.113  18.361   6.008
 4490POPC   C2B57608   7.009  18.372   6.458
 4490POPC   C3B57609   7.170  18.248   6.866
 4490POPC   C4B57610   7.192  18.478   7.243
 4491POPC   NC357611  24.862  38.274   5.405
 4491POPC   PO457612  25.456  38.565   5.357
 4491POPC   GL157613  25.497  38.408   5.832
 4491POPC   GL257614  25.313  38.128   5.735
 4491POPC   C1A57615  25.427  38.468   6.363
 4491POPC   D2A57616  25.156  38.644   6.755
 4491POPC   C3A57617  25.331  38.675   7.223
 4491POPC   C4A57618  25.777  38.571   7.374
 4491POPC   C1B57619  25.406  37.987   6.188
 4491POPC   C2B57620  25.188  38.014   6.595
 4491POPC   C3B57621  25.219  38.213   7.007
 4491POPC   C4B57622  25.429  38.195   7.418
 4492POPC   NC357623  29.353  15.171   5.569
 4492POPC   PO457624  28.745  14.994   5.533
 4492POPC   GL157625  28.884  15.291   5.835
 4492POPC   GL257626  29.120  15.121   6.041
 4492POPC   C1A57627  28.743  15.394   6.249
 4492POPC   D2A57628  28.994  15.302   6.595
 4492POPC   C3A57629  28.898  15.399   7.015
 4492POPC   C4A57630  29.255  15.495   7.252
 4492POPC   C1B57631  29.273  14.868   6.401
 4492POPC   C2B57632  29.591  14.854   6.710
 4492POPC   C3B57633  29.296  15.050   6.941
 4492POPC   C4B57634  29.168  14.997   7.317
 4493POPC   NC357635  43.581  10.413   5.270
 4493POPC   PO457636  44.073  10.829   5.486
 4493POPC   GL157637  43.916  10.577   5.856
 4493POPC   GL257638  43.578  10.487   5.848
 4493POPC   C1A57639  43.930  10.437   6.281
 4493POPC   D2A57640  44.024  10.726   6.600
 4493POPC   C3A57641  44.142  10.685   7.028
 4493POPC   C4A57642  43.857  10.594   7.393
 4493POPC   C1B57643  43.459  10.186   6.196
 4493POPC   C2B57644  43.630  10.129   6.612
 4493POPC   C3B57645  43.713  10.395   6.941
 4493POPC   C4B57646  43.598  10.159   7.291
 4494POPC   NC357647  14.349  13.975   5.461
 4494POPC   PO457648  14.708  14.432   5.362
 4494POPC   GL157649  14.571  14.313   5.809
 4494POPC   GL257650  14.205  14.245   5.857
 4494POPC   C1A57651  14.519  14.331   6.297
 4494POPC   D2A57652  14.314  14.531   6.683
 4494POPC   C3A57653  14.511  14.448   7.085
 4494POPC   C4A57654  14.478  14.304   7.518
 4494POPC   C1B57655  14.077  14.078   6.254
 4494POPC   C2B57656  14.174  14.021   6.715
 4494POPC   C3B57657  14.056  14.206   7.134
 4494POPC   C4B57658  13.948  14.259   7.589
 4495POPC   NC357659  40.230  40.024   5.498
 4495POPC   PO457660  39.631  40.045   5.756
 4495POPC   GL157661  39.995  39.833   5.958
 4495POPC   GL257662  40.321  39.637   5.831
 4495POPC   C1A57663  39.983  39.975   6.379
 4495POPC   D2A57664  39.746  40.190   6.701
 4495POPC   C3A57665  39.869  40.055   7.098
 4495POPC   C4A57666  39.750  39.663   7.175
 4495POPC   C1B57667  40.430  39.722   6.262
 4495POPC   C2B57668  40.396  39.902   6.672
 4495POPC   C3B57669  40.302  39.715   7.054
 4495POPC   C4B57670  40.323  39.882   7.417
 4496POPC   NC357671  15.381   6.289   5.493
 4496POPC   PO457672  14.860   6.703   5.298
 4496POPC   GL157673  14.833   6.656   5.784
 4496POPC   GL257674  15.003   6.351   5.897
 4496POPC   C1A57675  14.997   6.831   6.186
 4496POPC   D2A57676  15.147   6.792   6.570
 4496POPC   C3A57677  14.917   6.757   6.911
 4496POPC   C4A57678  14.996   6.719   7.318
 4496POPC   C1B57679  15.089   6.329   6.351
 4496POPC   C2B57680  15.263   6.346   6.783
 4496POPC   C3B57681  15.343   6.318   7.239
 4496POPC   C4B57682  15.504   6.267   7.678
 4497POPC   NC357683  38.410  15.059   5.396
 4497POPC   PO457684  39.026  15.395   5.422
 4497POPC   GL157685  38.608  15.411   5.759
 4497POPC   GL257686  38.278  15.156   5.866
 4497POPC   C1A57687  38.569  15.285   6.222
 4497POPC   D2A57688  38.766  15.187   6.558
 4497POPC   C3A57689  38.624  15.031   6.936
 4497POPC   C4A57690  38.548  15.368   7.213
 4497POPC   C1B57691  38.148  15.558   6.090
 4497POPC   C2B57692  37.960  15.615   6.481
 4497POPC   C3B57693  37.999  15.577   6.912
 4497POPC   C4B57694  38.147  15.661   7.309
 4498POPC   NC357695  12.338  31.649   5.452
 4498POPC   PO457696  11.834  31.270   5.226
 4498POPC   GL157697  11.956  31.405   5.692
 4498POPC   GL257698  12.038  31.736   5.869
 4498POPC   C1A57699  12.025  31.304   6.152
 4498POPC   D2A57700  11.809  31.455   6.530
 4498POPC   C3A57701  11.843  31.272   6.943
 4498POPC   C4A57702  12.099  31.284   7.327
 4498POPC   C1B57703  12.154  31.770   6.310
 4498POPC   C2B57704  12.006  31.914   6.708
 4498POPC   C3B57705  12.181  31.763   7.102
 4498POPC   C4B57706  12.298  31.730   7.547
 4499POPC   NC357707  37.379  44.419   5.554
 4499POPC   PO457708  36.835  44.567   5.233
 4499POPC   GL157709  36.915  44.718   5.653
 4499POPC   GL257710  36.570  44.636   5.752
 4499POPC   C1A57711  36.948  44.738   6.120
 4499POPC   D2A57712  36.944  44.501   6.516
 4499POPC   C3A57713  36.827  44.748   6.869
 4499POPC   C4A57714  36.921  44.726   7.282
 4499POPC   C1B57715  36.541  44.393   6.136
 4499POPC   C2B57716  36.425  44.437   6.564
 4499POPC   C3B57717  36.601  44.287   6.933
 4499POPC   C4B57718  36.660  44.215   7.349
 4500POPC   NC357719   6.999  22.042   5.667
 4500POPC   PO457720   6.755  22.533   5.253
 4500POPC   GL157721   6.647  22.464   5.720
 4500POPC   GL257722   6.951  22.530   5.866
 4500POPC   C1A57723   6.559  22.180   6.137
 4500POPC   D2A57724   6.646  22.240   6.598
 4500POPC   C3A57725   6.817  22.015   6.958
 4500POPC   C4A57726   6.442  21.999   7.208
 4500POPC   C1B57727   6.722  22.647   6.250
 4500POPC   C2B57728   6.796  22.725   6.661
 4500POPC   C3B57729   6.763  22.520   7.057
 4500POPC   C4B57730   6.824  22.272   7.410
 4501POPC   NC357731  43.742  12.611   5.550
 4501POPC   PO457732  43.821  11.880   5.386
 4501POPC   GL157733  43.893  11.884   5.821
 4501POPC   GL257734  43.856  12.222   5.902
 4501POPC   C1A57735  43.659  11.886   6.216
 4501POPC   D2A57736  43.778  11.945   6.624
 4501POPC   C3A57737  43.616  12.100   6.994
 4501POPC   C4A57738  43.866  11.923   7.312
 4501POPC   C1B57739  43.911  12.366   6.343
 4501POPC   C2B57740  44.023  12.364   6.787
 4501POPC   C3B57741  44.202  12.284   7.184
 4501POPC   C4B57742  44.087  12.506   7.581
 4502POPC   NC357743  30.410   6.285   5.398
 4502POPC   PO457744  31.051   6.454   5.573
 4502POPC   GL157745  31.130   6.507   5.968
 4502POPC   GL257746  31.222   6.190   6.014
 4502POPC   C1A57747  30.886   6.610   6.328
 4502POPC   D2A57748  30.827   6.966   6.599
 4502POPC   C3A57749  30.536   6.842   6.900
 4502POPC   C4A57750  30.541   6.690   7.290
 4502POPC   C1B57751  31.099   6.037   6.408
 4502POPC   C2B57752  30.949   6.275   6.745
 4502POPC   C3B57753  30.991   6.568   7.078
 4502POPC   C4B57754  30.870   6.360   7.443
 4503POPC   NC357755  35.468   3.035   5.289
 4503POPC   PO457756  35.216   2.539   5.557
 4503POPC   GL157757  35.429   2.775   5.815
 4503POPC   GL257758  35.628   2.570   5.976
 4503POPC   C1A57759  35.203   2.791   6.216
 4503POPC   D2A57760  35.286   2.980   6.582
 4503POPC   C3A57761  35.352   2.657   6.843
 4503POPC   C4A57762  35.329   2.772   7.245
 4503POPC   C1B57763  35.660   3.013   6.209
 4503POPC   C2B57764  35.802   3.009   6.652
 4503POPC   C3B57765  35.796   2.849   7.064
 4503POPC   C4B57766  35.666   3.125   7.394
 4504POPC   NC357767  35.186  11.563   5.464
 4504POPC   PO457768  35.605  11.142   5.286
 4504POPC   GL157769  35.524  11.313   5.773
 4504POPC   GL257770  35.174  11.392   5.924
 4504POPC   C1A57771  35.561  11.361   6.252
 4504POPC   D2A57772  35.766  11.347   6.676
 4504POPC   C3A57773  35.542  11.506   7.043
 4504POPC   C4A57774  35.397  11.243   7.359
 4504POPC   C1B57775  35.025  11.352   6.308
 4504POPC   C2B57776  35.211  11.334   6.669
 4504POPC   C3B57777  35.002  11.288   7.025
 4504POPC   C4B57778  35.030  11.578   7.323
 4505POPC   NC357779  10.159  23.805   5.202
 4505POPC   PO457780   9.594  23.848   5.582
 4505POPC   GL157781   9.675  23.710   6.015
 4505POPC   GL257782   9.907  23.427   6.013
 4505POPC   C1A57783   9.977  23.872   6.330
 4505POPC   D2A57784  10.221  23.752   6.702
 4505POPC   C3A57785   9.996  23.721   7.086
 4505POPC   C4A57786   9.654  23.959   7.217
 4505POPC   C1B57787   9.870  23.395   6.440
 4505POPC   C2B57788   9.607  23.637   6.669
 4505POPC   C3B57789   9.476  23.511   7.042
 4505POPC   C4B57790   9.676  23.425   7.375
 4506POPC   NC357791  31.388  16.935   5.538
 4506POPC   PO457792  31.410  17.610   5.326
 4506POPC   GL157793  31.563  17.473   5.738
 4506POPC   GL257794  31.752  17.178   5.816
 4506POPC   C1A57795  31.787  17.658   6.099
 4506POPC   D2A57796  31.549  17.624   6.491
 4506POPC   C3A57797  31.716  17.572   6.916
 4506POPC   C4A57798  31.508  17.581   7.303
 4506POPC   C1B57799  31.738  17.184   6.254
 4506POPC   C2B57800  31.604  17.133   6.653
 4506POPC   C3B57801  31.435  17.129   7.016
 4506POPC   C4B57802  31.751  17.089   7.285
 4507POPC   NC357803  27.095  29.670   5.373
 4507POPC   PO457804  26.595  30.062   5.290
 4507POPC   GL157805  26.587  29.875   5.714
 4507POPC   GL257806  26.927  29.787   5.872
 4507POPC   C1A57807  26.444  29.857   6.133
 4507POPC   D2A57808  26.352  29.642   6.488
 4507POPC   C3A57809  26.402  29.865   6.849
 4507POPC   C4A57810  26.729  29.747   7.120
 4507POPC   C1B57811  26.818  29.527   6.246
 4507POPC   C2B57812  26.915  29.566   6.675
 4507POPC   C3B57813  27.146  29.467   7.057
 4507POPC   C4B57814  27.215  29.670   7.447
 4508POPC   NC357815  37.878   4.724   5.350
 4508POPC   PO457816  37.576   4.117   5.219
 4508POPC   GL157817  37.693   4.314   5.687
 4508POPC   GL257818  37.883   4.603   5.838
 4508POPC   C1A57819  37.931   4.184   6.120
 4508POPC   D2A57820  38.116   4.203   6.550
 4508POPC   C3A57821  37.905   4.159   6.925
 4508POPC   C4A57822  38.051   4.194   7.336
 4508POPC   C1B57823  37.684   4.630   6.229
 4508POPC   C2B57824  37.586   4.338   6.532
 4508POPC   C3B57825  37.383   4.200   6.884
 4508POPC   C4B57826  37.535   4.290   7.257
 4509POPC   NC357827  20.820   8.151   5.464
 4509POPC   PO457828  20.297   8.543   5.472
 4509POPC   GL157829  20.446   8.345   5.891
 4509POPC   GL257830  20.644   8.027   5.916
 4509POPC   C1A57831  20.791   8.394   6.247
 4509POPC   D2A57832  20.955   8.485   6.689
 4509POPC   C3A57833  20.742   8.268   7.017
 4509POPC   C4A57834  20.743   7.848   7.170
 4509POPC   C1B57835  20.489   7.980   6.346
 4509POPC   C2B57836  20.328   8.154   6.753
 4509POPC   C3B57837  20.264   8.051   7.207
 4509POPC   C4B57838  20.300   8.109   7.667
 4510POPC   NC357839   1.037  27.404   5.130
 4510POPC   PO457840   1.234  27.954   5.442
 4510POPC   GL157841   1.353  27.735   5.822
 4510POPC   GL257842   1.087  27.525   5.725
 4510POPC   C1A57843   1.369  27.541   6.262
 4510POPC   D2A57844   1.231  27.281   6.612
 4510POPC   C3A57845   1.477  27.370   6.967
 4510POPC   C4A57846   1.490  27.775   7.140
 4510POPC   C1B57847   0.897  27.478   6.127
 4510POPC   C2B57848   0.749  27.482   6.549
 4510POPC   C3B57849   0.904  27.474   6.975
 4510POPC   C4B57850   1.110  27.291   7.297
 4511POPC   NC357851  13.160   0.583   5.600
 4511POPC   PO457852  12.531   0.479   5.358
 4511POPC   GL157853  12.626   0.677   5.727
 4511POPC   GL257854  12.765   0.350   5.873
 4511POPC   C1A57855  12.726   0.761   6.162
 4511POPC   D2A57856  12.730   0.520   6.572
 4511POPC   C3A57857  12.794   0.561   7.015
 4511POPC   C4A57858  12.711   0.243   7.348
 4511POPC   C1B57859  13.100   0.100   6.126
 4511POPC   C2B57860  13.257   0.120   6.569
 4511POPC   C3B57861  13.133   0.181   6.991
 4511POPC   C4B57862  13.227   0.138   7.456
 4512POPC   NC357863  12.460  22.987   5.512
 4512POPC   PO457864  11.835  22.700   5.531
 4512POPC   GL157865  11.927  23.027   5.856
 4512POPC   GL257866  12.252  23.214   5.956
 4512POPC   C1A57867  11.839  23.050   6.304
 4512POPC   D2A57868  11.830  22.874   6.747
 4512POPC   C3A57869  12.101  23.101   7.036
 4512POPC   C4A57870  12.094  23.383   7.359
 4512POPC   C1B57871  12.325  22.794   6.156
 4512POPC   C2B57872  12.558  22.647   6.526
 4512POPC   C3B57873  12.331  22.668   6.899
 4512POPC   C4B57874  12.167  22.616   7.292
 4513POPC   NC357875   1.422  18.041   5.403
 4513POPC   PO457876   0.754  18.193   5.451
 4513POPC   GL157877   1.068  18.314   5.774
 4513POPC   GL257878   1.220  18.653   5.846
 4513POPC   C1A57879   1.333  18.134   6.114
 4513POPC   D2A57880   1.430  17.935   6.521
 4513POPC   C3A57881   1.564  18.087   6.925
 4513POPC   C4A57882   1.397  18.180   7.323
 4513POPC   C1B57883   1.094  18.559   6.272
 4513POPC   C2B57884   1.356  18.480   6.628
 4513POPC   C3B57885   1.176  18.529   7.016
 4513POPC   C4B57886   0.977  18.508   7.403
 4514POPC   NC357887  30.470   1.443   5.338
 4514POPC   PO457888  30.807   0.806   5.506
 4514POPC   GL157889  30.730   1.064   5.865
 4514POPC   GL257890  30.684   1.427   5.800
 4514POPC   C1A57891  30.648   1.108   6.299
 4514POPC   D2A57892  30.682   0.902   6.691
 4514POPC   C3A57893  30.684   1.175   7.055
 4514POPC   C4A57894  31.035   1.393   7.251
 4514POPC   C1B57895  30.602   1.625   6.202
 4514POPC   C2B57896  30.633   1.500   6.645
 4514POPC   C3B57897  30.673   1.707   7.027
 4514POPC   C4B57898  30.444   1.594   7.341
 4515POPC   NC357899  33.757  10.235   5.530
 4515POPC   PO457900  34.214  10.760   5.566
 4515POPC   GL157901  33.972  10.532   5.907
 4515POPC   GL257902  33.604  10.456   5.958
 4515POPC   C1A57903  33.950  10.447   6.351
 4515POPC   D2A57904  34.091  10.779   6.627
 4515POPC   C3A57905  34.100  10.578   7.023
 4515POPC   C4A57906  33.934  10.162   7.213
 4515POPC   C1B57907  33.686  10.846   6.206
 4515POPC   C2B57908  33.565  10.726   6.608
 4515POPC   C3B57909  33.597  10.541   6.994
 4515POPC   C4B57910  33.697  10.701   7.396
 4516POPC   NC357911  16.499  34.833   5.444
 4516POPC   PO457912  17.001  34.283   5.393
 4516POPC   GL157913  16.852  34.544   5.708
 4516POPC   GL257914  16.525  34.359   5.687
 4516POPC   C1A57915  16.934  34.834   6.085
 4516POPC   D2A57916  16.711  34.794   6.502
 4516POPC   C3A57917  16.621  34.508   6.864
 4516POPC   C4A57918  16.756  34.598   7.284
 4516POPC   C1B57919  16.518  34.537   6.103
 4516POPC   C2B57920  16.274  34.465   6.465
 4516POPC   C3B57921  16.104  34.384   6.861
 4516POPC   C4B57922  16.301  34.354   7.256
 4517POPC   NC357923   9.342  35.722   5.534
 4517POPC   PO457924   9.826  35.264   5.350
 4517POPC   GL157925   9.805  35.426   5.772
 4517POPC   GL257926  10.148  35.563   5.791
 4517POPC   C1A57927   9.545  35.517   6.161
 4517POPC   D2A57928   9.494  35.372   6.584
 4517POPC   C3A57929   9.503  35.177   7.001
 4517POPC   C4A57930   9.358  35.479   7.315
 4517POPC   C1B57931  10.003  35.750   6.201
 4517POPC   C2B57932   9.878  35.698   6.640
 4517POPC   C3B57933   9.855  35.533   7.060
 4517POPC   C4B57934  10.115  35.658   7.406
 4518POPC   NC357935  11.138  34.849   5.451
 4518POPC   PO457936  11.025  34.173   5.483
 4518POPC   GL157937  11.123  34.467   5.826
 4518POPC   GL257938  11.450  34.553   5.810
 4518POPC   C1A57939  11.240  34.483   6.274
 4518POPC   D2A57940  11.561  34.483   6.589
 4518POPC   C3A57941  11.407  34.416   7.009
 4518POPC   C4A57942  11.168  34.427   7.379
 4518POPC   C1B57943  11.528  34.896   6.061
 4518POPC   C2B57944  11.564  34.983   6.489
 4518POPC   C3B57945  11.597  35.098   6.927
 4518POPC   C4B57946  11.565  34.820   7.295
 4519POPC   NC357947   1.742  34.671   5.488
 4519POPC   PO457948   2.275  34.388   5.228
 4519POPC   GL157949   2.096  34.340   5.674
 4519POPC   GL257950   2.347  34.125   5.779
 4519POPC   C1A57951   1.854  34.525   6.093
 4519POPC   D2A57952   1.599  34.692   6.458
 4519POPC   C3A57953   1.649  34.486   6.845
 4519POPC   C4A57954   1.810  34.675   7.208
 4519POPC   C1B57955   2.338  34.408   6.147
 4519POPC   C2B57956   2.133  34.604   6.536
 4519POPC   C3B57957   2.257  34.577   6.979
 4519POPC   C4B57958   2.285  34.660   7.449
 4520POPC   NC357959   6.107  13.029   5.630
 4520POPC   PO457960   5.861  12.523   5.337
 4520POPC   GL157961   5.733  12.697   5.781
 4520POPC   GL257962   5.982  12.835   6.060
 4520POPC   C1A57963   5.558  12.627   6.191
 4520POPC   D2A57964   5.787  12.853   6.538
 4520POPC   C3A57965   5.813  12.726   6.940
 4520POPC   C4A57966   5.525  12.739   7.273
 4520POPC   C1B57967   6.152  13.155   6.342
 4520POPC   C2B57968   5.883  13.388   6.605
 4520POPC   C3B57969   5.751  13.256   6.995
 4520POPC   C4B57970   5.964  13.065   7.311
 4521POPC   NC357971  22.638   0.226   5.384
 4521POPC   PO457972  23.039   0.675   5.628
 4521POPC   GL157973  22.860   0.311   5.841
 4521POPC   GL257974  23.111   0.106   5.673
 4521POPC   C1A57975  22.867   0.211   6.294
 4521POPC   D2A57976  22.639   0.151   6.676
 4521POPC   C3A57977  22.865   0.391   6.953
 4521POPC   C4A57978  22.953   0.709   7.254
 4521POPC   C1B57979  23.336   0.249   6.091
 4521POPC   C2B57980  23.287   0.451   6.534
 4521POPC   C3B57981  23.385   0.311   6.971
 4521POPC   C4B57982  23.132   0.187   7.339
 4522POPC   NC357983  35.269  24.678   5.432
 4522POPC   PO457984  35.560  24.097   5.485
 4522POPC   GL157985  35.298  24.355   5.849
 4522POPC   GL257986  35.011  24.621   5.873
 4522POPC   C1A57987  35.354  24.572   6.261
 4522POPC   D2A57988  35.318  24.724   6.685
 4522POPC   C3A57989  35.599  24.746   7.032
 4522POPC   C4A57990  35.444  24.387   7.183
 4522POPC   C1B57991  34.849  24.479   6.269
 4522POPC   C2B57992  34.822  24.655   6.694
 4522POPC   C3B57993  34.973  24.580   7.135
 4522POPC   C4B57994  34.877  24.651   7.588
 4523POPC   NC357995  28.380  28.737   5.089
 4523POPC   PO457996  28.206  29.166   5.523
 4523POPC   GL157997  28.208  28.846   5.861
 4523POPC   GL257998  28.473  29.039   6.021
 4523POPC   C1A57999  28.315  28.648   6.288
 4523POPC   D2A58000  28.496  28.953   6.549
 4523POPC   C3A58001  28.205  29.161   6.789
 4523POPC   C4A58002  28.437  29.102   7.147
 4523POPC   C1B58003  28.277  29.371   6.296
 4523POPC   C2B58004  28.400  29.619   6.681
 4523POPC   C3B58005  28.508  29.632   7.140
 4523POPC   C4B58006  28.521  29.802   7.583
 4524POPC   NC358007  31.146  20.568   5.379
 4524POPC   PO458008  31.619  21.070   5.447
 4524POPC   GL158009  31.338  20.815   5.783
 4524POPC   GL258010  31.409  20.455   5.814
 4524POPC   C1A58011  31.183  20.668   6.204
 4524POPC   D2A58012  31.285  20.767   6.612
 4524POPC   C3A58013  31.172  20.579   6.992
 4524POPC   C4A58014  31.333  20.347   7.310
 4524POPC   C1B58015  31.709  20.640   6.141
 4524POPC   C2B58016  31.748  20.933   6.521
 4524POPC   C3B58017  31.669  20.699   6.940
 4524POPC   C4B58018  31.804  20.314   7.114
 4525POPC   NC358019  19.942  35.873   5.338
 4525POPC   PO458020  19.748  36.371   5.053
 4525POPC   GL158021  19.764  36.368   5.597
 4525POPC   GL258022  19.830  36.067   5.788
 4525POPC   C1A58023  19.519  36.332   6.068
 4525POPC   D2A58024  19.376  36.092   6.470
 4525POPC   C3A58025  19.425  36.310   6.879
 4525POPC   C4A58026  19.696  36.225   7.229
 4525POPC   C1B58027  19.793  35.918   6.233
 4525POPC   C2B58028  19.841  36.095   6.664
 4525POPC   C3B58029  19.932  35.833   6.996
 4525POPC   C4B58030  20.144  35.990   7.355
 4526POPC   NC358031  25.086  44.528   5.396
 4526POPC   PO458032  25.798  44.536   5.316
 4526POPC   GL158033  25.473  44.452   5.689
 4526POPC   GL258034  25.336  44.785   5.775
 4526POPC   C1A58035  25.268  44.397   6.135
 4526POPC   D2A58036  25.423  44.573   6.549
 4526POPC   C3A58037  25.343  44.420   6.979
 4526POPC   C4A58038  25.412  44.548   7.395
 4526POPC   C1B58039  25.300  44.965   6.191
 4526POPC   C2B58040  25.183   0.018   6.620
 4526POPC   C3B58041  25.425  44.940   6.994
 4526POPC   C4B58042  25.112  44.980   7.312
 4527POPC   NC358043  10.840  32.238   5.553
 4527POPC   PO458044  11.409  32.516   5.370
 4527POPC   GL158045  11.390  32.329   5.782
 4527POPC   GL258046  11.096  32.343   5.967
 4527POPC   C1A58047  11.538  32.461   6.204
 4527POPC   D2A58048  11.582  32.273   6.611
 4527POPC   C3A58049  11.509  32.496   6.996
 4527POPC   C4A58050  11.486  32.281   7.393
 4527POPC   C1B58051  11.167  32.098   6.298
 4527POPC   C2B58052  11.034  32.079   6.711
 4527POPC   C3B58053  11.065  32.226   7.101
 4527POPC   C4B58054  11.082  32.577   7.340
 4528POPC   NC358055  42.633  14.430   5.433
 4528POPC   PO458056  41.935  14.395   5.419
 4528POPC   GL158057  42.253  14.381   5.804
 4528POPC   GL258058  42.625  14.264   5.903
 4528POPC   C1A58059  42.325  14.634   6.198
 4528POPC   D2A58060  42.263  14.797   6.620
 4528POPC   C3A58061  42.113  14.558   6.987
 4528POPC   C4A58062  42.206  14.129   7.158
 4528POPC   C1B58063  42.411  14.140   6.266
 4528POPC   C2B58064  42.421  14.282   6.673
 4528POPC   C3B58065  42.625  13.977   6.896
 4528POPC   C4B58066  42.616  13.838   7.273
 4529POPC   NC358067  11.651   6.128   5.589
 4529POPC   PO458068  12.341   5.901   5.590
 4529POPC   GL158069  12.077   5.848   5.918
 4529POPC   GL258070  11.934   5.546   5.927
 4529POPC   C1A58071  12.103   5.859   6.347
 4529POPC   D2A58072  12.281   6.070   6.649
 4529POPC   C3A58073  12.267   5.788   6.978
 4529POPC   C4A58074  11.970   5.719   7.284
 4529POPC   C1B58075  12.329   5.432   6.208
 4529POPC   C2B58076  12.319   5.309   6.623
 4529POPC   C3B58077  12.435   5.291   7.043
 4529POPC   C4B58078  12.455   5.569   7.400
 4530POPC   NC358079   7.767  15.356   5.394
 4530POPC   PO458080   8.401  15.386   5.268
 4530POPC   GL158081   8.380  15.215   5.721
 4530POPC   GL258082   8.067  15.045   5.845
 4530POPC   C1A58083   8.322  15.428   6.147
 4530POPC   D2A58084   8.485  15.309   6.570
 4530POPC   C3A58085   8.388  15.399   6.990
 4530POPC   C4A58086   8.041  15.304   7.215
 4530POPC   C1B58087   7.904  15.180   6.284
 4530POPC   C2B58088   8.003  15.110   6.728
 4530POPC   C3B58089   7.887  14.839   7.100
 4530POPC   C4B58090   7.991  14.922   7.550
 4531POPC   NC358091  21.088  41.387   5.462
 4531POPC   PO458092  20.499  41.531   5.326
 4531POPC   GL158093  20.539  41.436   5.768
 4531POPC   GL258094  20.833  41.621   5.859
 4531POPC   C1A58095  20.529  41.451   6.248
 4531POPC   D2A58096  20.391  41.447   6.699
 4531POPC   C3A58097  20.687  41.266   6.994
 4531POPC   C4A58098  20.478  41.207   7.373
 4531POPC   C1B58099  20.926  41.777   6.292
 4531POPC   C2B58100  20.780  41.788   6.736
 4531POPC   C3B58101  20.964  41.862   7.182
 4531POPC   C4B58102  20.901  41.909   7.659
 4532POPC   NC358103  41.016  23.077   5.533
 4532POPC   PO458104  40.506  22.670   5.534
 4532POPC   GL158105  40.842  22.711   5.836
 4532POPC   GL258106  40.670  23.045   5.894
 4532POPC   C1A58107  41.044  22.885   6.226
 4532POPC   D2A58108  41.218  23.146   6.579
 4532POPC   C3A58109  40.997  23.052   6.964
 4532POPC   C4A58110  40.963  22.644   7.156
 4532POPC   C1B58111  40.660  23.217   6.263
 4532POPC   C2B58112  40.489  23.062   6.623
 4532POPC   C3B58113  40.502  22.883   7.034
 4532POPC   C4B58114  40.710  23.024   7.401
 4533POPC   NC358115   3.828  41.464   5.487
 4533POPC   PO458116   3.096  41.648   5.417
 4533POPC   GL158117   3.247  41.589   5.866
 4533POPC   GL258118   3.604  41.441   5.971
 4533POPC   C1A58119   3.303  41.695   6.303
 4533POPC   D2A58120   3.088  41.594   6.681
 4533POPC   C3A58121   3.236  41.517   7.125
 4533POPC   C4A58122   3.306  41.335   7.558
 4533POPC   C1B58123   3.872  41.129   6.256
 4533POPC   C2B58124   3.964  41.272   6.711
 4533POPC   C3B58125   3.753  41.500   7.057
 4533POPC   C4B58126   3.591  41.935   7.047
 4534POPC   NC358127  20.370  15.821   5.140
 4534POPC   PO458128  20.675  16.307   5.486
 4534POPC   GL158129  20.670  16.016   5.815
 4534POPC   GL258130  20.343  15.983   5.983
 4534POPC   C1A58131  20.800  16.037   6.243
 4534POPC   D2A58132  20.764  15.843   6.647
 4534POPC   C3A58133  20.720  16.072   7.026
 4534POPC   C4A58134  20.793  16.020   7.450
 4534POPC   C1B58135  20.204  15.915   6.413
 4534POPC   C2B58136  20.265  15.938   6.848
 4534POPC   C3B58137  20.319  15.875   7.300
 4534POPC   C4B58138  20.482  15.634   7.672
 4535POPC   NC358139  27.205  34.815   5.250
 4535POPC   PO458140  27.699  34.383   5.397
 4535POPC   GL158141  27.672  34.655   5.761
 4535POPC   GL258142  27.317  34.697   5.770
 4535POPC   C1A58143  27.764  34.622   6.224
 4535POPC   D2A58144  27.584  34.377   6.600
 4535POPC   C3A58145  27.763  34.525   6.997
 4535POPC   C4A58146  27.751  34.948   7.198
 4535POPC   C1B58147  27.242  34.616   6.227
 4535POPC   C2B58148  27.418  34.847   6.564
 4535POPC   C3B58149  27.325  34.757   6.956
 4535POPC   C4B58150  27.247  34.338   7.091
 4536POPC   NC358151  11.742   4.416   5.524
 4536POPC   PO458152  11.288   3.956   5.405
 4536POPC   GL158153  11.102   4.064   5.794
 4536POPC   GL258154  11.195   4.430   5.805
 4536POPC   C1A58155  11.046   4.008   6.245
 4536POPC   D2A58156  11.128   4.360   6.507
 4536POPC   C3A58157  11.261   4.212   6.887
 4536POPC   C4A58158  11.098   4.160   7.249
 4536POPC   C1B58159  11.482   4.264   6.126
 4536POPC   C2B58160  11.638   4.307   6.541
 4536POPC   C3B58161  11.767   4.263   6.955
 4536POPC   C4B58162  11.540   4.485   7.255
 4537POPC   NC358163  36.306  33.227   5.469
 4537POPC   PO458164  35.593  33.195   5.330
 4537POPC   GL158165  35.872  33.206   5.750
 4537POPC   GL258166  36.177  32.945   5.849
 4537POPC   C1A58167  35.882  33.129   6.216
 4537POPC   D2A58168  35.800  33.246   6.629
 4537POPC   C3A58169  35.894  33.077   7.029
 4537POPC   C4A58170  35.687  33.256   7.373
 4537POPC   C1B58171  36.393  33.245   6.131
 4537POPC   C2B58172  36.472  33.306   6.562
 4537POPC   C3B58173  36.523  33.427   6.988
 4537POPC   C4B58174  36.380  33.090   7.280
 4538POPC   NC358175   4.482   3.944   5.387
 4538POPC   PO458176   4.621   4.609   5.632
 4538POPC   GL158177   4.391   4.296   5.851
 4538POPC   GL258178   4.594   3.988   5.890
 4538POPC   C1A58179   4.311   4.473   6.266
 4538POPC   D2A58180   4.485   4.633   6.632
 4538POPC   C3A58181   4.301   4.483   7.008
 4538POPC   C4A58182   4.029   4.391   7.320
 4538POPC   C1B58183   4.623   4.070   6.358
 4538POPC   C2B58184   4.636   4.145   6.812
 4538POPC   C3B58185   4.420   4.026   7.208
 4538POPC   C4B58186   4.592   3.922   7.620
 4539POPC   NC358187  34.860  43.899   5.723
 4539POPC   PO458188  35.454  43.756   5.403
 4539POPC   GL158189  35.519  43.914   5.809
 4539POPC   GL258190  35.270  43.798   5.973
 4539POPC   C1A58191  35.623  43.978   6.263
 4539POPC   D2A58192  35.315  43.964   6.631
 4539POPC   C3A58193  35.468  44.110   7.016
 4539POPC   C4A58194  35.477  44.452   7.306
 4539POPC   C1B58195  35.247  43.555   6.334
 4539POPC   C2B58196  34.969  43.524   6.669
 4539POPC   C3B58197  34.914  43.833   6.973
 4539POPC   C4B58198  35.117  43.915   7.338
 4540POPC   NC358199   6.749  14.103   5.320
 4540POPC   PO458200   6.865  14.753   5.512
 4540POPC   GL158201   6.640  14.456   5.757
 4540POPC   GL258202   6.639  14.073   5.805
 4540POPC   C1A58203   6.505  14.486   6.167
 4540POPC   D2A58204   6.572  14.684   6.550
 4540POPC   C3A58205   6.429  14.578   6.942
 4540POPC   C4A58206   6.674  14.684   7.293
 4540POPC   C1B58207   6.545  13.977   6.214
 4540POPC   C2B58208   6.429  14.192   6.581
 4540POPC   C3B58209   6.617  14.098   6.935
 4540POPC   C4B58210   6.613  14.175   7.331
 4541POPC   NC358211  19.982  38.707   5.300
 4541POPC   PO458212  19.577  38.198   5.162
 4541POPC   GL158213  19.630  38.212   5.646
 4541POPC   GL258214  19.965  38.379   5.735
 4541POPC   C1A58215  19.670  38.163   6.125
 4541POPC   D2A58216  19.900  38.113   6.535
 4541POPC   C3A58217  19.822  38.439   6.865
 4541POPC   C4A58218  19.635  38.685   7.238
 4541POPC   C1B58219  20.167  38.556   6.120
 4541POPC   C2B58220  20.330  38.494   6.534
 4541POPC   C3B58221  20.291  38.647   6.953
 4541POPC   C4B58222  20.127  38.474   7.301
 4542POPC   NC358223   1.525   9.349   5.311
 4542POPC   PO458224   0.889   8.996   5.476
 4542POPC   GL158225   1.170   9.219   5.729
 4542POPC   GL258226   1.426   8.954   5.760
 4542POPC   C1A58227   1.306   9.241   6.177
 4542POPC   D2A58228   1.370   8.995   6.577
 4542POPC   C3A58229   1.077   9.075   6.937
 4542POPC   C4A58230   1.176   9.116   7.376
 4542POPC   C1B58231   1.282   8.692   6.143
 4542POPC   C2B58232   1.375   8.466   6.558
 4542POPC   C3B58233   1.285   8.593   7.000
 4542POPC   C4B58234   1.385   8.671   7.443
 4543POPC   NC358235  21.247   6.307   5.495
 4543POPC   PO458236  21.489   6.966   5.302
 4543POPC   GL158237  21.297   6.776   5.757
 4543POPC   GL258238  21.546   6.510   5.866
 4543POPC   C1A58239  21.397   6.816   6.274
 4543POPC   D2A58240  21.533   7.027   6.681
 4543POPC   C3A58241  21.527   6.779   7.063
 4543POPC   C4A58242  21.149   6.710   7.262
 4543POPC   C1B58243  21.342   6.291   6.237
 4543POPC   C2B58244  21.304   6.149   6.689
 4543POPC   C3B58245  21.339   6.257   7.147
 4543POPC   C4B58246  21.546   6.462   7.513
 4544POPC   NC358247  39.357   4.473   5.471
 4544POPC   PO458248  39.007   3.851   5.522
 4544POPC   GL158249  39.100   4.157   5.854
 4544POPC   GL258250  39.471   4.183   5.908
 4544POPC   C1A58251  39.055   4.360   6.276
 4544POPC   D2A58252  39.122   4.548   6.709
 4544POPC   C3A58253  38.870   4.516   7.105
 4544POPC   C4A58254  38.928   4.574   7.576
 4544POPC   C1B58255  39.534   4.589   6.140
 4544POPC   C2B58256  39.609   4.717   6.582
 4544POPC   C3B58257  39.582   4.476   6.992
 4544POPC   C4B58258  39.682   4.109   7.273
 4545POPC   NC358259   1.460  41.009   4.961
 4545POPC   PO458260   1.222  40.759   5.482
 4545POPC   GL158261   1.148  40.736   5.907
 4545POPC   GL258262   0.934  40.461   5.975
 4545POPC   C1A58263   1.141  41.004   6.271
 4545POPC   D2A58264   0.872  41.105   6.636
 4545POPC   C3A58265   1.038  40.880   7.017
 4545POPC   C4A58266   1.471  40.687   7.179
 4545POPC   C1B58267   1.197  40.395   6.284
 4545POPC   C2B58268   1.285  40.601   6.647
 4545POPC   C3B58269   1.140  40.372   6.972
 4545POPC   C4B58270   0.984  40.408   7.328
 4546POPC   NC358271   4.063  32.459   5.360
 4546POPC   PO458272   4.502  33.055   5.474
 4546POPC   GL158273   4.163  33.097   5.793
 4546POPC   GL258274   4.026  32.782   5.863
 4546POPC   C1A58275   4.081  33.136   6.243
 4546POPC   D2A58276   4.337  32.906   6.559
 4546POPC   C3A58277   4.493  33.136   6.932
 4546POPC   C4A58278   4.297  33.322   7.286
 4546POPC   C1B58279   4.030  32.552   6.270
 4546POPC   C2B58280   3.982  32.551   6.716
 4546POPC   C3B58281   4.056  32.863   6.994
 4546POPC   C4B58282   4.263  32.827   7.344
 4547POPC   NC358283  26.885  36.847   5.088
 4547POPC   PO458284  26.928  36.566   5.701
 4547POPC   GL158285  26.941  36.777   6.066
 4547POPC   GL258286  26.631  36.873   6.037
 4547POPC   C1A58287  26.867  36.652   6.484
 4547POPC   D2A58288  26.570  36.424   6.759
 4547POPC   C3A58289  26.597  36.596   7.161
 4547POPC   C4A58290  26.940  36.784   7.379
 4547POPC   C1B58291  26.470  37.103   6.379
 4547POPC   C2B58292  26.547  36.975   6.779
 4547POPC   C3B58293  26.557  37.096   7.199
 4547POPC   C4B58294  26.410  36.932   7.584
 4548POPC   NC358295  37.725  17.799   5.507
 4548POPC   PO458296  37.797  17.139   5.423
 4548POPC   GL158297  37.736  17.310   5.830
 4548POPC   GL258298  37.961  17.593   5.901
 4548POPC   C1A58299  37.899  17.270   6.280
 4548POPC   D2A58300  37.977  17.278   6.706
 4548POPC   C3A58301  37.650  17.351   6.985
 4548POPC   C4A58302  37.852  17.310   7.369
 4548POPC   C1B58303  37.591  17.673   6.167
 4548POPC   C2B58304  37.671  17.678   6.579
 4548POPC   C3B58305  37.510  17.868   6.926
 4548POPC   C4B58306  37.526  17.712   7.326
 4549POPC   NC358307  22.399  32.150   5.477
 4549POPC   PO458308  21.745  32.050   5.347
 4549POPC   GL158309  21.961  32.166   5.761
 4549POPC   GL258310  21.884  32.488   5.892
 4549POPC   C1A58311  21.879  32.131   6.234
 4549POPC   D2A58312  21.796  31.885   6.592
 4549POPC   C3A58313  22.065  32.050   6.903
 4549POPC   C4A58314  22.277  32.153   7.274
 4549POPC   C1B58315  22.268  32.415   6.105
 4549POPC   C2B58316  22.304  32.517   6.547
 4549POPC   C3B58317  22.167  32.560   6.974
 4549POPC   C4B58318  21.821  32.407   7.233
 4550POPC   NC358319  11.013  14.033   5.717
 4550POPC   PO458320  11.230  14.677   5.488
 4550POPC   GL158321  11.094  14.528   5.840
 4550POPC   GL258322  11.360  14.339   5.912
 4550POPC   C1A58323  11.104  14.630   6.256
 4550POPC   D2A58324  11.177  14.370   6.610
 4550POPC   C3A58325  10.992  14.189   6.951
 4550POPC   C4A58326  11.112  14.312   7.367
 4550POPC   C1B58327  11.595  14.397   6.274
 4550POPC   C2B58328  11.663  14.288   6.687
 4550POPC   C3B58329  11.569  14.386   7.094
 4550POPC   C4B58330  11.613  14.144   7.469
 4551POPC   NC358331  29.114   3.157   5.311
 4551POPC   PO458332  28.743   2.600   5.188
 4551POPC   GL158333  28.912   2.784   5.631
 4551POPC   GL258334  29.280   2.856   5.752
 4551POPC   C1A58335  28.924   2.733   6.108
 4551POPC   D2A58336  28.987   2.480   6.493
 4551POPC   C3A58337  28.987   2.606   6.932
 4551POPC   C4A58338  28.727   2.962   7.122
 4551POPC   C1B58339  29.429   2.678   6.192
 4551POPC   C2B58340  29.450   2.662   6.661
 4551POPC   C3B58341  29.477   2.580   7.118
 4551POPC   C4B58342  29.613   2.593   7.581
 4552POPC   NC358343   1.129   8.586   5.493
 4552POPC   PO458344   1.111   7.938   5.464
 4552POPC   GL158345   1.217   8.154   5.821
 4552POPC   GL258346   1.566   8.084   5.789
 4552POPC   C1A58347   1.046   8.236   6.235
 4552POPC   D2A58348   0.806   8.176   6.612
 4552POPC   C3A58349   1.010   8.154   7.028
 4552POPC   C4A58350   0.887   8.456   7.328
 4552POPC   C1B58351   1.419   7.878   6.203
 4552POPC   C2B58352   1.284   7.951   6.621
 4552POPC   C3B58353   1.376   7.780   7.008
 4552POPC   C4B58354   1.302   7.867   7.419
 4553POPC   NC358355  38.703  21.378   5.393
 4553POPC   PO458356  38.031  21.414   5.375
 4553POPC   GL158357  38.219  21.439   5.813
 4553POPC   GL258358  38.588  21.454   5.882
 4553POPC   C1A58359  38.280  21.705   6.188
 4553POPC   D2A58360  38.530  21.628   6.563
 4553POPC   C3A58361  38.303  21.638   6.936
 4553POPC   C4A58362  38.203  21.422   7.286
 4553POPC   C1B58363  38.685  21.155   6.224
 4553POPC   C2B58364  38.612  21.114   6.667
 4553POPC   C3B58365  38.701  21.304   7.061
 4553POPC   C4B58366  38.626  21.295   7.529
 4554POPC   NC358367   3.152  42.750   5.116
 4554POPC   PO458368   2.574  42.862   5.569
 4554POPC   GL158369   2.797  43.058   5.892
 4554POPC   GL258370   3.061  43.279   5.739
 4554POPC   C1A58371   2.879  42.940   6.300
 4554POPC   D2A58372   2.639  42.817   6.657
 4554POPC   C3A58373   2.621  43.078   6.999
 4554POPC   C4A58374   2.816  43.024   7.359
 4554POPC   C1B58375   3.037  43.429   6.187
 4554POPC   C2B58376   2.864  43.337   6.614
 4554POPC   C3B58377   3.075  43.299   6.986
 4554POPC   C4B58378   3.145  43.381   7.385
 4555POPC   NC358379   3.525  27.208   5.129
 4555POPC   PO458380   3.338  27.836   5.308
 4555POPC   GL158381   3.593  27.726   5.679
 4555POPC   GL258382   3.308  27.603   5.845
 4555POPC   C1A58383   3.733  27.573   6.116
 4555POPC   D2A58384   3.484  27.661   6.477
 4555POPC   C3A58385   3.670  27.655   6.864
 4555POPC   C4A58386   3.584  27.476   7.244
 4555POPC   C1B58387   3.143  27.894   6.128
 4555POPC   C2B58388   3.291  28.126   6.503
 4555POPC   C3B58389   3.244  27.949   6.888
 4555POPC   C4B58390   3.152  27.704   7.268
 4556POPC   NC358391  11.489   5.166   5.503
 4556POPC   PO458392  10.972   4.767   5.446
 4556POPC   GL158393  11.127   4.952   5.904
 4556POPC   GL258394  11.485   5.109   6.002
 4556POPC   C1A58395  11.239   4.873   6.381
 4556POPC   D2A58396  11.357   4.713   6.806
 4556POPC   C3A58397  11.473   5.008   7.110
 4556POPC   C4A58398  11.228   5.166   7.481
 4556POPC   C1B58399  11.356   5.468   6.277
 4556POPC   C2B58400  11.260   5.628   6.721
 4556POPC   C3B58401  11.446   5.533   7.125
 4556POPC   C4B58402  11.674   5.360   7.461
 4557POPC   NC358403  43.210  26.053   5.519
 4557POPC   PO458404  42.797  25.581   5.311
 4557POPC   GL158405  42.811  25.839   5.746
 4557POPC   GL258406  42.793  26.210   5.837
 4557POPC   C1A58407  43.036  25.872   6.165
 4557POPC   D2A58408  42.877  25.946   6.587
 4557POPC   C3A58409  42.962  25.727   6.957
 4557POPC   C4A58410  43.122  25.851   7.347
 4557POPC   C1B58411  42.960  26.366   6.235
 4557POPC   C2B58412  43.272  26.241   6.571
 4557POPC   C3B58413  43.158  26.248   7.029
 4557POPC   C4B58414  43.159  26.338   7.503
 4558POPC   NC358415  36.410   5.648   5.697
 4558POPC   PO458416  36.523   6.289   5.547
 4558POPC   GL158417  36.817   5.963   5.809
 4558POPC   GL258418  37.057   5.646   5.753
 4558POPC   C1A58419  36.878   5.814   6.252
 4558POPC   D2A58420  37.035   6.074   6.611
 4558POPC   C3A58421  36.920   6.042   7.040
 4558POPC   C4A58422  36.835   5.636   7.212
 4558POPC   C1B58423  37.337   5.623   6.136
 4558POPC   C2B58424  37.460   5.767   6.550
 4558POPC   C3B58425  37.275   5.692   6.921
 4558POPC   C4B58426  37.349   5.831   7.311
 4559POPC   NC358427  43.875  27.314   5.473
 4559POPC   PO458428  43.702  27.928   5.466
 4559POPC   GL158429  43.774  27.661   5.866
 4559POPC   GL258430  43.663  27.332   5.967
 4559POPC   C1A58431  43.829  27.673   6.329
 4559POPC   D2A58432  43.713  28.054   6.599
 4559POPC   C3A58433  43.660  27.967   7.032
 4559POPC   C4A58434  43.962  27.988   7.307
 4559POPC   C1B58435  43.726  27.063   6.310
 4559POPC   C2B58436  43.852  27.244   6.681
 4559POPC   C3B58437  43.998  27.595   6.869
 4559POPC   C4B58438  43.769  27.478   7.192
 4560POPC   NC358439   3.912   8.109   5.595
 4560POPC   PO458440   3.296   7.996   5.357
 4560POPC   GL158441   3.447   7.947   5.762
 4560POPC   GL258442   3.544   8.283   5.917
 4560POPC   C1A58443   3.246   7.861   6.135
 4560POPC   D2A58444   3.181   8.091   6.500
 4560POPC   C3A58445   3.220   7.919   6.880
 4560POPC   C4A58446   3.402   8.037   7.208
 4560POPC   C1B58447   3.690   8.187   6.347
 4560POPC   C2B58448   3.735   8.107   6.804
 4560POPC   C3B58449   3.859   8.278   7.201
 4560POPC   C4B58450   3.979   8.539   7.566
 4561POPC   NC358451  30.571  12.396   5.808
 4561POPC   PO458452  30.986  12.778   5.461
 4561POPC   GL158453  30.770  12.943   5.831
 4561POPC   GL258454  30.434  13.064   5.882
 4561POPC   C1A58455  30.707  12.879   6.265
 4561POPC   D2A58456  30.889  12.943   6.659
 4561POPC   C3A58457  30.795  12.601   6.880
 4561POPC   C4A58458  30.645  12.525   7.274
 4561POPC   C1B58459  30.362  13.268   6.258
 4561POPC   C2B58460  30.429  13.154   6.697
 4561POPC   C3B58461  30.544  13.016   7.123
 4561POPC   C4B58462  30.259  12.820   7.421
 4562POPC   NC358463  41.101   7.082   5.630
 4562POPC   PO458464  41.443   6.606   5.343
 4562POPC   GL158465  41.429   6.529   5.796
 4562POPC   GL258466  41.623   6.840   5.794
 4562POPC   C1A58467  41.345   6.399   6.253
 4562POPC   D2A58468  41.158   6.398   6.704
 4562POPC   C3A58469  41.337   6.153   7.092
 4562POPC   C4A58470  41.312   6.332   7.527
 4562POPC   C1B58471  41.691   6.779   6.222
 4562POPC   C2B58472  41.604   6.677   6.629
 4562POPC   C3B58473  41.617   6.566   7.047
 4562POPC   C4B58474  41.585   6.833   7.389
 4563POPC   NC358475  43.448  29.339   5.343
 4563POPC   PO458476  42.726  29.101   5.161
 4563POPC   GL158477  42.851  29.193   5.653
 4563POPC   GL258478  43.227  29.175   5.809
 4563POPC   C1A58479  42.804  29.069   6.120
 4563POPC   D2A58480  42.801  29.252   6.542
 4563POPC   C3A58481  42.785  29.022   6.923
 4563POPC   C4A58482  42.919  29.253   7.271
 4563POPC   C1B58483  43.265  29.283   6.294
 4563POPC   C2B58484  43.272  29.243   6.788
 4563POPC   C3B58485  43.379  29.421   7.209
 4563POPC   C4B58486  43.504  29.471   7.652
 4564POPC   NC358487  38.987  33.585   5.337
 4564POPC   PO458488  39.634  33.740   5.393
 4564POPC   GL158489  39.340  33.750   5.751
 4564POPC   GL258490  39.020  33.609   5.825
 4564POPC   C1A58491  39.260  33.911   6.166
 4564POPC   D2A58492  39.541  33.979   6.492
 4564POPC   C3A58493  39.409  33.996   6.910
 4564POPC   C4A58494  39.500  34.099   7.334
 4564POPC   C1B58495  39.181  33.406   6.165
 4564POPC   C2B58496  39.224  33.564   6.569
 4564POPC   C3B58497  39.306  33.443   6.962
 4564POPC   C4B58498  39.048  33.421   7.306
 4565POPC   NC358499  36.693  32.367   5.388
 4565POPC   PO458500  37.419  32.336   5.396
 4565POPC   GL158501  37.094  32.231   5.701
 4565POPC   GL258502  36.990  32.568   5.801
 4565POPC   C1A58503  36.848  32.163   6.094
 4565POPC   D2A58504  36.682  32.357   6.472
 4565POPC   C3A58505  36.766  32.269   6.915
 4565POPC   C4A58506  36.863  31.963   7.258
 4565POPC   C1B58507  37.216  32.657   6.211
 4565POPC   C2B58508  37.124  32.595   6.645
 4565POPC   C3B58509  37.107  32.618   7.072
 4565POPC   C4B58510  37.206  32.374   7.388
 4566POPC   NC358511   4.180  18.457   5.568
 4566POPC   PO458512   4.050  17.821   5.480
 4566POPC   GL158513   4.315  18.029   5.848
 4566POPC   GL258514   4.412  18.381   6.006
 4566POPC   C1A58515   4.549  17.955   6.251
 4566POPC   D2A58516   4.454  17.837   6.672
 4566POPC   C3A58517   4.380  18.183   6.935
 4566POPC   C4A58518   4.642  18.305   7.245
 4566POPC   C1B58519   4.113  18.569   6.315
 4566POPC   C2B58520   4.181  18.673   6.745
 4566POPC   C3B58521   3.998  18.506   7.101
 4566POPC   C4B58522   4.168  18.245   7.421
 4567POPC   NC358523  30.224  28.287   5.430
 4567POPC   PO458524  29.590  28.281   5.594
 4567POPC   GL158525  29.737  28.249   5.986
 4567POPC   GL258526  30.091  28.315   5.920
 4567POPC   C1A58527  29.679  28.021   6.382
 4567POPC   D2A58528  29.557  28.051   6.814
 4567POPC   C3A58529  29.694  28.251   7.190
 4567POPC   C4A58530  29.561  28.640   7.375
 4567POPC   C1B58531  30.162  28.156   6.317
 4567POPC   C2B58532  30.041  28.228   6.744
 4567POPC   C3B58533  30.175  28.389   7.120
 4567POPC   C4B58534  30.320  28.111   7.408
 4568POPC   NC358535  29.589   2.167   5.558
 4568POPC   PO458536  30.113   1.787   5.401
 4568POPC   GL158537  29.871   1.780   5.769
 4568POPC   GL258538  30.019   2.111   5.811
 4568POPC   C1A58539  29.927   1.826   6.228
 4568POPC   D2A58540  30.245   1.813   6.554
 4568POPC   C3A58541  30.157   1.625   6.925
 4568POPC   C4A58542  29.780   1.633   7.119
 4568POPC   C1B58543  29.781   2.302   6.136
 4568POPC   C2B58544  29.750   2.229   6.526
 4568POPC   C3B58545  29.854   2.065   6.868
 4568POPC   C4B58546  29.844   2.248   7.257
 4569POPC   NC358547  34.286  24.460   5.436
 4569POPC   PO458548  34.969  24.320   5.449
 4569POPC   GL158549  34.676  24.241   5.803
 4569POPC   GL258550  34.467  24.456   5.904
 4569POPC   C1A58551  34.494  24.088   6.225
 4569POPC   D2A58552  34.672  24.155   6.629
 4569POPC   C3A58553  34.536  24.338   6.983
 4569POPC   C4A58554  34.594  24.285   7.406
 4569POPC   C1B58555  34.248  24.560   6.240
 4569POPC   C2B58556  34.323  24.695   6.631
 4569POPC   C3B58557  34.163  24.701   7.026
 4569POPC   C4B58558  34.296  24.702   7.443
 4570POPC   NC358559   4.286  19.200   5.154
 4570POPC   PO458560   4.554  18.729   5.598
 4570POPC   GL158561   4.398  18.888   5.952
 4570POPC   GL258562   4.062  18.836   5.891
 4570POPC   C1A58563   4.441  18.952   6.361
 4570POPC   D2A58564   4.664  19.170   6.650
 4570POPC   C3A58565   4.448  19.135   7.022
 4570POPC   C4A58566   4.377  18.784   7.244
 4570POPC   C1B58567   3.995  19.153   6.238
 4570POPC   C2B58568   4.104  19.170   6.661
 4570POPC   C3B58569   3.927  19.017   7.047
 4570POPC   C4B58570   3.966  19.165   7.455
 4571POPC   NC358571  35.150  38.586   5.372
 4571POPC   PO458572  35.557  38.097   5.374
 4571POPC   GL158573  35.427  38.344   5.741
 4571POPC   GL258574  35.101  38.213   5.772
 4571POPC   C1A58575  35.289  38.549   6.147
 4571POPC   D2A58576  35.325  38.651   6.597
 4571POPC   C3A58577  35.203  38.481   7.005
 4571POPC   C4A58578  35.573  38.446   7.251
 4571POPC   C1B58579  35.081  38.072   6.165
 4571POPC   C2B58580  35.001  38.216   6.585
 4571POPC   C3B58581  34.869  38.016   6.972
 4571POPC   C4B58582  35.074  38.042   7.369
 4572POPC   NC358583  19.067  10.097   4.995
 4572POPC   PO458584  18.835   9.634   5.412
 4572POPC   GL158585  19.061   9.937   5.691
 4572POPC   GL258586  19.397   9.778   5.706
 4572POPC   C1A58587  18.962  10.030   6.148
 4572POPC   D2A58588  18.951   9.787   6.544
 4572POPC   C3A58589  18.888   9.936   6.985
 4572POPC   C4A58590  18.960   9.611   7.321
 4572POPC   C1B58591  19.415   9.780   6.182
 4572POPC   C2B58592  19.444   9.903   6.652
 4572POPC   C3B58593  19.369   9.806   7.116
 4572POPC   C4B58594  19.381   9.727   7.623
 4573POPC   NC358595  25.806  22.455   5.378
 4573POPC   PO458596  26.222  21.961   5.312
 4573POPC   GL158597  26.253  22.099   5.749
 4573POPC   GL258598  26.338  22.446   5.812
 4573POPC   C1A58599  26.108  22.102   6.178
 4573POPC   D2A58600  26.142  21.924   6.596
 4573POPC   C3A58601  25.791  22.053   6.868
 4573POPC   C4A58602  25.834  22.283   7.249
 4573POPC   C1B58603  26.320  22.593   6.277
 4573POPC   C2B58604  26.282  22.482   6.743
 4573POPC   C3B58605  26.309  22.515   7.224
 4573POPC   C4B58606  26.128  22.425   7.654
 4574POPC   NC358607  15.703  30.499   5.324
 4574POPC   PO458608  16.250  29.987   5.456
 4574POPC   GL158609  16.065  29.975   5.875
 4574POPC   GL258610  15.723  29.972   5.813
 4574POPC   C1A58611  16.115  30.060   6.344
 4574POPC   D2A58612  16.017  29.755   6.684
 4574POPC   C3A58613  16.051  29.933   7.065
 4574POPC   C4A58614  16.307  29.915   7.369
 4574POPC   C1B58615  15.687  29.805   6.247
 4574POPC   C2B58616  15.566  30.000   6.665
 4574POPC   C3B58617  15.557  29.959   7.122
 4574POPC   C4B58618  15.817  29.832   7.529
 4575POPC   NC358619  41.150  10.961   5.405
 4575POPC   PO458620  40.670  11.362   5.022
 4575POPC   GL158621  40.723  11.426   5.576
 4575POPC   GL258622  41.046  11.377   5.743
 4575POPC   C1A58623  40.651  11.188   6.035
 4575POPC   D2A58624  40.906  10.912   6.349
 4575POPC   C3A58625  40.937  10.923   6.850
 4575POPC   C4A58626  40.953  11.031   7.300
 4575POPC   C1B58627  40.875  11.630   6.124
 4575POPC   C2B58628  40.729  11.608   6.584
 4575POPC   C3B58629  40.866  11.456   7.024
 4575POPC   C4B58630  40.687  11.410   7.501
 4576POPC   NC358631  23.104  15.626   5.488
 4576POPC   PO458632  23.155  16.271   5.437
 4576POPC   GL158633  22.937  16.095   5.784
 4576POPC   GL258634  22.726  15.768   5.802
 4576POPC   C1A58635  23.110  15.909   6.136
 4576POPC   D2A58636  22.987  15.854   6.516
 4576POPC   C3A58637  23.058  16.145   6.858
 4576POPC   C4A58638  23.112  16.013   7.265
 4576POPC   C1B58639  22.580  15.988   6.183
 4576POPC   C2B58640  22.598  16.149   6.613
 4576POPC   C3B58641  22.620  15.997   7.039
 4576POPC   C4B58642  22.528  15.612   7.211
 4577POPC   NC358643  18.954  14.549   5.245
 4577POPC   PO458644  19.406  14.145   5.498
 4577POPC   GL158645  19.177  14.411   5.747
 4577POPC   GL258646  18.886  14.262   5.788
 4577POPC   C1A58647  19.235  14.528   6.160
 4577POPC   D2A58648  19.238  14.402   6.585
 4577POPC   C3A58649  19.309  14.716   6.888
 4577POPC   C4A58650  19.250  14.651   7.304
 4577POPC   C1B58651  18.829  14.187   6.227
 4577POPC   C2B58652  18.643  14.376   6.599
 4577POPC   C3B58653  18.808  14.530   6.996
 4577POPC   C4B58654  18.946  14.211   7.274
 4578POPC   NC358655  26.065  35.171   5.159
 4578POPC   PO458656  26.116  35.702   5.588
 4578POPC   GL158657  26.175  35.300   5.822
 4578POPC   GL258658  25.936  35.020   5.776
 4578POPC   C1A58659  26.432  35.222   6.207
 4578POPC   D2A58660  26.578  35.439   6.595
 4578POPC   C3A58661  26.369  35.495   6.999
 4578POPC   C4A58662  26.142  35.288   7.326
 4578POPC   C1B58663  25.945  35.043   6.227
 4578POPC   C2B58664  26.069  35.222   6.646
 4578POPC   C3B58665  25.819  35.434   6.984
 4578POPC   C4B58666  25.511  35.174   7.230
 4579POPC   NC358667   7.226  11.477   5.028
 4579POPC   PO458668   7.812  11.309   5.327
 4579POPC   GL158669   7.556  11.209   5.796
 4579POPC   GL258670   7.385  11.510   5.972
 4579POPC   C1A58671   7.207  11.050   6.141
 4579POPC   D2A58672   7.297  10.766   6.534
 4579POPC   C3A58673   7.124  10.856   6.970
 4579POPC   C4A58674   7.175  11.177   7.294
 4579POPC   C1B58675   7.567  11.338   6.329
 4579POPC   C2B58676   7.418  11.216   6.740
 4579POPC   C3B58677   7.617  11.346   7.110
 4579POPC   C4B58678   7.618  11.783   7.253
 4580POPC   NC358679   0.175  30.675   5.262
 4580POPC   PO458680  44.716  30.340   5.589
 4580POPC   GL158681  44.870  30.652   5.814
 4580POPC   GL258682  44.590  30.855   5.850
 4580POPC   C1A58683  44.888  30.726   6.268
 4580POPC   D2A58684  44.628  30.560   6.612
 4580POPC   C3A58685  44.826  30.488   7.023
 4580POPC   C4A58686  44.772  30.551   7.457
 4580POPC   C1B58687  44.552  31.097   6.233
 4580POPC   C2B58688  44.724  31.059   6.685
 4580POPC   C3B58689  44.686  30.997   7.160
 4580POPC   C4B58690  44.375  31.049   7.520
 4581POPC   NC358691  35.299   3.862   5.347
 4581POPC   PO458692  35.700   3.400   5.404
 4581POPC   GL158693  35.401   3.293   5.746
 4581POPC   GL258694  35.391   3.644   5.825
 4581POPC   C1A58695  35.206   3.318   6.174
 4581POPC   D2A58696  35.323   3.577   6.519
 4581POPC   C3A58697  35.414   3.358   6.918
 4581POPC   C4A58698  35.238   3.397   7.319
 4581POPC   C1B58699  35.328   3.962   6.149
 4581POPC   C2B58700  35.141   4.108   6.515
 4581POPC   C3B58701  35.292   3.952   6.883
 4581POPC   C4B58702  35.309   3.918   7.289
 4582POPC   NC358703   9.875  21.110   5.634
 4582POPC   PO458704   9.946  20.479   5.239
 4582POPC   GL158705   9.946  20.547   5.710
 4582POPC   GL258706   9.662  20.705   5.853
 4582POPC   C1A58707   9.840  20.370   6.166
 4582POPC   D2A58708   9.659  20.525   6.558
 4582POPC   C3A58709   9.783  20.397   7.006
 4582POPC   C4A58710   9.748  20.014   7.280
 4582POPC   C1B58711   9.899  20.883   6.243
 4582POPC   C2B58712  10.004  20.860   6.708
 4582POPC   C3B58713   9.678  20.896   7.043
 4582POPC   C4B58714   9.780  20.762   7.421
 4583POPC   NC358715  24.133  31.614   5.206
 4583POPC   PO458716  24.787  31.650   5.469
 4583POPC   GL158717  24.430  31.552   5.720
 4583POPC   GL258718  24.518  31.815   5.946
 4583POPC   C1A58719  24.357  31.334   6.129
 4583POPC   D2A58720  24.140  31.255   6.531
 4583POPC   C3A58721  24.372  31.368   6.901
 4583POPC   C4A58722  24.234  31.639   7.228
 4583POPC   C1B58723  24.846  31.641   6.203
 4583POPC   C2B58724  24.984  31.750   6.614
 4583POPC   C3B58725  24.693  31.786   6.951
 4583POPC   C4B58726  24.699  31.754   7.389
 4584POPC   NC358727  43.515  33.043   5.517
 4584POPC   PO458728  42.844  32.798   5.261
 4584POPC   GL158729  43.018  32.956   5.674
 4584POPC   GL258730  43.260  32.714   5.793
 4584POPC   C1A58731  43.124  33.177   6.089
 4584POPC   D2A58732  42.970  33.327   6.526
 4584POPC   C3A58733  43.011  33.199   6.974
 4584POPC   C4A58734  43.118  32.911   7.330
 4584POPC   C1B58735  43.533  32.791   6.110
 4584POPC   C2B58736  43.344  32.913   6.459
 4584POPC   C3B58737  43.379  32.854   6.866
 4584POPC   C4B58738  43.429  32.507   7.095
 4585POPC   NC358739  41.079  24.653   5.575
 4585POPC   PO458740  40.427  24.360   5.608
 4585POPC   GL158741  40.730  24.304   5.910
 4585POPC   GL258742  40.991  24.111   5.761
 4585POPC   C1A58743  40.821  24.586   6.264
 4585POPC   D2A58744  40.529  24.715   6.618
 4585POPC   C3A58745  40.713  24.743   7.028
 4585POPC   C4A58746  40.615  24.460   7.370
 4585POPC   C1B58747  41.083  24.099   6.215
 4585POPC   C2B58748  41.081  24.312   6.648
 4585POPC   C3B58749  41.076  24.373   7.107
 4585POPC   C4B58750  41.050  24.275   7.545
 4586POPC   NC358751  36.154  25.072   5.184
 4586POPC   PO458752  35.823  25.702   5.224
 4586POPC   GL158753  36.095  25.476   5.571
 4586POPC   GL258754  35.849  25.600   5.819
 4586POPC   C1A58755  36.153  25.215   6.004
 4586POPC   D2A58756  36.158  24.985   6.448
 4586POPC   C3A58757  36.209  25.171   6.893
 4586POPC   C4A58758  36.233  25.050   7.361
 4586POPC   C1B58759  36.144  25.733   6.138
 4586POPC   C2B58760  36.281  25.648   6.554
 4586POPC   C3B58761  36.092  25.725   6.931
 4586POPC   C4B58762  36.005  25.497   7.287
 4587POPC   NC358763   4.129   0.771   5.322
 4587POPC   PO458764   3.832   0.164   5.439
 4587POPC   GL158765   4.157   0.386   5.684
 4587POPC   GL258766   4.094   0.734   5.811
 4587POPC   C1A58767   4.499   0.371   6.015
 4587POPC   D2A58768   4.606   0.259   6.467
 4587POPC   C3A58769   4.429   0.335   6.871
 4587POPC   C4A58770   4.490   0.189   7.282
 4587POPC   C1B58771   4.417   0.863   6.104
 4587POPC   C2B58772   4.293   0.669   6.501
 4587POPC   C3B58773   4.257   0.808   6.939
 4587POPC   C4B58774   4.170   0.581   7.345
 4588POPC   NC358775  21.017  34.021   5.583
 4588POPC   PO458776  20.393  34.176   5.467
 4588POPC   GL158777  20.569  33.882   5.780
 4588POPC   GL258778  20.798  33.559   5.734
 4588POPC   C1A58779  20.530  33.754   6.169
 4588POPC   D2A58780  20.384  33.664   6.549
 4588POPC   C3A58781  20.572  33.756   6.956
 4588POPC   C4A58782  20.383  33.939   7.340
 4588POPC   C1B58783  21.028  33.587   6.113
 4588POPC   C2B58784  20.913  33.730   6.518
 4588POPC   C3B58785  21.081  33.593   6.899
 4588POPC   C4B58786  20.961  33.710   7.304
 4589POPC   NC358787  18.131  17.868   5.355
 4589POPC   PO458788  18.390  17.217   5.345
 4589POPC   GL158789  18.345  17.331   5.771
 4589POPC   GL258790  18.081  17.572   5.787
 4589POPC   C1A58791  18.511  17.440   6.195
 4589POPC   D2A58792  18.505  17.209   6.593
 4589POPC   C3A58793  18.406  17.390   7.008
 4589POPC   C4A58794  18.458  17.227   7.417
 4589POPC   C1B58795  17.993  17.359   6.175
 4589POPC   C2B58796  18.070  17.481   6.597
 4589POPC   C3B58797  17.975  17.654   7.008
 4589POPC   C4B58798  18.103  17.581   7.434
 4590POPC   NC358799   0.766  40.640   5.544
 4590POPC   PO458800   0.615  41.263   5.428
 4590POPC   GL158801   0.502  41.010   5.808
 4590POPC   GL258802   0.331  40.704   5.808
 4590POPC   C1A58803   0.656  40.837   6.210
 4590POPC   D2A58804   0.446  40.703   6.610
 4590POPC   C3A58805   0.608  40.562   7.003
 4590POPC   C4A58806   0.604  40.761   7.411
 4590POPC   C1B58807   0.117  40.861   6.191
 4590POPC   C2B58808  44.976  40.911   6.640
 4590POPC   C3B58809   0.195  40.899   7.066
 4590POPC   C4B58810   0.139  40.946   7.541
 4591POPC   NC358811  34.779  13.037   5.430
 4591POPC   PO458812  34.294  12.585   5.670
 4591POPC   GL158813  34.428  12.981   5.890
 4591POPC   GL258814  34.752  13.176   5.924
 4591POPC   C1A58815  34.397  12.853   6.302
 4591POPC   D2A58816  34.646  12.657   6.622
 4591POPC   C3A58817  34.454  12.742   7.038
 4591POPC   C4A58818  34.413  12.718   7.482
 4591POPC   C1B58819  34.687  13.247   6.368
 4591POPC   C2B58820  34.464  13.165   6.738
 4591POPC   C3B58821  34.413  13.382   7.123
 4591POPC   C4B58822  34.641  13.311   7.480
 4592POPC   NC358823  34.753  16.284   5.201
 4592POPC   PO458824  34.895  15.645   5.223
 4592POPC   GL158825  34.600  15.631   5.800
 4592POPC   GL258826  34.532  15.989   5.976
 4592POPC   C1A58827  34.492  15.612   6.295
 4592POPC   D2A58828  34.577  15.877   6.698
 4592POPC   C3A58829  34.426  15.727   7.099
 4592POPC   C4A58830  34.303  15.737   7.572
 4592POPC   C1B58831  34.831  16.106   6.324
 4592POPC   C2B58832  35.048  16.155   6.686
 4592POPC   C3B58833  34.915  16.218   7.084
 4592POPC   C4B58834  34.939  16.342   7.484
 4593POPC   NC358835   9.177  40.654   5.351
 4593POPC   PO458836   9.106  41.307   5.503
 4593POPC   GL158837   9.199  40.913   5.815
 4593POPC   GL258838   9.260  40.518   5.842
 4593POPC   C1A58839   9.068  40.787   6.241
 4593POPC   D2A58840   9.229  40.689   6.637
 4593POPC   C3A58841   9.202  41.024   6.912
 4593POPC   C4A58842   9.005  40.904   7.277
 4593POPC   C1B58843   8.944  40.305   6.139
 4593POPC   C2B58844   8.768  40.223   6.535
 4593POPC   C3B58845   8.940  40.321   6.895
 4593POPC   C4B58846   8.859  40.401   7.274
 4594POPC   NC358847  18.623  36.514   5.393
 4594POPC   PO458848  19.293  36.675   5.535
 4594POPC   GL158849  18.983  36.935   5.738
 4594POPC   GL258850  18.856  36.592   5.839
 4594POPC   C1A58851  19.095  37.184   6.137
 4594POPC   D2A58852  19.313  37.008   6.513
 4594POPC   C3A58853  19.138  37.114   6.919
 4594POPC   C4A58854  19.304  37.028   7.334
 4594POPC   C1B58855  19.082  36.659   6.193
 4594POPC   C2B58856  18.844  36.815   6.524
 4594POPC   C3B58857  18.782  36.669   6.928
 4594POPC   C4B58858  18.870  36.768   7.344
 4595POPC   NC358859  23.710   6.475   5.352
 4595POPC   PO458860  23.985   7.017   5.088
 4595POPC   GL158861  23.767   6.918   5.613
 4595POPC   GL258862  23.608   6.558   5.831
 4595POPC   C1A58863  23.861   6.878   6.109
 4595POPC   D2A58864  23.769   6.565   6.462
 4595POPC   C3A58865  23.871   6.685   6.891
 4595POPC   C4A58866  23.561   6.824   7.181
 4595POPC   C1B58867  23.490   6.223   6.166
 4595POPC   C2B58868  23.363   6.223   6.631
 4595POPC   C3B58869  23.515   6.345   7.051
 4595POPC   C4B58870  23.404   6.216   7.547
 4596POPC   NC358871  35.011  44.634   5.337
 4596POPC   PO458872  35.674  44.617   5.420
 4596POPC   GL158873  35.326  44.640   5.738
 4596POPC   GL258874  35.196  44.310   5.735
 4596POPC   C1A58875  35.209  44.767   6.151
 4596POPC   D2A58876  35.442  44.857   6.530
 4596POPC   C3A58877  35.300  44.803   6.956
 4596POPC   C4A58878  35.439   0.008   7.334
 4596POPC   C1B58879  35.206  44.264   6.192
 4596POPC   C2B58880  35.098  44.464   6.593
 4596POPC   C3B58881  35.017  44.363   7.020
 4596POPC   C4B58882  34.998  44.389   7.453
 4597POPC   NC358883  24.770  11.123   5.302
 4597POPC   PO458884  25.150  11.666   5.419
 4597POPC   GL158885  25.294  11.361   5.752
 4597POPC   GL258886  25.145  11.018   5.750
 4597POPC   C1A58887  25.474  11.218   6.161
 4597POPC   D2A58888  25.513  11.450   6.557
 4597POPC   C3A58889  25.577  11.285   6.953
 4597POPC   C4A58890  25.482  11.419   7.385
 4597POPC   C1B58891  25.038  10.921   6.205
 4597POPC   C2B58892  25.088  11.136   6.606
 4597POPC   C3B58893  25.107  11.185   7.065
 4597POPC   C4B58894  25.065  10.839   7.362
 4598POPC   NC358895  26.357  28.367   5.513
 4598POPC   PO458896  26.909  28.114   5.134
 4598POPC   GL158897  26.868  28.441   5.698
 4598POPC   GL258898  26.584  28.336   5.966
 4598POPC   C1A58899  27.048  28.298   6.183
 4598POPC   D2A58900  27.152  28.623   6.552
 4598POPC   C3A58901  27.048  28.460   6.962
 4598POPC   C4A58902  26.677  28.221   7.058
 4598POPC   C1B58903  26.703  28.642   6.249
 4598POPC   C2B58904  26.641  28.577   6.669
 4598POPC   C3B58905  26.637  28.807   7.050
 4598POPC   C4B58906  26.831  28.769   7.459
 4599POPC   NC358907  15.050  42.007   5.287
 4599POPC   PO458908  15.086  41.301   5.414
 4599POPC   GL158909  15.233  41.471   5.795
 4599POPC   GL258910  15.017  41.766   5.766
 4599POPC   C1A58911  15.422  41.448   6.213
 4599POPC   D2A58912  15.185  41.383   6.601
 4599POPC   C3A58913  15.366  41.281   6.986
 4599POPC   C4A58914  15.473  41.566   7.311
 4599POPC   C1B58915  14.923  41.608   6.185
 4599POPC   C2B58916  14.834  41.733   6.567
 4599POPC   C3B58917  15.061  41.754   6.955
 4599POPC   C4B58918  14.800  41.827   7.317
 4600POPC   NC358919  43.473  18.551   5.661
 4600POPC   PO458920  42.960  18.208   5.311
 4600POPC   GL158921  43.017  18.301   5.750
 4600POPC   GL258922  42.820  18.597   5.832
 4600POPC   C1A58923  43.111  18.174   6.187
 4600POPC   D2A58924  43.385  18.169   6.561
 4600POPC   C3A58925  43.272  18.002   6.973
 4600POPC   C4A58926  42.952  17.928   7.281
 4600POPC   C1B58927  43.091  18.706   6.182
 4600POPC   C2B58928  43.096  18.633   6.595
 4600POPC   C3B58929  43.293  18.500   6.955
 4600POPC   C4B58930  43.274  18.335   7.372
 4601POPC   NC358931  22.141  37.881   5.514
 4601POPC   PO458932  22.210  37.142   5.476
 4601POPC   GL158933  22.182  37.499   5.844
 4601POPC   GL258934  22.429  37.641   5.998
 4601POPC   C1A58935  22.021  37.753   6.285
 4601POPC   D2A58936  21.777  37.818   6.717
 4601POPC   C3A58937  21.939  37.876   7.108
 4601POPC   C4A58938  22.238  37.675   7.320
 4601POPC   C1B58939  22.289  37.293   6.277
 4601POPC   C2B58940  22.502  37.253   6.623
 4601POPC   C3B58941  22.527  37.512   6.916
 4601POPC   C4B58942  22.566  37.277   7.239
 4602POPC   NC358943  20.193  43.532   5.653
 4602POPC   PO458944  19.778  43.031   5.353
 4602POPC   GL158945  19.887  43.117   5.797
 4602POPC   GL258946  19.721  43.441   5.864
 4602POPC   C1A58947  19.833  43.080   6.272
 4602POPC   D2A58948  19.953  43.215   6.709
 4602POPC   C3A58949  19.993  42.887   7.038
 4602POPC   C4A58950  19.638  42.703   7.202
 4602POPC   C1B58951  19.442  43.447   6.232
 4602POPC   C2B58952  19.403  43.248   6.656
 4602POPC   C3B58953  19.573  43.201   7.090
 4602POPC   C4B58954  19.380  43.114   7.502
 4603POPC   NC358955  12.988  22.461   5.451
 4603POPC   PO458956  12.932  21.758   5.054
 4603POPC   GL158957  12.979  21.835   5.585
 4603POPC   GL258958  12.732  22.075   5.757
 4603POPC   C1A58959  13.150  22.029   6.043
 4603POPC   D2A58960  12.904  22.233   6.429
 4603POPC   C3A58961  12.921  22.125   6.881
 4603POPC   C4A58962  12.814  22.330   7.293
 4603POPC   C1B58963  12.689  21.862   6.159
 4603POPC   C2B58964  12.524  21.870   6.566
 4603POPC   C3B58965  12.609  21.710   6.971
 4603POPC   C4B58966  12.863  21.831   7.322
 4604POPC   NC358967  43.228  35.721   5.462
 4604POPC   PO458968  43.367  35.116   5.441
 4604POPC   GL158969  43.110  35.306   5.758
 4604POPC   GL258970  42.873  35.062   5.891
 4604POPC   C1A58971  43.095  35.541   6.146
 4604POPC   D2A58972  43.239  35.380   6.552
 4604POPC   C3A58973  43.248  35.670   6.902
 4604POPC   C4A58974  43.141  35.529   7.313
 4604POPC   C1B58975  42.750  35.191   6.331
 4604POPC   C2B58976  42.662  35.119   6.797
 4604POPC   C3B58977  42.844  35.075   7.241
 4604POPC   C4B58978  42.708  35.016   7.699
 4605POPC   NC358979  22.275  12.626   5.302
 4605POPC   PO458980  22.060  11.982   5.417
 4605POPC   GL158981  22.315  12.141   5.725
 4605POPC   GL258982  22.047  12.306   5.863
 4605POPC   C1A58983  22.399  12.044   6.162
 4605POPC   D2A58984  22.190  11.937   6.551
 4605POPC   C3A58985  22.369  11.962   6.953
 4605POPC   C4A58986  22.039  12.082   7.228
 4605POPC   C1B58987  21.837  12.262   6.261
 4605POPC   C2B58988  21.770  12.438   6.673
 4605POPC   C3B58989  21.666  12.459   7.114
 4605POPC   C4B58990  21.788  12.392   7.548
 4606POPC   NC358991   1.015  24.653   5.372
 4606POPC   PO458992   1.649  24.589   5.304
 4606POPC   GL158993   1.367  24.664   5.735
 4606POPC   GL258994   1.137  24.346   5.760
 4606POPC   C1A58995   1.139  24.614   6.182
 4606POPC   D2A58996   0.899  24.545   6.582
 4606POPC   C3A58997   1.121  24.665   6.958
 4606POPC   C4A58998   1.301  24.454   7.318
 4606POPC   C1B58999   0.788  24.259   6.063
 4606POPC   C2B59000   0.566  24.158   6.465
 4606POPC   C3B59001   0.756  24.082   6.851
 4606POPC   C4B59002   0.840  24.323   7.210
 4607POPC   NC359003  31.269  12.381   5.476
 4607POPC   PO459004  31.678  11.809   5.508
 4607POPC   GL159005  31.491  11.878   5.894
 4607POPC   GL259006  31.517  12.222   5.905
 4607POPC   C1A59007  31.661  11.888   6.291
 4607POPC   D2A59008  31.576  12.099   6.632
 4607POPC   C3A59009  31.784  12.016   6.970
 4607POPC   C4A59010  31.515  11.979   7.274
 4607POPC   C1B59011  31.386  12.425   6.296
 4607POPC   C2B59012  31.327  12.651   6.668
 4607POPC   C3B59013  31.420  12.409   7.014
 4607POPC   C4B59014  31.555  12.464   7.445
 4608POPC   NC359015   4.773   5.623   5.060
 4608POPC   PO459016   5.299   5.987   5.228
 4608POPC   GL159017   5.073   5.918   5.611
 4608POPC   GL259018   5.190   5.663   5.875
 4608POPC   C1A59019   4.916   6.103   6.005
 4608POPC   D2A59020   5.173   6.168   6.383
 4608POPC   C3A59021   5.134   5.886   6.752
 4608POPC   C4A59022   5.235   6.026   7.175
 4608POPC   C1B59023   4.943   5.679   6.295
 4608POPC   C2B59024   4.645   5.522   6.622
 4608POPC   C3B59025   4.767   5.330   6.995
 4608POPC   C4B59026   5.131   5.509   7.141
 4609POPC   NC359027  31.077   8.321   5.081
 4609POPC   PO459028  30.568   8.432   5.428
 4609POPC   GL159029  30.799   8.113   5.654
 4609POPC   GL259030  30.479   7.925   5.632
 4609POPC   C1A59031  31.040   8.132   6.070
 4609POPC   D2A59032  30.867   8.313   6.510
 4609POPC   C3A59033  31.012   8.246   6.966
 4609POPC   C4A59034  30.813   8.106   7.381
 4609POPC   C1B59035  30.436   8.119   6.060
 4609POPC   C2B59036  30.356   8.163   6.522
 4609POPC   C3B59037  30.492   8.244   6.965
 4609POPC   C4B59038  30.321   8.228   7.386
 4610POPC   NC359039   2.775  15.979   5.266
 4610POPC   PO459040   2.405  16.364   5.709
 4610POPC   GL159041   2.676  15.973   5.836
 4610POPC   GL259042   2.653  15.620   5.643
 4610POPC   C1A59043   2.973  15.848   6.225
 4610POPC   D2A59044   3.176  15.902   6.670
 4610POPC   C3A59045   2.851  15.999   6.913
 4610POPC   C4A59046   2.661  15.897   7.285
 4610POPC   C1B59047   2.510  15.587   6.079
 4610POPC   C2B59048   2.482  15.861   6.417
 4610POPC   C3B59049   2.381  15.811   6.835
 4610POPC   C4B59050   2.228  16.089   7.152
 4611POPC   NC359051  14.101  19.024   5.375
 4611POPC   PO459052  14.663  19.368   5.356
 4611POPC   GL159053  14.521  19.136   5.723
 4611POPC   GL259054  14.789  18.936   5.848
 4611POPC   C1A59055  14.261  19.034   6.099
 4611POPC   D2A59056  14.077  19.048   6.548
 4611POPC   C3A59057  14.220  19.155   6.998
 4611POPC   C4A59058  14.238  19.170   7.473
 4611POPC   C1B59059  14.726  19.178   6.243
 4611POPC   C2B59060  14.684  18.981   6.671
 4611POPC   C3B59061  14.641  18.870   7.125
 4611POPC   C4B59062  14.735  19.073   7.519
 4612POPC   NC359063  33.847  29.490   5.416
 4612POPC   PO459064  33.836  28.867   5.248
 4612POPC   GL159065  33.854  29.061   5.706
 4612POPC   GL259066  33.581  29.130   5.913
 4612POPC   C1A59067  33.997  29.024   6.165
 4612POPC   D2A59068  33.795  29.156   6.545
 4612POPC   C3A59069  33.992  29.055   6.926
 4612POPC   C4A59070  33.992  29.150   7.350
 4612POPC   C1B59071  33.420  29.401   6.243
 4612POPC   C2B59072  33.544  29.602   6.651
 4612POPC   C3B59073  33.614  29.388   7.066
 4612POPC   C4B59074  33.629  29.452   7.530
 4613POPC   NC359075   9.261   7.659   5.561
 4613POPC   PO459076   9.021   7.014   5.524
 4613POPC   GL159077   8.988   7.326   5.851
 4613POPC   GL259078   8.678   7.537   5.868
 4613POPC   C1A59079   9.218   7.445   6.239
 4613POPC   D2A59080   9.091   7.566   6.654
 4613POPC   C3A59081   9.362   7.580   7.030
 4613POPC   C4A59082   9.468   7.208   7.258
 4613POPC   C1B59083   8.733   7.332   6.293
 4613POPC   C2B59084   8.654   7.229   6.723
 4613POPC   C3B59085   8.906   7.335   7.073
 4613POPC   C4B59086   9.005   7.496   7.476
 4614POPC   NC359087  15.521  23.036   5.733
 4614POPC   PO459088  14.956  23.093   5.442
 4614POPC   GL159089  15.062  22.892   5.888
 4614POPC   GL259090  15.294  22.595   5.859
 4614POPC   C1A59091  15.007  22.853   6.365
 4614POPC   D2A59092  14.909  22.641   6.777
 4614POPC   C3A59093  14.929  22.858   7.200
 4614POPC   C4A59094  14.991  22.643   7.626
 4614POPC   C1B59095  15.468  22.610   6.270
 4614POPC   C2B59096  15.425  22.789   6.692
 4614POPC   C3B59097  15.365  22.603   7.091
 4614POPC   C4B59098  15.390  22.307   7.423
 4615POPC   NC359099  13.083  43.306   5.466
 4615POPC   PO459100  12.429  43.010   5.303
 4615POPC   GL159101  12.672  43.114   5.736
 4615POPC   GL259102  12.620  42.832   5.966
 4615POPC   C1A59103  12.784  43.250   6.231
 4615POPC   D2A59104  13.031  43.146   6.674
 4615POPC   C3A59105  12.891  43.354   7.078
 4615POPC   C4A59106  12.446  43.434   7.105
 4615POPC   C1B59107  12.889  42.760   6.346
 4615POPC   C2B59108  12.784  42.681   6.739
 4615POPC   C3B59109  12.681  42.903   7.062
 4615POPC   C4B59110  13.141  42.909   7.162
 4616POPC   NC359111   5.082   0.474   5.369
 4616POPC   PO459112   4.601   0.990   5.413
 4616POPC   GL159113   4.943   0.814   5.767
 4616POPC   GL259114   5.177   0.496   5.848
 4616POPC   C1A59115   5.000   0.752   6.234
 4616POPC   D2A59116   4.808   0.716   6.607
 4616POPC   C3A59117   5.035   0.735   6.975
 4616POPC   C4A59118   4.688   0.652   7.202
 4616POPC   C1B59119   5.005   0.234   6.152
 4616POPC   C2B59120   5.071   0.102   6.575
 4616POPC   C3B59121   4.949   0.218   7.000
 4616POPC   C4B59122   5.288   0.393   7.227
 4617POPC   NC359123  40.539   5.155   5.403
 4617POPC   PO459124  40.933   4.695   5.289
 4617POPC   GL159125  40.870   4.939   5.720
 4617POPC   GL259126  40.808   5.331   5.794
 4617POPC   C1A59127  40.946   4.909   6.184
 4617POPC   D2A59128  41.043   4.661   6.566
 4617POPC   C3A59129  40.731   4.754   6.884
 4617POPC   C4A59130  40.705   4.910   7.317
 4617POPC   C1B59131  40.601   5.296   6.211
 4617POPC   C2B59132  40.559   5.184   6.669
 4617POPC   C3B59133  40.601   5.363   7.110
 4617POPC   C4B59134  40.542   5.303   7.615
 4618POPC   NC359135  39.831  16.747   5.526
 4618POPC   PO459136  40.533  16.557   5.337
 4618POPC   GL159137  40.287  16.428   5.794
 4618POPC   GL259138  39.986  16.662   6.009
 4618POPC   C1A59139  40.202  16.290   6.267
 4618POPC   D2A59140  40.032  16.641   6.522
 4618POPC   C3A59141  40.113  16.728   6.946
 4618POPC   C4A59142  40.340  16.412   7.163
 4618POPC   C1B59143  39.907  17.071   6.293
 4618POPC   C2B59144  39.905  17.299   6.725
 4618POPC   C3B59145  39.852  17.153   7.175
 4618POPC   C4B59146  39.655  17.049   7.624
 4619POPC   NC359147  15.323  12.717   5.306
 4619POPC   PO459148  14.680  12.715   5.475
 4619POPC   GL159149  14.877  12.837   5.861
 4619POPC   GL259150  15.234  12.913   5.796
 4619POPC   C1A59151  14.861  12.741   6.325
 4619POPC   D2A59152  15.150  12.800   6.651
 4619POPC   C3A59153  15.100  12.747   7.069
 4619POPC   C4A59154  15.270  13.131   7.268
 4619POPC   C1B59155  15.254  12.509   6.032
 4619POPC   C2B59156  15.295  12.361   6.456
 4619POPC   C3B59157  15.278  12.289   6.902
 4619POPC   C4B59158  15.403  12.423   7.350
 4620POPC   NC359159  19.309  26.374   5.627
 4620POPC   PO459160  19.576  25.851   5.220
 4620POPC   GL159161  19.671  25.942   5.667
 4620POPC   GL259162  19.421  25.907   5.920
 4620POPC   C1A59163  19.886  25.907   6.100
 4620POPC   D2A59164  19.670  25.835   6.530
 4620POPC   C3A59165  19.912  25.855   6.933
 4620POPC   C4A59166  19.645  25.735   7.294
 4620POPC   C1B59167  19.499  26.230   6.225
 4620POPC   C2B59168  19.388  26.308   6.630
 4620POPC   C3B59169  19.559  26.188   7.022
 4620POPC   C4B59170  19.821  26.197   7.395
 4621POPC   NC359171  10.522  20.293   5.381
 4621POPC   PO459172  10.295  20.942   5.501
 4621POPC   GL159173  10.444  20.657   5.856
 4621POPC   GL259174  10.737  20.439   5.828
 4621POPC   C1A59175  10.658  20.659   6.307
 4621POPC   D2A59176  10.753  20.845   6.740
 4621POPC   C3A59177  10.422  20.872   7.068
 4621POPC   C4A59178  10.236  20.565   7.338
 4621POPC   C1B59179  10.861  20.191   6.208
 4621POPC   C2B59180  10.902  20.308   6.649
 4621POPC   C3B59181  10.703  20.281   7.060
 4621POPC   C4B59182  10.744  20.287   7.507
 4622POPC   NC359183  11.845  36.723   5.469
 4622POPC   PO459184  11.128  36.889   5.339
 4622POPC   GL159185  11.276  37.009   5.755
 4622POPC   GL259186  11.502  36.775   5.843
 4622POPC   C1A59187  11.322  37.138   6.209
 4622POPC   D2A59188  11.193  36.918   6.592
 4622POPC   C3A59189  11.347  36.946   7.024
 4622POPC   C4A59190  11.176  37.187   7.396
 4622POPC   C1B59191  11.512  36.529   6.211
 4622POPC   C2B59192  11.571  36.578   6.633
 4622POPC   C3B59193  11.277  36.443   6.899
 4622POPC   C4B59194  11.348  36.484   7.297
 4623POPC   NC359195  12.648  11.862   5.422
 4623POPC   PO459196  13.255  12.083   5.722
 4623POPC   GL159197  12.860  12.060   5.865
 4623POPC   GL259198  12.699  12.311   5.689
 4623POPC   C1A59199  12.680  11.989   6.274
 4623POPC   D2A59200  12.640  11.656   6.593
 4623POPC   C3A59201  12.920  11.728   6.907
 4623POPC   C4A59202  12.909  11.957   7.249
 4623POPC   C1B59203  12.511  12.483   6.054
 4623POPC   C2B59204  12.527  12.454   6.499
 4623POPC   C3B59205  12.716  12.288   6.873
 4623POPC   C4B59206  12.761  12.424   7.300
 4624POPC   NC359207  33.485  27.687   5.648
 4624POPC   PO459208  32.906  27.508   5.492
 4624POPC   GL159209  32.978  27.673   5.858
 4624POPC   GL259210  32.664  27.880   5.873
 4624POPC   C1A59211  33.262  27.587   6.225
 4624POPC   D2A59212  33.565  27.533   6.559
 4624POPC   C3A59213  33.344  27.603   6.951
 4624POPC   C4A59214  33.083  27.373   7.247
 4624POPC   C1B59215  32.886  27.955   6.265
 4624POPC   C2B59216  32.963  27.706   6.612
 4624POPC   C3B59217  32.829  27.733   6.971
 4624POPC   C4B59218  32.981  27.885   7.282
 4625POPC   NC359219  41.914  43.211   5.031
 4625POPC   PO459220  41.431  43.198   5.456
 4625POPC   GL159221  41.507  43.254   5.900
 4625POPC   GL259222  41.353  42.956   6.024
 4625POPC   C1A59223  41.677  43.205   6.335
 4625POPC   D2A59224  41.452  42.958   6.677
 4625POPC   C3A59225  41.592  43.079   7.108
 4625POPC   C4A59226  42.010  43.315   7.168
 4625POPC   C1B59227  41.190  43.303   6.299
 4625POPC   C2B59228  41.166  43.374   6.719
 4625POPC   C3B59229  41.255  43.628   7.037
 4625POPC   C4B59230  41.407  43.459   7.435
 4626POPC   NC359231  30.949   8.609   5.628
 4626POPC   PO459232  30.430   8.957   5.387
 4626POPC   GL159233  30.638   8.974   5.766
 4626POPC   GL259234  30.671   9.290   5.870
 4626POPC   C1A59235  30.672   8.896   6.209
 4626POPC   D2A59236  30.511   8.999   6.620
 4626POPC   C3A59237  30.704   8.687   6.874
 4626POPC   C4A59238  30.771   8.631   7.315
 4626POPC   C1B59239  30.958   9.324   6.256
 4626POPC   C2B59240  31.010   9.046   6.643
 4626POPC   C3B59241  30.871   9.114   7.083
 4626POPC   C4B59242  31.012   9.165   7.487
 4627POPC   NC359243   9.980  16.207   5.279
 4627POPC   PO459244   9.686  15.630   5.591
 4627POPC   GL159245   9.561  15.743   5.980
 4627POPC   GL259246   9.487  16.060   5.811
 4627POPC   C1A59247   9.769  15.752   6.395
 4627POPC   D2A59248  10.115  15.874   6.681
 4627POPC   C3A59249   9.961  15.893   7.112
 4627POPC   C4A59250   9.526  15.982   7.267
 4627POPC   C1B59251   9.747  16.202   6.141
 4627POPC   C2B59252   9.544  16.354   6.506
 4627POPC   C3B59253   9.698  16.269   6.891
 4627POPC   C4B59254   9.873  16.456   7.267
 4628POPC   NC359255  28.544  13.247   5.638
 4628POPC   PO459256  28.364  12.652   5.257
 4628POPC   GL159257  28.193  12.683   5.710
 4628POPC   GL259258  28.141  13.030   5.852
 4628POPC   C1A59259  28.220  12.647   6.200
 4628POPC   D2A59260  28.493  12.682   6.580
 4628POPC   C3A59261  28.310  12.626   6.994
 4628POPC   C4A59262  28.377  12.789   7.414
 4628POPC   C1B59263  28.373  13.148   6.246
 4628POPC   C2B59264  28.253  13.209   6.642
 4628POPC   C3B59265  28.418  13.134   7.021
 4628POPC   C4B59266  28.454  13.410   7.377
 4629POPC   NC359267  36.151   5.127   5.406
 4629POPC   PO459268  35.467   5.094   5.312
 4629POPC   GL159269  35.749   5.233   5.731
 4629POPC   GL259270  36.133   5.235   5.885
 4629POPC   C1A59271  35.730   5.184   6.171
 4629POPC   D2A59272  35.715   4.883   6.510
 4629POPC   C3A59273  35.807   4.999   6.925
 4629POPC   C4A59274  36.180   5.132   7.147
 4629POPC   C1B59275  36.174   4.934   6.242
 4629POPC   C2B59276  36.257   4.834   6.695
 4629POPC   C3B59277  36.452   4.710   7.103
 4629POPC   C4B59278  36.373   4.827   7.549
 4630POPC   NC359279   8.001  28.508   5.467
 4630POPC   PO459280   8.605  28.314   5.482
 4630POPC   GL159281   8.428  28.507   5.821
 4630POPC   GL259282   8.186  28.239   5.899
 4630POPC   C1A59283   8.386  28.551   6.279
 4630POPC   D2A59284   8.260  28.399   6.706
 4630POPC   C3A59285   8.435  28.573   7.079
 4630POPC   C4A59286   8.401  28.751   7.489
 4630POPC   C1B59287   7.933  28.313   6.316
 4630POPC   C2B59288   7.734  28.400   6.726
 4630POPC   C3B59289   7.938  28.175   7.056
 4630POPC   C4B59290   8.377  28.045   7.091
 4631POPC   NC359291  31.797  32.502   5.269
 4631POPC   PO459292  31.235  32.500   5.509
 4631POPC   GL159293  31.487  32.372   5.864
 4631POPC   GL259294  31.187  32.349   6.034
 4631POPC   C1A59295  31.570  32.204   6.331
 4631POPC   D2A59296  31.609  32.383   6.774
 4631POPC   C3A59297  31.642  32.130   7.174
 4631POPC   C4A59298  31.595  32.020   7.623
 4631POPC   C1B59299  31.275  32.615   6.404
 4631POPC   C2B59300  31.136  32.562   6.849
 4631POPC   C3B59301  31.396  32.582   7.233
 4631POPC   C4B59302  31.601  32.573   7.625
 4632POPC   NC359303  44.436  11.137   5.558
 4632POPC   PO459304  44.885  11.735   5.517
 4632POPC   GL159305  44.726  11.430   5.871
 4632POPC   GL259306  44.810  11.040   5.891
 4632POPC   C1A59307  44.519  11.394   6.320
 4632POPC   D2A59308  44.384  11.096   6.672
 4632POPC   C3A59309  44.519  11.151   7.118
 4632POPC   C4A59310  44.648  11.485   7.452
 4632POPC   C1B59311  44.789  10.962   6.327
 4632POPC   C2B59312  44.906  11.213   6.677
 4632POPC   C3B59313  44.989  11.359   7.074
 4632POPC   C4B59314   0.053  11.140   7.453
 4633POPC   NC359315  28.593  20.372   5.344
 4633POPC   PO459316  28.375  19.746   5.433
 4633POPC   GL159317  28.272  19.908   5.848
 4633POPC   GL259318  28.401  20.243   5.818
 4633POPC   C1A59319  28.308  19.948   6.320
 4633POPC   D2A59320  28.566  19.665   6.610
 4633POPC   C3A59321  28.392  19.678   7.022
 4633POPC   C4A59322  27.971  19.843   7.113
 4633POPC   C1B59323  28.590  20.496   6.152
 4633POPC   C2B59324  28.428  20.543   6.555
 4633POPC   C3B59325  28.309  20.175   6.799
 4633POPC   C4B59326  28.361  20.156   7.218
 4634POPC   NC359327  24.811  23.011   5.268
 4634POPC   PO459328  25.332  23.299   5.389
 4634POPC   GL159329  25.298  22.960   5.716
 4634POPC   GL259330  25.013  22.989   5.902
 4634POPC   C1A59331  25.470  22.804   6.152
 4634POPC   D2A59332  25.587  23.009   6.583
 4634POPC   C3A59333  25.404  22.906   7.007
 4634POPC   C4A59334  25.244  22.724   7.405
 4634POPC   C1B59335  25.198  23.219   6.265
 4634POPC   C2B59336  25.130  23.282   6.724
 4634POPC   C3B59337  25.268  23.384   7.147
 4634POPC   C4B59338  25.404  23.511   7.579
 4635POPC   NC359339  27.664  24.514   5.562
 4635POPC   PO459340  27.792  23.833   5.450
 4635POPC   GL159341  27.827  24.122   5.826
 4635POPC   GL259342  27.489  24.198   5.928
 4635POPC   C1A59343  27.882  24.386   6.211
 4635POPC   D2A59344  27.812  24.344   6.674
 4635POPC   C3A59345  27.680  24.627   7.018
 4635POPC   C4A59346  27.596  24.542   7.463
 4635POPC   C1B59347  27.385  24.271   6.362
 4635POPC   C2B59348  27.249  24.392   6.770
 4635POPC   C3B59349  27.159  24.372   7.197
 4635POPC   C4B59350  27.155  24.308   7.647
 4636POPC   NC359351  10.885   3.702   5.455
 4636POPC   PO459352  10.281   3.787   5.698
 4636POPC   GL159353  10.543   3.455   5.787
 4636POPC   GL259354  10.282   3.261   5.947
 4636POPC   C1A59355  10.793   3.371   6.153
 4636POPC   D2A59356  10.868   3.608   6.556
 4636POPC   C3A59357  10.734   3.363   6.926
 4636POPC   C4A59358  10.642   3.441   7.373
 4636POPC   C1B59359  10.299   3.076   6.358
 4636POPC   C2B59360  10.236   3.194   6.804
 4636POPC   C3B59361  10.162   3.281   7.245
 4636POPC   C4B59362  10.236   3.366   7.688
 4637POPC   NC359363  23.805   5.670   5.110
 4637POPC   PO459364  24.011   5.110   5.487
 4637POPC   GL159365  23.805   5.076   5.877
 4637POPC   GL259366  24.016   4.816   5.927
 4637POPC   C1A59367  23.593   5.070   6.258
 4637POPC   D2A59368  23.384   5.008   6.655
 4637POPC   C3A59369  23.533   5.234   7.019
 4637POPC   C4A59370  23.600   5.190   7.491
 4637POPC   C1B59371  24.006   4.786   6.342
 4637POPC   C2B59372  23.946   5.020   6.716
 4637POPC   C3B59373  23.935   4.953   7.161
 4637POPC   C4B59374  24.093   5.031   7.557
 4638POPC   NC359375  24.626  18.313   5.358
 4638POPC   PO459376  24.104  17.975   5.135
 4638POPC   GL159377  24.201  18.027   5.634
 4638POPC   GL259378  24.388  18.320   5.829
 4638POPC   C1A59379  24.329  17.882   6.090
 4638POPC   D2A59380  24.414  17.766   6.547
 4638POPC   C3A59381  24.647  18.042   6.861
 4638POPC   C4A59382  24.667  18.129   7.320
 4638POPC   C1B59383  24.566  18.334   6.297
 4638POPC   C2B59384  24.342  18.422   6.727
 4638POPC   C3B59385  24.318  18.496   7.205
 4638POPC   C4B59386  24.056  18.670   7.596
 4639POPC   NC359387  20.652  44.056   5.302
 4639POPC   PO459388  20.568  43.463   5.370
 4639POPC   GL159389  20.615  43.845   5.747
 4639POPC   GL259390  20.558  44.215   5.789
 4639POPC   C1A59391  20.649  43.927   6.206
 4639POPC   D2A59392  20.428  43.691   6.527
 4639POPC   C3A59393  20.707  43.596   6.873
 4639POPC   C4A59394  20.645  43.819   7.265
 4639POPC   C1B59395  20.348  44.345   6.186
 4639POPC   C2B59396  20.489  44.260   6.606
 4639POPC   C3B59397  20.325  44.153   7.023
 4639POPC   C4B59398  20.344  44.375   7.408
 4640POPC   NC359399  17.197  25.015   5.449
 4640POPC   PO459400  17.753  25.454   5.345
 4640POPC   GL159401  17.522  25.602   5.728
 4640POPC   GL259402  17.521  25.256   5.860
 4640POPC   C1A59403  17.571  25.702   6.191
 4640POPC   D2A59404  17.859  25.600   6.580
 4640POPC   C3A59405  17.643  25.558   7.010
 4640POPC   C4A59406  17.556  25.402   7.453
 4640POPC   C1B59407  17.245  25.322   6.222
 4640POPC   C2B59408  17.288  25.260   6.687
 4640POPC   C3B59409  17.173  25.304   7.131
 4640POPC   C4B59410  17.138  25.142   7.573
 4641POPC   NC359411  28.451  40.225   5.466
 4641POPC   PO459412  28.078  39.658   5.439
 4641POPC   GL159413  28.302  39.818   5.825
 4641POPC   GL259414  28.545  40.107   5.942
 4641POPC   C1A59415  28.433  39.718   6.242
 4641POPC   D2A59416  28.609  40.048   6.490
 4641POPC   C3A59417  28.569  39.957   6.917
 4641POPC   C4A59418  28.304  39.691   7.144
 4641POPC   C1B59419  28.210  40.213   6.202
 4641POPC   C2B59420  28.135  40.190   6.655
 4641POPC   C3B59421  28.279  40.355   7.034
 4641POPC   C4B59422  28.564  40.264   7.336
 4642POPC   NC359423  42.401  28.712   5.186
 4642POPC   PO459424  42.637  28.219   5.592
 4642POPC   GL159425  42.350  28.453   5.832
 4642POPC   GL259426  42.111  28.201   5.895
 4642POPC   C1A59427  42.497  28.615   6.235
 4642POPC   D2A59428  42.488  28.390   6.631
 4642POPC   C3A59429  42.511  28.545   7.029
 4642POPC   C4A59430  42.742  28.297   7.278
 4642POPC   C1B59431  42.070  28.334   6.327
 4642POPC   C2B59432  41.963  28.330   6.770
 4642POPC   C3B59433  42.029  28.402   7.209
 4642POPC   C4B59434  42.025  28.358   7.692
 4643POPC   NC359435  44.663  33.156   5.464
 4643POPC   PO459436  44.823  32.489   5.481
 4643POPC   GL159437  44.814  32.816   5.833
 4643POPC   GL259438  44.476  32.978   5.894
 4643POPC   C1A59439  44.927  33.008   6.254
 4643POPC   D2A59440  44.777  33.025   6.705
 4643POPC   C3A59441  44.904  32.936   7.141
 4643POPC   C4A59442  44.651  33.093   7.503
 4643POPC   C1B59443  44.468  32.724   6.255
 4643POPC   C2B59444  44.301  32.854   6.655
 4643POPC   C3B59445  44.390  32.813   7.110
 4643POPC   C4B59446  44.342  32.676   7.578
 4644POPC   NC359447   3.994   5.618   5.276
 4644POPC   PO459448   4.592   5.892   5.424
 4644POPC   GL159449   4.346   5.741   5.819
 4644POPC   GL259450   3.953   5.801   5.842
 4644POPC   C1A59451   4.447   5.865   6.277
 4644POPC   D2A59452   4.438   5.995   6.739
 4644POPC   C3A59453   4.690   5.837   7.078
 4644POPC   C4A59454   4.418   5.566   7.304
 4644POPC   C1B59455   3.963   6.035   6.269
 4644POPC   C2B59456   3.941   6.127   6.746
 4644POPC   C3B59457   4.038   5.869   7.129
 4644POPC   C4B59458   4.006   5.748   7.594
 4645POPC   NC359459  10.668  12.532   5.274
 4645POPC   PO459460  10.741  13.194   5.009
 4645POPC   GL159461  10.731  13.126   5.533
 4645POPC   GL259462  10.715  12.783   5.732
 4645POPC   C1A59463  10.729  13.208   6.038
 4645POPC   D2A59464  10.438  13.060   6.374
 4645POPC   C3A59465  10.442  13.024   6.840
 4645POPC   C4A59466  10.483  12.879   7.267
 4645POPC   C1B59467  10.695  12.642   6.200
 4645POPC   C2B59468  10.803  12.650   6.671
 4645POPC   C3B59469  10.866  12.391   7.060
 4645POPC   C4B59470  10.785  12.507   7.486
 4646POPC   NC359471   3.965   8.927   5.417
 4646POPC   PO459472   3.471   9.239   5.430
 4646POPC   GL159473   3.350   9.037   5.814
 4646POPC   GL259474   3.714   9.023   5.860
 4646POPC   C1A59475   3.251   9.196   6.251
 4646POPC   D2A59476   3.318   9.029   6.684
 4646POPC   C3A59477   3.430   9.277   7.057
 4646POPC   C4A59478   3.606   9.200   7.455
 4646POPC   C1B59479   3.716   8.935   6.275
 4646POPC   C2B59480   3.704   8.644   6.599
 4646POPC   C3B59481   3.459   8.519   6.939
 4646POPC   C4B59482   3.600   8.717   7.285
 4647POPC   NC359483  26.432  20.794   5.591
 4647POPC   PO459484  26.530  20.208   5.298
 4647POPC   GL159485  26.729  20.418   5.729
 4647POPC   GL259486  26.413  20.382   5.908
 4647POPC   C1A59487  26.720  20.719   6.151
 4647POPC   D2A59488  27.024  20.882   6.467
 4647POPC   C3A59489  26.934  20.892   6.908
 4647POPC   C4A59490  26.748  20.902   7.332
 4647POPC   C1B59491  26.696  20.231   6.217
 4647POPC   C2B59492  26.829  20.410   6.574
 4647POPC   C3B59493  26.714  20.257   6.930
 4647POPC   C4B59494  26.627  20.404   7.325
 4648POPC   NC359495   9.043  29.805   5.141
 4648POPC   PO459496   8.570  29.652   5.473
 4648POPC   GL159497   8.918  29.816   5.726
 4648POPC   GL259498   8.978  30.108   5.852
 4648POPC   C1A59499   9.057  29.712   6.152
 4648POPC   D2A59500   9.038  29.955   6.505
 4648POPC   C3A59501   8.976  29.800   6.937
 4648POPC   C4A59502   9.071  29.949   7.356
 4648POPC   C1B59503   8.758  30.292   6.203
 4648POPC   C2B59504   8.904  30.427   6.606
 4648POPC   C3B59505   8.921  30.331   7.022
 4648POPC   C4B59506   8.613  30.076   7.169
 4649POPC   NC359507  17.450  30.139   5.585
 4649POPC   PO459508  17.117  29.489   5.467
 4649POPC   GL159509  17.138  29.741   5.815
 4649POPC   GL259510  17.496  29.724   5.868
 4649POPC   C1A59511  17.184  29.652   6.256
 4649POPC   D2A59512  17.478  29.701   6.606
 4649POPC   C3A59513  17.389  30.122   6.832
 4649POPC   C4A59514  17.248  30.176   7.259
 4649POPC   C1B59515  17.533  30.044   6.223
 4649POPC   C2B59516  17.833  30.082   6.567
 4649POPC   C3B59517  17.800  29.885   6.992
 4649POPC   C4B59518  17.758  30.135   7.329
 4650POPC   NC359519  44.047  42.965   5.495
 4650POPC   PO459520  43.480  43.195   5.389
 4650POPC   GL159521  43.711  43.264   5.761
 4650POPC   GL259522  43.708  42.915   5.862
 4650POPC   C1A59523  43.947  43.229   6.162
 4650POPC   D2A59524  43.795  43.359   6.538
 4650POPC   C3A59525  43.988  43.269   6.945
 4650POPC   C4A59526  43.866  43.563   7.232
 4650POPC   C1B59527  43.657  42.763   6.245
 4650POPC   C2B59528  43.900  42.842   6.577
 4650POPC   C3B59529  43.863  42.784   6.979
 4650POPC   C4B59530  44.032  42.910   7.365
 4651POPC   NC359531  39.638  18.366   5.579
 4651POPC   PO459532  39.004  18.183   5.497
 4651POPC   GL159533  38.967  18.088   5.897
 4651POPC   GL259534  39.220  18.380   5.948
 4651POPC   C1A59535  38.900  18.209   6.311
 4651POPC   D2A59536  39.180  18.493   6.517
 4651POPC   C3A59537  39.162  18.316   6.910
 4651POPC   C4A59538  38.844  18.175   7.143
 4651POPC   C1B59539  39.417  18.091   6.235
 4651POPC   C2B59540  39.608  18.184   6.634
 4651POPC   C3B59541  39.629  18.500   6.960
 4651POPC   C4B59542  39.439  18.399   7.349
 4652POPC   NC359543  29.341  13.828   5.473
 4652POPC   PO459544  28.709  13.585   5.358
 4652POPC   GL159545  28.986  13.494   5.753
 4652POPC   GL259546  29.237  13.702   5.972
 4652POPC   C1A59547  28.900  13.407   6.211
 4652POPC   D2A59548  29.105  13.656   6.574
 4652POPC   C3A59549  29.081  13.541   7.033
 4652POPC   C4A59550  29.259  13.700   7.427
 4652POPC   C1B59551  29.390  13.344   6.244
 4652POPC   C2B59552  29.472  13.245   6.678
 4652POPC   C3B59553  29.298  13.080   7.057
 4652POPC   C4B59554  29.276  13.188   7.513
 4653POPC   NC359555   5.170  29.995   5.522
 4653POPC   PO459556   5.358  29.394   5.402
 4653POPC   GL159557   5.088  29.556   5.742
 4653POPC   GL259558   5.359  29.701   5.905
 4653POPC   C1A59559   4.896  29.796   6.080
 4653POPC   D2A59560   4.871  29.753   6.514
 4653POPC   C3A59561   4.854  30.103   6.803
 4653POPC   C4A59562   4.793  29.983   7.213
 4653POPC   C1B59563   5.334  29.964   6.301
 4653POPC   C2B59564   5.310  29.881   6.751
 4653POPC   C3B59565   5.311  29.952   7.190
 4653POPC   C4B59566   5.540  29.711   7.492
 4654POPC   NC359567   8.585  39.900   5.574
 4654POPC   PO459568   8.000  40.192   5.426
 4654POPC   GL159569   8.150  40.059   5.837
 4654POPC   GL259570   8.032  39.792   6.054
 4654POPC   C1A59571   8.361  40.162   6.223
 4654POPC   D2A59572   8.273  40.439   6.576
 4654POPC   C3A59573   8.291  40.258   6.955
 4654POPC   C4A59574   8.382  40.268   7.375
 4654POPC   C1B59575   7.865  39.431   6.242
 4654POPC   C2B59576   7.756  39.480   6.683
 4654POPC   C3B59577   8.049  39.713   6.944
 4654POPC   C4B59578   7.993  39.947   7.309
 4655POPC   NC359579  34.410  32.731   5.460
 4655POPC   PO459580  34.647  32.035   5.486
 4655POPC   GL159581  34.556  32.185   5.861
 4655POPC   GL259582  34.276  32.384   5.823
 4655POPC   C1A59583  34.632  32.121   6.289
 4655POPC   D2A59584  34.722  31.838   6.620
 4655POPC   C3A59585  34.556  31.959   6.962
 4655POPC   C4A59586  34.782  32.329   7.078
 4655POPC   C1B59587  34.192  32.476   6.265
 4655POPC   C2B59588  34.379  32.369   6.665
 4655POPC   C3B59589  34.223  32.319   7.069
 4655POPC   C4B59590  34.157  32.572   7.390
 4656POPC   NC359591  42.600  36.316   5.325
 4656POPC   PO459592  42.072  36.088   5.364
 4656POPC   GL159593  42.222  36.168   5.782
 4656POPC   GL259594  42.550  36.101   5.881
 4656POPC   C1A59595  42.162  36.076   6.222
 4656POPC   D2A59596  42.444  36.023   6.571
 4656POPC   C3A59597  42.365  36.150   6.983
 4656POPC   C4A59598  42.353  35.896   7.337
 4656POPC   C1B59599  42.579  36.392   6.236
 4656POPC   C2B59600  42.634  36.481   6.681
 4656POPC   C3B59601  42.770  36.491   7.128
 4656POPC   C4B59602  42.537  36.402   7.469
 4657POPC   NC359603  42.743  28.676   5.593
 4657POPC   PO459604  43.270  28.393   5.207
 4657POPC   GL159605  43.174  28.325   5.647
 4657POPC   GL259606  43.256  28.643   5.757
 4657POPC   C1A59607  43.027  28.304   6.109
 4657POPC   D2A59608  42.922  28.132   6.512
 4657POPC   C3A59609  43.209  28.071   6.826
 4657POPC   C4A59610  43.179  28.059   7.285
 4657POPC   C1B59611  43.251  28.778   6.181
 4657POPC   C2B59612  42.948  28.681   6.511
 4657POPC   C3B59613  43.024  28.569   6.942
 4657POPC   C4B59614  43.254  28.872   7.200
 4658POPC   NC359615  29.308  27.065   5.504
 4658POPC   PO459616  29.028  26.399   5.466
 4658POPC   GL159617  28.988  26.516   5.894
 4658POPC   GL259618  28.987  26.883   5.860
 4658POPC   C1A59619  29.203  26.626   6.296
 4658POPC   D2A59620  29.461  26.720   6.690
 4658POPC   C3A59621  29.287  26.555   7.073
 4658POPC   C4A59622  28.939  26.547   7.385
 4658POPC   C1B59623  28.884  27.187   6.171
 4658POPC   C2B59624  28.878  27.109   6.623
 4658POPC   C3B59625  29.191  27.051   6.989
 4658POPC   C4B59626  29.191  26.957   7.481
 4659POPC   NC359627  23.137   8.993   5.423
 4659POPC   PO459628  22.544   8.796   5.562
 4659POPC   GL159629  22.763   9.058   5.861
 4659POPC   GL259630  23.144   9.060   5.916
 4659POPC   C1A59631  22.831   8.931   6.302
 4659POPC   D2A59632  22.810   9.213   6.657
 4659POPC   C3A59633  22.791   9.050   7.065
 4659POPC   C4A59634  22.695   9.089   7.510
 4659POPC   C1B59635  23.332   9.022   6.314
 4659POPC   C2B59636  23.200   8.893   6.704
 4659POPC   C3B59637  23.160   8.672   7.071
 4659POPC   C4B59638  23.158   8.924   7.439
 4660POPC   NC359639  19.042  34.633   5.405
 4660POPC   PO459640  18.806  34.176   5.805
 4660POPC   GL159641  18.957  34.575   5.935
 4660POPC   GL259642  19.303  34.569   5.885
 4660POPC   C1A59643  19.089  34.678   6.367
 4660POPC   D2A59644  19.148  34.526   6.759
 4660POPC   C3A59645  18.850  34.239   6.926
 4660POPC   C4A59646  18.609  34.174   7.288
 4660POPC   C1B59647  19.480  34.924   6.178
 4660POPC   C2B59648  19.617  35.019   6.616
 4660POPC   C3B59649  19.505  34.799   7.005
 4660POPC   C4B59650  19.118  34.700   7.230
 4661POPC   NC359651  15.578  19.970   5.679
 4661POPC   PO459652  16.045  19.576   5.319
 4661POPC   GL159653  15.927  19.599   5.769
 4661POPC   GL259654  16.079  19.899   5.959
 4661POPC   C1A59655  15.887  19.515   6.222
 4661POPC   D2A59656  16.079  19.743   6.556
 4661POPC   C3A59657  15.874  19.706   6.945
 4661POPC   C4A59658  16.087  19.456   7.258
 4661POPC   C1B59659  15.732  20.008   6.291
 4661POPC   C2B59660  15.552  20.078   6.682
 4661POPC   C3B59661  15.714  20.211   7.052
 4661POPC   C4B59662  15.991  20.074   7.362
 4662POPC   NC359663  29.371  37.108   5.239
 4662POPC   PO459664  30.088  36.955   5.246
 4662POPC   GL159665  29.840  36.846   5.627
 4662POPC   GL259666  30.070  36.962   5.852
 4662POPC   C1A59667  29.657  36.785   6.096
 4662POPC   D2A59668  29.434  36.665   6.529
 4662POPC   C3A59669  29.648  36.741   6.948
 4662POPC   C4A59670  29.923  36.985   7.207
 4662POPC   C1B59671  29.990  37.133   6.267
 4662POPC   C2B59672  30.022  36.967   6.662
 4662POPC   C3B59673  30.348  37.025   6.925
 4662POPC   C4B59674  30.449  36.967   7.335
 4663POPC   NC359675  24.808   1.375   5.377
 4663POPC   PO459676  25.375   0.957   5.461
 4663POPC   GL159677  25.081   1.157   5.799
 4663POPC   GL259678  25.080   1.519   5.810
 4663POPC   C1A59679  25.090   1.159   6.270
 4663POPC   D2A59680  25.347   1.435   6.568
 4663POPC   C3A59681  25.611   1.256   6.893
 4663POPC   C4A59682  25.569   0.868   7.182
 4663POPC   C1B59683  25.011   1.672   6.214
 4663POPC   C2B59684  24.833   1.513   6.590
 4663POPC   C3B59685  25.025   1.436   7.004
 4663POPC   C4B59686  25.340   1.349   7.317
 4664POPC   NC359687  31.156  35.057   5.464
 4664POPC   PO459688  31.508  35.500   5.196
 4664POPC   GL159689  31.466  35.491   5.679
 4664POPC   GL259690  31.658  35.200   5.787
 4664POPC   C1A59691  31.370  35.386   6.155
 4664POPC   D2A59692  31.337  35.149   6.569
 4664POPC   C3A59693  31.464  35.379   6.971
 4664POPC   C4A59694  31.744  35.474   7.316
 4664POPC   C1B59695  31.723  34.993   6.228
 4664POPC   C2B59696  31.823  35.117   6.685
 4664POPC   C3B59697  31.778  34.995   7.128
 4664POPC   C4B59698  31.788  34.815   7.553
 4665POPC   NC359699   2.622  10.546   5.298
 4665POPC   PO459700   3.183  10.711   5.502
 4665POPC   GL159701   2.861  10.670   5.811
 4665POPC   GL259702   2.563  10.417   5.794
 4665POPC   C1A59703   2.978  10.723   6.229
 4665POPC   D2A59704   2.937  10.530   6.591
 4665POPC   C3A59705   2.635  10.715   6.765
 4665POPC   C4A59706   2.604  10.723   7.170
 4665POPC   C1B59707   2.497  10.544   6.234
 4665POPC   C2B59708   2.505  10.257   6.582
 4665POPC   C3B59709   2.704  10.247   6.981
 4665POPC   C4B59710   2.894  10.161   7.356
 4666POPC   NC359711  19.342  20.156   5.204
 4666POPC   PO459712  18.905  19.750   5.493
 4666POPC   GL159713  18.909  19.743   5.918
 4666POPC   GL259714  18.946  20.102   5.946
 4666POPC   C1A59715  18.996  19.792   6.366
 4666POPC   D2A59716  18.851  19.930   6.742
 4666POPC   C3A59717  18.965  19.805   7.140
 4666POPC   C4A59718  18.706  19.779   7.497
 4666POPC   C1B59719  19.334  20.138   6.224
 4666POPC   C2B59720  19.334  20.138   6.709
 4666POPC   C3B59721  19.245  20.266   7.145
 4666POPC   C4B59722  19.191  20.050   7.547
 4667POPC   NC359723   0.666  17.698   5.476
 4667POPC   PO459724   1.343  17.498   5.379
 4667POPC   GL159725   1.083  17.540   5.735
 4667POPC   GL259726   1.071  17.233   5.918
 4667POPC   C1A59727   0.974  17.758   6.133
 4667POPC   D2A59728   1.038  17.608   6.553
 4667POPC   C3A59729   1.253  17.643   6.947
 4667POPC   C4A59730   1.266  17.259   7.218
 4667POPC   C1B59731   0.756  17.296   6.271
 4667POPC   C2B59732   0.702  17.121   6.732
 4667POPC   C3B59733   0.738  17.140   7.227
 4667POPC   C4B59734   0.969  17.344   7.631
 4668POPC   NC359735  42.174  34.777   5.565
 4668POPC   PO459736  42.723  34.353   5.385
 4668POPC   GL159737  42.604  34.491   5.774
 4668POPC   GL259738  42.310  34.331   5.829
 4668POPC   C1A59739  42.490  34.774   6.123
 4668POPC   D2A59740  42.283  34.780   6.531
 4668POPC   C3A59741  42.473  34.510   6.864
 4668POPC   C4A59742  42.594  34.598   7.288
 4668POPC   C1B59743  42.095  34.427   6.174
 4668POPC   C2B59744  41.888  34.381   6.526
 4668POPC   C3B59745  41.941  34.588   6.890
 4668POPC   C4B59746  42.111  34.432   7.246
 4669POPC   NC359747  14.228  42.005   5.654
 4669POPC   PO459748  14.788  42.417   5.429
 4669POPC   GL159749  14.763  42.615   5.829
 4669POPC   GL259750  14.447  42.432   5.880
 4669POPC   C1A59751  14.655  42.675   6.272
 4669POPC   D2A59752  14.395  42.468   6.609
 4669POPC   C3A59753  14.344  42.440   7.078
 4669POPC   C4A59754  14.334  42.565   7.506
 4669POPC   C1B59755  14.789  42.157   6.062
 4669POPC   C2B59756  14.892  42.223   6.493
 4669POPC   C3B59757  14.704  42.126   6.907
 4669POPC   C4B59758  14.810  42.325   7.337
 4670POPC   NC359759  43.770   4.975   5.437
 4670POPC   PO459760  44.102   5.520   5.648
 4670POPC   GL159761  44.002   5.119   5.879
 4670POPC   GL259762  43.614   5.067   5.908
 4670POPC   C1A59763  43.929   5.071   6.321
 4670POPC   D2A59764  43.731   4.982   6.720
 4670POPC   C3A59765  43.962   5.130   7.082
 4670POPC   C4A59766  43.980   5.445   7.376
 4670POPC   C1B59767  43.459   4.854   6.265
 4670POPC   C2B59768  43.610   4.524   6.523
 4670POPC   C3B59769  43.495   4.518   6.937
 4670POPC   C4B59770  43.568   4.847   7.208
 4671POPC   NC359771  44.057  37.439   5.338
 4671POPC   PO459772  43.575  37.767   5.722
 4671POPC   GL159773  43.835  37.470   5.834
 4671POPC   GL259774  44.138  37.723   5.775
 4671POPC   C1A59775  43.656  37.370   6.256
 4671POPC   D2A59776  43.359  37.640   6.500
 4671POPC   C3A59777  43.630  37.733   6.830
 4671POPC   C4A59778  43.691  37.468   7.172
 4671POPC   C1B59779  44.247  37.452   6.118
 4671POPC   C2B59780  44.098  37.473   6.522
 4671POPC   C3B59781  44.123  37.548   6.931
 4671POPC   C4B59782  44.015  37.864   7.196
 4672POPC   NC359783   5.441  22.255   5.382
 4672POPC   PO459784   4.719  22.150   5.389
 4672POPC   GL159785   4.999  22.352   5.699
 4672POPC   GL259786   5.198  22.069   5.782
 4672POPC   C1A59787   5.065  22.428   6.152
 4672POPC   D2A59788   5.004  22.226   6.546
 4672POPC   C3A59789   5.195  22.387   6.905
 4672POPC   C4A59790   5.061  22.159   7.227
 4672POPC   C1B59791   5.357  21.971   6.165
 4672POPC   C2B59792   5.502  22.089   6.557
 4672POPC   C3B59793   5.342  21.870   6.908
 4672POPC   C4B59794   5.491  21.890   7.314
 4673POPC   NC359795  10.185   8.038   5.513
 4673POPC   PO459796  10.869   8.110   5.509
 4673POPC   GL159797  10.695   8.293   5.897
 4673POPC   GL259798  10.351   8.430   5.822
 4673POPC   C1A59799  10.742   8.397   6.353
 4673POPC   D2A59800  10.558   8.207   6.744
 4673POPC   C3A59801  10.640   8.226   7.193
 4673POPC   C4A59802  10.921   8.152   7.602
 4673POPC   C1B59803  10.217   8.322   6.238
 4673POPC   C2B59804  10.131   8.476   6.637
 4673POPC   C3B59805  10.106   8.275   7.047
 4673POPC   C4B59806  10.261   7.847   7.133
 4674POPC   NC359807  28.694  35.310   5.633
 4674POPC   PO459808  29.155  35.772   5.400
 4674POPC   GL159809  29.154  35.571   5.834
 4674POPC   GL259810  29.089  35.217   5.957
 4674POPC   C1A59811  29.107  35.542   6.310
 4674POPC   D2A59812  29.353  35.422   6.612
 4674POPC   C3A59813  29.149  35.519   7.007
 4674POPC   C4A59814  29.087  35.491   7.441
 4674POPC   C1B59815  29.106  34.999   6.363
 4674POPC   C2B59816  28.930  35.137   6.737
 4674POPC   C3B59817  28.966  35.064   7.177
 4674POPC   C4B59818  29.296  34.965   7.452
 4675POPC   NC359819  28.608  16.275   5.571
 4675POPC   PO459820  28.341  16.908   5.594
 4675POPC   GL159821  28.399  16.616   5.901
 4675POPC   GL259822  28.123  16.423   5.787
 4675POPC   C1A59823  28.522  16.739   6.303
 4675POPC   D2A59824  28.543  17.040   6.635
 4675POPC   C3A59825  28.395  16.862   7.030
 4675POPC   C4A59826  28.515  16.582   7.353
 4675POPC   C1B59827  27.943  16.226   6.150
 4675POPC   C2B59828  27.873  16.432   6.535
 4675POPC   C3B59829  28.073  16.443   6.926
 4675POPC   C4B59830  28.015  16.642   7.304
 4676POPC   NC359831  34.001   8.608   5.539
 4676POPC   PO459832  33.527   9.041   5.333
 4676POPC   GL159833  33.621   9.049   5.766
 4676POPC   GL259834  33.958   9.108   5.783
 4676POPC   C1A59835  33.639   9.190   6.207
 4676POPC   D2A59836  33.645   8.929   6.594
 4676POPC   C3A59837  33.446   9.032   6.985
 4676POPC   C4A59838  33.386   9.220   7.394
 4676POPC   C1B59839  34.006   8.840   6.160
 4676POPC   C2B59840  34.144   8.848   6.604
 4676POPC   C3B59841  34.013   9.085   6.958
 4676POPC   C4B59842  33.862   9.074   7.344
 4677POPC   NC359843  13.659   2.499   5.455
 4677POPC   PO459844  13.199   3.010   5.611
 4677POPC   GL159845  13.298   2.768   5.962
 4677POPC   GL259846  13.359   2.417   5.872
 4677POPC   C1A59847  13.434   2.904   6.375
 4677POPC   D2A59848  13.470   3.138   6.747
 4677POPC   C3A59849  13.768   2.987   7.071
 4677POPC   C4A59850  13.753   3.054   7.533
 4677POPC   C1B59851  13.670   2.478   6.211
 4677POPC   C2B59852  13.872   2.640   6.590
 4677POPC   C3B59853  13.739   2.489   6.973
 4677POPC   C4B59854  13.387   2.348   7.198
 4678POPC   NC359855  44.688  21.684   5.469
 4678POPC   PO459856  44.977  21.029   5.445
 4678POPC   GL159857  44.748  21.184   5.786
 4678POPC   GL259858  44.557  21.492   5.909
 4678POPC   C1A59859  44.877  21.238   6.199
 4678POPC   D2A59860  44.769  21.486   6.538
 4678POPC   C3A59861  44.889  21.294   6.926
 4678POPC   C4A59862  44.838  21.084   7.348
 4678POPC   C1B59863  44.342  21.614   6.281
 4678POPC   C2B59864  44.282  21.353   6.634
 4678POPC   C3B59865  44.374  21.337   7.020
 4678POPC   C4B59866  44.231  21.709   7.112
 4679POPC   NC359867   8.948  39.639   5.144
 4679POPC   PO459868   8.997  40.242   5.472
 4679POPC   GL159869   9.033  39.922   5.834
 4679POPC   GL259870   9.356  39.806   5.929
 4679POPC   C1A59871   8.760  39.788   6.226
 4679POPC   D2A59872   8.470  39.793   6.617
 4679POPC   C3A59873   8.648  39.910   7.039
 4679POPC   C4A59874   8.741  39.939   7.505
 4679POPC   C1B59875   9.260  39.747   6.325
 4679POPC   C2B59876   9.060  39.796   6.749
 4679POPC   C3B59877   9.145  39.927   7.187
 4679POPC   C4B59878   9.242  39.738   7.598
 4680POPC   NC359879  40.163  21.657   5.371
 4680POPC   PO459880  40.019  22.261   5.344
 4680POPC   GL159881  40.066  22.059   5.741
 4680POPC   GL259882  39.772  21.965   5.855
 4680POPC   C1A59883  40.121  22.339   6.107
 4680POPC   D2A59884  40.256  22.332   6.547
 4680POPC   C3A59885  39.943  22.353   6.911
 4680POPC   C4A59886  40.170  22.350   7.226
 4680POPC   C1B59887  40.013  21.853   6.220
 4680POPC   C2B59888  39.930  21.947   6.626
 4680POPC   C3B59889  40.135  21.879   7.026
 4680POPC   C4B59890  39.883  21.977   7.405
 4681POPC   NC359891  42.639  31.482   5.222
 4681POPC   PO459892  42.130  31.800   5.650
 4681POPC   GL159893  42.289  31.373   5.712
 4681POPC   GL259894  42.619  31.310   5.818
 4681POPC   C1A59895  42.163  31.174   6.096
 4681POPC   D2A59896  41.889  31.375   6.400
 4681POPC   C3A59897  42.142  31.559   6.738
 4681POPC   C4A59898  42.221  31.475   7.182
 4681POPC   C1B59899  42.566  31.538   6.239
 4681POPC   C2B59900  42.510  31.882   6.524
 4681POPC   C3B59901  42.477  31.903   6.951
 4681POPC   C4B59902  42.717  31.760   7.250
 4682POPC   NC359903  18.827  38.206   5.669
 4682POPC   PO459904  19.307  38.577   5.465
 4682POPC   GL159905  19.172  38.543   5.886
 4682POPC   GL259906  18.838  38.629   5.928
 4682POPC   C1A59907  19.112  38.321   6.296
 4682POPC   D2A59908  19.345  38.049   6.619
 4682POPC   C3A59909  19.290  38.251   7.029
 4682POPC   C4A59910  19.081  38.659   7.131
 4682POPC   C1B59911  18.573  38.504   6.263
 4682POPC   C2B59912  18.570  38.410   6.700
 4682POPC   C3B59913  18.563  38.600   7.125
 4682POPC   C4B59914  18.771  38.523   7.519
 4683POPC   NC359915   9.469  17.036   5.505
 4683POPC   PO459916   9.616  16.476   5.132
 4683POPC   GL159917   9.680  16.522   5.645
 4683POPC   GL259918  10.039  16.467   5.769
 4683POPC   C1A59919   9.659  16.691   6.119
 4683POPC   D2A59920   9.544  16.887   6.544
 4683POPC   C3A59921   9.546  16.738   6.996
 4683POPC   C4A59922   9.630  16.847   7.472
 4683POPC   C1B59923  10.155  16.798   6.117
 4683POPC   C2B59924  10.054  16.948   6.501
 4683POPC   C3B59925  10.056  16.834   6.918
 4683POPC   C4B59926  10.117  16.986   7.327
 4684POPC   NC359927  27.270  44.831   5.472
 4684POPC   PO459928  27.942  44.641   5.469
 4684POPC   GL159929  27.619  44.569   5.763
 4684POPC   GL259930  27.560  44.892   5.914
 4684POPC   C1A59931  27.546  44.445   6.194
 4684POPC   D2A59932  27.451  44.817   6.478
 4684POPC   C3A59933  27.571  44.866   6.926
 4684POPC   C4A59934  27.499  44.548   7.228
 4684POPC   C1B59935  27.892  44.818   6.217
 4684POPC   C2B59936  27.916  44.551   6.603
 4684POPC   C3B59937  28.014  44.494   7.059
 4684POPC   C4B59938  27.930  44.717   7.475
 4685POPC   NC359939  15.065  31.869   5.145
 4685POPC   PO459940  15.028  31.291   5.437
 4685POPC   GL159941  15.160  31.453   5.837
 4685POPC   GL259942  14.908  31.719   5.879
 4685POPC   C1A59943  15.331  31.659   6.230
 4685POPC   D2A59944  15.206  31.611   6.638
 4685POPC   C3A59945  15.361  31.781   7.015
 4685POPC   C4A59946  15.519  31.530   7.334
 4685POPC   C1B59947  14.817  31.546   6.281
 4685POPC   C2B59948  14.612  31.578   6.696
 4685POPC   C3B59949  14.906  31.525   7.053
 4685POPC   C4B59950  15.030  31.445   7.504
 4686POPC   NC359951  27.873  10.284   5.537
 4686POPC   PO459952  27.781   9.639   5.465
 4686POPC   GL159953  27.661   9.685   5.887
 4686POPC   GL259954  27.644   9.986   5.893
 4686POPC   C1A59955  27.462   9.653   6.317
 4686POPC   D2A59956  27.420   9.877   6.703
 4686POPC   C3A59957  27.534   9.681   7.099
 4686POPC   C4A59958  27.217   9.399   7.277
 4686POPC   C1B59959  27.619  10.164   6.296
 4686POPC   C2B59960  27.444  10.428   6.619
 4686POPC   C3B59961  27.509  10.257   7.017
 4686POPC   C4B59962  27.889  10.250   7.248
 4687POPC   NC359963   1.484  43.889   5.500
 4687POPC   PO459964   2.041  43.574   5.428
 4687POPC   GL159965   1.910  43.781   5.779
 4687POPC   GL259966   2.038  44.108   5.841
 4687POPC   C1A59967   1.800  43.812   6.196
 4687POPC   D2A59968   1.917  44.074   6.541
 4687POPC   C3A59969   1.886  43.835   6.916
 4687POPC   C4A59970   1.891  44.087   7.238
 4687POPC   C1B59971   2.301  43.960   6.204
 4687POPC   C2B59972   2.176  43.624   6.535
 4687POPC   C3B59973   2.297  43.511   6.964
 4687POPC   C4B59974   2.294  43.776   7.318
 4688POPC   NC359975   9.210  44.588   5.438
 4688POPC   PO459976   8.489  44.861   5.338
 4688POPC   GL159977   8.653  44.789   5.856
 4688POPC   GL259978   8.958  44.571   5.872
 4688POPC   C1A59979   8.850  44.808   6.307
 4688POPC   D2A59980   9.080   0.001   6.660
 4688POPC   C3A59981   8.863  44.941   7.034
 4688POPC   C4A59982   8.817  44.814   7.480
 4688POPC   C1B59983   8.959  44.305   6.220
 4688POPC   C2B59984   8.758  44.287   6.626
 4688POPC   C3B59985   8.816  44.436   7.049
 4688POPC   C4B59986   9.113  44.367   7.393
 4689POPC   NC359987   5.691   7.526   5.463
 4689POPC   PO459988   6.282   7.781   5.590
 4689POPC   GL159989   6.056   7.474   5.859
 4689POPC   GL259990   5.687   7.426   5.965
 4689POPC   C1A59991   6.068   7.454   6.301
 4689POPC   D2A59992   5.787   7.694   6.544
 4689POPC   C3A59993   5.976   7.658   6.887
 4689POPC   C4A59994   6.129   7.454   7.192
 4689POPC   C1B59995   5.597   7.247   6.349
 4689POPC   C2B59996   5.790   7.202   6.758
 4689POPC   C3B59997   5.635   7.315   7.180
 4689POPC   C4B59998   5.504   7.160   7.587
 4690POPC   NC359999   6.697  16.965   5.424
 4690POPC   PO460000   7.033  16.346   5.288
 4690POPC   GL160001   6.851  16.423   5.728
 4690POPC   GL260002   6.809  16.744   5.871
 4690POPC   C1A60003   6.799  16.357   6.198
 4690POPC   D2A60004   6.568  16.411   6.564
 4690POPC   C3A60005   6.768  16.491   6.941
 4690POPC   C4A60006   6.695  16.476   7.362
 4690POPC   C1B60007   6.561  16.821   6.243
 4690POPC   C2B60008   6.650  16.908   6.666
 4690POPC   C3B60009   6.894  16.970   7.045
 4690POPC   C4B60010   6.689  16.999   7.405
 4691POPC   NC360011  34.908   0.602   5.562
 4691POPC   PO460012  34.442   1.089   5.366
 4691POPC   GL160013  34.542   1.198   5.789
 4691POPC   GL260014  34.748   0.952   5.916
 4691POPC   C1A60015  34.262   1.230   6.156
 4691POPC   D2A60016  34.204   1.150   6.615
 4691POPC   C3A60017  34.553   1.321   6.870
 4691POPC   C4A60018  34.610   1.504   7.296
 4691POPC   C1B60019  34.632   0.939   6.366
 4691POPC   C2B60020  34.398   0.670   6.630
 4691POPC   C3B60021  34.284   0.824   7.039
 4691POPC   C4B60022  34.633   1.000   7.269
 4692POPC   NC360023   5.424   9.194   5.626
 4692POPC   PO460024   5.087   8.669   5.423
 4692POPC   GL160025   5.047   8.834   5.867
 4692POPC   GL260026   4.989   9.197   5.958
 4692POPC   C1A60027   5.342   8.944   6.235
 4692POPC   D2A60028   5.482   9.035   6.659
 4692POPC   C3A60029   5.206   8.777   6.892
 4692POPC   C4A60030   5.100   8.790   7.287
 4692POPC   C1B60031   4.747   9.500   6.208
 4692POPC   C2B60032   4.763   9.425   6.650
 4692POPC   C3B60033   4.882   9.155   6.979
 4692POPC   C4B60034   4.842   9.225   7.417
 4693POPC   NC360035  22.274  32.862   5.356
 4693POPC   PO460036  21.927  33.430   5.367
 4693POPC   GL160037  22.275  33.276   5.674
 4693POPC   GL260038  22.176  32.950   5.845
 4693POPC   C1A60039  22.534  33.274   6.067
 4693POPC   D2A60040  22.463  33.459   6.484
 4693POPC   C3A60041  22.386  33.250   6.873
 4693POPC   C4A60042  22.358  33.458   7.274
 4693POPC   C1B60043  22.042  32.867   6.258
 4693POPC   C2B60044  21.863  32.866   6.668
 4693POPC   C3B60045  21.763  32.888   7.087
 4693POPC   C4B60046  22.152  32.993   7.255
 4694POPC   NC360047  11.778  16.032   5.259
 4694POPC   PO460048  11.234  15.753   5.095
 4694POPC   GL160049  11.476  15.837   5.616
 4694POPC   GL260050  11.337  16.114   5.859
 4694POPC   C1A60051  11.496  15.741   6.139
 4694POPC   D2A60052  11.362  15.947   6.579
 4694POPC   C3A60053  11.196  15.831   7.005
 4694POPC   C4A60054  11.543  15.924   7.283
 4694POPC   C1B60055  11.078  16.239   6.256
 4694POPC   C2B60056  11.019  16.334   6.725
 4694POPC   C3B60057  11.298  16.314   7.067
 4694POPC   C4B60058  11.238  16.247   7.522
 4695POPC   NC360059  26.839   4.038   5.584
 4695POPC   PO460060  27.059   3.438   5.484
 4695POPC   GL160061  26.768   3.578   5.813
 4695POPC   GL260062  26.922   3.786   6.087
 4695POPC   C1A60063  26.505   3.471   6.168
 4695POPC   D2A60064  26.645   3.278   6.549
 4695POPC   C3A60065  26.810   3.445   6.928
 4695POPC   C4A60066  26.608   3.555   7.299
 4695POPC   C1B60067  27.021   3.350   6.211
 4695POPC   C2B60068  27.147   3.179   6.623
 4695POPC   C3B60069  27.305   3.300   7.036
 4695POPC   C4B60070  27.013   3.262   7.395
 4696POPC   NC360071  41.336  27.153   5.351
 4696POPC   PO460072  41.858  26.738   5.532
 4696POPC   GL160073  41.570  26.965   5.780
 4696POPC   GL260074  41.408  26.700   5.908
 4696POPC   C1A60075  41.660  27.039   6.214
 4696POPC   D2A60076  41.723  26.840   6.616
 4696POPC   C3A60077  41.679  27.105   6.977
 4696POPC   C4A60078  41.602  26.987   7.416
 4696POPC   C1B60079  41.253  26.400   6.208
 4696POPC   C2B60080  41.408  26.370   6.646
 4696POPC   C3B60081  41.465  26.642   7.026
 4696POPC   C4B60082  41.248  26.590   7.428
 4697POPC   NC360083  34.008  31.039   5.659
 4697POPC   PO460084  33.757  31.755   5.525
 4697POPC   GL160085  33.852  31.612   5.942
 4697POPC   GL260086  33.817  31.278   6.078
 4697POPC   C1A60087  33.718  31.823   6.328
 4697POPC   D2A60088  33.511  31.926   6.700
 4697POPC   C3A60089  33.562  31.552   6.914
 4697POPC   C4A60090  33.890  31.453   7.186
 4697POPC   C1B60091  33.568  31.251   6.452
 4697POPC   C2B60092  33.358  31.063   6.783
 4697POPC   C3B60093  33.461  30.906   7.169
 4697POPC   C4B60094  33.651  31.174   7.504
 4698POPC   NC360095  38.940  24.909   5.224
 4698POPC   PO460096  39.435  24.398   5.487
 4698POPC   GL160097  39.346  24.560   5.854
 4698POPC   GL260098  39.012  24.562   5.880
 4698POPC   C1A60099  39.498  24.451   6.241
 4698POPC   D2A60100  39.609  24.277   6.637
 4698POPC   C3A60101  39.430  24.442   6.989
 4698POPC   C4A60102  39.226  24.624   7.348
 4698POPC   C1B60103  38.990  24.398   6.315
 4698POPC   C2B60104  38.952  24.408   6.788
 4698POPC   C3B60105  39.000  24.188   7.177
 4698POPC   C4B60106  38.957  24.301   7.633
 4699POPC   NC360107  22.483  38.736   4.932
 4699POPC   PO460108  22.098  38.633   5.490
 4699POPC   GL160109  22.153  38.482   5.920
 4699POPC   GL260110  22.495  38.523   5.940
 4699POPC   C1A60111  22.265  38.533   6.377
 4699POPC   D2A60112  22.524  38.487   6.716
 4699POPC   C3A60113  22.196  38.557   6.954
 4699POPC   C4A60114  22.045  38.354   7.308
 4699POPC   C1B60115  22.453  38.104   6.237
 4699POPC   C2B60116  22.291  37.995   6.671
 4699POPC   C3B60117  22.431  38.090   7.087
 4699POPC   C4B60118  22.420  38.077   7.568
 4700POPC   NC360119   6.329  22.714   5.351
 4700POPC   PO460120   6.808  23.221   5.503
 4700POPC   GL160121   6.879  23.048   5.894
 4700POPC   GL260122   6.528  22.943   5.904
 4700POPC   C1A60123   6.835  23.158   6.335
 4700POPC   D2A60124   6.459  23.120   6.569
 4700POPC   C3A60125   6.482  22.949   6.984
 4700POPC   C4A60126   6.609  22.893   7.408
 4700POPC   C1B60127   6.215  22.717   6.190
 4700POPC   C2B60128   6.299  22.621   6.612
 4700POPC   C3B60129   6.263  22.445   7.030
 4700POPC   C4B60130   6.338  22.428   7.500
 4701POPC   NC360131  27.428   5.242   5.552
 4701POPC   PO460132  27.897   4.816   5.461
 4701POPC   GL160133  27.834   5.123   5.829
 4701POPC   GL260134  27.483   5.032   6.003
 4701POPC   C1A60135  27.690   5.473   6.147
 4701POPC   D2A60136  27.554   5.363   6.550
 4701POPC   C3A60137  27.741   5.361   6.942
 4701POPC   C4A60138  27.496   5.179   7.254
 4701POPC   C1B60139  27.270   4.933   6.392
 4701POPC   C2B60140  27.598   4.854   6.641
 4701POPC   C3B60141  27.806   4.850   6.976
 4701POPC   C4B60142  27.724   4.656   7.311
 4702POPC   NC360143  29.492  26.200   5.564
 4702POPC   PO460144  30.151  25.971   5.474
 4702POPC   GL160145  29.881  25.983   5.850
 4702POPC   GL260146  30.144  26.210   5.993
 4702POPC   C1A60147  29.563  26.096   6.213
 4702POPC   D2A60148  29.545  26.204   6.672
 4702POPC   C3A60149  29.860  25.938   6.867
 4702POPC   C4A60150  30.057  25.994   7.231
 4702POPC   C1B60151  30.474  26.198   6.337
 4702POPC   C2B60152  30.404  26.127   6.794
 4702POPC   C3B60153  30.512  26.238   7.210
 4702POPC   C4B60154  30.255  26.326   7.550
 4703POPC   NC360155  27.673  15.446   5.487
 4703POPC   PO460156  27.216  14.943   5.163
 4703POPC   GL160157  27.445  14.980   5.592
 4703POPC   GL260158  27.245  15.206   5.770
 4703POPC   C1A60159  27.752  15.002   5.997
 4703POPC   D2A60160  27.664  15.175   6.429
 4703POPC   C3A60161  27.861  15.107   6.844
 4703POPC   C4A60162  27.993  15.380   7.156
 4703POPC   C1B60163  27.276  14.906   6.131
 4703POPC   C2B60164  27.324  14.782   6.583
 4703POPC   C3B60165  27.410  14.909   7.005
 4703POPC   C4B60166  27.491  15.339   7.134
 4704POPC   NC360167  11.903  22.247   5.485
 4704POPC   PO460168  12.526  22.505   5.567
 4704POPC   GL160169  12.277  22.355   5.857
 4704POPC   GL260170  12.171  22.005   5.868
 4704POPC   C1A60171  12.387  22.258   6.247
 4704POPC   D2A60172  12.182  22.257   6.593
 4704POPC   C3A60173  12.394  22.172   6.967
 4704POPC   C4A60174  12.323  22.113   7.372
 4704POPC   C1B60175  11.852  22.215   6.155
 4704POPC   C2B60176  11.692  22.398   6.552
 4704POPC   C3B60177  11.854  22.344   6.969
 4704POPC   C4B60178  11.819  22.024   7.270
 4705POPC   NC360179  21.471  23.084   5.375
 4705POPC   PO460180  21.229  22.456   5.480
 4705POPC   GL160181  21.329  22.817   5.813
 4705POPC   GL260182  21.338  23.188   5.883
 4705POPC   C1A60183  21.389  22.852   6.286
 4705POPC   D2A60184  21.418  22.673   6.711
 4705POPC   C3A60185  21.398  22.786   7.145
 4705POPC   C4A60186  21.189  22.594   7.510
 4705POPC   C1B60187  21.118  23.267   6.267
 4705POPC   C2B60188  21.142  23.154   6.726
 4705POPC   C3B60189  21.330  23.292   7.119
 4705POPC   C4B60190  21.753  23.165   7.287
 4706POPC   NC360191  24.254  42.451   5.523
 4706POPC   PO460192  23.841  41.944   5.476
 4706POPC   GL160193  23.704  42.242   5.811
 4706POPC   GL260194  23.810  42.631   5.761
 4706POPC   C1A60195  23.608  42.140   6.263
 4706POPC   D2A60196  23.700  42.001   6.695
 4706POPC   C3A60197  23.744  42.204   7.101
 4706POPC   C4A60198  23.957  42.022   7.479
 4706POPC   C1B60199  23.943  42.524   6.186
 4706POPC   C2B60200  23.738  42.561   6.588
 4706POPC   C3B60201  23.887  42.690   6.963
 4706POPC   C4B60202  24.320  42.695   7.085
 4707POPC   NC360203  35.327  22.040   5.429
 4707POPC   PO460204  35.684  22.613   5.505
 4707POPC   GL160205  35.582  22.329   5.840
 4707POPC   GL260206  35.213  22.294   5.872
 4707POPC   C1A60207  35.550  22.279   6.305
 4707POPC   D2A60208  35.340  22.427   6.684
 4707POPC   C3A60209  35.500  22.242   7.049
 4707POPC   C4A60210  35.306  22.224   7.439
 4707POPC   C1B60211  35.033  22.189   6.272
 4707POPC   C2B60212  34.850  22.275   6.663
 4707POPC   C3B60213  34.968  22.166   7.073
 4707POPC   C4B60214  34.931  21.863   7.418
 4708POPC   NC360215  28.861  18.521   5.372
 4708POPC   PO460216  28.174  18.251   5.366
 4708POPC   GL160217  28.296  18.303   5.791
 4708POPC   GL260218  28.616  18.131   5.789
 4708POPC   C1A60219  28.157  18.243   6.241
 4708POPC   D2A60220  28.028  17.972   6.638
 4708POPC   C3A60221  28.046  18.131   7.091
 4708POPC   C4A60222  28.144  17.978   7.564
 4708POPC   C1B60223  28.646  18.457   6.145
 4708POPC   C2B60224  28.447  18.636   6.522
 4708POPC   C3B60225  28.495  18.426   6.899
 4708POPC   C4B60226  28.507  18.279   7.313
 4709POPC   NC360227  38.726  22.514   5.790
 4709POPC   PO460228  38.169  22.354   5.471
 4709POPC   GL160229  38.239  22.711   5.855
 4709POPC   GL260230  38.342  23.111   5.864
 4709POPC   C1A60231  38.423  22.856   6.297
 4709POPC   D2A60232  38.646  22.571   6.610
 4709POPC   C3A60233  38.557  22.720   7.036
 4709POPC   C4A60234  38.127  22.798   7.224
 4709POPC   C1B60235  38.445  23.372   6.268
 4709POPC   C2B60236  38.452  23.229   6.691
 4709POPC   C3B60237  38.631  23.267   7.095
 4709POPC   C4B60238  38.515  23.038   7.466
 4710POPC   NC360239   0.752   4.293   5.343
 4710POPC   PO460240   1.441   4.149   5.337
 4710POPC   GL160241   1.158   4.093   5.702
 4710POPC   GL260242   0.965   4.400   5.798
 4710POPC   C1A60243   1.163   4.100   6.164
 4710POPC   D2A60244   0.942   4.078   6.557
 4710POPC   C3A60245   1.171   4.102   6.950
 4710POPC   C4A60246   1.047   3.952   7.382
 4710POPC   C1B60247   0.912   4.585   6.218
 4710POPC   C2B60248   0.762   4.556   6.651
 4710POPC   C3B60249   0.925   4.552   7.042
 4710POPC   C4B60250   1.092   4.438   7.417
 4711POPC   NC360251  28.866  37.943   5.455
 4711POPC   PO460252  29.257  37.433   5.533
 4711POPC   GL160253  29.048  37.633   5.868
 4711POPC   GL260254  29.278  37.907   5.933
 4711POPC   C1A60255  29.154  37.607   6.321
 4711POPC   D2A60256  29.324  37.348   6.641
 4711POPC   C3A60257  29.289  37.588   7.017
 4711POPC   C4A60258  28.948  37.569   7.324
 4711POPC   C1B60259  28.905  38.055   6.173
 4711POPC   C2B60260  28.807  38.091   6.620
 4711POPC   C3B60261  28.957  37.983   7.024
 4711POPC   C4B60262  29.283  37.992   7.357
 4712POPC   NC360263  13.459  12.443   5.496
 4712POPC   PO460264  13.701  13.047   5.255
 4712POPC   GL160265  13.692  12.872   5.668
 4712POPC   GL260266  13.635  13.146   5.808
 4712POPC   C1A60267  13.571  12.725   6.117
 4712POPC   D2A60268  13.802  12.741   6.523
 4712POPC   C3A60269  13.548  12.780   6.904
 4712POPC   C4A60270  13.614  12.803   7.362
 4712POPC   C1B60271  13.669  13.196   6.227
 4712POPC   C2B60272  13.671  13.275   6.666
 4712POPC   C3B60273  13.753  13.214   7.083
 4712POPC   C4B60274  14.053  13.250   7.395
 4713POPC   NC360275  15.634   4.370   5.579
 4713POPC   PO460276  16.259   4.052   5.575
 4713POPC   GL160277  15.987   4.256   5.916
 4713POPC   GL260278  15.662   4.011   5.954
 4713POPC   C1A60279  15.751   4.377   6.314
 4713POPC   D2A60280  15.609   4.378   6.729
 4713POPC   C3A60281  15.972   4.498   7.007
 4713POPC   C4A60282  16.360   4.693   7.217
 4713POPC   C1B60283  15.974   3.927   6.296
 4713POPC   C2B60284  15.971   4.012   6.733
 4713POPC   C3B60285  15.912   4.011   7.163
 4713POPC   C4B60286  15.786   4.105   7.603
 4714POPC   NC360287  29.877  34.094   5.363
 4714POPC   PO460288  30.114  33.455   5.284
 4714POPC   GL160289  30.018  33.701   5.647
 4714POPC   GL260290  29.665  33.769   5.713
 4714POPC   C1A60291  30.010  33.939   6.064
 4714POPC   D2A60292  29.808  34.089   6.485
 4714POPC   C3A60293  29.980  33.932   6.887
 4714POPC   C4A60294  29.973  33.699   7.300
 4714POPC   C1B60295  29.508  33.805   6.162
 4714POPC   C2B60296  29.383  33.813   6.639
 4714POPC   C3B60297  29.515  33.727   7.093
 4714POPC   C4B60298  29.571  33.410   7.441
 4715POPC   NC360299  32.720  23.607   5.680
 4715POPC   PO460300  33.333  23.151   5.653
 4715POPC   GL160301  33.117  23.420   5.961
 4715POPC   GL260302  33.144  23.771   5.986
 4715POPC   C1A60303  32.828  23.506   6.323
 4715POPC   D2A60304  32.876  23.804   6.664
 4715POPC   C3A60305  32.950  23.631   7.049
 4715POPC   C4A60306  32.798  23.266   7.210
 4715POPC   C1B60307  32.803  24.017   6.197
 4715POPC   C2B60308  32.771  24.301   6.562
 4715POPC   C3B60309  32.616  24.254   6.968
 4715POPC   C4B60310  32.851  24.065   7.282
 4716POPC   NC360311  39.499  11.378   5.198
 4716POPC   PO460312  38.915  11.150   5.463
 4716POPC   GL160313  39.082  11.530   5.666
 4716POPC   GL260314  39.445  11.575   5.677
 4716POPC   C1A60315  39.101  11.615   6.126
 4716POPC   D2A60316  39.121  11.307   6.493
 4716POPC   C3A60317  39.147  11.450   6.923
 4716POPC   C4A60318  39.204  11.212   7.305
 4716POPC   C1B60319  39.497  11.271   6.032
 4716POPC   C2B60320  39.621  11.132   6.455
 4716POPC   C3B60321  39.532  11.113   6.883
 4716POPC   C4B60322  39.671  11.393   7.220
 4717POPC   NC360323   2.157   7.038   5.628
 4717POPC   PO460324   2.019   6.469   5.208
 4717POPC   GL160325   1.814   6.462   5.719
 4717POPC   GL260326   1.737   6.751   5.843
 4717POPC   C1A60327   1.911   6.479   6.207
 4717POPC   D2A60328   1.704   6.466   6.605
 4717POPC   C3A60329   1.995   6.276   6.881
 4717POPC   C4A60330   2.101   6.573   7.202
 4717POPC   C1B60331   1.823   7.050   6.189
 4717POPC   C2B60332   2.055   7.180   6.536
 4717POPC   C3B60333   1.952   6.883   6.828
 4717POPC   C4B60334   1.752   6.967   7.197
 4718POPC   NC360335  30.261   8.889   4.973
 4718POPC   PO460336  29.802   8.955   5.467
 4718POPC   GL160337  29.815   9.112   5.871
 4718POPC   GL260338  30.156   8.970   5.926
 4718POPC   C1A60339  29.826   8.995   6.311
 4718POPC   D2A60340  30.012   9.070   6.702
 4718POPC   C3A60341  29.808   9.174   7.063
 4718POPC   C4A60342  29.990   9.089   7.500
 4718POPC   C1B60343  30.213   8.652   6.289
 4718POPC   C2B60344  30.192   8.598   6.748
 4718POPC   C3B60345  30.268   8.757   7.173
 4718POPC   C4B60346  30.210   8.657   7.626
 4719POPC   NC360347  21.949   9.772   5.498
 4719POPC   PO460348  22.544   9.559   5.441
 4719POPC   GL160349  22.414   9.874   5.739
 4719POPC   GL260350  22.246   9.569   5.891
 4719POPC   C1A60351  22.116  10.009   6.081
 4719POPC   D2A60352  21.980   9.713   6.411
 4719POPC   C3A60353  21.985   9.702   6.859
 4719POPC   C4A60354  22.286   9.875   7.097
 4719POPC   C1B60355  22.523   9.738   6.228
 4719POPC   C2B60356  22.462   9.679   6.640
 4719POPC   C3B60357  22.371   9.359   6.888
 4719POPC   C4B60358  22.362   9.410   7.281
 4720POPC   NC360359  41.221  20.646   5.567
 4720POPC   PO460360  40.746  21.036   5.411
 4720POPC   GL160361  40.637  20.762   5.786
 4720POPC   GL260362  40.825  20.412   5.831
 4720POPC   C1A60363  40.662  20.639   6.234
 4720POPC   D2A60364  40.827  20.812   6.622
 4720POPC   C3A60365  40.581  20.760   6.992
 4720POPC   C4A60366  40.587  20.626   7.421
 4720POPC   C1B60367  41.107  20.389   6.242
 4720POPC   C2B60368  41.217  20.493   6.706
 4720POPC   C3B60369  41.046  20.514   7.143
 4720POPC   C4B60370  41.018  20.495   7.641
 4721POPC   NC360371  26.133  43.091   5.440
 4721POPC   PO460372  25.528  43.069   5.624
 4721POPC   GL160373  25.839  43.278   5.875
 4721POPC   GL260374  26.188  43.432   5.831
 4721POPC   C1A60375  25.946  43.062   6.258
 4721POPC   D2A60376  25.766  42.979   6.664
 4721POPC   C3A60377  25.983  42.946   7.076
 4721POPC   C4A60378  25.827  42.692   7.465
 4721POPC   C1B60379  26.220  43.478   6.257
 4721POPC   C2B60380  26.122  43.358   6.650
 4721POPC   C3B60381  26.317  43.378   7.030
 4721POPC   C4B60382  26.238  43.217   7.429
 4722POPC   NC360383  30.286  18.507   5.392
 4722POPC   PO460384  30.684  17.918   5.344
 4722POPC   GL160385  30.611  18.188   5.696
 4722POPC   GL260386  30.858  18.445   5.642
 4722POPC   C1A60387  30.570  18.043   6.134
 4722POPC   D2A60388  30.527  18.205   6.568
 4722POPC   C3A60389  30.591  17.975   6.941
 4722POPC   C4A60390  30.588  18.343   7.154
 4722POPC   C1B60391  31.002  18.337   6.079
 4722POPC   C2B60392  30.974  18.502   6.534
 4722POPC   C3B60393  31.081  18.340   6.967
 4722POPC   C4B60394  30.971  18.020   7.306
 4723POPC   NC360395   0.451  26.454   5.515
 4723POPC   PO460396   0.281  25.960   5.084
 4723POPC   GL160397   0.275  26.038   5.711
 4723POPC   GL260398   0.592  26.112   5.869
 4723POPC   C1A60399   0.098  26.008   6.157
 4723POPC   D2A60400   0.218  25.903   6.617
 4723POPC   C3A60401   0.255  26.225   6.941
 4723POPC   C4A60402   0.120  26.386   7.340
 4723POPC   C1B60403   0.578  25.899   6.256
 4723POPC   C2B60404   0.686  26.096   6.634
 4723POPC   C3B60405   0.794  26.009   7.020
 4723POPC   C4B60406   0.595  26.103   7.366
 4724POPC   NC360407  32.022  11.428   5.515
 4724POPC   PO460408  32.716  11.315   5.609
 4724POPC   GL160409  32.315  11.261   5.899
 4724POPC   GL260410  32.004  11.016   5.877
 4724POPC   C1A60411  32.025  11.526   6.195
 4724POPC   D2A60412  31.904  11.571   6.682
 4724POPC   C3A60413  32.183  11.321   7.021
 4724POPC   C4A60414  32.550  11.423   7.334
 4724POPC   C1B60415  31.799  11.086   6.330
 4724POPC   C2B60416  31.769  11.045   6.826
 4724POPC   C3B60417  31.863  10.984   7.302
 4724POPC   C4B60418  31.957  10.937   7.782
 4725POPC   NC360419   0.661  41.732   5.464
 4725POPC   PO460420   0.092  41.483   5.073
 4725POPC   GL160421   0.146  41.468   5.555
 4725POPC   GL260422   0.119  41.782   5.734
 4725POPC   C1A60423   0.263  41.391   6.029
 4725POPC   D2A60424   0.385  41.212   6.443
 4725POPC   C3A60425   0.339  41.360   6.856
 4725POPC   C4A60426   0.541  41.247   7.236
 4725POPC   C1B60427   0.402  41.881   6.086
 4725POPC   C2B60428   0.403  41.739   6.507
 4725POPC   C3B60429   0.467  41.850   6.946
 4725POPC   C4B60430   0.252  41.844   7.309
 4726POPC   NC360431   9.996   1.003   5.358
 4726POPC   PO460432   9.543   1.491   5.352
 4726POPC   GL160433   9.688   1.277   5.705
 4726POPC   GL260434   9.425   1.045   5.775
 4726POPC   C1A60435   9.823   1.311   6.143
 4726POPC   D2A60436   9.780   1.115   6.552
 4726POPC   C3A60437   9.895   1.403   6.877
 4726POPC   C4A60438   9.775   1.474   7.289
 4726POPC   C1B60439   9.305   1.376   6.076
 4726POPC   C2B60440   9.413   1.499   6.502
 4726POPC   C3B60441   9.409   1.290   6.894
 4726POPC   C4B60442   9.288   1.505   7.202
 4727POPC   NC360443  34.390  37.189   5.383
 4727POPC   PO460444  34.579  36.553   5.544
 4727POPC   GL160445  34.489  36.817   5.910
 4727POPC   GL260446  34.231  37.089   5.893
 4727POPC   C1A60447  34.624  36.752   6.368
 4727POPC   D2A60448  34.527  36.864   6.818
 4727POPC   C3A60449  34.793  36.690   7.144
 4727POPC   C4A60450  34.896  36.622   7.622
 4727POPC   C1B60451  34.271  37.183   6.347
 4727POPC   C2B60452  34.219  37.288   6.785
 4727POPC   C3B60453  34.255  37.123   7.211
 4727POPC   C4B60454  34.165  37.055   7.670
 4728POPC   NC360455  31.291  13.110   5.594
 4728POPC   PO460456  31.693  12.563   5.552
 4728POPC   GL160457  31.529  12.741   5.906
 4728POPC   GL260458  31.181  12.657   5.913
 4728POPC   C1A60459  31.690  12.846   6.317
 4728POPC   D2A60460  31.709  13.040   6.696
 4728POPC   C3A60461  31.633  12.850   7.074
 4728POPC   C4A60462  31.537  12.979   7.496
 4728POPC   C1B60463  31.206  12.967   6.240
 4728POPC   C2B60464  31.268  13.272   6.563
 4728POPC   C3B60465  31.252  13.160   6.998
 4728POPC   C4B60466  31.116  12.790   7.242
 4729POPC   NC360467   5.133   6.398   5.379
 4729POPC   PO460468   4.890   7.039   5.358
 4729POPC   GL160469   5.135   7.054   5.756
 4729POPC   GL260470   5.107   6.692   5.811
 4729POPC   C1A60471   5.188   6.967   6.220
 4729POPC   D2A60472   5.062   6.668   6.555
 4729POPC   C3A60473   4.976   6.819   6.960
 4729POPC   C4A60474   5.165   6.823   7.352
 4729POPC   C1B60475   4.805   6.598   6.121
 4729POPC   C2B60476   4.691   6.325   6.458
 4729POPC   C3B60477   4.845   6.304   6.882
 4729POPC   C4B60478   4.690   6.472   7.267
 4730POPC   NC360479  30.580   5.628   5.584
 4730POPC   PO460480  30.892   5.955   5.089
 4730POPC   GL160481  30.862   6.018   5.615
 4730POPC   GL260482  31.018   5.768   5.801
 4730POPC   C1A60483  30.696   6.164   6.088
 4730POPC   D2A60484  30.423   6.195   6.522
 4730POPC   C3A60485  30.509   6.230   7.017
 4730POPC   C4A60486  30.542   6.001   7.449
 4730POPC   C1B60487  30.806   5.684   6.193
 4730POPC   C2B60488  30.700   5.781   6.638
 4730POPC   C3B60489  30.845   5.841   7.048
 4730POPC   C4B60490  30.847   5.582   7.400
 4731POPC   NC360491   9.615  38.366   5.387
 4731POPC   PO460492   9.644  39.081   5.291
 4731POPC   GL160493   9.655  38.853   5.720
 4731POPC   GL260494   9.883  38.561   5.794
 4731POPC   C1A60495   9.512  38.759   6.171
 4731POPC   D2A60496   9.417  38.891   6.625
 4731POPC   C3A60497   9.579  38.622   6.958
 4731POPC   C4A60498   9.605  38.542   7.401
 4731POPC   C1B60499  10.022  38.634   6.208
 4731POPC   C2B60500   9.973  38.804   6.636
 4731POPC   C3B60501  10.084  38.568   7.022
 4731POPC   C4B60502  10.041  38.259   7.367
 4732POPC   NC360503  31.780   7.653   5.328
 4732POPC   PO460504  31.230   7.339   5.631
 4732POPC   GL160505  31.356   7.661   5.859
 4732POPC   GL260506  31.706   7.591   5.860
 4732POPC   C1A60507  31.266   7.692   6.291
 4732POPC   D2A60508  31.050   7.446   6.612
 4732POPC   C3A60509  31.336   7.408   6.944
 4732POPC   C4A60510  31.258   7.429   7.350
 4732POPC   C1B60511  31.738   7.301   6.238
 4732POPC   C2B60512  31.981   7.188   6.635
 4732POPC   C3B60513  31.809   7.217   7.060
 4732POPC   C4B60514  31.738   7.627   7.230
 4733POPC   NC360515  23.355   8.010   5.312
 4733POPC   PO460516  22.785   8.261   5.305
 4733POPC   GL160517  23.081   8.320   5.608
 4733POPC   GL260518  22.993   8.603   5.744
 4733POPC   C1A60519  23.077   8.097   5.995
 4733POPC   D2A60520  22.840   7.997   6.394
 4733POPC   C3A60521  22.985   7.984   6.824
 4733POPC   C4A60522  22.721   8.037   7.185
 4733POPC   C1B60523  23.238   8.565   6.121
 4733POPC   C2B60524  23.159   8.402   6.555
 4733POPC   C3B60525  22.775   8.457   6.827
 4733POPC   C4B60526  22.696   8.571   7.268
 4734POPC   NC360527  29.316  39.666   5.661
 4734POPC   PO460528  28.922  40.147   5.534
 4734POPC   GL160529  29.049  40.021   5.905
 4734POPC   GL260530  28.838  39.704   5.876
 4734POPC   C1A60531  29.189  40.158   6.297
 4734POPC   D2A60532  29.058  40.073   6.705
 4734POPC   C3A60533  29.013  40.281   7.051
 4734POPC   C4A60534  29.375  40.109   7.207
 4734POPC   C1B60535  28.955  39.703   6.309
 4734POPC   C2B60536  28.891  39.607   6.733
 4734POPC   C3B60537  28.977  39.772   7.164
 4734POPC   C4B60538  29.051  39.641   7.606
 4735POPC   NC360539  19.217  34.040   5.638
 4735POPC   PO460540  19.267  33.327   5.548
 4735POPC   GL160541  19.008  33.472   5.867
 4735POPC   GL260542  19.116  33.810   6.049
 4735POPC   C1A60543  19.061  33.404   6.302
 4735POPC   D2A60544  18.965  33.760   6.556
 4735POPC   C3A60545  19.087  33.729   6.971
 4735POPC   C4A60546  18.879  33.754   7.340
 4735POPC   C1B60547  19.274  34.168   6.293
 4735POPC   C2B60548  19.366  34.067   6.701
 4735POPC   C3B60549  19.329  34.199   7.120
 4735POPC   C4B60550  19.339  33.929   7.429
 4736POPC   NC360551   3.556   4.169   5.295
 4736POPC   PO460552   4.241   4.401   5.302
 4736POPC   GL160553   3.862   4.303   5.698
 4736POPC   GL260554   3.464   4.262   5.818
 4736POPC   C1A60555   3.825   4.360   6.169
 4736POPC   D2A60556   3.690   4.285   6.592
 4736POPC   C3A60557   3.578   4.374   7.056
 4736POPC   C4A60558   3.597   4.239   7.531
 4736POPC   C1B60559   3.363   4.561   6.197
 4736POPC   C2B60560   3.482   4.787   6.556
 4736POPC   C3B60561   3.282   4.799   6.957
 4736POPC   C4B60562   3.206   4.569   7.349
 4737POPC   NC360563  30.129  23.209   5.577
 4737POPC   PO460564  29.841  22.627   5.521
 4737POPC   GL160565  29.817  22.869   5.899
 4737POPC   GL260566  30.167  22.946   6.024
 4737POPC   C1A60567  29.856  22.672   6.311
 4737POPC   D2A60568  30.071  22.868   6.633
 4737POPC   C3A60569  29.703  22.904   6.890
 4737POPC   C4A60570  29.642  22.654   7.269
 4737POPC   C1B60571  29.919  23.227   6.293
 4737POPC   C2B60572  29.982  23.443   6.661
 4737POPC   C3B60573  30.125  23.232   6.986
 4737POPC   C4B60574  29.907  23.072   7.322
 4738POPC   NC360575  14.662   6.279   5.482
 4738POPC   PO460576  14.353   5.573   5.556
 4738POPC   GL160577  14.311   5.956   5.757
 4738POPC   GL260578  14.654   5.937   5.887
 4738POPC   C1A60579  14.142   5.970   6.168
 4738POPC   D2A60580  14.198   5.621   6.453
 4738POPC   C3A60581  14.227   5.679   6.895
 4738POPC   C4A60582  14.595   5.618   7.163
 4738POPC   C1B60583  14.634   6.068   6.320
 4738POPC   C2B60584  14.351   6.122   6.662
 4738POPC   C3B60585  14.431   6.140   7.097
 4738POPC   C4B60586  14.551   6.448   7.404
 4739POPC   NC360587   9.239  21.338   5.508
 4739POPC   PO460588   8.643  21.057   5.444
 4739POPC   GL160589   8.827  21.308   5.820
 4739POPC   GL260590   9.139  21.579   5.921
 4739POPC   C1A60591   8.889  21.129   6.232
 4739POPC   D2A60592   9.042  21.059   6.657
 4739POPC   C3A60593   8.764  21.212   6.960
 4739POPC   C4A60594   8.824  21.456   7.320
 4739POPC   C1B60595   9.280  21.467   6.337
 4739POPC   C2B60596   9.436  21.571   6.741
 4739POPC   C3B60597   9.493  21.430   7.140
 4739POPC   C4B60598   9.271  21.574   7.474
 4740POPC   NC360599  33.023  12.549   5.085
 4740POPC   PO460600  32.945  13.152   5.427
 4740POPC   GL160601  33.125  12.831   5.705
 4740POPC   GL260602  32.989  13.014   5.955
 4740POPC   C1A60603  33.328  12.730   6.157
 4740POPC   D2A60604  33.148  12.973   6.525
 4740POPC   C3A60605  33.352  12.829   6.908
 4740POPC   C4A60606  33.359  12.639   7.337
 4740POPC   C1B60607  32.764  13.271   6.226
 4740POPC   C2B60608  32.576  13.372   6.636
 4740POPC   C3B60609  32.819  13.347   7.010
 4740POPC   C4B60610  33.027  13.021   7.238
 4741POPC   NC360611  14.005  20.019   5.379
 4741POPC   PO460612  13.333  19.896   5.357
 4741POPC   GL160613  13.590  19.922   5.702
 4741POPC   GL260614  13.432  20.246   5.737
 4741POPC   C1A60615  13.591  19.786   6.136
 4741POPC   D2A60616  13.896  19.742   6.477
 4741POPC   C3A60617  13.682  19.732   6.875
 4741POPC   C4A60618  13.853  19.633   7.270
 4741POPC   C1B60619  13.466  20.303   6.176
 4741POPC   C2B60620  13.469  20.107   6.568
 4741POPC   C3B60621  13.362  20.170   6.996
 4741POPC   C4B60622  13.325  19.904   7.355
 4742POPC   NC360623  32.612  37.141   5.001
 4742POPC   PO460624  32.355  36.611   5.286
 4742POPC   GL160625  32.188  36.754   5.696
 4742POPC   GL260626  32.237  36.504   5.916
 4742POPC   C1A60627  32.218  37.011   6.103
 4742POPC   D2A60628  32.284  37.349   6.449
 4742POPC   C3A60629  32.433  37.236   6.885
 4742POPC   C4A60630  32.323  37.030   7.263
 4742POPC   C1B60631  31.976  36.563   6.250
 4742POPC   C2B60632  31.761  36.467   6.609
 4742POPC   C3B60633  31.990  36.664   6.903
 4742POPC   C4B60634  31.912  36.748   7.281
 4743POPC   NC360635   5.672  32.423   5.060
 4743POPC   PO460636   5.591  33.021   5.385
 4743POPC   GL160637   5.915  33.043   5.705
 4743POPC   GL260638   6.063  33.360   5.770
 4743POPC   C1A60639   5.812  33.097   6.152
 4743POPC   D2A60640   5.946  32.866   6.504
 4743POPC   C3A60641   5.772  32.995   6.882
 4743POPC   C4A60642   5.774  32.873   7.303
 4743POPC   C1B60643   6.016  33.580   6.171
 4743POPC   C2B60644   5.884  33.468   6.600
 4743POPC   C3B60645   6.019  33.398   7.039
 4743POPC   C4B60646   5.944  33.327   7.490
 4744POPC   NC360647  36.148  22.454   5.507
 4744POPC   PO460648  35.770  21.803   5.395
 4744POPC   GL160649  36.087  21.860   5.742
 4744POPC   GL260650  36.466  21.847   5.654
 4744POPC   C1A60651  36.058  22.183   6.094
 4744POPC   D2A60652  36.174  22.441   6.473
 4744POPC   C3A60653  36.025  22.272   6.884
 4744POPC   C4A60654  35.920  21.945   7.215
 4744POPC   C1B60655  36.573  21.971   6.102
 4744POPC   C2B60656  36.302  21.935   6.469
 4744POPC   C3B60657  36.325  21.828   6.898
 4744POPC   C4B60658  36.461  21.894   7.310
 4745POPC   NC360659  16.170  38.884   5.430
 4745POPC   PO460660  15.905  38.235   5.252
 4745POPC   GL160661  16.020  38.417   5.683
 4745POPC   GL260662  15.807  38.670   5.789
 4745POPC   C1A60663  16.203  38.399   6.142
 4745POPC   D2A60664  16.067  38.530   6.587
 4745POPC   C3A60665  16.208  38.302   6.953
 4745POPC   C4A60666  16.016  38.269   7.319
 4745POPC   C1B60667  15.698  38.348   6.163
 4745POPC   C2B60668  15.528  38.277   6.618
 4745POPC   C3B60669  15.513  38.388   7.118
 4745POPC   C4B60670  15.440  38.323   7.623
 4746POPC   NC360671  24.829   2.121   5.417
 4746POPC   PO460672  24.378   1.605   5.350
 4746POPC   GL160673  24.579   1.774   5.711
 4746POPC   GL260674  24.459   2.131   5.791
 4746POPC   C1A60675  24.516   1.715   6.133
 4746POPC   D2A60676  24.374   1.785   6.555
 4746POPC   C3A60677  24.639   1.899   6.913
 4746POPC   C4A60678  24.720   1.731   7.332
 4746POPC   C1B60679  24.552   2.196   6.263
 4746POPC   C2B60680  24.375   2.295   6.646
 4746POPC   C3B60681  24.363   2.391   7.050
 4746POPC   C4B60682  24.425   2.423   7.479
 4747POPC   NC360683   1.549  19.033   5.389
 4747POPC   PO460684   2.246  18.849   5.379
 4747POPC   GL160685   2.056  19.064   5.774
 4747POPC   GL260686   1.702  19.183   5.852
 4747POPC   C1A60687   1.980  18.964   6.231
 4747POPC   D2A60688   1.775  18.811   6.621
 4747POPC   C3A60689   1.999  18.934   7.011
 4747POPC   C4A60690   1.829  18.949   7.434
 4747POPC   C1B60691   1.755  19.430   6.238
 4747POPC   C2B60692   1.981  19.312   6.628
 4747POPC   C3B60693   1.832  19.416   7.030
 4747POPC   C4B60694   1.462  19.453   7.225
 4748POPC   NC360695   1.276  19.685   5.483
 4748POPC   PO460696   1.493  20.403   5.514
 4748POPC   GL160697   1.372  20.199   5.897
 4748POPC   GL260698   1.228  19.859   5.942
 4748POPC   C1A60699   1.101  20.250   6.251
 4748POPC   D2A60700   0.819  20.088   6.566
 4748POPC   C3A60701   0.993  20.175   6.967
 4748POPC   C4A60702   1.214  19.885   7.205
 4748POPC   C1B60703   1.239  19.519   6.226
 4748POPC   C2B60704   0.964  19.444   6.555
 4748POPC   C3B60705   1.049  19.414   6.954
 4748POPC   C4B60706   0.970  19.353   7.370
 4749POPC   NC360707  25.768   8.512   5.373
 4749POPC   PO460708  26.157   8.016   5.307
 4749POPC   GL160709  26.113   8.014   5.756
 4749POPC   GL260710  26.366   7.802   5.840
 4749POPC   C1A60711  25.925   8.153   6.173
 4749POPC   D2A60712  25.750   8.103   6.597
 4749POPC   C3A60713  25.960   8.206   6.993
 4749POPC   C4A60714  26.050   8.558   7.266
 4749POPC   C1B60715  26.360   7.902   6.269
 4749POPC   C2B60716  26.221   7.803   6.708
 4749POPC   C3B60717  26.336   7.879   7.149
 4749POPC   C4B60718  26.425   7.919   7.587
 4750POPC   NC360719  24.921   3.658   5.364
 4750POPC   PO460720  25.413   3.161   5.579
 4750POPC   GL160721  25.384   3.457   5.892
 4750POPC   GL260722  25.036   3.431   5.855
 4750POPC   C1A60723  25.476   3.550   6.341
 4750POPC   D2A60724  25.334   3.372   6.757
 4750POPC   C3A60725  25.175   3.680   7.067
 4750POPC   C4A60726  25.431   3.890   7.392
 4750POPC   C1B60727  24.945   3.571   6.292
 4750POPC   C2B60728  24.836   3.314   6.670
 4750POPC   C3B60729  24.846   3.288   7.151
 4750POPC   C4B60730  24.784   3.167   7.575
 4751POPC   NC360731   1.320  35.436   5.393
 4751POPC   PO460732   0.886  34.946   5.464
 4751POPC   GL160733   1.046  35.185   5.814
 4751POPC   GL260734   1.002  35.523   5.782
 4751POPC   C1A60735   1.352  35.282   6.130
 4751POPC   D2A60736   1.321  35.217   6.567
 4751POPC   C3A60737   1.585  35.061   6.901
 4751POPC   C4A60738   1.483  35.181   7.322
 4751POPC   C1B60739   0.915  35.571   6.211
 4751POPC   C2B60740   0.991  35.611   6.646
 4751POPC   C3B60741   1.028  35.321   6.985
 4751POPC   C4B60742   0.833  35.321   7.346
 4752POPC   NC360743  20.320  44.625   5.583
 4752POPC   PO460744  19.652  44.642   5.380
 4752POPC   GL160745  19.854  44.634   5.767
 4752POPC   GL260746  19.996  44.947   5.826
 4752POPC   C1A60747  19.907  44.608   6.221
 4752POPC   D2A60748  19.801  44.548   6.658
 4752POPC   C3A60749  20.043  44.594   7.036
 4752POPC   C4A60750  19.914  44.690   7.470
 4752POPC   C1B60751  19.751   0.095   6.173
 4752POPC   C2B60752  19.657   0.190   6.611
 4752POPC   C3B60753  19.771   0.032   7.024
 4752POPC   C4B60754  20.070   0.143   7.332
 4753POPC   NC360755  30.021   3.026   5.400
 4753POPC   PO460756  29.500   2.577   5.364
 4753POPC   GL160757  29.871   2.585   5.679
 4753POPC   GL260758  29.788   2.856   5.830
 4753POPC   C1A60759  30.128   2.642   6.105
 4753POPC   D2A60760  29.918   2.708   6.464
 4753POPC   C3A60761  29.946   2.599   6.886
 4753POPC   C4A60762  30.007   2.725   7.288
 4753POPC   C1B60763  29.732   3.095   6.188
 4753POPC   C2B60764  29.895   3.192   6.601
 4753POPC   C3B60765  30.075   3.120   6.967
 4753POPC   C4B60766  30.259   3.171   7.356
 4754POPC   NC360767  31.228  40.666   5.361
 4754POPC   PO460768  31.927  40.435   5.420
 4754POPC   GL160769  31.640  40.657   5.730
 4754POPC   GL260770  31.324  40.460   5.842
 4754POPC   C1A60771  31.533  40.831   6.167
 4754POPC   D2A60772  31.700  40.994   6.613
 4754POPC   C3A60773  31.399  41.007   7.006
 4754POPC   C4A60774  31.365  40.949   7.468
 4754POPC   C1B60775  31.151  40.501   6.284
 4754POPC   C2B60776  31.381  40.605   6.682
 4754POPC   C3B60777  31.304  40.499   7.119
 4754POPC   C4B60778  30.931  40.308   7.274
 4755POPC   NC360779  19.888  27.160   5.410
 4755POPC   PO460780  19.675  26.604   5.415
 4755POPC   GL160781  19.673  26.850   5.813
 4755POPC   GL260782  19.578  27.216   5.845
 4755POPC   C1A60783  19.780  26.917   6.257
 4755POPC   D2A60784  20.068  26.843   6.598
 4755POPC   C3A60785  19.961  26.534   6.906
 4755POPC   C4A60786  19.696  26.638   7.193
 4755POPC   C1B60787  19.770  27.420   6.222
 4755POPC   C2B60788  19.780  27.298   6.680
 4755POPC   C3B60789  19.649  27.125   7.082
 4755POPC   C4B60790  19.812  27.028   7.502
 4756POPC   NC360791  29.773   4.679   5.362
 4756POPC   PO460792  30.069   4.083   5.325
 4756POPC   GL160793  29.947   4.318   5.708
 4756POPC   GL260794  30.260   4.333   5.855
 4756POPC   C1A60795  29.890   4.359   6.186
 4756POPC   D2A60796  29.733   4.215   6.582
 4756POPC   C3A60797  29.854   4.455   6.919
 4756POPC   C4A60798  29.659   4.472   7.325
 4756POPC   C1B60799  30.330   4.099   6.275
 4756POPC   C2B60800  30.263   4.165   6.731
 4756POPC   C3B60801  30.127   4.097   7.150
 4756POPC   C4B60802  30.265   3.928   7.519
 4757POPC   NC360803  43.456  20.744   5.423
 4757POPC   PO460804  44.129  20.631   5.423
 4757POPC   GL160805  44.068  20.583   5.877
 4757POPC   GL260806  43.732  20.502   5.806
 4757POPC   C1A60807  44.052  20.707   6.325
 4757POPC   D2A60808  44.136  20.874   6.722
 4757POPC   C3A60809  44.106  20.610   7.103
 4757POPC   C4A60810  43.830  20.740   7.489
 4757POPC   C1B60811  43.570  20.616   6.211
 4757POPC   C2B60812  43.696  20.497   6.642
 4757POPC   C3B60813  43.601  20.538   7.072
 4757POPC   C4B60814  43.352  20.197   7.204
 4758POPC   NC360815  32.438  16.764   5.352
 4758POPC   PO460816  31.732  16.663   5.342
 4758POPC   GL160817  32.026  16.772   5.669
 4758POPC   GL260818  32.190  16.488   5.801
 4758POPC   C1A60819  32.092  16.849   6.130
 4758POPC   D2A60820  31.987  16.808   6.552
 4758POPC   C3A60821  32.266  16.750   6.877
 4758POPC   C4A60822  32.210  16.821   7.338
 4758POPC   C1B60823  32.348  16.370   6.229
 4758POPC   C2B60824  32.636  16.391   6.596
 4758POPC   C3B60825  32.625  16.442   7.048
 4758POPC   C4B60826  32.209  16.328   7.183
 4759POPC   NC360827  22.359   8.375   5.428
 4759POPC   PO460828  21.900   7.850   5.524
 4759POPC   GL160829  21.966   8.088   5.879
 4759POPC   GL260830  22.202   8.342   5.912
 4759POPC   C1A60831  22.117   8.048   6.334
 4759POPC   D2A60832  21.963   8.195   6.728
 4759POPC   C3A60833  22.294   8.314   6.998
 4759POPC   C4A60834  22.279   8.229   7.412
 4759POPC   C1B60835  21.847   8.454   6.199
 4759POPC   C2B60836  21.903   8.706   6.568
 4759POPC   C3B60837  21.920   8.668   7.016
 4759POPC   C4B60838  21.749   8.396   7.333
 4760POPC   NC360839  42.906  17.066   5.133
 4760POPC   PO460840  43.067  16.528   5.413
 4760POPC   GL160841  43.224  16.855   5.703
 4760POPC   GL260842  43.234  16.564   5.921
 4760POPC   C1A60843  43.295  17.008   6.143
 4760POPC   D2A60844  43.110  16.872   6.527
 4760POPC   C3A60845  43.120  17.075   6.908
 4760POPC   C4A60846  42.810  17.088   7.240
 4760POPC   C1B60847  43.247  16.410   6.344
 4760POPC   C2B60848  42.963  16.411   6.732
 4760POPC   C3B60849  43.020  16.616   7.139
 4760POPC   C4B60850  43.180  16.479   7.552
 4761POPC   NC360851   9.866  33.844   5.186
 4761POPC   PO460852   9.298  33.728   5.479
 4761POPC   GL160853   9.652  33.766   5.689
 4761POPC   GL260854   9.662  34.105   5.666
 4761POPC   C1A60855   9.874  33.689   6.077
 4761POPC   D2A60856   9.945  33.480   6.457
 4761POPC   C3A60857  10.065  33.705   6.816
 4761POPC   C4A60858   9.879  33.632   7.188
 4761POPC   C1B60859   9.559  34.105   6.114
 4761POPC   C2B60860   9.696  33.963   6.520
 4761POPC   C3B60861   9.524  33.905   6.924
 4761POPC   C4B60862   9.646  34.118   7.270
 4762POPC   NC360863  32.651  44.867   5.391
 4762POPC   PO460864  32.127  44.427   5.562
 4762POPC   GL160865  32.430  44.625   5.814
 4762POPC   GL260866  32.677  44.422   5.771
 4762POPC   C1A60867  32.440  44.822   6.231
 4762POPC   D2A60868  32.061  44.833   6.509
 4762POPC   C3A60869  32.173  44.727   6.933
 4762POPC   C4A60870  32.075  44.930   7.309
 4762POPC   C1B60871  32.505  44.298   6.205
 4762POPC   C2B60872  32.564  44.494   6.632
 4762POPC   C3B60873  32.550  44.418   7.091
 4762POPC   C4B60874  32.476  44.681   7.481
 4763POPC   NC360875   9.525   5.873   5.373
 4763POPC   PO460876  10.084   6.175   5.522
 4763POPC   GL160877   9.963   5.959   5.872
 4763POPC   GL260878   9.656   5.875   5.863
 4763POPC   C1A60879   9.914   5.920   6.313
 4763POPC   D2A60880  10.199   5.935   6.633
 4763POPC   C3A60881  10.087   5.741   6.964
 4763POPC   C4A60882  10.032   5.974   7.320
 4763POPC   C1B60883   9.439   6.103   6.161
 4763POPC   C2B60884   9.240   6.161   6.572
 4763POPC   C3B60885   9.269   6.015   6.971
 4763POPC   C4B60886   9.598   5.787   7.131
 4764POPC   NC360887  14.083   7.556   5.408
 4764POPC   PO460888  14.764   7.504   5.365
 4764POPC   GL160889  14.577   7.510   5.759
 4764POPC   GL260890  14.778   7.786   5.857
 4764POPC   C1A60891  14.366   7.379   6.167
 4764POPC   D2A60892  14.315   7.140   6.589
 4764POPC   C3A60893  14.169   7.346   6.996
 4764POPC   C4A60894  14.406   7.401   7.396
 4764POPC   C1B60895  14.873   7.865   6.271
 4764POPC   C2B60896  14.759   7.754   6.708
 4764POPC   C3B60897  14.829   7.514   7.085
 4764POPC   C4B60898  15.089   7.661   7.414
 4765POPC   NC360899   5.314  34.994   5.673
 4765POPC   PO460900   5.016  35.746   5.583
 4765POPC   GL160901   5.118  35.429   5.861
 4765POPC   GL260902   5.482  35.462   5.743
 4765POPC   C1A60903   5.057  35.177   6.271
 4765POPC   D2A60904   4.761  35.057   6.645
 4765POPC   C3A60905   4.991  35.226   6.989
 4765POPC   C4A60906   5.382  35.112   7.132
 4765POPC   C1B60907   5.539  35.568   6.165
 4765POPC   C2B60908   5.421  35.691   6.595
 4765POPC   C3B60909   5.582  35.566   7.003
 4765POPC   C4B60910   5.477  35.524   7.416
 4766POPC   NC360911   8.939  28.657   5.442
 4766POPC   PO460912   9.282  28.007   5.399
 4766POPC   GL160913   9.071  28.246   5.755
 4766POPC   GL260914   9.278  28.565   5.819
 4766POPC   C1A60915   8.790  28.226   6.159
 4766POPC   D2A60916   8.692  28.082   6.628
 4766POPC   C3A60917   8.848  28.224   7.071
 4766POPC   C4A60918   8.645  28.298   7.467
 4766POPC   C1B60919   9.278  28.339   6.228
 4766POPC   C2B60920   9.172  28.294   6.677
 4766POPC   C3B60921   9.314  28.428   7.094
 4766POPC   C4B60922   9.516  28.584   7.465
 4767POPC   NC360923  23.034  38.072   5.043
 4767POPC   PO460924  22.955  38.624   5.508
 4767POPC   GL160925  23.008  38.461   5.920
 4767POPC   GL260926  22.818  38.141   5.905
 4767POPC   C1A60927  22.870  38.527   6.316
 4767POPC   D2A60928  23.121  38.718   6.621
 4767POPC   C3A60929  22.958  38.648   7.012
 4767POPC   C4A60930  23.003  38.721   7.436
 4767POPC   C1B60931  23.101  38.037   6.240
 4767POPC   C2B60932  23.283  38.191   6.627
 4767POPC   C3B60933  23.247  38.192   7.044
 4767POPC   C4B60934  22.902  38.226   7.307
 4768POPC   NC360935  37.832  11.422   5.471
 4768POPC   PO460936  37.152  11.440   5.426
 4768POPC   GL160937  37.465  11.539   5.835
 4768POPC   GL260938  37.802  11.413   5.977
 4768POPC   C1A60939  37.508  11.685   6.300
 4768POPC   D2A60940  37.811  11.665   6.707
 4768POPC   C3A60941  37.604  11.446   7.092
 4768POPC   C4A60942  37.514  11.616   7.521
 4768POPC   C1B60943  37.778  11.251   6.400
 4768POPC   C2B60944  38.043  11.200   6.759
 4768POPC   C3B60945  38.187  11.118   7.152
 4768POPC   C4B60946  38.273  10.861   7.497
 4769POPC   NC360947   6.009  30.335   5.446
 4769POPC   PO460948   5.831  30.998   5.105
 4769POPC   GL160949   5.921  30.869   5.550
 4769POPC   GL260950   5.587  30.878   5.697
 4769POPC   C1A60951   6.104  30.854   6.010
 4769POPC   D2A60952   6.222  30.892   6.491
 4769POPC   C3A60953   6.021  30.613   6.848
 4769POPC   C4A60954   6.067  30.678   7.295
 4769POPC   C1B60955   5.583  30.797   6.151
 4769POPC   C2B60956   5.714  30.461   6.456
 4769POPC   C3B60957   5.568  30.328   6.872
 4769POPC   C4B60958   5.531  30.546   7.264
 4770POPC   NC360959  15.824  11.927   5.361
 4770POPC   PO460960  16.202  11.496   5.303
 4770POPC   GL160961  16.236  11.837   5.673
 4770POPC   GL260962  15.985  12.160   5.775
 4770POPC   C1A60963  16.346  11.973   6.099
 4770POPC   D2A60964  16.165  11.961   6.514
 4770POPC   C3A60965  16.167  12.248   6.862
 4770POPC   C4A60966  16.189  12.121   7.274
 4770POPC   C1B60967  15.723  12.207   6.181
 4770POPC   C2B60968  15.702  12.139   6.658
 4770POPC   C3B60969  15.724  12.109   7.104
 4770POPC   C4B60970  15.754  11.998   7.551
 4771POPC   NC360971  43.942  26.345   5.237
 4771POPC   PO460972  43.576  25.780   5.391
 4771POPC   GL160973  43.843  26.033   5.667
 4771POPC   GL260974  43.629  26.322   5.675
 4771POPC   C1A60975  44.101  26.113   6.061
 4771POPC   D2A60976  44.214  26.322   6.479
 4771POPC   C3A60977  44.167  26.077   6.856
 4771POPC   C4A60978  44.126  26.183   7.276
 4771POPC   C1B60979  43.545  26.129   6.101
 4771POPC   C2B60980  43.761  26.081   6.493
 4771POPC   C3B60981  43.640  26.058   6.926
 4771POPC   C4B60982  43.614  26.290   7.310
 4772POPC   NC360983  37.128   2.047   5.446
 4772POPC   PO460984  37.769   2.220   5.423
 4772POPC   GL160985  37.785   2.030   5.813
 4772POPC   GL260986  38.037   2.268   5.869
 4772POPC   C1A60987  37.557   1.840   6.169
 4772POPC   D2A60988  37.350   2.045   6.521
 4772POPC   C3A60989  37.389   1.921   6.955
 4772POPC   C4A60990  37.588   2.031   7.347
 4772POPC   C1B60991  38.016   2.097   6.285
 4772POPC   C2B60992  37.820   1.874   6.622
 4772POPC   C3B60993  37.952   2.015   7.004
 4772POPC   C4B60994  37.982   2.344   7.305
 4773POPC   NC360995  37.312  34.806   5.562
 4773POPC   PO460996  37.067  34.165   5.395
 4773POPC   GL160997  37.025  34.421   5.752
 4773POPC   GL260998  36.972  34.750   5.944
 4773POPC   C1A60999  36.921  34.313   6.168
 4773POPC   D2A61000  36.727  34.579   6.485
 4773POPC   C3A61001  36.890  34.450   6.886
 4773POPC   C4A61002  36.905  34.304   7.312
 4773POPC   C1B61003  37.370  34.850   6.225
 4773POPC   C2B61004  37.490  34.984   6.655
 4773POPC   C3B61005  37.283  35.126   7.046
 4773POPC   C4B61006  36.969  34.834   7.231
 4774POPC   NC361007  16.868  43.499   5.483
 4774POPC   PO461008  16.903  42.801   5.452
 4774POPC   GL161009  17.036  42.875   5.873
 4774POPC   GL261010  16.861  43.194   5.890
 4774POPC   C1A61011  17.028  43.026   6.329
 4774POPC   D2A61012  17.139  43.328   6.670
 4774POPC   C3A61013  16.824  43.236   6.981
 4774POPC   C4A61014  16.862  42.972   7.298
 4774POPC   C1B61015  16.537  43.134   6.233
 4774POPC   C2B61016  16.499  43.008   6.655
 4774POPC   C3B61017  16.299  43.128   7.014
 4774POPC   C4B61018  16.444  43.287   7.356
 4775POPC   NC361019  32.465   9.227   5.487
 4775POPC   PO461020  32.173   9.803   5.127
 4775POPC   GL161021  32.321   9.710   5.555
 4775POPC   GL261022  32.001   9.766   5.693
 4775POPC   C1A61023  32.425   9.840   6.012
 4775POPC   D2A61024  32.310   9.780   6.445
 4775POPC   C3A61025  32.497   9.798   6.883
 4775POPC   C4A61026  32.471   9.634   7.295
 4775POPC   C1B61027  32.027   9.495   6.064
 4775POPC   C2B61028  31.843   9.545   6.470
 4775POPC   C3B61029  31.995   9.709   6.841
 4775POPC   C4B61030  31.975   9.616   7.268
 4776POPC   NC361031   2.585  29.369   5.123
 4776POPC   PO461032   2.528  28.955   5.603
 4776POPC   GL161033   2.816  29.185   5.898
 4776POPC   GL261034   2.923  29.542   5.803
 4776POPC   C1A61035   2.837  29.012   6.335
 4776POPC   D2A61036   2.822  28.942   6.777
 4776POPC   C3A61037   2.474  29.180   6.947
 4776POPC   C4A61038   2.340  29.565   7.138
 4776POPC   C1B61039   2.849  29.581   6.277
 4776POPC   C2B61040   2.846  29.537   6.774
 4776POPC   C3B61041   2.981  29.561   7.231
 4776POPC   C4B61042   3.174  29.418   7.684
 4777POPC   NC361043  24.923  25.303   5.337
 4777POPC   PO461044  24.294  25.267   5.439
 4777POPC   GL161045  24.536  25.222   5.808
 4777POPC   GL261046  24.821  24.987   5.791
 4777POPC   C1A61047  24.440  25.436   6.199
 4777POPC   D2A61048  24.652  25.576   6.578
 4777POPC   C3A61049  24.571  25.347   6.961
 4777POPC   C4A61050  24.413  25.536   7.295
 4777POPC   C1B61051  24.733  25.037   6.272
 4777POPC   C2B61052  24.944  25.173   6.663
 4777POPC   C3B61053  25.016  25.140   7.094
 4777POPC   C4B61054  24.708  25.047   7.392
 4778POPC   NC361055  10.934   2.885   5.474
 4778POPC   PO461056  11.551   2.534   5.334
 4778POPC   GL161057  11.383   2.676   5.724
 4778POPC   GL261058  11.503   3.035   5.736
 4778POPC   C1A61059  11.295   2.541   6.173
 4778POPC   D2A61060  11.469   2.786   6.537
 4778POPC   C3A61061  11.500   2.642   6.969
 4778POPC   C4A61062  11.221   2.637   7.319
 4778POPC   C1B61063  11.228   3.059   6.101
 4778POPC   C2B61064  11.099   3.150   6.526
 4778POPC   C3B61065  11.218   3.103   6.949
 4778POPC   C4B61066  10.970   3.074   7.298
 4779POPC   NC361067   3.853  30.909   5.445
 4779POPC   PO461068   3.184  30.979   5.436
 4779POPC   GL161069   3.390  30.641   5.696
 4779POPC   GL261070   3.702  30.714   5.878
 4779POPC   C1A61071   3.304  30.541   6.128
 4779POPC   D2A61072   3.394  30.832   6.451
 4779POPC   C3A61073   3.347  30.756   6.874
 4779POPC   C4A61074   3.341  30.605   7.266
 4779POPC   C1B61075   3.800  30.581   6.260
 4779POPC   C2B61076   3.828  30.667   6.672
 4779POPC   C3B61077   3.812  30.690   7.072
 4779POPC   C4B61078   3.627  31.040   7.285
 4780POPC   NC361079  19.154  39.981   5.454
 4780POPC   PO461080  18.517  40.202   5.606
 4780POPC   GL161081  18.817  40.217   5.912
 4780POPC   GL261082  18.913  39.874   5.905
 4780POPC   C1A61083  18.883  40.147   6.352
 4780POPC   D2A61084  18.833  39.907   6.713
 4780POPC   C3A61085  19.065  40.202   6.932
 4780POPC   C4A61086  19.132  40.273   7.329
 4780POPC   C1B61087  19.296  39.937   6.155
 4780POPC   C2B61088  19.304  39.788   6.561
 4780POPC   C3B61089  19.419  39.837   6.986
 4780POPC   C4B61090  19.387  39.637   7.361
 4781POPC   NC361091  14.037  34.975   5.603
 4781POPC   PO461092  14.546  34.525   5.451
 4781POPC   GL161093  14.500  34.770   5.822
 4781POPC   GL261094  14.785  35.004   5.808
 4781POPC   C1A61095  14.260  34.693   6.238
 4781POPC   D2A61096  14.321  34.383   6.600
 4781POPC   C3A61097  14.041  34.292   6.955
 4781POPC   C4A61098  14.117  34.411   7.401
 4781POPC   C1B61099  14.731  34.868   6.273
 4781POPC   C2B61100  14.492  34.912   6.673
 4781POPC   C3B61101  14.451  34.626   7.033
 4781POPC   C4B61102  14.774  34.410   7.226
 4782POPC   NC361103  44.452  18.754   5.646
 4782POPC   PO461104  44.585  18.192   5.444
 4782POPC   GL161105  44.748  18.187   5.827
 4782POPC   GL261106  44.986  18.478   5.745
 4782POPC   C1A61107  44.651  18.109   6.289
 4782POPC   D2A61108  44.381  18.135   6.654
 4782POPC   C3A61109  44.525  18.280   7.090
 4782POPC   C4A61110  44.626  18.581   7.421
 4782POPC   C1B61111  44.800  18.573   6.166
 4782POPC   C2B61112  44.700  18.566   6.594
 4782POPC   C3B61113  44.962  18.525   6.920
 4782POPC   C4B61114   0.051  18.297   7.252
 4783POPC   NC361115  18.753  28.979   5.533
 4783POPC   PO461116  19.379  29.350   5.450
 4783POPC   GL161117  19.075  29.292   5.810
 4783POPC   GL261118  18.726  29.429   5.833
 4783POPC   C1A61119  19.103  29.008   6.182
 4783POPC   D2A61120  19.378  28.873   6.498
 4783POPC   C3A61121  19.367  29.017   6.923
 4783POPC   C4A61122  19.139  28.825   7.258
 4783POPC   C1B61123  18.744  29.349   6.265
 4783POPC   C2B61124  19.015  29.271   6.610
 4783POPC   C3B61125  18.843  29.120   6.968
 4783POPC   C4B61126  18.614  29.293   7.279
 4784POPC   NC361127   9.162  36.185   5.074
 4784POPC   PO461128   9.710  36.257   5.371
 4784POPC   GL161129   9.815  36.307   5.770
 4784POPC   GL261130   9.784  35.945   5.781
 4784POPC   C1A61131  10.021  36.398   6.160
 4784POPC   D2A61132   9.927  36.187   6.527
 4784POPC   C3A61133   9.951  36.324   6.929
 4784POPC   C4A61134   9.841  36.022   7.186
 4784POPC   C1B61135   9.596  36.054   6.162
 4784POPC   C2B61136   9.440  35.918   6.535
 4784POPC   C3B61137   9.437  35.818   6.936
 4784POPC   C4B61138   9.353  36.109   7.279
 4785POPC   NC361139  10.263  42.981   5.406
 4785POPC   PO461140   9.531  43.206   5.541
 4785POPC   GL161141   9.858  43.009   5.745
 4785POPC   GL261142  10.069  43.310   5.746
 4785POPC   C1A61143   9.724  42.905   6.151
 4785POPC   D2A61144   9.514  43.236   6.400
 4785POPC   C3A61145   9.665  43.142   6.815
 4785POPC   C4A61146   9.688  43.280   7.216
 4785POPC   C1B61147  10.104  43.247   6.169
 4785POPC   C2B61148   9.963  43.449   6.531
 4785POPC   C3B61149  10.094  43.431   6.948
 4785POPC   C4B61150  10.366  43.642   7.219
 4786POPC   NC361151  25.660  25.526   5.380
 4786POPC   PO461152  25.255  24.983   5.402
 4786POPC   GL161153  25.331  25.290   5.716
 4786POPC   GL261154  25.032  25.477   5.802
 4786POPC   C1A61155  25.539  25.387   6.100
 4786POPC   D2A61156  25.413  25.188   6.497
 4786POPC   C3A61157  25.461  25.369   6.900
 4786POPC   C4A61158  25.531  25.047   7.174
 4786POPC   C1B61159  25.044  25.437   6.219
 4786POPC   C2B61160  25.187  25.657   6.567
 4786POPC   C3B61161  25.007  25.627   6.971
 4786POPC   C4B61162  24.942  25.509   7.424
 4787POPC   NC361163  32.719  38.529   5.606
 4787POPC   PO461164  32.163  38.207   5.374
 4787POPC   GL161165  32.344  38.242   5.823
 4787POPC   GL261166  32.702  38.155   5.953
 4787POPC   C1A61167  32.250  38.258   6.270
 4787POPC   D2A61168  32.179  38.642   6.512
 4787POPC   C3A61169  31.927  38.595   6.862
 4787POPC   C4A61170  32.010  38.673   7.247
 4787POPC   C1B61171  32.745  38.382   6.368
 4787POPC   C2B61172  32.518  38.343   6.791
 4787POPC   C3B61173  32.410  38.358   7.235
 4787POPC   C4B61174  32.407  38.677   7.555
 4788POPC   NC361175   8.238  29.356   5.578
 4788POPC   PO461176   7.964  29.874   5.223
 4788POPC   GL161177   8.107  29.906   5.706
 4788POPC   GL261178   8.453  30.031   5.829
 4788POPC   C1A61179   8.043  30.081   6.152
 4788POPC   D2A61180   8.091  29.869   6.555
 4788POPC   C3A61181   7.952  29.930   6.983
 4788POPC   C4A61182   7.999  29.636   7.325
 4788POPC   C1B61183   8.540  29.831   6.217
 4788POPC   C2B61184   8.565  29.980   6.645
 4788POPC   C3B61185   8.419  29.680   6.933
 4788POPC   C4B61186   8.540  29.579   7.322
 4789POPC   NC361187  39.225  17.761   5.523
 4789POPC   PO461188  39.579  17.157   5.460
 4789POPC   GL161189  39.241  17.299   5.780
 4789POPC   GL261190  38.931  17.525   5.854
 4789POPC   C1A61191  39.149  17.201   6.215
 4789POPC   D2A61192  38.950  17.325   6.621
 4789POPC   C3A61193  39.219  17.151   6.930
 4789POPC   C4A61194  39.300  17.263   7.334
 4789POPC   C1B61195  39.038  17.707   6.245
 4789POPC   C2B61196  39.044  17.855   6.660
 4789POPC   C3B61197  39.065  17.668   7.051
 4789POPC   C4B61198  39.307  17.922   7.286
 4790POPC   NC361199   8.620   4.710   5.579
 4790POPC   PO461200   8.223   4.237   5.363
 4790POPC   GL161201   8.131   4.305   5.817
 4790POPC   GL261202   8.450   4.415   5.972
 4790POPC   C1A61203   8.101   4.185   6.272
 4790POPC   D2A61204   8.304   4.383   6.612
 4790POPC   C3A61205   8.195   4.173   6.989
 4790POPC   C4A61206   8.054   4.173   7.436
 4790POPC   C1B61207   8.699   4.739   6.214
 4790POPC   C2B61208   8.858   4.744   6.634
 4790POPC   C3B61209   8.540   4.695   6.937
 4790POPC   C4B61210   8.449   4.476   7.292
 4791POPC   NC361211  21.845   0.338   5.095
 4791POPC   PO461212  22.339   0.629   5.456
 4791POPC   GL161213  22.315   0.364   5.759
 4791POPC   GL261214  21.966   0.373   5.757
 4791POPC   C1A61215  22.387   0.363   6.192
 4791POPC   D2A61216  22.162   0.412   6.575
 4791POPC   C3A61217  22.337   0.519   6.939
 4791POPC   C4A61218  22.459   0.299   7.249
 4791POPC   C1B61219  21.883   0.235   6.192
 4791POPC   C2B61220  21.774   0.055   6.601
 4791POPC   C3B61221  21.788   0.368   6.931
 4791POPC   C4B61222  21.917   0.306   7.337
 4792POPC   NC361223   9.652  31.149   5.443
 4792POPC   PO461224   9.476  31.841   5.259
 4792POPC   GL161225   9.523  31.656   5.713
 4792POPC   GL261226   9.851  31.491   5.813
 4792POPC   C1A61227   9.553  31.718   6.190
 4792POPC   D2A61228   9.790  31.517   6.517
 4792POPC   C3A61229   9.662  31.603   6.920
 4792POPC   C4A61230   9.758  31.791   7.270
 4792POPC   C1B61231   9.651  31.209   6.116
 4792POPC   C2B61232   9.545  31.023   6.508
 4792POPC   C3B61233   9.630  31.085   6.920
 4792POPC   C4B61234   9.729  31.276   7.308
 4793POPC   NC361235  28.545  15.407   5.452
 4793POPC   PO461236  28.197  15.993   5.502
 4793POPC   GL161237  28.366  15.984   5.898
 4793POPC   GL261238  28.541  15.698   5.877
 4793POPC   C1A61239  28.440  16.202   6.263
 4793POPC   D2A61240  28.279  16.063   6.635
 4793POPC   C3A61241  28.490  16.154   7.009
 4793POPC   C4A61242  28.227  16.129   7.352
 4793POPC   C1B61243  28.311  15.673   6.290
 4793POPC   C2B61244  28.280  15.529   6.735
 4793POPC   C3B61245  28.415  15.674   7.170
 4793POPC   C4B61246  28.162  15.646   7.570
 4794POPC   NC361247  21.941  40.217   5.360
 4794POPC   PO461248  21.368  40.006   5.307
 4794POPC   GL161249  21.571  39.994   5.726
 4794POPC   GL261250  21.604  40.341   5.801
 4794POPC   C1A61251  21.357  39.887   6.154
 4794POPC   D2A61252  21.241  39.660   6.559
 4794POPC   C3A61253  21.415  39.762   6.974
 4794POPC   C4A61254  21.279  39.624   7.404
 4794POPC   C1B61255  21.729  40.229   6.217
 4794POPC   C2B61256  21.461  40.189   6.607
 4794POPC   C3B61257  21.244  40.253   6.989
 4794POPC   C4B61258  21.464  40.345   7.352
 4795POPC   NC361259  12.193  14.402   5.407
 4795POPC   PO461260  12.731  14.215   5.354
 4795POPC   GL161261  12.662  14.254   5.820
 4795POPC   GL261262  12.471  14.545   5.894
 4795POPC   C1A61263  12.768  14.371   6.299
 4795POPC   D2A61264  12.514  14.414   6.711
 4795POPC   C3A61265  12.686  14.603   7.131
 4795POPC   C4A61266  12.909  14.659   7.563
 4795POPC   C1B61267  12.449  14.777   6.328
 4795POPC   C2B61268  12.372  14.914   6.780
 4795POPC   C3B61269  12.253  14.868   7.211
 4795POPC   C4B61270  12.414  14.828   7.600
 4796POPC   NC361271  32.757  11.595   5.236
 4796POPC   PO461272  33.242  11.200   5.301
 4796POPC   GL161273  33.147  11.131   5.809
 4796POPC   GL261274  33.328  10.859   5.829
 4796POPC   C1A61275  32.994  11.317   6.251
 4796POPC   D2A61276  33.068  11.618   6.599
 4796POPC   C3A61277  32.957  11.446   7.000
 4796POPC   C4A61278  33.077  11.516   7.406
 4796POPC   C1B61279  33.188  10.863   6.279
 4796POPC   C2B61280  33.232  11.099   6.706
 4796POPC   C3B61281  33.292  10.971   7.153
 4796POPC   C4B61282  33.418  11.163   7.562
 4797POPC   NC361283  11.741  40.978   5.383
 4797POPC   PO461284  12.406  41.201   5.493
 4797POPC   GL161285  12.163  40.947   5.836
 4797POPC   GL261286  11.764  40.974   5.891
 4797POPC   C1A61287  12.380  40.760   6.199
 4797POPC   D2A61288  12.630  40.632   6.557
 4797POPC   C3A61289  12.431  40.750   6.950
 4797POPC   C4A61290  12.201  41.077   7.142
 4797POPC   C1B61291  11.873  40.795   6.290
 4797POPC   C2B61292  11.956  40.910   6.728
 4797POPC   C3B61293  11.710  40.904   7.136
 4797POPC   C4B61294  11.615  40.525   7.428
 4798POPC   NC361295  16.643  29.641   5.472
 4798POPC   PO461296  16.986  30.200   5.557
 4798POPC   GL161297  16.775  30.115   5.933
 4798POPC   GL261298  16.553  29.810   5.935
 4798POPC   C1A61299  17.013  30.136   6.316
 4798POPC   D2A61300  16.988  29.875   6.684
 4798POPC   C3A61301  16.860  30.202   6.947
 4798POPC   C4A61302  16.726  30.206   7.362
 4798POPC   C1B61303  16.590  29.848   6.373
 4798POPC   C2B61304  16.502  29.870   6.815
 4798POPC   C3B61305  16.757  29.740   7.176
 4798POPC   C4B61306  16.706  29.752   7.629
 4799POPC   NC361307  32.553   7.755   5.385
 4799POPC   PO461308  32.099   7.296   5.247
 4799POPC   GL161309  32.188   7.519   5.658
 4799POPC   GL261310  32.535   7.422   5.788
 4799POPC   C1A61311  32.180   7.568   6.127
 4799POPC   D2A61312  32.181   7.807   6.507
 4799POPC   C3A61313  32.171   7.609   6.927
 4799POPC   C4A61314  32.322   7.211   7.072
 4799POPC   C1B61315  32.697   7.526   6.218
 4799POPC   C2B61316  32.538   7.401   6.609
 4799POPC   C3B61317  32.679   7.569   6.988
 4799POPC   C4B61318  32.699   7.584   7.400
 4800POPC   NC361319  16.382  11.084   5.491
 4800POPC   PO461320  16.927  11.544   5.497
 4800POPC   GL161321  16.694  11.588   5.908
 4800POPC   GL261322  16.476  11.270   5.963
 4800POPC   C1A61323  16.825  11.440   6.333
 4800POPC   D2A61324  16.719  11.048   6.520
 4800POPC   C3A61325  16.609  11.139   6.928
 4800POPC   C4A61326  16.840  11.335   7.208
 4800POPC   C1B61327  16.303  11.504   6.304
 4800POPC   C2B61328  16.482  11.606   6.703
 4800POPC   C3B61329  16.487  11.704   7.142
 4800POPC   C4B61330  16.354  11.363   7.414
 4801POPC   NC361331  26.655  22.069   5.433
 4801POPC   PO461332  26.965  22.615   5.512
 4801POPC   GL161333  26.906  22.287   5.817
 4801POPC   GL261334  27.044  21.933   5.763
 4801POPC   C1A61335  26.623  22.187   6.137
 4801POPC   D2A61336  26.692  22.158   6.555
 4801POPC   C3A61337  26.529  22.074   6.948
 4801POPC   C4A61338  26.801  22.339   7.193
 4801POPC   C1B61339  26.922  21.782   6.177
 4801POPC   C2B61340  27.019  21.755   6.568
 4801POPC   C3B61341  27.027  21.954   6.924
 4801POPC   C4B61342  26.893  21.849   7.284
 4802POPC   NC361343   4.163   4.703   5.643
 4802POPC   PO461344   3.508   4.614   5.466
 4802POPC   GL161345   3.445   4.939   5.800
 4802POPC   GL261346   3.727   4.790   5.915
 4802POPC   C1A61347   3.584   5.216   6.173
 4802POPC   D2A61348   3.777   5.218   6.585
 4802POPC   C3A61349   3.554   5.278   6.944
 4802POPC   C4A61350   3.411   5.134   7.314
 4802POPC   C1B61351   3.957   4.856   6.276
 4802POPC   C2B61352   3.976   4.721   6.692
 4802POPC   C3B61353   3.818   4.852   7.084
 4802POPC   C4B61354   3.678   4.742   7.513
 4803POPC   NC361355  12.922  19.704   5.437
 4803POPC   PO461356  12.634  20.304   5.517
 4803POPC   GL161357  12.815  20.035   5.819
 4803POPC   GL261358  12.486  19.876   5.786
 4803POPC   C1A61359  13.032  19.962   6.245
 4803POPC   D2A61360  12.943  20.017   6.704
 4803POPC   C3A61361  13.029  19.645   6.967
 4803POPC   C4A61362  13.368  19.435   7.158
 4803POPC   C1B61363  12.508  19.992   6.219
 4803POPC   C2B61364  12.520  19.742   6.554
 4803POPC   C3B61365  12.533  19.789   6.984
 4803POPC   C4B61366  12.483  19.827   7.437
 4804POPC   NC361367  22.565   2.476   5.412
 4804POPC   PO461368  23.005   3.030   5.469
 4804POPC   GL161369  22.922   2.781   5.807
 4804POPC   GL261370  22.976   2.435   5.767
 4804POPC   C1A61371  23.168   2.851   6.169
 4804POPC   D2A61372  23.012   2.877   6.563
 4804POPC   C3A61373  23.077   3.048   6.938
 4804POPC   C4A61374  22.762   3.060   7.260
 4804POPC   C1B61375  22.914   2.411   6.226
 4804POPC   C2B61376  22.615   2.544   6.546
 4804POPC   C3B61377  22.677   2.675   6.939
 4804POPC   C4B61378  22.840   2.471   7.274
 4805POPC   NC361379  38.854   1.670   5.750
 4805POPC   PO461380  38.542   2.113   5.350
 4805POPC   GL161381  38.457   1.990   5.800
 4805POPC   GL261382  38.230   1.732   5.875
 4805POPC   C1A61383  38.534   2.037   6.267
 4805POPC   D2A61384  38.394   2.299   6.657
 4805POPC   C3A61385  38.460   2.070   7.078
 4805POPC   C4A61386  38.654   1.745   7.358
 4805POPC   C1B61387  38.181   1.611   6.271
 4805POPC   C2B61388  38.310   1.779   6.664
 4805POPC   C3B61389  38.261   1.585   7.060
 4805POPC   C4B61390  37.914   1.592   7.333
 4806POPC   NC361391   5.975  34.287   5.420
 4806POPC   PO461392   5.379  34.540   5.640
 4806POPC   GL161393   5.723  34.489   5.867
 4806POPC   GL261394   6.063  34.578   5.834
 4806POPC   C1A61395   5.735  34.447   6.282
 4806POPC   D2A61396   5.822  34.734   6.601
 4806POPC   C3A61397   5.607  34.710   6.950
 4806POPC   C4A61398   5.852  34.717   7.313
 4806POPC   C1B61399   6.204  34.605   6.258
 4806POPC   C2B61400   6.204  34.370   6.614
 4806POPC   C3B61401   5.937  34.333   6.938
 4806POPC   C4B61402   5.942  34.213   7.350
 4807POPC   NC361403  31.169  21.567   5.341
 4807POPC   PO461404  31.792  21.632   5.628
 4807POPC   GL161405  31.457  21.571   5.859
 4807POPC   GL261406  31.347  21.318   5.791
 4807POPC   C1A61407  31.494  21.488   6.317
 4807POPC   D2A61408  31.404  21.509   6.755
 4807POPC   C3A61409  31.435  21.509   7.191
 4807POPC   C4A61410  31.583  21.441   7.588
 4807POPC   C1B61411  31.118  21.175   6.139
 4807POPC   C2B61412  31.031  21.213   6.556
 4807POPC   C3B61413  31.132  21.121   6.978
 4807POPC   C4B61414  30.852  20.907   7.218
 4808POPC   NC361415  24.204  10.925   5.556
 4808POPC   PO461416  24.458  11.497   5.307
 4808POPC   GL161417  24.696  11.433   5.718
 4808POPC   GL261418  24.367  11.411   5.862
 4808POPC   C1A61419  24.749  11.354   6.199
 4808POPC   D2A61420  24.568  11.196   6.595
 4808POPC   C3A61421  24.633  11.050   7.009
 4808POPC   C4A61422  24.310  11.266   7.229
 4808POPC   C1B61423  24.333  11.665   6.271
 4808POPC   C2B61424  24.537  11.702   6.667
 4808POPC   C3B61425  24.722  11.548   7.025
 4808POPC   C4B61426  24.474  11.788   7.224
 4809POPC   NC361427  22.822  12.953   5.368
 4809POPC   PO461428  23.463  12.824   5.293
 4809POPC   GL161429  23.232  12.939   5.691
 4809POPC   GL261430  22.960  12.734   5.803
 4809POPC   C1A61431  23.254  12.900   6.176
 4809POPC   D2A61432  23.072  12.728   6.591
 4809POPC   C3A61433  23.156  12.950   6.953
 4809POPC   C4A61434  22.969  13.171   7.263
 4809POPC   C1B61435  22.739  12.803   6.186
 4809POPC   C2B61436  22.546  12.831   6.572
 4809POPC   C3B61437  22.663  12.825   6.944
 4809POPC   C4B61438  22.511  12.943   7.324
 4810POPC   NC361439  44.557  29.897   5.370
 4810POPC   PO461440   0.222  30.076   5.304
 4810POPC   GL161441  44.942  29.940   5.734
 4810POPC   GL261442  44.604  29.834   5.867
 4810POPC   C1A61443  44.884  30.190   6.193
 4810POPC   D2A61444  44.849  30.079   6.634
 4810POPC   C3A61445  44.483  30.127   6.877
 4810POPC   C4A61446  44.652  30.025   7.237
 4810POPC   C1B61447  44.508  29.869   6.300
 4810POPC   C2B61448  44.538  29.660   6.671
 4810POPC   C3B61449  44.320  29.649   7.041
 4810POPC   C4B61450  44.409  29.643   7.484
 4811POPC   NC361451  43.961  39.698   5.416
 4811POPC   PO461452  44.207  40.294   5.562
 4811POPC   GL161453  43.955  40.119   5.898
 4811POPC   GL261454  43.842  39.779   5.910
 4811POPC   C1A61455  43.828  40.203   6.315
 4811POPC   D2A61456  43.766  40.010   6.737
 4811POPC   C3A61457  44.027  40.053   7.110
 4811POPC   C4A61458  43.772  40.190   7.467
 4811POPC   C1B61459  43.816  39.664   6.350
 4811POPC   C2B61460  43.876  39.507   6.784
 4811POPC   C3B61461  43.684  39.679   7.162
 4811POPC   C4B61462  43.873  39.731   7.595
 4812POPC   NC361463  18.107  35.396   5.167
 4812POPC   PO461464  17.660  35.002   5.425
 4812POPC   GL161465  18.057  35.231   5.715
 4812POPC   GL261466  18.396  35.380   5.789
 4812POPC   C1A61467  18.053  35.522   6.126
 4812POPC   D2A61468  18.195  35.550   6.584
 4812POPC   C3A61469  18.169  35.468   7.050
 4812POPC   C4A61470  18.262  35.090   7.258
 4812POPC   C1B61471  18.459  35.228   6.188
 4812POPC   C2B61472  18.682  35.341   6.527
 4812POPC   C3B61473  18.602  35.209   6.905
 4812POPC   C4B61474  18.775  35.136   7.278
 4813POPC   NC361475   2.904   7.766   5.455
 4813POPC   PO461476   2.604   7.202   5.552
 4813POPC   GL161477   2.800   7.431   5.836
 4813POPC   GL261478   2.549   7.686   5.854
 4813POPC   C1A61479   3.085   7.363   6.169
 4813POPC   D2A61480   3.056   7.578   6.540
 4813POPC   C3A61481   3.137   7.408   6.934
 4813POPC   C4A61482   3.079   7.630   7.300
 4813POPC   C1B61483   2.412   7.445   6.211
 4813POPC   C2B61484   2.568   7.395   6.637
 4813POPC   C3B61485   2.639   7.517   7.055
 4813POPC   C4B61486   2.800   7.208   7.304
 4814POPC   NC361487  14.308  32.490   5.605
 4814POPC   PO461488  14.926  32.081   5.523
 4814POPC   GL161489  14.623  32.163   5.858
 4814POPC   GL261490  14.277  32.146   5.960
 4814POPC   C1A61491  14.616  32.432   6.227
 4814POPC   D2A61492  14.856  32.467   6.573
 4814POPC   C3A61493  14.679  32.557   6.918
 4814POPC   C4A61494  14.408  32.432   7.226
 4814POPC   C1B61495  14.472  31.923   6.286
 4814POPC   C2B61496  14.405  32.150   6.633
 4814POPC   C3B61497  14.100  32.193   6.900
 4814POPC   C4B61498  14.145  32.017   7.304
 4815POPC   NC361499   9.544  11.351   5.518
 4815POPC   PO461500  10.253  11.421   5.431
 4815POPC   GL161501  10.061  11.277   5.846
 4815POPC   GL261502   9.763  11.504   5.943
 4815POPC   C1A61503   9.996  11.280   6.311
 4815POPC   D2A61504   9.855  11.547   6.594
 4815POPC   C3A61505   9.916  11.340   6.951
 4815POPC   C4A61506  10.082  11.083   7.216
 4815POPC   C1B61507   9.448  11.535   6.276
 4815POPC   C2B61508   9.312  11.540   6.731
 4815POPC   C3B61509   9.453  11.374   7.139
 4815POPC   C4B61510   9.393  11.453   7.582
 4816POPC   NC361511  15.074  19.204   5.451
 4816POPC   PO461512  15.635  18.890   5.463
 4816POPC   GL161513  15.307  18.923   5.824
 4816POPC   GL261514  15.210  19.277   5.925
 4816POPC   C1A61515  15.148  18.911   6.289
 4816POPC   D2A61516  15.267  19.020   6.742
 4816POPC   C3A61517  15.159  18.942   7.201
 4816POPC   C4A61518  15.334  18.895   7.612
 4816POPC   C1B61519  15.340  19.552   6.239
 4816POPC   C2B61520  15.475  19.569   6.648
 4816POPC   C3B61521  15.275  19.605   7.050
 4816POPC   C4B61522  15.273  19.377   7.447
 4817POPC   NC361523  37.609  41.228   4.965
 4817POPC   PO461524  37.894  40.765   5.399
 4817POPC   GL161525  37.728  40.707   5.789
 4817POPC   GL261526  37.647  41.033   5.782
 4817POPC   C1A61527  37.511  40.818   6.211
 4817POPC   D2A61528  37.453  40.992   6.596
 4817POPC   C3A61529  37.607  40.834   6.968
 4817POPC   C4A61530  37.304  41.098   7.166
 4817POPC   C1B61531  37.990  40.956   6.145
 4817POPC   C2B61532  37.971  40.830   6.556
 4817POPC   C3B61533  38.103  41.066   6.910
 4817POPC   C4B61534  37.985  40.956   7.311
 4818POPC   NC361535  36.271   9.598   5.410
 4818POPC   PO461536  36.675  10.017   5.485
 4818POPC   GL161537  36.269  10.034   5.704
 4818POPC   GL261538  36.450   9.773   5.900
 4818POPC   C1A61539  35.964   9.860   6.019
 4818POPC   D2A61540  36.021   9.612   6.385
 4818POPC   C3A61541  35.874   9.776   6.759
 4818POPC   C4A61542  36.113   9.753   7.111
 4818POPC   C1B61543  36.405   9.956   6.321
 4818POPC   C2B61544  36.555   9.982   6.769
 4818POPC   C3B61545  36.554   9.966   7.254
 4818POPC   C4B61546  36.536   9.867   7.714
 4819POPC   NC361547  17.816  37.001   5.060
 4819POPC   PO461548  17.480  36.578   5.537
 4819POPC   GL161549  17.417  36.831   5.852
 4819POPC   GL261550  17.366  36.549   6.068
 4819POPC   C1A61551  17.546  36.976   6.257
 4819POPC   D2A61552  17.407  36.755   6.618
 4819POPC   C3A61553  17.559  37.030   6.922
 4819POPC   C4A61554  17.634  37.231   7.312
 4819POPC   C1B61555  17.805  36.500   6.187
 4819POPC   C2B61556  17.938  36.641   6.555
 4819POPC   C3B61557  17.759  36.526   6.928
 4819POPC   C4B61558  17.813  36.748   7.286
 4820POPC   NC361559  27.194  21.186   5.500
 4820POPC   PO461560  26.801  21.647   5.324
 4820POPC   GL161561  26.699  21.305   5.655
 4820POPC   GL261562  26.980  21.404   5.880
 4820POPC   C1A61563  26.591  21.213   6.129
 4820POPC   D2A61564  26.737  21.302   6.551
 4820POPC   C3A61565  26.509  21.221   6.946
 4820POPC   C4A61566  26.469  21.564   7.228
 4820POPC   C1B61567  27.229  21.318   6.255
 4820POPC   C2B61568  27.234  21.314   6.693
 4820POPC   C3B61569  26.960  21.434   7.002
 4820POPC   C4B61570  26.951  21.357   7.431
 4821POPC   NC361571  11.311  10.952   5.367
 4821POPC   PO461572  11.241  11.572   5.394
 4821POPC   GL161573  11.417  11.376   5.752
 4821POPC   GL261574  11.091  11.260   5.795
 4821POPC   C1A61575  11.442  11.252   6.201
 4821POPC   D2A61576  11.240  11.331   6.617
 4821POPC   C3A61577  11.501  11.395   7.002
 4821POPC   C4A61578  11.615  11.715   7.334
 4821POPC   C1B61579  10.993  10.997   6.169
 4821POPC   C2B61580  11.129  10.800   6.562
 4821POPC   C3B61581  11.034  10.866   7.023
 4821POPC   C4B61582  11.175  11.197   7.340
 4822POPC   NC361583   9.104  14.160   5.213
 4822POPC   PO461584   9.023  13.489   5.331
 4822POPC   GL161585   9.102  13.689   5.762
 4822POPC   GL261586   8.858  13.926   5.775
 4822POPC   C1A61587   9.096  13.551   6.218
 4822POPC   D2A61588   8.968  13.291   6.599
 4822POPC   C3A61589   8.996  13.491   7.002
 4822POPC   C4A61590   8.905  13.581   7.442
 4822POPC   C1B61591   8.817  14.004   6.216
 4822POPC   C2B61592   8.767  13.798   6.631
 4822POPC   C3B61593   8.684  13.892   7.069
 4822POPC   C4B61594   8.921  14.088   7.385
 4823POPC   NC361595   3.699  28.156   5.396
 4823POPC   PO461596   3.511  28.801   5.506
 4823POPC   GL161597   3.571  28.486   5.809
 4823POPC   GL261598   3.330  28.187   5.751
 4823POPC   C1A61599   3.528  28.530   6.267
 4823POPC   D2A61600   3.186  28.639   6.557
 4823POPC   C3A61601   3.314  28.499   6.972
 4823POPC   C4A61602   3.710  28.510   7.236
 4823POPC   C1B61603   3.628  28.061   6.080
 4823POPC   C2B61604   3.834  28.058   6.470
 4823POPC   C3B61605   3.721  28.182   6.851
 4823POPC   C4B61606   3.594  28.011   7.248
 4824POPC   NC361607   4.972  19.846   5.324
 4824POPC   PO461608   5.410  19.724   5.842
 4824POPC   GL161609   5.026  19.900   5.921
 4824POPC   GL261610   4.856  19.615   5.780
 4824POPC   C1A61611   5.107  20.010   6.359
 4824POPC   D2A61612   5.072  20.047   6.778
 4824POPC   C3A61613   5.235  19.785   7.069
 4824POPC   C4A61614   4.913  19.891   7.347
 4824POPC   C1B61615   4.927  19.437   6.207
 4824POPC   C2B61616   4.973  19.574   6.628
 4824POPC   C3B61617   4.806  19.503   7.028
 4824POPC   C4B61618   4.563  19.486   7.386
 4825POPC   NC361619  17.237  14.445   5.324
 4825POPC   PO461620  17.865  14.646   5.495
 4825POPC   GL161621  17.592  14.433   5.766
 4825POPC   GL261622  17.464  14.708   5.873
 4825POPC   C1A61623  17.708  14.253   6.165
 4825POPC   D2A61624  17.485  14.165   6.552
 4825POPC   C3A61625  17.418  14.316   6.971
 4825POPC   C4A61626  17.208  14.322   7.368
 4825POPC   C1B61627  17.583  14.719   6.316
 4825POPC   C2B61628  17.611  14.924   6.745
 4825POPC   C3B61629  17.387  14.802   7.127
 4825POPC   C4B61630  17.506  14.692   7.531
 4826POPC   NC361631  13.422   8.392   5.633
 4826POPC   PO461632  13.886   7.979   5.420
 4826POPC   GL161633  13.811   8.123   5.805
 4826POPC   GL261634  13.493   7.995   5.951
 4826POPC   C1A61635  13.949   8.392   6.097
 4826POPC   D2A61636  14.070   8.255   6.464
 4826POPC   C3A61637  13.815   8.305   6.799
 4826POPC   C4A61638  13.809   8.377   7.225
 4826POPC   C1B61639  13.526   8.258   6.338
 4826POPC   C2B61640  13.308   8.369   6.718
 4826POPC   C3B61641  13.414   8.078   7.034
 4826POPC   C4B61642  13.316   7.705   7.126
 4827POPC   NC361643  22.999  36.361   5.295
 4827POPC   PO461644  22.894  35.650   5.279
 4827POPC   GL161645  22.850  35.975   5.683
 4827POPC   GL261646  23.025  36.287   5.786
 4827POPC   C1A61647  22.839  36.008   6.156
 4827POPC   D2A61648  22.992  35.952   6.559
 4827POPC   C3A61649  22.810  36.070   6.944
 4827POPC   C4A61650  22.892  35.847   7.307
 4827POPC   C1B61651  22.994  36.527   6.151
 4827POPC   C2B61652  22.959  36.463   6.577
 4827POPC   C3B61653  23.128  36.485   6.967
 4827POPC   C4B61654  23.165  36.284   7.342
 4828POPC   NC361655   7.499  11.626   5.498
 4828POPC   PO461656   7.219  12.219   5.500
 4828POPC   GL161657   7.333  12.031   5.883
 4828POPC   GL261658   7.669  11.946   5.892
 4828POPC   C1A61659   7.105  11.889   6.256
 4828POPC   D2A61660   7.022  12.046   6.680
 4828POPC   C3A61661   7.390  12.156   6.897
 4828POPC   C4A61662   7.654  12.295   7.205
 4828POPC   C1B61663   7.599  11.857   6.329
 4828POPC   C2B61664   7.503  11.702   6.723
 4828POPC   C3B61665   7.174  11.614   6.991
 4828POPC   C4B61666   7.065  11.946   7.225
 4829POPC   NC361667  24.001   1.964   5.329
 4829POPC   PO461668  23.453   2.277   5.624
 4829POPC   GL161669  23.709   1.971   5.843
 4829POPC   GL261670  24.035   1.841   5.805
 4829POPC   C1A61671  23.611   1.761   6.209
 4829POPC   D2A61672  23.321   1.891   6.549
 4829POPC   C3A61673  23.548   2.024   6.916
 4829POPC   C4A61674  23.718   1.687   7.177
 4829POPC   C1B61675  24.087   2.019   6.178
 4829POPC   C2B61676  23.908   2.018   6.532
 4829POPC   C3B61677  24.064   1.960   6.909
 4829POPC   C4B61678  24.105   2.032   7.287
 4830POPC   NC361679  32.146  15.593   5.468
 4830POPC   PO461680  32.500  16.142   5.578
 4830POPC   GL161681  32.324  15.924   5.864
 4830POPC   GL261682  31.988  16.015   5.890
 4830POPC   C1A61683  32.462  15.847   6.251
 4830POPC   D2A61684  32.301  15.648   6.582
 4830POPC   C3A61685  32.353  15.896   6.934
 4830POPC   C4A61686  32.605  15.995   7.286
 4830POPC   C1B61687  31.972  15.645   6.138
 4830POPC   C2B61688  31.804  15.568   6.542
 4830POPC   C3B61689  31.958  15.544   6.995
 4830POPC   C4B61690  32.134  15.715   7.367
 4831POPC   NC361691  41.676  43.575   5.541
 4831POPC   PO461692  41.303  44.124   5.538
 4831POPC   GL161693  41.640  44.024   5.779
 4831POPC   GL261694  41.380  43.763   5.936
 4831POPC   C1A61695  41.819  43.848   6.135
 4831POPC   D2A61696  41.537  43.690   6.453
 4831POPC   C3A61697  41.685  43.482   6.800
 4831POPC   C4A61698  41.731  43.754   7.157
 4831POPC   C1B61699  41.356  44.126   6.218
 4831POPC   C2B61700  41.313  44.251   6.644
 4831POPC   C3B61701  41.398  44.152   7.087
 4831POPC   C4B61702  41.243  43.948   7.449
 4832POPC   NC361703  35.395  15.791   5.257
 4832POPC   PO461704  34.815  15.992   5.569
 4832POPC   GL161705  35.137  16.027   5.854
 4832POPC   GL261706  35.304  15.716   5.831
 4832POPC   C1A61707  35.338  16.042   6.255
 4832POPC   D2A61708  35.575  16.005   6.616
 4832POPC   C3A61709  35.401  15.984   7.014
 4832POPC   C4A61710  35.402  16.380   7.206
 4832POPC   C1B61711  34.999  15.657   6.192
 4832POPC   C2B61712  35.079  15.642   6.641
 4832POPC   C3B61713  34.949  15.703   7.054
 4832POPC   C4B61714  34.790  15.855   7.434
 4833POPC   NC361715   8.704   4.713   5.071
 4833POPC   PO461716   8.123   4.921   5.209
 4833POPC   GL161717   8.284   5.089   5.641
 4833POPC   GL261718   8.172   4.813   5.806
 4833POPC   C1A61719   8.295   5.184   6.120
 4833POPC   D2A61720   8.407   4.995   6.534
 4833POPC   C3A61721   8.256   5.121   6.916
 4833POPC   C4A61722   8.260   5.455   7.195
 4833POPC   C1B61723   8.097   4.708   6.225
 4833POPC   C2B61724   7.948   4.756   6.635
 4833POPC   C3B61725   8.035   4.668   7.057
 4833POPC   C4B61726   7.956   5.021   7.302
 4834POPC   NC361727  40.425  32.758   5.553
 4834POPC   PO461728  39.811  32.889   5.468
 4834POPC   GL161729  40.067  33.086   5.793
 4834POPC   GL261730  40.197  32.835   5.993
 4834POPC   C1A61731  40.152  33.331   6.154
 4834POPC   D2A61732  40.077  33.137   6.536
 4834POPC   C3A61733  40.234  33.323   6.921
 4834POPC   C4A61734  39.998  33.246   7.284
 4834POPC   C1B61735  39.896  32.697   6.231
 4834POPC   C2B61736  40.034  32.607   6.606
 4834POPC   C3B61737  40.174  32.808   6.936
 4834POPC   C4B61738  39.966  32.745   7.314
 4835POPC   NC361739  10.216  30.718   5.420
 4835POPC   PO461740  10.637  30.183   5.265
 4835POPC   GL161741  10.607  30.427   5.704
 4835POPC   GL261742  10.324  30.585   5.906
 4835POPC   C1A61743  10.726  30.439   6.186
 4835POPC   D2A61744  10.782  30.293   6.639
 4835POPC   C3A61745  10.709  30.468   7.038
 4835POPC   C4A61746  10.266  30.653   7.181
 4835POPC   C1B61747  10.473  30.871   6.257
 4835POPC   C2B61748  10.446  30.754   6.695
 4835POPC   C3B61749  10.661  30.957   7.066
 4835POPC   C4B61750  10.637  30.805   7.483
 4836POPC   NC361751  41.567  35.016   5.429
 4836POPC   PO461752  41.904  34.415   5.524
 4836POPC   GL161753  41.721  34.676   5.809
 4836POPC   GL261754  41.601  34.392   5.953
 4836POPC   C1A61755  41.703  34.788   6.257
 4836POPC   D2A61756  41.457  34.651   6.626
 4836POPC   C3A61757  41.549  34.887   7.026
 4836POPC   C4A61758  41.770  34.810   7.408
 4836POPC   C1B61759  41.366  34.131   6.161
 4836POPC   C2B61760  41.456  34.116   6.538
 4836POPC   C3B61761  41.382  34.133   6.929
 4836POPC   C4B61762  41.574  34.394   7.193
 4837POPC   NC361763  29.365  25.209   5.518
 4837POPC   PO461764  29.006  24.813   5.256
 4837POPC   GL161765  28.954  25.108   5.766
 4837POPC   GL261766  29.291  25.175   6.004
 4837POPC   C1A61767  28.899  25.091   6.270
 4837POPC   D2A61768  29.183  25.247   6.638
 4837POPC   C3A61769  29.006  25.187   7.083
 4837POPC   C4A61770  28.931  25.079   7.529
 4837POPC   C1B61771  29.358  25.571   6.261
 4837POPC   C2B61772  29.419  25.708   6.697
 4837POPC   C3B61773  29.326  25.595   7.122
 4837POPC   C4B61774  29.359  25.634   7.597
 4838POPC   NC361775  11.088   8.529   5.469
 4838POPC   PO461776  11.352   7.936   5.231
 4838POPC   GL161777  11.361   8.093   5.679
 4838POPC   GL261778  11.520   8.428   5.751
 4838POPC   C1A61779  11.191   8.158   6.118
 4838POPC   D2A61780  11.014   7.972   6.513
 4838POPC   C3A61781  11.081   8.177   6.907
 4838POPC   C4A61782  11.330   8.089   7.273
 4838POPC   C1B61783  11.643   8.422   6.182
 4838POPC   C2B61784  11.476   8.321   6.591
 4838POPC   C3B61785  11.519   8.499   7.017
 4838POPC   C4B61786  11.700   8.395   7.426
 4839POPC   NC361787   2.720  41.875   5.289
 4839POPC   PO461788   2.488  41.278   5.491
 4839POPC   GL161789   2.688  41.600   5.767
 4839POPC   GL261790   2.486  41.912   5.750
 4839POPC   C1A61791   2.816  41.511   6.202
 4839POPC   D2A61792   2.744  41.243   6.572
 4839POPC   C3A61793   2.689  41.470   6.985
 4839POPC   C4A61794   2.808  41.383   7.393
 4839POPC   C1B61795   2.403  41.921   6.191
 4839POPC   C2B61796   2.594  41.811   6.597
 4839POPC   C3B61797   2.551  42.001   7.024
 4839POPC   C4B61798   2.510  41.781   7.429
 4840POPC   NC361799  28.571  43.657   5.133
 4840POPC   PO461800  28.145  44.008   5.475
 4840POPC   GL161801  28.371  43.971   5.844
 4840POPC   GL261802  28.103  43.764   5.925
 4840POPC   C1A61803  28.495  43.932   6.290
 4840POPC   D2A61804  28.589  43.744   6.686
 4840POPC   C3A61805  28.697  43.831   7.152
 4840POPC   C4A61806  28.681  44.117   7.549
 4840POPC   C1B61807  27.976  43.977   6.260
 4840POPC   C2B61808  28.066  43.760   6.612
 4840POPC   C3B61809  28.102  43.902   6.990
 4840POPC   C4B61810  28.250  43.939   7.330
 4841POPC   NC361811   0.322  11.643   5.412
 4841POPC   PO461812   0.520  11.022   5.311
 4841POPC   GL161813   0.536  11.269   5.735
 4841POPC   GL261814   0.223  11.324   5.813
 4841POPC   C1A61815   0.555  11.370   6.211
 4841POPC   D2A61816   0.528  11.117   6.612
 4841POPC   C3A61817   0.639  11.177   7.066
 4841POPC   C4A61818   0.516  11.351   7.483
 4841POPC   C1B61819   0.060  11.451   6.248
 4841POPC   C2B61820   0.297  11.591   6.624
 4841POPC   C3B61821   0.408  11.647   7.054
 4841POPC   C4B61822   0.133  11.765   7.371
 4842POPC   NC361823   6.901   4.079   5.457
 4842POPC   PO461824   6.365   4.556   5.346
 4842POPC   GL161825   6.409   4.447   5.766
 4842POPC   GL261826   6.352   4.138   5.881
 4842POPC   C1A61827   6.553   4.582   6.170
 4842POPC   D2A61828   6.439   4.530   6.600
 4842POPC   C3A61829   6.798   4.579   6.895
 4842POPC   C4A61830   6.783   4.673   7.336
 4842POPC   C1B61831   6.745   4.084   6.121
 4842POPC   C2B61832   6.816   4.148   6.564
 4842POPC   C3B61833   6.565   4.119   6.935
 4842POPC   C4B61834   6.809   4.148   7.278
 4843POPC   NC361835   0.211  24.230   5.317
 4843POPC   PO461836   0.557  24.762   5.356
 4843POPC   GL161837   0.634  24.692   5.787
 4843POPC   GL261838   0.921  24.921   5.813
 4843POPC   C1A61839   0.364  24.530   6.162
 4843POPC   D2A61840   0.172  24.670   6.572
 4843POPC   C3A61841   0.116  24.409   6.916
 4843POPC   C4A61842   0.358  24.201   7.192
 4843POPC   C1B61843   0.735  24.918   6.234
 4843POPC   C2B61844   0.600  24.968   6.660
 4843POPC   C3B61845   0.601  24.750   7.067
 4843POPC   C4B61846   0.896  24.811   7.434
 4844POPC   NC361847   3.059  40.188   5.423
 4844POPC   PO461848   2.459  40.309   5.739
 4844POPC   GL161849   2.824  40.092   5.924
 4844POPC   GL261850   3.150  39.905   5.848
 4844POPC   C1A61851   2.865  40.215   6.357
 4844POPC   D2A61852   2.538  40.137   6.661
 4844POPC   C3A61853   2.449  40.324   7.056
 4844POPC   C4A61854   2.553  40.186   7.466
 4844POPC   C1B61855   3.030  39.741   6.253
 4844POPC   C2B61856   2.974  39.854   6.693
 4844POPC   C3B61857   2.817  39.956   7.068
 4844POPC   C4B61858   2.847  39.761   7.442
 4845POPC   NC361859   1.404  42.992   5.510
 4845POPC   PO461860   0.832  43.023   5.277
 4845POPC   GL161861   0.939  43.148   5.734
 4845POPC   GL261862   0.992  42.828   5.873
 4845POPC   C1A61863   1.151  43.332   6.156
 4845POPC   D2A61864   1.452  43.294   6.507
 4845POPC   C3A61865   1.301  43.455   6.911
 4845POPC   C4A61866   1.209  43.364   7.331
 4845POPC   C1B61867   1.341  42.850   6.172
 4845POPC   C2B61868   1.298  42.811   6.615
 4845POPC   C3B61869   1.369  42.951   7.073
 4845POPC   C4B61870   1.353  42.935   7.552
 4846POPC   NC361871  15.506  37.118   5.478
 4846POPC   PO461872  15.424  37.853   5.344
 4846POPC   GL161873  15.291  37.964   5.787
 4846POPC   GL261874  15.260  37.607   5.824
 4846POPC   C1A61875  15.035  37.872   6.204
 4846POPC   D2A61876  14.878  37.755   6.657
 4846POPC   C3A61877  15.202  37.977   6.926
 4846POPC   C4A61878  15.368  37.917   7.300
 4846POPC   C1B61879  15.460  37.539   6.236
 4846POPC   C2B61880  15.356  37.564   6.671
 4846POPC   C3B61881  15.233  37.467   7.081
 4846POPC   C4B61882  15.236  37.099   7.333
 4847POPC   NC361883  31.185  37.636   5.139
 4847POPC   PO461884  31.676  37.334   5.412
 4847POPC   GL161885  31.347  37.495   5.730
 4847POPC   GL261886  31.558  37.764   5.912
 4847POPC   C1A61887  31.227  37.522   6.200
 4847POPC   D2A61888  31.595  37.554   6.499
 4847POPC   C3A61889  31.511  37.484   6.914
 4847POPC   C4A61890  31.691  37.564   7.294
 4847POPC   C1B61891  31.389  38.006   6.306
 4847POPC   C2B61892  31.217  37.845   6.706
 4847POPC   C3B61893  31.339  37.905   7.141
 4847POPC   C4B61894  31.508  37.932   7.587
 4848POPC   NC361895  44.635  38.032   5.527
 4848POPC   PO461896  44.691  38.770   5.605
 4848POPC   GL161897  44.525  38.581   5.955
 4848POPC   GL261898  44.429  38.240   5.943
 4848POPC   C1A61899  44.691  38.679   6.357
 4848POPC   D2A61900  44.968  38.824   6.688
 4848POPC   C3A61901  44.794  38.654   7.067
 4848POPC   C4A61902  44.674  38.565   7.477
 4848POPC   C1B61903  44.808  38.202   6.215
 4848POPC   C2B61904  44.768  38.281   6.672
 4848POPC   C3B61905  44.890  38.057   7.059
 4848POPC   C4B61906  44.860  38.072   7.499
 4849POPC   NC361907  18.929  18.679   5.290
 4849POPC   PO461908  18.604  18.084   5.456
 4849POPC   GL161909  18.846  18.191   5.822
 4849POPC   GL261910  19.183  18.273   5.669
 4849POPC   C1A61911  18.823  18.084   6.293
 4849POPC   D2A61912  18.713  18.183   6.747
 4849POPC   C3A61913  18.953  18.175   7.135
 4849POPC   C4A61914  18.810  18.171   7.595
 4849POPC   C1B61915  19.229  18.396   6.110
 4849POPC   C2B61916  19.109  18.434   6.538
 4849POPC   C3B61917  18.979  18.619   6.907
 4849POPC   C4B61918  19.387  18.503   7.118
 4850POPC   NC361919  21.323  40.533   5.403
 4850POPC   PO461920  20.953  41.017   5.209
 4850POPC   GL161921  21.232  40.958   5.662
 4850POPC   GL261922  21.173  40.677   5.869
 4850POPC   C1A61923  21.497  40.981   6.096
 4850POPC   D2A61924  21.680  40.701   6.417
 4850POPC   C3A61925  21.565  40.675   6.852
 4850POPC   C4A61926  21.544  41.040   7.097
 4850POPC   C1B61927  21.267  40.461   6.216
 4850POPC   C2B61928  21.098  40.567   6.600
 4850POPC   C3B61929  21.085  40.952   6.808
 4850POPC   C4B61930  21.062  40.934   7.232
 4851POPC   NC361931  38.016  15.821   5.381
 4851POPC   PO461932  37.478  16.192   5.463
 4851POPC   GL161933  37.678  15.947   5.818
 4851POPC   GL261934  38.046  16.016   5.856
 4851POPC   C1A61935  37.548  15.809   6.233
 4851POPC   D2A61936  37.617  15.970   6.649
 4851POPC   C3A61937  37.465  15.854   7.025
 4851POPC   C4A61938  37.570  15.492   7.250
 4851POPC   C1B61939  37.985  16.081   6.284
 4851POPC   C2B61940  38.137  16.078   6.695
 4851POPC   C3B61941  37.923  16.069   7.088
 4851POPC   C4B61942  37.953  16.055   7.563
 4852POPC   NC361943  39.223  10.843   5.307
 4852POPC   PO461944  39.222  10.208   5.330
 4852POPC   GL161945  39.409  10.491   5.666
 4852POPC   GL261946  39.555  10.290   5.916
 4852POPC   C1A61947  39.380  10.751   6.086
 4852POPC   D2A61948  39.332  10.732   6.569
 4852POPC   C3A61949  39.063  10.869   6.938
 4852POPC   C4A61950  39.126  10.704   7.386
 4852POPC   C1B61951  39.390  10.269   6.355
 4852POPC   C2B61952  39.355  10.143   6.811
 4852POPC   C3B61953  39.266  10.205   7.261
 4852POPC   C4B61954  39.088  10.254   7.680
 4853POPC   NC361955   3.127  16.914   5.227
 4853POPC   PO461956   3.277  17.527   5.475
 4853POPC   GL161957   3.419  17.465   5.862
 4853POPC   GL261958   3.746  17.559   5.807
 4853POPC   C1A61959   3.212  17.459   6.242
 4853POPC   D2A61960   3.140  17.258   6.608
 4853POPC   C3A61961   3.189  17.506   6.940
 4853POPC   C4A61962   3.207  17.517   7.358
 4853POPC   C1B61963   3.834  17.446   6.222
 4853POPC   C2B61964   3.611  17.503   6.600
 4853POPC   C3B61965   3.683  17.554   7.030
 4853POPC   C4B61966   3.927  17.338   7.335
 4854POPC   NC361967  29.413  24.600   5.370
 4854POPC   PO461968  28.818  24.648   5.749
 4854POPC   GL161969  29.256  24.638   5.873
 4854POPC   GL261970  29.390  24.284   5.789
 4854POPC   C1A61971  29.322  24.683   6.316
 4854POPC   D2A61972  29.027  24.755   6.646
 4854POPC   C3A61973  29.164  24.690   7.048
 4854POPC   C4A61974  28.844  24.603   7.334
 4854POPC   C1B61975  29.277  24.145   6.216
 4854POPC   C2B61976  29.198  24.252   6.657
 4854POPC   C3B61977  29.077  24.173   7.118
 4854POPC   C4B61978  29.138  24.242   7.566
 4855POPC   NC361979  39.902  26.905   5.579
 4855POPC   PO461980  40.479  26.466   5.552
 4855POPC   GL161981  40.236  26.691   5.933
 4855POPC   GL261982  40.305  27.023   5.901
 4855POPC   C1A61983  39.882  26.871   6.272
 4855POPC   D2A61984  39.681  27.167   6.627
 4855POPC   C3A61985  39.760  27.055   7.062
 4855POPC   C4A61986  39.938  26.637   7.188
 4855POPC   C1B61987  40.303  27.164   6.308
 4855POPC   C2B61988  40.274  27.158   6.764
 4855POPC   C3B61989  40.283  27.006   7.195
 4855POPC   C4B61990  40.374  26.693   7.551
 4856POPC   NC361991  44.365  30.606   5.448
 4856POPC   PO461992  43.605  30.710   5.474
 4856POPC   GL161993  43.928  30.576   5.712
 4856POPC   GL261994  44.071  30.912   5.751
 4856POPC   C1A61995  44.059  30.490   6.121
 4856POPC   D2A61996  44.170  30.303   6.520
 4856POPC   C3A61997  43.975  30.493   6.907
 4856POPC   C4A61998  43.698  30.388   7.264
 4856POPC   C1B61999  44.033  31.003   6.188
 4856POPC   C2B62000  44.197  31.018   6.617
 4856POPC   C3B62001  44.172  30.956   7.058
 4856POPC   C4B62002  44.288  30.581   7.310
 4857POPC   NC362003  31.566  14.553   5.257
 4857POPC   PO462004  31.174  14.036   5.348
 4857POPC   GL162005  31.370  14.295   5.711
 4857POPC   GL262006  31.228  14.653   5.692
 4857POPC   C1A62007  31.699  14.305   6.098
 4857POPC   D2A62008  31.884  14.163   6.535
 4857POPC   C3A62009  31.750  14.271   6.961
 4857POPC   C4A62010  31.417  14.301   7.266
 4857POPC   C1B62011  31.376  14.710   6.129
 4857POPC   C2B62012  31.495  14.549   6.560
 4857POPC   C3B62013  31.517  14.735   6.974
 4857POPC   C4B62014  31.484  15.007   7.321
 4858POPC   NC362015  27.442  22.683   5.485
 4858POPC   PO462016  28.166  22.591   5.482
 4858POPC   GL162017  27.829  22.845   5.813
 4858POPC   GL262018  27.511  22.708   5.967
 4858POPC   C1A62019  27.781  22.935   6.323
 4858POPC   D2A62020  27.681  22.620   6.674
 4858POPC   C3A62021  27.585  22.779   7.088
 4858POPC   C4A62022  27.674  23.122   7.310
 4858POPC   C1B62023  27.311  22.738   6.326
 4858POPC   C2B62024  27.229  22.910   6.742
 4858POPC   C3B62025  27.079  22.758   7.108
 4858POPC   C4B62026  27.206  22.518   7.460
 4859POPC   NC362027   5.826  16.492   5.561
 4859POPC   PO462028   6.226  16.926   5.392
 4859POPC   GL162029   5.901  16.975   5.736
 4859POPC   GL262030   6.158  16.944   5.958
 4859POPC   C1A62031   5.646  16.871   6.114
 4859POPC   D2A62032   5.677  16.561   6.452
 4859POPC   C3A62033   5.664  16.732   6.855
 4859POPC   C4A62034   5.870  16.692   7.273
 4859POPC   C1B62035   6.061  16.965   6.406
 4859POPC   C2B62036   6.169  16.708   6.740
 4859POPC   C3B62037   6.352  16.748   7.113
 4859POPC   C4B62038   6.290  16.711   7.577
 4860POPC   NC362039  22.347  34.645   5.274
 4860POPC   PO462040  21.869  35.105   5.389
 4860POPC   GL162041  22.022  34.770   5.712
 4860POPC   GL262042  22.284  34.492   5.763
 4860POPC   C1A62043  22.119  34.756   6.174
 4860POPC   D2A62044  22.101  34.931   6.604
 4860POPC   C3A62045  22.212  34.778   7.019
 4860POPC   C4A62046  21.923  34.615   7.357
 4860POPC   C1B62047  22.322  34.273   6.184
 4860POPC   C2B62048  22.306  34.372   6.643
 4860POPC   C3B62049  22.181  34.269   7.077
 4860POPC   C4B62050  22.177  34.210   7.556
 4861POPC   NC362051  13.836  25.720   5.440
 4861POPC   PO462052  14.126  26.349   5.529
 4861POPC   GL162053  13.874  26.055   5.829
 4861POPC   GL262054  13.509  25.901   5.823
 4861POPC   C1A62055  13.779  26.031   6.251
 4861POPC   D2A62056  13.550  26.274   6.542
 4861POPC   C3A62057  13.762  26.236   6.921
 4861POPC   C4A62058  13.877  25.961   7.226
 4861POPC   C1B62059  13.338  25.773   6.253
 4861POPC   C2B62060  13.364  25.832   6.717
 4861POPC   C3B62061  13.311  26.034   7.133
 4861POPC   C4B62062  13.508  26.210   7.516
 4862POPC   NC362063  39.174  38.533   5.485
 4862POPC   PO462064  39.577  37.984   5.378
 4862POPC   GL162065  39.397  38.220   5.814
 4862POPC   GL262066  39.415  38.609   5.915
 4862POPC   C1A62067  39.043  38.364   6.127
 4862POPC   D2A62068  38.777  38.485   6.475
 4862POPC   C3A62069  38.868  38.330   6.908
 4862POPC   C4A62070  38.990  38.568   7.279
 4862POPC   C1B62071  39.561  38.407   6.304
 4862POPC   C2B62072  39.599  38.375   6.759
 4862POPC   C3B62073  39.489  38.473   7.186
 4862POPC   C4B62074  39.443  38.734   7.576
 4863POPC   NC362075   3.069  12.372   5.578
 4863POPC   PO462076   3.269  11.707   5.493
 4863POPC   GL162077   3.223  11.961   5.851
 4863POPC   GL262078   3.491  12.222   5.854
 4863POPC   C1A62079   3.285  11.976   6.300
 4863POPC   D2A62080   3.537  11.870   6.639
 4863POPC   C3A62081   3.429  11.841   7.066
 4863POPC   C4A62082   3.169  11.912   7.401
 4863POPC   C1B62083   3.273  12.479   6.188
 4863POPC   C2B62084   3.364  12.641   6.601
 4863POPC   C3B62085   3.503  12.356   6.911
 4863POPC   C4B62086   3.540  12.289   7.327
 4864POPC   NC362087  15.969  12.639   5.344
 4864POPC   PO462088  15.441  13.165   5.382
 4864POPC   GL162089  15.761  12.996   5.658
 4864POPC   GL262090  15.674  12.637   5.755
 4864POPC   C1A62091  16.137  12.938   5.950
 4864POPC   D2A62092  16.289  12.976   6.404
 4864POPC   C3A62093  16.149  12.771   6.795
 4864POPC   C4A62094  16.314  12.632   7.191
 4864POPC   C1B62095  15.653  12.835   6.147
 4864POPC   C2B62096  15.716  12.636   6.530
 4864POPC   C3B62097  15.684  12.605   6.959
 4864POPC   C4B62098  15.794  12.972   7.148
 4865POPC   NC362099  21.476   8.822   5.119
 4865POPC   PO462100  21.793   9.346   5.406
 4865POPC   GL162101  21.570   8.966   5.589
 4865POPC   GL262102  21.249   8.953   5.673
 4865POPC   C1A62103  21.593   8.862   6.040
 4865POPC   D2A62104  21.429   9.076   6.423
 4865POPC   C3A62105  21.522   8.950   6.813
 4865POPC   C4A62106  21.455   8.787   7.212
 4865POPC   C1B62107  21.101   8.804   6.112
 4865POPC   C2B62108  20.899   8.939   6.469
 4865POPC   C3B62109  21.027   8.977   6.893
 4865POPC   C4B62110  20.943   8.696   7.244
 4866POPC   NC362111  44.924  37.223   5.416
 4866POPC   PO462112  44.729  36.568   5.319
 4866POPC   GL162113  44.668  36.768   5.710
 4866POPC   GL262114   0.024  36.812   5.686
 4866POPC   C1A62115  44.504  37.009   6.103
 4866POPC   D2A62116  44.584  37.284   6.510
 4866POPC   C3A62117  44.402  37.133   6.924
 4866POPC   C4A62118  44.342  36.737   7.207
 4866POPC   C1B62119  44.969  36.819   6.141
 4866POPC   C2B62120  44.691  36.743   6.525
 4866POPC   C3B62121  44.798  36.836   6.954
 4866POPC   C4B62122  44.827  36.638   7.341
 4867POPC   NC362123  15.803  37.921   5.587
 4867POPC   PO462124  16.013  37.270   5.426
 4867POPC   GL162125  16.100  37.536   5.780
 4867POPC   GL262126  15.764  37.466   5.848
 4867POPC   C1A62127  15.955  37.792   6.201
 4867POPC   D2A62128  16.039  38.014   6.569
 4867POPC   C3A62129  15.790  37.984   6.953
 4867POPC   C4A62130  15.849  37.805   7.380
 4867POPC   C1B62131  16.038  37.300   6.213
 4867POPC   C2B62132  15.825  37.401   6.576
 4867POPC   C3B62133  15.774  37.493   7.006
 4867POPC   C4B62134  15.658  37.338   7.420
 4868POPC   NC362135  34.899   9.884   5.404
 4868POPC   PO462136  34.461   9.385   5.435
 4868POPC   GL162137  34.604   9.673   5.773
 4868POPC   GL262138  34.716   9.393   5.908
 4868POPC   C1A62139  34.569   9.861   6.211
 4868POPC   D2A62140  34.289   9.803   6.570
 4868POPC   C3A62141  34.394   9.566   6.955
 4868POPC   C4A62142  34.578   9.776   7.307
 4868POPC   C1B62143  34.885   9.464   6.289
 4868POPC   C2B62144  34.816   9.670   6.686
 4868POPC   C3B62145  34.984   9.558   7.085
 4868POPC   C4B62146  34.881   9.399   7.492
 4869POPC   NC362147   6.342  31.109   5.335
 4869POPC   PO462148   6.459  30.474   5.498
 4869POPC   GL162149   6.810  30.599   5.799
 4869POPC   GL262150   6.937  30.962   5.723
 4869POPC   C1A62151   6.683  30.525   6.231
 4869POPC   D2A62152   6.342  30.401   6.488
 4869POPC   C3A62153   6.494  30.457   6.914
 4869POPC   C4A62154   6.685  30.300   7.263
 4869POPC   C1B62155   6.638  31.021   6.061
 4869POPC   C2B62156   6.718  31.072   6.490
 4869POPC   C3B62157   6.808  31.097   6.905
 4869POPC   C4B62158   6.802  30.786   7.191
 4870POPC   NC362159  10.901   5.911   5.370
 4870POPC   PO462160  11.542   5.626   5.547
 4870POPC   GL162161  11.315   5.831   5.889
 4870POPC   GL262162  11.588   5.955   6.054
 4870POPC   C1A62163  11.130   5.971   6.309
 4870POPC   D2A62164  11.263   6.143   6.746
 4870POPC   C3A62165  11.086   5.922   7.120
 4870POPC   C4A62166  11.143   5.676   7.512
 4870POPC   C1B62167  11.615   5.884   6.450
 4870POPC   C2B62168  11.757   5.823   6.831
 4870POPC   C3B62169  11.590   6.052   7.182
 4870POPC   C4B62170  11.778   6.308   7.550
 4871POPC   NC362171  43.267   6.375   5.329
 4871POPC   PO462172  42.869   5.920   5.467
 4871POPC   GL162173  43.058   5.878   5.837
 4871POPC   GL262174  43.240   6.193   5.820
 4871POPC   C1A62175  42.902   5.664   6.197
 4871POPC   D2A62176  42.764   5.501   6.611
 4871POPC   C3A62177  43.053   5.648   6.927
 4871POPC   C4A62178  43.140   5.813   7.332
 4871POPC   C1B62179  43.394   6.365   6.226
 4871POPC   C2B62180  43.458   6.253   6.664
 4871POPC   C3B62181  43.574   6.099   7.090
 4871POPC   C4B62182  43.379   6.249   7.474
 4872POPC   NC362183  16.760  14.995   5.274
 4872POPC   PO462184  16.791  14.330   5.311
 4872POPC   GL162185  16.991  14.433   5.756
 4872POPC   GL262186  16.977  14.797   5.715
 4872POPC   C1A62187  17.126  14.277   6.196
 4872POPC   D2A62188  16.846  14.295   6.587
 4872POPC   C3A62189  16.808  14.081   7.000
 4872POPC   C4A62190  16.462  13.972   7.346
 4872POPC   C1B62191  17.075  14.796   6.188
 4872POPC   C2B62192  17.184  14.667   6.634
 4872POPC   C3B62193  16.939  14.592   7.018
 4872POPC   C4B62194  16.673  14.434   7.351
 4873POPC   NC362195  40.287   0.617   5.349
 4873POPC   PO462196  39.944   0.073   5.484
 4873POPC   GL162197  39.893   0.373   5.809
 4873POPC   GL262198  39.633   0.643   5.782
 4873POPC   C1A62199  39.951   0.349   6.247
 4873POPC   D2A62200  40.064   0.162   6.614
 4873POPC   C3A62201  39.934   0.221   7.011
 4873POPC   C4A62202  40.157   0.368   7.328
 4873POPC   C1B62203  40.014   0.808   6.025
 4873POPC   C2B62204  40.189   0.815   6.447
 4873POPC   C3B62205  40.128   0.665   6.860
 4873POPC   C4B62206  39.842   0.757   7.214
 4874POPC   NC362207  12.602  44.220   5.291
 4874POPC   PO462208  12.615  43.568   5.428
 4874POPC   GL162209  12.930  43.748   5.749
 4874POPC   GL262210  13.011  44.124   5.694
 4874POPC   C1A62211  12.984  43.742   6.217
 4874POPC   D2A62212  12.888  43.630   6.647
 4874POPC   C3A62213  12.963  43.850   7.045
 4874POPC   C4A62214  12.585  43.903   7.300
 4874POPC   C1B62215  13.171  44.205   6.157
 4874POPC   C2B62216  13.197  44.126   6.639
 4874POPC   C3B62217  13.168  44.329   7.076
 4874POPC   C4B62218  13.095  44.121   7.498
 4875POPC   NC362219  25.614  27.840   5.251
 4875POPC   PO462220  25.050  27.680   5.479
 4875POPC   GL162221  25.225  27.810   5.868
 4875POPC   GL262222  25.515  27.681   5.745
 4875POPC   C1A62223  25.319  27.716   6.325
 4875POPC   D2A62224  25.174  27.813   6.751
 4875POPC   C3A62225  25.139  27.487   7.076
 4875POPC   C4A62226  25.312  27.700   7.375
 4875POPC   C1B62227  25.610  27.365   6.064
 4875POPC   C2B62228  25.772  27.327   6.477
 4875POPC   C3B62229  25.594  27.451   6.841
 4875POPC   C4B62230  25.712  27.404   7.227
 4876POPC   NC362231  40.303  13.780   5.691
 4876POPC   PO462232  39.971  13.222   5.560
 4876POPC   GL162233  39.891  13.373   5.972
 4876POPC   GL262234  39.916  13.730   6.007
 4876POPC   C1A62235  39.543  13.518   6.237
 4876POPC   D2A62236  39.744  13.728   6.539
 4876POPC   C3A62237  39.873  13.583   6.903
 4876POPC   C4A62238  39.782  13.432   7.276
 4876POPC   C1B62239  40.118  13.964   6.312
 4876POPC   C2B62240  40.294  13.795   6.697
 4876POPC   C3B62241  40.229  14.048   7.074
 4876POPC   C4B62242  39.942  14.005   7.431
 4877POPC   NC362243  41.485   8.357   5.207
 4877POPC   PO462244  42.062   8.265   5.446
 4877POPC   GL162245  41.717   8.191   5.750
 4877POPC   GL262246  41.381   8.341   5.718
 4877POPC   C1A62247  41.708   8.157   6.195
 4877POPC   D2A62248  41.836   8.275   6.593
 4877POPC   C3A62249  41.490   8.287   6.847
 4877POPC   C4A62250  41.593   8.140   7.182
 4877POPC   C1B62251  41.276   8.557   6.106
 4877POPC   C2B62252  41.095   8.535   6.535
 4877POPC   C3B62253  41.171   8.679   6.945
 4877POPC   C4B62254  41.252   8.482   7.346
 4878POPC   NC362255  19.328  12.111   5.140
 4878POPC   PO462256  18.869  11.766   5.534
 4878POPC   GL162257  19.018  12.138   5.760
 4878POPC   GL262258  18.750  12.307   5.915
 4878POPC   C1A62259  19.180  12.205   6.179
 4878POPC   D2A62260  19.149  11.937   6.526
 4878POPC   C3A62261  19.343  12.086   6.864
 4878POPC   C4A62262  19.207  12.411   7.150
 4878POPC   C1B62263  18.729  11.928   6.177
 4878POPC   C2B62264  18.647  11.966   6.609
 4878POPC   C3B62265  18.838  12.094   6.981
 4878POPC   C4B62266  19.069  11.930   7.335
 4879POPC   NC362267  37.423  38.216   5.505
 4879POPC   PO462268  37.667  38.840   5.380
 4879POPC   GL162269  37.670  38.630   5.775
 4879POPC   GL262270  37.572  38.358   5.962
 4879POPC   C1A62271  37.779  38.761   6.187
 4879POPC   D2A62272  37.475  38.676   6.522
 4879POPC   C3A62273  37.513  38.575   6.914
 4879POPC   C4A62274  37.475  38.261   7.184
 4879POPC   C1B62275  37.837  38.287   6.330
 4879POPC   C2B62276  37.975  38.564   6.659
 4879POPC   C3B62277  37.983  38.394   7.070
 4879POPC   C4B62278  37.903  37.976   7.200
 4880POPC   NC362279  43.608   0.871   5.480
 4880POPC   PO462280  44.212   1.197   5.425
 4880POPC   GL162281  44.024   1.414   5.792
 4880POPC   GL262282  43.719   1.609   5.918
 4880POPC   C1A62283  43.917   1.198   6.178
 4880POPC   D2A62284  44.174   1.107   6.542
 4880POPC   C3A62285  43.976   0.892   6.891
 4880POPC   C4A62286  43.990   1.160   7.238
 4880POPC   C1B62287  43.473   1.474   6.279
 4880POPC   C2B62288  43.668   1.243   6.634
 4880POPC   C3B62289  43.544   1.273   7.044
 4880POPC   C4B62290  43.501   1.622   7.332
 4881POPC   NC362291  34.752   6.977   5.411
 4881POPC   PO462292  34.298   6.580   5.355
 4881POPC   GL162293  34.499   6.511   5.775
 4881POPC   GL262294  34.683   6.808   5.892
 4881POPC   C1A62295  34.471   6.461   6.252
 4881POPC   D2A62296  34.551   6.791   6.586
 4881POPC   C3A62297  34.436   6.561   6.926
 4881POPC   C4A62298  34.170   6.575   7.238
 4881POPC   C1B62299  34.927   6.679   6.255
 4881POPC   C2B62300  34.954   6.488   6.721
 4881POPC   C3B62301  34.870   6.656   7.184
 4881POPC   C4B62302  34.913   6.626   7.678
 4882POPC   NC362303  39.623  21.066   5.439
 4882POPC   PO462304  38.959  20.930   5.431
 4882POPC   GL162305  39.235  21.039   5.825
 4882POPC   GL262306  39.383  21.372   5.819
 4882POPC   C1A62307  39.236  21.167   6.288
 4882POPC   D2A62308  39.024  21.432   6.625
 4882POPC   C3A62309  39.207  21.433   7.045
 4882POPC   C4A62310  39.315  21.062   7.254
 4882POPC   C1B62311  39.603  21.547   6.179
 4882POPC   C2B62312  39.525  21.617   6.613
 4882POPC   C3B62313  39.669  21.683   7.033
 4882POPC   C4B62314  39.600  21.509   7.452
 4883POPC   NC362315  25.726  10.313   5.343
 4883POPC   PO462316  26.415  10.319   5.475
 4883POPC   GL162317  26.066  10.510   5.704
 4883POPC   GL262318  26.107  10.876   5.701
 4883POPC   C1A62319  25.943  10.474   6.141
 4883POPC   D2A62320  26.083  10.566   6.582
 4883POPC   C3A62321  25.873  10.363   6.930
 4883POPC   C4A62322  25.752  10.291   7.374
 4883POPC   C1B62323  25.943  10.986   6.116
 4883POPC   C2B62324  25.795  11.006   6.558
 4883POPC   C3B62325  25.977  10.951   6.960
 4883POPC   C4B62326  26.112  10.675   7.265
 4884POPC   NC362327  20.776   4.872   5.255
 4884POPC   PO462328  20.191   5.182   5.115
 4884POPC   GL162329  20.357   5.098   5.613
 4884POPC   GL262330  20.728   4.956   5.749
 4884POPC   C1A62331  20.394   5.114   6.102
 4884POPC   D2A62332  20.670   5.103   6.500
 4884POPC   C3A62333  20.548   5.313   6.884
 4884POPC   C4A62334  20.214   5.272   7.202
 4884POPC   C1B62335  20.936   4.829   6.162
 4884POPC   C2B62336  20.944   4.609   6.556
 4884POPC   C3B62337  20.799   4.825   6.936
 4884POPC   C4B62338  20.666   5.034   7.294
 4885POPC   NC362339  39.519  23.552   5.412
 4885POPC   PO462340  40.069  23.922   5.333
 4885POPC   GL162341  39.934  23.764   5.727
 4885POPC   GL262342  39.674  23.999   5.722
 4885POPC   C1A62343  39.958  23.544   6.140
 4885POPC   D2A62344  40.297  23.520   6.469
 4885POPC   C3A62345  40.315  23.802   6.809
 4885POPC   C4A62346  40.270  23.705   7.239
 4885POPC   C1B62347  39.800  24.041   6.174
 4885POPC   C2B62348  39.843  23.815   6.578
 4885POPC   C3B62349  39.825  23.646   6.993
 4885POPC   C4B62350  39.803  23.815   7.413
 4886POPC   NC362351  24.098  28.608   5.611
 4886POPC   PO462352  24.443  28.068   5.500
 4886POPC   GL162353  24.518  28.330   5.868
 4886POPC   GL262354  24.705  28.632   5.763
 4886POPC   C1A62355  24.444  28.336   6.333
 4886POPC   D2A62356  24.310  28.421   6.755
 4886POPC   C3A62357  24.541  28.181   7.086
 4886POPC   C4A62358  24.956  28.040   7.210
 4886POPC   C1B62359  24.805  28.657   6.214
 4886POPC   C2B62360  24.680  28.790   6.640
 4886POPC   C3B62361  24.654  28.667   7.059
 4886POPC   C4B62362  24.546  28.561   7.504
 4887POPC   NC362363  27.969  21.871   5.783
 4887POPC   PO462364  27.571  22.193   5.326
 4887POPC   GL162365  27.765  22.336   5.722
 4887POPC   GL262366  27.513  22.146   5.907
 4887POPC   C1A62367  27.857  22.392   6.208
 4887POPC   D2A62368  27.895  22.006   6.493
 4887POPC   C3A62369  27.926  22.009   6.964
 4887POPC   C4A62370  27.832  22.292   7.306
 4887POPC   C1B62371  27.190  22.224   6.239
 4887POPC   C2B62372  27.150  22.389   6.663
 4887POPC   C3B62373  27.392  22.320   7.006
 4887POPC   C4B62374  27.381  22.025   7.295
 4888POPC   NC362375  28.544  13.202   5.127
 4888POPC   PO462376  28.209  13.582   5.568
 4888POPC   GL162377  28.239  13.544   5.946
 4888POPC   GL262378  28.547  13.708   5.935
 4888POPC   C1A62379  28.012  13.547   6.310
 4888POPC   D2A62380  28.140  13.739   6.707
 4888POPC   C3A62381  28.104  13.545   7.028
 4888POPC   C4A62382  28.022  13.672   7.399
 4888POPC   C1B62383  28.504  13.650   6.375
 4888POPC   C2B62384  28.619  13.543   6.779
 4888POPC   C3B62385  28.555  13.813   7.100
 4888POPC   C4B62386  28.747  13.873   7.472
 4889POPC   NC362387  10.746  22.255   5.529
 4889POPC   PO462388  11.457  22.143   5.434
 4889POPC   GL162389  11.221  22.212   5.839
 4889POPC   GL262390  10.970  21.968   5.915
 4889POPC   C1A62391  11.305  22.154   6.297
 4889POPC   D2A62392  11.272  21.994   6.726
 4889POPC   C3A62393  11.316  22.337   7.028
 4889POPC   C4A62394  11.574  22.509   7.361
 4889POPC   C1B62395  10.858  21.875   6.362
 4889POPC   C2B62396  10.766  21.837   6.820
 4889POPC   C3B62397  10.889  22.093   7.181
 4889POPC   C4B62398  10.998  22.020   7.605
 4890POPC   NC362399  27.214  28.165   5.499
 4890POPC   PO462400  27.750  27.672   5.448
 4890POPC   GL162401  27.650  27.746   5.841
 4890POPC   GL262402  27.274  27.729   5.823
 4890POPC   C1A62403  27.583  27.523   6.209
 4890POPC   D2A62404  27.555  27.346   6.588
 4890POPC   C3A62405  27.465  27.579   6.951
 4890POPC   C4A62406  27.568  27.531   7.370
 4890POPC   C1B62407  27.125  27.758   6.266
 4890POPC   C2B62408  27.088  27.949   6.687
 4890POPC   C3B62409  27.017  27.788   7.114
 4890POPC   C4B62410  27.207  27.833   7.544
 4891POPC   NC362411  40.051  38.076   5.332
 4891POPC   PO462412  40.281  38.731   5.437
 4891POPC   GL162413  40.185  38.532   5.802
 4891POPC   GL262414  39.867  38.431   5.747
 4891POPC   C1A62415  40.078  38.364   6.201
 4891POPC   D2A62416  40.044  38.559   6.594
 4891POPC   C3A62417  40.051  38.364   7.002
 4891POPC   C4A62418  40.370  38.333   7.309
 4891POPC   C1B62419  39.835  38.813   6.077
 4891POPC   C2B62420  39.699  38.940   6.516
 4891POPC   C3B62421  39.769  38.827   6.961
 4891POPC   C4B62422  39.933  38.675   7.393
 4892POPC   NC362423   1.716   4.548   5.336
 4892POPC   PO462424   2.152   4.031   5.399
 4892POPC   GL162425   2.015   4.347   5.726
 4892POPC   GL262426   1.686   4.244   5.781
 4892POPC   C1A62427   2.043   4.503   6.168
 4892POPC   D2A62428   2.155   4.208   6.537
 4892POPC   C3A62429   2.307   4.352   6.927
 4892POPC   C4A62430   2.105   4.351   7.254
 4892POPC   C1B62431   1.784   4.066   6.187
 4892POPC   C2B62432   1.624   4.140   6.571
 4892POPC   C3B62433   1.749   4.089   6.964
 4892POPC   C4B62434   1.520   4.206   7.308
 4893POPC   NC362435  41.612  16.641   5.422
 4893POPC   PO462436  41.082  17.145   5.391
 4893POPC   GL162437  41.362  16.952   5.752
 4893POPC   GL262438  41.398  16.589   5.880
 4893POPC   C1A62439  41.658  16.944   6.118
 4893POPC   D2A62440  41.728  17.002   6.559
 4893POPC   C3A62441  41.446  16.830   6.878
 4893POPC   C4A62442  41.547  16.845   7.306
 4893POPC   C1B62443  41.370  16.542   6.305
 4893POPC   C2B62444  41.518  16.236   6.564
 4893POPC   C3B62445  41.661  16.360   6.943
 4893POPC   C4B62446  41.371  16.395   7.273
 4894POPC   NC362447  18.928  27.215   5.133
 4894POPC   PO462448  19.336  27.540   5.507
 4894POPC   GL162449  19.078  27.774   5.798
 4894POPC   GL262450  19.189  27.499   6.038
 4894POPC   C1A62451  18.781  27.762   6.152
 4894POPC   D2A62452  19.012  27.630   6.510
 4894POPC   C3A62453  19.003  27.752   6.937
 4894POPC   C4A62454  18.726  27.727   7.278
 4894POPC   C1B62455  19.321  27.228   6.371
 4894POPC   C2B62456  19.281  27.309   6.802
 4894POPC   C3B62457  19.037  27.291   7.190
 4894POPC   C4B62458  18.971  27.105   7.641
 4895POPC   NC362459  17.878  36.843   5.613
 4895POPC   PO462460  18.441  36.950   5.292
 4895POPC   GL162461  18.423  36.847   5.736
 4895POPC   GL262462  18.311  37.140   5.832
 4895POPC   C1A62463  18.310  36.764   6.193
 4895POPC   D2A62464  18.365  36.945   6.615
 4895POPC   C3A62465  18.259  36.699   6.964
 4895POPC   C4A62466  18.333  36.783   7.348
 4895POPC   C1B62467  18.587  37.206   6.204
 4895POPC   C2B62468  18.732  37.318   6.648
 4895POPC   C3B62469  18.595  37.142   7.058
 4895POPC   C4B62470  18.562  37.189   7.528
 4896POPC   NC362471  30.505  10.916   5.451
 4896POPC   PO462472  30.749  10.272   5.352
 4896POPC   GL162473  30.733  10.531   5.740
 4896POPC   GL262474  30.978  10.803   5.776
 4896POPC   C1A62475  30.841  10.456   6.181
 4896POPC   D2A62476  30.669  10.338   6.578
 4896POPC   C3A62477  30.904  10.429   6.942
 4896POPC   C4A62478  30.703  10.346   7.341
 4896POPC   C1B62479  30.741  10.946   6.120
 4896POPC   C2B62480  30.705  10.853   6.549
 4896POPC   C3B62481  30.526  10.754   6.937
 4896POPC   C4B62482  30.537  10.903   7.333
 4897POPC   NC362483   6.771  36.782   5.440
 4897POPC   PO462484   6.926  37.399   5.545
 4897POPC   GL162485   6.682  37.120   5.825
 4897POPC   GL262486   6.777  36.753   5.940
 4897POPC   C1A62487   6.543  37.106   6.236
 4897POPC   D2A62488   6.784  37.099   6.607
 4897POPC   C3A62489   6.522  37.093   6.932
 4897POPC   C4A62490   6.421  37.037   7.299
 4897POPC   C1B62491   6.429  36.586   6.203
 4897POPC   C2B62492   6.372  36.711   6.643
 4897POPC   C3B62493   6.461  36.563   7.082
 4897POPC   C4B62494   6.188  36.616   7.459
 4898POPC   NC362495  37.038  42.375   5.477
 4898POPC   PO462496  37.243  43.059   5.483
 4898POPC   GL162497  37.191  42.674   5.862
 4898POPC   GL262498  37.237  42.266   5.930
 4898POPC   C1A62499  36.794  42.439   6.093
 4898POPC   D2A62500  36.625  42.250   6.500
 4898POPC   C3A62501  36.834  42.322   6.873
 4898POPC   C4A62502  36.725  42.318   7.291
 4898POPC   C1B62503  37.131  42.120   6.350
 4898POPC   C2B62504  37.284  42.082   6.802
 4898POPC   C3B62505  37.116  42.020   7.245
 4898POPC   C4B62506  37.151  41.970   7.711
 4899POPC   NC362507  11.090  36.422   5.269
 4899POPC   PO462508  11.452  35.960   5.452
 4899POPC   GL162509  11.343  36.258   5.763
 4899POPC   GL262510  11.720  36.311   5.763
 4899POPC   C1A62511  11.077  36.181   6.163
 4899POPC   D2A62512  10.961  35.829   6.496
 4899POPC   C3A62513  11.104  35.936   6.940
 4899POPC   C4A62514  10.910  36.238   7.236
 4899POPC   C1B62515  11.646  36.044   6.127
 4899POPC   C2B62516  11.444  36.066   6.523
 4899POPC   C3B62517  11.629  36.058   6.911
 4899POPC   C4B62518  11.603  35.990   7.313
 4900POPC   NC362519   3.121  29.803   5.306
 4900POPC   PO462520   3.743  29.687   5.401
 4900POPC   GL162521   3.431  29.776   5.720
 4900POPC   GL262522   3.475  30.118   5.847
 4900POPC   C1A62523   3.351  29.655   6.135
 4900POPC   D2A62524   3.250  29.808   6.552
 4900POPC   C3A62525   3.429  29.716   6.928
 4900POPC   C4A62526   3.403  29.810   7.367
 4900POPC   C1B62527   3.560  30.123   6.292
 4900POPC   C2B62528   3.496  30.250   6.736
 4900POPC   C3B62529   3.659  30.204   7.165
 4900POPC   C4B62530   3.874  30.023   7.547
 4901POPC   NC362531   5.524  44.130   5.595
 4901POPC   PO462532   6.170  44.165   5.481
 4901POPC   GL162533   5.926  43.954   5.839
 4901POPC   GL262534   5.690  43.659   5.769
 4901POPC   C1A62535   5.765  44.099   6.231
 4901POPC   D2A62536   5.511  44.229   6.600
 4901POPC   C3A62537   5.569  44.067   7.012
 4901POPC   C4A62538   5.948  44.078   7.223
 4901POPC   C1B62539   5.706  43.601   6.204
 4901POPC   C2B62540   5.778  43.777   6.632
 4901POPC   C3B62541   5.959  43.615   7.023
 4901POPC   C4B62542   6.391  43.448   7.147
 4902POPC   NC362543  39.560   6.398   5.493
 4902POPC   PO462544  39.165   5.807   5.518
 4902POPC   GL162545  39.325   5.699   5.927
 4902POPC   GL262546  39.549   5.966   5.910
 4902POPC   C1A62547  39.190   5.704   6.344
 4902POPC   D2A62548  38.904   5.950   6.585
 4902POPC   C3A62549  39.002   5.903   7.052
 4902POPC   C4A62550  39.229   5.985   7.464
 4902POPC   C1B62551  39.445   6.163   6.310
 4902POPC   C2B62552  39.338   6.196   6.750
 4902POPC   C3B62553  39.295   6.396   7.136
 4902POPC   C4B62554  39.428   6.546   7.537
 4903POPC   NC362555   8.249  19.070   5.260
 4903POPC   PO462556   7.869  19.349   5.727
 4903POPC   GL162557   8.198  19.003   5.782
 4903POPC   GL262558   8.579  18.997   5.680
 4903POPC   C1A62559   8.288  18.876   6.201
 4903POPC   D2A62560   8.176  19.058   6.610
 4903POPC   C3A62561   8.018  18.848   6.981
 4903POPC   C4A62562   8.322  18.940   7.183
 4903POPC   C1B62563   8.721  19.132   6.114
 4903POPC   C2B62564   8.716  19.084   6.581
 4903POPC   C3B62565   8.549  19.328   6.939
 4903POPC   C4B62566   8.563  19.330   7.400
 4904POPC   NC362567   4.236  44.946   5.407
 4904POPC   PO462568   4.517  44.346   5.439
 4904POPC   GL162569   4.311  44.581   5.805
 4904POPC   GL262570   4.069  44.893   5.872
 4904POPC   C1A62571   4.349  44.425   6.240
 4904POPC   D2A62572   4.224  44.376   6.669
 4904POPC   C3A62573   4.439  44.608   7.012
 4904POPC   C4A62574   4.312  44.749   7.452
 4904POPC   C1B62575   4.321  44.933   6.212
 4904POPC   C2B62576   4.246  44.907   6.654
 4904POPC   C3B62577   4.060   0.018   7.066
 4904POPC   C4B62578   3.826  44.968   7.463
 4905POPC   NC362579  20.259  44.966   5.173
 4905POPC   PO462580  20.693  44.514   5.337
 4905POPC   GL162581  20.826  44.661   5.759
 4905POPC   GL262582  20.590  44.872   5.914
 4905POPC   C1A62583  20.820  44.569   6.232
 4905POPC   D2A62584  20.660  44.803   6.592
 4905POPC   C3A62585  20.662  44.571   6.992
 4905POPC   C4A62586  20.865  44.421   7.357
 4905POPC   C1B62587  20.301  44.936   6.237
 4905POPC   C2B62588  20.127  44.958   6.622
 4905POPC   C3B62589  20.367  44.989   6.975
 4905POPC   C4B62590  20.547  44.895   7.382
 4906POPC   NC362591  11.654  44.709   5.478
 4906POPC   PO462592  12.226  44.527   5.329
 4906POPC   GL162593  12.016  44.452   5.749
 4906POPC   GL262594  11.921  44.782   5.909
 4906POPC   C1A62595  12.204  44.340   6.179
 4906POPC   D2A62596  12.530  44.552   6.487
 4906POPC   C3A62597  12.445  44.678   6.923
 4906POPC   C4A62598  12.373  44.890   7.253
 4906POPC   C1B62599  12.091  44.802   6.325
 4906POPC   C2B62600  12.043  44.522   6.666
 4906POPC   C3B62601  11.950  44.851   6.947
 4906POPC   C4B62602  11.880  44.840   7.358
 4907POPC   NC362603  20.876  38.299   5.484
 4907POPC   PO462604  20.442  38.713   5.332
 4907POPC   GL162605  20.533  38.556   5.769
 4907POPC   GL262606  20.458  38.203   5.792
 4907POPC   C1A62607  20.743  38.394   6.171
 4907POPC   D2A62608  20.838  38.592   6.563
 4907POPC   C3A62609  20.709  38.369   6.886
 4907POPC   C4A62610  20.619  38.319   7.303
 4907POPC   C1B62611  20.317  38.067   6.191
 4907POPC   C2B62612  20.392  37.983   6.611
 4907POPC   C3B62613  20.252  38.120   6.962
 4907POPC   C4B62614  20.246  37.947   7.351
 4908POPC   NC362615  39.637  27.787   5.420
 4908POPC   PO462616  40.221  27.329   5.512
 4908POPC   GL162617  39.907  27.404   5.830
 4908POPC   GL262618  39.864  27.782   5.869
 4908POPC   C1A62619  39.894  27.466   6.283
 4908POPC   D2A62620  40.044  27.650   6.681
 4908POPC   C3A62621  40.085  27.490   7.100
 4908POPC   C4A62622  40.211  27.699   7.484
 4908POPC   C1B62623  39.554  27.850   6.188
 4908POPC   C2B62624  39.513  27.671   6.609
 4908POPC   C3B62625  39.623  27.680   7.043
 4908POPC   C4B62626  39.693  27.870   7.435
 4909POPC   NC362627   5.833  12.062   5.237
 4909POPC   PO462628   6.408  11.934   5.518
 4909POPC   GL162629   6.076  11.930   5.825
 4909POPC   GL262630   5.788  12.172   5.725
 4909POPC   C1A62631   6.156  11.996   6.275
 4909POPC   D2A62632   6.076  11.873   6.708
 4909POPC   C3A62633   6.091  12.260   6.967
 4909POPC   C4A62634   5.843  12.375   7.343
 4909POPC   C1B62635   5.685  12.115   6.134
 4909POPC   C2B62636   5.777  12.299   6.537
 4909POPC   C3B62637   5.524  12.315   6.884
 4909POPC   C4B62638   5.345  12.244   7.262
 4910POPC   NC362639  32.823  15.200   5.117
 4910POPC   PO462640  33.259  15.596   5.515
 4910POPC   GL162641  33.082  15.298   5.795
 4910POPC   GL262642  32.770  15.282   5.635
 4910POPC   C1A62643  33.045  15.113   6.213
 4910POPC   D2A62644  33.189  15.112   6.628
 4910POPC   C3A62645  32.879  15.078   6.918
 4910POPC   C4A62646  32.962  15.183   7.319
 4910POPC   C1B62647  32.643  15.397   6.075
 4910POPC   C2B62648  32.750  15.405   6.550
 4910POPC   C3B62649  32.758  15.567   7.034
 4910POPC   C4B62650  32.751  15.579   7.539
 4911POPC   NC362651  42.961   3.050   5.219
 4911POPC   PO462652  43.321   2.485   5.385
 4911POPC   GL162653  43.260   2.875   5.641
 4911POPC   GL262654  42.916   3.017   5.739
 4911POPC   C1A62655  43.399   2.947   6.090
 4911POPC   D2A62656  43.272   2.762   6.519
 4911POPC   C3A62657  43.407   2.943   6.937
 4911POPC   C4A62658  43.383   2.802   7.371
 4911POPC   C1B62659  42.957   2.682   6.061
 4911POPC   C2B62660  42.838   2.490   6.460
 4911POPC   C3B62661  42.768   2.537   6.909
 4911POPC   C4B62662  42.951   2.536   7.325
 4912POPC   NC362663  42.518  29.516   5.100
 4912POPC   PO462664  42.360  29.008   5.555
 4912POPC   GL162665  42.247  28.974   5.956
 4912POPC   GL262666  41.958  29.197   5.988
 4912POPC   C1A62667  42.330  29.198   6.335
 4912POPC   D2A62668  42.366  29.607   6.543
 4912POPC   C3A62669  42.564  29.507   6.938
 4912POPC   C4A62670  42.417  29.223   7.242
 4912POPC   C1B62671  41.872  28.913   6.302
 4912POPC   C2B62672  42.154  28.783   6.592
 4912POPC   C3B62673  42.133  28.877   6.977
 4912POPC   C4B62674  41.763  28.824   7.173
 4913POPC   NC362675  35.720  36.261   5.360
 4913POPC   PO462676  35.233  35.798   5.584
 4913POPC   GL162677  35.413  36.121   5.848
 4913POPC   GL262678  35.682  36.401   5.859
 4913POPC   C1A62679  35.446  36.039   6.295
 4913POPC   D2A62680  35.651  35.942   6.686
 4913POPC   C3A62681  35.309  35.843   6.956
 4913POPC   C4A62682  35.383  36.053   7.306
 4913POPC   C1B62683  35.367  36.520   6.179
 4913POPC   C2B62684  35.189  36.602   6.557
 4913POPC   C3B62685  35.309  36.378   6.908
 4913POPC   C4B62686  35.276  36.550   7.311
 4914POPC   NC362687  44.604   6.442   5.203
 4914POPC   PO462688   0.155   6.719   5.500
 4914POPC   GL162689  44.751   6.608   5.737
 4914POPC   GL262690  44.447   6.394   5.686
 4914POPC   C1A62691  44.678   6.645   6.153
 4914POPC   D2A62692  44.649   6.762   6.593
 4914POPC   C3A62693  44.864   6.594   6.937
 4914POPC   C4A62694  44.729   6.689   7.363
 4914POPC   C1B62695  44.318   6.284   6.141
 4914POPC   C2B62696  44.292   6.409   6.587
 4914POPC   C3B62697  44.345   6.579   7.023
 4914POPC   C4B62698  44.299   6.411   7.455
 4915POPC   NC362699  16.179  22.456   5.414
 4915POPC   PO462700  15.779  21.881   5.483
 4915POPC   GL162701  16.081  22.094   5.775
 4915POPC   GL262702  15.813  22.267   5.885
 4915POPC   C1A62703  16.355  22.133   6.167
 4915POPC   D2A62704  16.257  22.106   6.627
 4915POPC   C3A62705  16.490  22.173   7.021
 4915POPC   C4A62706  16.260  22.202   7.406
 4915POPC   C1B62707  15.923  22.367   6.289
 4915POPC   C2B62708  15.804  22.432   6.691
 4915POPC   C3B62709  15.633  22.149   6.969
 4915POPC   C4B62710  15.800  21.990   7.305
 4916POPC   NC362711   6.720  18.764   5.381
 4916POPC   PO462712   6.318  19.315   5.443
 4916POPC   GL162713   6.558  19.321   5.829
 4916POPC   GL262714   6.567  18.964   5.838
 4916POPC   C1A62715   6.741  19.235   6.275
 4916POPC   D2A62716   6.606  19.266   6.734
 4916POPC   C3A62717   6.905  19.288   7.121
 4916POPC   C4A62718   6.786  19.231   7.603
 4916POPC   C1B62719   6.773  18.731   6.148
 4916POPC   C2B62720   6.639  18.736   6.564
 4916POPC   C3B62721   6.707  18.830   7.001
 4916POPC   C4B62722   6.794  18.736   7.403
 4917POPC   NC362723  12.850  13.124   5.123
 4917POPC   PO462724  12.790  12.557   5.247
 4917POPC   GL162725  12.857  12.834   5.680
 4917POPC   GL262726  13.192  12.829   5.769
 4917POPC   C1A62727  12.689  12.969   6.142
 4917POPC   D2A62728  12.813  12.879   6.604
 4917POPC   C3A62729  12.586  12.783   6.990
 4917POPC   C4A62730  12.709  12.877   7.481
 4917POPC   C1B62731  13.051  12.611   6.150
 4917POPC   C2B62732  13.142  12.419   6.559
 4917POPC   C3B62733  13.206  12.406   7.011
 4917POPC   C4B62734  13.090  12.797   7.159
 4918POPC   NC362735  38.236  29.662   5.579
 4918POPC   PO462736  38.474  30.231   5.645
 4918POPC   GL162737  38.379  29.941   5.984
 4918POPC   GL262738  38.580  29.633   5.959
 4918POPC   C1A62739  38.484  29.909   6.408
 4918POPC   D2A62740  38.638  30.103   6.789
 4918POPC   C3A62741  38.375  29.924   7.071
 4918POPC   C4A62742  38.083  29.976   7.399
 4918POPC   C1B62743  38.631  29.418   6.352
 4918POPC   C2B62744  38.696  29.585   6.773
 4918POPC   C3B62745  38.557  29.487   7.196
 4918POPC   C4B62746  38.561  29.689   7.643
 4919POPC   NC362747  18.514  23.715   5.389
 4919POPC   PO462748  17.902  23.506   5.395
 4919POPC   GL162749  18.106  23.622   5.796
 4919POPC   GL262750  18.283  23.939   5.808
 4919POPC   C1A62751  18.128  23.685   6.251
 4919POPC   D2A62752  17.942  23.860   6.642
 4919POPC   C3A62753  18.121  23.706   7.043
 4919POPC   C4A62754  17.871  23.617   7.413
 4919POPC   C1B62755  18.537  23.982   6.208
 4919POPC   C2B62756  18.476  23.843   6.670
 4919POPC   C3B62757  18.639  23.868   7.137
 4919POPC   C4B62758  18.803  23.980   7.580
 4920POPC   NC362759   4.033  13.811   5.318
 4920POPC   PO462760   4.058  13.204   5.525
 4920POPC   GL162761   4.331  13.582   5.677
 4920POPC   GL262762   4.102  13.835   5.832
 4920POPC   C1A62763   4.642  13.617   6.042
 4920POPC   D2A62764   4.602  13.731   6.501
 4920POPC   C3A62765   4.468  13.383   6.791
 4920POPC   C4A62766   4.457  13.392   7.257
 4920POPC   C1B62767   4.165  13.643   6.213
 4920POPC   C2B62768   4.014  13.569   6.586
 4920POPC   C3B62769   4.065  13.626   7.026
 4920POPC   C4B62770   4.099  13.735   7.447
 4921POPC   NC362771  12.064   8.600   5.677
 4921POPC   PO462772  12.476   9.065   5.185
 4921POPC   GL162773  12.228   9.157   5.673
 4921POPC   GL262774  11.862   9.162   5.693
 4921POPC   C1A62775  12.310   9.064   6.141
 4921POPC   D2A62776  12.399   8.866   6.561
 4921POPC   C3A62777  12.475   9.097   6.926
 4921POPC   C4A62778  12.255   9.069   7.317
 4921POPC   C1B62779  11.772   9.100   6.125
 4921POPC   C2B62780  11.968   9.209   6.509
 4921POPC   C3B62781  11.949   9.076   6.909
 4921POPC   C4B62782  11.815   9.338   7.223
 4922POPC   NC362783  42.632  11.630   5.514
 4922POPC   PO462784  42.441  11.004   5.228
 4922POPC   GL162785  42.344  11.170   5.695
 4922POPC   GL262786  42.168  11.520   5.727
 4922POPC   C1A62787  42.273  11.141   6.188
 4922POPC   D2A62788  42.437  11.137   6.653
 4922POPC   C3A62789  42.136  11.151   6.987
 4922POPC   C4A62790  42.111  11.404   7.375
 4922POPC   C1B62791  42.365  11.656   6.138
 4922POPC   C2B62792  42.587  11.586   6.535
 4922POPC   C3B62793  42.409  11.595   6.951
 4922POPC   C4B62794  42.583  11.591   7.350
 4923POPC   NC362795   2.220  25.886   5.317
 4923POPC   PO462796   1.784  26.362   5.429
 4923POPC   GL162797   1.977  26.146   5.804
 4923POPC   GL262798   2.157  25.832   5.841
 4923POPC   C1A62799   1.959  26.069   6.269
 4923POPC   D2A62800   1.972  25.836   6.661
 4923POPC   C3A62801   1.816  26.009   7.011
 4923POPC   C4A62802   2.032  26.261   7.301
 4923POPC   C1B62803   2.350  25.739   6.262
 4923POPC   C2B62804   2.417  25.599   6.702
 4923POPC   C3B62805   2.357  25.925   7.029
 4923POPC   C4B62806   2.385  25.947   7.473
 4924POPC   NC362807  10.711  21.274   5.339
 4924POPC   PO462808   9.970  21.415   5.266
 4924POPC   GL162809  10.147  21.528   5.704
 4924POPC   GL262810  10.490  21.414   5.762
 4924POPC   C1A62811  10.233  21.434   6.190
 4924POPC   D2A62812  10.278  21.652   6.633
 4924POPC   C3A62813  10.394  21.521   7.069
 4924POPC   C4A62814  10.542  21.228   7.415
 4924POPC   C1B62815  10.816  21.431   6.095
 4924POPC   C2B62816  11.013  21.383   6.524
 4924POPC   C3B62817  10.859  21.321   6.950
 4924POPC   C4B62818  10.856  21.606   7.300
 4925POPC   NC362819  10.294  25.354   5.118
 4925POPC   PO462820  10.155  25.075   5.755
 4925POPC   GL162821  10.537  25.293   5.906
 4925POPC   GL262822  10.832  25.133   5.795
 4925POPC   C1A62823  10.514  25.360   6.325
 4925POPC   D2A62824  10.398  25.419   6.759
 4925POPC   C3A62825  10.059  25.252   6.971
 4925POPC   C4A62826  10.195  25.265   7.358
 4925POPC   C1B62827  10.721  24.898   6.193
 4925POPC   C2B62828  10.629  24.971   6.631
 4925POPC   C3B62829  10.495  24.980   7.040
 4925POPC   C4B62830  10.646  25.042   7.454
 4926POPC   NC362831   0.037  38.472   5.524
 4926POPC   PO462832   0.565  38.886   5.467
 4926POPC   GL162833   0.399  38.733   5.822
 4926POPC   GL262834   0.567  38.403   5.886
 4926POPC   C1A62835   0.177  38.620   6.202
 4926POPC   D2A62836   0.247  38.308   6.493
 4926POPC   C3A62837   0.221  38.411   6.882
 4926POPC   C4A62838   0.233  38.360   7.295
 4926POPC   C1B62839   0.679  38.688   6.236
 4926POPC   C2B62840   0.589  38.682   6.646
 4926POPC   C3B62841   0.699  38.521   7.054
 4926POPC   C4B62842   0.672  38.690   7.454
 4927POPC   NC362843   8.239  29.223   5.015
 4927POPC   PO462844   7.795  28.939   5.423
 4927POPC   GL162845   8.100  28.903   5.764
 4927POPC   GL262846   7.937  28.678   5.965
 4927POPC   C1A62847   8.250  29.038   6.177
 4927POPC   D2A62848   8.253  29.411   6.444
 4927POPC   C3A62849   8.010  29.399   6.836
 4927POPC   C4A62850   8.288  29.138   7.112
 4927POPC   C1B62851   7.794  28.812   6.377
 4927POPC   C2B62852   7.910  28.891   6.808
 4927POPC   C3B62853   7.951  28.701   7.201
 4927POPC   C4B62854   7.798  28.819   7.614
 4928POPC   NC362855  34.925  34.334   5.564
 4928POPC   PO462856  34.429  34.913   5.420
 4928POPC   GL162857  34.517  34.644   5.853
 4928POPC   GL262858  34.293  34.412   5.972
 4928POPC   C1A62859  34.765  34.592   6.273
 4928POPC   D2A62860  34.893  34.788   6.697
 4928POPC   C3A62861  34.952  34.487   7.073
 4928POPC   C4A62862  34.961  34.210   7.468
 4928POPC   C1B62863  34.272  34.502   6.389
 4928POPC   C2B62864  34.537  34.409   6.727
 4928POPC   C3B62865  34.444  34.507   7.133
 4928POPC   C4B62866  34.110  34.633   7.357
 4929POPC   NC362867  25.621  16.943   5.433
 4929POPC   PO462868  24.976  16.632   5.398
 4929POPC   GL162869  25.097  16.830   5.769
 4929POPC   GL262870  25.413  16.636   5.811
 4929POPC   C1A62871  25.242  16.903   6.207
 4929POPC   D2A62872  25.247  16.633   6.567
 4929POPC   C3A62873  25.139  16.791   6.932
 4929POPC   C4A62874  25.459  16.972   7.161
 4929POPC   C1B62875  25.588  16.492   6.208
 4929POPC   C2B62876  25.680  16.364   6.650
 4929POPC   C3B62877  25.514  16.435   7.062
 4929POPC   C4B62878  25.243  16.507   7.427
 4930POPC   NC362879  41.946  17.587   5.427
 4930POPC   PO462880  42.628  17.371   5.358
 4930POPC   GL162881  42.339  17.450   5.736
 4930POPC   GL262882  42.192  17.774   5.860
 4930POPC   C1A62883  42.333  17.374   6.181
 4930POPC   D2A62884  42.405  17.611   6.573
 4930POPC   C3A62885  42.536  17.483   6.996
 4930POPC   C4A62886  42.471  17.901   7.186
 4930POPC   C1B62887  41.961  17.718   6.261
 4930POPC   C2B62888  41.906  17.487   6.628
 4930POPC   C3B62889  42.049  17.621   7.025
 4930POPC   C4B62890  42.169  17.630   7.466
 4931POPC   NC362891   8.796  18.574   5.473
 4931POPC   PO462892   9.058  19.190   5.482
 4931POPC   GL162893   9.158  19.106   5.859
 4931POPC   GL262894   9.164  18.774   5.778
 4931POPC   C1A62895   9.203  19.078   6.309
 4931POPC   D2A62896   9.379  19.335   6.626
 4931POPC   C3A62897   9.139  19.193   6.952
 4931POPC   C4A62898   8.818  18.941   7.113
 4931POPC   C1B62899   9.259  18.593   6.180
 4931POPC   C2B62900   9.031  18.650   6.565
 4931POPC   C3B62901   9.140  18.595   6.979
 4931POPC   C4B62902   9.350  18.863   7.270
 4932POPC   NC362903  21.063  25.352   5.434
 4932POPC   PO462904  21.662  25.403   5.396
 4932POPC   GL162905  21.426  25.397   5.791
 4932POPC   GL262906  21.261  25.078   5.827
 4932POPC   C1A62907  21.283  25.411   6.238
 4932POPC   D2A62908  21.331  25.602   6.654
 4932POPC   C3A62909  21.336  25.357   7.032
 4932POPC   C4A62910  21.262  25.562   7.415
 4932POPC   C1B62911  21.104  24.927   6.254
 4932POPC   C2B62912  21.253  24.947   6.692
 4932POPC   C3B62913  21.109  24.894   7.122
 4932POPC   C4B62914  21.257  25.027   7.559
 4933POPC   NC362915  20.138  29.585   5.372
 4933POPC   PO462916  19.728  30.050   5.263
 4933POPC   GL162917  19.824  29.944   5.673
 4933POPC   GL262918  19.733  30.246   5.788
 4933POPC   C1A62919  20.020  29.884   6.099
 4933POPC   D2A62920  20.097  29.546   6.430
 4933POPC   C3A62921  20.234  29.683   6.859
 4933POPC   C4A62922  20.094  29.557   7.297
 4933POPC   C1B62923  19.656  30.302   6.199
 4933POPC   C2B62924  19.951  30.292   6.488
 4933POPC   C3B62925  19.862  30.247   6.887
 4933POPC   C4B62926  20.092  30.068   7.180
 4934POPC   NC362927   7.942  36.888   5.499
 4934POPC   PO462928   8.527  36.823   5.225
 4934POPC   GL162929   8.372  36.665   5.716
 4934POPC   GL262930   8.099  36.815   5.964
 4934POPC   C1A62931   8.334  36.407   6.102
 4934POPC   D2A62932   8.199  36.615   6.476
 4934POPC   C3A62933   8.498  36.662   6.813
 4934POPC   C4A62934   8.257  36.745   7.177
 4934POPC   C1B62935   7.910  37.059   6.267
 4934POPC   C2B62936   7.818  37.215   6.689
 4934POPC   C3B62937   7.923  37.125   7.126
 4934POPC   C4B62938   8.221  37.147   7.476
 4935POPC   NC362939  18.824  40.912   5.384
 4935POPC   PO462940  19.227  40.425   5.348
 4935POPC   GL162941  19.112  40.636   5.754
 4935POPC   GL262942  19.174  41.016   5.814
 4935POPC   C1A62943  18.918  40.696   6.176
 4935POPC   D2A62944  19.073  40.571   6.588
 4935POPC   C3A62945  19.141  40.786   6.976
 4935POPC   C4A62946  19.474  40.780   7.288
 4935POPC   C1B62947  18.997  41.263   6.192
 4935POPC   C2B62948  18.860  41.165   6.636
 4935POPC   C3B62949  18.901  41.243   7.110
 4935POPC   C4B62950  18.815  41.191   7.603
 4936POPC   NC362951   9.263   9.952   5.116
 4936POPC   PO462952   8.856   9.433   5.309
 4936POPC   GL162953   8.974   9.639   5.700
 4936POPC   GL262954   9.236   9.907   5.676
 4936POPC   C1A62955   8.909   9.550   6.138
 4936POPC   D2A62956   8.971   9.821   6.498
 4936POPC   C3A62957   8.969   9.639   6.908
 4936POPC   C4A62958   8.905   9.732   7.362
 4936POPC   C1B62959   9.290  10.064   6.125
 4936POPC   C2B62960   9.331  10.166   6.588
 4936POPC   C3B62961   9.375   9.984   7.030
 4936POPC   C4B62962   9.387   9.824   7.532
 4937POPC   NC362963   8.372  18.137   5.218
 4937POPC   PO462964   9.047  18.191   5.436
 4937POPC   GL162965   8.958  18.299   5.886
 4937POPC   GL262966   8.733  18.583   5.996
 4937POPC   C1A62967   8.946  18.189   6.321
 4937POPC   D2A62968   8.828  18.210   6.736
 4937POPC   C3A62969   9.141  18.087   6.993
 4937POPC   C4A62970   9.004  18.059   7.380
 4937POPC   C1B62971   8.537  18.485   6.399
 4937POPC   C2B62972   8.524  18.639   6.809
 4937POPC   C3B62973   8.679  18.454   7.194
 4937POPC   C4B62974   8.605  18.286   7.632
 4938POPC   NC362975  14.519  12.447   5.836
 4938POPC   PO462976  14.639  11.880   5.458
 4938POPC   GL162977  14.564  11.907   5.876
 4938POPC   GL262978  14.239  12.029   5.846
 4938POPC   C1A62979  14.475  11.965   6.311
 4938POPC   D2A62980  14.463  11.680   6.604
 4938POPC   C3A62981  14.452  11.923   6.931
 4938POPC   C4A62982  14.309  12.213   7.264
 4938POPC   C1B62983  14.056  11.736   6.148
 4938POPC   C2B62984  13.977  11.840   6.590
 4938POPC   C3B62985  13.950  11.961   7.020
 4938POPC   C4B62986  14.194  11.695   7.309
 4939POPC   NC362987   7.298   7.625   5.388
 4939POPC   PO462988   7.205   6.951   5.514
 4939POPC   GL162989   7.381   7.097   5.880
 4939POPC   GL262990   7.329   7.447   5.894
 4939POPC   C1A62991   7.441   7.111   6.312
 4939POPC   D2A62992   7.227   7.306   6.652
 4939POPC   C3A62993   7.367   7.188   7.076
 4939POPC   C4A62994   7.633   7.271   7.452
 4939POPC   C1B62995   7.314   7.686   6.295
 4939POPC   C2B62996   7.192   7.841   6.700
 4939POPC   C3B62997   7.314   7.706   7.116
 4939POPC   C4B62998   7.273   7.794   7.545
 4940POPC   NC362999  19.373   4.153   5.526
 4940POPC   PO463000  18.767   4.602   5.528
 4940POPC   GL163001  18.750   4.413   5.940
 4940POPC   GL263002  18.908   4.093   5.846
 4940POPC   C1A63003  18.998   4.388   6.348
 4940POPC   D2A63004  19.279   4.336   6.739
 4940POPC   C3A63005  19.034   4.467   7.100
 4940POPC   C4A63006  18.904   4.808   7.325
 4940POPC   C1B63007  19.162   3.900   6.174
 4940POPC   C2B63008  18.989   3.924   6.582
 4940POPC   C3B63009  19.062   3.942   7.030
 4940POPC   C4B63010  18.974   4.095   7.459
 4941POPC   NC363011  12.058  18.616   5.473
 4941POPC   PO463012  11.641  18.078   5.406
 4941POPC   GL163013  12.022  18.115   5.728
 4941POPC   GL263014  11.912  18.382   5.916
 4941POPC   C1A63015  12.353  18.220   6.112
 4941POPC   D2A63016  12.567  18.175   6.542
 4941POPC   C3A63017  12.406  18.345   6.948
 4941POPC   C4A63018  12.224  18.132   7.304
 4941POPC   C1B63019  12.037  18.617   6.266
 4941POPC   C2B63020  12.016  18.375   6.620
 4941POPC   C3B63021  11.849  18.364   7.030
 4941POPC   C4B63022  12.009  18.605   7.375
 4942POPC   NC363023  30.319  21.597   5.490
 4942POPC   PO463024  30.660  20.992   5.267
 4942POPC   GL163025  30.587  21.219   5.644
 4942POPC   GL263026  30.856  21.357   5.735
 4942POPC   C1A63027  30.505  21.320   6.101
 4942POPC   D2A63028  30.600  21.499   6.504
 4942POPC   C3A63029  30.596  21.201   6.845
 4942POPC   C4A63030  30.556  21.322   7.265
 4942POPC   C1B63031  30.942  21.661   6.073
 4942POPC   C2B63032  31.060  21.738   6.471
 4942POPC   C3B63033  30.936  21.622   6.889
 4942POPC   C4B63034  30.860  21.730   7.277
 4943POPC   NC363035   0.438   5.890   5.225
 4943POPC   PO463036  44.921   5.798   5.555
 4943POPC   GL163037   0.035   5.686   5.930
 4943POPC   GL263038   0.308   5.913   5.949
 4943POPC   C1A63039   0.049   5.755   6.382
 4943POPC   D2A63040   0.387   5.932   6.607
 4943POPC   C3A63041   0.227   6.176   6.934
 4943POPC   C4A63042   0.396   5.971   7.277
 4943POPC   C1B63043   0.696   5.980   6.196
 4943POPC   C2B63044   0.954   6.020   6.546
 4943POPC   C3B63045   0.815   5.971   6.968
 4943POPC   C4B63046   0.874   6.078   7.413
 4944POPC   NC363047  40.443  23.896   5.579
 4944POPC   PO463048  40.993  23.542   5.579
 4944POPC   GL163049  40.763  23.679   5.943
 4944POPC   GL263050  40.423  23.549   5.957
 4944POPC   C1A63051  40.749  23.733   6.375
 4944POPC   D2A63052  40.810  23.450   6.687
 4944POPC   C3A63053  40.665  23.435   7.090
 4944POPC   C4A63054  40.911  23.488   7.473
 4944POPC   C1B63055  40.317  23.954   6.204
 4944POPC   C2B63056  40.571  24.200   6.482
 4944POPC   C3B63057  40.601  24.223   6.926
 4944POPC   C4B63058  40.741  23.944   7.282
 4945POPC   NC363059  20.397   6.781   5.266
 4945POPC   PO463060  20.791   6.392   5.459
 4945POPC   GL163061  20.786   6.656   5.821
 4945POPC   GL263062  20.531   6.919   5.759
 4945POPC   C1A63063  20.930   6.632   6.279
 4945POPC   D2A63064  21.128   6.636   6.726
 4945POPC   C3A63065  20.857   6.365   7.008
 4945POPC   C4A63066  20.449   6.395   7.283
 4945POPC   C1B63067  20.813   7.111   6.101
 4945POPC   C2B63068  20.865   7.061   6.578
 4945POPC   C3B63069  20.713   6.856   7.007
 4945POPC   C4B63070  20.708   6.819   7.490
 4946POPC   NC363071  36.568  24.723   5.093
 4946POPC   PO463072  35.883  24.710   5.342
 4946POPC   GL163073  36.116  24.588   5.758
 4946POPC   GL263074  35.829  24.338   5.882
 4946POPC   C1A63075  36.350  24.555   6.184
 4946POPC   D2A63076  36.319  24.397   6.627
 4946POPC   C3A63077  36.219  24.644   7.022
 4946POPC   C4A63078  36.336  24.546   7.469
 4946POPC   C1B63079  35.844  24.651   6.183
 4946POPC   C2B63080  35.819  24.581   6.593
 4946POPC   C3B63081  35.872  24.274   6.892
 4946POPC   C4B63082  35.928  24.279   7.306
 4947POPC   NC363083  16.411  32.965   5.535
 4947POPC   PO463084  15.678  32.934   5.544
 4947POPC   GL163085  15.987  33.050   5.887
 4947POPC   GL263086  16.054  33.385   6.041
 4947POPC   C1A63087  15.850  33.001   6.321
 4947POPC   D2A63088  15.629  33.163   6.686
 4947POPC   C3A63089  15.720  32.871   7.006
 4947POPC   C4A63090  15.940  32.916   7.443
 4947POPC   C1B63091  16.341  33.161   6.304
 4947POPC   C2B63092  16.255  33.042   6.737
 4947POPC   C3B63093  16.038  33.262   7.064
 4947POPC   C4B63094  16.178  33.390   7.450
 4948POPC   NC363095  16.358   1.988   5.390
 4948POPC   PO463096  16.964   1.728   5.369
 4948POPC   GL163097  16.688   1.703   5.731
 4948POPC   GL263098  16.595   2.028   5.839
 4948POPC   C1A63099  16.774   1.686   6.180
 4948POPC   D2A63100  16.641   1.897   6.532
 4948POPC   C3A63101  16.767   1.704   6.901
 4948POPC   C4A63102  16.704   1.882   7.299
 4948POPC   C1B63103  16.408   2.249   6.210
 4948POPC   C2B63104  16.327   2.298   6.658
 4948POPC   C3B63105  16.497   2.312   7.085
 4948POPC   C4B63106  16.275   2.204   7.463
 4949POPC   NC363107  44.052   7.854   5.499
 4949POPC   PO463108  43.641   8.303   5.466
 4949POPC   GL163109  43.890   8.221   5.826
 4949POPC   GL263110  44.260   8.221   5.810
 4949POPC   C1A63111  43.929   8.343   6.230
 4949POPC   D2A63112  43.688   8.124   6.537
 4949POPC   C3A63113  43.852   8.119   6.916
 4949POPC   C4A63114  43.707   8.289   7.270
 4949POPC   C1B63115  44.231   7.917   6.154
 4949POPC   C2B63116  44.089   7.775   6.537
 4949POPC   C3B63117  44.235   7.775   6.934
 4949POPC   C4B63118  44.080   7.918   7.331
 4950POPC   NC363119  37.161  35.473   5.290
 4950POPC   PO463120  36.835  34.873   5.463
 4950POPC   GL163121  36.888  35.252   5.751
 4950POPC   GL263122  37.191  35.202   5.880
 4950POPC   C1A63123  36.997  35.602   6.119
 4950POPC   D2A63124  37.174  35.510   6.568
 4950POPC   C3A63125  36.886  35.450   6.937
 4950POPC   C4A63126  36.747  35.685   7.276
 4950POPC   C1B63127  36.945  35.127   6.289
 4950POPC   C2B63128  36.914  34.979   6.714
 4950POPC   C3B63129  36.535  34.836   6.949
 4950POPC   C4B63130  36.512  35.116   7.283
 4951POPC   NC363131  32.673  17.396   5.421
 4951POPC   PO463132  33.209  17.148   5.686
 4951POPC   GL163133  33.088  17.450   5.933
 4951POPC   GL263134  32.741  17.387   5.936
 4951POPC   C1A63135  33.107  17.356   6.381
 4951POPC   D2A63136  32.853  17.365   6.766
 4951POPC   C3A63137  33.121  17.429   7.134
 4951POPC   C4A63138  33.281  17.118   7.388
 4951POPC   C1B63139  32.723  17.675   6.272
 4951POPC   C2B63140  32.790  17.852   6.699
 4951POPC   C3B63141  32.705  17.732   7.135
 4951POPC   C4B63142  32.829  17.891   7.560
 4952POPC   NC363143   2.837  11.561   5.385
 4952POPC   PO463144   2.535  11.011   5.226
 4952POPC   GL163145   2.553  11.177   5.668
 4952POPC   GL263146   2.491  11.544   5.767
 4952POPC   C1A63147   2.741  11.161   6.098
 4952POPC   D2A63148   2.894  11.145   6.538
 4952POPC   C3A63149   2.640  11.189   6.919
 4952POPC   C4A63150   2.745  11.205   7.339
 4952POPC   C1B63151   2.830  11.665   6.085
 4952POPC   C2B63152   2.905  11.714   6.546
 4952POPC   C3B63153   2.939  11.601   6.993
 4952POPC   C4B63154   3.236  11.397   7.265
 4953POPC   NC363155   4.066  37.964   5.481
 4953POPC   PO463156   4.466  38.570   5.469
 4953POPC   GL163157   4.307  38.596   5.861
 4953POPC   GL263158   4.129  38.286   5.887
 4953POPC   C1A63159   4.426  38.498   6.286
 4953POPC   D2A63160   4.669  38.429   6.672
 4953POPC   C3A63161   4.568  38.724   6.964
 4953POPC   C4A63162   4.270  38.669   7.265
 4953POPC   C1B63163   4.093  38.135   6.340
 4953POPC   C2B63164   3.848  38.191   6.733
 4953POPC   C3B63165   3.943  38.260   7.178
 4953POPC   C4B63166   4.332  38.052   7.313
 4954POPC   NC363167  29.131  27.524   5.130
 4954POPC   PO463168  29.662  27.363   5.592
 4954POPC   GL163169  29.330  27.414   5.896
 4954POPC   GL263170  29.061  27.621   5.796
 4954POPC   C1A63171  29.208  27.590   6.301
 4954POPC   D2A63172  29.094  27.549   6.751
 4954POPC   C3A63173  29.251  27.773   7.084
 4954POPC   C4A63174  29.159  27.441   7.306
 4954POPC   C1B63175  28.814  27.859   6.110
 4954POPC   C2B63176  28.674  27.759   6.561
 4954POPC   C3B63177  28.744  27.839   7.024
 4954POPC   C4B63178  28.826  27.788   7.470
 4955POPC   NC363179  17.332   4.550   5.469
 4955POPC   PO463180  17.260   3.926   5.742
 4955POPC   GL163181  17.470   4.105   6.026
 4955POPC   GL263182  17.504   4.427   5.935
 4955POPC   C1A63183  17.402   4.112   6.435
 4955POPC   D2A63184  17.730   4.164   6.711
 4955POPC   C3A63185  17.499   4.062   7.038
 4955POPC   C4A63186  17.800   4.073   7.311
 4955POPC   C1B63187  17.717   4.482   6.298
 4955POPC   C2B63188  17.532   4.614   6.680
 4955POPC   C3B63189  17.670   4.554   7.089
 4955POPC   C4B63190  17.614   4.751   7.488
 4956POPC   NC363191   1.630  11.783   5.531
 4956POPC   PO463192   1.633  12.444   5.703
 4956POPC   GL163193   1.878  12.130   5.904
 4956POPC   GL263194   2.082  11.842   5.876
 4956POPC   C1A63195   1.869  11.997   6.328
 4956POPC   D2A63196   2.034  12.242   6.645
 4956POPC   C3A63197   2.066  11.992   6.974
 4956POPC   C4A63198   2.054  12.260   7.309
 4956POPC   C1B63199   2.330  11.682   6.246
 4956POPC   C2B63200   2.390  11.550   6.672
 4956POPC   C3B63201   2.297  11.529   7.118
 4956POPC   C4B63202   2.039  11.728   7.419
 4957POPC   NC363203  20.488  24.897   5.414
 4957POPC   PO463204  20.677  25.571   5.419
 4957POPC   GL163205  20.516  25.271   5.751
 4957POPC   GL263206  20.748  24.990   5.856
 4957POPC   C1A63207  20.328  25.059   6.130
 4957POPC   D2A63208  20.566  24.917   6.506
 4957POPC   C3A63209  20.412  25.077   6.909
 4957POPC   C4A63210  20.425  25.097   7.359
 4957POPC   C1B63211  20.779  25.302   6.195
 4957POPC   C2B63212  20.894  25.303   6.654
 4957POPC   C3B63213  20.826  25.363   7.110
 4957POPC   C4B63214  20.837  25.305   7.551
 4958POPC   NC363215   9.440  40.097   5.530
 4958POPC   PO463216  10.120  39.950   5.426
 4958POPC   GL163217   9.850  39.891   5.756
 4958POPC   GL263218   9.813  40.246   5.848
 4958POPC   C1A63219   9.796  39.790   6.179
 4958POPC   D2A63220   9.789  40.009   6.552
 4958POPC   C3A63221   9.702  39.782   6.899
 4958POPC   C4A63222   9.641  39.899   7.320
 4958POPC   C1B63223   9.515  40.241   6.173
 4958POPC   C2B63224   9.295  40.204   6.523
 4958POPC   C3B63225   9.446  40.221   6.906
 4958POPC   C4B63226   9.416  40.369   7.284
 4959POPC   NC363227  30.780  23.762   5.404
 4959POPC   PO463228  30.468  23.332   5.854
 4959POPC   GL163229  30.728  23.652   5.892
 4959POPC   GL263230  30.479  23.912   5.779
 4959POPC   C1A63231  30.948  23.682   6.271
 4959POPC   D2A63232  31.029  23.662   6.689
 4959POPC   C3A63233  30.841  23.815   7.041
 4959POPC   C4A63234  30.845  23.755   7.473
 4959POPC   C1B63235  30.558  24.002   6.201
 4959POPC   C2B63236  30.678  24.027   6.603
 4959POPC   C3B63237  30.506  24.182   6.974
 4959POPC   C4B63238  30.417  23.993   7.339
 4960POPC   NC363239  38.365  42.931   5.452
 4960POPC   PO463240  38.785  43.456   5.532
 4960POPC   GL163241  38.554  43.231   5.829
 4960POPC   GL263242  38.680  42.868   5.816
 4960POPC   C1A63243  38.339  43.240   6.223
 4960POPC   D2A63244  38.178  43.327   6.648
 4960POPC   C3A63245  38.465  43.277   6.960
 4960POPC   C4A63246  38.307  43.179   7.352
 4960POPC   C1B63247  38.780  42.929   6.210
 4960POPC   C2B63248  38.846  43.105   6.563
 4960POPC   C3B63249  38.819  42.851   6.894
 4960POPC   C4B63250  38.729  42.904   7.283
 4961POPC   NC363251  33.388  17.513   5.477
 4961POPC   PO463252  33.999  17.805   5.436
 4961POPC   GL163253  33.815  17.543   5.757
 4961POPC   GL263254  34.062  17.362   5.917
 4961POPC   C1A63255  33.595  17.474   6.147
 4961POPC   D2A63256  33.791  17.379   6.539
 4961POPC   C3A63257  33.646  17.341   6.980
 4961POPC   C4A63258  33.643  17.506   7.407
 4961POPC   C1B63259  34.081  17.685   6.230
 4961POPC   C2B63260  34.191  17.696   6.683
 4961POPC   C3B63261  34.042  17.780   7.124
 4961POPC   C4B63262  34.056  17.755   7.599
 4962POPC   NC363263  43.478  26.822   5.716
 4962POPC   PO463264  44.119  26.773   5.378
 4962POPC   GL163265  44.032  26.610   5.765
 4962POPC   GL263266  43.966  26.944   5.845
 4962POPC   C1A63267  43.849  26.549   6.190
 4962POPC   D2A63268  43.627  26.597   6.580
 4962POPC   C3A63269  43.871  26.563   6.956
 4962POPC   C4A63270  43.820  26.963   7.131
 4962POPC   C1B63271  44.250  26.888   6.169
 4962POPC   C2B63272  44.110  26.824   6.580
 4962POPC   C3B63273  44.312  27.008   6.915
 4962POPC   C4B63274  44.238  27.250   7.275
 4963POPC   NC363275  35.505  34.633   5.249
 4963POPC   PO463276  34.950  34.785   5.647
 4963POPC   GL163277  35.350  34.643   5.759
 4963POPC   GL263278  35.654  34.437   5.696
 4963POPC   C1A63279  35.567  34.832   6.115
 4963POPC   D2A63280  35.406  35.039   6.492
 4963POPC   C3A63281  35.386  34.870   6.898
 4963POPC   C4A63282  35.339  34.719   7.315
 4963POPC   C1B63283  35.529  34.317   6.121
 4963POPC   C2B63284  35.604  34.487   6.536
 4963POPC   C3B63285  35.476  34.376   6.944
 4963POPC   C4B63286  35.451  34.219   7.342
 4964POPC   NC363287  13.849  22.682   5.447
 4964POPC   PO463288  13.753  23.210   5.128
 4964POPC   GL163289  13.687  23.128   5.620
 4964POPC   GL263290  13.410  22.918   5.746
 4964POPC   C1A63291  13.788  23.155   6.089
 4964POPC   D2A63292  14.051  23.149   6.518
 4964POPC   C3A63293  13.871  23.112   6.967
 4964POPC   C4A63294  13.672  22.935   7.391
 4964POPC   C1B63295  13.305  23.052   6.173
 4964POPC   C2B63296  13.538  23.051   6.558
 4964POPC   C3B63297  13.379  22.963   6.959
 4964POPC   C4B63298  13.095  23.140   7.299
 4965POPC   NC363299   7.319  16.214   5.646
 4965POPC   PO463300   7.434  15.639   5.261
 4965POPC   GL163301   7.526  15.741   5.771
 4965POPC   GL263302   7.648  16.073   5.994
 4965POPC   C1A63303   7.631  15.656   6.260
 4965POPC   D2A63304   7.730  15.989   6.605
 4965POPC   C3A63305   7.541  16.028   7.024
 4965POPC   C4A63306   7.282  15.703   7.199
 4965POPC   C1B63307   7.322  16.084   6.300
 4965POPC   C2B63308   7.099  16.258   6.611
 4965POPC   C3B63309   6.997  16.034   6.937
 4965POPC   C4B63310   7.089  16.166   7.281
 4966POPC   NC363311   1.167  12.413   5.585
 4966POPC   PO463312   1.268  13.109   5.419
 4966POPC   GL163313   1.422  13.124   5.822
 4966POPC   GL263314   1.384  12.822   5.947
 4966POPC   C1A63315   1.291  13.300   6.187
 4966POPC   D2A63316   1.333  13.071   6.551
 4966POPC   C3A63317   1.426  13.191   6.958
 4966POPC   C4A63318   1.385  12.782   7.191
 4966POPC   C1B63319   0.960  12.874   6.158
 4966POPC   C2B63320   0.769  12.803   6.579
 4966POPC   C3B63321   0.916  12.899   7.003
 4966POPC   C4B63322   0.960  12.625   7.391
 4967POPC   NC363323  33.484   4.162   5.517
 4967POPC   PO463324  34.031   4.352   5.115
 4967POPC   GL163325  33.912   4.423   5.610
 4967POPC   GL263326  33.633   4.572   5.839
 4967POPC   C1A63327  33.921   4.259   6.078
 4967POPC   D2A63328  33.919   4.237   6.528
 4967POPC   C3A63329  33.697   4.416   6.872
 4967POPC   C4A63330  33.874   4.209   7.225
 4967POPC   C1B63331  33.423   4.255   6.180
 4967POPC   C2B63332  33.451   4.009   6.581
 4967POPC   C3B63333  33.341   4.075   7.020
 4967POPC   C4B63334  33.328   4.415   7.287
 4968POPC   NC363335  32.081  27.722   5.331
 4968POPC   PO463336  32.607  27.485   5.077
 4968POPC   GL163337  32.429  27.454   5.599
 4968POPC   GL263338  32.659  27.253   5.852
 4968POPC   C1A63339  32.285  27.560   6.058
 4968POPC   D2A63340  31.974  27.744   6.374
 4968POPC   C3A63341  32.071  27.928   6.797
 4968POPC   C4A63342  32.096  27.821   7.267
 4968POPC   C1B63343  32.753  27.416   6.253
 4968POPC   C2B63344  32.471  27.622   6.544
 4968POPC   C3B63345  32.357  27.544   6.949
 4968POPC   C4B63346  32.565  27.434   7.307
 4969POPC   NC363347  26.339  11.797   5.380
 4969POPC   PO463348  26.501  11.161   5.393
 4969POPC   GL163349  26.736  11.314   5.803
 4969POPC   GL263350  27.049  11.168   5.937
 4969POPC   C1A63351  26.666  11.657   6.094
 4969POPC   D2A63352  26.566  11.567   6.547
 4969POPC   C3A63353  26.871  11.659   6.892
 4969POPC   C4A63354  26.850  11.503   7.307
 4969POPC   C1B63355  26.969  11.328   6.325
 4969POPC   C2B63356  26.849  11.180   6.720
 4969POPC   C3B63357  26.918  10.988   7.069
 4969POPC   C4B63358  27.195  11.113   7.313
 4970POPC   NC363359  20.927  35.694   5.023
 4970POPC   PO463360  20.733  36.266   5.275
 4970POPC   GL163361  20.642  36.076   5.681
 4970POPC   GL263362  20.339  35.940   5.647
 4970POPC   C1A63363  20.731  36.121   6.147
 4970POPC   D2A63364  20.722  36.228   6.603
 4970POPC   C3A63365  21.078  36.289   6.897
 4970POPC   C4A63366  21.199  36.128   7.335
 4970POPC   C1B63367  20.258  35.983   6.058
 4970POPC   C2B63368  20.286  35.989   6.478
 4970POPC   C3B63369  20.349  36.128   6.925
 4970POPC   C4B63370  20.686  36.159   7.215
 4971POPC   NC363371  36.365  13.266   5.664
 4971POPC   PO463372  36.037  13.740   5.264
 4971POPC   GL163373  36.041  13.766   5.768
 4971POPC   GL263374  36.358  13.780   5.853
 4971POPC   C1A63375  36.043  13.531   6.193
 4971POPC   D2A63376  36.046  13.458   6.614
 4971POPC   C3A63377  36.035  13.814   6.820
 4971POPC   C4A63378  35.945  13.699   7.215
 4971POPC   C1B63379  36.522  13.690   6.284
 4971POPC   C2B63380  36.558  13.389   6.623
 4971POPC   C3B63381  36.371  13.439   7.024
 4971POPC   C4B63382  36.453  13.843   7.158
 4972POPC   NC363383  13.883   4.222   5.564
 4972POPC   PO463384  13.567   4.805   5.339
 4972POPC   GL163385  13.554   4.593   5.770
 4972POPC   GL263386  13.349   4.275   5.872
 4972POPC   C1A63387  13.538   4.618   6.215
 4972POPC   D2A63388  13.722   4.410   6.547
 4972POPC   C3A63389  13.618   4.394   6.949
 4972POPC   C4A63390  13.639   4.725   7.224
 4972POPC   C1B63391  13.677   4.086   6.174
 4972POPC   C2B63392  13.776   3.904   6.628
 4972POPC   C3B63393  13.895   3.991   7.075
 4972POPC   C4B63394  14.001   4.333   7.310
 4973POPC   NC363395  18.312   2.373   5.456
 4973POPC   PO463396  18.061   3.009   5.519
 4973POPC   GL163397  18.289   2.971   5.870
 4973POPC   GL263398  18.512   2.746   5.771
 4973POPC   C1A63399  18.212   2.873   6.272
 4973POPC   D2A63400  18.381   2.988   6.622
 4973POPC   C3A63401  18.084   2.880   6.873
 4973POPC   C4A63402  18.168   2.798   7.276
 4973POPC   C1B63403  18.602   2.559   6.152
 4973POPC   C2B63404  18.439   2.478   6.574
 4973POPC   C3B63405  18.586   2.616   6.981
 4973POPC   C4B63406  18.597   2.577   7.436
 4974POPC   NC363407  29.566  18.544   5.481
 4974POPC   PO463408  29.083  18.004   5.414
 4974POPC   GL163409  29.127  18.185   5.799
 4974POPC   GL263410  29.052  18.511   5.832
 4974POPC   C1A63411  28.934  18.009   6.179
 4974POPC   D2A63412  29.092  18.080   6.584
 4974POPC   C3A63413  28.941  18.133   6.998
 4974POPC   C4A63414  29.295  18.299   7.212
 4974POPC   C1B63415  29.180  18.470   6.243
 4974POPC   C2B63416  29.013  18.694   6.579
 4974POPC   C3B63417  29.166  18.827   6.957
 4974POPC   C4B63418  28.890  18.615   7.198
 4975POPC   NC363419  30.834  23.207   5.608
 4975POPC   PO463420  30.714  22.613   5.404
 4975POPC   GL163421  30.796  22.652   5.883
 4975POPC   GL263422  30.719  22.949   6.057
 4975POPC   C1A63423  30.704  22.550   6.369
 4975POPC   D2A63424  30.485  22.524   6.787
 4975POPC   C3A63425  30.485  22.892   7.045
 4975POPC   C4A63426  30.863  23.018   7.288
 4975POPC   C1B63427  30.561  23.044   6.493
 4975POPC   C2B63428  30.718  23.295   6.841
 4975POPC   C3B63429  30.566  23.416   7.225
 4975POPC   C4B63430  30.353  23.182   7.476
 4976POPC   NC363431  27.559  20.579   5.304
 4976POPC   PO463432  26.895  20.821   5.441
 4976POPC   GL163433  27.278  20.730   5.718
 4976POPC   GL263434  27.131  20.917   5.952
 4976POPC   C1A63435  27.593  20.764   6.114
 4976POPC   D2A63436  27.545  20.932   6.553
 4976POPC   C3A63437  27.587  20.731   6.952
 4976POPC   C4A63438  27.696  20.830   7.376
 4976POPC   C1B63439  27.170  20.485   6.159
 4976POPC   C2B63440  27.361  20.454   6.553
 4976POPC   C3B63441  27.187  20.429   6.956
 4976POPC   C4B63442  27.252  20.546   7.356
 4977POPC   NC363443  43.819   6.934   5.580
 4977POPC   PO463444  44.530   6.880   5.374
 4977POPC   GL163445  44.295   6.887   5.809
 4977POPC   GL263446  44.028   6.612   5.893
 4977POPC   C1A63447  44.227   6.842   6.285
 4977POPC   D2A63448  44.022   6.875   6.676
 4977POPC   C3A63449  43.860   6.512   6.877
 4977POPC   C4A63450  43.820   6.515   7.309
 4977POPC   C1B63451  43.721   6.796   6.227
 4977POPC   C2B63452  43.487   6.768   6.621
 4977POPC   C3B63453  43.386   6.615   7.057
 4977POPC   C4B63454  43.383   6.748   7.505
 4978POPC   NC363455  37.454  33.964   5.207
 4978POPC   PO463456  36.772  33.755   5.312
 4978POPC   GL163457  36.659  33.612   5.750
 4978POPC   GL263458  37.032  33.591   5.791
 4978POPC   C1A63459  36.573  33.749   6.221
 4978POPC   D2A63460  36.777  34.036   6.564
 4978POPC   C3A63461  36.750  33.930   6.991
 4978POPC   C4A63462  36.776  33.808   7.432
 4978POPC   C1B63463  37.072  33.710   6.235
 4978POPC   C2B63464  36.913  33.532   6.614
 4978POPC   C3B63465  37.040  33.510   7.024
 4978POPC   C4B63466  37.277  33.784   7.256
 4979POPC   NC363467  36.065  40.313   5.511
 4979POPC   PO463468  36.655  39.975   5.357
 4979POPC   GL163469  36.361  39.995   5.764
 4979POPC   GL263470  36.522  40.263   5.831
 4979POPC   C1A63471  36.118  39.830   6.156
 4979POPC   D2A63472  36.004  39.930   6.582
 4979POPC   C3A63473  35.938  39.790   7.010
 4979POPC   C4A63474  35.852  39.993   7.379
 4979POPC   C1B63475  36.265  40.339   6.178
 4979POPC   C2B63476  36.319  40.356   6.607
 4979POPC   C3B63477  36.255  40.178   6.985
 4979POPC   C4B63478  36.300  40.288   7.382
 4980POPC   NC363479  28.432  42.912   5.606
 4980POPC   PO463480  28.276  42.310   5.420
 4980POPC   GL163481  28.496  42.402   5.771
 4980POPC   GL263482  28.230  42.202   5.951
 4980POPC   C1A63483  28.511  42.542   6.199
 4980POPC   D2A63484  28.229  42.328   6.492
 4980POPC   C3A63485  28.332  42.252   6.898
 4980POPC   C4A63486  28.471  42.488   7.214
 4980POPC   C1B63487  28.591  42.045   6.167
 4980POPC   C2B63488  28.759  42.204   6.556
 4980POPC   C3B63489  28.755  41.963   6.921
 4980POPC   C4B63490  28.690  42.043   7.315
 4981POPC   NC363491  19.214  21.682   5.485
 4981POPC   PO463492  18.599  21.358   5.303
 4981POPC   GL163493  18.874  21.376   5.729
 4981POPC   GL263494  18.944  21.684   5.914
 4981POPC   C1A63495  18.987  21.117   6.112
 4981POPC   D2A63496  18.977  21.175   6.568
 4981POPC   C3A63497  18.922  21.303   6.976
 4981POPC   C4A63498  19.213  21.325   7.287
 4981POPC   C1B63499  19.167  21.580   6.275
 4981POPC   C2B63500  19.326  21.827   6.625
 4981POPC   C3B63501  19.175  21.747   7.006
 4981POPC   C4B63502  18.899  21.724   7.351
 4982POPC   NC363503  31.692  35.898   5.395
 4982POPC   PO463504  30.997  35.852   5.567
 4982POPC   GL163505  31.356  36.007   5.765
 4982POPC   GL263506  31.351  36.381   5.726
 4982POPC   C1A63507  31.612  35.862   6.120
 4982POPC   D2A63508  31.657  35.625   6.530
 4982POPC   C3A63509  31.691  35.864   6.931
 4982POPC   C4A63510  31.407  35.868   7.276
 4982POPC   C1B63511  31.306  36.287   6.175
 4982POPC   C2B63512  31.378  36.103   6.558
 4982POPC   C3B63513  31.285  36.233   6.949
 4982POPC   C4B63514  31.653  36.332   7.190
 4983POPC   NC363515   7.705  35.425   5.364
 4983POPC   PO463516   7.240  34.865   5.461
 4983POPC   GL163517   7.400  35.010   5.897
 4983POPC   GL263518   7.559  35.337   5.844
 4983POPC   C1A63519   7.254  35.291   6.229
 4983POPC   D2A63520   7.377  35.485   6.547
 4983POPC   C3A63521   7.148  35.462   6.898
 4983POPC   C4A63522   7.277  35.267   7.250
 4983POPC   C1B63523   7.711  35.624   6.153
 4983POPC   C2B63524   7.893  35.557   6.574
 4983POPC   C3B63525   7.653  35.505   6.970
 4983POPC   C4B63526   7.684  35.552   7.407
 4984POPC   NC363527  10.907  44.419   5.624
 4984POPC   PO463528  11.278  44.840   5.265
 4984POPC   GL163529  11.265  44.739   5.784
 4984POPC   GL263530  11.492  44.438   5.881
 4984POPC   C1A63531  11.196  44.591   6.260
 4984POPC   D2A63532  11.131  44.382   6.686
 4984POPC   C3A63533  11.019  44.611   7.076
 4984POPC   C4A63534  10.837   0.045   7.099
 4984POPC   C1B63535  11.696  44.465   6.263
 4984POPC   C2B63536  11.561  44.661   6.653
 4984POPC   C3B63537  11.541  44.535   7.091
 4984POPC   C4B63538  11.413  44.712   7.510
 4985POPC   NC363539  10.270  13.450   5.391
 4985POPC   PO463540  10.964  13.596   5.538
 4985POPC   GL163541  10.565  13.674   5.767
 4985POPC   GL263542  10.545  13.965   5.985
 4985POPC   C1A63543  10.353  13.552   6.181
 4985POPC   D2A63544  10.488  13.512   6.606
 4985POPC   C3A63545  10.277  13.705   6.945
 4985POPC   C4A63546  10.454  13.409   7.224
 4985POPC   C1B63547  10.847  13.696   6.240
 4985POPC   C2B63548  11.039  13.729   6.630
 4985POPC   C3B63549  10.801  13.714   6.998
 4985POPC   C4B63550  10.649  13.995   7.327
 4986POPC   NC363551  29.704   1.444   5.384
 4986POPC   PO463552  30.240   1.029   5.328
 4986POPC   GL163553  30.092   1.286   5.684
 4986POPC   GL263554  30.251   1.155   5.965
 4986POPC   C1A63555  29.806   1.332   6.074
 4986POPC   D2A63556  29.899   1.418   6.519
 4986POPC   C3A63557  29.723   1.209   6.852
 4986POPC   C4A63558  29.652   1.065   7.249
 4986POPC   C1B63559  30.144   0.988   6.370
 4986POPC   C2B63560  30.240   1.126   6.775
 4986POPC   C3B63561  30.158   1.149   7.198
 4986POPC   C4B63562  30.031   0.967   7.606
 4987POPC   NC363563   9.813  32.136   5.407
 4987POPC   PO463564   9.209  32.057   5.709
 4987POPC   GL163565   9.568  32.179   5.933
 4987POPC   GL263566   9.884  31.998   5.886
 4987POPC   C1A63567   9.523  32.221   6.386
 4987POPC   D2A63568   9.344  31.988   6.735
 4987POPC   C3A63569   9.444  32.174   7.145
 4987POPC   C4A63570   9.680  32.518   7.364
 4987POPC   C1B63571   9.995  32.087   6.291
 4987POPC   C2B63572   9.878  32.026   6.719
 4987POPC   C3B63573  10.039  32.195   7.083
 4987POPC   C4B63574  10.131  32.090   7.493
 4988POPC   NC363575   5.628  37.934   5.548
 4988POPC   PO463576   6.166  37.677   5.223
 4988POPC   GL163577   6.043  37.659   5.710
 4988POPC   GL263578   5.723  37.499   5.780
 4988POPC   C1A63579   5.855  37.788   6.167
 4988POPC   D2A63580   5.816  37.542   6.551
 4988POPC   C3A63581   5.748  37.778   6.919
 4988POPC   C4A63582   5.900  38.004   7.311
 4988POPC   C1B63583   5.522  37.337   6.160
 4988POPC   C2B63584   5.365  37.195   6.576
 4988POPC   C3B63585   5.556  37.269   6.987
 4988POPC   C4B63586   5.702  37.522   7.336
 4989POPC   NC363587  30.138   8.581   5.530
 4989POPC   PO463588  29.679   7.977   5.491
 4989POPC   GL163589  29.984   8.100   5.788
 4989POPC   GL263590  29.893   8.440   5.938
 4989POPC   C1A63591  29.938   8.031   6.227
 4989POPC   D2A63592  29.730   8.064   6.609
 4989POPC   C3A63593  29.978   8.167   6.951
 4989POPC   C4A63594  29.908   7.870   7.266
 4989POPC   C1B63595  29.680   8.492   6.325
 4989POPC   C2B63596  29.677   8.633   6.745
 4989POPC   C3B63597  29.753   8.681   7.169
 4989POPC   C4B63598  29.834   8.346   7.407
 4990POPC   NC363599  21.132   4.618   5.610
 4990POPC   PO463600  21.766   4.545   5.482
 4990POPC   GL163601  21.513   4.314   5.813
 4990POPC   GL263602  21.178   4.378   6.047
 4990POPC   C1A63603  21.537   4.059   6.182
 4990POPC   D2A63604  21.317   4.207   6.557
 4990POPC   C3A63605  21.543   4.158   6.949
 4990POPC   C4A63606  21.341   4.136   7.355
 4990POPC   C1B63607  21.429   4.666   6.298
 4990POPC   C2B63608  21.524   4.666   6.712
 4990POPC   C3B63609  21.224   4.558   7.026
 4990POPC   C4B63610  21.232   4.666   7.464
 4991POPC   NC363611  11.099  25.353   5.365
 4991POPC   PO463612  11.646  24.964   5.354
 4991POPC   GL163613  11.580  25.122   5.791
 4991POPC   GL263614  11.304  25.349   5.842
 4991POPC   C1A63615  11.584  25.219   6.245
 4991POPC   D2A63616  11.395  25.407   6.594
 4991POPC   C3A63617  11.320  25.234   7.018
 4991POPC   C4A63618  11.539  25.231   7.406
 4991POPC   C1B63619  11.032  25.330   6.219
 4991POPC   C2B63620  10.896  25.467   6.627
 4991POPC   C3B63621  10.833  25.341   7.039
 4991POPC   C4B63622  10.965  25.465   7.449
 4992POPC   NC363623  34.846   9.113   5.488
 4992POPC   PO463624  34.242   8.892   5.280
 4992POPC   GL163625  34.431   8.937   5.738
 4992POPC   GL263626  34.760   8.798   5.869
 4992POPC   C1A63627  34.459   9.047   6.204
 4992POPC   D2A63628  34.600   9.194   6.607
 4992POPC   C3A63629  34.514   9.014   6.982
 4992POPC   C4A63630  34.358   9.213   7.347
 4992POPC   C1B63631  34.941   8.919   6.268
 4992POPC   C2B63632  35.013   8.879   6.707
 4992POPC   C3B63633  35.001   9.052   7.095
 4992POPC   C4B63634  35.225   9.048   7.466
 4993POPC   NC363635   4.884  39.606   5.079
 4993POPC   PO463636   4.790  39.276   5.600
 4993POPC   GL163637   5.194  39.226   5.767
 4993POPC   GL263638   5.177  38.929   5.967
 4993POPC   C1A63639   5.385  39.364   6.150
 4993POPC   D2A63640   5.197  39.565   6.504
 4993POPC   C3A63641   5.246  39.358   6.879
 4993POPC   C4A63642   5.462  39.324   7.213
 4993POPC   C1B63643   4.892  39.260   6.213
 4993POPC   C2B63644   4.742  39.315   6.610
 4993POPC   C3B63645   4.796  39.174   6.986
 4993POPC   C4B63646   4.902  39.351   7.365
 4994POPC   NC363647  15.916   8.572   5.460
 4994POPC   PO463648  16.380   8.070   5.377
 4994POPC   GL163649  16.159   8.242   5.777
 4994POPC   GL263650  15.785   8.190   5.812
 4994POPC   C1A63651  16.033   8.459   6.204
 4994POPC   D2A63652  15.887   8.337   6.653
 4994POPC   C3A63653  16.209   8.283   6.978
 4994POPC   C4A63654  16.341   7.954   7.219
 4994POPC   C1B63655  15.878   7.982   6.215
 4994POPC   C2B63656  15.652   7.878   6.599
 4994POPC   C3B63657  15.833   7.947   7.011
 4994POPC   C4B63658  15.814   8.395   7.237
 4995POPC   NC363659  17.500  32.211   5.266
 4995POPC   PO463660  17.484  31.590   5.608
 4995POPC   GL163661  17.443  32.011   5.781
 4995POPC   GL263662  17.538  32.393   5.742
 4995POPC   C1A63663  17.442  32.181   6.191
 4995POPC   D2A63664  17.607  32.132   6.577
 4995POPC   C3A63665  17.353  32.320   6.841
 4995POPC   C4A63666  17.447  32.403   7.222
 4995POPC   C1B63667  17.782  32.593   6.093
 4995POPC   C2B63668  17.903  32.568   6.557
 4995POPC   C3B63669  17.744  32.721   6.956
 4995POPC   C4B63670  17.898  32.613   7.375
 4996POPC   NC363671  42.099  38.429   5.316
 4996POPC   PO463672  42.717  38.515   5.260
 4996POPC   GL163673  42.605  38.416   5.723
 4996POPC   GL263674  42.238  38.492   5.822
 4996POPC   C1A63675  42.608  38.413   6.205
 4996POPC   D2A63676  42.552  38.615   6.621
 4996POPC   C3A63677  42.609  38.504   7.048
 4996POPC   C4A63678  42.565  38.308   7.464
 4996POPC   C1B63679  42.089  38.598   6.260
 4996POPC   C2B63680  42.057  38.574   6.721
 4996POPC   C3B63681  42.117  38.428   7.120
 4996POPC   C4B63682  41.948  38.633   7.417
 4997POPC   NC363683   4.025  42.321   5.346
 4997POPC   PO463684   3.865  41.840   5.754
 4997POPC   GL163685   4.232  42.076   5.934
 4997POPC   GL263686   4.323  42.426   5.809
 4997POPC   C1A63687   4.581  42.192   6.249
 4997POPC   D2A63688   4.808  42.449   6.605
 4997POPC   C3A63689   4.595  42.339   7.013
 4997POPC   C4A63690   4.614  41.923   7.186
 4997POPC   C1B63691   4.575  42.700   6.116
 4997POPC   C2B63692   4.535  42.898   6.530
 4997POPC   C3B63693   4.289  42.749   6.864
 4997POPC   C4B63694   4.212  42.638   7.303
 4998POPC   NC363695  36.757  43.109   5.353
 4998POPC   PO463696  37.110  43.606   5.238
 4998POPC   GL163697  36.931  43.452   5.694
 4998POPC   GL263698  36.608  43.344   5.814
 4998POPC   C1A63699  37.015  43.463   6.162
 4998POPC   D2A63700  36.787  43.299   6.547
 4998POPC   C3A63701  36.976  43.333   6.973
 4998POPC   C4A63702  36.821  43.373   7.372
 4998POPC   C1B63703  36.816  42.995   6.065
 4998POPC   C2B63704  36.927  42.773   6.454
 4998POPC   C3B63705  36.914  42.832   6.877
 4998POPC   C4B63706  36.777  42.836   7.274
 4999POPC   NC363707   8.344  15.847   5.378
 4999POPC   PO463708   7.760  16.122   5.486
 4999POPC   GL163709   8.109  16.107   5.796
 4999POPC   GL263710   8.422  16.240   5.729
 4999POPC   C1A63711   8.122  15.961   6.249
 4999POPC   D2A63712   8.086  15.626   6.583
 4999POPC   C3A63713   8.032  15.799   6.994
 4999POPC   C4A63714   7.968  16.117   7.348
 4999POPC   C1B63715   8.600  16.137   6.125
 4999POPC   C2B63716   8.528  16.167   6.544
 4999POPC   C3B63717   8.516  15.915   6.888
 4999POPC   C4B63718   8.460  16.114   7.232
 5000POPC   NC363719  23.317  30.068   5.435
 5000POPC   PO463720  22.591  30.053   5.437
 5000POPC   GL163721  22.900  30.177   5.771
 5000POPC   GL263722  23.131  29.872   5.853
 5000POPC   C1A63723  22.974  30.159   6.240
 5000POPC   D2A63724  23.073  29.995   6.642
 5000POPC   C3A63725  22.812  29.777   6.911
 5000POPC   C4A63726  22.821  29.773   7.344
 5000POPC   C1B63727  23.350  29.724   6.229
 5000POPC   C2B63728  23.443  29.635   6.658
 5000POPC   C3B63729  23.298  29.722   7.109
 5000POPC   C4B63730  23.375  29.791   7.548
 5001POPC   NC363731  42.012   4.655   5.666
 5001POPC   PO463732  42.395   5.273   5.402
 5001POPC   GL163733  42.497   5.110   5.789
 5001POPC   GL263734  42.201   5.031   5.952
 5001POPC   C1A63735  42.607   5.210   6.214
 5001POPC   D2A63736  42.490   4.993   6.580
 5001POPC   C3A63737  42.335   5.104   6.971
 5001POPC   C4A63738  42.612   5.109   7.296
 5001POPC   C1B63739  42.004   4.981   6.363
 5001POPC   C2B63740  42.092   4.701   6.711
 5001POPC   C3B63741  42.072   4.685   7.144
 5001POPC   C4B63742  42.234   4.880   7.553
 5002POPC   NC363743  41.015  41.819   5.407
 5002POPC   PO463744  40.661  41.162   5.532
 5002POPC   GL163745  40.697  41.462   5.895
 5002POPC   GL263746  41.005  41.635   5.880
 5002POPC   C1A63747  40.777  41.434   6.351
 5002POPC   D2A63748  40.672  41.673   6.736
 5002POPC   C3A63749  40.742  41.484   7.123
 5002POPC   C4A63750  40.625  41.476   7.551
 5002POPC   C1B63751  41.012  41.873   6.262
 5002POPC   C2B63752  41.086  41.975   6.682
 5002POPC   C3B63753  40.919  41.978   7.075
 5002POPC   C4B63754  40.953  41.867   7.481
 5003POPC   NC363755  28.679  17.732   5.408
 5003POPC   PO463756  28.074  17.547   5.497
 5003POPC   GL163757  28.174  17.412   5.857
 5003POPC   GL263758  28.511  17.456   5.809
 5003POPC   C1A63759  28.296  17.244   6.231
 5003POPC   D2A63760  28.185  17.448   6.591
 5003POPC   C3A63761  28.360  17.376   6.970
 5003POPC   C4A63762  28.137  17.629   7.192
 5003POPC   C1B63763  28.430  17.796   6.147
 5003POPC   C2B63764  28.539  18.076   6.519
 5003POPC   C3B63765  28.484  17.909   6.932
 5003POPC   C4B63766  28.733  17.646   7.186
 5004POPC   NC363767  25.417  23.788   5.440
 5004POPC   PO463768  24.854  24.145   5.624
 5004POPC   GL163769  25.114  23.895   5.843
 5004POPC   GL263770  25.054  23.519   5.806
 5004POPC   C1A63771  25.447  23.870   6.146
 5004POPC   D2A63772  25.499  23.632   6.523
 5004POPC   C3A63773  25.221  23.785   6.821
 5004POPC   C4A63774  25.227  23.887   7.257
 5004POPC   C1B63775  24.943  23.650   6.244
 5004POPC   C2B63776  24.696  23.550   6.583
 5004POPC   C3B63777  24.741  23.680   6.966
 5004POPC   C4B63778  24.835  23.528   7.353
 5005POPC   NC363779  38.468  23.393   5.449
 5005POPC   PO463780  38.200  24.039   5.436
 5005POPC   GL163781  38.559  23.888   5.713
 5005POPC   GL263782  38.352  23.669   5.870
 5005POPC   C1A63783  38.789  23.851   6.136
 5005POPC   D2A63784  38.716  24.009   6.568
 5005POPC   C3A63785  38.706  23.817   7.004
 5005POPC   C4A63786  38.594  23.998   7.427
 5005POPC   C1B63787  38.302  23.886   6.272
 5005POPC   C2B63788  38.288  23.733   6.717
 5005POPC   C3B63789  38.227  23.739   7.177
 5005POPC   C4B63790  38.087  23.566   7.589
 5006POPC   NC363791   4.211  33.446   5.424
 5006POPC   PO463792   4.539  34.057   5.446
 5006POPC   GL163793   4.329  33.813   5.759
 5006POPC   GL263794   4.099  34.019   5.889
 5006POPC   C1A63795   4.470  33.701   6.176
 5006POPC   D2A63796   4.409  33.930   6.562
 5006POPC   C3A63797   4.486  33.717   6.949
 5006POPC   C4A63798   4.555  33.929   7.343
 5006POPC   C1B63799   3.968  33.661   6.155
 5006POPC   C2B63800   3.909  33.735   6.586
 5006POPC   C3B63801   4.039  33.949   6.967
 5006POPC   C4B63802   4.086  33.759   7.387
 5007POPC   NC363803  17.401  15.605   5.504
 5007POPC   PO463804  17.363  16.151   5.654
 5007POPC   GL163805  17.594  15.904   5.905
 5007POPC   GL263806  17.312  15.692   5.995
 5007POPC   C1A63807  17.677  16.058   6.325
 5007POPC   D2A63808  17.592  16.028   6.754
 5007POPC   C3A63809  17.723  16.263   7.126
 5007POPC   C4A63810  17.792  16.077   7.524
 5007POPC   C1B63811  17.272  15.737   6.423
 5007POPC   C2B63812  17.201  15.715   6.868
 5007POPC   C3B63813  17.280  15.747   7.302
 5007POPC   C4B63814  17.165  15.677   7.738
 5008POPC   NC363815   4.609  43.123   5.474
 5008POPC   PO463816   5.192  42.846   5.422
 5008POPC   GL163817   5.190  43.056   5.784
 5008POPC   GL263818   4.986  43.366   5.740
 5008POPC   C1A63819   5.010  42.993   6.173
 5008POPC   D2A63820   4.904  43.246   6.493
 5008POPC   C3A63821   4.997  43.009   6.822
 5008POPC   C4A63822   5.085  43.219   7.168
 5008POPC   C1B63823   5.212  43.461   6.119
 5008POPC   C2B63824   5.380  43.422   6.551
 5008POPC   C3B63825   5.454  43.552   6.964
 5008POPC   C4B63826   5.535  43.354   7.360
 5009POPC   NC363827   7.737  13.870   5.363
 5009POPC   PO463828   7.092  13.807   5.414
 5009POPC   GL163829   7.414  13.637   5.717
 5009POPC   GL263830   7.664  13.857   5.925
 5009POPC   C1A63831   7.385  13.401   6.101
 5009POPC   D2A63832   7.111  13.329   6.468
 5009POPC   C3A63833   7.317  13.533   6.828
 5009POPC   C4A63834   7.212  13.492   7.265
 5009POPC   C1B63835   7.889  14.015   6.336
 5009POPC   C2B63836   7.796  14.028   6.807
 5009POPC   C3B63837   7.666  13.753   7.142
 5009POPC   C4B63838   7.538  13.763   7.588
 5010POPC   NC363839  15.315  23.377   5.271
 5010POPC   PO463840  15.400  24.089   5.276
 5010POPC   GL163841  15.270  23.824   5.664
 5010POPC   GL263842  15.203  23.453   5.760
 5010POPC   C1A63843  15.010  23.845   6.049
 5010POPC   D2A63844  14.924  23.757   6.490
 5010POPC   C3A63845  15.062  23.993   6.861
 5010POPC   C4A63846  15.206  23.833   7.244
 5010POPC   C1B63847  15.123  23.357   6.197
 5010POPC   C2B63848  15.240  23.301   6.621
 5010POPC   C3B63849  15.434  23.422   7.000
 5010POPC   C4B63850  15.335  23.163   7.318
 5011POPC   NC363851  10.083   3.409   5.505
 5011POPC   PO463852   9.536   3.904   5.405
 5011POPC   GL163853   9.701   3.740   5.795
 5011POPC   GL263854   9.669   3.381   5.813
 5011POPC   C1A63855   9.617   3.722   6.259
 5011POPC   D2A63856   9.879   3.880   6.645
 5011POPC   C3A63857   9.726   3.948   7.081
 5011POPC   C4A63858   9.436   3.739   7.360
 5011POPC   C1B63859   9.825   3.260   6.210
 5011POPC   C2B63860   9.753   3.349   6.654
 5011POPC   C3B63861   9.703   3.405   7.099
 5011POPC   C4B63862   9.718   3.310   7.558
 5012POPC   NC363863  36.858  20.999   5.698
 5012POPC   PO463864  36.727  21.534   5.292
 5012POPC   GL163865  36.864  21.525   5.754
 5012POPC   GL263866  37.222  21.529   5.702
 5012POPC   C1A63867  36.798  21.414   6.227
 5012POPC   D2A63868  36.765  21.212   6.670
 5012POPC   C3A63869  36.621  21.437   7.076
 5012POPC   C4A63870  36.600  21.461   7.571
 5012POPC   C1B63871  37.288  21.321   6.126
 5012POPC   C2B63872  37.209  21.451   6.561
 5012POPC   C3B63873  37.127  21.391   6.989
 5012POPC   C4B63874  37.288  21.069   7.232
 5013POPC   NC363875  32.821  21.834   5.552
 5013POPC   PO463876  32.671  22.498   5.560
 5013POPC   GL163877  32.938  22.363   5.887
 5013POPC   GL263878  32.969  22.032   6.021
 5013POPC   C1A63879  33.015  22.522   6.296
 5013POPC   D2A63880  32.936  22.255   6.638
 5013POPC   C3A63881  33.039  22.389   7.065
 5013POPC   C4A63882  32.912  22.082   7.360
 5013POPC   C1B63883  33.277  21.930   6.357
 5013POPC   C2B63884  33.537  21.670   6.646
 5013POPC   C3B63885  33.379  21.662   7.039
 5013POPC   C4B63886  33.404  22.045   7.225
 5014POPC   NC363887  10.736   1.918   5.430
 5014POPC   PO463888  10.120   2.127   5.477
 5014POPC   GL163889  10.395   1.829   5.783
 5014POPC   GL263890  10.681   1.547   5.757
 5014POPC   C1A63891  10.533   1.937   6.204
 5014POPC   D2A63892  10.279   2.141   6.547
 5014POPC   C3A63893  10.510   2.221   6.940
 5014POPC   C4A63894  10.415   2.041   7.342
 5014POPC   C1B63895  10.897   1.530   6.142
 5014POPC   C2B63896  10.749   1.642   6.553
 5014POPC   C3B63897  10.633   1.722   6.971
 5014POPC   C4B63898  11.007   1.747   7.208
 5015POPC   NC363899  31.731  15.164   5.308
 5015POPC   PO463900  32.385  15.192   5.297
 5015POPC   GL163901  32.288  15.123   5.757
 5015POPC   GL263902  31.940  15.242   5.773
 5015POPC   C1A63903  32.187  15.184   6.223
 5015POPC   D2A63904  32.063  15.153   6.638
 5015POPC   C3A63905  32.375  15.266   6.901
 5015POPC   C4A63906  32.413  15.274   7.310
 5015POPC   C1B63907  31.860  14.848   5.985
 5015POPC   C2B63908  31.955  14.659   6.394
 5015POPC   C3B63909  32.028  14.673   6.818
 5015POPC   C4B63910  31.979  14.993   7.125
 5016POPC   NC363911  20.534   8.949   5.429
 5016POPC   PO463912  21.152   8.499   5.414
 5016POPC   GL163913  20.807   8.673   5.738
 5016POPC   GL263914  20.791   9.069   5.839
 5016POPC   C1A63915  20.509   8.796   6.130
 5016POPC   D2A63916  20.439   8.645   6.550
 5016POPC   C3A63917  20.532   8.884   6.911
 5016POPC   C4A63918  20.377   8.979   7.305
 5016POPC   C1B63919  20.668   9.314   6.188
 5016POPC   C2B63920  20.591   9.337   6.622
 5016POPC   C3B63921  20.581   9.403   7.054
 5016POPC   C4B63922  20.856   9.195   7.330
 5017POPC   NC363923  37.115  18.859   5.553
 5017POPC   PO463924  37.581  19.357   5.602
 5017POPC   GL163925  37.892  19.226   5.963
 5017POPC   GL263926  37.968  18.849   5.901
 5017POPC   C1A63927  37.961  19.062   6.371
 5017POPC   D2A63928  37.715  18.789   6.630
 5017POPC   C3A63929  37.724  18.931   7.044
 5017POPC   C4A63930  37.543  19.156   7.409
 5017POPC   C1B63931  38.062  18.578   6.301
 5017POPC   C2B63932  38.150  18.546   6.789
 5017POPC   C3B63933  38.052  18.555   7.271
 5017POPC   C4B63934  37.981  18.858   7.687
 5018POPC   NC363935  29.531  19.240   5.289
 5018POPC   PO463936  29.968  18.810   5.545
 5018POPC   GL163937  29.962  19.081   5.906
 5018POPC   GL263938  30.281  19.164   6.065
 5018POPC   C1A63939  29.849  19.181   6.341
 5018POPC   D2A63940  30.028  19.025   6.721
 5018POPC   C3A63941  29.769  19.067   7.068
 5018POPC   C4A63942  29.803  19.394   7.353
 5018POPC   C1B63943  30.101  18.757   6.277
 5018POPC   C2B63944  30.062  18.516   6.674
 5018POPC   C3B63945  30.170  18.681   7.079
 5018POPC   C4B63946  30.149  19.007   7.419
 5019POPC   NC363947  26.594  25.401   5.363
 5019POPC   PO463948  27.103  24.984   5.364
 5019POPC   GL163949  26.929  25.159   5.730
 5019POPC   GL263950  26.559  25.117   5.796
 5019POPC   C1A63951  27.021  25.113   6.164
 5019POPC   D2A63952  26.825  25.138   6.554
 5019POPC   C3A63953  27.080  25.340   6.850
 5019POPC   C4A63954  26.935  25.223   7.254
 5019POPC   C1B63955  26.372  25.175   6.214
 5019POPC   C2B63956  26.331  25.302   6.651
 5019POPC   C3B63957  26.476  25.130   7.042
 5019POPC   C4B63958  26.479  25.367   7.432
 5020POPC   NC363959  39.935  33.370   5.395
 5020POPC   PO463960  40.177  33.990   5.305
 5020POPC   GL163961  40.001  33.886   5.750
 5020POPC   GL263962  39.823  33.571   5.843
 5020POPC   C1A63963  40.041  33.896   6.230
 5020POPC   D2A63964  40.010  34.074   6.650
 5020POPC   C3A63965  40.223  33.839   6.956
 5020POPC   C4A63966  40.202  33.706   7.373
 5020POPC   C1B63967  39.667  33.549   6.245
 5020POPC   C2B63968  39.810  33.570   6.676
 5020POPC   C3B63969  39.760  33.674   7.102
 5020POPC   C4B63970  39.548  33.492   7.428
 5021POPC   NC363971   2.824   9.574   5.177
 5021POPC   PO463972   2.808   8.866   5.278
 5021POPC   GL163973   2.706   8.921   5.716
 5021POPC   GL263974   2.812   9.180   5.945
 5021POPC   C1A63975   2.597   8.761   6.135
 5021POPC   D2A63976   2.471   8.768   6.605
 5021POPC   C3A63977   2.840   8.887   6.787
 5021POPC   C4A63978   3.130   8.873   7.149
 5021POPC   C1B63979   2.643   9.255   6.322
 5021POPC   C2B63980   2.842   9.431   6.630
 5021POPC   C3B63981   2.927   9.344   7.031
 5021POPC   C4B63982   2.653   9.047   7.224
 5022POPC   NC363983  21.778  13.033   5.141
 5022POPC   PO463984  21.191  13.124   5.499
 5022POPC   GL163985  21.383  12.905   5.860
 5022POPC   GL263986  21.630  12.784   6.144
 5022POPC   C1A63987  21.144  12.888   6.255
 5022POPC   D2A63988  21.345  12.729   6.654
 5022POPC   C3A63989  21.208  12.733   7.099
 5022POPC   C4A63990  21.282  12.431   7.472
 5022POPC   C1B63991  21.524  13.180   6.391
 5022POPC   C2B63992  21.431  13.246   6.788
 5022POPC   C3B63993  21.662  13.012   7.071
 5022POPC   C4B63994  21.554  12.840   7.471
 5023POPC   NC363995  40.375   4.059   5.576
 5023POPC   PO463996  39.778   4.306   5.491
 5023POPC   GL163997  39.983   4.383   5.916
 5023POPC   GL263998  40.270   4.194   6.044
 5023POPC   C1A63999  40.014   4.473   6.359
 5023POPC   D2A64000  40.207   4.242   6.724
 5023POPC   C3A64001  40.081   4.447   7.106
 5023POPC   C4A64002  40.066   4.373   7.541
 5023POPC   C1B64003  39.999   3.954   6.331
 5023POPC   C2B64004  39.963   3.757   6.760
 5023POPC   C3B64005  40.160   3.935   7.154
 5023POPC   C4B64006  40.416   3.997   7.518
 5024POPC   NC364007  32.989   5.267   5.507
 5024POPC   PO464008  32.696   4.655   5.622
 5024POPC   GL164009  32.927   4.927   5.895
 5024POPC   GL264010  33.298   4.959   5.858
 5024POPC   C1A64011  32.951   5.019   6.322
 5024POPC   D2A64012  32.790   4.783   6.661
 5024POPC   C3A64013  32.972   4.883   7.033
 5024POPC   C4A64014  32.873   5.233   7.265
 5024POPC   C1B64015  33.421   4.774   6.291
 5024POPC   C2B64016  33.451   4.896   6.768
 5024POPC   C3B64017  33.383   5.192   7.145
 5024POPC   C4B64018  33.638   5.214   7.566
 5025POPC   NC364019  24.319   7.856   5.526
 5025POPC   PO464020  24.493   8.512   5.285
 5025POPC   GL164021  24.560   8.293   5.685
 5025POPC   GL264022  24.272   8.430   5.825
 5025POPC   C1A64023  24.542   8.189   6.159
 5025POPC   D2A64024  24.392   8.005   6.543
 5025POPC   C3A64025  24.497   8.168   6.941
 5025POPC   C4A64026  24.707   8.042   7.287
 5025POPC   C1B64027  24.221   8.586   6.250
 5025POPC   C2B64028  24.330   8.526   6.633
 5025POPC   C3B64029  24.246   8.620   7.065
 5025POPC   C4B64030  24.347   8.729   7.486
 5026POPC   NC364031   7.500  16.404   5.224
 5026POPC   PO464032   7.166  16.931   5.530
 5026POPC   GL164033   7.358  16.689   5.851
 5026POPC   GL264034   7.690  16.561   5.780
 5026POPC   C1A64035   7.390  16.615   6.293
 5026POPC   D2A64036   7.198  16.830   6.650
 5026POPC   C3A64037   7.252  16.590   7.040
 5026POPC   C4A64038   7.173  16.605   7.518
 5026POPC   C1B64039   7.828  16.862   6.119
 5026POPC   C2B64040   7.742  17.012   6.579
 5026POPC   C3B64041   7.792  16.882   7.045
 5026POPC   C4B64042   7.658  16.531   7.336
 5027POPC   NC364043  26.291  27.781   5.495
 5027POPC   PO464044  25.763  27.393   5.327
 5027POPC   GL164045  26.018  27.343   5.730
 5027POPC   GL264046  25.992  27.641   5.854
 5027POPC   C1A64047  26.242  27.397   6.186
 5027POPC   D2A64048  26.188  27.651   6.562
 5027POPC   C3A64049  26.135  27.399   6.920
 5027POPC   C4A64050  26.154  27.187   7.332
 5027POPC   C1B64051  25.804  27.815   6.192
 5027POPC   C2B64052  25.725  27.895   6.621
 5027POPC   C3B64053  25.906  27.837   7.012
 5027POPC   C4B64054  26.214  28.034   7.249
 5028POPC   NC364055  43.189  13.999   5.595
 5028POPC   PO464056  43.417  13.462   5.210
 5028POPC   GL164057  43.251  13.451   5.670
 5028POPC   GL264058  43.450  13.631   5.858
 5028POPC   C1A64059  43.093  13.419   6.160
 5028POPC   D2A64060  43.116  13.283   6.637
 5028POPC   C3A64061  43.016  13.600   6.986
 5028POPC   C4A64062  42.952  13.521   7.423
 5028POPC   C1B64063  43.455  13.819   6.255
 5028POPC   C2B64064  43.231  13.933   6.628
 5028POPC   C3B64065  43.352  13.973   7.029
 5028POPC   C4B64066  43.028  14.103   7.275
 5029POPC   NC364067  13.906  31.551   5.436
 5029POPC   PO464068  13.336  31.856   5.194
 5029POPC   GL164069  13.449  31.777   5.666
 5029POPC   GL264070  13.511  31.421   5.769
 5029POPC   C1A64071  13.480  31.754   6.140
 5029POPC   D2A64072  13.491  31.550   6.539
 5029POPC   C3A64073  13.646  31.653   6.951
 5029POPC   C4A64074  13.474  31.674   7.345
 5029POPC   C1B64075  13.771  31.310   6.163
 5029POPC   C2B64076  13.937  31.311   6.611
 5029POPC   C3B64077  13.847  31.173   7.036
 5029POPC   C4B64078  13.584  31.199   7.412
 5030POPC   NC364079   1.403  26.914   5.072
 5030POPC   PO464080   0.865  26.672   5.476
 5030POPC   GL164081   1.121  26.782   5.842
 5030POPC   GL264082   1.117  26.450   5.968
 5030POPC   C1A64083   1.373  26.978   6.206
 5030POPC   D2A64084   1.508  26.826   6.634
 5030POPC   C3A64085   1.263  26.890   7.015
 5030POPC   C4A64086   1.494  26.980   7.403
 5030POPC   C1B64087   0.964  26.662   6.374
 5030POPC   C2B64088   0.825  26.982   6.719
 5030POPC   C3B64089   0.730  26.997   7.169
 5030POPC   C4B64090   1.007  26.840   7.522
 5031POPC   NC364091  32.326  39.374   5.415
 5031POPC   PO464092  31.751  39.664   5.475
 5031POPC   GL164093  32.020  39.428   5.825
 5031POPC   GL264094  32.391  39.565   5.863
 5031POPC   C1A64095  32.177  39.207   6.216
 5031POPC   D2A64096  32.327  39.161   6.646
 5031POPC   C3A64097  32.388  38.863   6.961
 5031POPC   C4A64098  32.283  39.103   7.321
 5031POPC   C1B64099  32.337  39.712   6.241
 5031POPC   C2B64100  32.457  39.660   6.622
 5031POPC   C3B64101  32.590  39.498   6.985
 5031POPC   C4B64102  32.493  39.549   7.394
 5032POPC   NC364103  35.673   2.302   5.497
 5032POPC   PO464104  35.245   1.675   5.466
 5032POPC   GL164105  35.319   2.008   5.785
 5032POPC   GL264106  35.024   1.899   5.945
 5032POPC   C1A64107  35.274   2.248   6.201
 5032POPC   D2A64108  34.963   2.207   6.562
 5032POPC   C3A64109  35.178   2.013   6.904
 5032POPC   C4A64110  35.482   2.259   7.147
 5032POPC   C1B64111  35.273   1.682   6.248
 5032POPC   C2B64112  35.284   1.459   6.653
 5032POPC   C3B64113  35.052   1.524   7.041
 5032POPC   C4B64114  35.057   1.708   7.469
 5033POPC   NC364115  25.402  17.756   5.061
 5033POPC   PO464116  25.503  18.385   5.387
 5033POPC   GL164117  25.437  18.359   5.814
 5033POPC   GL264118  25.525  18.707   5.863
 5033POPC   C1A64119  25.242  18.250   6.210
 5033POPC   D2A64120  25.053  18.270   6.608
 5033POPC   C3A64121  25.300  18.170   6.975
 5033POPC   C4A64122  25.182  18.233   7.404
 5033POPC   C1B64123  25.703  18.572   6.219
 5033POPC   C2B64124  25.601  18.432   6.624
 5033POPC   C3B64125  25.688  18.506   7.077
 5033POPC   C4B64126  25.673  18.322   7.485
 5034POPC   NC364127  39.138  16.859   5.481
 5034POPC   PO464128  39.551  16.388   5.419
 5034POPC   GL164129  39.431  16.549   5.837
 5034POPC   GL264130  39.519  16.889   5.920
 5034POPC   C1A64131  39.063  16.668   6.102
 5034POPC   D2A64132  38.962  16.814   6.518
 5034POPC   C3A64133  39.174  16.612   6.878
 5034POPC   C4A64134  39.043  16.709   7.322
 5034POPC   C1B64135  39.488  16.784   6.370
 5034POPC   C2B64136  39.628  16.876   6.785
 5034POPC   C3B64137  39.539  16.759   7.216
 5034POPC   C4B64138  39.651  16.544   7.608
 5035POPC   NC364139   9.162  34.188   5.491
 5035POPC   PO464140   9.246  34.883   5.405
 5035POPC   GL164141   9.165  34.721   5.832
 5035POPC   GL264142   8.928  34.486   5.827
 5035POPC   C1A64143   8.911  34.736   6.253
 5035POPC   D2A64144   8.944  34.497   6.639
 5035POPC   C3A64145   8.928  34.681   7.028
 5035POPC   C4A64146   8.640  34.733   7.371
 5035POPC   C1B64147   9.067  34.233   6.184
 5035POPC   C2B64148   9.194  34.069   6.578
 5035POPC   C3B64149   9.049  34.161   7.018
 5035POPC   C4B64150   8.942  34.331   7.451
 5036POPC   NC364151   9.184   0.355   5.341
 5036POPC   PO464152   9.875   0.550   5.414
 5036POPC   GL164153   9.576   0.539   5.810
 5036POPC   GL264154   9.535   0.193   5.824
 5036POPC   C1A64155   9.542   0.630   6.303
 5036POPC   D2A64156   9.506   0.720   6.783
 5036POPC   C3A64157   9.868   0.664   7.040
 5036POPC   C4A64158  10.011   0.318   7.287
 5036POPC   C1B64159   9.697   0.114   6.243
 5036POPC   C2B64160   9.737   0.267   6.681
 5036POPC   C3B64161   9.552   0.248   7.094
 5036POPC   C4B64162   9.594   0.197   7.557
 5037POPC   NC364163   2.331  31.938   5.642
 5037POPC   PO464164   2.047  31.452   5.307
 5037POPC   GL164165   2.162  31.396   5.768
 5037POPC   GL264166   2.153  31.660   6.020
 5037POPC   C1A64167   2.014  31.164   6.167
 5037POPC   D2A64168   2.217  31.090   6.582
 5037POPC   C3A64169   2.261  31.429   6.885
 5037POPC   C4A64170   2.134  31.424   7.301
 5037POPC   C1B64171   1.743  31.615   6.224
 5037POPC   C2B64172   1.557  31.506   6.647
 5037POPC   C3B64173   1.664  31.444   7.092
 5037POPC   C4B64174   1.740  31.795   7.380
 5038POPC   NC364175  17.088  36.346   5.266
 5038POPC   PO464176  16.453  36.179   5.320
 5038POPC   GL164177  16.709  36.214   5.705
 5038POPC   GL264178  16.919  36.550   5.725
 5038POPC   C1A64179  16.597  36.048   6.123
 5038POPC   D2A64180  16.309  35.965   6.473
 5038POPC   C3A64181  16.401  36.121   6.901
 5038POPC   C4A64182  16.739  36.160   7.206
 5038POPC   C1B64183  16.635  36.574   6.094
 5038POPC   C2B64184  16.772  36.585   6.517
 5038POPC   C3B64185  16.631  36.608   6.925
 5038POPC   C4B64186  16.799  36.661   7.323
 5039POPC   NC364187  35.246  26.553   5.318
 5039POPC   PO464188  35.153  27.227   5.415
 5039POPC   GL164189  35.276  27.018   5.782
 5039POPC   GL264190  35.460  26.698   5.758
 5039POPC   C1A64191  35.495  27.036   6.166
 5039POPC   D2A64192  35.753  26.969   6.516
 5039POPC   C3A64193  35.557  27.011   6.900
 5039POPC   C4A64194  35.561  26.976   7.389
 5039POPC   C1B64195  35.318  26.545   6.155
 5039POPC   C2B64196  35.270  26.720   6.549
 5039POPC   C3B64197  35.384  26.549   6.921
 5039POPC   C4B64198  35.200  26.643   7.278
 5040POPC   NC364199   8.793  10.780   5.421
 5040POPC   PO464200   8.897  10.131   5.334
 5040POPC   GL164201   9.004  10.425   5.776
 5040POPC   GL264202   8.933  10.809   5.902
 5040POPC   C1A64203   9.185  10.557   6.234
 5040POPC   D2A64204   8.979  10.601   6.634
 5040POPC   C3A64205   9.239  10.479   6.982
 5040POPC   C4A64206   9.079  10.208   7.345
 5040POPC   C1B64207   8.594  10.961   6.163
 5040POPC   C2B64208   8.434  10.856   6.590
 5040POPC   C3B64209   8.653  10.877   6.950
 5040POPC   C4B64210   8.850  10.650   7.241
 5041POPC   NC364211   2.961  41.197   5.533
 5041POPC   PO464212   3.233  40.612   5.445
 5041POPC   GL164213   2.913  40.573   5.749
 5041POPC   GL264214   2.646  40.817   5.734
 5041POPC   C1A64215   2.974  40.679   6.180
 5041POPC   D2A64216   2.781  40.688   6.577
 5041POPC   C3A64217   2.950  40.436   6.901
 5041POPC   C4A64218   2.818  40.601   7.290
 5041POPC   C1B64219   2.550  40.977   6.155
 5041POPC   C2B64220   2.334  40.925   6.568
 5041POPC   C3B64221   2.550  40.963   6.987
 5041POPC   C4B64222   2.500  40.973   7.434
 5042POPC   NC364223  23.101   6.123   5.433
 5042POPC   PO464224  22.575   5.666   5.424
 5042POPC   GL164225  22.817   5.827   5.728
 5042POPC   GL264226  22.710   6.199   5.765
 5042POPC   C1A64227  23.156   5.825   6.042
 5042POPC   D2A64228  23.275   5.733   6.463
 5042POPC   C3A64229  23.040   5.725   6.862
 5042POPC   C4A64230  23.123   6.053   7.147
 5042POPC   C1B64231  22.677   5.986   6.170
 5042POPC   C2B64232  22.864   6.050   6.531
 5042POPC   C3B64233  22.698   6.126   6.899
 5042POPC   C4B64234  22.619   5.826   7.194
 5043POPC   NC364235  18.157  34.829   5.423
 5043POPC   PO464236  18.668  34.272   5.289
 5043POPC   GL164237  18.497  34.558   5.674
 5043POPC   GL264238  18.511  34.871   5.822
 5043POPC   C1A64239  18.164  34.548   6.053
 5043POPC   D2A64240  18.091  34.858   6.409
 5043POPC   C3A64241  18.185  34.745   6.860
 5043POPC   C4A64242  18.095  34.601   7.278
 5043POPC   C1B64243  18.587  34.728   6.282
 5043POPC   C2B64244  18.686  34.730   6.749
 5043POPC   C3B64245  18.593  34.679   7.221
 5043POPC   C4B64246  18.501  34.920   7.660
 5044POPC   NC364247  21.432  35.050   5.270
 5044POPC   PO464248  21.144  34.417   5.393
 5044POPC   GL164249  21.238  34.590   5.824
 5044POPC   GL264250  21.483  34.874   5.754
 5044POPC   C1A64251  21.200  34.514   6.304
 5044POPC   D2A64252  20.959  34.436   6.712
 5044POPC   C3A64253  21.217  34.550   7.063
 5044POPC   C4A64254  21.395  34.625   7.457
 5044POPC   C1B64255  21.610  34.907   6.170
 5044POPC   C2B64256  21.547  35.043   6.581
 5044POPC   C3B64257  21.699  34.884   6.957
 5044POPC   C4B64258  21.688  35.067   7.333
 5045POPC   NC364259  16.322   9.179   5.452
 5045POPC   PO464260  15.671   8.974   5.360
 5045POPC   GL164261  15.907   9.021   5.730
 5045POPC   GL264262  16.056   9.356   5.856
 5045POPC   C1A64263  15.889   8.954   6.168
 5045POPC   D2A64264  15.910   8.838   6.598
 5045POPC   C3A64265  15.775   9.135   6.949
 5045POPC   C4A64266  15.797   9.158   7.405
 5045POPC   C1B64267  16.258   9.297   6.287
 5045POPC   C2B64268  16.325   9.115   6.706
 5045POPC   C3B64269  16.174   8.830   7.050
 5045POPC   C4B64270  16.286   9.082   7.355
 5046POPC   NC364271  16.654  35.760   5.417
 5046POPC   PO464272  16.968  35.085   5.473
 5046POPC   GL164273  16.752  35.291   5.805
 5046POPC   GL264274  16.842  35.661   5.883
 5046POPC   C1A64275  16.492  35.103   6.124
 5046POPC   D2A64276  16.384  35.177   6.579
 5046POPC   C3A64277  16.795  35.208   6.810
 5046POPC   C4A64278  16.750  35.133   7.231
 5046POPC   C1B64279  16.619  35.564   6.308
 5046POPC   C2B64280  16.574  35.654   6.775
 5046POPC   C3B64281  16.688  35.658   7.219
 5046POPC   C4B64282  16.632  35.831   7.662
 5047POPC   NC364283  26.236   6.185   5.374
 5047POPC   PO464284  25.992   5.515   5.436
 5047POPC   GL164285  26.018   5.829   5.757
 5047POPC   GL264286  25.674   5.971   5.766
 5047POPC   C1A64287  26.178   5.833   6.190
 5047POPC   D2A64288  26.373   5.739   6.597
 5047POPC   C3A64289  26.324   5.866   7.025
 5047POPC   C4A64290  26.072   5.762   7.349
 5047POPC   C1B64291  25.647   5.747   6.166
 5047POPC   C2B64292  25.832   5.832   6.576
 5047POPC   C3B64293  25.926   6.119   6.869
 5047POPC   C4B64294  25.762   6.187   7.266
 5048POPC   NC364295  24.779  29.144   5.625
 5048POPC   PO464296  25.218  29.170   5.176
 5048POPC   GL164297  25.345  29.134   5.666
 5048POPC   GL264298  25.125  28.936   5.926
 5048POPC   C1A64299  25.480  29.237   6.115
 5048POPC   D2A64300  25.436  29.232   6.574
 5048POPC   C3A64301  25.330  29.504   6.902
 5048POPC   C4A64302  25.174  29.389   7.264
 5048POPC   C1B64303  25.309  28.722   6.264
 5048POPC   C2B64304  25.181  28.757   6.620
 5048POPC   C3B64305  25.132  28.999   6.934
 5048POPC   C4B64306  25.395  28.901   7.256
 5049POPC   NC364307   3.919   2.374   5.473
 5049POPC   PO464308   3.578   3.049   5.420
 5049POPC   GL164309   3.583   2.711   5.728
 5049POPC   GL264310   3.308   2.853   5.938
 5049POPC   C1A64311   3.780   2.616   6.086
 5049POPC   D2A64312   3.601   2.752   6.457
 5049POPC   C3A64313   3.705   2.627   6.844
 5049POPC   C4A64314   3.723   2.976   7.125
 5049POPC   C1B64315   3.312   2.447   6.161
 5049POPC   C2B64316   3.202   2.230   6.538
 5049POPC   C3B64317   3.177   2.323   6.987
 5049POPC   C4B64318   3.430   2.565   7.273
 5050POPC   NC364319  30.461  11.809   5.615
 5050POPC   PO464320  30.845  11.257   5.497
 5050POPC   GL164321  30.621  11.384   5.891
 5050POPC   GL264322  30.317  11.564   6.010
 5050POPC   C1A64323  30.709  11.412   6.341
 5050POPC   D2A64324  30.954  11.287   6.673
 5050POPC   C3A64325  30.713  11.280   7.022
 5050POPC   C4A64326  30.819  11.607   7.213
 5050POPC   C1B64327  30.163  11.805   6.301
 5050POPC   C2B64328  30.362  11.694   6.670
 5050POPC   C3B64329  30.341  11.704   7.077
 5050POPC   C4B64330  30.315  11.670   7.495
 5051POPC   NC364331  20.106   4.227   5.623
 5051POPC   PO464332  20.755   4.437   5.427
 5051POPC   GL164333  20.686   4.440   5.855
 5051POPC   GL264334  20.378   4.592   5.883
 5051POPC   C1A64335  20.653   4.180   6.230
 5051POPC   D2A64336  20.818   4.120   6.656
 5051POPC   C3A64337  20.590   4.337   6.983
 5051POPC   C4A64338  20.737   4.532   7.349
 5051POPC   C1B64339  20.488   4.650   6.308
 5051POPC   C2B64340  20.362   4.707   6.712
 5051POPC   C3B64341  20.254   4.739   7.152
 5051POPC   C4B64342  20.241   4.376   7.425
 5052POPC   NC364343  27.275  26.104   5.451
 5052POPC   PO464344  26.665  26.198   5.421
 5052POPC   GL164345  26.813  26.043   5.772
 5052POPC   GL264346  26.876  25.700   5.699
 5052POPC   C1A64347  26.964  26.006   6.188
 5052POPC   D2A64348  26.872  26.176   6.593
 5052POPC   C3A64349  27.055  25.992   6.938
 5052POPC   C4A64350  27.028  26.271   7.279
 5052POPC   C1B64351  26.727  25.531   6.080
 5052POPC   C2B64352  26.749  25.651   6.516
 5052POPC   C3B64353  26.661  25.595   6.934
 5052POPC   C4B64354  26.769  25.784   7.307
 5053POPC   NC364355  14.222   3.724   5.282
 5053POPC   PO464356  14.690   3.273   5.293
 5053POPC   GL164357  14.794   3.456   5.745
 5053POPC   GL264358  14.864   3.268   6.057
 5053POPC   C1A64359  14.577   3.737   6.073
 5053POPC   D2A64360  14.571   3.916   6.495
 5053POPC   C3A64361  14.270   3.787   6.789
 5053POPC   C4A64362  14.286   3.717   7.234
 5053POPC   C1B64363  14.460   3.258   6.173
 5053POPC   C2B64364  14.545   3.403   6.562
 5053POPC   C3B64365  14.492   3.335   6.975
 5053POPC   C4B64366  14.158   3.246   7.278
 5054POPC   NC364367  30.373   0.754   5.660
 5054POPC   PO464368  30.017   0.254   5.334
 5054POPC   GL164369  30.030   0.378   5.745
 5054POPC   GL264370  30.374   0.254   5.836
 5054POPC   C1A64371  29.879   0.638   6.093
 5054POPC   D2A64372  29.822   0.511   6.526
 5054POPC   C3A64373  29.899   0.736   6.893
 5054POPC   C4A64374  29.944   0.584   7.278
 5054POPC   C1B64375  30.142   0.218   6.220
 5054POPC   C2B64376  30.097   0.080   6.619
 5054POPC   C3B64377  30.262   0.214   6.976
 5054POPC   C4B64378  30.403   0.265   7.370
 5055POPC   NC364379  12.571  13.782   5.412
 5055POPC   PO464380  13.087  13.288   5.473
 5055POPC   GL164381  12.805  13.383   5.845
 5055POPC   GL264382  12.699  13.743   5.905
 5055POPC   C1A64383  12.815  13.458   6.329
 5055POPC   D2A64384  13.093  13.648   6.658
 5055POPC   C3A64385  12.884  13.596   7.054
 5055POPC   C4A64386  12.615  13.261   7.177
 5055POPC   C1B64387  12.459  13.990   6.216
 5055POPC   C2B64388  12.561  13.845   6.629
 5055POPC   C3B64389  12.551  14.008   7.035
 5055POPC   C4B64390  12.821  14.161   7.386
 5056POPC   NC364391  13.357  23.379   5.308
 5056POPC   PO464392  12.873  22.899   5.318
 5056POPC   GL164393  12.877  22.835   5.801
 5056POPC   GL264394  12.770  22.530   6.002
 5056POPC   C1A64395  12.796  23.007   6.222
 5056POPC   D2A64396  13.001  23.058   6.624
 5056POPC   C3A64397  12.878  22.768   6.946
 5056POPC   C4A64398  12.670  22.818   7.333
 5056POPC   C1B64399  13.183  22.554   6.137
 5056POPC   C2B64400  13.259  22.608   6.548
 5056POPC   C3B64401  13.306  22.463   6.943
 5056POPC   C4B64402  13.237  22.643   7.319
 5057POPC   NC364403  43.241  42.787   5.419
 5057POPC   PO464404  42.842  43.322   5.630
 5057POPC   GL164405  42.938  42.953   5.830
 5057POPC   GL264406  43.238  43.071   5.835
 5057POPC   C1A64407  43.076  42.822   6.257
 5057POPC   D2A64408  43.085  42.646   6.690
 5057POPC   C3A64409  43.082  42.925   7.077
 5057POPC   C4A64410  43.033  43.376   7.194
 5057POPC   C1B64411  43.415  43.217   6.192
 5057POPC   C2B64412  43.400  43.051   6.605
 5057POPC   C3B64413  43.465  43.319   6.930
 5057POPC   C4B64414  43.572  43.122   7.250
 5058POPC   NC364415  26.999  12.548   5.346
 5058POPC   PO464416  26.830  11.821   5.387
 5058POPC   GL164417  26.693  12.079   5.741
 5058POPC   GL264418  26.751  12.429   5.770
 5058POPC   C1A64419  26.641  12.172   6.195
 5058POPC   D2A64420  26.911  11.986   6.488
 5058POPC   C3A64421  26.842  12.170   6.870
 5058POPC   C4A64422  26.703  12.045   7.261
 5058POPC   C1B64423  27.108  12.394   6.079
 5058POPC   C2B64424  27.058  12.506   6.534
 5058POPC   C3B64425  27.266  12.448   6.901
 5058POPC   C4B64426  27.158  12.255   7.276
 5059POPC   NC364427  31.670  44.989   5.238
 5059POPC   PO464428  31.820   0.581   5.298
 5059POPC   GL164429  31.637   0.449   5.716
 5059POPC   GL264430  31.282   0.616   5.788
 5059POPC   C1A64431  31.787   0.312   6.140
 5059POPC   D2A64432  31.809   0.422   6.581
 5059POPC   C3A64433  31.846   0.302   7.009
 5059POPC   C4A64434  31.686   0.691   7.191
 5059POPC   C1B64435  31.117   0.832   6.177
 5059POPC   C2B64436  31.079   0.602   6.551
 5059POPC   C3B64437  31.300   0.426   6.930
 5059POPC   C4B64438  31.436   0.248   7.334
 5060POPC   NC364439  20.168  12.101   5.231
 5060POPC   PO464440  20.800  12.217   5.490
 5060POPC   GL164441  20.634  11.945   5.803
 5060POPC   GL264442  20.346  12.115   5.814
 5060POPC   C1A64443  20.510  11.885   6.252
 5060POPC   D2A64444  20.563  12.159   6.604
 5060POPC   C3A64445  20.624  12.075   7.028
 5060POPC   C4A64446  20.609  11.928   7.462
 5060POPC   C1B64447  20.697  12.348   6.123
 5060POPC   C2B64448  20.864  12.551   6.494
 5060POPC   C3B64449  20.736  12.592   6.907
 5060POPC   C4B64450  20.811  12.444   7.318
 5061POPC   NC364451  40.394  21.229   5.647
 5061POPC   PO464452  39.713  21.586   5.493
 5061POPC   GL164453  40.011  21.520   5.829
 5061POPC   GL264454  39.894  21.263   5.838
 5061POPC   C1A64455  40.150  21.356   6.251
 5061POPC   D2A64456  40.021  21.464   6.651
 5061POPC   C3A64457  40.156  21.329   7.021
 5061POPC   C4A64458  40.108  21.505   7.407
 5061POPC   C1B64459  39.728  21.058   6.087
 5061POPC   C2B64460  39.793  21.040   6.489
 5061POPC   C3B64461  39.672  21.188   6.913
 5061POPC   C4B64462  39.819  21.075   7.326
 5062POPC   NC364463  34.022  30.373   5.202
 5062POPC   PO464464  33.559  30.838   5.205
 5062POPC   GL164465  33.781  30.550   5.627
 5062POPC   GL264466  33.552  30.467   5.908
 5062POPC   C1A64467  34.008  30.567   6.104
 5062POPC   D2A64468  34.053  30.952   6.443
 5062POPC   C3A64469  33.878  31.050   6.874
 5062POPC   C4A64470  33.948  30.805   7.276
 5062POPC   C1B64471  33.598  30.722   6.347
 5062POPC   C2B64472  33.798  30.574   6.757
 5062POPC   C3B64473  33.651  30.398   7.144
 5062POPC   C4B64474  33.558  30.543   7.541
 5063POPC   NC364475  42.280  29.449   5.683
 5063POPC   PO464476  42.423  29.961   5.240
 5063POPC   GL164477  42.338  29.971   5.699
 5063POPC   GL264478  41.975  29.981   5.695
 5063POPC   C1A64479  42.424  30.007   6.170
 5063POPC   D2A64480  42.351  30.235   6.574
 5063POPC   C3A64481  42.512  30.005   6.950
 5063POPC   C4A64482  42.344  29.996   7.378
 5063POPC   C1B64483  41.924  29.785   6.104
 5063POPC   C2B64484  41.938  29.939   6.510
 5063POPC   C3B64485  42.018  29.995   6.939
 5063POPC   C4B64486  42.069  29.612   7.189
 5064POPC   NC364487  42.959   8.768   5.234
 5064POPC   PO464488  43.447   9.225   5.372
 5064POPC   GL164489  43.203   9.220   5.781
 5064POPC   GL264490  42.905   9.001   5.844
 5064POPC   C1A64491  43.191   9.218   6.247
 5064POPC   D2A64492  43.100   9.007   6.622
 5064POPC   C3A64493  43.253   9.102   7.013
 5064POPC   C4A64494  43.342   8.721   7.226
 5064POPC   C1B64495  42.968   8.721   6.212
 5064POPC   C2B64496  42.781   8.613   6.587
 5064POPC   C3B64497  42.826   8.748   6.998
 5064POPC   C4B64498  42.881   8.939   7.384
 5065POPC   NC364499  18.642  16.832   5.456
 5065POPC   PO464500  19.225  16.572   5.267
 5065POPC   GL164501  19.015  16.552   5.725
 5065POPC   GL264502  18.684  16.674   5.922
 5065POPC   C1A64503  19.079  16.502   6.184
 5065POPC   D2A64504  18.923  16.594   6.589
 5065POPC   C3A64505  19.191  16.767   6.902
 5065POPC   C4A64506  19.165  16.516   7.215
 5065POPC   C1B64507  18.828  16.979   6.242
 5065POPC   C2B64508  19.011  17.139   6.600
 5065POPC   C3B64509  18.867  17.179   6.999
 5065POPC   C4B64510  18.847  16.913   7.314
 5066POPC   NC364511   7.672   6.935   5.490
 5066POPC   PO464512   7.386   6.292   5.432
 5066POPC   GL164513   7.466   6.528   5.767
 5066POPC   GL264514   7.694   6.289   5.929
 5066POPC   C1A64515   7.289   6.646   6.148
 5066POPC   D2A64516   7.297   6.443   6.543
 5066POPC   C3A64517   7.257   6.663   6.927
 5066POPC   C4A64518   7.108   6.375   7.247
 5066POPC   C1B64519   7.769   6.517   6.298
 5066POPC   C2B64520   7.711   6.765   6.638
 5066POPC   C3B64521   7.766   6.457   6.933
 5066POPC   C4B64522   7.605   6.565   7.276
 5067POPC   NC364523  32.914  11.706   5.752
 5067POPC   PO464524  33.171  12.148   5.296
 5067POPC   GL164525  33.209  12.322   5.711
 5067POPC   GL264526  33.435  12.151   5.892
 5067POPC   C1A64527  33.002  12.326   6.136
 5067POPC   D2A64528  32.793  12.057   6.444
 5067POPC   C3A64529  32.801  12.109   6.889
 5067POPC   C4A64530  32.727  11.894   7.300
 5067POPC   C1B64531  33.390  11.959   6.295
 5067POPC   C2B64532  33.316  12.074   6.704
 5067POPC   C3B64533  33.214  11.891   7.078
 5067POPC   C4B64534  33.186  12.006   7.514
 5068POPC   NC364535  31.142  37.974   5.658
 5068POPC   PO464536  30.734  37.589   5.270
 5068POPC   GL164537  30.722  37.613   5.755
 5068POPC   GL264538  30.529  37.898   5.835
 5068POPC   C1A64539  30.701  37.444   6.223
 5068POPC   D2A64540  30.398  37.431   6.617
 5068POPC   C3A64541  30.648  37.437   7.028
 5068POPC   C4A64542  30.981  37.563   7.308
 5068POPC   C1B64543  30.745  37.940   6.230
 5068POPC   C2B64544  30.625  37.891   6.666
 5068POPC   C3B64545  30.828  37.974   7.050
 5068POPC   C4B64546  31.004  38.057   7.481
 5069POPC   NC364547  34.262  28.968   5.418
 5069POPC   PO464548  34.663  29.425   5.172
 5069POPC   GL164549  34.667  29.153   5.648
 5069POPC   GL264550  34.836  28.985   5.772
 5069POPC   C1A64551  34.517  29.113   6.146
 5069POPC   D2A64552  34.299  29.311   6.527
 5069POPC   C3A64553  34.462  29.270   6.968
 5069POPC   C4A64554  34.414  28.885   7.207
 5069POPC   C1B64555  34.954  29.367   6.068
 5069POPC   C2B64556  35.048  29.386   6.518
 5069POPC   C3B64557  34.977  29.077   6.856
 5069POPC   C4B64558  34.866  29.129   7.276
 5070POPC   NC364559  36.996  21.931   5.423
 5070POPC   PO464560  36.613  22.423   5.610
 5070POPC   GL164561  37.014  22.378   5.828
 5070POPC   GL264562  37.191  22.046   5.867
 5070POPC   C1A64563  36.915  22.361   6.247
 5070POPC   D2A64564  36.654  22.265   6.609
 5070POPC   C3A64565  36.662  22.398   7.027
 5070POPC   C4A64566  36.875  22.229   7.382
 5070POPC   C1B64567  37.059  21.853   6.248
 5070POPC   C2B64568  36.788  21.767   6.592
 5070POPC   C3B64569  36.845  21.910   6.974
 5070POPC   C4B64570  36.960  21.727   7.358
 5071POPC   NC364571  39.659   1.933   5.431
 5071POPC   PO464572  40.020   2.451   5.343
 5071POPC   GL164573  39.854   2.280   5.760
 5071POPC   GL264574  40.172   2.139   5.824
 5071POPC   C1A64575  39.846   2.084   6.225
 5071POPC   D2A64576  39.900   2.304   6.648
 5071POPC   C3A64577  40.004   2.122   7.069
 5071POPC   C4A64578  39.875   2.007   7.505
 5071POPC   C1B64579  40.367   2.060   6.217
 5071POPC   C2B64580  40.409   1.851   6.593
 5071POPC   C3B64581  40.511   1.940   7.004
 5071POPC   C4B64582  40.366   1.962   7.401
 5072POPC   NC364583  34.424  15.568   5.333
 5072POPC   PO464584  34.760  14.975   5.579
 5072POPC   GL164585  34.702  15.145   5.950
 5072POPC   GL264586  34.367  15.175   5.911
 5072POPC   C1A64587  34.815  15.202   6.363
 5072POPC   D2A64588  34.654  15.351   6.730
 5072POPC   C3A64589  34.890  15.187   7.041
 5072POPC   C4A64590  34.616  15.318   7.332
 5072POPC   C1B64591  34.410  14.852   6.266
 5072POPC   C2B64592  34.622  14.816   6.679
 5072POPC   C3B64593  34.517  14.833   7.101
 5072POPC   C4B64594  34.146  14.854   7.360
 5073POPC   NC364595   5.869  29.542   5.402
 5073POPC   PO464596   5.616  30.106   5.502
 5073POPC   GL164597   5.830  29.861   5.802
 5073POPC   GL264598   6.116  29.670   5.837
 5073POPC   C1A64599   5.763  29.670   6.220
 5073POPC   D2A64600   5.793  29.948   6.575
 5073POPC   C3A64601   5.774  29.816   6.994
 5073POPC   C4A64602   5.803  30.124   7.303
 5073POPC   C1B64603   6.156  29.992   6.186
 5073POPC   C2B64604   6.306  29.917   6.633
 5073POPC   C3B64605   6.258  29.967   7.083
 5073POPC   C4B64606   6.076  29.693   7.409
 5074POPC   NC364607   5.616  23.914   5.575
 5074POPC   PO464608   4.960  23.568   5.496
 5074POPC   GL164609   5.174  23.755   5.836
 5074POPC   GL264610   4.949  23.991   5.881
 5074POPC   C1A64611   5.317  23.784   6.267
 5074POPC   D2A64612   5.078  23.661   6.626
 5074POPC   C3A64613   5.315  23.751   6.969
 5074POPC   C4A64614   5.055  23.780   7.236
 5074POPC   C1B64615   4.833  23.930   6.276
 5074POPC   C2B64616   4.686  24.102   6.635
 5074POPC   C3B64617   4.804  24.168   7.054
 5074POPC   C4B64618   4.576  24.001   7.437
 5075POPC   NC364619  42.911  19.249   5.224
 5075POPC   PO464620  43.426  19.027   5.630
 5075POPC   GL164621  43.111  19.119   5.888
 5075POPC   GL264622  42.816  19.116   5.764
 5075POPC   C1A64623  42.995  19.328   6.248
 5075POPC   D2A64624  42.996  19.145   6.641
 5075POPC   C3A64625  43.213  19.240   7.026
 5075POPC   C4A64626  43.349  18.869   7.288
 5075POPC   C1B64627  42.633  18.932   6.187
 5075POPC   C2B64628  42.605  18.799   6.660
 5075POPC   C3B64629  42.897  18.824   7.035
 5075POPC   C4B64630  42.902  18.642   7.480
 5076POPC   NC364631  20.528  32.846   5.425
 5076POPC   PO464632  21.166  32.809   5.556
 5076POPC   GL164633  20.803  33.032   5.816
 5076POPC   GL264634  20.520  32.837   5.966
 5076POPC   C1A64635  20.635  33.257   6.213
 5076POPC   D2A64636  20.741  33.256   6.664
 5076POPC   C3A64637  20.692  33.258   7.121
 5076POPC   C4A64638  20.537  33.477   7.504
 5076POPC   C1B64639  20.626  32.780   6.425
 5076POPC   C2B64640  20.408  32.842   6.826
 5076POPC   C3B64641  20.151  32.939   7.186
 5076POPC   C4B64642  20.164  33.142   7.603
 5077POPC   NC364643  24.079   9.251   5.641
 5077POPC   PO464644  23.574   8.841   5.504
 5077POPC   GL164645  23.638   8.897   5.926
 5077POPC   GL264646  23.964   8.859   5.932
 5077POPC   C1A64647  23.707   8.643   6.325
 5077POPC   D2A64648  23.613   8.573   6.761
 5077POPC   C3A64649  23.594   8.910   7.066
 5077POPC   C4A64650  23.618   8.724   7.500
 5077POPC   C1B64651  24.028   9.073   6.334
 5077POPC   C2B64652  24.125   9.055   6.801
 5077POPC   C3B64653  24.021   9.070   7.260
 5077POPC   C4B64654  23.974   9.040   7.678
 5078POPC   NC364655  10.795  13.923   5.250
 5078POPC   PO464656  11.458  13.947   5.465
 5078POPC   GL164657  11.445  13.723   5.822
 5078POPC   GL264658  11.523  13.366   5.786
 5078POPC   C1A64659  11.427  13.873   6.252
 5078POPC   D2A64660  11.631  13.766   6.630
 5078POPC   C3A64661  11.429  13.908   6.959
 5078POPC   C4A64662  11.201  13.827   7.292
 5078POPC   C1B64663  11.271  13.394   6.164
 5078POPC   C2B64664  11.370  13.329   6.579
 5078POPC   C3B64665  11.250  13.411   6.988
 5078POPC   C4B64666  11.349  13.201   7.341
 5079POPC   NC364667  28.483  24.942   5.505
 5079POPC   PO464668  28.564  25.608   5.638
 5079POPC   GL164669  28.504  25.305   5.943
 5079POPC   GL264670  28.219  25.106   5.905
 5079POPC   C1A64671  28.429  25.243   6.377
 5079POPC   D2A64672  28.693  25.346   6.702
 5079POPC   C3A64673  28.509  25.336   7.074
 5079POPC   C4A64674  28.477  24.984   7.278
 5079POPC   C1B64675  28.019  25.446   6.151
 5079POPC   C2B64676  27.943  25.387   6.574
 5079POPC   C3B64677  28.029  25.155   6.947
 5079POPC   C4B64678  28.032  25.361   7.325
 5080POPC   NC364679   5.095  34.163   5.493
 5080POPC   PO464680   5.354  33.541   5.672
 5080POPC   GL164681   5.132  33.861   5.936
 5080POPC   GL264682   4.805  33.947   5.870
 5080POPC   C1A64683   4.945  33.867   6.371
 5080POPC   D2A64684   5.124  33.946   6.800
 5080POPC   C3A64685   5.233  33.646   7.130
 5080POPC   C4A64686   5.508  33.296   7.218
 5080POPC   C1B64687   4.580  34.219   6.161
 5080POPC   C2B64688   4.790  34.331   6.546
 5080POPC   C3B64689   4.728  34.203   6.962
 5080POPC   C4B64690   4.994  34.191   7.321
 5081POPC   NC364691  22.922  23.562   5.437
 5081POPC   PO464692  22.875  24.158   5.178
 5081POPC   GL164693  22.807  23.995   5.663
 5081POPC   GL264694  22.707  23.670   5.879
 5081POPC   C1A64695  23.066  23.992   6.069
 5081POPC   D2A64696  22.909  24.046   6.506
 5081POPC   C3A64697  23.067  23.990   6.911
 5081POPC   C4A64698  22.992  23.890   7.317
 5081POPC   C1B64699  23.070  23.491   6.139
 5081POPC   C2B64700  23.173  23.601   6.562
 5081POPC   C3B64701  23.266  23.525   6.996
 5081POPC   C4B64702  23.131  23.374   7.395
 5082POPC   NC364703  22.407  39.403   5.633
 5082POPC   PO464704  22.367  40.020   5.341
 5082POPC   GL164705  22.133  39.871   5.697
 5082POPC   GL264706  22.105  40.209   5.848
 5082POPC   C1A64707  21.886  39.753   6.063
 5082POPC   D2A64708  21.729  39.783   6.490
 5082POPC   C3A64709  21.899  39.915   6.863
 5082POPC   C4A64710  22.050  39.875   7.251
 5082POPC   C1B64711  22.330  39.981   6.165
 5082POPC   C2B64712  22.311  39.925   6.572
 5082POPC   C3B64713  22.439  40.063   6.957
 5082POPC   C4B64714  22.504  39.992   7.399
 5083POPC   NC364715  21.986  41.192   5.580
 5083POPC   PO464716  22.494  41.711   5.481
 5083POPC   GL164717  22.229  41.606   5.829
 5083POPC   GL264718  21.852  41.722   5.831
 5083POPC   C1A64719  22.388  41.400   6.192
 5083POPC   D2A64720  22.175  41.430   6.564
 5083POPC   C3A64721  22.402  41.428   6.931
 5083POPC   C4A64722  22.249  41.776   7.180
 5083POPC   C1B64723  21.774  41.463   6.206
 5083POPC   C2B64724  21.702  41.244   6.612
 5083POPC   C3B64725  21.894  41.393   7.006
 5083POPC   C4B64726  21.796  41.404   7.435
 5084POPC   NC364727  29.473   6.834   5.465
 5084POPC   PO464728  30.070   6.521   5.150
 5084POPC   GL164729  29.916   6.462   5.630
 5084POPC   GL264730  29.816   6.777   5.827
 5084POPC   C1A64731  29.972   6.400   6.130
 5084POPC   D2A64732  30.168   6.659   6.500
 5084POPC   C3A64733  30.104   6.552   6.941
 5084POPC   C4A64734  29.784   6.365   7.174
 5084POPC   C1B64735  29.618   6.787   6.241
 5084POPC   C2B64736  29.651   6.627   6.660
 5084POPC   C3B64737  29.683   6.870   7.029
 5084POPC   C4B64738  29.620   7.171   7.348
 5085POPC   NC364739  41.147  32.428   5.661
 5085POPC   PO464740  40.546  32.291   5.550
 5085POPC   GL164741  40.668  32.118   5.906
 5085POPC   GL264742  41.026  32.035   5.956
 5085POPC   C1A64743  40.691  32.051   6.326
 5085POPC   D2A64744  40.618  31.814   6.611
 5085POPC   C3A64745  40.661  32.074   6.906
 5085POPC   C4A64746  40.673  32.135   7.311
 5085POPC   C1B64747  41.155  32.276   6.326
 5085POPC   C2B64748  41.023  32.410   6.744
 5085POPC   C3B64749  41.112  32.437   7.200
 5085POPC   C4B64750  41.143  32.178   7.583
 5086POPC   NC364751  36.838  40.456   5.345
 5086POPC   PO464752  36.996  41.167   5.218
 5086POPC   GL164753  36.986  40.892   5.605
 5086POPC   GL264754  37.275  40.673   5.553
 5086POPC   C1A64755  36.892  40.743   6.059
 5086POPC   D2A64756  36.787  40.579   6.517
 5086POPC   C3A64757  36.846  40.812   6.917
 5086POPC   C4A64758  36.833  40.974   7.320
 5086POPC   C1B64759  37.308  40.444   5.950
 5086POPC   C2B64760  37.282  40.417   6.433
 5086POPC   C3B64761  37.201  40.442   6.879
 5086POPC   C4B64762  37.261  40.610   7.304
 5087POPC   NC364763  41.241  16.104   5.317
 5087POPC   PO464764  40.742  15.616   5.417
 5087POPC   GL164765  40.753  15.797   5.834
 5087POPC   GL264766  41.069  15.943   5.769
 5087POPC   C1A64767  40.635  15.933   6.254
 5087POPC   D2A64768  40.554  16.132   6.640
 5087POPC   C3A64769  40.603  15.982   7.045
 5087POPC   C4A64770  40.563  16.021   7.473
 5087POPC   C1B64771  41.215  16.055   6.157
 5087POPC   C2B64772  41.065  15.983   6.568
 5087POPC   C3B64773  41.225  16.028   6.964
 5087POPC   C4B64774  41.054  16.013   7.354
 5088POPC   NC364775  37.856  29.122   5.453
 5088POPC   PO464776  37.384  29.563   5.542
 5088POPC   GL164777  37.580  29.311   5.855
 5088POPC   GL264778  37.913  29.436   5.888
 5088POPC   C1A64779  37.734  29.100   6.243
 5088POPC   D2A64780  37.840  29.284   6.629
 5088POPC   C3A64781  37.789  29.050   6.989
 5088POPC   C4A64782  37.657  29.118   7.417
 5088POPC   C1B64783  38.135  29.521   6.268
 5088POPC   C2B64784  38.081  29.731   6.680
 5088POPC   C3B64785  38.037  29.536   7.079
 5088POPC   C4B64786  38.143  29.439   7.488
 5089POPC   NC364787  18.931  42.011   5.411
 5089POPC   PO464788  18.878  41.349   5.501
 5089POPC   GL164789  19.090  41.665   5.790
 5089POPC   GL264790  18.729  41.740   5.806
 5089POPC   C1A64791  19.249  41.764   6.238
 5089POPC   D2A64792  19.038  41.665   6.648
 5089POPC   C3A64793  19.275  41.703   7.046
 5089POPC   C4A64794  19.233  41.455   7.432
 5089POPC   C1B64795  18.754  41.817   6.207
 5089POPC   C2B64796  18.552  41.885   6.560
 5089POPC   C3B64797  18.576  41.670   6.918
 5089POPC   C4B64798  18.809  41.743   7.271
 5090POPC   NC364799  30.750  41.830   5.434
 5090POPC   PO464800  30.524  41.126   5.478
 5090POPC   GL164801  30.663  41.396   5.871
 5090POPC   GL264802  30.772  41.746   5.926
 5090POPC   C1A64803  30.893  41.416   6.282
 5090POPC   D2A64804  30.752  41.270   6.664
 5090POPC   C3A64805  30.940  41.335   7.070
 5090POPC   C4A64806  30.604  41.456   7.366
 5090POPC   C1B64807  30.832  41.945   6.310
 5090POPC   C2B64808  30.934  41.748   6.689
 5090POPC   C3B64809  30.813  41.837   7.096
 5090POPC   C4B64810  30.622  41.967   7.475
 5091POPC   NC364811  40.405  15.395   5.196
 5091POPC   PO464812  40.659  14.841   5.468
 5091POPC   GL164813  40.920  14.914   5.861
 5091POPC   GL264814  40.954  15.318   5.894
 5091POPC   C1A64815  40.809  15.044   6.286
 5091POPC   D2A64816  40.947  15.142   6.694
 5091POPC   C3A64817  40.576  15.179   6.953
 5091POPC   C4A64818  40.642  15.103   7.376
 5091POPC   C1B64819  40.977  15.540   6.314
 5091POPC   C2B64820  40.741  15.616   6.720
 5091POPC   C3B64821  40.846  15.562   7.200
 5091POPC   C4B64822  40.686  15.574   7.681
 5092POPC   NC364823  27.899  37.023   5.663
 5092POPC   PO464824  27.288  36.809   5.331
 5092POPC   GL164825  27.413  36.765   5.763
 5092POPC   GL264826  27.341  37.091   5.930
 5092POPC   C1A64827  27.399  36.672   6.218
 5092POPC   D2A64828  27.300  36.940   6.568
 5092POPC   C3A64829  27.177  36.715   6.922
 5092POPC   C4A64830  27.421  36.610   7.287
 5092POPC   C1B64831  27.704  37.073   6.273
 5092POPC   C2B64832  27.713  37.248   6.681
 5092POPC   C3B64833  27.606  37.016   7.038
 5092POPC   C4B64834  27.830  36.860   7.438
 5093POPC   NC364835  14.631   9.888   5.618
 5093POPC   PO464836  15.246   9.869   5.221
 5093POPC   GL164837  15.147   9.829   5.668
 5093POPC   GL264838  14.969   9.521   5.759
 5093POPC   C1A64839  15.037   9.862   6.143
 5093POPC   D2A64840  15.193   9.972   6.555
 5093POPC   C3A64841  15.014   9.915   6.971
 5093POPC   C4A64842  15.314   9.917   7.305
 5093POPC   C1B64843  14.855   9.328   6.157
 5093POPC   C2B64844  14.870   9.492   6.579
 5093POPC   C3B64845  15.039   9.409   7.004
 5093POPC   C4B64846  14.979   9.568   7.428
 5094POPC   NC364847  11.004  30.439   5.362
 5094POPC   PO464848  10.934  31.111   5.280
 5094POPC   GL164849  10.935  30.834   5.720
 5094POPC   GL264850  11.111  30.493   5.859
 5094POPC   C1A64851  11.008  30.884   6.200
 5094POPC   D2A64852  10.947  30.782   6.649
 5094POPC   C3A64853  11.145  30.768   7.076
 5094POPC   C4A64854  11.083  31.059   7.427
 5094POPC   C1B64855  11.208  30.389   6.330
 5094POPC   C2B64856  11.260  30.179   6.752
 5094POPC   C3B64857  11.156  30.227   7.199
 5094POPC   C4B64858  11.013  30.486   7.529
 5095POPC   NC364859   3.610   0.113   5.008
 5095POPC   PO464860   3.878  44.637   5.450
 5095POPC   GL164861   3.581  44.763   5.782
 5095POPC   GL264862   3.715  44.516   5.970
 5095POPC   C1A64863   3.434  44.925   6.210
 5095POPC   D2A64864   3.353   0.176   6.609
 5095POPC   C3A64865   3.539   0.029   7.011
 5095POPC   C4A64866   3.477  44.639   7.266
 5095POPC   C1B64867   3.891  44.678   6.328
 5095POPC   C2B64868   3.791  44.677   6.747
 5095POPC   C3B64869   3.954  44.526   7.122
 5095POPC   C4B64870   3.888  44.468   7.567
 5096POPC   NC364871   1.458   2.178   5.334
 5096POPC   PO464872   0.845   2.023   5.626
 5096POPC   GL164873   1.068   1.898   5.938
 5096POPC   GL264874   1.372   1.846   5.711
 5096POPC   C1A64875   0.997   2.104   6.341
 5096POPC   D2A64876   1.114   2.362   6.653
 5096POPC   C3A64877   1.287   2.223   7.011
 5096POPC   C4A64878   1.005   2.133   7.304
 5096POPC   C1B64879   1.534   1.735   6.089
 5096POPC   C2B64880   1.239   1.672   6.400
 5096POPC   C3B64881   1.233   1.743   6.824
 5096POPC   C4B64882   1.463   1.791   7.192
 5097POPC   NC364883  28.950   1.418   5.481
 5097POPC   PO464884  29.514   1.015   5.403
 5097POPC   GL164885  29.224   1.057   5.718
 5097POPC   GL264886  29.366   1.389   5.802
 5097POPC   C1A64887  29.108   1.101   6.153
 5097POPC   D2A64888  29.336   1.228   6.527
 5097POPC   C3A64889  29.175   1.010   6.918
 5097POPC   C4A64890  28.753   0.923   7.142
 5097POPC   C1B64891  29.435   1.681   6.153
 5097POPC   C2B64892  29.514   1.734   6.609
 5097POPC   C3B64893  29.303   1.530   6.960
 5097POPC   C4B64894  29.376   1.495   7.389
 5098POPC   NC364895   9.730  28.164   5.358
 5098POPC   PO464896  10.191  28.638   5.254
 5098POPC   GL164897   9.786  28.613   5.639
 5098POPC   GL264898   9.687  28.255   5.840
 5098POPC   C1A64899   9.689  28.663   6.128
 5098POPC   D2A64900   9.544  28.623   6.566
 5098POPC   C3A64901   9.794  28.525   6.934
 5098POPC   C4A64902   9.988  28.832   7.201
 5098POPC   C1B64903   9.635  27.993   6.208
 5098POPC   C2B64904   9.678  28.127   6.631
 5098POPC   C3B64905   9.650  28.010   7.052
 5098POPC   C4B64906   9.294  27.903   7.263
 5099POPC   NC364907  10.202  42.059   5.448
 5099POPC   PO464908  10.643  42.554   5.140
 5099POPC   GL164909  10.623  42.514   5.623
 5099POPC   GL264910  10.578  42.181   5.767
 5099POPC   C1A64911  10.738  42.585   6.072
 5099POPC   D2A64912  10.597  42.619   6.523
 5099POPC   C3A64913  10.690  42.467   6.937
 5099POPC   C4A64914  10.363  42.454   7.269
 5099POPC   C1B64915  10.418  42.192   6.182
 5099POPC   C2B64916  10.564  42.079   6.584
 5099POPC   C3B64917  10.469  42.020   7.006
 5099POPC   C4B64918  10.613  42.045   7.441
 5100POPC   NC364919  39.524  31.123   5.692
 5100POPC   PO464920  39.251  30.620   5.255
 5100POPC   GL164921  39.266  30.672   5.689
 5100POPC   GL264922  39.578  30.580   5.833
 5100POPC   C1A64923  39.136  30.690   6.132
 5100POPC   D2A64924  39.036  30.813   6.568
 5100POPC   C3A64925  38.998  30.569   6.940
 5100POPC   C4A64926  39.152  30.750   7.306
 5100POPC   C1B64927  39.560  30.418   6.230
 5100POPC   C2B64928  39.369  30.347   6.630
 5100POPC   C3B64929  39.479  30.412   7.062
 5100POPC   C4B64930  39.514  30.496   7.542
 5101POPC   NC364931   2.095  22.459   5.607
 5101POPC   PO464932   1.576  21.961   5.377
 5101POPC   GL164933   1.722  22.115   5.781
 5101POPC   GL264934   1.843  21.822   5.973
 5101POPC   C1A64935   1.802  22.252   6.229
 5101POPC   D2A64936   1.711  21.987   6.614
 5101POPC   C3A64937   1.807  22.155   7.038
 5101POPC   C4A64938   2.237  22.345   7.124
 5101POPC   C1B64939   2.138  21.884   6.260
 5101POPC   C2B64940   2.225  22.123   6.599
 5101POPC   C3B64941   2.196  21.835   6.919
 5101POPC   C4B64942   2.143  21.873   7.332
 5102POPC   NC364943  41.083  21.344   5.277
 5102POPC   PO464944  40.573  21.675   5.606
 5102POPC   GL164945  40.795  21.463   5.906
 5102POPC   GL264946  41.038  21.221   5.809
 5102POPC   C1A64947  40.671  21.156   6.233
 5102POPC   D2A64948  40.445  21.155   6.620
 5102POPC   C3A64949  40.683  21.263   6.948
 5102POPC   C4A64950  40.559  21.607   7.160
 5102POPC   C1B64951  41.149  21.374   6.267
 5102POPC   C2B64952  41.070  21.570   6.704
 5102POPC   C3B64953  41.154  21.341   7.115
 5102POPC   C4B64954  40.991  20.964   7.330
 5103POPC   NC364955  15.440  10.316   5.214
 5103POPC   PO464956  14.881  10.285   5.594
 5103POPC   GL164957  15.138  10.487   5.879
 5103POPC   GL264958  14.904  10.725   5.929
 5103POPC   C1A64959  15.120  10.512   6.354
 5103POPC   D2A64960  14.966  10.381   6.768
 5103POPC   C3A64961  15.333  10.367   7.034
 5103POPC   C4A64962  15.547  10.716   7.247
 5103POPC   C1B64963  14.889  11.034   6.255
 5103POPC   C2B64964  15.036  10.951   6.674
 5103POPC   C3B64965  15.028  10.768   7.092
 5103POPC   C4B64966  14.977  10.681   7.532
 5104POPC   NC364967  16.201  23.141   5.403
 5104POPC   PO464968  15.744  22.654   5.552
 5104POPC   GL164969  15.868  22.773   5.969
 5104POPC   GL264970  15.987  23.115   5.886
 5104POPC   C1A64971  15.909  22.878   6.403
 5104POPC   D2A64972  15.779  23.169   6.715
 5104POPC   C3A64973  15.775  22.954   7.123
 5104POPC   C4A64974  15.877  22.518   7.210
 5104POPC   C1B64975  16.282  23.163   6.152
 5104POPC   C2B64976  16.394  23.027   6.535
 5104POPC   C3B64977  16.245  23.111   6.935
 5104POPC   C4B64978  15.995  23.444   7.097
 5105POPC   NC364979  36.675  41.837   5.261
 5105POPC   PO464980  36.080  41.533   5.433
 5105POPC   GL164981  35.919  41.635   5.845
 5105POPC   GL264982  35.701  41.356   5.776
 5105POPC   C1A64983  36.022  41.706   6.301
 5105POPC   D2A64984  36.300  41.699   6.692
 5105POPC   C3A64985  36.159  41.728   7.148
 5105POPC   C4A64986  36.252  41.605   7.584
 5105POPC   C1B64987  35.914  41.205   6.141
 5105POPC   C2B64988  35.812  41.287   6.565
 5105POPC   C3B64989  36.072  41.271   6.922
 5105POPC   C4B64990  35.921  41.286   7.329
 5106POPC   NC364991  12.838  25.778   5.418
 5106POPC   PO464992  12.998  26.364   5.764
 5106POPC   GL164993  12.637  26.256   5.976
 5106POPC   GL264994  12.644  25.897   5.871
 5106POPC   C1A64995  12.558  26.234   6.434
 5106POPC   D2A64996  12.900  26.115   6.752
 5106POPC   C3A64997  12.766  26.088   7.182
 5106POPC   C4A64998  12.998  26.101   7.570
 5106POPC   C1B64999  12.835  25.844   6.251
 5106POPC   C2B65000  12.928  25.604   6.582
 5106POPC   C3B65001  12.982  25.641   7.002
 5106POPC   C4B65002  12.817  25.606   7.384
 5107POPC   NC365003  27.052  38.168   5.498
 5107POPC   PO465004  26.693  38.688   5.435
 5107POPC   GL165005  26.766  38.456   5.847
 5107POPC   GL265006  26.774  38.077   5.927
 5107POPC   C1A65007  26.773  38.486   6.297
 5107POPC   D2A65008  26.831  38.357   6.703
 5107POPC   C3A65009  26.656  38.536   7.071
 5107POPC   C4A65010  26.784  38.367   7.463
 5107POPC   C1B65011  27.187  38.222   6.153
 5107POPC   C2B65012  27.317  38.423   6.578
 5107POPC   C3B65013  27.202  38.431   7.047
 5107POPC   C4B65014  27.301  38.412   7.486
 5108POPC   NC365015  42.466  42.394   5.150
 5108POPC   PO465016  42.005  42.147   5.543
 5108POPC   GL165017  42.140  42.300   5.921
 5108POPC   GL265018  42.510  42.252   5.870
 5108POPC   C1A65019  42.088  42.209   6.381
 5108POPC   D2A65020  42.253  42.055   6.781
 5108POPC   C3A65021  42.277  42.310   7.150
 5108POPC   C4A65022  42.088  42.506   7.534
 5108POPC   C1B65023  42.454  42.527   6.246
 5108POPC   C2B65024  42.295  42.618   6.672
 5108POPC   C3B65025  42.587  42.700   7.005
 5108POPC   C4B65026  42.630  42.559   7.430
 5109POPC   NC365027  17.243  36.942   5.351
 5109POPC   PO465028  16.616  37.011   5.362
 5109POPC   GL165029  16.618  36.995   5.775
 5109POPC   GL265030  16.965  37.070   5.778
 5109POPC   C1A65031  16.558  37.148   6.187
 5109POPC   D2A65032  16.469  36.995   6.582
 5109POPC   C3A65033  16.613  37.259   6.930
 5109POPC   C4A65034  16.743  37.172   7.342
 5109POPC   C1B65035  17.021  36.909   6.183
 5109POPC   C2B65036  16.989  37.074   6.583
 5109POPC   C3B65037  17.042  36.947   6.980
 5109POPC   C4B65038  17.302  36.842   7.313
 5110POPC   NC365039  12.651  21.366   5.148
 5110POPC   PO465040  12.022  21.722   5.444
 5110POPC   GL165041  12.065  21.464   5.856
 5110POPC   GL265042  12.320  21.555   6.069
 5110POPC   C1A65043  11.979  21.249   6.293
 5110POPC   D2A65044  11.911  21.272   6.773
 5110POPC   C3A65045  11.778  21.193   7.200
 5110POPC   C4A65046  11.672  21.525   7.510
 5110POPC   C1B65047  12.063  21.770   6.356
 5110POPC   C2B65048  12.045  21.804   6.799
 5110POPC   C3B65049  12.099  21.610   7.180
 5110POPC   C4B65050  12.434  21.620   7.449
 5111POPC   NC365051   0.485  26.784   5.122
 5111POPC   PO465052  44.983  26.466   5.556
 5111POPC   GL165053   0.259  26.734   5.878
 5111POPC   GL265054   0.621  26.646   5.948
 5111POPC   C1A65055   0.296  26.900   6.298
 5111POPC   D2A65056   0.076  26.748   6.649
 5111POPC   C3A65057   0.258  26.796   7.050
 5111POPC   C4A65058   0.172  26.905   7.472
 5111POPC   C1B65059   0.444  26.407   6.279
 5111POPC   C2B65060   0.539  26.568   6.668
 5111POPC   C3B65061   0.687  26.507   7.057
 5111POPC   C4B65062   0.567  26.606   7.474
 5112POPC   NC365063  13.025  40.053   5.032
 5112POPC   PO465064  12.830  40.366   5.621
 5112POPC   GL165065  12.989  40.065   5.898
 5112POPC   GL265066  12.662  39.969   6.002
 5112POPC   C1A65067  13.104  40.006   6.344
 5112POPC   D2A65068  12.982  40.150   6.774
 5112POPC   C3A65069  13.112  39.907   7.190
 5112POPC   C4A65070  13.050  39.897   7.669
 5112POPC   C1B65071  12.501  39.889   6.375
 5112POPC   C2B65072  12.434  40.159   6.714
 5112POPC   C3B65073  12.604  40.054   7.102
 5112POPC   C4B65074  12.826  40.284   7.410
 5113POPC   NC365075  29.577   6.117   5.419
 5113POPC   PO465076  30.207   5.918   5.621
 5113POPC   GL165077  29.928   5.715   5.867
 5113POPC   GL265078  30.181   5.444   5.884
 5113POPC   C1A65079  29.778   5.908   6.251
 5113POPC   D2A65080  29.894   6.169   6.610
 5113POPC   C3A65081  29.864   5.907   6.961
 5113POPC   C4A65082  29.607   5.878   7.317
 5113POPC   C1B65083  30.285   5.689   6.263
 5113POPC   C2B65084  30.222   5.575   6.682
 5113POPC   C3B65085  30.337   5.725   7.071
 5113POPC   C4B65086  30.097   5.755   7.446
 5114POPC   NC365087   0.578  21.952   5.099
 5114POPC   PO465088   0.483  22.488   5.511
 5114POPC   GL165089   0.424  22.090   5.752
 5114POPC   GL265090   0.048  22.014   5.764
 5114POPC   C1A65091   0.589  21.921   6.172
 5114POPC   D2A65092   0.682  21.722   6.550
 5114POPC   C3A65093   0.665  22.034   6.838
 5114POPC   C4A65094   0.628  21.972   7.252
 5114POPC   C1B65095   0.155  22.184   6.180
 5114POPC   C2B65096   0.219  21.970   6.574
 5114POPC   C3B65097   0.135  22.096   7.021
 5114POPC   C4B65098   0.283  22.320   7.388
 5115POPC   NC365099  10.378  24.685   5.624
 5115POPC   PO465100  10.923  24.921   5.340
 5115POPC   GL165101  10.878  24.606   5.734
 5115POPC   GL265102  10.678  24.264   5.750
 5115POPC   C1A65103  10.916  24.406   6.164
 5115POPC   D2A65104  10.920  24.520   6.588
 5115POPC   C3A65105  10.550  24.506   6.832
 5115POPC   C4A65106  10.468  24.498   7.223
 5115POPC   C1B65107  10.377  24.238   6.156
 5115POPC   C2B65108  10.184  24.260   6.584
 5115POPC   C3B65109  10.073  24.233   7.001
 5115POPC   C4B65110  10.152  24.169   7.417
 5116POPC   NC365111  25.185  32.333   5.583
 5116POPC   PO465112  25.657  32.074   5.219
 5116POPC   GL165113  25.463  31.935   5.722
 5116POPC   GL265114  25.081  31.940   5.869
 5116POPC   C1A65115  25.438  31.941   6.235
 5116POPC   D2A65116  25.471  31.850   6.738
 5116POPC   C3A65117  25.430  32.195   7.117
 5116POPC   C4A65118  25.647  32.177   7.567
 5116POPC   C1B65119  25.087  32.311   6.213
 5116POPC   C2B65120  25.152  32.576   6.585
 5116POPC   C3B65121  25.014  32.576   7.012
 5116POPC   C4B65122  24.879  32.234   7.257
 5117POPC   NC365123   9.668  22.830   5.283
 5117POPC   PO465124  10.060  23.361   5.444
 5117POPC   GL165125   9.895  23.022   5.715
 5117POPC   GL265126   9.537  23.137   5.793
 5117POPC   C1A65127   9.816  22.932   6.173
 5117POPC   D2A65128   9.960  22.910   6.597
 5117POPC   C3A65129   9.907  23.215   6.928
 5117POPC   C4A65130   9.926  22.898   7.208
 5117POPC   C1B65131   9.422  23.299   6.222
 5117POPC   C2B65132   9.462  23.131   6.668
 5117POPC   C3B65133   9.436  23.002   7.126
 5117POPC   C4B65134   9.263  22.794   7.491
 5118POPC   NC365135  11.154  20.040   5.328
 5118POPC   PO465136  11.368  19.485   5.223
 5118POPC   GL165137  11.203  19.611   5.632
 5118POPC   GL265138  11.510  19.736   5.760
 5118POPC   C1A65139  11.122  19.742   6.094
 5118POPC   D2A65140  10.941  19.778   6.521
 5118POPC   C3A65141  11.110  19.921   6.914
 5118POPC   C4A65142  10.930  19.846   7.315
 5118POPC   C1B65143  11.690  19.637   6.198
 5118POPC   C2B65144  11.619  19.517   6.642
 5118POPC   C3B65145  11.581  19.736   7.016
 5118POPC   C4B65146  11.591  19.977   7.365
 5119POPC   NC365147   6.859   1.129   5.404
 5119POPC   PO465148   6.267   0.787   5.417
 5119POPC   GL165149   6.410   1.070   5.770
 5119POPC   GL265150   6.661   1.371   5.817
 5119POPC   C1A65151   6.344   1.229   6.189
 5119POPC   D2A65152   6.626   1.294   6.521
 5119POPC   C3A65153   6.482   1.117   6.908
 5119POPC   C4A65154   6.286   1.266   7.292
 5119POPC   C1B65155   6.985   1.178   6.102
 5119POPC   C2B65156   7.131   1.175   6.535
 5119POPC   C3B65157   6.986   1.434   6.870
 5119POPC   C4B65158   6.789   1.314   7.247
 5120POPC   NC365159  10.989   4.317   5.333
 5120POPC   PO465160  10.486   4.045   5.245
 5120POPC   GL165161  10.605   4.204   5.688
 5120POPC   GL265162  10.313   4.271   5.931
 5120POPC   C1A65163  10.774   4.398   6.097
 5120POPC   D2A65164  10.635   4.299   6.559
 5120POPC   C3A65165  10.782   4.399   6.944
 5120POPC   C4A65166  10.598   4.275   7.333
 5120POPC   C1B65167  10.516   3.943   6.246
 5120POPC   C2B65168  10.387   3.770   6.657
 5120POPC   C3B65169  10.214   3.772   7.084
 5120POPC   C4B65170  10.393   3.847   7.495
 5121POPC   NC365171  14.570  23.326   5.545
 5121POPC   PO465172  14.339  23.931   5.438
 5121POPC   GL165173  14.259  23.691   5.797
 5121POPC   GL265174  14.211  23.343   5.918
 5121POPC   C1A65175  14.508  23.657   6.184
 5121POPC   D2A65176  14.346  23.652   6.584
 5121POPC   C3A65177  14.612  23.708   6.895
 5121POPC   C4A65178  14.641  23.943   7.215
 5121POPC   C1B65179  13.976  23.598   6.235
 5121POPC   C2B65180  13.829  23.576   6.653
 5121POPC   C3B65181  14.108  23.563   7.034
 5121POPC   C4B65182  14.147  23.818   7.411
 5122POPC   NC365183  15.815  13.476   5.340
 5122POPC   PO465184  16.052  13.978   5.526
 5122POPC   GL165185  15.892  13.641   5.828
 5122POPC   GL265186  15.614  13.761   6.022
 5122POPC   C1A65187  16.009  13.374   6.212
 5122POPC   D2A65188  16.236  13.436   6.640
 5122POPC   C3A65189  16.140  13.362   7.133
 5122POPC   C4A65190  15.757  13.371   7.484
 5122POPC   C1B65191  15.961  13.873   6.317
 5122POPC   C2B65192  16.000  13.896   6.772
 5122POPC   C3B65193  15.827  13.782   7.171
 5122POPC   C4B65194  15.462  13.810   7.437
 5123POPC   NC365195  19.754  41.502   5.386
 5123POPC   PO465196  20.094  42.088   5.252
 5123POPC   GL165197  20.054  41.815   5.677
 5123POPC   GL265198  19.663  41.761   5.837
 5123POPC   C1A65199  20.040  41.556   6.088
 5123POPC   D2A65200  19.766  41.660   6.483
 5123POPC   C3A65201  19.921  41.621   6.921
 5123POPC   C4A65202  20.057  41.508   7.330
 5123POPC   C1B65203  19.536  41.357   6.133
 5123POPC   C2B65204  19.419  41.276   6.629
 5123POPC   C3B65205  19.585  41.259   7.112
 5123POPC   C4B65206  19.700  41.289   7.603
 5124POPC   NC365207  18.791   0.767   5.429
 5124POPC   PO465208  19.276   1.256   5.441
 5124POPC   GL165209  19.181   0.950   5.780
 5124POPC   GL265210  18.858   1.088   5.835
 5124POPC   C1A65211  19.140   0.995   6.260
 5124POPC   D2A65212  19.319   1.364   6.487
 5124POPC   C3A65213  19.187   1.474   6.892
 5124POPC   C4A65214  19.114   1.279   7.269
 5124POPC   C1B65215  18.647   1.139   6.226
 5124POPC   C2B65216  18.814   1.244   6.603
 5124POPC   C3B65217  18.678   1.159   6.984
 5124POPC   C4B65218  18.674   0.975   7.363
 5125POPC   NC365219  27.598  36.468   5.237
 5125POPC   PO465220  27.503  35.841   5.459
 5125POPC   GL165221  27.608  35.955   5.863
 5125POPC   GL265222  27.710  36.331   5.857
 5125POPC   C1A65223  27.373  35.771   6.234
 5125POPC   D2A65224  27.527  35.831   6.636
 5125POPC   C3A65225  27.336  35.840   7.007
 5125POPC   C4A65226  27.559  36.151   7.150
 5125POPC   C1B65227  27.594  36.221   6.292
 5125POPC   C2B65228  27.552  36.419   6.688
 5125POPC   C3B65229  27.851  36.556   6.992
 5125POPC   C4B65230  28.038  36.406   7.371
 5126POPC   NC365231  35.646  10.682   5.353
 5126POPC   PO465232  35.152  10.239   5.242
 5126POPC   GL165233  35.340  10.486   5.701
 5126POPC   GL265234  35.313  10.846   5.717
 5126POPC   C1A65235  35.418  10.436   6.201
 5126POPC   D2A65236  35.289  10.455   6.686
 5126POPC   C3A65237  35.358  10.306   7.143
 5126POPC   C4A65238  35.246  10.417   7.626
 5126POPC   C1B65239  35.279  10.933   6.146
 5126POPC   C2B65240  35.491  10.915   6.531
 5126POPC   C3B65241  35.492  10.981   6.940
 5126POPC   C4B65242  35.552  10.751   7.300
 5127POPC   NC365243  22.608  37.342   5.576
 5127POPC   PO465244  22.849  36.820   5.261
 5127POPC   GL165245  22.842  36.862   5.718
 5127POPC   GL265246  22.503  36.895   5.815
 5127POPC   C1A65247  23.099  37.028   6.086
 5127POPC   D2A65248  23.001  36.982   6.526
 5127POPC   C3A65249  22.874  36.986   6.943
 5127POPC   C4A65250  23.141  36.887   7.282
 5127POPC   C1B65251  22.612  36.900   6.214
 5127POPC   C2B65252  22.534  36.754   6.609
 5127POPC   C3B65253  22.559  36.520   6.932
 5127POPC   C4B65254  22.731  36.585   7.317
 5128POPC   NC365255  31.008  32.916   5.463
 5128POPC   PO465256  31.708  33.132   5.248
 5128POPC   GL165257  31.593  32.884   5.653
 5128POPC   GL265258  31.279  32.854   5.889
 5128POPC   C1A65259  31.756  32.895   6.095
 5128POPC   D2A65260  31.799  33.051   6.535
 5128POPC   C3A65261  31.743  32.861   6.950
 5128POPC   C4A65262  31.599  33.078   7.315
 5128POPC   C1B65263  31.324  33.111   6.265
 5128POPC   C2B65264  31.306  33.029   6.720
 5128POPC   C3B65265  31.118  32.993   7.134
 5128POPC   C4B65266  30.812  32.813   7.456
 5129POPC   NC365267   2.653  34.091   5.376
 5129POPC   PO465268   3.070  33.539   5.479
 5129POPC   GL165269   2.783  33.774   5.758
 5129POPC   GL265270   2.614  33.488   5.845
 5129POPC   C1A65271   2.547  33.893   6.177
 5129POPC   D2A65272   2.476  33.660   6.571
 5129POPC   C3A65273   2.480  33.913   6.955
 5129POPC   C4A65274   2.718  33.940   7.354
 5129POPC   C1B65275   2.916  33.519   6.223
 5129POPC   C2B65276   3.025  33.484   6.659
 5129POPC   C3B65277   2.776  33.516   7.009
 5129POPC   C4B65278   2.707  33.272   7.310
 5130POPC   NC365279  15.635  43.249   5.572
 5130POPC   PO465280  14.975  43.151   5.499
 5130POPC   GL165281  15.228  43.012   5.871
 5130POPC   GL265282  15.528  42.789   5.842
 5130POPC   C1A65283  15.157  43.202   6.263
 5130POPC   D2A65284  15.165  43.404   6.651
 5130POPC   C3A65285  15.077  43.113   6.991
 5130POPC   C4A65286  14.904  43.237   7.410
 5130POPC   C1B65287  15.511  42.839   6.283
 5130POPC   C2B65288  15.532  42.873   6.701
 5130POPC   C3B65289  15.566  42.924   7.102
 5130POPC   C4B65290  15.399  43.176   7.382
 5131POPC   NC365291  11.445   2.079   5.470
 5131POPC   PO465292  10.851   2.358   5.531
 5131POPC   GL165293  10.910   2.065   5.891
 5131POPC   GL265294  11.190   1.875   5.875
 5131POPC   C1A65295  11.045   2.035   6.340
 5131POPC   D2A65296  11.380   2.211   6.628
 5131POPC   C3A65297  11.159   2.228   7.028
 5131POPC   C4A65298  10.886   2.220   7.389
 5131POPC   C1B65299  11.506   2.030   6.132
 5131POPC   C2B65300  11.609   1.740   6.436
 5131POPC   C3B65301  11.714   1.850   6.833
 5131POPC   C4B65302  11.504   1.893   7.193
 5132POPC   NC365303   0.736  16.102   5.511
 5132POPC   PO465304   0.281  15.706   5.185
 5132POPC   GL165305   0.202  15.738   5.693
 5132POPC   GL265306   0.419  15.929   5.999
 5132POPC   C1A65307   0.151  15.525   6.129
 5132POPC   D2A65308   0.326  15.774   6.497
 5132POPC   C3A65309   0.288  15.665   6.928
 5132POPC   C4A65310   0.656  15.616   7.200
 5132POPC   C1B65311   0.230  16.248   6.321
 5132POPC   C2B65312   0.223  16.200   6.784
 5132POPC   C3B65313   0.431  16.100   7.150
 5132POPC   C4B65314   0.398  16.212   7.573
 5133POPC   NC365315  43.467  13.952   5.155
 5133POPC   PO465316  43.130  14.464   5.522
 5133POPC   GL165317  43.160  14.347   5.946
 5133POPC   GL265318  43.501  14.275   5.965
 5133POPC   C1A65319  42.975  14.012   6.194
 5133POPC   D2A65320  42.871  14.308   6.446
 5133POPC   C3A65321  42.954  14.357   6.843
 5133POPC   C4A65322  42.604  14.469   7.119
 5133POPC   C1B65323  43.427  14.362   6.412
 5133POPC   C2B65324  43.486  14.431   6.871
 5133POPC   C3B65325  43.483  14.350   7.339
 5133POPC   C4B65326  43.533  14.650   7.710
 5134POPC   NC365327   0.090   3.981   5.538
 5134POPC   PO465328   0.388   4.593   5.340
 5134POPC   GL165329   0.431   4.363   5.739
 5134POPC   GL265330   0.517   4.667   5.884
 5134POPC   C1A65331   0.555   4.216   6.177
 5134POPC   D2A65332   0.376   4.233   6.622
 5134POPC   C3A65333   0.636   4.097   6.991
 5134POPC   C4A65334   0.567   4.094   7.445
 5134POPC   C1B65335   0.415   4.731   6.305
 5134POPC   C2B65336   0.257   4.807   6.694
 5134POPC   C3B65337   0.418   4.585   7.047
 5134POPC   C4B65338   0.607   4.598   7.456
 5135POPC   NC365339  41.590  40.813   5.069
 5135POPC   PO465340  42.001  41.178   5.503
 5135POPC   GL165341  41.950  40.923   5.881
 5135POPC   GL265342  41.722  40.578   5.828
 5135POPC   C1A65343  41.719  40.852   6.260
 5135POPC   D2A65344  41.457  41.118   6.495
 5135POPC   C3A65345  41.496  41.014   6.906
 5135POPC   C4A65346  41.317  40.966   7.297
 5135POPC   C1B65347  41.554  40.365   6.184
 5135POPC   C2B65348  41.433  40.486   6.619
 5135POPC   C3B65349  41.470  40.499   7.076
 5135POPC   C4B65350  41.667  40.244   7.390
 5136POPC   NC365351  38.892  34.773   5.409
 5136POPC   PO465352  39.533  34.653   5.504
 5136POPC   GL165353  39.293  34.813   5.878
 5136POPC   GL265354  38.921  34.919   5.884
 5136POPC   C1A65355  39.388  34.698   6.317
 5136POPC   D2A65356  39.573  34.458   6.686
 5136POPC   C3A65357  39.332  34.527   7.070
 5136POPC   C4A65358  39.068  34.362   7.366
 5136POPC   C1B65359  38.884  34.773   6.289
 5136POPC   C2B65360  39.032  34.751   6.715
 5136POPC   C3B65361  38.880  34.805   7.157
 5136POPC   C4B65362  38.816  35.075   7.538
 5137POPC   NC365363  17.022  10.483   5.009
 5137POPC   PO465364  16.684  10.717   5.549
 5137POPC   GL165365  16.541  10.732   5.919
 5137POPC   GL265366  16.445  10.405   5.995
 5137POPC   C1A65367  16.850  10.618   6.252
 5137POPC   D2A65368  17.203  10.775   6.494
 5137POPC   C3A65369  17.031  10.694   6.886
 5137POPC   C4A65370  16.744  10.766   7.245
 5137POPC   C1B65371  16.344  10.654   6.374
 5137POPC   C2B65372  16.512  10.638   6.767
 5137POPC   C3B65373  16.643  10.319   7.028
 5137POPC   C4B65374  16.568  10.289   7.469
 5138POPC   NC365375  10.004  15.286   5.513
 5138POPC   PO465376   9.702  14.638   5.465
 5138POPC   GL165377   9.641  14.870   5.881
 5138POPC   GL265378   9.563  15.202   5.839
 5138POPC   C1A65379   9.712  15.095   6.309
 5138POPC   D2A65380   9.885  15.317   6.669
 5138POPC   C3A65381   9.850  15.052   7.040
 5138POPC   C4A65382   9.753  14.953   7.465
 5138POPC   C1B65383   9.281  15.343   6.164
 5138POPC   C2B65384   9.302  15.577   6.542
 5138POPC   C3B65385   9.562  15.632   6.895
 5138POPC   C4B65386   9.695  15.453   7.298
 5139POPC   NC365387  27.481  11.771   5.252
 5139POPC   PO465388  27.399  12.410   5.159
 5139POPC   GL165389  27.477  12.304   5.638
 5139POPC   GL265390  27.522  11.954   5.760
 5139POPC   C1A65391  27.663  12.295   6.095
 5139POPC   D2A65392  27.399  12.135   6.438
 5139POPC   C3A65393  27.345  11.944   6.843
 5139POPC   C4A65394  27.622  12.076   7.160
 5139POPC   C1B65395  27.741  11.769   6.135
 5139POPC   C2B65396  27.815  11.847   6.589
 5139POPC   C3B65397  27.799  11.635   6.959
 5139POPC   C4B65398  27.886  11.672   7.386
 5140POPC   NC365399   5.337  36.932   5.496
 5140POPC   PO465400   4.691  36.689   5.509
 5140POPC   GL165401   5.003  36.796   5.873
 5140POPC   GL265402   5.387  36.876   5.977
 5140POPC   C1A65403   4.982  36.948   6.290
 5140POPC   D2A65404   4.776  37.004   6.660
 5140POPC   C3A65405   4.980  37.032   7.045
 5140POPC   C4A65406   5.119  37.366   7.277
 5140POPC   C1B65407   5.406  36.636   6.318
 5140POPC   C2B65408   5.150  36.629   6.683
 5140POPC   C3B65409   5.245  36.595   7.104
 5140POPC   C4B65410   5.402  36.935   7.363
 5141POPC   NC365411  36.110  21.476   5.336
 5141POPC   PO465412  36.527  20.864   5.398
 5141POPC   GL165413  36.391  21.237   5.698
 5141POPC   GL265414  36.012  21.281   5.791
 5141POPC   C1A65415  36.337  21.527   6.071
 5141POPC   D2A65416  36.348  21.445   6.534
 5141POPC   C3A65417  36.119  21.323   6.898
 5141POPC   C4A65418  36.160  21.460   7.310
 5141POPC   C1B65419  35.911  21.325   6.251
 5141POPC   C2B65420  35.673  21.224   6.640
 5141POPC   C3B65421  35.637  21.266   7.099
 5141POPC   C4B65422  35.867  21.042   7.408
 5142POPC   NC365423  19.820  23.421   5.414
 5142POPC   PO465424  19.695  22.760   5.362
 5142POPC   GL165425  19.858  22.794   5.792
 5142POPC   GL265426  19.981  23.162   5.839
 5142POPC   C1A65427  19.704  22.905   6.221
 5142POPC   D2A65428  19.845  22.972   6.637
 5142POPC   C3A65429  19.693  22.760   6.995
 5142POPC   C4A65430  19.950  22.680   7.304
 5142POPC   C1B65431  19.990  23.324   6.263
 5142POPC   C2B65432  20.272  23.293   6.602
 5142POPC   C3B65433  20.176  23.097   7.006
 5142POPC   C4B65434  20.000  23.168   7.372
 5143POPC   NC365435  39.912   3.186   5.556
 5143POPC   PO465436  40.383   2.829   5.363
 5143POPC   GL165437  40.132   2.740   5.759
 5143POPC   GL265438  39.770   2.780   5.802
 5143POPC   C1A65439  40.080   2.549   6.177
 5143POPC   D2A65440  40.172   2.736   6.575
 5143POPC   C3A65441  40.085   2.637   7.031
 5143POPC   C4A65442  40.015   3.032   7.271
 5143POPC   C1B65443  39.579   3.001   6.138
 5143POPC   C2B65444  39.705   2.889   6.537
 5143POPC   C3B65445  39.621   2.787   6.940
 5143POPC   C4B65446  39.523   2.959   7.328
 5144POPC   NC365447   2.274   7.519   5.441
 5144POPC   PO465448   1.713   7.145   5.556
 5144POPC   GL165449   1.982   7.431   5.871
 5144POPC   GL265450   2.029   7.779   5.822
 5144POPC   C1A65451   1.818   7.566   6.255
 5144POPC   D2A65452   1.569   7.516   6.607
 5144POPC   C3A65453   1.835   7.417   6.955
 5144POPC   C4A65454   2.239   7.208   7.099
 5144POPC   C1B65455   2.179   7.908   6.209
 5144POPC   C2B65456   2.168   7.706   6.618
 5144POPC   C3B65457   2.256   7.871   7.004
 5144POPC   C4B65458   2.346   7.835   7.414
 5145POPC   NC365459  35.855  17.517   5.383
 5145POPC   PO465460  36.513  17.768   5.396
 5145POPC   GL165461  36.413  17.513   5.782
 5145POPC   GL265462  36.085  17.329   5.820
 5145POPC   C1A65463  36.449  17.375   6.222
 5145POPC   D2A65464  36.355  17.106   6.587
 5145POPC   C3A65465  36.332  17.364   6.966
 5145POPC   C4A65466  36.140  17.758   6.989
 5145POPC   C1B65467  35.938  17.222   6.272
 5145POPC   C2B65468  35.880  17.246   6.743
 5145POPC   C3B65469  35.810  17.413   7.172
 5145POPC   C4B65470  35.798  17.689   7.515
 5146POPC   NC365471  26.024  44.920   5.442
 5146POPC   PO465472  26.330  44.396   5.698
 5146POPC   GL165473  26.163  44.471   6.029
 5146POPC   GL265474  25.873  44.339   5.951
 5146POPC   C1A65475  26.107  44.513   6.442
 5146POPC   D2A65476  25.868  44.821   6.643
 5146POPC   C3A65477  25.961  44.730   7.023
 5146POPC   C4A65478  25.829  44.845   7.390
 5146POPC   C1B65479  25.708  44.200   6.322
 5146POPC   C2B65480  25.799  44.231   6.775
 5146POPC   C3B65481  25.813  44.285   7.228
 5146POPC   C4B65482  26.168  44.451   7.437
 5147POPC   NC365483   0.845  25.602   5.300
 5147POPC   PO465484   1.349  25.093   5.433
 5147POPC   GL165485   1.316  25.290   5.783
 5147POPC   GL265486   0.980  25.436   5.863
 5147POPC   C1A65487   1.307  25.097   6.165
 5147POPC   D2A65488   1.172  25.000   6.561
 5147POPC   C3A65489   1.534  24.997   6.837
 5147POPC   C4A65490   1.411  24.976   7.250
 5147POPC   C1B65491   1.298  25.614   6.178
 5147POPC   C2B65492   1.451  25.447   6.570
 5147POPC   C3B65493   1.232  25.389   6.971
 5147POPC   C4B65494   1.519  25.527   7.277
 5148POPC   NC365495   9.194  37.662   5.410
 5148POPC   PO465496   8.555  37.857   5.327
 5148POPC   GL165497   8.840  37.849   5.732
 5148POPC   GL265498   9.203  37.990   5.800
 5148POPC   C1A65499   8.927  37.624   6.131
 5148POPC   D2A65500   8.969  37.404   6.547
 5148POPC   C3A65501   8.759  37.653   6.906
 5148POPC   C4A65502   8.949  37.818   7.285
 5148POPC   C1B65503   9.432  37.731   6.116
 5148POPC   C2B65504   9.445  37.661   6.556
 5148POPC   C3B65505   9.276  37.541   6.937
 5148POPC   C4B65506   9.390  37.497   7.308
 5149POPC   NC365507  34.327  27.992   5.625
 5149POPC   PO465508  34.675  28.574   5.521
 5149POPC   GL165509  34.540  28.417   5.891
 5149POPC   GL265510  34.854  28.232   5.918
 5149POPC   C1A65511  34.327  28.620   6.254
 5149POPC   D2A65512  34.426  28.811   6.664
 5149POPC   C3A65513  34.575  28.481   6.969
 5149POPC   C4A65514  34.524  28.441   7.445
 5149POPC   C1B65515  34.679  28.231   6.359
 5149POPC   C2B65516  34.894  28.122   6.759
 5149POPC   C3B65517  34.868  28.135   7.217
 5149POPC   C4B65518  35.155  28.216   7.537
 5150POPC   NC365519   0.934  31.486   5.377
 5150POPC   PO465520   1.446  31.229   5.315
 5150POPC   GL165521   1.300  31.452   5.742
 5150POPC   GL265522   1.004  31.710   5.818
 5150POPC   C1A65523   1.261  31.461   6.209
 5150POPC   D2A65524   1.160  31.175   6.558
 5150POPC   C3A65525   1.157  31.320   7.007
 5150POPC   C4A65526   1.361  31.100   7.361
 5150POPC   C1B65527   0.863  31.826   6.227
 5150POPC   C2B65528   1.046  31.764   6.616
 5150POPC   C3B65529   0.840  31.725   7.006
 5150POPC   C4B65530   0.810  31.647   7.442
 5151POPC   NC365531  12.117   0.671   5.453
 5151POPC   PO465532  11.916   0.081   5.491
 5151POPC   GL165533  12.183   0.294   5.798
 5151POPC   GL265534  11.919   0.527   5.884
 5151POPC   C1A65535  12.353   0.371   6.228
 5151POPC   D2A65536  12.403   0.105   6.630
 5151POPC   C3A65537  12.303   0.338   7.012
 5151POPC   C4A65538  12.119   0.701   7.197
 5151POPC   C1B65539  11.854   0.235   6.209
 5151POPC   C2B65540  11.968   0.403   6.610
 5151POPC   C3B65541  11.710   0.621   6.919
 5151POPC   C4B65542  11.775   0.308   7.180
 5152POPC   NC365543  11.545  32.968   5.363
 5152POPC   PO465544  10.862  32.935   5.308
 5152POPC   GL165545  11.032  32.773   5.712
 5152POPC   GL265546  11.379  32.830   5.815
 5152POPC   C1A65547  11.064  32.787   6.202
 5152POPC   D2A65548  11.152  32.581   6.595
 5152POPC   C3A65549  11.168  32.890   6.940
 5152POPC   C4A65550  11.025  33.097   7.329
 5152POPC   C1B65551  11.551  33.001   6.188
 5152POPC   C2B65552  11.590  32.866   6.601
 5152POPC   C3B65553  11.652  33.108   6.963
 5152POPC   C4B65554  11.539  32.938   7.353
 5153POPC   NC365555  37.454  43.869   5.128
 5153POPC   PO465556  37.971  44.155   5.245
 5153POPC   GL165557  37.839  43.862   5.630
 5153POPC   GL265558  37.666  44.053   5.932
 5153POPC   C1A65559  38.019  43.704   6.054
 5153POPC   D2A65560  38.061  43.809   6.523
 5153POPC   C3A65561  37.802  43.901   6.915
 5153POPC   C4A65562  37.945  43.573   7.149
 5153POPC   C1B65563  37.538  43.692   6.246
 5153POPC   C2B65564  37.622  43.497   6.678
 5153POPC   C3B65565  37.453  43.480   7.094
 5153POPC   C4B65566  37.566  43.699   7.480
 5154POPC   NC365567  32.884  43.057   5.416
 5154POPC   PO465568  32.846  43.723   5.546
 5154POPC   GL165569  33.052  43.368   5.823
 5154POPC   GL265570  33.152  42.970   5.826
 5154POPC   C1A65571  32.818  43.132   6.156
 5154POPC   D2A65572  33.024  42.965   6.510
 5154POPC   C3A65573  32.916  43.177   6.842
 5154POPC   C4A65574  32.590  43.185   7.127
 5154POPC   C1B65575  33.388  43.099   6.168
 5154POPC   C2B65576  33.553  42.932   6.543
 5154POPC   C3B65577  33.417  43.062   6.955
 5154POPC   C4B65578  33.149  43.010   7.286
 5155POPC   NC365579   2.112  12.131   5.416
 5155POPC   PO465580   2.832  12.039   5.315
 5155POPC   GL165581   2.698  12.042   5.754
 5155POPC   GL265582   2.423  12.255   5.811
 5155POPC   C1A65583   2.830  12.166   6.182
 5155POPC   D2A65584   2.959  12.327   6.565
 5155POPC   C3A65585   3.003  12.111   6.925
 5155POPC   C4A65586   3.009  12.369   7.271
 5155POPC   C1B65587   2.337  12.195   6.244
 5155POPC   C2B65588   2.520  12.050   6.681
 5155POPC   C3B65589   2.532  12.079   7.170
 5155POPC   C4B65590   2.354  12.048   7.637
 5156POPC   NC365591  39.390  32.690   5.533
 5156POPC   PO465592  38.857  33.121   5.278
 5156POPC   GL165593  39.084  33.104   5.703
 5156POPC   GL265594  39.435  33.246   5.656
 5156POPC   C1A65595  39.042  32.911   6.165
 5156POPC   D2A65596  38.781  32.785   6.543
 5156POPC   C3A65597  38.933  32.978   6.945
 5156POPC   C4A65598  38.976  32.919   7.392
 5156POPC   C1B65599  39.563  33.070   6.064
 5156POPC   C2B65600  39.534  33.133   6.503
 5156POPC   C3B65601  39.705  33.082   6.896
 5156POPC   C4B65602  39.455  33.013   7.230
 5157POPC   NC365603  21.131  16.289   5.589
 5157POPC   PO465604  21.480  15.721   5.390
 5157POPC   GL165605  21.361  15.825   5.791
 5157POPC   GL265606  21.047  15.610   5.737
 5157POPC   C1A65607  21.534  16.138   6.104
 5157POPC   D2A65608  21.473  16.371   6.478
 5157POPC   C3A65609  21.675  16.108   6.772
 5157POPC   C4A65610  21.661  15.868   7.160
 5157POPC   C1B65611  21.090  15.587   6.194
 5157POPC   C2B65612  21.241  15.923   6.467
 5157POPC   C3B65613  21.197  16.046   6.870
 5157POPC   C4B65614  21.114  15.745   7.143
 5158POPC   NC365615  20.513  36.667   5.353
 5158POPC   PO465616  20.947  37.222   5.398
 5158POPC   GL165617  20.825  36.965   5.772
 5158POPC   GL265618  20.808  36.571   5.761
 5158POPC   C1A65619  20.712  37.119   6.205
 5158POPC   D2A65620  20.380  37.161   6.541
 5158POPC   C3A65621  20.530  37.117   6.969
 5158POPC   C4A65622  20.338  36.915   7.318
 5158POPC   C1B65623  20.570  36.606   6.175
 5158POPC   C2B65624  20.673  36.747   6.590
 5158POPC   C3B65625  20.606  36.606   6.992
 5158POPC   C4B65626  20.946  36.618   7.262
 5159POPC   NC365627  33.175   9.969   5.379
 5159POPC   PO465628  32.827   9.518   5.580
 5159POPC   GL165629  32.946   9.880   5.816
 5159POPC   GL265630  33.320   9.946   5.888
 5159POPC   C1A65631  32.901   9.906   6.209
 5159POPC   D2A65632  32.852   9.653   6.544
 5159POPC   C3A65633  32.993   9.952   6.843
 5159POPC   C4A65634  33.045   9.922   7.249
 5159POPC   C1B65635  33.268   9.550   6.163
 5159POPC   C2B65636  33.240   9.284   6.546
 5159POPC   C3B65637  33.209   9.486   6.948
 5159POPC   C4B65638  32.939   9.434   7.288
 5160POPC   NC365639  16.683  44.474   5.607
 5160POPC   PO465640  16.887   0.035   5.305
 5160POPC   GL165641  16.596  44.963   5.742
 5160POPC   GL265642  16.789  44.689   6.030
 5160POPC   C1A65643  16.444  44.982   6.199
 5160POPC   D2A65644  16.659  44.765   6.526
 5160POPC   C3A65645  16.663  44.858   6.963
 5160POPC   C4A65646  16.509  44.501   7.198
 5160POPC   C1B65647  17.052  44.482   6.359
 5160POPC   C2B65648  16.964  44.472   6.817
 5160POPC   C3B65649  17.010  44.401   7.271
 5160POPC   C4B65650  17.189  44.325   7.698
 5161POPC   NC365651   7.032  15.561   5.487
 5161POPC   PO465652   7.551  15.107   5.715
 5161POPC   GL165653   7.242  15.341   5.926
 5161POPC   GL265654   7.022  15.134   5.828
 5161POPC   C1A65655   7.108  15.500   6.332
 5161POPC   D2A65656   7.308  15.701   6.684
 5161POPC   C3A65657   7.621  15.434   6.936
 5161POPC   C4A65658   7.558  15.171   7.354
 5161POPC   C1B65659   6.876  14.977   6.229
 5161POPC   C2B65660   6.916  15.027   6.676
 5161POPC   C3B65661   7.052  14.967   7.081
 5161POPC   C4B65662   7.042  15.295   7.352
 5162POPC   NC365663   8.454   1.033   5.434
 5162POPC   PO465664   7.815   1.179   5.424
 5162POPC   GL165665   8.100   1.070   5.787
 5162POPC   GL265666   8.326   1.335   5.860
 5162POPC   C1A65667   8.182   0.937   6.197
 5162POPC   D2A65668   8.286   1.140   6.565
 5162POPC   C3A65669   8.061   1.043   6.926
 5162POPC   C4A65670   8.215   1.293   7.237
 5162POPC   C1B65671   8.052   1.478   6.210
 5162POPC   C2B65672   8.000   1.539   6.663
 5162POPC   C3B65673   7.972   1.710   7.046
 5162POPC   C4B65674   7.919   1.637   7.497
 5163POPC   NC365675   9.263  14.643   5.610
 5163POPC   PO465676   8.693  14.432   5.337
 5163POPC   GL165677   8.683  14.582   5.813
 5163POPC   GL265678   8.944  14.399   5.913
 5163POPC   C1A65679   8.791  14.629   6.317
 5163POPC   D2A65680   8.897  14.318   6.621
 5163POPC   C3A65681   8.704  14.405   6.974
 5163POPC   C4A65682   8.859  14.650   7.296
 5163POPC   C1B65683   9.249  14.359   6.242
 5163POPC   C2B65684   9.440  14.388   6.657
 5163POPC   C3B65685   9.248  14.518   7.002
 5163POPC   C4B65686   9.377  14.276   7.341
 5164POPC   NC365687  20.334   1.280   5.401
 5164POPC   PO465688  20.784   0.849   5.475
 5164POPC   GL165689  20.490   1.014   5.807
 5164POPC   GL265690  20.572   0.774   6.019
 5164POPC   C1A65691  20.449   1.369   6.137
 5164POPC   D2A65692  20.622   1.581   6.519
 5164POPC   C3A65693  20.537   1.393   6.943
 5164POPC   C4A65694  20.715   1.505   7.338
 5164POPC   C1B65695  20.868   1.097   6.167
 5164POPC   C2B65696  20.765   1.099   6.581
 5164POPC   C3B65697  20.744   0.863   6.945
 5164POPC   C4B65698  20.604   0.935   7.326
 5165POPC   NC365699  26.389  36.065   5.468
 5165POPC   PO465700  25.944  36.490   5.413
 5165POPC   GL165701  25.905  36.223   5.767
 5165POPC   GL265702  26.170  36.398   5.911
 5165POPC   C1A65703  25.995  35.992   6.181
 5165POPC   D2A65704  25.929  35.740   6.572
 5165POPC   C3A65705  26.118  35.935   6.946
 5165POPC   C4A65706  26.020  35.952   7.390
 5165POPC   C1B65707  25.841  36.489   6.245
 5165POPC   C2B65708  25.746  36.492   6.710
 5165POPC   C3B65709  25.890  36.372   7.132
 5165POPC   C4B65710  26.198  36.445   7.477
 5166POPC   NC365711   7.839   4.588   5.416
 5166POPC   PO465712   7.242   4.377   5.498
 5166POPC   GL165713   7.368   4.412   5.907
 5166POPC   GL265714   7.671   4.640   5.925
 5166POPC   C1A65715   7.115   4.456   6.271
 5166POPC   D2A65716   7.264   4.581   6.666
 5166POPC   C3A65717   7.198   4.271   6.963
 5166POPC   C4A65718   7.238   4.351   7.390
 5166POPC   C1B65719   7.644   4.461   6.333
 5166POPC   C2B65720   7.772   4.271   6.704
 5166POPC   C3B65721   7.679   4.296   7.125
 5166POPC   C4B65722   7.663   4.618   7.433
 5167POPC   NC365723  10.147  36.101   5.364
 5167POPC   PO465724  10.682  36.478   5.454
 5167POPC   GL165725  10.635  36.206   5.826
 5167POPC   GL265726  10.291  36.078   5.855
 5167POPC   C1A65727  10.538  36.244   6.295
 5167POPC   D2A65728  10.337  36.468   6.632
 5167POPC   C3A65729  10.450  36.411   7.078
 5167POPC   C4A65730  10.537  36.544   7.515
 5167POPC   C1B65731  10.504  35.780   6.111
 5167POPC   C2B65732  10.399  35.740   6.537
 5167POPC   C3B65733  10.266  35.888   6.923
 5167POPC   C4B65734  10.568  35.859   7.198
 5168POPC   NC365735  16.232   1.093   5.323
 5168POPC   PO465736  16.822   0.890   5.454
 5168POPC   GL165737  16.596   1.179   5.720
 5168POPC   GL265738  16.889   1.259   5.904
 5168POPC   C1A65739  16.442   1.293   6.143
 5168POPC   D2A65740  16.698   1.296   6.538
 5168POPC   C3A65741  16.495   1.278   6.949
 5168POPC   C4A65742  16.768   1.340   7.290
 5168POPC   C1B65743  17.074   0.902   6.125
 5168POPC   C2B65744  17.112   0.776   6.554
 5168POPC   C3B65745  17.058   0.955   6.965
 5168POPC   C4B65746  17.078   0.925   7.396
 5169POPC   NC365747  17.217  33.151   5.197
 5169POPC   PO465748  17.703  32.697   5.341
 5169POPC   GL165749  17.629  32.953   5.728
 5169POPC   GL265750  17.316  33.184   5.752
 5169POPC   C1A65751  17.710  33.117   6.150
 5169POPC   D2A65752  17.569  33.054   6.577
 5169POPC   C3A65753  17.752  33.247   6.949
 5169POPC   C4A65754  17.751  33.103   7.329
 5169POPC   C1B65755  17.238  33.326   6.194
 5169POPC   C2B65756  17.133  33.365   6.625
 5169POPC   C3B65757  17.255  33.182   6.996
 5169POPC   C4B65758  17.183  32.821   7.233
 5170POPC   NC365759  39.182  20.426   5.249
 5170POPC   PO465760  39.877  20.550   5.321
 5170POPC   GL165761  39.574  20.632   5.736
 5170POPC   GL265762  39.206  20.524   5.763
 5170POPC   C1A65763  39.454  20.688   6.241
 5170POPC   D2A65764  39.373  20.854   6.684
 5170POPC   C3A65765  39.438  20.610   7.066
 5170POPC   C4A65766  39.050  20.389   7.184
 5170POPC   C1B65767  38.966  20.703   6.146
 5170POPC   C2B65768  38.905  20.667   6.579
 5170POPC   C3B65769  38.936  20.849   6.963
 5170POPC   C4B65770  38.862  20.872   7.371
 5171POPC   NC365771  37.038  16.322   5.423
 5171POPC   PO465772  36.817  16.939   5.395
 5171POPC   GL165773  36.937  16.716   5.769
 5171POPC   GL265774  37.302  16.599   5.778
 5171POPC   C1A65775  37.100  16.800   6.194
 5171POPC   D2A65776  37.222  16.550   6.546
 5171POPC   C3A65777  37.105  16.672   6.955
 5171POPC   C4A65778  36.998  16.835   7.362
 5171POPC   C1B65779  37.059  16.314   6.093
 5171POPC   C2B65780  37.139  16.049   6.445
 5171POPC   C3B65781  37.054  16.133   6.873
 5171POPC   C4B65782  37.071  16.278   7.292
 5172POPC   NC365783  30.152  36.493   5.353
 5172POPC   PO465784  29.612  36.123   5.532
 5172POPC   GL165785  29.715  36.369   5.834
 5172POPC   GL265786  30.077  36.426   5.860
 5172POPC   C1A65787  29.714  36.304   6.269
 5172POPC   D2A65788  29.888  36.410   6.660
 5172POPC   C3A65789  29.651  36.226   6.993
 5172POPC   C4A65790  29.949  35.969   7.229
 5172POPC   C1B65791  30.134  36.633   6.258
 5172POPC   C2B65792  30.413  36.595   6.633
 5172POPC   C3B65793  30.315  36.535   7.061
 5172POPC   C4B65794  29.966  36.485   7.291
 5173POPC   NC365795   9.234  39.114   5.500
 5173POPC   PO465796   8.596  39.369   5.248
 5173POPC   GL165797   8.734  39.214   5.681
 5173POPC   GL265798   9.004  39.405   5.876
 5173POPC   C1A65799   8.729  39.067   6.146
 5173POPC   D2A65800   8.812  39.359   6.527
 5173POPC   C3A65801   8.966  39.245   6.921
 5173POPC   C4A65802   8.884  39.503   7.289
 5173POPC   C1B65803   9.224  39.225   6.250
 5173POPC   C2B65804   9.390  39.406   6.658
 5173POPC   C3B65805   9.380  39.455   7.108
 5173POPC   C4B65806   9.369  39.024   7.209
 5174POPC   NC365807  41.884  20.966   5.200
 5174POPC   PO465808  42.213  20.370   5.184
 5174POPC   GL165809  42.160  20.462   5.648
 5174POPC   GL265810  42.092  20.837   5.689
 5174POPC   C1A65811  42.313  20.374   6.106
 5174POPC   D2A65812  42.115  20.237   6.532
 5174POPC   C3A65813  42.267  20.380   6.955
 5174POPC   C4A65814  42.390  20.385   7.386
 5174POPC   C1B65815  42.205  20.960   6.128
 5174POPC   C2B65816  42.130  20.854   6.566
 5174POPC   C3B65817  42.068  20.854   7.023
 5174POPC   C4B65818  42.495  20.870   7.159
 5175POPC   NC365819  10.462  26.300   5.386
 5175POPC   PO465820  10.738  25.670   5.252
 5175POPC   GL165821  10.636  25.803   5.688
 5175POPC   GL265822  10.728  26.166   5.793
 5175POPC   C1A65823  10.754  25.774   6.139
 5175POPC   D2A65824  10.485  25.854   6.509
 5175POPC   C3A65825  10.676  25.850   6.903
 5175POPC   C4A65826  10.527  25.675   7.265
 5175POPC   C1B65827  10.576  26.273   6.199
 5175POPC   C2B65828  10.584  26.336   6.650
 5175POPC   C3B65829  10.381  26.257   7.050
 5175POPC   C4B65830  10.411  26.390   7.497
 5176POPC   NC365831  43.357  19.947   5.442
 5176POPC   PO465832  42.772  19.694   5.273
 5176POPC   GL165833  42.992  19.621   5.701
 5176POPC   GL265834  43.370  19.535   5.733
 5176POPC   C1A65835  43.114  19.910   6.067
 5176POPC   D2A65836  43.412  20.063   6.407
 5176POPC   C3A65837  43.123  20.089   6.764
 5176POPC   C4A65838  42.937  19.847   7.121
 5176POPC   C1B65839  43.456  19.555   6.176
 5176POPC   C2B65840  43.267  19.602   6.612
 5176POPC   C3B65841  43.419  19.713   7.032
 5176POPC   C4B65842  43.627  19.509   7.371
 5177POPC   NC365843  17.273  40.919   5.553
 5177POPC   PO465844  17.807  41.339   5.280
 5177POPC   GL165845  17.786  41.097   5.695
 5177POPC   GL265846  17.516  41.103   5.964
 5177POPC   C1A65847  17.938  40.837   6.057
 5177POPC   D2A65848  17.634  40.628   6.346
 5177POPC   C3A65849  17.678  40.649   6.793
 5177POPC   C4A65850  17.638  40.767   7.217
 5177POPC   C1B65851  17.294  41.090   6.365
 5177POPC   C2B65852  17.367  41.072   6.821
 5177POPC   C3B65853  17.379  41.213   7.246
 5177POPC   C4B65854  17.215  41.408   7.643
 5178POPC   NC365855  31.485  26.097   5.561
 5178POPC   PO465856  31.310  25.475   5.615
 5178POPC   GL165857  31.363  25.778   5.964
 5178POPC   GL265858  31.705  25.813   5.939
 5178POPC   C1A65859  31.425  26.182   6.270
 5178POPC   D2A65860  31.403  26.300   6.735
 5178POPC   C3A65861  31.349  25.958   7.058
 5178POPC   C4A65862  31.462  25.827   7.528
 5178POPC   C1B65863  31.910  26.101   6.181
 5178POPC   C2B65864  31.929  26.262   6.588
 5178POPC   C3B65865  31.828  26.098   6.980
 5178POPC   C4B65866  31.645  26.273   7.348
 5179POPC   NC365867  31.043  25.052   5.578
 5179POPC   PO465868  30.402  25.342   5.448
 5179POPC   GL165869  30.733  25.419   5.724
 5179POPC   GL265870  30.619  25.096   5.844
 5179POPC   C1A65871  30.904  25.555   6.120
 5179POPC   D2A65872  30.743  25.526   6.530
 5179POPC   C3A65873  31.053  25.406   6.825
 5179POPC   C4A65874  30.914  25.481   7.234
 5179POPC   C1B65875  30.739  25.071   6.219
 5179POPC   C2B65876  30.747  25.016   6.609
 5179POPC   C3B65877  30.599  25.187   6.953
 5179POPC   C4B65878  30.691  25.001   7.327
 5180POPC   NC365879  38.460  32.730   5.597
 5180POPC   PO465880  38.695  32.190   5.275
 5180POPC   GL165881  38.638  32.241   5.755
 5180POPC   GL265882  38.298  32.220   5.934
 5180POPC   C1A65883  38.707  32.418   6.167
 5180POPC   D2A65884  38.461  32.350   6.524
 5180POPC   C3A65885  38.744  32.347   6.850
 5180POPC   C4A65886  38.687  32.562   7.202
 5180POPC   C1B65887  38.229  31.927   6.290
 5180POPC   C2B65888  38.069  32.055   6.696
 5180POPC   C3B65889  38.239  32.321   7.019
 5180POPC   C4B65890  38.478  31.982   7.132
 5181POPC   NC365891   9.453  17.968   5.421
 5181POPC   PO465892  10.044  18.099   5.435
 5181POPC   GL165893   9.797  18.215   5.805
 5181POPC   GL265894   9.471  18.372   5.744
 5181POPC   C1A65895   9.750  18.403   6.235
 5181POPC   D2A65896   9.970  18.624   6.569
 5181POPC   C3A65897  10.135  18.390   6.906
 5181POPC   C4A65898  10.183  18.564   7.310
 5181POPC   C1B65899   9.382  18.074   6.081
 5181POPC   C2B65900   9.403  18.012   6.524
 5181POPC   C3B65901   9.565  18.324   6.813
 5181POPC   C4B65902   9.491  18.356   7.253
 5182POPC   NC365903  15.013  20.771   5.486
 5182POPC   PO465904  15.376  20.264   5.380
 5182POPC   GL165905  15.314  20.476   5.813
 5182POPC   GL265906  15.398  20.853   5.829
 5182POPC   C1A65907  15.115  20.595   6.229
 5182POPC   D2A65908  15.178  20.447   6.656
 5182POPC   C3A65909  14.971  20.623   6.996
 5182POPC   C4A65910  14.772  20.787   7.334
 5182POPC   C1B65911  15.670  20.832   6.196
 5182POPC   C2B65912  15.655  20.599   6.599
 5182POPC   C3B65913  15.480  20.678   7.045
 5182POPC   C4B65914  15.528  20.990   7.407
 5183POPC   NC365915  11.487  42.899   5.217
 5183POPC   PO465916  10.963  43.280   5.126
 5183POPC   GL165917  11.074  43.198   5.605
 5183POPC   GL265918  11.416  43.000   5.722
 5183POPC   C1A65919  11.039  43.015   6.042
 5183POPC   D2A65920  11.187  43.051   6.457
 5183POPC   C3A65921  10.980  42.904   6.823
 5183POPC   C4A65922  11.059  43.155   7.177
 5183POPC   C1B65923  11.592  42.927   6.187
 5183POPC   C2B65924  11.685  43.127   6.615
 5183POPC   C3B65925  11.640  43.011   7.040
 5183POPC   C4B65926  11.351  42.732   7.193
 5184POPC   NC365927   6.414  16.005   5.414
 5184POPC   PO465928   6.978  15.924   5.768
 5184POPC   GL165929   6.554  15.936   5.889
 5184POPC   GL265930   6.267  15.693   5.815
 5184POPC   C1A65931   6.401  16.005   6.257
 5184POPC   D2A65932   6.660  15.904   6.575
 5184POPC   C3A65933   6.494  16.073   6.943
 5184POPC   C4A65934   6.622  15.976   7.367
 5184POPC   C1B65935   6.150  15.557   6.254
 5184POPC   C2B65936   6.178  15.721   6.696
 5184POPC   C3B65937   6.221  15.731   7.162
 5184POPC   C4B65938   6.219  15.810   7.638
 5185POPC   NC365939  32.000  12.233   5.418
 5185POPC   PO465940  32.405  11.710   5.501
 5185POPC   GL165941  32.352  12.080   5.765
 5185POPC   GL265942  32.004  12.045   5.905
 5185POPC   C1A65943  32.382  12.281   6.179
 5185POPC   D2A65944  32.143  12.110   6.552
 5185POPC   C3A65945  32.293  12.121   6.956
 5185POPC   C4A65946  32.188  11.790   7.217
 5185POPC   C1B65947  31.880  12.379   6.224
 5185POPC   C2B65948  31.854  12.525   6.695
 5185POPC   C3B65949  31.978  12.483   7.146
 5185POPC   C4B65950  31.951  12.160   7.462
 5186POPC   NC365951   8.183  20.892   5.476
 5186POPC   PO465952   8.476  20.294   5.436
 5186POPC   GL165953   8.355  20.537   5.843
 5186POPC   GL265954   8.375  20.905   5.939
 5186POPC   C1A65955   7.968  20.648   6.114
 5186POPC   D2A65956   7.840  20.805   6.521
 5186POPC   C3A65957   7.715  20.564   6.875
 5186POPC   C4A65958   7.972  20.605   7.227
 5186POPC   C1B65959   8.388  20.869   6.400
 5186POPC   C2B65960   8.245  20.633   6.771
 5186POPC   C3B65961   8.425  20.382   7.073
 5186POPC   C4B65962   8.437  20.565   7.463
 5187POPC   NC365963  19.050  42.607   5.622
 5187POPC   PO465964  19.281  42.210   5.192
 5187POPC   GL165965  18.926  42.201   5.858
 5187POPC   GL265966  19.189  42.443   6.096
 5187POPC   C1A65967  18.749  42.315   6.272
 5187POPC   D2A65968  19.041  42.181   6.545
 5187POPC   C3A65969  18.906  42.098   6.924
 5187POPC   C4A65970  19.046  42.323   7.262
 5187POPC   C1B65971  19.647  42.569   6.224
 5187POPC   C2B65972  19.664  42.705   6.653
 5187POPC   C3B65973  19.424  42.373   6.875
 5187POPC   C4B65974  19.535  42.205   7.260
 5188POPC   NC365975  38.571  41.545   5.112
 5188POPC   PO465976  38.138  41.691   5.616
 5188POPC   GL165977  38.408  41.515   5.912
 5188POPC   GL265978  38.531  41.845   5.993
 5188POPC   C1A65979  38.303  41.472   6.358
 5188POPC   D2A65980  38.192  41.621   6.792
 5188POPC   C3A65981  38.426  41.437   7.114
 5188POPC   C4A65982  38.426  41.176   7.465
 5188POPC   C1B65983  38.701  41.824   6.393
 5188POPC   C2B65984  38.687  41.793   6.827
 5188POPC   C3B65985  38.621  41.906   7.231
 5188POPC   C4B65986  38.773  42.025   7.656
 5189POPC   NC365987   3.220  23.811   5.444
 5189POPC   PO465988   3.405  23.148   5.301
 5189POPC   GL165989   3.510  23.455   5.688
 5189POPC   GL265990   3.815  23.505   5.871
 5189POPC   C1A65991   3.386  23.579   6.136
 5189POPC   D2A65992   3.649  23.369   6.455
 5189POPC   C3A65993   3.627  23.384   6.912
 5189POPC   C4A65994   3.419  23.384   7.316
 5189POPC   C1B65995   3.852  23.786   6.240
 5189POPC   C2B65996   3.522  23.874   6.559
 5189POPC   C3B65997   3.371  23.842   6.939
 5189POPC   C4B65998   3.677  23.827   7.240
 5190POPC   NC365999  41.816  24.910   5.498
 5190POPC   PO466000  41.423  24.313   5.523
 5190POPC   GL166001  41.583  24.353   5.902
 5190POPC   GL266002  41.649  24.713   5.947
 5190POPC   C1A66003  41.474  24.411   6.318
 5190POPC   D2A66004  41.519  24.638   6.679
 5190POPC   C3A66005  41.577  24.419   6.988
 5190POPC   C4A66006  41.757  24.209   7.307
 5190POPC   C1B66007  41.842  24.839   6.348
 5190POPC   C2B66008  41.964  24.925   6.759
 5190POPC   C3B66009  41.736  24.899   7.117
 5190POPC   C4B66010  41.830  24.996   7.518
 5191POPC   NC366011  12.644  26.527   5.537
 5191POPC   PO466012  12.621  27.086   5.184
 5191POPC   GL166013  12.744  26.993   5.712
 5191POPC   GL266014  12.448  26.920   5.908
 5191POPC   C1A66015  12.841  26.823   6.210
 5191POPC   D2A66016  12.822  26.615   6.651
 5191POPC   C3A66017  12.885  26.583   7.103
 5191POPC   C4A66018  13.185  26.593   7.448
 5191POPC   C1B66019  12.468  27.134   6.343
 5191POPC   C2B66020  12.501  26.982   6.791
 5191POPC   C3B66021  12.513  26.877   7.248
 5191POPC   C4B66022  12.606  27.032   7.673
 5192POPC   NC366023  15.315  30.966   5.575
 5192POPC   PO466024  15.950  30.905   5.449
 5192POPC   GL166025  15.740  30.749   5.810
 5192POPC   GL266026  15.535  30.457   5.796
 5192POPC   C1A66027  15.846  30.789   6.239
 5192POPC   D2A66028  16.106  30.587   6.548
 5192POPC   C3A66029  16.191  30.809   6.935
 5192POPC   C4A66030  15.911  30.785   7.234
 5192POPC   C1B66031  15.650  30.319   6.196
 5192POPC   C2B66032  15.607  30.501   6.595
 5192POPC   C3B66033  15.828  30.379   6.951
 5192POPC   C4B66034  15.770  30.328   7.396
 5193POPC   NC366035   4.237  34.413   5.509
 5193POPC   PO466036   4.274  35.110   5.532
 5193POPC   GL166037   4.311  34.867   5.947
 5193POPC   GL266038   4.175  34.521   5.992
 5193POPC   C1A66039   4.245  34.767   6.416
 5193POPC   D2A66040   4.330  34.422   6.718
 5193POPC   C3A66041   4.531  34.665   7.017
 5193POPC   C4A66042   4.274  34.977   6.902
 5193POPC   C1B66043   4.005  34.270   6.337
 5193POPC   C2B66044   3.818  34.410   6.734
 5193POPC   C3B66045   4.041  34.426   7.148
 5193POPC   C4B66046   4.177  34.236   7.549
 5194POPC   NC366047   3.276  34.651   5.368
 5194POPC   PO466048   3.800  34.230   5.520
 5194POPC   GL166049   3.650  34.490   5.890
 5194POPC   GL266050   3.303  34.676   5.906
 5194POPC   C1A66051   3.718  34.716   6.294
 5194POPC   D2A66052   3.462  34.873   6.679
 5194POPC   C3A66053   3.646  34.753   7.081
 5194POPC   C4A66054   3.480  34.348   7.203
 5194POPC   C1B66055   3.315  34.409   6.306
 5194POPC   C2B66056   3.175  34.418   6.744
 5194POPC   C3B66057   3.147  34.745   7.077
 5194POPC   C4B66058   3.292  34.782   7.496
 5195POPC   NC366059   0.959  38.682   5.418
 5195POPC   PO466060   1.091  38.035   5.456
 5195POPC   GL166061   1.264  38.207   5.864
 5195POPC   GL266062   1.082  38.512   5.900
 5195POPC   C1A66063   1.399  38.379   6.288
 5195POPC   D2A66064   1.141  38.501   6.667
 5195POPC   C3A66065   1.348  38.375   7.059
 5195POPC   C4A66066   1.732  38.472   7.285
 5195POPC   C1B66067   0.913  38.249   6.271
 5195POPC   C2B66068   0.735  38.179   6.663
 5195POPC   C3B66069   0.926  38.064   7.065
 5195POPC   C4B66070   1.001  38.294   7.467
 5196POPC   NC366071   1.722  20.817   5.511
 5196POPC   PO466072   2.250  20.433   5.314
 5196POPC   GL166073   2.146  20.619   5.734
 5196POPC   GL266074   1.877  20.401   5.854
 5196POPC   C1A66075   2.136  20.713   6.202
 5196POPC   D2A66076   2.387  20.563   6.583
 5196POPC   C3A66077   2.291  20.693   7.025
 5196POPC   C4A66078   2.245  20.617   7.494
 5196POPC   C1B66079   1.994  20.214   6.253
 5196POPC   C2B66080   1.899  20.328   6.692
 5196POPC   C3B66081   1.799  20.512   7.095
 5196POPC   C4B66082   1.691  20.727   7.477
 5197POPC   NC366083   2.720   1.318   5.593
 5197POPC   PO466084   3.052   0.697   5.501
 5197POPC   GL166085   3.103   0.969   5.825
 5197POPC   GL266086   2.768   0.871   5.899
 5197POPC   C1A66087   2.987   1.251   6.178
 5197POPC   D2A66088   3.002   1.152   6.599
 5197POPC   C3A66089   2.872   1.454   6.831
 5197POPC   C4A66090   2.877   1.456   7.243
 5197POPC   C1B66091   2.550   0.979   6.265
 5197POPC   C2B66092   2.476   1.218   6.618
 5197POPC   C3B66093   2.604   1.062   7.018
 5197POPC   C4B66094   2.327   0.922   7.307
 5198POPC   NC366095  16.003  28.888   5.350
 5198POPC   PO466096  16.054  28.247   5.354
 5198POPC   GL166097  16.074  28.172   5.774
 5198POPC   GL266098  16.172  27.821   5.755
 5198POPC   C1A66099  16.103  28.380   6.219
 5198POPC   D2A66100  16.040  28.657   6.613
 5198POPC   C3A66101  15.882  28.477   7.038
 5198POPC   C4A66102  15.822  28.430   7.499
 5198POPC   C1B66103  15.922  27.863   6.137
 5198POPC   C2B66104  16.034  27.972   6.553
 5198POPC   C3B66105  16.231  27.928   6.935
 5198POPC   C4B66106  16.151  28.083   7.321
 5199POPC   NC366107  12.974   9.270   5.443
 5199POPC   PO466108  12.467   8.746   5.556
 5199POPC   GL166109  12.693   8.783   5.922
 5199POPC   GL266110  12.976   8.952   5.859
 5199POPC   C1A66111  12.878   8.805   6.346
 5199POPC   D2A66112  13.155   8.879   6.678
 5199POPC   C3A66113  12.928   8.798   7.053
 5199POPC   C4A66114  12.539   8.646   7.154
 5199POPC   C1B66115  12.837   9.289   6.162
 5199POPC   C2B66116  13.001   9.404   6.597
 5199POPC   C3B66117  13.160   9.273   7.014
 5199POPC   C4B66118  13.438   8.917   7.108
 5200POPC   NC366119   0.176  32.133   5.463
 5200POPC   PO466120   0.656  32.602   5.423
 5200POPC   GL166121   0.524  32.334   5.780
 5200POPC   GL266122   0.158  32.432   5.884
 5200POPC   C1A66123   0.432  32.130   6.176
 5200POPC   D2A66124   0.263  32.230   6.587
 5200POPC   C3A66125   0.582  32.152   6.916
 5200POPC   C4A66126   0.801  32.444   7.157
 5200POPC   C1B66127  44.913  32.479   6.299
 5200POPC   C2B66128  44.905  32.511   6.788
 5200POPC   C3B66129   0.151  32.263   7.147
 5200POPC   C4B66130   0.160  32.210   7.602
 5201POPC   NC366131  32.560   8.519   5.390
 5201POPC   PO466132  32.067   8.032   5.381
 5201POPC   GL166133  32.190   8.227   5.727
 5201POPC   GL266134  32.506   8.128   5.734
 5201POPC   C1A66135  32.118   8.313   6.152
 5201POPC   D2A66136  32.314   8.304   6.555
 5201POPC   C3A66137  32.077   8.118   6.897
 5201POPC   C4A66138  32.158   8.390   7.164
 5201POPC   C1B66139  32.536   8.011   6.159
 5201POPC   C2B66140  32.681   7.925   6.590
 5201POPC   C3B66141  32.571   8.074   7.002
 5201POPC   C4B66142  32.479   8.026   7.440
 5202POPC   NC366143  25.927  31.735   5.083
 5202POPC   PO466144  26.297  31.323   5.384
 5202POPC   GL166145  26.217  31.466   5.802
 5202POPC   GL266146  26.438  31.749   5.865
 5202POPC   C1A66147  25.954  31.301   6.139
 5202POPC   D2A66148  25.802  31.131   6.530
 5202POPC   C3A66149  25.833  31.458   6.871
 5202POPC   C4A66150  25.749  31.807   7.179
 5202POPC   C1B66151  26.349  31.675   6.273
 5202POPC   C2B66152  26.240  31.355   6.557
 5202POPC   C3B66153  26.312  31.286   6.985
 5202POPC   C4B66154  26.215  31.624   7.232
 5203POPC   NC366155  36.472   2.451   5.504
 5203POPC   PO466156  35.822   2.777   5.449
 5203POPC   GL166157  35.995   2.889   5.847
 5203POPC   GL266158  36.170   2.594   5.868
 5203POPC   C1A66159  36.125   2.841   6.296
 5203POPC   D2A66160  36.425   3.007   6.531
 5203POPC   C3A66161  36.263   2.986   6.910
 5203POPC   C4A66162  36.165   3.092   7.339
 5203POPC   C1B66163  36.013   2.354   6.218
 5203POPC   C2B66164  35.830   2.475   6.613
 5203POPC   C3B66165  35.988   2.357   7.008
 5203POPC   C4B66166  36.219   2.603   7.292
 5204POPC   NC366167  39.788  34.253   5.414
 5204POPC   PO466168  40.258  34.885   5.514
 5204POPC   GL166169  40.070  34.575   5.804
 5204POPC   GL266170  39.793  34.701   5.978
 5204POPC   C1A66171  40.124  34.444   6.269
 5204POPC   D2A66172  40.435  34.406   6.602
 5204POPC   C3A66173  40.223  34.365   7.005
 5204POPC   C4A66174  39.832  34.503   7.147
 5204POPC   C1B66175  40.156  34.958   6.179
 5204POPC   C2B66176  40.296  34.893   6.614
 5204POPC   C3B66177  40.175  34.873   7.044
 5204POPC   C4B66178  40.279  35.034   7.454
 5205POPC   NC366179  34.863  35.152   5.373
 5205POPC   PO466180  34.413  35.652   5.141
 5205POPC   GL166181  34.569  35.506   5.651
 5205POPC   GL266182  34.563  35.165   5.820
 5205POPC   C1A66183  34.543  35.509   6.169
 5205POPC   D2A66184  34.634  35.317   6.560
 5205POPC   C3A66185  34.319  35.400   6.872
 5205POPC   C4A66186  34.388  35.401   7.312
 5205POPC   C1B66187  34.420  34.977   6.224
 5205POPC   C2B66188  34.363  34.906   6.689
 5205POPC   C3B66189  34.585  34.990   7.084
 5205POPC   C4B66190  34.486  34.902   7.530
 5206POPC   NC366191   6.161   3.407   5.502
 5206POPC   PO466192   5.709   3.850   5.400
 5206POPC   GL166193   5.967   3.795   5.810
 5206POPC   GL266194   6.264   3.637   5.963
 5206POPC   C1A66195   5.836   3.576   6.214
 5206POPC   D2A66196   5.750   3.400   6.618
 5206POPC   C3A66197   5.827   3.619   6.996
 5206POPC   C4A66198   5.741   3.571   7.441
 5206POPC   C1B66199   6.311   3.322   6.312
 5206POPC   C2B66200   6.273   3.340   6.785
 5206POPC   C3B66201   6.466   3.502   7.187
 5206POPC   C4B66202   6.265   3.571   7.614
 5207POPC   NC366203  19.591  32.885   5.552
 5207POPC   PO466204  20.263  33.247   5.515
 5207POPC   GL166205  20.040  33.012   5.822
 5207POPC   GL266206  20.107  32.658   5.723
 5207POPC   C1A66207  19.728  33.069   6.177
 5207POPC   D2A66208  19.526  33.295   6.508
 5207POPC   C3A66209  19.732  33.200   6.888
 5207POPC   C4A66210  19.682  33.125   7.297
 5207POPC   C1B66211  20.040  32.647   6.177
 5207POPC   C2B66212  19.878  32.786   6.599
 5207POPC   C3B66213  19.731  32.676   7.019
 5207POPC   C4B66214  20.022  32.400   7.204
 5208POPC   NC366215  13.773  25.071   5.450
 5208POPC   PO466216  13.350  25.609   5.401
 5208POPC   GL166217  13.536  25.387   5.805
 5208POPC   GL266218  13.465  25.009   5.856
 5208POPC   C1A66219  13.752  25.478   6.232
 5208POPC   D2A66220  13.844  25.684   6.615
 5208POPC   C3A66221  13.693  25.525   6.984
 5208POPC   C4A66222  14.032  25.393   7.215
 5208POPC   C1B66223  13.669  24.975   6.263
 5208POPC   C2B66224  13.860  25.112   6.651
 5208POPC   C3B66225  13.706  25.011   7.046
 5208POPC   C4B66226  13.352  24.821   7.278
 5209POPC   NC366227   8.290  39.027   5.376
 5209POPC   PO466228   8.273  39.583   5.670
 5209POPC   GL166229   8.253  39.274   5.884
 5209POPC   GL266230   7.939  39.138   5.761
 5209POPC   C1A66231   8.356  39.370   6.299
 5209POPC   D2A66232   8.216  39.267   6.680
 5209POPC   C3A66233   8.478  39.397   6.980
 5209POPC   C4A66234   8.375  39.603   7.338
 5209POPC   C1B66235   8.014  38.943   6.169
 5209POPC   C2B66236   7.808  38.961   6.531
 5209POPC   C3B66237   7.860  38.923   6.943
 5209POPC   C4B66238   8.025  39.232   7.188
 5210POPC   NC366239  39.469  28.543   5.394
 5210POPC   PO466240  39.182  27.903   5.411
 5210POPC   GL166241  39.243  28.201   5.749
 5210POPC   GL266242  39.062  28.536   5.810
 5210POPC   C1A66243  39.395  28.337   6.159
 5210POPC   D2A66244  39.403  28.181   6.591
 5210POPC   C3A66245  39.268  28.434   6.958
 5210POPC   C4A66246  39.503  28.559   7.319
 5210POPC   C1B66247  38.901  28.263   6.156
 5210POPC   C2B66248  38.907  28.286   6.602
 5210POPC   C3B66249  38.814  28.260   7.047
 5210POPC   C4B66250  39.049  28.379   7.462
 5211POPC   NC366251  43.281   7.986   5.488
 5211POPC   PO466252  43.160   8.623   5.610
 5211POPC   GL166253  43.431   8.469   5.914
 5211POPC   GL266254  43.380   8.114   5.991
 5211POPC   C1A66255  43.443   8.537   6.333
 5211POPC   D2A66256  43.185   8.288   6.573
 5211POPC   C3A66257  43.269   8.249   7.014
 5211POPC   C4A66258  42.982   8.414   7.362
 5211POPC   C1B66259  42.923   8.200   6.112
 5211POPC   C2B66260  42.687   8.122   6.498
 5211POPC   C3B66261  42.770   8.212   6.919
 5211POPC   C4B66262  42.943   7.929   7.254
 5212POPC   NC366263  12.723  33.070   5.413
 5212POPC   PO466264  13.272  32.632   5.363
 5212POPC   GL166265  13.126  32.941   5.781
 5212POPC   GL266266  12.858  32.819   6.037
 5212POPC   C1A66267  13.161  33.172   6.187
 5212POPC   D2A66268  12.954  32.942   6.549
 5212POPC   C3A66269  13.150  32.964   6.951
 5212POPC   C4A66270  13.223  33.326   7.145
 5212POPC   C1B66271  12.499  32.789   6.353
 5212POPC   C2B66272  12.447  32.757   6.801
 5212POPC   C3B66273  12.468  32.691   7.228
 5212POPC   C4B66274  12.858  32.779   7.327
 5213POPC   NC366275  43.536  16.497   5.504
 5213POPC   PO466276  44.122  16.778   5.763
 5213POPC   GL166277  43.738  16.785   5.962
 5213POPC   GL266278  43.722  16.449   5.973
 5213POPC   C1A66279  43.660  16.687   6.408
 5213POPC   D2A66280  43.460  16.603   6.805
 5213POPC   C3A66281  43.759  16.771   7.088
 5213POPC   C4A66282  43.853  17.012   7.441
 5213POPC   C1B66283  44.102  16.386   6.255
 5213POPC   C2B66284  44.265  16.538   6.667
 5213POPC   C3B66285  44.080  16.363   7.036
 5213POPC   C4B66286  43.675  16.250   7.127
 5214POPC   NC366287   0.261  21.077   5.065
 5214POPC   PO466288   0.511  20.584   5.454
 5214POPC   GL166289   0.093  20.566   5.667
 5214POPC   GL266290   0.113  20.238   5.822
 5214POPC   C1A66291  44.940  20.708   6.104
 5214POPC   D2A66292   0.185  20.928   6.460
 5214POPC   C3A66293   0.121  20.837   6.898
 5214POPC   C4A66294   0.326  20.707   7.265
 5214POPC   C1B66295   0.371  20.418   6.123
 5214POPC   C2B66296   0.260  20.420   6.543
 5214POPC   C3B66297   0.498  20.397   6.883
 5214POPC   C4B66298   0.587  20.257   7.259
 5215POPC   NC366299  30.212  19.306   5.515
 5215POPC   PO466300  30.662  18.832   5.334
 5215POPC   GL166301  30.671  18.904   5.798
 5215POPC   GL266302  30.384  18.706   5.844
 5215POPC   C1A66303  30.817  19.011   6.252
 5215POPC   D2A66304  30.659  19.283   6.606
 5215POPC   C3A66305  30.462  19.185   7.021
 5215POPC   C4A66306  30.868  19.210   7.271
 5215POPC   C1B66307  30.558  18.561   6.197
 5215POPC   C2B66308  30.514  18.749   6.599
 5215POPC   C3B66309  30.756  18.785   6.935
 5215POPC   C4B66310  30.603  18.803   7.356
 5216POPC   NC366311  16.497  28.020   5.382
 5216POPC   PO466312  17.017  28.494   5.461
 5216POPC   GL166313  16.935  28.222   5.799
 5216POPC   GL266314  16.576  28.246   5.839
 5216POPC   C1A66315  16.919  28.173   6.251
 5216POPC   D2A66316  16.966  28.490   6.603
 5216POPC   C3A66317  16.913  28.359   7.020
 5216POPC   C4A66318  16.647  28.099   7.206
 5216POPC   C1B66319  16.433  27.994   6.190
 5216POPC   C2B66320  16.535  28.172   6.610
 5216POPC   C3B66321  16.389  28.448   6.932
 5216POPC   C4B66322  16.279  28.587   7.349
 5217POPC   NC366323  22.591   6.748   5.625
 5217POPC   PO466324  23.238   6.567   5.459
 5217POPC   GL166325  23.037   6.596   5.849
 5217POPC   GL266326  22.779   6.799   6.086
 5217POPC   C1A66327  23.024   6.406   6.231
 5217POPC   D2A66328  22.801   6.549   6.593
 5217POPC   C3A66329  23.083   6.627   6.903
 5217POPC   C4A66330  23.136   6.578   7.308
 5217POPC   C1B66331  22.479   6.446   6.202
 5217POPC   C2B66332  22.313   6.375   6.627
 5217POPC   C3B66333  22.476   6.550   7.025
 5217POPC   C4B66334  22.712   6.320   7.381
 5218POPC   NC366335  15.486   9.462   5.323
 5218POPC   PO466336  16.203   9.634   5.394
 5218POPC   GL166337  16.024   9.872   5.756
 5218POPC   GL266338  15.660   9.973   5.676
 5218POPC   C1A66339  15.985   9.741   6.221
 5218POPC   D2A66340  16.293   9.708   6.605
 5218POPC   C3A66341  16.117   9.521   7.005
 5218POPC   C4A66342  15.742   9.651   7.253
 5218POPC   C1B66343  15.492  10.161   6.083
 5218POPC   C2B66344  15.598  10.277   6.518
 5218POPC   C3B66345  15.702  10.040   6.887
 5218POPC   C4B66346  15.769  10.184   7.290
 5219POPC   NC366347   1.758   3.779   5.427
 5219POPC   PO466348   2.313   3.370   5.421
 5219POPC   GL166349   2.002   3.457   5.753
 5219POPC   GL266350   2.066   3.807   5.858
 5219POPC   C1A66351   1.819   3.449   6.179
 5219POPC   D2A66352   1.935   3.702   6.570
 5219POPC   C3A66353   1.892   3.545   7.020
 5219POPC   C4A66354   1.793   3.433   7.507
 5219POPC   C1B66355   2.309   3.563   6.181
 5219POPC   C2B66356   2.610   3.391   6.499
 5219POPC   C3B66357   2.470   3.454   6.928
 5219POPC   C4B66358   2.255   3.339   7.299
 5220POPC   NC366359  44.473   7.341   5.480
 5220POPC   PO466360   0.152   7.654   5.491
 5220POPC   GL166361  44.838   7.491   5.830
 5220POPC   GL266362  44.758   7.116   5.860
 5220POPC   C1A66363  44.694   7.648   6.232
 5220POPC   D2A66364  44.953   7.663   6.591
 5220POPC   C3A66365  44.727   7.564   6.965
 5220POPC   C4A66366  44.557   7.756   7.333
 5220POPC   C1B66367  44.614   7.152   6.265
 5220POPC   C2B66368  44.421   7.231   6.653
 5220POPC   C3B66369  44.591   7.051   7.025
 5220POPC   C4B66370  44.702   7.260   7.389
 5221POPC   NC366371  17.240  44.681   5.418
 5221POPC   PO466372  17.778   0.021   5.154
 5221POPC   GL166373  17.695  44.961   5.621
 5221POPC   GL266374  17.655  44.608   5.722
 5221POPC   C1A66375  17.647  44.971   6.096
 5221POPC   D2A66376  17.616   0.004   6.565
 5221POPC   C3A66377  17.432  44.705   6.908
 5221POPC   C4A66378  17.272  44.818   7.334
 5221POPC   C1B66379  17.672  44.440   6.160
 5221POPC   C2B66380  17.805  44.514   6.588
 5221POPC   C3B66381  17.804  44.293   6.979
 5221POPC   C4B66382  17.593  44.408   7.353
 5222POPC   NC366383  32.068  21.129   5.314
 5222POPC   PO466384  32.403  21.667   5.457
 5222POPC   GL166385  32.235  21.591   5.870
 5222POPC   GL266386  32.515  21.581   5.983
 5222POPC   C1A66387  32.183  21.446   6.344
 5222POPC   D2A66388  31.901  21.542   6.694
 5222POPC   C3A66389  31.774  21.211   6.949
 5222POPC   C4A66390  32.075  20.961   7.061
 5222POPC   C1B66391  32.566  21.832   6.339
 5222POPC   C2B66392  32.599  21.711   6.757
 5222POPC   C3B66393  32.332  21.425   6.985
 5222POPC   C4B66394  31.975  21.583   7.220
 5223POPC   NC366395  17.834  43.662   5.440
 5223POPC   PO466396  17.352  44.152   5.364
 5223POPC   GL166397  17.399  43.823   5.707
 5223POPC   GL266398  17.116  43.676   5.874
 5223POPC   C1A66399  17.552  43.807   6.150
 5223POPC   D2A66400  17.621  43.999   6.562
 5223POPC   C3A66401  17.551  43.686   6.912
 5223POPC   C4A66402  17.722  43.712   7.336
 5223POPC   C1B66403  17.069  44.004   6.147
 5223POPC   C2B66404  17.089  44.013   6.592
 5223POPC   C3B66405  17.315  44.143   6.944
 5223POPC   C4B66406  17.328  43.998   7.322
 5224POPC   NC366407   0.931  11.069   5.490
 5224POPC   PO466408   1.563  11.215   5.345
 5224POPC   GL166409   1.349  11.080   5.799
 5224POPC   GL266410   0.995  11.167   5.973
 5224POPC   C1A66411   1.418  11.235   6.228
 5224POPC   D2A66412   1.140  11.256   6.586
 5224POPC   C3A66413   1.346  11.251   6.986
 5224POPC   C4A66414   1.330  11.554   7.301
 5224POPC   C1B66415   1.004  11.558   6.184
 5224POPC   C2B66416   0.909  11.737   6.566
 5224POPC   C3B66417   0.931  11.584   6.961
 5224POPC   C4B66418   0.845  11.711   7.359
 5225POPC   NC366419  15.733  18.512   5.233
 5225POPC   PO466420  16.047  17.972   5.515
 5225POPC   GL166421  15.854  18.231   5.867
 5225POPC   GL266422  15.544  18.459   5.739
 5225POPC   C1A66423  15.941  18.304   6.278
 5225POPC   D2A66424  16.070  18.238   6.685
 5225POPC   C3A66425  16.049  18.491   7.061
 5225POPC   C4A66426  16.071  18.281   7.448
 5225POPC   C1B66427  15.560  18.620   6.150
 5225POPC   C2B66428  15.686  18.642   6.593
 5225POPC   C3B66429  15.573  18.698   7.021
 5225POPC   C4B66430  15.630  18.521   7.430
 5226POPC   NC366431  26.563  20.627   5.121
 5226POPC   PO466432  26.051  20.510   5.576
 5226POPC   GL166433  25.960  20.653   5.941
 5226POPC   GL266434  25.682  20.460   5.936
 5226POPC   C1A66435  26.062  20.766   6.374
 5226POPC   D2A66436  26.457  20.864   6.559
 5226POPC   C3A66437  26.456  20.700   6.932
 5226POPC   C4A66438  26.237  20.709   7.295
 5226POPC   C1B66439  25.824  20.307   6.309
 5226POPC   C2B66440  25.669  20.534   6.652
 5226POPC   C3B66441  25.848  20.586   7.005
 5226POPC   C4B66442  25.879  20.302   7.336
 5227POPC   NC366443   8.031  42.159   5.504
 5227POPC   PO466444   8.363  42.639   5.150
 5227POPC   GL166445   8.408  42.610   5.645
 5227POPC   GL266446   8.232  42.868   5.835
 5227POPC   C1A66447   8.284  42.415   6.097
 5227POPC   D2A66448   8.072  42.648   6.477
 5227POPC   C3A66449   8.014  42.462   6.905
 5227POPC   C4A66450   7.989  42.582   7.351
 5227POPC   C1B66451   8.516  42.859   6.209
 5227POPC   C2B66452   8.578  42.575   6.610
 5227POPC   C3B66453   8.481  42.589   7.063
 5227POPC   C4B66454   8.474  42.490   7.484
 5228POPC   NC366455  41.901  40.082   5.385
 5228POPC   PO466456  42.455  39.732   5.445
 5228POPC   GL166457  42.374  39.837   5.892
 5228POPC   GL266458  42.073  40.040   5.874
 5228POPC   C1A66459  42.240  39.834   6.352
 5228POPC   D2A66460  42.329  40.117   6.704
 5228POPC   C3A66461  42.427  39.850   7.091
 5228POPC   C4A66462  42.464  39.886   7.549
 5228POPC   C1B66463  42.052  40.299   6.234
 5228POPC   C2B66464  41.954  40.523   6.623
 5228POPC   C3B66465  41.975  40.297   7.003
 5228POPC   C4B66466  42.342  40.316   7.244
 5229POPC   NC366467  19.707  40.441   5.389
 5229POPC   PO466468  19.964  41.099   5.334
 5229POPC   GL166469  19.943  40.910   5.762
 5229POPC   GL266470  20.128  40.616   5.730
 5229POPC   C1A66471  19.795  40.852   6.213
 5229POPC   D2A66472  19.568  40.757   6.615
 5229POPC   C3A66473  19.850  40.758   6.951
 5229POPC   C4A66474  20.011  40.996   7.295
 5229POPC   C1B66475  20.168  40.481   6.173
 5229POPC   C2B66476  20.050  40.369   6.617
 5229POPC   C3B66477  20.195  40.378   7.039
 5229POPC   C4B66478  19.947  40.481   7.392
 5230POPC   NC366479   0.394   8.809   5.456
 5230POPC   PO466480   0.257   9.478   5.507
 5230POPC   GL166481   0.425   9.179   5.833
 5230POPC   GL266482   0.273   8.868   5.972
 5230POPC   C1A66483   0.633   9.180   6.242
 5230POPC   D2A66484   0.464   8.895   6.568
 5230POPC   C3A66485   0.713   8.727   6.920
 5230POPC   C4A66486   0.720   8.921   7.337
 5230POPC   C1B66487   0.114   9.217   6.249
 5230POPC   C2B66488   0.125   9.293   6.675
 5230POPC   C3B66489   0.306   9.059   7.042
 5230POPC   C4B66490   0.340   9.220   7.479
 5231POPC   NC366491  24.517  29.292   5.049
 5231POPC   PO466492  24.330  29.038   5.653
 5231POPC   GL166493  24.530  29.061   6.043
 5231POPC   GL266494  24.547  29.423   5.982
 5231POPC   C1A66495  24.886  29.155   6.328
 5231POPC   D2A66496  24.879  29.390   6.696
 5231POPC   C3A66497  24.652  29.178   6.997
 5231POPC   C4A66498  24.400  29.012   7.324
 5231POPC   C1B66499  24.233  29.414   6.276
 5231POPC   C2B66500  24.335  29.385   6.670
 5231POPC   C3B66501  24.143  29.390   7.076
 5231POPC   C4B66502  24.143  29.368   7.553
 5232POPC   NC366503  25.933  36.950   5.372
 5232POPC   PO466504  26.594  37.162   5.296
 5232POPC   GL166505  26.312  37.125   5.710
 5232POPC   GL266506  25.940  37.254   5.791
 5232POPC   C1A66507  26.137  36.876   6.083
 5232POPC   D2A66508  26.014  36.912   6.564
 5232POPC   C3A66509  26.133  36.800   7.015
 5232POPC   C4A66510  25.916  36.855   7.430
 5232POPC   C1B66511  26.031  37.354   6.236
 5232POPC   C2B66512  26.137  37.400   6.677
 5232POPC   C3B66513  26.018  37.295   7.127
 5232POPC   C4B66514  25.978  37.355   7.574
 5233POPC   NC366515   6.398   5.718   5.496
 5233POPC   PO466516   6.747   6.188   5.258
 5233POPC   GL166517   6.805   5.952   5.713
 5233POPC   GL266518   6.518   5.916   5.942
 5233POPC   C1A66519   6.893   5.773   6.207
 5233POPC   D2A66520   6.835   5.623   6.648
 5233POPC   C3A66521   6.967   5.900   6.967
 5233POPC   C4A66522   6.751   5.941   7.329
 5233POPC   C1B66523   6.340   6.046   6.326
 5233POPC   C2B66524   6.142   5.830   6.657
 5233POPC   C3B66525   6.331   5.757   7.045
 5233POPC   C4B66526   6.239   6.049   7.362
 5234POPC   NC366527  18.802  20.958   5.461
 5234POPC   PO466528  19.093  20.510   5.085
 5234POPC   GL166529  19.037  20.498   5.578
 5234POPC   GL266530  18.677  20.517   5.726
 5234POPC   C1A66531  19.075  20.581   6.057
 5234POPC   D2A66532  18.924  20.333   6.439
 5234POPC   C3A66533  18.871  20.513   6.862
 5234POPC   C4A66534  19.148  20.840   7.081
 5234POPC   C1B66535  18.571  20.597   6.182
 5234POPC   C2B66536  18.511  20.944   6.479
 5234POPC   C3B66537  18.487  21.038   6.923
 5234POPC   C4B66538  18.670  20.815   7.242
 5235POPC   NC366539  40.206  43.827   5.380
 5235POPC   PO466540  39.597  43.688   5.603
 5235POPC   GL166541  39.921  43.865   5.864
 5235POPC   GL266542  40.217  44.092   5.810
 5235POPC   C1A66543  39.882  43.707   6.279
 5235POPC   D2A66544  39.656  43.734   6.655
 5235POPC   C3A66545  39.944  43.742   7.034
 5235POPC   C4A66546  39.894  43.501   7.421
 5235POPC   C1B66547  40.046  44.214   6.211
 5235POPC   C2B66548  40.029  44.066   6.611
 5235POPC   C3B66549  40.063  44.316   6.943
 5235POPC   C4B66550  40.118  44.189   7.322
 5236POPC   NC366551   2.424   2.917   5.437
 5236POPC   PO466552   1.830   2.495   5.444
 5236POPC   GL166553   2.003   2.677   5.804
 5236POPC   GL266554   1.679   2.731   5.959
 5236POPC   C1A66555   2.139   3.040   6.079
 5236POPC   D2A66556   2.129   3.199   6.512
 5236POPC   C3A66557   2.005   2.904   6.812
 5236POPC   C4A66558   1.867   3.050   7.183
 5236POPC   C1B66559   1.848   2.648   6.346
 5236POPC   C2B66560   1.591   2.577   6.686
 5236POPC   C3B66561   1.567   2.662   7.107
 5236POPC   C4B66562   1.824   2.659   7.514
 5237POPC   NC366563  19.473  26.291   5.141
 5237POPC   PO466564  19.076  25.979   5.566
 5237POPC   GL166565  18.900  25.969   5.911
 5237POPC   GL266566  18.794  26.297   5.865
 5237POPC   C1A66567  19.036  26.019   6.297
 5237POPC   D2A66568  18.862  26.070   6.661
 5237POPC   C3A66569  19.188  25.883   6.858
 5237POPC   C4A66570  19.175  25.909   7.274
 5237POPC   C1B66571  18.853  26.488   6.240
 5237POPC   C2B66572  18.960  26.603   6.650
 5237POPC   C3B66573  19.083  26.363   7.037
 5237POPC   C4B66574  19.315  26.380   7.421
 5238POPC   NC366575  41.668  38.533   5.645
 5238POPC   PO466576  40.972  38.274   5.576
 5238POPC   GL166577  41.309  38.242   5.839
 5238POPC   GL266578  41.288  38.585   5.948
 5238POPC   C1A66579  41.631  38.141   6.172
 5238POPC   D2A66580  41.818  38.168   6.563
 5238POPC   C3A66581  41.590  38.410   6.859
 5238POPC   C4A66582  41.502  38.469   7.293
 5238POPC   C1B66583  41.547  38.644   6.314
 5238POPC   C2B66584  41.692  38.915   6.614
 5238POPC   C3B66585  41.706  38.886   7.043
 5238POPC   C4B66586  41.538  38.966   7.446
 5239POPC   NC366587  28.027  22.162   5.291
 5239POPC   PO466588  28.399  21.725   5.638
 5239POPC   GL166589  28.524  22.032   5.905
 5239POPC   GL266590  28.276  22.304   5.913
 5239POPC   C1A66591  28.394  21.975   6.334
 5239POPC   D2A66592  28.327  22.226   6.698
 5239POPC   C3A66593  28.426  22.069   7.122
 5239POPC   C4A66594  28.268  22.037   7.543
 5239POPC   C1B66595  28.581  22.445   6.257
 5239POPC   C2B66596  28.694  22.637   6.646
 5239POPC   C3B66597  28.443  22.593   7.033
 5239POPC   C4B66598  28.454  22.529   7.497
 5240POPC   NC366599   0.827  34.479   5.449
 5240POPC   PO466600   1.535  34.254   5.444
 5240POPC   GL166601   1.204  34.482   5.810
 5240POPC   GL266602   0.888  34.698   5.916
 5240POPC   C1A66603   0.994  34.313   6.221
 5240POPC   D2A66604   1.160  34.373   6.621
 5240POPC   C3A66605   1.066  34.246   7.018
 5240POPC   C4A66606   1.378  34.385   7.286
 5240POPC   C1B66607   1.125  34.798   6.304
 5240POPC   C2B66608   1.033  34.843   6.762
 5240POPC   C3B66609   1.112  34.846   7.207
 5240POPC   C4B66610   1.030  34.972   7.649
 5241POPC   NC366611  33.791  22.074   5.507
 5241POPC   PO466612  33.297  21.718   5.561
 5241POPC   GL166613  33.530  21.963   5.934
 5241POPC   GL266614  33.718  22.301   5.940
 5241POPC   C1A66615  33.809  21.992   6.333
 5241POPC   D2A66616  33.706  22.168   6.762
 5241POPC   C3A66617  33.893  21.931   7.125
 5241POPC   C4A66618  34.065  21.773   7.519
 5241POPC   C1B66619  33.491  22.389   6.319
 5241POPC   C2B66620  33.351  22.596   6.697
 5241POPC   C3B66621  33.544  22.549   7.107
 5241POPC   C4B66622  33.772  22.346   7.433
 5242POPC   NC366623   8.778  42.801   5.329
 5242POPC   PO466624   9.017  43.396   5.142
 5242POPC   GL166625   9.028  43.182   5.630
 5242POPC   GL266626   8.875  42.852   5.810
 5242POPC   C1A66627   8.909  43.228   6.129
 5242POPC   D2A66628   8.917  42.997   6.524
 5242POPC   C3A66629   9.166  43.232   6.800
 5242POPC   C4A66630   9.159  43.242   7.230
 5242POPC   C1B66631   9.208  42.806   6.131
 5242POPC   C2B66632   9.407  42.770   6.547
 5242POPC   C3B66633   9.264  42.758   6.946
 5242POPC   C4B66634   9.459  42.838   7.328
 5243POPC   NC366635  40.147  18.233   5.368
 5243POPC   PO466636  39.682  17.894   5.558
 5243POPC   GL166637  39.915  18.050   5.923
 5243POPC   GL266638  40.092  18.370   5.875
 5243POPC   C1A66639  40.038  18.081   6.366
 5243POPC   D2A66640  40.348  18.228   6.663
 5243POPC   C3A66641  40.185  18.095   7.050
 5243POPC   C4A66642  39.771  18.032   7.112
 5243POPC   C1B66643  39.782  18.495   6.205
 5243POPC   C2B66644  39.987  18.577   6.595
 5243POPC   C3B66645  40.140  18.591   7.013
 5243POPC   C4B66646  39.919  18.536   7.406
 5244POPC   NC366647  32.288  33.369   5.227
 5244POPC   PO466648  32.807  32.984   5.247
 5244POPC   GL166649  32.371  32.854   5.569
 5244POPC   GL266650  32.101  33.058   5.725
 5244POPC   C1A66651  32.361  32.785   6.069
 5244POPC   D2A66652  32.335  32.985   6.504
 5244POPC   C3A66653  32.338  32.866   6.966
 5244POPC   C4A66654  32.462  33.172   7.274
 5244POPC   C1B66655  32.112  33.292   6.155
 5244POPC   C2B66656  32.109  33.447   6.608
 5244POPC   C3B66657  32.025  33.289   7.046
 5244POPC   C4B66658  32.040  33.288   7.514
 5245POPC   NC366659  37.932  14.184   5.474
 5245POPC   PO466660  37.350  14.557   5.516
 5245POPC   GL166661  37.590  14.361   5.805
 5245POPC   GL266662  37.827  14.626   5.820
 5245POPC   C1A66663  37.603  14.137   6.181
 5245POPC   D2A66664  37.380  14.290   6.549
 5245POPC   C3A66665  37.564  14.170   6.895
 5245POPC   C4A66666  37.410  14.227   7.290
 5245POPC   C1B66667  37.681  14.639   6.251
 5245POPC   C2B66668  37.727  14.722   6.691
 5245POPC   C3B66669  37.742  14.586   7.108
 5245POPC   C4B66670  37.979  14.268   7.272
 5246POPC   NC366671   1.815  24.947   5.520
 5246POPC   PO466672   2.284  24.446   5.512
 5246POPC   GL166673   2.115  24.529   5.912
 5246POPC   GL266674   1.814  24.442   5.792
 5246POPC   C1A66675   2.040  24.253   6.304
 5246POPC   D2A66676   2.182  24.227   6.761
 5246POPC   C3A66677   2.126  24.436   7.184
 5246POPC   C4A66678   2.198  24.723   7.579
 5246POPC   C1B66679   1.647  24.592   6.172
 5246POPC   C2B66680   1.468  24.555   6.578
 5246POPC   C3B66681   1.657  24.505   6.969
 5246POPC   C4B66682   1.680  24.120   7.211
 5247POPC   NC366683  27.435  14.526   5.335
 5247POPC   PO466684  28.042  14.288   5.447
 5247POPC   GL166685  27.687  14.290   5.752
 5247POPC   GL266686  27.405  14.047   5.715
 5247POPC   C1A66687  27.702  14.484   6.163
 5247POPC   D2A66688  27.841  14.702   6.536
 5247POPC   C3A66689  27.795  14.570   6.976
 5247POPC   C4A66690  27.833  14.850   7.340
 5247POPC   C1B66691  27.250  14.234   6.115
 5247POPC   C2B66692  27.419  14.284   6.542
 5247POPC   C3B66693  27.329  14.342   6.977
 5247POPC   C4B66694  27.426  14.465   7.391
 5248POPC   NC366695  19.884  35.179   5.495
 5248POPC   PO466696  19.487  35.773   5.408
 5248POPC   GL166697  19.673  35.561   5.787
 5248POPC   GL266698  19.999  35.589   5.858
 5248POPC   C1A66699  19.665  35.411   6.234
 5248POPC   D2A66700  19.587  35.615   6.636
 5248POPC   C3A66701  19.692  35.355   7.004
 5248POPC   C4A66702  19.870  35.022   7.274
 5248POPC   C1B66703  20.176  35.508   6.254
 5248POPC   C2B66704  20.081  35.431   6.660
 5248POPC   C3B66705  20.262  35.263   7.029
 5248POPC   C4B66706  20.073  35.480   7.338
 5249POPC   NC366707  23.759   7.351   5.302
 5249POPC   PO466708  24.293   7.429   5.682
 5249POPC   GL166709  23.867   7.432   5.798
 5249POPC   GL266710  23.842   7.751   5.896
 5249POPC   C1A66711  23.639   7.345   6.175
 5249POPC   D2A66712  23.589   7.060   6.550
 5249POPC   C3A66713  23.340   7.218   6.916
 5249POPC   C4A66714  23.511   7.286   7.332
 5249POPC   C1B66715  24.074   7.655   6.287
 5249POPC   C2B66716  24.021   7.708   6.744
 5249POPC   C3B66717  23.757   7.697   7.117
 5249POPC   C4B66718  23.321   7.716   7.120
 5250POPC   NC366719   4.406  31.255   5.476
 5250POPC   PO466720   4.474  31.954   5.653
 5250POPC   GL166721   4.292  31.609   5.841
 5250POPC   GL266722   4.588  31.481   5.890
 5250POPC   C1A66723   4.130  31.467   6.206
 5250POPC   D2A66724   3.950  31.579   6.611
 5250POPC   C3A66725   4.302  31.627   6.882
 5250POPC   C4A66726   4.400  31.418   7.231
 5250POPC   C1B66727   4.590  31.175   6.181
 5250POPC   C2B66728   4.422  31.222   6.562
 5250POPC   C3B66729   4.641  31.096   6.898
 5250POPC   C4B66730   4.690  31.028   7.291
 5251POPC   NC366731  20.022  39.755   5.634
 5251POPC   PO466732  19.838  39.152   5.310
 5251POPC   GL166733  19.818  39.281   5.767
 5251POPC   GL266734  19.471  39.455   5.747
 5251POPC   C1A66735  20.057  39.274   6.235
 5251POPC   D2A66736  20.105  39.380   6.720
 5251POPC   C3A66737  20.101  39.101   7.115
 5251POPC   C4A66738  20.051  38.893   7.554
 5251POPC   C1B66739  19.635  39.558   6.169
 5251POPC   C2B66740  19.578  39.346   6.564
 5251POPC   C3B66741  19.663  39.377   7.008
 5251POPC   C4B66742  19.739  39.276   7.455
 5252POPC   NC366743  36.482   6.764   5.548
 5252POPC   PO466744  35.850   6.700   5.367
 5252POPC   GL166745  35.820   6.556   5.791
 5252POPC   GL266746  36.156   6.530   5.861
 5252POPC   C1A66747  35.810   6.689   6.244
 5252POPC   D2A66748  35.772   6.939   6.671
 5252POPC   C3A66749  35.800   6.697   7.086
 5252POPC   C4A66750  35.825   6.655   7.528
 5252POPC   C1B66751  36.275   6.468   6.272
 5252POPC   C2B66752  36.144   6.606   6.661
 5252POPC   C3B66753  36.236   6.925   6.977
 5252POPC   C4B66754  36.298   6.654   7.314
 5253POPC   NC366755   4.443  36.527   5.157
 5253POPC   PO466756   3.941  36.817   5.506
 5253POPC   GL166757   3.935  36.575   5.866
 5253POPC   GL266758   4.290  36.487   5.798
 5253POPC   C1A66759   4.038  36.639   6.313
 5253POPC   D2A66760   4.299  36.965   6.495
 5253POPC   C3A66761   4.309  37.098   6.915
 5253POPC   C4A66762   4.209  36.856   7.272
 5253POPC   C1B66763   4.535  36.633   6.163
 5253POPC   C2B66764   4.613  36.505   6.582
 5253POPC   C3B66765   4.599  36.667   6.986
 5253POPC   C4B66766   4.707  36.715   7.404
 5254POPC   NC366767   5.150  15.975   5.036
 5254POPC   PO466768   4.848  15.518   5.543
 5254POPC   GL166769   4.831  15.736   5.918
 5254POPC   GL266770   4.758  16.054   5.806
 5254POPC   C1A66771   5.086  15.939   6.270
 5254POPC   D2A66772   4.971  15.934   6.716
 5254POPC   C3A66773   5.263  16.038   7.029
 5254POPC   C4A66774   5.208  15.798   7.384
 5254POPC   C1B66775   4.704  16.325   6.164
 5254POPC   C2B66776   4.646  16.358   6.623
 5254POPC   C3B66777   4.581  16.276   7.095
 5254POPC   C4B66778   4.764  16.216   7.509
 5255POPC   NC366779  20.226  17.714   5.553
 5255POPC   PO466780  19.538  17.776   5.548
 5255POPC   GL166781  19.829  17.584   5.850
 5255POPC   GL266782  19.746  17.226   5.818
 5255POPC   C1A66783  19.790  17.628   6.283
 5255POPC   D2A66784  19.935  17.753   6.677
 5255POPC   C3A66785  19.750  17.566   7.049
 5255POPC   C4A66786  19.880  17.437   7.450
 5255POPC   C1B66787  19.917  17.127   6.214
 5255POPC   C2B66788  19.857  17.221   6.625
 5255POPC   C3B66789  20.003  17.141   7.024
 5255POPC   C4B66790  19.649  17.051   7.258
 5256POPC   NC366791   4.451  28.754   5.341
 5256POPC   PO466792   4.158  28.217   5.409
 5256POPC   GL166793   4.184  28.483   5.803
 5256POPC   GL266794   4.496  28.675   5.899
 5256POPC   C1A66795   4.184  28.385   6.262
 5256POPC   D2A66796   4.338  28.326   6.719
 5256POPC   C3A66797   4.146  28.288   7.137
 5256POPC   C4A66798   4.216  28.564   7.477
 5256POPC   C1B66799   4.434  28.893   6.337
 5256POPC   C2B66800   4.640  28.810   6.765
 5256POPC   C3B66801   4.637  28.494   7.120
 5256POPC   C4B66802   4.796  28.377   7.532
 5257POPC   NC366803   7.711  30.684   5.433
 5257POPC   PO466804   7.574  31.328   5.422
 5257POPC   GL166805   7.456  31.014   5.784
 5257POPC   GL266806   7.362  30.665   5.835
 5257POPC   C1A66807   7.617  30.966   6.210
 5257POPC   D2A66808   7.609  30.726   6.579
 5257POPC   C3A66809   7.688  30.931   6.932
 5257POPC   C4A66810   7.669  30.749   7.301
 5257POPC   C1B66811   7.162  30.698   6.247
 5257POPC   C2B66812   6.965  30.639   6.664
 5257POPC   C3B66813   7.245  30.695   7.002
 5257POPC   C4B66814   7.252  30.467   7.392
 5258POPC   NC366815  24.156   4.593   5.497
 5258POPC   PO466816  24.191   3.890   5.552
 5258POPC   GL166817  24.293   4.156   5.908
 5258POPC   GL266818  24.416   4.487   5.921
 5258POPC   C1A66819  24.188   4.313   6.324
 5258POPC   D2A66820  24.462   4.339   6.706
 5258POPC   C3A66821  24.353   4.165   7.128
 5258POPC   C4A66822  24.512   4.082   7.578
 5258POPC   C1B66823  24.683   4.578   6.267
 5258POPC   C2B66824  24.864   4.672   6.652
 5258POPC   C3B66825  24.811   4.590   7.095
 5258POPC   C4B66826  24.859   4.563   7.554
 5259POPC   NC366827   1.816   1.245   5.345
 5259POPC   PO466828   2.387   0.979   5.566
 5259POPC   GL166829   2.092   1.258   5.804
 5259POPC   GL266830   1.712   1.177   5.858
 5259POPC   C1A66831   2.063   1.235   6.253
 5259POPC   D2A66832   1.908   1.046   6.613
 5259POPC   C3A66833   2.084   1.214   6.969
 5259POPC   C4A66834   2.414   1.535   7.060
 5259POPC   C1B66835   1.545   1.266   6.261
 5259POPC   C2B66836   1.675   1.508   6.586
 5259POPC   C3B66837   1.509   1.325   6.925
 5259POPC   C4B66838   1.679   1.338   7.271
 5260POPC   NC366839   1.794  21.605   5.533
 5260POPC   PO466840   2.183  21.125   5.546
 5260POPC   GL166841   2.037  21.327   5.925
 5260POPC   GL266842   1.682  21.304   5.940
 5260POPC   C1A66843   1.900  21.454   6.367
 5260POPC   D2A66844   1.646  21.473   6.743
 5260POPC   C3A66845   1.912  21.444   7.107
 5260POPC   C4A66846   2.046  21.050   7.302
 5260POPC   C1B66847   1.698  20.993   6.260
 5260POPC   C2B66848   1.775  20.854   6.686
 5260POPC   C3B66849   1.596  21.023   7.068
 5260POPC   C4B66850   1.616  21.255   7.481
 5261POPC   NC366851  10.877  43.675   5.380
 5261POPC   PO466852  11.335  44.269   5.438
 5261POPC   GL166853  11.202  43.999   5.764
 5261POPC   GL266854  11.304  43.659   5.714
 5261POPC   C1A66855  11.120  43.949   6.200
 5261POPC   D2A66856  11.023  43.893   6.617
 5261POPC   C3A66857  11.284  43.972   6.975
 5261POPC   C4A66858  11.342  44.142   7.368
 5261POPC   C1B66859  11.375  43.417   6.087
 5261POPC   C2B66860  11.391  43.548   6.504
 5261POPC   C3B66861  11.413  43.469   6.950
 5261POPC   C4B66862  11.393  43.625   7.373
 5262POPC   NC366863  36.106   4.195   5.466
 5262POPC   PO466864  35.765   4.751   5.634
 5262POPC   GL166865  35.955   4.497   5.956
 5262POPC   GL266866  36.314   4.441   5.926
 5262POPC   C1A66867  35.997   4.463   6.409
 5262POPC   D2A66868  36.289   4.321   6.707
 5262POPC   C3A66869  36.123   4.336   7.098
 5262POPC   C4A66870  35.945   4.695   7.303
 5262POPC   C1B66871  36.268   4.078   6.233
 5262POPC   C2B66872  36.197   3.833   6.583
 5262POPC   C3B66873  36.365   3.891   6.997
 5262POPC   C4B66874  36.153   3.894   7.384
 5263POPC   NC366875  34.230  17.405   5.436
 5263POPC   PO466876  34.969  17.563   5.407
 5263POPC   GL166877  34.639  17.544   5.773
 5263POPC   GL266878  34.549  17.234   5.930
 5263POPC   C1A66879  34.602  17.605   6.273
 5263POPC   D2A66880  34.617  17.380   6.686
 5263POPC   C3A66881  34.578  17.492   7.127
 5263POPC   C4A66882  34.910  17.616   7.433
 5263POPC   C1B66883  34.269  17.211   6.357
 5263POPC   C2B66884  34.160  17.200   6.833
 5263POPC   C3B66885  34.138  17.309   7.260
 5263POPC   C4B66886  34.430  17.419   7.626
 5264POPC   NC366887  12.731  36.261   5.420
 5264POPC   PO466888  12.989  35.686   5.460
 5264POPC   GL166889  13.096  35.963   5.778
 5264POPC   GL266890  12.783  36.125   5.917
 5264POPC   C1A66891  13.173  35.953   6.205
 5264POPC   D2A66892  12.883  36.059   6.512
 5264POPC   C3A66893  13.004  36.118   6.935
 5264POPC   C4A66894  12.803  36.013   7.329
 5264POPC   C1B66895  12.567  36.391   6.236
 5264POPC   C2B66896  12.667  36.499   6.676
 5264POPC   C3B66897  12.516  36.351   7.078
 5264POPC   C4B66898  12.481  36.331   7.542
 5265POPC   NC366899  22.403  36.729   5.331
 5265POPC   PO466900  21.727  36.609   5.355
 5265POPC   GL166901  22.019  36.729   5.756
 5265POPC   GL266902  22.004  37.039   5.926
 5265POPC   C1A66903  22.137  36.684   6.231
 5265POPC   D2A66904  22.074  36.952   6.621
 5265POPC   C3A66905  22.231  36.917   7.069
 5265POPC   C4A66906  21.917  36.774   7.409
 5265POPC   C1B66907  21.768  37.339   6.145
 5265POPC   C2B66908  21.726  37.343   6.572
 5265POPC   C3B66909  22.031  37.387   6.901
 5265POPC   C4B66910  21.938  37.277   7.311
 5266POPC   NC366911  41.149   5.837   5.034
 5266POPC   PO466912  41.675   5.974   5.474
 5266POPC   GL166913  41.526   6.000   5.853
 5266POPC   GL266914  41.287   5.710   5.781
 5266POPC   C1A66915  41.740   6.023   6.264
 5266POPC   D2A66916  41.655   6.175   6.683
 5266POPC   C3A66917  41.856   6.087   7.096
 5266POPC   C4A66918  41.834   5.750   7.409
 5266POPC   C1B66919  41.609   5.532   6.081
 5266POPC   C2B66920  41.699   5.573   6.523
 5266POPC   C3B66921  41.592   5.674   6.934
 5266POPC   C4B66922  41.467   5.427   7.250
 5267POPC   NC366923  27.178   5.850   5.359
 5267POPC   PO466924  27.770   5.553   5.463
 5267POPC   GL166925  27.578   5.825   5.762
 5267POPC   GL266926  27.257   5.656   5.810
 5267POPC   C1A66927  27.653   6.081   6.161
 5267POPC   D2A66928  27.613   6.311   6.596
 5267POPC   C3A66929  27.666   6.104   7.000
 5267POPC   C4A66930  27.870   5.994   7.434
 5267POPC   C1B66931  27.146   5.934   6.125
 5267POPC   C2B66932  27.356   5.838   6.495
 5267POPC   C3B66933  27.318   5.692   6.889
 5267POPC   C4B66934  27.509   5.687   7.262
 5268POPC   NC366935  30.315  16.051   5.362
 5268POPC   PO466936  29.730  15.762   5.427
 5268POPC   GL166937  29.839  15.862   5.853
 5268POPC   GL266938  30.043  16.118   5.787
 5268POPC   C1A66939  29.718  15.899   6.301
 5268POPC   D2A66940  29.920  15.661   6.640
 5268POPC   C3A66941  29.963  15.831   7.055
 5268POPC   C4A66942  29.828  16.257   7.071
 5268POPC   C1B66943  30.179  16.171   6.192
 5268POPC   C2B66944  30.077  16.146   6.607
 5268POPC   C3B66945  30.318  16.169   6.957
 5268POPC   C4B66946  30.259  16.170   7.358
 5269POPC   NC366947  24.693  36.006   5.587
 5269POPC   PO466948  24.279  36.471   5.680
 5269POPC   GL166949  24.497  36.281   5.996
 5269POPC   GL266950  24.874  36.262   5.986
 5269POPC   C1A66951  24.407  36.053   6.343
 5269POPC   D2A66952  24.271  36.125   6.765
 5269POPC   C3A66953  24.549  36.411   6.968
 5269POPC   C4A66954  24.722  36.386   7.353
 5269POPC   C1B66955  24.839  36.357   6.399
 5269POPC   C2B66956  24.801  36.063   6.711
 5269POPC   C3B66957  24.694  35.912   7.120
 5269POPC   C4B66958  25.001  35.925   7.451
 5270POPC   NC366959  42.239  30.427   5.479
 5270POPC   PO466960  42.655  31.000   5.361
 5270POPC   GL166961  42.383  30.853   5.736
 5270POPC   GL266962  42.608  30.818   5.960
 5270POPC   C1A66963  42.187  30.665   6.178
 5270POPC   D2A66964  42.033  30.860   6.599
 5270POPC   C3A66965  42.077  30.544   6.943
 5270POPC   C4A66966  42.431  30.450   7.167
 5270POPC   C1B66967  42.626  31.032   6.298
 5270POPC   C2B66968  42.770  30.945   6.683
 5270POPC   C3B66969  42.447  30.926   6.993
 5270POPC   C4B66970  42.365  30.866   7.448
 5271POPC   NC366971  34.855   5.959   5.499
 5271POPC   PO466972  34.230   5.802   5.441
 5271POPC   GL166973  34.432   5.693   5.854
 5271POPC   GL266974  34.794   5.706   5.952
 5271POPC   C1A66975  34.414   5.924   6.261
 5271POPC   D2A66976  34.284   6.113   6.660
 5271POPC   C3A66977  34.617   5.943   6.953
 5271POPC   C4A66978  34.601   5.792   7.385
 5271POPC   C1B66979  35.040   5.512   6.286
 5271POPC   C2B66980  35.108   5.512   6.718
 5271POPC   C3B66981  35.011   5.493   7.157
 5271POPC   C4B66982  35.000   5.587   7.637
 5272POPC   NC366983   0.667   7.754   5.494
 5272POPC   PO466984   0.443   8.352   5.441
 5272POPC   GL166985   0.389   8.144   5.824
 5272POPC   GL266986   0.709   7.992   5.934
 5272POPC   C1A66987   0.419   8.345   6.239
 5272POPC   D2A66988   0.130   8.491   6.563
 5272POPC   C3A66989   0.278   8.479   6.978
 5272POPC   C4A66990   0.377   8.559   7.422
 5272POPC   C1B66991   0.396   7.824   6.234
 5272POPC   C2B66992   0.314   8.019   6.640
 5272POPC   C3B66993   0.511   8.020   7.016
 5272POPC   C4B66994   0.461   7.633   7.141
 5273POPC   NC366995   7.141  39.638   5.401
 5273POPC   PO466996   6.602  39.182   5.484
 5273POPC   GL166997   6.666  39.217   5.905
 5273POPC   GL266998   6.863  39.543   5.887
 5273POPC   C1A66999   6.432  39.103   6.287
 5273POPC   D2A67000   6.527  39.262   6.696
 5273POPC   C3A67001   6.462  39.049   7.086
 5273POPC   C4A67002   6.557  39.059   7.522
 5273POPC   C1B67003   6.575  39.598   6.252
 5273POPC   C2B67004   6.625  39.768   6.669
 5273POPC   C3B67005   6.681  39.553   7.093
 5273POPC   C4B67006   6.364  39.511   7.428
 5274POPC   NC367007   7.877  44.142   5.420
 5274POPC   PO467008   8.553  44.026   5.416
 5274POPC   GL167009   8.371  43.836   5.795
 5274POPC   GL267010   8.009  43.858   5.803
 5274POPC   C1A67011   8.235  43.828   6.248
 5274POPC   D2A67012   8.400  43.881   6.662
 5274POPC   C3A67013   8.414  43.527   6.895
 5274POPC   C4A67014   8.524  43.505   7.302
 5274POPC   C1B67015   7.767  44.014   6.153
 5274POPC   C2B67016   7.705  43.863   6.582
 5274POPC   C3B67017   7.944  43.780   6.964
 5274POPC   C4B67018   8.020  43.413   7.220
 5275POPC   NC367019  10.925  19.300   5.294
 5275POPC   PO467020  10.374  18.980   5.125
 5275POPC   GL167021  10.573  19.043   5.600
 5275POPC   GL267022  10.850  18.864   5.720
 5275POPC   C1A67023  10.507  18.934   6.104
 5275POPC   D2A67024  10.272  19.066   6.493
 5275POPC   C3A67025  10.304  18.887   6.910
 5275POPC   C4A67026  10.257  19.170   7.246
 5275POPC   C1B67027  10.858  19.282   5.991
 5275POPC   C2B67028  10.731  19.314   6.439
 5275POPC   C3B67029  10.647  19.279   6.893
 5275POPC   C4B67030  10.812  19.296   7.321
 5276POPC   NC367031  24.799  43.841   5.338
 5276POPC   PO467032  24.214  43.548   5.370
 5276POPC   GL167033  24.363  43.698   5.761
 5276POPC   GL267034  24.549  44.033   5.735
 5276POPC   C1A67035  24.274  43.935   6.145
 5276POPC   D2A67036  24.280  43.981   6.567
 5276POPC   C3A67037  24.555  43.692   6.726
 5276POPC   C4A67038  24.575  43.643   7.134
 5276POPC   C1B67039  24.712  44.238   6.093
 5276POPC   C2B67040  24.816  44.079   6.491
 5276POPC   C3B67041  24.878  44.089   6.948
 5276POPC   C4B67042  24.696  44.056   7.384
 5277POPC   NC367043  27.168  28.914   5.304
 5277POPC   PO467044  26.782  29.395   5.575
 5277POPC   GL167045  26.839  29.011   5.802
 5277POPC   GL267046  26.502  28.825   5.796
 5277POPC   C1A67047  27.004  29.042   6.226
 5277POPC   D2A67048  26.842  29.047   6.650
 5277POPC   C3A67049  27.116  28.970   7.055
 5277POPC   C4A67050  27.119  29.174   7.499
 5277POPC   C1B67051  26.482  29.094   6.179
 5277POPC   C2B67052  26.304  29.136   6.563
 5277POPC   C3B67053  26.500  29.341   6.886
 5277POPC   C4B67054  26.673  29.263   7.277
 5278POPC   NC367055  36.468  30.405   5.623
 5278POPC   PO467056  36.843  29.930   5.224
 5278POPC   GL167057  36.686  29.826   5.676
 5278POPC   GL267058  37.020  29.784   5.840
 5278POPC   C1A67059  36.610  29.959   6.133
 5278POPC   D2A67060  36.501  29.953   6.564
 5278POPC   C3A67061  36.486  30.234   6.873
 5278POPC   C4A67062  36.820  30.133   7.112
 5278POPC   C1B67063  37.165  29.998   6.233
 5278POPC   C2B67064  37.030  29.965   6.663
 5278POPC   C3B67065  37.088  29.716   7.038
 5278POPC   C4B67066  37.289  29.950   7.391
 5279POPC   NC367067  30.048  41.243   5.426
 5279POPC   PO467068  30.283  41.918   5.392
 5279POPC   GL167069  30.013  41.742   5.772
 5279POPC   GL267070  30.275  41.835   5.980
 5279POPC   C1A67071  29.896  41.678   6.274
 5279POPC   D2A67072  29.971  41.479   6.729
 5279POPC   C3A67073  29.867  41.389   7.189
 5279POPC   C4A67074  29.865  41.201   7.652
 5279POPC   C1B67075  30.414  41.604   6.333
 5279POPC   C2B67076  30.449  41.668   6.763
 5279POPC   C3B67077  30.249  41.746   7.135
 5279POPC   C4B67078  30.121  41.651   7.549
 5280POPC   NC367079  17.322  12.764   5.378
 5280POPC   PO467080  17.801  13.123   5.268
 5280POPC   GL167081  17.703  12.913   5.698
 5280POPC   GL267082  17.393  13.037   5.816
 5280POPC   C1A67083  17.641  12.762   6.174
 5280POPC   D2A67084  17.417  12.773   6.612
 5280POPC   C3A67085  17.714  12.820   6.999
 5280POPC   C4A67086  17.719  12.646   7.431
 5280POPC   C1B67087  17.125  13.186   6.148
 5280POPC   C2B67088  17.226  13.262   6.580
 5280POPC   C3B67089  17.048  13.155   6.973
 5280POPC   C4B67090  17.106  13.080   7.413
 5281POPC   NC367091  27.720   9.199   5.333
 5281POPC   PO467092  27.964   8.694   5.534
 5281POPC   GL167093  27.680   8.883   5.832
 5281POPC   GL267094  27.572   9.198   5.829
 5281POPC   C1A67095  27.458   8.796   6.204
 5281POPC   D2A67096  27.604   8.897   6.615
 5281POPC   C3A67097  27.324   8.820   6.958
 5281POPC   C4A67098  27.598   8.567   7.159
 5281POPC   C1B67099  27.805   9.293   6.229
 5281POPC   C2B67100  27.736   9.389   6.696
 5281POPC   C3B67101  27.664   9.174   7.114
 5281POPC   C4B67102  27.651   9.312   7.563
 5282POPC   NC367103   1.232   0.647   5.427
 5282POPC   PO467104   1.316  44.972   5.388
 5282POPC   GL167105   1.281   0.294   5.816
 5282POPC   GL267106   1.438   0.686   5.879
 5282POPC   C1A67107   1.141   0.477   6.238
 5282POPC   D2A67108   1.006   0.665   6.625
 5282POPC   C3A67109   1.158   0.543   7.044
 5282POPC   C4A67110   1.008   0.292   7.402
 5282POPC   C1B67111   1.593   0.771   6.280
 5282POPC   C2B67112   1.459   0.855   6.707
 5282POPC   C3B67113   1.611   0.797   7.127
 5282POPC   C4B67114   1.403   0.628   7.524
 5283POPC   NC367115  31.657  16.262   5.585
 5283POPC   PO467116  31.668  15.591   5.467
 5283POPC   GL167117  31.525  15.765   5.831
 5283POPC   GL267118  31.210  15.994   5.827
 5283POPC   C1A67119  31.558  15.940   6.227
 5283POPC   D2A67120  31.404  16.101   6.587
 5283POPC   C3A67121  31.602  15.902   6.872
 5283POPC   C4A67122  31.775  16.062   7.208
 5283POPC   C1B67123  31.143  15.638   6.150
 5283POPC   C2B67124  31.308  15.524   6.531
 5283POPC   C3B67125  31.130  15.669   6.892
 5283POPC   C4B67126  31.242  16.000   7.216
 5284POPC   NC367127   5.540   4.982   5.175
 5284POPC   PO467128   6.053   5.440   5.306
 5284POPC   GL167129   5.898   5.107   5.615
 5284POPC   GL267130   6.130   4.877   5.804
 5284POPC   C1A67131   5.731   5.105   6.046
 5284POPC   D2A67132   5.587   5.049   6.465
 5284POPC   C3A67133   5.902   4.899   6.783
 5284POPC   C4A67134   5.902   4.950   7.244
 5284POPC   C1B67135   6.163   4.955   6.270
 5284POPC   C2B67136   5.990   5.334   6.478
 5284POPC   C3B67137   5.995   5.388   6.901
 5284POPC   C4B67138   6.307   5.270   7.200
 5285POPC   NC367139  36.442  36.949   5.438
 5285POPC   PO467140  36.159  36.378   5.486
 5285POPC   GL167141  36.113  36.739   5.786
 5285POPC   GL267142  36.035  37.135   5.670
 5285POPC   C1A67143  36.336  36.870   6.177
 5285POPC   D2A67144  36.432  37.150   6.548
 5285POPC   C3A67145  36.253  36.990   6.932
 5285POPC   C4A67146  36.215  37.093   7.342
 5285POPC   C1B67147  36.039  37.271   6.093
 5285POPC   C2B67148  35.931  37.166   6.531
 5285POPC   C3B67149  35.809  37.258   6.964
 5285POPC   C4B67150  35.614  37.133   7.340
 5286POPC   NC367151  20.737  30.309   5.675
 5286POPC   PO467152  20.388  30.824   5.431
 5286POPC   GL167153  20.468  30.717   5.850
 5286POPC   GL267154  20.799  30.852   5.877
 5286POPC   C1A67155  20.505  30.510   6.284
 5286POPC   D2A67156  20.402  30.331   6.708
 5286POPC   C3A67157  20.461  30.511   7.107
 5286POPC   C4A67158  20.345  30.894   7.281
 5286POPC   C1B67159  20.927  30.826   6.300
 5286POPC   C2B67160  20.915  30.480   6.587
 5286POPC   C3B67161  20.966  30.412   6.996
 5286POPC   C4B67162  20.885  30.783   7.240
 5287POPC   NC367163   5.753  33.530   5.427
 5287POPC   PO467164   5.526  34.169   5.243
 5287POPC   GL167165   5.568  34.032   5.689
 5287POPC   GL267166   5.897  33.920   5.768
 5287POPC   C1A67167   5.598  33.950   6.162
 5287POPC   D2A67168   5.808  34.009   6.548
 5287POPC   C3A67169   5.659  33.818   6.893
 5287POPC   C4A67170   5.722  33.758   7.304
 5287POPC   C1B67171   6.117  34.090   6.144
 5287POPC   C2B67172   6.273  33.850   6.541
 5287POPC   C3B67173   6.171  33.887   6.966
 5287POPC   C4B67174   6.250  33.712   7.367
 5288POPC   NC367175  11.625  19.231   5.565
 5288POPC   PO467176  12.056  18.941   5.137
 5288POPC   GL167177  12.133  19.083   5.690
 5288POPC   GL267178  11.901  19.205   5.980
 5288POPC   C1A67179  12.343  19.060   6.151
 5288POPC   D2A67180  12.286  18.896   6.615
 5288POPC   C3A67181  12.177  19.079   7.042
 5288POPC   C4A67182  12.378  18.934   7.453
 5288POPC   C1B67183  11.720  19.101   6.353
 5288POPC   C2B67184  11.727  18.809   6.672
 5288POPC   C3B67185  11.688  18.868   7.083
 5288POPC   C4B67186  11.709  19.278   7.249
 5289POPC   NC367187  44.542  19.626   5.381
 5289POPC   PO467188   0.200  19.610   5.260
 5289POPC   GL167189  44.910  19.756   5.718
 5289POPC   GL267190  44.495  19.804   5.836
 5289POPC   C1A67191  44.832  19.974   6.150
 5289POPC   D2A67192  44.788  19.785   6.554
 5289POPC   C3A67193  44.573  19.979   6.862
 5289POPC   C4A67194  44.807  19.970   7.233
 5289POPC   C1B67195  44.478  19.572   6.205
 5289POPC   C2B67196  44.322  19.544   6.637
 5289POPC   C3B67197  44.577  19.488   7.034
 5289POPC   C4B67198  44.562  19.597   7.477
 5290POPC   NC367199  16.966  22.426   5.415
 5290POPC   PO467200  16.492  22.019   5.359
 5290POPC   GL167201  16.569  22.288   5.713
 5290POPC   GL267202  16.836  22.051   5.776
 5290POPC   C1A67203  16.790  22.442   6.093
 5290POPC   D2A67204  16.909  22.189   6.449
 5290POPC   C3A67205  16.909  22.384   6.820
 5290POPC   C4A67206  16.859  22.555   7.210
 5290POPC   C1B67207  16.740  21.815   6.131
 5290POPC   C2B67208  16.637  21.741   6.578
 5290POPC   C3B67209  16.898  21.875   6.937
 5290POPC   C4B67210  17.113  21.690   7.265
 5291POPC   NC367211  36.921  30.775   5.271
 5291POPC   PO467212  36.911  30.270   5.645
 5291POPC   GL167213  36.853  30.708   5.779
 5291POPC   GL267214  37.131  30.917   5.735
 5291POPC   C1A67215  36.693  30.752   6.182
 5291POPC   D2A67216  36.783  30.405   6.469
 5291POPC   C3A67217  36.868  30.592   6.859
 5291POPC   C4A67218  36.668  30.600   7.252
 5291POPC   C1B67219  37.235  30.817   6.140
 5291POPC   C2B67220  37.223  30.939   6.535
 5291POPC   C3B67221  37.359  30.839   6.912
 5291POPC   C4B67222  37.107  30.850   7.257
 5292POPC   NC367223  42.828  16.135   5.489
 5292POPC   PO467224  43.449  16.051   5.625
 5292POPC   GL167225  43.126  16.058   5.958
 5292POPC   GL267226  42.857  15.827   5.958
 5292POPC   C1A67227  43.068  15.955   6.423
 5292POPC   D2A67228  43.354  16.065   6.765
 5292POPC   C3A67229  43.184  16.128   7.143
 5292POPC   C4A67230  42.756  16.174   7.169
 5292POPC   C1B67231  42.800  15.539   6.315
 5292POPC   C2B67232  42.794  15.647   6.776
 5292POPC   C3B67233  42.938  15.692   7.208
 5292POPC   C4B67234  43.276  15.606   7.531
 5293POPC   NC367235  44.045   9.598   5.184
 5293POPC   PO467236  43.825  10.130   5.569
 5293POPC   GL167237  44.043   9.895   5.844
 5293POPC   GL267238  43.835   9.578   5.856
 5293POPC   C1A67239  43.934   9.926   6.268
 5293POPC   D2A67240  43.925   9.676   6.643
 5293POPC   C3A67241  43.965   9.943   6.992
 5293POPC   C4A67242  44.201  10.074   7.343
 5293POPC   C1B67243  43.578   9.559   6.256
 5293POPC   C2B67244  43.454   9.478   6.705
 5293POPC   C3B67245  43.665   9.536   7.155
 5293POPC   C4B67246  43.761   9.390   7.606
 5294POPC   NC367247  35.041  43.511   5.312
 5294POPC   PO467248  35.448  42.959   5.350
 5294POPC   GL167249  35.258  43.192   5.673
 5294POPC   GL267250  35.502  43.397   5.775
 5294POPC   C1A67251  35.220  43.109   6.115
 5294POPC   D2A67252  35.144  43.032   6.552
 5294POPC   C3A67253  35.329  43.236   6.907
 5294POPC   C4A67254  35.115  43.241   7.305
 5294POPC   C1B67255  35.722  43.464   6.154
 5294POPC   C2B67256  35.707  43.610   6.596
 5294POPC   C3B67257  35.770  43.678   7.030
 5294POPC   C4B67258  35.640  43.359   7.303
 5295POPC   NC367259   7.490   0.910   5.202
 5295POPC   PO467260   7.617   0.301   5.552
 5295POPC   GL167261   7.397   0.472   5.863
 5295POPC   GL267262   7.108   0.263   5.853
 5295POPC   C1A67263   7.528   0.394   6.295
 5295POPC   D2A67264   7.762   0.375   6.694
 5295POPC   C3A67265   7.618   0.558   7.085
 5295POPC   C4A67266   7.659   0.405   7.535
 5295POPC   C1B67267   7.036   0.582   6.195
 5295POPC   C2B67268   7.222   0.671   6.599
 5295POPC   C3B67269   7.058   0.510   6.942
 5295POPC   C4B67270   7.194   0.453   7.340
 5296POPC   NC367271   2.182  30.118   5.170
 5296POPC   PO467272   1.887  29.713   5.611
 5296POPC   GL167273   1.866  29.798   5.972
 5296POPC   GL267274   1.749  30.135   5.898
 5296POPC   C1A67275   1.873  29.611   6.375
 5296POPC   D2A67276   2.089  29.753   6.722
 5296POPC   C3A67277   1.911  29.841   7.116
 5296POPC   C4A67278   2.162  30.033   7.425
 5296POPC   C1B67279   1.902  30.152   6.316
 5296POPC   C2B67280   1.776  30.170   6.715
 5296POPC   C3B67281   1.881  30.359   7.074
 5296POPC   C4B67282   1.724  30.289   7.502
 5297POPC   NC367283  40.371   5.746   5.428
 5297POPC   PO467284  39.826   6.021   5.479
 5297POPC   GL167285  40.027   5.777   5.815
 5297POPC   GL267286  39.841   5.532   5.955
 5297POPC   C1A67287  40.258   5.679   6.202
 5297POPC   D2A67288  40.264   5.602   6.644
 5297POPC   C3A67289  39.961   5.582   6.950
 5297POPC   C4A67290  40.084   5.909   7.242
 5297POPC   C1B67291  39.783   5.783   6.336
 5297POPC   C2B67292  39.806   5.997   6.719
 5297POPC   C3B67293  39.562   5.881   7.092
 5297POPC   C4B67294  39.690   5.716   7.482
 5298POPC   NC367295  32.488  44.009   5.516
 5298POPC   PO467296  31.839  43.640   5.463
 5298POPC   GL167297  32.078  43.774   5.841
 5298POPC   GL267298  32.037  44.099   5.944
 5298POPC   C1A67299  32.459  43.729   6.130
 5298POPC   D2A67300  32.606  43.491   6.505
 5298POPC   C3A67301  32.353  43.620   6.871
 5298POPC   C4A67302  31.969  43.798   7.052
 5298POPC   C1B67303  32.087  43.984   6.379
 5298POPC   C2B67304  32.180  44.186   6.772
 5298POPC   C3B67305  32.068  44.277   7.185
 5298POPC   C4B67306  32.125  43.978   7.538
 5299POPC   NC367307   0.072   0.254   5.526
 5299POPC   PO467308   0.623   0.579   5.414
 5299POPC   GL167309   0.295   0.685   5.752
 5299POPC   GL267310   0.432   0.372   5.885
 5299POPC   C1A67311   0.239   0.680   6.220
 5299POPC   D2A67312   0.573   0.453   6.458
 5299POPC   C3A67313   0.581   0.573   6.906
 5299POPC   C4A67314   0.167   0.481   7.082
 5299POPC   C1B67315   0.795   0.136   6.048
 5299POPC   C2B67316   0.864   0.016   6.473
 5299POPC   C3B67317   0.641   0.058   6.851
 5299POPC   C4B67318   0.660  44.940   7.286
 5300POPC   NC367319  10.545  38.133   5.378
 5300POPC   PO467320  10.603  37.444   5.419
 5300POPC   GL167321  10.564  37.725   5.770
 5300POPC   GL267322  10.262  37.906   5.761
 5300POPC   C1A67323  10.443  37.663   6.204
 5300POPC   D2A67324  10.344  37.466   6.593
 5300POPC   C3A67325  10.601  37.617   6.920
 5300POPC   C4A67326  10.727  37.438   7.330
 5300POPC   C1B67327  10.258  38.137   6.165
 5300POPC   C2B67328  10.393  38.017   6.591
 5300POPC   C3B67329  10.444  38.164   7.007
 5300POPC   C4B67330  10.364  37.850   7.305
 5301POPC   NC367331  20.473  37.322   5.502
 5301POPC   PO467332  20.765  37.869   5.562
 5301POPC   GL167333  20.639  37.664   5.873
 5301POPC   GL267334  20.920  37.468   5.879
 5301POPC   C1A67335  20.492  37.588   6.277
 5301POPC   D2A67336  20.687  37.546   6.690
 5301POPC   C3A67337  20.354  37.595   6.988
 5301POPC   C4A67338  20.268  37.429   7.405
 5301POPC   C1B67339  20.980  37.701   6.260
 5301POPC   C2B67340  20.884  38.003   6.556
 5301POPC   C3B67341  20.913  37.919   6.996
 5301POPC   C4B67342  20.709  37.705   7.331
 5302POPC   NC367343  31.401   6.198   5.388
 5302POPC   PO467344  31.770   5.577   5.382
 5302POPC   GL167345  31.526   5.783   5.700
 5302POPC   GL267346  31.682   6.072   5.858
 5302POPC   C1A67347  31.395   5.712   6.121
 5302POPC   D2A67348  31.452   5.572   6.526
 5302POPC   C3A67349  31.380   5.915   6.824
 5302POPC   C4A67350  31.246   6.109   7.208
 5302POPC   C1B67351  31.657   6.073   6.354
 5302POPC   C2B67352  31.877   6.214   6.729
 5302POPC   C3B67353  31.818   5.930   7.087
 5302POPC   C4B67354  31.660   5.491   7.029
 5303POPC   NC367355  38.126   1.080   5.435
 5303POPC   PO467356  37.543   1.402   5.431
 5303POPC   GL167357  37.592   1.191   5.796
 5303POPC   GL267358  37.942   1.283   5.884
 5303POPC   C1A67359  37.369   1.270   6.176
 5303POPC   D2A67360  37.243   1.525   6.531
 5303POPC   C3A67361  37.418   1.318   6.896
 5303POPC   C4A67362  37.861   1.192   6.987
 5303POPC   C1B67363  37.868   0.932   6.159
 5303POPC   C2B67364  38.022   0.731   6.543
 5303POPC   C3B67365  37.950   0.681   6.985
 5303POPC   C4B67366  37.932   0.763   7.413
 5304POPC   NC367367   0.876  30.592   5.534
 5304POPC   PO467368   1.553  30.591   5.426
 5304POPC   GL167369   1.383  30.917   5.722
 5304POPC   GL267370   1.014  31.011   5.826
 5304POPC   C1A67371   1.408  30.884   6.177
 5304POPC   D2A67372   1.477  30.465   6.391
 5304POPC   C3A67373   1.354  30.444   6.816
 5304POPC   C4A67374   1.441  30.609   7.221
 5304POPC   C1B67375   0.866  30.827   6.266
 5304POPC   C2B67376   0.860  30.598   6.702
 5304POPC   C3B67377   0.953  30.446   7.149
 5304POPC   C4B67378   1.188  30.256   7.512
 5305POPC   NC367379  30.524  42.479   5.345
 5305POPC   PO467380  31.023  42.097   5.162
 5305POPC   GL167381  30.912  42.303   5.602
 5305POPC   GL267382  30.576  42.201   5.761
 5305POPC   C1A67383  30.996  42.365   6.030
 5305POPC   D2A67384  30.932  42.464   6.446
 5305POPC   C3A67385  31.038  42.243   6.791
 5305POPC   C4A67386  30.872  42.331   7.165
 5305POPC   C1B67387  30.485  42.325   6.190
 5305POPC   C2B67388  30.528  42.193   6.648
 5305POPC   C3B67389  30.383  42.237   7.076
 5305POPC   C4B67390  30.482  42.467   7.481
 5306POPC   NC367391  37.209   1.098   5.320
 5306POPC   PO467392  36.839   1.683   5.303
 5306POPC   GL167393  36.939   1.394   5.674
 5306POPC   GL267394  36.718   1.084   5.717
 5306POPC   C1A67395  36.866   1.406   6.133
 5306POPC   D2A67396  36.633   1.492   6.528
 5306POPC   C3A67397  36.892   1.429   6.896
 5306POPC   C4A67398  37.039   1.220   7.251
 5306POPC   C1B67399  36.874   0.897   6.105
 5306POPC   C2B67400  37.000   1.056   6.512
 5306POPC   C3B67401  36.904   0.887   6.903
 5306POPC   C4B67402  36.692   0.849   7.314
 5307POPC   NC367403  12.016  37.588   5.363
 5307POPC   PO467404  12.486  38.021   5.622
 5307POPC   GL167405  12.152  37.827   5.829
 5307POPC   GL267406  12.237  37.497   5.837
 5307POPC   C1A67407  12.082  37.896   6.257
 5307POPC   D2A67408  12.388  38.043   6.556
 5307POPC   C3A67409  12.201  38.008   6.963
 5307POPC   C4A67410  11.998  37.700   7.219
 5307POPC   C1B67411  12.113  37.366   6.266
 5307POPC   C2B67412  12.181  37.331   6.739
 5307POPC   C3B67413  12.135  37.226   7.184
 5307POPC   C4B67414  11.682  37.254   7.259
 5308POPC   NC367415  34.479   5.356   5.448
 5308POPC   PO467416  34.828   4.694   5.349
 5308POPC   GL167417  34.597   4.863   5.685
 5308POPC   GL267418  34.711   5.184   5.887
 5308POPC   C1A67419  34.540   4.733   6.114
 5308POPC   D2A67420  34.490   4.931   6.519
 5308POPC   C3A67421  34.527   4.836   6.957
 5308POPC   C4A67422  34.887   4.864   7.193
 5308POPC   C1B67423  34.544   5.386   6.296
 5308POPC   C2B67424  34.624   5.353   6.793
 5308POPC   C3B67425  34.585   5.272   7.266
 5308POPC   C4B67426  34.470   5.395   7.703
 5309POPC   NC367427  22.488  31.294   5.524
 5309POPC   PO467428  23.193  31.426   5.569
 5309POPC   GL167429  23.124  31.474   5.962
 5309POPC   GL267430  22.739  31.474   5.946
 5309POPC   C1A67431  23.190  31.428   6.380
 5309POPC   D2A67432  22.844  31.492   6.644
 5309POPC   C3A67433  22.943  31.626   7.034
 5309POPC   C4A67434  23.300  31.470   7.156
 5309POPC   C1B67435  22.735  31.152   6.234
 5309POPC   C2B67436  22.607  30.996   6.606
 5309POPC   C3B67437  22.746  31.114   7.006
 5309POPC   C4B67438  22.643  31.315   7.346
 5310POPC   NC367439   3.140  13.353   5.398
 5310POPC   PO467440   3.592  13.754   5.203
 5310POPC   GL167441   3.633  13.644   5.641
 5310POPC   GL267442   3.310  13.784   5.733
 5310POPC   C1A67443   3.683  13.530   6.095
 5310POPC   D2A67444   3.508  13.715   6.482
 5310POPC   C3A67445   3.587  13.523   6.861
 5310POPC   C4A67446   3.623  13.551   7.283
 5310POPC   C1B67447   3.180  13.485   6.072
 5310POPC   C2B67448   3.138  13.368   6.514
 5310POPC   C3B67449   3.075  13.565   6.906
 5310POPC   C4B67450   3.125  13.378   7.297
 5311POPC   NC367451  14.673  38.090   5.392
 5311POPC   PO467452  14.387  37.462   5.421
 5311POPC   GL167453  14.575  37.728   5.765
 5311POPC   GL267454  14.374  38.033   5.817
 5311POPC   C1A67455  14.534  37.680   6.216
 5311POPC   D2A67456  14.230  37.487   6.471
 5311POPC   C3A67457  14.387  37.335   6.837
 5311POPC   C4A67458  14.422  37.523   7.245
 5311POPC   C1B67459  14.628  38.182   6.156
 5311POPC   C2B67460  14.468  38.084   6.563
 5311POPC   C3B67461  14.500  37.958   7.002
 5311POPC   C4B67462  14.851  37.809   7.248
 5312POPC   NC367463  22.440  11.657   5.487
 5312POPC   PO467464  22.294  11.030   5.614
 5312POPC   GL167465  22.184  11.374   5.867
 5312POPC   GL267466  21.934  11.611   5.735
 5312POPC   C1A67467  22.369  11.511   6.243
 5312POPC   D2A67468  22.437  11.329   6.626
 5312POPC   C3A67469  22.152  11.160   6.902
 5312POPC   C4A67470  22.330  11.325   7.265
 5312POPC   C1B67471  21.936  11.754   6.151
 5312POPC   C2B67472  21.908  11.513   6.568
 5312POPC   C3B67473  21.957  11.622   7.015
 5312POPC   C4B67474  21.951  11.605   7.478
 5313POPC   NC367475  28.772  33.961   5.373
 5313POPC   PO467476  29.402  34.103   5.404
 5313POPC   GL167477  29.159  33.899   5.758
 5313POPC   GL267478  28.899  34.121   5.863
 5313POPC   C1A67479  29.013  33.675   6.166
 5313POPC   D2A67480  28.823  33.735   6.590
 5313POPC   C3A67481  29.011  33.641   6.994
 5313POPC   C4A67482  29.087  33.559   7.438
 5313POPC   C1B67483  29.145  34.177   6.236
 5313POPC   C2B67484  28.921  34.235   6.594
 5313POPC   C3B67485  28.892  34.123   7.000
 5313POPC   C4B67486  29.259  34.147   7.162
 5314POPC   NC367487  21.507  30.134   5.345
 5314POPC   PO467488  21.768  29.558   5.475
 5314POPC   GL167489  21.436  29.844   5.777
 5314POPC   GL267490  21.534  30.185   5.881
 5314POPC   C1A67491  21.137  29.998   6.181
 5314POPC   D2A67492  21.264  30.101   6.663
 5314POPC   C3A67493  21.104  29.889   7.024
 5314POPC   C4A67494  21.235  29.593   7.310
 5314POPC   C1B67495  21.625  29.997   6.292
 5314POPC   C2B67496  21.740  29.890   6.718
 5314POPC   C3B67497  21.594  29.950   7.153
 5314POPC   C4B67498  21.302  30.161   7.434
 5315POPC   NC367499  19.570  24.702   5.516
 5315POPC   PO467500  18.915  24.380   5.536
 5315POPC   GL167501  18.884  24.608   5.955
 5315POPC   GL267502  19.262  24.648   5.922
 5315POPC   C1A67503  18.741  24.410   6.387
 5315POPC   D2A67504  18.914  24.094   6.715
 5315POPC   C3A67505  18.957  24.323   7.116
 5315POPC   C4A67506  18.727  24.729   7.219
 5315POPC   C1B67507  19.200  24.304   6.205
 5315POPC   C2B67508  19.192  24.498   6.610
 5315POPC   C3B67509  19.112  24.816   6.900
 5315POPC   C4B67510  19.235  24.721   7.327
 5316POPC   NC367511   0.968  10.082   5.396
 5316POPC   PO467512   1.226  10.714   5.465
 5316POPC   GL167513   1.001  10.665   5.862
 5316POPC   GL267514   0.807  10.356   5.857
 5316POPC   C1A67515   1.094  10.787   6.322
 5316POPC   D2A67516   0.933  10.832   6.777
 5316POPC   C3A67517   1.206  10.755   7.114
 5316POPC   C4A67518   1.482  10.400   7.169
 5316POPC   C1B67519   1.051  10.214   6.216
 5316POPC   C2B67520   1.150  10.351   6.643
 5316POPC   C3B67521   0.999  10.269   7.042
 5316POPC   C4B67522   0.819  10.491   7.362
 5317POPC   NC367523  37.698  20.781   5.511
 5317POPC   PO467524  37.291  20.227   5.499
 5317POPC   GL167525  37.521  20.468   5.855
 5317POPC   GL267526  37.851  20.635   5.959
 5317POPC   C1A67527  37.430  20.793   6.172
 5317POPC   D2A67528  37.493  20.584   6.550
 5317POPC   C3A67529  37.616  20.785   6.921
 5317POPC   C4A67530  37.516  20.639   7.321
 5317POPC   C1B67531  38.024  20.518   6.315
 5317POPC   C2B67532  37.941  20.419   6.710
 5317POPC   C3B67533  38.051  20.567   7.078
 5317POPC   C4B67534  37.987  20.756   7.440
 5318POPC   NC367535  40.722  16.933   5.110
 5318POPC   PO467536  41.141  16.529   5.457
 5318POPC   GL167537  40.825  16.467   5.835
 5318POPC   GL267538  40.950  16.754   6.036
 5318POPC   C1A67539  40.498  16.682   6.211
 5318POPC   D2A67540  40.546  16.627   6.668
 5318POPC   C3A67541  40.769  16.916   6.911
 5318POPC   C4A67542  40.577  16.904   7.301
 5318POPC   C1B67543  40.891  16.407   6.339
 5318POPC   C2B67544  41.044  16.457   6.747
 5318POPC   C3B67545  40.859  16.442   7.133
 5318POPC   C4B67546  41.017  16.710   7.428
 5319POPC   NC367547  15.572   0.358   5.168
 5319POPC   PO467548  16.132   0.642   5.442
 5319POPC   GL167549  15.998   0.515   5.841
 5319POPC   GL267550  16.158   0.223   5.851
 5319POPC   C1A67551  15.764   0.512   6.235
 5319POPC   D2A67552  15.465   0.251   6.480
 5319POPC   C3A67553  15.691   0.214   6.856
 5319POPC   C4A67554  15.834   0.464   7.185
 5319POPC   C1B67555  16.287   0.448   6.244
 5319POPC   C2B67556  16.154   0.498   6.652
 5319POPC   C3B67557  16.331   0.376   7.045
 5319POPC   C4B67558  16.269   0.575   7.438
 5320POPC   NC367559  13.716   0.889   5.378
 5320POPC   PO467560  13.497   0.258   5.534
 5320POPC   GL167561  13.758   0.537   5.763
 5320POPC   GL267562  13.498   0.454   6.022
 5320POPC   C1A67563  13.880   0.760   6.149
 5320POPC   D2A67564  13.678   0.537   6.506
 5320POPC   C3A67565  13.836   0.462   6.914
 5320POPC   C4A67566  13.744   0.268   7.311
 5320POPC   C1B67567  13.183   0.571   6.332
 5320POPC   C2B67568  13.253   0.693   6.781
 5320POPC   C3B67569  13.284   0.591   7.224
 5320POPC   C4B67570  13.006   0.578   7.565
 5321POPC   NC367571   9.284  25.246   5.417
 5321POPC   PO467572   8.613  25.530   5.401
 5321POPC   GL167573   8.897  25.444   5.749
 5321POPC   GL267574   8.971  25.065   5.782
 5321POPC   C1A67575   8.695  25.343   6.139
 5321POPC   D2A67576   8.713  25.017   6.429
 5321POPC   C3A67577   8.656  25.170   6.828
 5321POPC   C4A67578   8.800  25.407   7.190
 5321POPC   C1B67579   9.171  25.179   6.161
 5321POPC   C2B67580   9.209  25.018   6.569
 5321POPC   C3B67581   9.155  25.174   6.920
 5321POPC   C4B67582   9.228  25.170   7.324
 5322POPC   NC367583  25.328   2.414   5.362
 5322POPC   PO467584  25.128   1.755   5.365
 5322POPC   GL167585  25.230   2.026   5.743
 5322POPC   GL267586  24.948   2.110   5.940
 5322POPC   C1A67587  25.401   2.032   6.195
 5322POPC   D2A67588  25.209   1.932   6.631
 5322POPC   C3A67589  25.409   1.763   7.022
 5322POPC   C4A67590  25.215   1.845   7.416
 5322POPC   C1B67591  25.007   2.426   6.289
 5322POPC   C2B67592  24.996   2.383   6.740
 5322POPC   C3B67593  25.241   2.250   7.115
 5322POPC   C4B67594  25.297   2.401   7.565
 5323POPC   NC367595   9.727  24.687   5.390
 5323POPC   PO467596  10.225  24.203   5.511
 5323POPC   GL167597   9.863  24.226   5.853
 5323POPC   GL267598   9.701  24.529   5.878
 5323POPC   C1A67599   9.579  24.184   6.229
 5323POPC   D2A67600   9.675  24.143   6.657
 5323POPC   C3A67601   9.728  24.529   6.795
 5323POPC   C4A67602   9.664  24.479   7.199
 5323POPC   C1B67603   9.986  24.588   6.255
 5323POPC   C2B67604  10.143  24.788   6.676
 5323POPC   C3B67605  10.060  24.770   7.139
 5323POPC   C4B67606   9.955  24.660   7.567
 5324POPC   NC367607   6.347   5.017   5.348
 5324POPC   PO467608   6.844   5.451   5.434
 5324POPC   GL167609   6.655   5.413   5.858
 5324POPC   GL267610   6.279   5.404   5.896
 5324POPC   C1A67611   6.722   5.114   6.218
 5324POPC   D2A67612   6.993   5.119   6.589
 5324POPC   C3A67613   6.845   5.097   7.006
 5324POPC   C4A67614   6.781   5.463   7.197
 5324POPC   C1B67615   6.432   5.515   6.328
 5324POPC   C2B67616   6.445   5.184   6.690
 5324POPC   C3B67617   6.377   4.825   7.018
 5324POPC   C4B67618   6.311   4.787   7.491
 5325POPC   NC367619  27.219  33.173   5.479
 5325POPC   PO467620  27.897  33.155   5.369
 5325POPC   GL167621  27.646  33.185   5.801
 5325POPC   GL267622  27.439  32.934   5.894
 5325POPC   C1A67623  27.565  33.401   6.221
 5325POPC   D2A67624  27.549  33.174   6.636
 5325POPC   C3A67625  27.853  33.171   6.950
 5325POPC   C4A67626  27.715  33.182   7.291
 5325POPC   C1B67627  27.509  32.801   6.277
 5325POPC   C2B67628  27.414  32.675   6.695
 5325POPC   C3B67629  27.604  32.740   7.086
 5325POPC   C4B67630  27.514  32.773   7.553
 5326POPC   NC367631   7.274  37.981   5.692
 5326POPC   PO467632   7.810  37.640   5.330
 5326POPC   GL167633   7.667  37.433   5.788
 5326POPC   GL267634   7.301  37.529   5.893
 5326POPC   C1A67635   7.589  37.442   6.271
 5326POPC   D2A67636   7.608  37.729   6.635
 5326POPC   C3A67637   7.623  37.552   7.031
 5326POPC   C4A67638   7.868  37.747   7.345
 5326POPC   C1B67639   7.217  37.788   6.307
 5326POPC   C2B67640   7.085  37.681   6.745
 5326POPC   C3B67641   7.159  37.719   7.179
 5326POPC   C4B67642   7.380  37.623   7.550
 5327POPC   NC367643   2.241  43.987   5.385
 5327POPC   PO467644   2.893  44.095   5.384
 5327POPC   GL167645   2.824  44.180   5.804
 5327POPC   GL267646   2.501  44.332   5.784
 5327POPC   C1A67647   2.884  44.015   6.253
 5327POPC   D2A67648   2.647  43.802   6.584
 5327POPC   C3A67649   2.771  43.719   7.005
 5327POPC   C4A67650   3.039  43.884   7.294
 5327POPC   C1B67651   2.652  44.466   6.182
 5327POPC   C2B67652   2.521  44.310   6.563
 5327POPC   C3B67653   2.339  44.082   6.889
 5327POPC   C4B67654   2.590  44.171   7.219
 5328POPC   NC367655  32.137   6.719   5.313
 5328POPC   PO467656  32.691   6.359   5.160
 5328POPC   GL167657  32.537   6.477   5.659
 5328POPC   GL267658  32.310   6.787   5.787
 5328POPC   C1A67659  32.505   6.529   6.158
 5328POPC   D2A67660  32.271   6.567   6.560
 5328POPC   C3A67661  32.505   6.689   6.931
 5328POPC   C4A67662  32.577   6.498   7.294
 5328POPC   C1B67663  32.023   6.836   6.173
 5328POPC   C2B67664  31.785   6.723   6.570
 5328POPC   C3B67665  31.981   6.729   6.984
 5328POPC   C4B67666  32.205   6.827   7.366
 5329POPC   NC367667  37.474  31.817   5.348
 5329POPC   PO467668  37.081  31.223   5.344
 5329POPC   GL167669  36.990  31.435   5.728
 5329POPC   GL267670  36.711  31.228   5.881
 5329POPC   C1A67671  37.134  31.710   6.072
 5329POPC   D2A67672  37.263  31.587   6.485
 5329POPC   C3A67673  37.033  31.647   6.870
 5329POPC   C4A67674  37.056  31.390   7.256
 5329POPC   C1B67675  36.612  31.665   6.043
 5329POPC   C2B67676  36.704  31.819   6.454
 5329POPC   C3B67677  36.535  31.817   6.853
 5329POPC   C4B67678  36.522  31.580   7.232
 5330POPC   NC367679   2.547   3.773   5.421
 5330POPC   PO467680   2.893   3.141   5.408
 5330POPC   GL167681   2.942   3.225   5.812
 5330POPC   GL267682   2.615   3.355   5.832
 5330POPC   C1A67683   3.074   3.309   6.230
 5330POPC   D2A67684   3.110   3.694   6.488
 5330POPC   C3A67685   2.977   3.613   6.895
 5330POPC   C4A67686   2.885   3.262   7.192
 5330POPC   C1B67687   2.779   3.713   6.076
 5330POPC   C2B67688   2.619   3.901   6.470
 5330POPC   C3B67689   2.604   3.952   6.905
 5330POPC   C4B67690   2.377   3.854   7.280
 5331POPC   NC367691  12.323   1.670   5.717
 5331POPC   PO467692  12.182   1.111   5.332
 5331POPC   GL167693  12.104   1.142   5.770
 5331POPC   GL267694  11.966   1.414   5.990
 5331POPC   C1A67695  12.049   0.930   6.154
 5331POPC   D2A67696  11.847   0.891   6.524
 5331POPC   C3A67697  12.034   1.088   6.883
 5331POPC   C4A67698  12.214   1.189   7.293
 5331POPC   C1B67699  12.070   1.403   6.451
 5331POPC   C2B67700  12.147   1.589   6.889
 5331POPC   C3B67701  11.841   1.498   7.203
 5331POPC   C4B67702  11.672   1.060   7.249
 5332POPC   NC367703  11.932  10.264   5.346
 5332POPC   PO467704  12.563  10.431   5.444
 5332POPC   GL167705  12.205  10.467   5.802
 5332POPC   GL267706  11.823  10.494   5.813
 5332POPC   C1A67707  12.083  10.596   6.253
 5332POPC   D2A67708  12.117  10.494   6.699
 5332POPC   C3A67709  12.338  10.816   6.920
 5332POPC   C4A67710  12.216  10.897   7.334
 5332POPC   C1B67711  11.602  10.211   6.137
 5332POPC   C2B67712  11.587  10.036   6.579
 5332POPC   C3B67713  11.719  10.260   6.951
 5332POPC   C4B67714  11.910  10.536   7.201
 5333POPC   NC367715  38.069  30.354   5.432
 5333POPC   PO467716  38.569  30.831   5.246
 5333POPC   GL167717  38.467  30.841   5.706
 5333POPC   GL267718  38.129  30.724   5.799
 5333POPC   C1A67719  38.377  30.961   6.169
 5333POPC   D2A67720  38.153  30.995   6.573
 5333POPC   C3A67721  38.380  30.901   6.994
 5333POPC   C4A67722  38.649  30.690   7.318
 5333POPC   C1B67723  38.063  30.454   6.149
 5333POPC   C2B67724  38.180  30.301   6.562
 5333POPC   C3B67725  38.153  30.366   6.991
 5333POPC   C4B67726  38.158  30.593   7.377
 5334POPC   NC367727  38.990  15.871   5.472
 5334POPC   PO467728  38.359  16.137   5.372
 5334POPC   GL167729  38.543  15.948   5.762
 5334POPC   GL267730  38.792  16.138   5.889
 5334POPC   C1A67731  38.472  15.963   6.236
 5334POPC   D2A67732  38.464  15.658   6.570
 5334POPC   C3A67733  38.497  15.824   6.974
 5334POPC   C4A67734  38.386  16.169   7.241
 5334POPC   C1B67735  38.958  16.189   6.286
 5334POPC   C2B67736  38.787  16.107   6.674
 5334POPC   C3B67737  38.883  16.218   7.078
 5334POPC   C4B67738  38.799  16.297   7.511
 5335POPC   NC367739   6.428  23.697   5.413
 5335POPC   PO467740   5.847  23.499   5.512
 5335POPC   GL167741   6.024  23.642   5.861
 5335POPC   GL267742   6.403  23.503   5.867
 5335POPC   C1A67743   5.797  23.605   6.287
 5335POPC   D2A67744   5.651  23.444   6.730
 5335POPC   C3A67745   5.808  23.690   7.122
 5335POPC   C4A67746   6.067  23.896   7.463
 5335POPC   C1B67747   6.323  23.717   6.239
 5335POPC   C2B67748   6.176  23.547   6.617
 5335POPC   C3B67749   6.129  23.319   6.987
 5335POPC   C4B67750   5.739  23.194   7.221
 5336POPC   NC367751   2.889  36.991   5.265
 5336POPC   PO467752   2.553  37.302   5.556
 5336POPC   GL167753   2.752  37.032   5.820
 5336POPC   GL267754   2.486  36.806   5.815
 5336POPC   C1A67755   2.759  36.898   6.254
 5336POPC   D2A67756   3.029  36.814   6.589
 5336POPC   C3A67757   2.867  36.903   6.964
 5336POPC   C4A67758   2.962  37.246   7.207
 5336POPC   C1B67759   2.378  36.553   6.174
 5336POPC   C2B67760   2.534  36.398   6.564
 5336POPC   C3B67761   2.719  36.362   6.968
 5336POPC   C4B67762   2.666  36.595   7.322
 5337POPC   NC367763  44.168  22.150   5.514
 5337POPC   PO467764  43.504  21.972   5.537
 5337POPC   GL167765  43.815  22.023   5.853
 5337POPC   GL267766  43.920  22.365   5.947
 5337POPC   C1A67767  43.930  21.918   6.265
 5337POPC   D2A67768  43.832  22.197   6.602
 5337POPC   C3A67769  43.933  22.115   7.035
 5337POPC   C4A67770  44.033  22.283   7.435
 5337POPC   C1B67771  43.631  22.558   6.271
 5337POPC   C2B67772  43.533  22.594   6.725
 5337POPC   C3B67773  43.717  22.581   7.135
 5337POPC   C4B67774  43.709  22.621   7.586
 5338POPC   NC367775  26.650  44.594   5.436
 5338POPC   PO467776  27.277  44.319   5.434
 5338POPC   GL167777  27.104  44.513   5.832
 5338POPC   GL267778  26.870  44.794   5.878
 5338POPC   C1A67779  27.043  44.525   6.287
 5338POPC   D2A67780  26.797  44.507   6.656
 5338POPC   C3A67781  26.986  44.555   7.044
 5338POPC   C4A67782  26.716  44.267   7.237
 5338POPC   C1B67783  26.573  44.786   6.270
 5338POPC   C2B67784  26.414  44.856   6.731
 5338POPC   C3B67785  26.510  44.743   7.180
 5338POPC   C4B67786  26.834  44.937   7.480
 5339POPC   NC367787  11.365  31.278   5.215
 5339POPC   PO467788  11.054  31.883   5.357
 5339POPC   GL167789  11.172  31.854   5.794
 5339POPC   GL267790  11.541  31.833   5.790
 5339POPC   C1A67791  11.230  31.580   6.184
 5339POPC   D2A67792  11.300  31.226   6.505
 5339POPC   C3A67793  11.112  31.284   6.921
 5339POPC   C4A67794  11.066  31.713   7.102
 5339POPC   C1B67795  11.647  31.900   6.225
 5339POPC   C2B67796  11.440  31.786   6.619
 5339POPC   C3B67797  11.521  31.923   7.015
 5339POPC   C4B67798  11.731  31.646   7.283
 5340POPC   NC367799   8.737  22.525   5.481
 5340POPC   PO467800   9.007  21.828   5.367
 5340POPC   GL167801   9.000  22.066   5.760
 5340POPC   GL267802   8.640  22.109   5.842
 5340POPC   C1A67803   8.991  22.164   6.218
 5340POPC   D2A67804   8.719  22.044   6.568
 5340POPC   C3A67805   8.829  22.275   6.934
 5340POPC   C4A67806   9.177  22.390   7.200
 5340POPC   C1B67807   8.718  21.734   6.127
 5340POPC   C2B67808   8.809  21.538   6.539
 5340POPC   C3B67809   8.988  21.720   6.915
 5340POPC   C4B67810   8.962  21.941   7.297
 5341POPC   NC367811  41.170  40.220   5.574
 5341POPC   PO467812  41.558  39.717   5.369
 5341POPC   GL167813  41.567  39.911   5.784
 5341POPC   GL267814  41.259  39.912   5.962
 5341POPC   C1A67815  41.724  39.868   6.206
 5341POPC   D2A67816  41.745  40.054   6.588
 5341POPC   C3A67817  41.952  39.798   6.846
 5341POPC   C4A67818  41.964  39.842   7.267
 5341POPC   C1B67819  41.254  40.003   6.381
 5341POPC   C2B67820  41.365  39.707   6.653
 5341POPC   C3B67821  41.473  39.837   7.046
 5341POPC   C4B67822  41.192  40.104   7.257
 5342POPC   NC367823   0.854  39.332   5.448
 5342POPC   PO467824   1.385  38.821   5.502
 5342POPC   GL167825   1.214  39.090   5.796
 5342POPC   GL267826   0.880  39.000   5.867
 5342POPC   C1A67827   1.350  39.342   6.160
 5342POPC   D2A67828   1.462  39.190   6.575
 5342POPC   C3A67829   1.285  39.328   6.989
 5342POPC   C4A67830   0.862  39.500   7.082
 5342POPC   C1B67831   1.143  38.879   6.255
 5342POPC   C2B67832   1.010  38.995   6.657
 5342POPC   C3B67833   1.107  38.846   7.059
 5342POPC   C4B67834   1.283  38.745   7.423
 5343POPC   NC367835  22.631   0.840   5.743
 5343POPC   PO467836  22.927   1.428   5.583
 5343POPC   GL167837  22.913   1.203   5.930
 5343POPC   GL267838  23.245   1.043   5.974
 5343POPC   C1A67839  22.876   1.072   6.353
 5343POPC   D2A67840  22.940   0.866   6.738
 5343POPC   C3A67841  22.767   1.167   7.024
 5343POPC   C4A67842  22.714   1.446   7.364
 5343POPC   C1B67843  23.230   1.433   6.229
 5343POPC   C2B67844  23.302   1.343   6.633
 5343POPC   C3B67845  23.273   1.142   7.011
 5343POPC   C4B67846  23.185   1.535   7.180
 5344POPC   NC367847   0.941  14.513   5.449
 5344POPC   PO467848   1.494  14.043   5.558
 5344POPC   GL167849   1.207  14.244   5.808
 5344POPC   GL267850   0.849  14.145   5.769
 5344POPC   C1A67851   1.242  14.257   6.243
 5344POPC   D2A67852   1.516  14.163   6.599
 5344POPC   C3A67853   1.489  14.505   6.907
 5344POPC   C4A67854   1.189  14.648   7.189
 5344POPC   C1B67855   0.951  13.834   6.156
 5344POPC   C2B67856   1.115  13.826   6.601
 5344POPC   C3B67857   1.159  14.127   6.978
 5344POPC   C4B67858   1.506  14.110   7.297
 5345POPC   NC367859  44.371  11.958   5.526
 5345POPC   PO467860  44.914  12.438   5.398
 5345POPC   GL167861  44.765  12.155   5.801
 5345POPC   GL267862  44.388  12.192   5.966
 5345POPC   C1A67863  44.697  11.842   6.158
 5345POPC   D2A67864  44.769  11.786   6.605
 5345POPC   C3A67865  44.695  12.197   6.853
 5345POPC   C4A67866  44.755  12.156   7.302
 5345POPC   C1B67867  44.189  11.923   6.272
 5345POPC   C2B67868  44.273  11.911   6.716
 5345POPC   C3B67869  44.459  11.803   7.084
 5345POPC   C4B67870  44.338  11.896   7.510
 5346POPC   NC367871   4.622  23.900   5.490
 5346POPC   PO467872   3.976  23.738   5.440
 5346POPC   GL167873   4.269  23.726   5.811
 5346POPC   GL267874   4.620  23.562   5.871
 5346POPC   C1A67875   4.348  23.919   6.180
 5346POPC   D2A67876   4.166  24.057   6.551
 5346POPC   C3A67877   3.987  23.755   6.787
 5346POPC   C4A67878   4.168  23.847   7.174
 5346POPC   C1B67879   4.700  23.425   6.265
 5346POPC   C2B67880   4.474  23.629   6.590
 5346POPC   C3B67881   4.601  23.703   6.971
 5346POPC   C4B67882   4.769  23.362   7.106
 5347POPC   NC367883  33.441  44.315   5.554
 5347POPC   PO467884  33.839  43.760   5.448
 5347POPC   GL167885  33.887  43.860   5.880
 5347POPC   GL267886  33.815  44.205   5.875
 5347POPC   C1A67887  33.909  43.944   6.322
 5347POPC   D2A67888  33.989  43.699   6.673
 5347POPC   C3A67889  33.955  43.956   7.032
 5347POPC   C4A67890  34.155  43.991   7.441
 5347POPC   C1B67891  33.491  44.222   6.243
 5347POPC   C2B67892  33.511  43.973   6.643
 5347POPC   C3B67893  33.420  44.018   7.072
 5347POPC   C4B67894  33.693  44.267   7.343
 5348POPC   NC367895  35.414  25.599   5.069
 5348POPC   PO467896  35.005  25.284   5.419
 5348POPC   GL167897  35.270  25.159   5.758
 5348POPC   GL267898  34.973  25.127   5.904
 5348POPC   C1A67899  35.610  25.115   6.088
 5348POPC   D2A67900  35.641  25.086   6.552
 5348POPC   C3A67901  35.625  25.334   6.951
 5348POPC   C4A67902  35.569  25.158   7.381
 5348POPC   C1B67903  35.131  25.035   6.276
 5348POPC   C2B67904  35.016  25.131   6.655
 5348POPC   C3B67905  35.177  25.069   7.042
 5348POPC   C4B67906  35.132  25.417   7.254
 5349POPC   NC367907  24.771  33.162   5.536
 5349POPC   PO467908  25.307  32.984   5.153
 5349POPC   GL167909  25.282  33.002   5.629
 5349POPC   GL267910  25.071  32.782   5.808
 5349POPC   C1A67911  25.412  32.991   6.112
 5349POPC   D2A67912  25.213  33.115   6.515
 5349POPC   C3A67913  25.372  32.932   6.904
 5349POPC   C4A67914  25.330  33.156   7.256
 5349POPC   C1B67915  24.887  32.803   6.200
 5349POPC   C2B67916  24.732  32.872   6.615
 5349POPC   C3B67917  24.888  33.101   6.959
 5349POPC   C4B67918  24.886  32.938   7.351
 5350POPC   NC367919   2.475  20.835   5.344
 5350POPC   PO467920   3.034  20.608   5.450
 5350POPC   GL167921   2.756  20.760   5.807
 5350POPC   GL267922   3.032  20.952   5.931
 5350POPC   C1A67923   2.615  20.949   6.261
 5350POPC   D2A67924   2.697  20.966   6.737
 5350POPC   C3A67925   2.813  20.692   7.082
 5350POPC   C4A67926   2.794  20.725   7.535
 5350POPC   C1B67927   2.979  20.592   6.264
 5350POPC   C2B67928   3.128  20.544   6.696
 5350POPC   C3B67929   3.232  20.330   7.102
 5350POPC   C4B67930   3.168  20.339   7.565
 5351POPC   NC367931  27.747   4.368   5.306
 5351POPC   PO467932  27.066   4.438   5.487
 5351POPC   GL167933  27.467   4.259   5.734
 5351POPC   GL267934  27.655   4.562   5.837
 5351POPC   C1A67935  27.717   4.157   6.164
 5351POPC   D2A67936  27.685   3.954   6.608
 5351POPC   C3A67937  27.668   4.200   7.019
 5351POPC   C4A67938  27.856   4.178   7.469
 5351POPC   C1B67939  27.312   4.480   6.161
 5351POPC   C2B67940  27.369   4.387   6.601
 5351POPC   C3B67941  27.313   4.574   6.996
 5351POPC   C4B67942  27.335   4.350   7.394
 5352POPC   NC367943  16.159  27.116   5.171
 5352POPC   PO467944  15.646  26.741   5.436
 5352POPC   GL167945  15.798  26.755   5.869
 5352POPC   GL267946  15.936  26.429   6.014
 5352POPC   C1A67947  15.777  27.012   6.257
 5352POPC   D2A67948  15.576  27.080   6.677
 5352POPC   C3A67949  15.850  27.167   7.038
 5352POPC   C4A67950  15.925  27.262   7.503
 5352POPC   C1B67951  16.197  26.712   6.239
 5352POPC   C2B67952  16.167  26.971   6.605
 5352POPC   C3B67953  16.294  26.906   7.029
 5352POPC   C4B67954  15.976  26.766   7.364
 5353POPC   NC367955  31.238   1.852   5.428
 5353POPC   PO467956  31.715   2.229   5.460
 5353POPC   GL167957  31.644   1.916   5.764
 5353POPC   GL267958  31.917   1.670   5.789
 5353POPC   C1A67959  31.346   1.773   6.104
 5353POPC   D2A67960  31.055   1.714   6.456
 5353POPC   C3A67961  31.169   1.729   6.871
 5353POPC   C4A67962  31.352   1.856   7.245
 5353POPC   C1B67963  31.836   1.810   6.232
 5353POPC   C2B67964  31.605   1.795   6.601
 5353POPC   C3B67965  31.768   1.688   7.019
 5353POPC   C4B67966  31.784   1.735   7.504
 5354POPC   NC367967  34.049  12.944   5.545
 5354POPC   PO467968  33.840  12.432   5.290
 5354POPC   GL167969  33.713  12.571   5.736
 5354POPC   GL267970  33.611  12.952   5.799
 5354POPC   C1A67971  33.774  12.443   6.193
 5354POPC   D2A67972  33.652  12.504   6.656
 5354POPC   C3A67973  33.813  12.679   7.070
 5354POPC   C4A67974  33.950  12.490   7.452
 5354POPC   C1B67975  33.841  12.956   6.201
 5354POPC   C2B67976  34.006  12.927   6.630
 5354POPC   C3B67977  33.937  13.171   6.996
 5354POPC   C4B67978  33.588  13.107   7.294
 5355POPC   NC367979  42.182  13.581   5.318
 5355POPC   PO467980  42.743  13.939   5.460
 5355POPC   GL167981  42.415  13.804   5.781
 5355POPC   GL267982  42.198  13.489   5.840
 5355POPC   C1A67983  42.566  13.624   6.166
 5355POPC   D2A67984  42.785  13.654   6.530
 5355POPC   C3A67985  42.561  13.422   6.850
 5355POPC   C4A67986  42.226  13.630   7.043
 5355POPC   C1B67987  42.068  13.776   6.216
 5355POPC   C2B67988  42.047  13.926   6.675
 5355POPC   C3B67989  41.768  13.835   7.062
 5355POPC   C4B67990  41.892  13.560   7.442
 5356POPC   NC367991  18.519  39.772   5.422
 5356POPC   PO467992  17.922  39.934   5.305
 5356POPC   GL167993  18.060  39.861   5.771
 5356POPC   GL267994  18.400  39.729   5.901
 5356POPC   C1A67995  18.079  40.054   6.196
 5356POPC   D2A67996  18.009  40.328   6.573
 5356POPC   C3A67997  17.941  40.195   7.007
 5356POPC   C4A67998  18.189  39.904   7.253
 5356POPC   C1B67999  18.511  39.784   6.303
 5356POPC   C2B68000  18.272  39.875   6.660
 5356POPC   C3B68001  18.434  40.173   6.893
 5356POPC   C4B68002  18.698  40.034   7.230
 5357POPC   NC368003   4.963  44.564   5.445
 5357POPC   PO468004   4.670   0.212   5.342
 5357POPC   GL168005   4.761  44.982   5.715
 5357POPC   GL268006   5.137  44.962   5.742
 5357POPC   C1A68007   4.815  44.746   6.098
 5357POPC   D2A68008   4.695  44.726   6.521
 5357POPC   C3A68009   4.951  44.709   6.887
 5357POPC   C4A68010   4.813  44.798   7.305
 5357POPC   C1B68011   5.348  44.832   6.148
 5357POPC   C2B68012   5.431  44.730   6.585
 5357POPC   C3B68013   5.437  44.577   6.994
 5357POPC   C4B68014   5.325  44.894   7.270
 5358POPC   NC368015  24.858  32.889   5.058
 5358POPC   PO468016  24.353  33.234   5.317
 5358POPC   GL168017  24.298  33.081   5.755
 5358POPC   GL268018  24.511  32.795   5.810
 5358POPC   C1A68019  24.520  33.165   6.158
 5358POPC   D2A68020  24.721  33.361   6.495
 5358POPC   C3A68021  24.488  33.392   6.872
 5358POPC   C4A68022  24.480  33.281   7.310
 5358POPC   C1B68023  24.383  32.681   6.255
 5358POPC   C2B68024  24.325  32.561   6.694
 5358POPC   C3B68025  24.509  32.720   7.085
 5358POPC   C4B68026  24.366  32.836   7.523
 5359POPC   NC368027  20.963   2.720   5.736
 5359POPC   PO468028  21.446   2.989   5.373
 5359POPC   GL168029  21.458   2.863   5.809
 5359POPC   GL268030  21.228   3.078   5.974
 5359POPC   C1A68031  21.541   2.723   6.255
 5359POPC   D2A68032  21.626   2.890   6.685
 5359POPC   C3A68033  21.533   2.689   7.050
 5359POPC   C4A68034  21.135   2.772   7.235
 5359POPC   C1B68035  21.231   3.114   6.419
 5359POPC   C2B68036  20.975   3.053   6.785
 5359POPC   C3B68037  21.006   3.313   7.151
 5359POPC   C4B68038  21.051   3.205   7.567
 5360POPC   NC368039  29.180   9.936   5.475
 5360POPC   PO468040  28.890   9.365   5.454
 5360POPC   GL168041  28.984   9.583   5.836
 5360POPC   GL268042  29.361   9.555   5.855
 5360POPC   C1A68043  28.820   9.634   6.269
 5360POPC   D2A68044  28.868   9.953   6.584
 5360POPC   C3A68045  28.885   9.842   7.008
 5360POPC   C4A68046  29.195   9.962   7.304
 5360POPC   C1B68047  29.273   9.382   6.264
 5360POPC   C2B68048  29.095   9.442   6.696
 5360POPC   C3B68049  29.266   9.459   7.140
 5360POPC   C4B68050  29.309   9.544   7.606
 5361POPC   NC368051  12.784  41.429   5.359
 5361POPC   PO468052  12.663  42.048   5.164
 5361POPC   GL168053  12.766  41.910   5.656
 5361POPC   GL268054  12.608  41.587   5.799
 5361POPC   C1A68055  12.921  41.829   6.112
 5361POPC   D2A68056  12.735  41.699   6.534
 5361POPC   C3A68057  12.914  41.689   6.986
 5361POPC   C4A68058  12.805  41.912   7.366
 5361POPC   C1B68059  12.422  41.310   6.125
 5361POPC   C2B68060  12.396  41.151   6.541
 5361POPC   C3B68061  12.544  41.352   6.885
 5361POPC   C4B68062  12.343  41.567   7.215
 5362POPC   NC368063  37.923  27.571   5.181
 5362POPC   PO468064  37.519  27.311   5.639
 5362POPC   GL168065  37.727  27.511   5.869
 5362POPC   GL268066  37.839  27.784   5.671
 5362POPC   C1A68067  37.861  27.478   6.285
 5362POPC   D2A68068  38.054  27.450   6.683
 5362POPC   C3A68069  37.759  27.335   7.020
 5362POPC   C4A68070  37.535  27.355   7.438
 5362POPC   C1B68071  37.723  27.949   6.095
 5362POPC   C2B68072  37.881  27.939   6.524
 5362POPC   C3B68073  37.874  27.840   6.946
 5362POPC   C4B68074  37.629  27.822   7.271
 5363POPC   NC368075  10.183   9.036   5.462
 5363POPC   PO468076  10.869   8.935   5.469
 5363POPC   GL168077  10.768   8.808   5.885
 5363POPC   GL268078  10.872   9.068   6.106
 5363POPC   C1A68079  10.427   8.789   6.206
 5363POPC   D2A68080  10.163   8.995   6.522
 5363POPC   C3A68081  10.359   9.210   6.903
 5363POPC   C4A68082  10.507   9.259   7.334
 5363POPC   C1B68083  10.691   9.113   6.507
 5363POPC   C2B68084  10.554   8.755   6.755
 5363POPC   C3B68085  10.501   8.727   7.185
 5363POPC   C4B68086  10.825   8.620   7.449
 5364POPC   NC368087  41.250   0.117   5.122
 5364POPC   PO468088  41.565   0.675   5.299
 5364POPC   GL168089  41.707   0.588   5.743
 5364POPC   GL268090  41.409   0.488   5.917
 5364POPC   C1A68091  41.944   0.411   6.127
 5364POPC   D2A68092  41.906   0.129   6.521
 5364POPC   C3A68093  41.535   0.145   6.825
 5364POPC   C4A68094  41.462   0.444   7.198
 5364POPC   C1B68095  41.470   0.344   6.317
 5364POPC   C2B68096  41.425   0.616   6.646
 5364POPC   C3B68097  41.317   0.989   6.834
 5364POPC   C4B68098  41.086   0.825   7.169
 5365POPC   NC368099   5.182  15.862   5.569
 5365POPC   PO468100   5.919  16.006   5.476
 5365POPC   GL168101   6.086  16.162   5.853
 5365POPC   GL268102   6.331  16.446   5.815
 5365POPC   C1A68103   5.880  16.014   6.218
 5365POPC   D2A68104   5.611  16.043   6.593
 5365POPC   C3A68105   5.728  15.783   6.952
 5365POPC   C4A68106   5.783  15.874   7.369
 5365POPC   C1B68107   6.161  16.479   6.243
 5365POPC   C2B68108   6.092  16.227   6.616
 5365POPC   C3B68109   5.932  16.256   6.999
 5365POPC   C4B68110   6.206  16.265   7.319
 5366POPC   NC368111  18.418  29.918   5.461
 5366POPC   PO468112  17.771  29.980   5.295
 5366POPC   GL168113  17.986  29.788   5.722
 5366POPC   GL268114  18.346  29.803   5.934
 5366POPC   C1A68115  17.922  29.706   6.188
 5366POPC   D2A68116  18.034  29.621   6.624
 5366POPC   C3A68117  18.277  29.939   6.843
 5366POPC   C4A68118  18.233  29.949   7.269
 5366POPC   C1B68119  18.467  29.762   6.375
 5366POPC   C2B68120  18.625  29.568   6.773
 5366POPC   C3B68121  18.699  29.787   7.152
 5366POPC   C4B68122  18.651  30.260   7.260
 5367POPC   NC368123  19.427  43.332   5.278
 5367POPC   PO468124  18.878  43.049   5.564
 5367POPC   GL168125  19.078  43.262   5.888
 5367POPC   GL268126  19.376  43.064   5.771
 5367POPC   C1A68127  18.964  43.275   6.358
 5367POPC   D2A68128  18.832  43.097   6.756
 5367POPC   C3A68129  18.719  43.280   7.111
 5367POPC   C4A68130  19.100  43.385   7.173
 5367POPC   C1B68131  19.322  42.945   6.204
 5367POPC   C2B68132  19.148  42.722   6.536
 5367POPC   C3B68133  19.232  42.838   6.930
 5367POPC   C4B68134  19.020  42.852   7.248
 5368POPC   NC368135  29.867  40.181   5.065
 5368POPC   PO468136  29.944  40.774   5.397
 5368POPC   GL168137  29.873  40.901   5.790
 5368POPC   GL268138  29.627  41.211   5.777
 5368POPC   C1A68139  29.926  40.658   6.172
 5368POPC   D2A68140  29.947  40.477   6.586
 5368POPC   C3A68141  30.082  40.727   6.928
 5368POPC   C4A68142  29.920  40.851   7.300
 5368POPC   C1B68143  29.822  41.183   6.196
 5368POPC   C2B68144  29.780  40.970   6.569
 5368POPC   C3B68145  29.613  41.020   6.939
 5368POPC   C4B68146  29.453  41.129   7.344
 5369POPC   NC368147  16.809  26.427   5.494
 5369POPC   PO468148  16.349  26.837   5.464
 5369POPC   GL168149  16.616  26.818   5.809
 5369POPC   GL268150  16.872  27.050   5.863
 5369POPC   C1A68151  16.716  26.663   6.208
 5369POPC   D2A68152  16.551  26.628   6.623
 5369POPC   C3A68153  16.748  26.577   7.006
 5369POPC   C4A68154  16.510  26.547   7.393
 5369POPC   C1B68155  17.081  27.033   6.235
 5369POPC   C2B68156  17.025  26.841   6.617
 5369POPC   C3B68157  17.134  26.987   7.008
 5369POPC   C4B68158  16.956  26.826   7.406
 5370POPC   NC368159   9.139  32.175   5.259
 5370POPC   PO468160   8.660  32.583   5.670
 5370POPC   GL168161   8.773  32.200   5.935
 5370POPC   GL268162   9.058  32.091   6.179
 5370POPC   C1A68163   8.603  32.308   6.297
 5370POPC   D2A68164   8.584  32.559   6.637
 5370POPC   C3A68165   8.610  32.347   7.031
 5370POPC   C4A68166   8.791  32.284   7.429
 5370POPC   C1B68167   9.069  32.471   6.399
 5370POPC   C2B68168   9.071  32.488   6.844
 5370POPC   C3B68169   9.168  32.610   7.246
 5370POPC   C4B68170   9.254  32.363   7.602
 5371POPC   NC368171  10.178   5.753   5.325
 5371POPC   PO468172  10.637   6.221   5.155
 5371POPC   GL168173  10.540   6.063   5.684
 5371POPC   GL268174  10.397   5.723   5.775
 5371POPC   C1A68175  10.546   5.992   6.204
 5371POPC   D2A68176  10.751   5.950   6.677
 5371POPC   C3A68177  10.573   5.974   7.129
 5371POPC   C4A68178  10.763   6.035   7.573
 5371POPC   C1B68179  10.265   5.564   6.143
 5371POPC   C2B68180  10.487   5.548   6.508
 5371POPC   C3B68181  10.576   5.490   6.926
 5371POPC   C4B68182  10.366   5.556   7.334
 5372POPC   NC368183  11.624  14.406   5.450
 5372POPC   PO468184  12.124  13.941   5.458
 5372POPC   GL168185  12.144  14.122   5.834
 5372POPC   GL268186  11.799  14.104   5.860
 5372POPC   C1A68187  12.107  14.406   6.200
 5372POPC   D2A68188  12.001  14.640   6.555
 5372POPC   C3A68189  12.066  14.475   6.972
 5372POPC   C4A68190  12.297  14.329   7.318
 5372POPC   C1B68191  11.939  13.935   6.256
 5372POPC   C2B68192  12.117  14.097   6.627
 5372POPC   C3B68193  11.945  13.984   7.029
 5372POPC   C4B68194  12.108  13.864   7.419
 5373POPC   NC368195  31.410   5.289   5.413
 5373POPC   PO468196  31.779   4.717   5.521
 5373POPC   GL168197  31.470   4.910   5.788
 5373POPC   GL268198  31.523   5.272   5.901
 5373POPC   C1A68199  31.431   4.872   6.218
 5373POPC   D2A68200  31.345   5.056   6.586
 5373POPC   C3A68201  31.404   4.846   6.950
 5373POPC   C4A68202  31.587   5.047   7.267
 5373POPC   C1B68203  31.125   5.282   6.126
 5373POPC   C2B68204  30.944   5.351   6.537
 5373POPC   C3B68205  31.134   5.448   6.907
 5373POPC   C4B68206  31.119   5.198   7.213
 5374POPC   NC368207   3.088  35.509   5.518
 5374POPC   PO468208   2.646  35.134   5.193
 5374POPC   GL168209   2.695  35.203   5.675
 5374POPC   GL268210   3.030  35.152   5.880
 5374POPC   C1A68211   2.586  35.354   6.098
 5374POPC   D2A68212   2.581  35.211   6.510
 5374POPC   C3A68213   2.484  35.552   6.767
 5374POPC   C4A68214   2.425  35.532   7.192
 5374POPC   C1B68215   3.078  35.523   6.176
 5374POPC   C2B68216   2.975  35.520   6.601
 5374POPC   C3B68217   2.868  35.284   6.999
 5374POPC   C4B68218   2.957  35.168   7.433
 5375POPC   NC368219  28.109   1.447   5.431
 5375POPC   PO468220  28.660   1.066   5.587
 5375POPC   GL168221  28.361   1.271   5.828
 5375POPC   GL268222  28.045   1.070   5.806
 5375POPC   C1A68223  28.315   1.419   6.261
 5375POPC   D2A68224  28.103   1.597   6.639
 5375POPC   C3A68225  28.230   1.385   7.024
 5375POPC   C4A68226  28.161   1.425   7.457
 5375POPC   C1B68227  28.291   0.915   6.178
 5375POPC   C2B68228  28.461   0.823   6.614
 5375POPC   C3B68229  28.249   0.841   7.023
 5375POPC   C4B68230  27.886   0.662   7.263
 5376POPC   NC368231  41.978   2.428   5.648
 5376POPC   PO468232  42.431   2.028   5.382
 5376POPC   GL168233  42.442   2.204   5.791
 5376POPC   GL268234  42.150   2.035   5.911
 5376POPC   C1A68235  42.550   2.080   6.244
 5376POPC   D2A68236  42.388   1.829   6.611
 5376POPC   C3A68237  42.357   2.118   6.960
 5376POPC   C4A68238  42.277   2.524   7.135
 5376POPC   C1B68239  41.918   1.851   6.254
 5376POPC   C2B68240  41.866   1.893   6.681
 5376POPC   C3B68241  42.039   1.704   7.035
 5376POPC   C4B68242  42.481   1.640   7.117
 5377POPC   NC368243   1.393  33.663   5.572
 5377POPC   PO468244   0.735  33.892   5.531
 5377POPC   GL168245   1.048  33.976   5.847
 5377POPC   GL268246   1.425  34.042   5.896
 5377POPC   C1A68247   1.139  33.818   6.254
 5377POPC   D2A68248   1.025  33.868   6.650
 5377POPC   C3A68249   1.003  33.473   6.843
 5377POPC   C4A68250   1.015  33.704   7.190
 5377POPC   C1B68251   1.504  34.203   6.279
 5377POPC   C2B68252   1.542  34.005   6.656
 5377POPC   C3B68253   1.474  33.902   7.077
 5377POPC   C4B68254   1.661  34.017   7.456
 5378POPC   NC368255   6.220  31.861   5.363
 5378POPC   PO468256   6.720  31.417   5.291
 5378POPC   GL168257   6.669  31.446   5.757
 5378POPC   GL268258   6.451  31.732   5.844
 5378POPC   C1A68259   6.730  31.517   6.234
 5378POPC   D2A68260   7.053  31.529   6.608
 5378POPC   C3A68261   6.944  31.596   7.055
 5378POPC   C4A68262   6.894  31.276   7.395
 5378POPC   C1B68263   6.198  31.656   6.218
 5378POPC   C2B68264   6.263  31.419   6.600
 5378POPC   C3B68265   6.421  31.415   7.024
 5378POPC   C4B68266   6.409  31.077   7.310
 5379POPC   NC368267  40.386   8.382   5.445
 5379POPC   PO468268  41.046   8.270   5.316
 5379POPC   GL168269  40.843   8.316   5.695
 5379POPC   GL268270  40.962   8.012   5.796
 5379POPC   C1A68271  40.801   8.343   6.148
 5379POPC   D2A68272  40.761   8.127   6.578
 5379POPC   C3A68273  40.819   8.308   7.016
 5379POPC   C4A68274  40.520   8.455   7.337
 5379POPC   C1B68275  41.206   8.050   6.157
 5379POPC   C2B68276  41.239   7.944   6.591
 5379POPC   C3B68277  41.094   7.860   7.023
 5379POPC   C4B68278  41.063   8.033   7.456
 5380POPC   NC368279  16.823  11.967   5.331
 5380POPC   PO468280  16.410  12.499   5.363
 5380POPC   GL168281  16.603  12.228   5.718
 5380POPC   GL268282  16.966  12.030   5.803
 5380POPC   C1A68283  16.733  12.319   6.129
 5380POPC   D2A68284  16.796  11.973   6.406
 5380POPC   C3A68285  16.653  12.100   6.795
 5380POPC   C4A68286  16.677  12.214   7.201
 5380POPC   C1B68287  17.191  11.720   6.088
 5380POPC   C2B68288  17.227  11.726   6.533
 5380POPC   C3B68289  16.960  11.702   6.860
 5380POPC   C4B68290  16.992  11.808   7.277
 5381POPC   NC368291  16.686  24.686   5.215
 5381POPC   PO468292  16.792  25.246   5.493
 5381POPC   GL168293  16.798  25.340   5.918
 5381POPC   GL268294  16.576  25.629   5.849
 5381POPC   C1A68295  16.821  25.074   6.320
 5381POPC   D2A68296  16.789  24.858   6.705
 5381POPC   C3A68297  16.629  25.129   6.950
 5381POPC   C4A68298  16.722  25.153   7.318
 5381POPC   C1B68299  16.607  25.641   6.282
 5381POPC   C2B68300  16.820  25.497   6.650
 5381POPC   C3B68301  16.777  25.637   7.086
 5381POPC   C4B68302  16.899  25.616   7.509
 5382POPC   NC368303   4.863  30.400   5.232
 5382POPC   PO468304   4.292  30.808   5.374
 5382POPC   GL168305   4.213  30.687   5.794
 5382POPC   GL268306   4.204  31.024   5.898
 5382POPC   C1A68307   4.210  30.309   6.126
 5382POPC   D2A68308   3.999  30.206   6.547
 5382POPC   C3A68309   4.257  30.259   6.911
 5382POPC   C4A68310   4.141  30.357   7.297
 5382POPC   C1B68311   4.266  30.793   6.294
 5382POPC   C2B68312   4.324  30.732   6.711
 5382POPC   C3B68313   4.148  31.036   6.958
 5382POPC   C4B68314   4.116  31.003   7.376
 5383POPC   NC368315   9.348  30.228   5.505
 5383POPC   PO468316   9.776  30.689   5.315
 5383POPC   GL168317   9.829  30.520   5.708
 5383POPC   GL268318   9.854  30.826   5.855
 5383POPC   C1A68319   9.765  30.385   6.135
 5383POPC   D2A68320   9.845  30.281   6.566
 5383POPC   C3A68321   9.789  30.487   6.951
 5383POPC   C4A68322   9.749  30.763   7.287
 5383POPC   C1B68323   9.971  30.816   6.309
 5383POPC   C2B68324  10.073  31.103   6.658
 5383POPC   C3B68325  10.181  31.164   7.100
 5383POPC   C4B68326  10.119  31.003   7.541
 5384POPC   NC368327  31.164  28.554   5.391
 5384POPC   PO468328  30.484  28.698   5.443
 5384POPC   GL168329  30.599  28.381   5.786
 5384POPC   GL268330  30.939  28.296   5.800
 5384POPC   C1A68331  30.652  28.353   6.248
 5384POPC   D2A68332  30.488  28.465   6.656
 5384POPC   C3A68333  30.671  28.348   7.040
 5384POPC   C4A68334  30.707  28.441   7.486
 5384POPC   C1B68335  31.013  27.997   6.114
 5384POPC   C2B68336  31.072  28.111   6.508
 5384POPC   C3B68337  31.114  28.129   6.922
 5384POPC   C4B68338  31.176  28.240   7.338
 5385POPC   NC368339  17.342  37.880   5.326
 5385POPC   PO468340  17.587  37.250   5.385
 5385POPC   GL168341  17.569  37.580   5.751
 5385POPC   GL268342  17.785  37.906   5.730
 5385POPC   C1A68343  17.493  37.523   6.215
 5385POPC   D2A68344  17.315  37.646   6.627
 5385POPC   C3A68345  17.232  37.439   7.049
 5385POPC   C4A68346  17.183  37.404   7.519
 5385POPC   C1B68347  17.912  37.892   6.174
 5385POPC   C2B68348  17.854  37.671   6.554
 5385POPC   C3B68349  17.738  37.543   6.930
 5385POPC   C4B68350  17.629  37.752   7.301
 5386POPC   NC368351  44.267  36.472   5.487
 5386POPC   PO468352  43.799  36.955   5.286
 5386POPC   GL168353  44.013  36.977   5.632
 5386POPC   GL268354  43.841  36.672   5.717
 5386POPC   C1A68355  43.987  37.014   6.069
 5386POPC   D2A68356  44.123  36.956   6.477
 5386POPC   C3A68357  43.813  37.101   6.750
 5386POPC   C4A68358  43.948  37.047   7.136
 5386POPC   C1B68359  43.835  36.495   6.110
 5386POPC   C2B68360  43.943  36.463   6.537
 5386POPC   C3B68361  43.904  36.576   6.955
 5386POPC   C4B68362  43.772  36.634   7.371
 5387POPC   NC368363   6.575  29.511   5.427
 5387POPC   PO468364   6.873  28.897   5.500
 5387POPC   GL168365   6.722  29.179   5.818
 5387POPC   GL268366   6.392  29.247   5.864
 5387POPC   C1A68367   6.807  29.214   6.284
 5387POPC   D2A68368   7.063  29.275   6.686
 5387POPC   C3A68369   6.982  29.039   7.077
 5387POPC   C4A68370   6.819  29.078   7.513
 5387POPC   C1B68371   6.401  29.528   6.258
 5387POPC   C2B68372   6.553  29.463   6.717
 5387POPC   C3B68373   6.497  29.449   7.192
 5387POPC   C4B68374   6.395  29.370   7.644
 5388POPC   NC368375   9.505   8.629   5.555
 5388POPC   PO468376   9.758   9.242   5.357
 5388POPC   GL168377   9.767   9.019   5.781
 5388POPC   GL268378   9.443   9.102   5.919
 5388POPC   C1A68379   9.859   8.730   6.176
 5388POPC   D2A68380   9.710   8.764   6.645
 5388POPC   C3A68381  10.036   8.813   6.996
 5388POPC   C4A68382  10.053   9.041   7.400
 5388POPC   C1B68383   9.701   9.189   6.323
 5388POPC   C2B68384   9.814   9.277   6.774
 5388POPC   C3B68385   9.638   9.082   7.113
 5388POPC   C4B68386   9.233   8.958   7.206
 5389POPC   NC368387  19.682  12.794   5.215
 5389POPC   PO468388  19.614  13.188   5.704
 5389POPC   GL168389  19.866  12.868   5.795
 5389POPC   GL268390  19.538  12.682   5.799
 5389POPC   C1A68391  20.040  12.958   6.212
 5389POPC   D2A68392  19.931  12.824   6.615
 5389POPC   C3A68393  19.775  13.113   6.885
 5389POPC   C4A68394  19.920  13.034   7.278
 5389POPC   C1B68395  19.622  12.561   6.252
 5389POPC   C2B68396  19.525  12.544   6.720
 5389POPC   C3B68397  19.788  12.532   7.107
 5389POPC   C4B68398  19.839  12.466   7.576
 5390POPC   NC368399  22.457  42.294   5.476
 5390POPC   PO468400  21.758  42.387   5.450
 5390POPC   GL168401  22.074  42.469   5.807
 5390POPC   GL268402  22.177  42.137   5.910
 5390POPC   C1A68403  22.209  42.622   6.239
 5390POPC   D2A68404  22.390  42.659   6.663
 5390POPC   C3A68405  22.098  42.622   6.989
 5390POPC   C4A68406  22.040  42.248   7.292
 5390POPC   C1B68407  22.158  41.865   6.274
 5390POPC   C2B68408  22.308  41.914   6.692
 5390POPC   C3B68409  22.437  42.226   6.982
 5390POPC   C4B68410  22.531  42.600   7.240
 5391POPC   NC368411   0.973   5.898   5.608
 5391POPC   PO468412   1.521   5.922   5.301
 5391POPC   GL168413   1.436   6.093   5.737
 5391POPC   GL268414   1.275   5.826   6.002
 5391POPC   C1A68415   1.461   6.262   6.157
 5391POPC   D2A68416   1.612   5.984   6.478
 5391POPC   C3A68417   1.389   6.054   6.863
 5391POPC   C4A68418   1.256   5.810   7.207
 5391POPC   C1B68419   0.984   5.544   6.219
 5391POPC   C2B68420   0.798   5.546   6.612
 5391POPC   C3B68421   0.940   5.458   6.993
 5391POPC   C4B68422   0.792   5.601   7.329
 5392POPC   NC368423  34.226  33.657   5.532
 5392POPC   PO468424  34.901  33.787   5.609
 5392POPC   GL168425  34.571  33.983   5.856
 5392POPC   GL268426  34.307  33.755   6.021
 5392POPC   C1A68427  34.575  34.106   6.291
 5392POPC   D2A68428  34.551  33.885   6.673
 5392POPC   C3A68429  34.652  34.004   7.102
 5392POPC   C4A68430  34.375  33.668   7.248
 5392POPC   C1B68431  34.694  33.605   6.205
 5392POPC   C2B68432  34.974  33.635   6.537
 5392POPC   C3B68433  34.870  33.555   6.970
 5392POPC   C4B68434  34.773  33.294   7.326
 5393POPC   NC368435  12.534  37.180   5.556
 5393POPC   PO468436  12.948  36.651   5.200
 5393POPC   GL168437  12.856  36.721   5.644
 5393POPC   GL268438  13.128  36.483   5.730
 5393POPC   C1A68439  12.864  36.930   6.096
 5393POPC   D2A68440  12.923  37.253   6.466
 5393POPC   C3A68441  12.864  37.053   6.882
 5393POPC   C4A68442  12.640  37.109   7.284
 5393POPC   C1B68443  13.091  36.463   6.186
 5393POPC   C2B68444  13.223  36.519   6.612
 5393POPC   C3B68445  13.183  36.686   7.031
 5393POPC   C4B68446  12.868  36.626   7.319
 5394POPC   NC368447   0.293  39.946   5.389
 5394POPC   PO468448   0.890  40.201   5.532
 5394POPC   GL168449   0.509  40.223   5.797
 5394POPC   GL268450   0.133  40.177   5.835
 5394POPC   C1A68451   0.394  40.372   6.224
 5394POPC   D2A68452   0.342  40.064   6.568
 5394POPC   C3A68453   0.256  40.155   6.994
 5394POPC   C4A68454   0.349  39.953   7.396
 5394POPC   C1B68455  44.941  40.111   6.253
 5394POPC   C2B68456  44.949  40.394   6.616
 5394POPC   C3B68457  44.887  40.479   7.044
 5394POPC   C4B68458   0.174  40.447   7.423
 5395POPC   NC368459  20.730  18.458   5.491
 5395POPC   PO468460  20.687  17.804   5.603
 5395POPC   GL168461  20.519  17.981   5.940
 5395POPC   GL268462  20.597  18.325   5.978
 5395POPC   C1A68463  20.339  18.008   6.345
 5395POPC   D2A68464  20.197  18.205   6.735
 5395POPC   C3A68465  20.421  18.086   7.103
 5395POPC   C4A68466  20.757  18.259   7.337
 5395POPC   C1B68467  20.839  18.263   6.378
 5395POPC   C2B68468  20.796  18.408   6.828
 5395POPC   C3B68469  20.951  18.692   7.183
 5395POPC   C4B68470  21.040  18.954   7.597
 5396POPC   NC368471  41.158  33.277   5.666
 5396POPC   PO468472  40.488  33.277   5.516
 5396POPC   GL168473  40.618  33.104   5.899
 5396POPC   GL268474  40.875  32.855   5.865
 5396POPC   C1A68475  40.541  33.016   6.323
 5396POPC   D2A68476  40.822  32.897   6.610
 5396POPC   C3A68477  40.717  33.065   6.984
 5396POPC   C4A68478  40.954  32.938   7.328
 5396POPC   C1B68479  40.724  32.558   6.189
 5396POPC   C2B68480  40.537  32.482   6.604
 5396POPC   C3B68481  40.636  32.572   7.036
 5396POPC   C4B68482  40.463  32.804   7.344
 5397POPC   NC368483  43.750  40.420   5.520
 5397POPC   PO468484  43.642  41.089   5.395
 5397POPC   GL168485  43.536  40.999   5.827
 5397POPC   GL268486  43.480  40.664   5.863
 5397POPC   C1A68487  43.783  40.842   6.224
 5397POPC   D2A68488  43.933  40.822   6.641
 5397POPC   C3A68489  43.773  40.988   6.988
 5397POPC   C4A68490  44.046  40.956   7.294
 5397POPC   C1B68491  43.374  40.541   6.284
 5397POPC   C2B68492  43.548  40.466   6.664
 5397POPC   C3B68493  43.754  40.495   7.058
 5397POPC   C4B68494  43.597  40.710   7.426
 5398POPC   NC368495   2.008  27.471   5.357
 5398POPC   PO468496   1.959  28.148   5.446
 5398POPC   GL168497   1.886  27.762   5.770
 5398POPC   GL268498   2.182  27.537   5.838
 5398POPC   C1A68499   1.773  27.361   6.046
 5398POPC   D2A68500   1.733  27.283   6.516
 5398POPC   C3A68501   1.973  27.448   6.894
 5398POPC   C4A68502   1.967  27.614   7.312
 5398POPC   C1B68503   2.081  27.711   6.267
 5398POPC   C2B68504   2.320  27.755   6.636
 5398POPC   C3B68505   2.484  27.418   6.859
 5398POPC   C4B68506   2.371  27.314   7.255
 5399POPC   NC368507  38.698   5.851   5.467
 5399POPC   PO468508  38.309   6.315   5.612
 5399POPC   GL168509  38.404   5.951   5.902
 5399POPC   GL268510  38.772   5.883   5.995
 5399POPC   C1A68511  38.334   5.884   6.350
 5399POPC   D2A68512  38.465   5.728   6.737
 5399POPC   C3A68513  38.261   5.901   7.060
 5399POPC   C4A68514  38.420   6.246   7.283
 5399POPC   C1B68515  38.695   5.540   6.297
 5399POPC   C2B68516  38.858   5.425   6.694
 5399POPC   C3B68517  38.676   5.461   7.123
 5399POPC   C4B68518  38.829   5.648   7.481
 5400POPC   NC368519  22.542  35.581   5.567
 5400POPC   PO468520  21.945  35.805   5.669
 5400POPC   GL168521  22.154  35.509   5.918
 5400POPC   GL268522  21.908  35.240   5.896
 5400POPC   C1A68523  22.378  35.575   6.312
 5400POPC   D2A68524  22.446  35.383   6.731
 5400POPC   C3A68525  22.463  35.651   7.079
 5400POPC   C4A68526  22.089  35.798   7.243
 5400POPC   C1B68527  21.900  35.347   6.347
 5400POPC   C2B68528  21.928  35.356   6.810
 5400POPC   C3B68529  22.147  35.255   7.203
 5400POPC   C4B68530  22.099  35.016   7.613
 5401POPC   NC368531   5.615  23.102   5.530
 5401POPC   PO468532   5.906  22.520   5.320
 5401POPC   GL168533   5.949  22.775   5.748
 5401POPC   GL268534   6.085  23.109   5.738
 5401POPC   C1A68535   5.696  22.916   6.148
 5401POPC   D2A68536   5.362  22.771   6.472
 5401POPC   C3A68537   5.457  22.830   6.924
 5401POPC   C4A68538   5.648  22.680   7.308
 5401POPC   C1B68539   6.122  23.221   6.180
 5401POPC   C2B68540   5.949  23.058   6.563
 5401POPC   C3B68541   5.963  22.840   6.922
 5401POPC   C4B68542   6.114  22.864   7.320
 5402POPC   NC368543  24.730  11.872   5.418
 5402POPC   PO468544  24.200  12.187   5.346
 5402POPC   GL168545  24.231  12.002   5.763
 5402POPC   GL268546  24.528  11.906   5.882
 5402POPC   C1A68547  24.206  12.153   6.190
 5402POPC   D2A68548  24.399  12.181   6.580
 5402POPC   C3A68549  24.198  12.096   6.939
 5402POPC   C4A68550  24.225  12.368   7.310
 5402POPC   C1B68551  24.753  11.950   6.271
 5402POPC   C2B68552  24.933  12.145   6.603
 5402POPC   C3B68553  24.858  12.058   6.997
 5402POPC   C4B68554  24.721  12.182   7.389
 5403POPC   NC368555  41.216  30.875   5.420
 5403POPC   PO468556  41.751  30.422   5.443
 5403POPC   GL168557  41.584  30.669   5.788
 5403POPC   GL268558  41.263  30.834   5.912
 5403POPC   C1A68559  41.694  30.817   6.195
 5403POPC   D2A68560  41.445  30.828   6.542
 5403POPC   C3A68561  41.615  30.763   6.930
 5403POPC   C4A68562  41.473  30.830   7.356
 5403POPC   C1B68563  41.249  30.447   6.145
 5403POPC   C2B68564  41.070  30.400   6.541
 5403POPC   C3B68565  41.135  30.596   6.918
 5403POPC   C4B68566  41.204  31.058   6.970
 5404POPC   NC368567   6.751  12.287   5.444
 5404POPC   PO468568   6.892  11.689   5.230
 5404POPC   GL168569   6.863  11.871   5.737
 5404POPC   GL268570   6.578  11.734   5.937
 5404POPC   C1A68571   6.702  12.176   6.147
 5404POPC   D2A68572   6.519  12.154   6.604
 5404POPC   C3A68573   6.704  12.344   6.988
 5404POPC   C4A68574   6.794  12.299   7.425
 5404POPC   C1B68575   6.333  11.515   6.231
 5404POPC   C2B68576   6.471  11.467   6.634
 5404POPC   C3B68577   6.647  11.754   6.929
 5404POPC   C4B68578   6.440  11.979   7.241
 5405POPC   NC368579   6.816  34.799   5.247
 5405POPC   PO468580   6.770  34.170   5.307
 5405POPC   GL168581   6.786  34.461   5.695
 5405POPC   GL268582   6.540  34.772   5.739
 5405POPC   C1A68583   6.679  34.502   6.153
 5405POPC   D2A68584   6.639  34.722   6.567
 5405POPC   C3A68585   6.755  34.535   6.976
 5405POPC   C4A68586   6.425  34.296   7.154
 5405POPC   C1B68587   6.339  35.054   6.092
 5405POPC   C2B68588   6.234  35.049   6.548
 5405POPC   C3B68589   6.259  34.781   6.948
 5405POPC   C4B68590   6.333  34.908   7.394
 5406POPC   NC368591   7.845  40.624   5.445
 5406POPC   PO468592   8.098  41.266   5.396
 5406POPC   GL168593   8.016  40.985   5.784
 5406POPC   GL268594   8.126  40.604   5.897
 5406POPC   C1A68595   7.883  40.930   6.202
 5406POPC   D2A68596   7.818  40.659   6.537
 5406POPC   C3A68597   8.006  40.810   6.903
 5406POPC   C4A68598   7.995  40.618   7.266
 5406POPC   C1B68599   8.519  40.681   6.210
 5406POPC   C2B68600   8.678  40.739   6.678
 5406POPC   C3B68601   8.499  40.769   7.135
 5406POPC   C4B68602   8.362  40.717   7.599
 5407POPC   NC368603  22.926  22.034   5.221
 5407POPC   PO468604  22.723  22.482   5.564
 5407POPC   GL168605  22.867  22.173   5.846
 5407POPC   GL268606  23.162  22.299   5.883
 5407POPC   C1A68607  22.947  22.103   6.331
 5407POPC   D2A68608  23.222  22.094   6.729
 5407POPC   C3A68609  23.139  21.753   7.087
 5407POPC   C4A68610  23.218  21.784   7.565
 5407POPC   C1B68611  23.354  22.428   6.273
 5407POPC   C2B68612  23.283  22.632   6.656
 5407POPC   C3B68613  23.191  22.497   7.057
 5407POPC   C4B68614  22.844  22.182   7.091
 5408POPC   NC368615  13.946  21.977   5.654
 5408POPC   PO468616  13.457  22.448   5.552
 5408POPC   GL168617  13.617  22.310   5.875
 5408POPC   GL268618  13.937  22.446   5.896
 5408POPC   C1A68619  13.597  22.185   6.278
 5408POPC   D2A68620  13.370  22.054   6.599
 5408POPC   C3A68621  13.611  22.064   6.966
 5408POPC   C4A68622  13.305  22.076   7.289
 5408POPC   C1B68623  13.691  22.680   6.209
 5408POPC   C2B68624  13.761  22.588   6.629
 5408POPC   C3B68625  13.806  22.609   7.033
 5408POPC   C4B68626  13.696  22.394   7.348
 5409POPC   NC368627   0.146   9.928   5.615
 5409POPC   PO468628  44.637   9.611   5.304
 5409POPC   GL168629  44.589   9.679   5.755
 5409POPC   GL268630  44.327   9.453   5.790
 5409POPC   C1A68631  44.779   9.674   6.185
 5409POPC   D2A68632  44.972   9.815   6.580
 5409POPC   C3A68633  44.820   9.641   6.976
 5409POPC   C4A68634  44.626   9.794   7.386
 5409POPC   C1B68635  44.260   9.560   6.220
 5409POPC   C2B68636  44.440   9.703   6.617
 5409POPC   C3B68637  44.313   9.567   7.042
 5409POPC   C4B68638  44.176   9.198   7.251
 5410POPC   NC368639  23.413  33.792   5.228
 5410POPC   PO468640  22.770  33.882   5.371
 5410POPC   GL168641  23.106  33.759   5.651
 5410POPC   GL268642  22.836  33.616   5.831
 5410POPC   C1A68643  23.235  33.775   6.103
 5410POPC   D2A68644  22.968  33.569   6.412
 5410POPC   C3A68645  23.054  33.664   6.854
 5410POPC   C4A68646  22.906  33.675   7.269
 5410POPC   C1B68647  22.794  34.016   6.097
 5410POPC   C2B68648  22.615  33.964   6.495
 5410POPC   C3B68649  22.661  34.000   6.905
 5410POPC   C4B68650  22.491  33.940   7.281
 5411POPC   NC368651   1.763  35.909   5.598
 5411POPC   PO468652   2.168  36.486   5.475
 5411POPC   GL168653   2.038  36.297   5.829
 5411POPC   GL268654   1.683  36.397   5.784
 5411POPC   C1A68655   2.171  36.080   6.198
 5411POPC   D2A68656   2.117  35.864   6.583
 5411POPC   C3A68657   2.290  36.002   6.966
 5411POPC   C4A68658   2.066  35.888   7.347
 5411POPC   C1B68659   1.670  36.157   6.194
 5411POPC   C2B68660   1.552  36.069   6.591
 5411POPC   C3B68661   1.756  36.013   6.968
 5411POPC   C4B68662   1.572  36.051   7.372
 5412POPC   NC368663   0.336  18.400   5.339
 5412POPC   PO468664   0.205  17.687   5.300
 5412POPC   GL168665   0.285  18.015   5.689
 5412POPC   GL268666   0.497  18.372   5.825
 5412POPC   C1A68667   0.167  18.163   6.113
 5412POPC   D2A68668   0.183  18.382   6.473
 5412POPC   C3A68669   0.374  18.208   6.817
 5412POPC   C4A68670   0.321  17.879   7.069
 5412POPC   C1B68671   0.692  18.208   6.230
 5412POPC   C2B68672   0.940  18.156   6.645
 5412POPC   C3B68673   0.834  18.098   7.107
 5412POPC   C4B68674   0.697  18.104   7.562
 5413POPC   NC368675   8.221  10.676   5.037
 5413POPC   PO468676   7.932  10.365   5.448
 5413POPC   GL168677   8.134  10.633   5.778
 5413POPC   GL268678   8.478  10.606   5.783
 5413POPC   C1A68679   8.164  10.631   6.234
 5413POPC   D2A68680   8.027  10.525   6.672
 5413POPC   C3A68681   8.103  10.806   7.060
 5413POPC   C4A68682   8.013  10.386   7.306
 5413POPC   C1B68683   8.666  10.447   6.182
 5413POPC   C2B68684   8.521  10.333   6.581
 5413POPC   C3B68685   8.418  10.443   6.993
 5413POPC   C4B68686   8.404  10.660   7.450
 5414POPC   NC368687  21.790  31.693   5.678
 5414POPC   PO468688  21.316  31.241   5.371
 5414POPC   GL168689  21.130  31.359   5.764
 5414POPC   GL268690  21.242  31.113   5.962
 5414POPC   C1A68691  21.161  31.551   6.204
 5414POPC   D2A68692  21.357  31.609   6.617
 5414POPC   C3A68693  21.145  31.707   7.006
 5414POPC   C4A68694  21.422  31.554   7.340
 5414POPC   C1B68695  21.648  31.264   6.126
 5414POPC   C2B68696  21.797  31.351   6.533
 5414POPC   C3B68697  21.601  31.180   6.894
 5414POPC   C4B68698  21.776  31.169   7.309
 5415POPC   NC368699  30.057  20.050   5.548
 5415POPC   PO468700  29.918  19.522   5.221
 5415POPC   GL168701  29.837  19.584   5.731
 5415POPC   GL268702  29.661  19.897   5.833
 5415POPC   C1A68703  29.917  19.672   6.218
 5415POPC   D2A68704  30.134  19.523   6.624
 5415POPC   C3A68705  30.106  19.745   7.039
 5415POPC   C4A68706  30.250  19.634   7.444
 5415POPC   C1B68707  29.649  20.135   6.228
 5415POPC   C2B68708  29.565  20.018   6.669
 5415POPC   C3B68709  29.732  20.117   7.075
 5415POPC   C4B68710  29.702  19.867   7.458
 5416POPC   NC368711  29.577  20.927   5.531
 5416POPC   PO468712  29.055  20.492   5.311
 5416POPC   GL168713  28.909  20.548   5.747
 5416POPC   GL268714  28.857  20.931   5.757
 5416POPC   C1A68715  29.124  20.382   6.155
 5416POPC   D2A68716  29.393  20.486   6.544
 5416POPC   C3A68717  29.151  20.351   6.925
 5416POPC   C4A68718  28.690  20.481   7.012
 5416POPC   C1B68719  28.970  20.865   6.195
 5416POPC   C2B68720  28.919  20.694   6.601
 5416POPC   C3B68721  29.067  20.845   7.012
 5416POPC   C4B68722  29.405  20.835   7.277
 5417POPC   NC368723  21.037  24.354   5.365
 5417POPC   PO468724  20.360  24.426   5.382
 5417POPC   GL168725  20.602  24.490   5.732
 5417POPC   GL268726  20.780  24.179   5.756
 5417POPC   C1A68727  20.696  24.547   6.163
 5417POPC   D2A68728  20.549  24.410   6.575
 5417POPC   C3A68729  20.655  24.618   6.972
 5417POPC   C4A68730  20.547  24.375   7.336
 5417POPC   C1B68731  21.016  23.997   6.071
 5417POPC   C2B68732  20.923  24.024   6.509
 5417POPC   C3B68733  20.798  24.107   6.932
 5417POPC   C4B68734  21.059  24.357   7.209
 5418POPC   NC368735   9.262   2.646   5.114
 5418POPC   PO468736   9.684   3.026   5.442
 5418POPC   GL168737   9.721   2.856   5.835
 5418POPC   GL268738   9.644   2.515   5.817
 5418POPC   C1A68739   9.858   2.762   6.250
 5418POPC   D2A68740   9.651   2.847   6.612
 5418POPC   C3A68741   9.816   2.900   7.022
 5418POPC   C4A68742   9.536   2.891   7.373
 5418POPC   C1B68743   9.868   2.267   6.114
 5418POPC   C2B68744   9.716   2.337   6.523
 5418POPC   C3B68745   9.839   2.295   6.924
 5418POPC   C4B68746   9.770   2.456   7.326
 5419POPC   NC368747   8.315  27.043   5.312
 5419POPC   PO468748   8.610  26.525   5.502
 5419POPC   GL168749   8.487  26.823   5.849
 5419POPC   GL268750   8.350  27.172   5.821
 5419POPC   C1A68751   8.259  26.773   6.271
 5419POPC   D2A68752   8.251  26.740   6.768
 5419POPC   C3A68753   8.095  26.580   7.185
 5419POPC   C4A68754   8.264  26.360   7.533
 5419POPC   C1B68755   8.426  27.264   6.279
 5419POPC   C2B68756   8.372  27.245   6.755
 5419POPC   C3B68757   8.254  27.088   7.170
 5419POPC   C4B68758   7.993  26.959   7.564
 5420POPC   NC368759  16.143  25.682   5.540
 5420POPC   PO468760  15.846  25.064   5.489
 5420POPC   GL168761  15.969  25.191   5.860
 5420POPC   GL268762  16.302  25.227   5.811
 5420POPC   C1A68763  16.016  25.493   6.184
 5420POPC   D2A68764  15.810  25.583   6.573
 5420POPC   C3A68765  15.868  25.199   6.792
 5420POPC   C4A68766  15.896  25.172   7.216
 5420POPC   C1B68767  16.317  25.065   6.217
 5420POPC   C2B68768  16.332  25.298   6.558
 5420POPC   C3B68769  16.296  25.572   6.861
 5420POPC   C4B68770  16.329  25.428   7.251
 5421POPC   NC368771  18.595  10.464   5.433
 5421POPC   PO468772  19.191  10.506   5.184
 5421POPC   GL168773  19.051  10.526   5.691
 5421POPC   GL268774  18.734  10.724   5.848
 5421POPC   C1A68775  19.092  10.520   6.179
 5421POPC   D2A68776  19.087  10.288   6.604
 5421POPC   C3A68777  19.059  10.533   7.006
 5421POPC   C4A68778  19.320  10.567   7.443
 5421POPC   C1B68779  18.823  10.955   6.261
 5421POPC   C2B68780  18.633  11.041   6.683
 5421POPC   C3B68781  18.513  10.783   7.041
 5421POPC   C4B68782  18.653  10.377   7.264
 5422POPC   NC368783  39.469   3.659   5.488
 5422POPC   PO468784  40.210   3.542   5.526
 5422POPC   GL168785  40.198   3.698   5.919
 5422POPC   GL268786  39.894   3.879   5.823
 5422POPC   C1A68787  40.214   3.494   6.343
 5422POPC   D2A68788  40.186   3.234   6.697
 5422POPC   C3A68789  40.273   3.440   7.071
 5422POPC   C4A68790  40.266   3.499   7.505
 5422POPC   C1B68791  39.741   3.534   6.106
 5422POPC   C2B68792  39.578   3.389   6.503
 5422POPC   C3B68793  39.695   3.299   6.927
 5422POPC   C4B68794  39.786   3.588   7.238
 5423POPC   NC368795  24.408  33.694   5.238
 5423POPC   PO468796  24.106  34.225   5.529
 5423POPC   GL168797  24.299  33.859   5.746
 5423POPC   GL268798  24.079  33.545   5.716
 5423POPC   C1A68799  24.626  33.849   6.095
 5423POPC   D2A68800  24.517  33.823   6.555
 5423POPC   C3A68801  24.817  33.793   6.874
 5423POPC   C4A68802  24.626  33.764   7.253
 5423POPC   C1B68803  24.221  33.571   6.184
 5423POPC   C2B68804  24.039  33.553   6.605
 5423POPC   C3B68805  24.134  33.714   7.024
 5423POPC   C4B68806  24.164  33.742   7.458
 5424POPC   NC368807   6.117   1.974   5.438
 5424POPC   PO468808   5.679   1.512   5.496
 5424POPC   GL168809   6.016   1.668   5.828
 5424POPC   GL268810   6.067   2.061   5.923
 5424POPC   C1A68811   6.123   1.705   6.276
 5424POPC   D2A68812   6.046   2.016   6.611
 5424POPC   C3A68813   6.026   1.868   7.075
 5424POPC   C4A68814   5.997   2.093   7.467
 5424POPC   C1B68815   5.675   2.001   6.126
 5424POPC   C2B68816   5.518   2.153   6.495
 5424POPC   C3B68817   5.646   2.143   6.895
 5424POPC   C4B68818   5.513   2.171   7.279
 5425POPC   NC368819  33.485  31.276   5.368
 5425POPC   PO468820  32.908  31.570   5.233
 5425POPC   GL168821  33.069  31.373   5.663
 5425POPC   GL268822  33.005  31.685   5.847
 5425POPC   C1A68823  33.152  31.292   6.152
 5425POPC   D2A68824  33.144  31.557   6.525
 5425POPC   C3A68825  32.962  31.381   6.886
 5425POPC   C4A68826  33.213  31.342   7.226
 5425POPC   C1B68827  32.756  31.774   6.232
 5425POPC   C2B68828  32.782  31.911   6.656
 5425POPC   C3B68829  32.667  31.766   7.046
 5425POPC   C4B68830  32.878  31.686   7.418
 5426POPC   NC368831  17.305   9.365   5.429
 5426POPC   PO468832  17.245   8.572   5.379
 5426POPC   GL168833  17.236   8.936   5.689
 5426POPC   GL268834  17.574   9.084   5.783
 5426POPC   C1A68835  17.218   9.041   6.154
 5426POPC   D2A68836  17.335   8.918   6.575
 5426POPC   C3A68837  17.251   9.008   7.003
 5426POPC   C4A68838  17.436   8.884   7.431
 5426POPC   C1B68839  17.716   8.917   6.226
 5426POPC   C2B68840  17.823   8.778   6.679
 5426POPC   C3B68841  17.643   8.603   7.072
 5426POPC   C4B68842  17.827   8.507   7.488
 5427POPC   NC368843  14.249  21.821   5.137
 5427POPC   PO468844  14.375  21.243   5.462
 5427POPC   GL168845  14.311  21.451   5.797
 5427POPC   GL268846  14.643  21.473   5.944
 5427POPC   C1A68847  14.214  21.509   6.217
 5427POPC   D2A68848  14.536  21.428   6.536
 5427POPC   C3A68849  14.348  21.291   6.923
 5427POPC   C4A68850  14.189  21.465   7.325
 5427POPC   C1B68851  14.840  21.152   6.192
 5427POPC   C2B68852  14.781  20.927   6.570
 5427POPC   C3B68853  14.835  21.124   6.951
 5427POPC   C4B68854  14.672  21.283   7.325
 5428POPC   NC368855  40.512  10.192   5.449
 5428POPC   PO468856  40.658  10.947   5.418
 5428POPC   GL168857  40.798  10.748   5.805
 5428POPC   GL268858  40.517  10.566   5.804
 5428POPC   C1A68859  40.847  10.427   6.185
 5428POPC   D2A68860  41.069  10.471   6.601
 5428POPC   C3A68861  40.831  10.427   6.980
 5428POPC   C4A68862  40.902  10.548   7.348
 5428POPC   C1B68863  40.404  10.739   6.207
 5428POPC   C2B68864  40.543  10.707   6.657
 5428POPC   C3B68865  40.459  10.757   7.131
 5428POPC   C4B68866  40.426  10.398   7.462
 5429POPC   NC368867  34.189  36.319   5.615
 5429POPC   PO468868  33.490  36.229   5.639
 5429POPC   GL168869  33.798  35.991   5.943
 5429POPC   GL268870  34.061  36.229   6.088
 5429POPC   C1A68871  33.965  35.848   6.368
 5429POPC   D2A68872  33.867  36.205   6.671
 5429POPC   C3A68873  33.893  36.049   7.064
 5429POPC   C4A68874  34.189  35.877   7.359
 5429POPC   C1B68875  33.664  36.456   6.261
 5429POPC   C2B68876  33.507  36.707   6.627
 5429POPC   C3B68877  33.581  36.543   7.046
 5429POPC   C4B68878  33.494  36.429   7.476
 5430POPC   NC368879  35.563   9.045   5.524
 5430POPC   PO468880  35.114   9.494   5.516
 5430POPC   GL168881  35.178   9.189   5.875
 5430POPC   GL268882  35.358   8.896   5.959
 5430POPC   C1A68883  35.352   9.254   6.295
 5430POPC   D2A68884  35.217   9.353   6.690
 5430POPC   C3A68885  35.465   9.268   7.054
 5430POPC   C4A68886  35.690   8.923   7.260
 5430POPC   C1B68887  35.401   8.716   6.367
 5430POPC   C2B68888  35.492   8.774   6.813
 5430POPC   C3B68889  35.251   8.620   7.164
 5430POPC   C4B68890  35.006   8.473   7.526
 5431POPC   NC368891  27.037  17.181   5.426
 5431POPC   PO468892  26.672  17.792   5.415
 5431POPC   GL168893  26.770  17.469   5.756
 5431POPC   GL268894  27.144  17.404   5.864
 5431POPC   C1A68895  26.759  17.357   6.194
 5431POPC   D2A68896  26.861  17.602   6.546
 5431POPC   C3A68897  26.659  17.505   6.925
 5431POPC   C4A68898  26.860  17.264   7.217
 5431POPC   C1B68899  27.283  17.288   6.290
 5431POPC   C2B68900  27.153  17.223   6.723
 5431POPC   C3B68901  27.333  17.097   7.099
 5431POPC   C4B68902  27.159  16.973   7.525
 5432POPC   NC368903  42.600  20.127   5.329
 5432POPC   PO468904  41.997  19.819   5.574
 5432POPC   GL168905  42.177  19.839   5.906
 5432POPC   GL268906  41.933  19.991   6.103
 5432POPC   C1A68907  42.593  19.917   6.065
 5432POPC   D2A68908  42.782  19.765   6.458
 5432POPC   C3A68909  42.562  19.971   6.791
 5432POPC   C4A68910  42.439  19.903   7.213
 5432POPC   C1B68911  42.224  19.721   6.391
 5432POPC   C2B68912  42.206  19.602   6.802
 5432POPC   C3B68913  42.007  19.917   6.954
 5432POPC   C4B68914  41.960  20.096   7.307
 5433POPC   NC368915  10.266  41.403   5.289
 5433POPC   PO468916  10.567  40.846   5.435
 5433POPC   GL168917  10.574  40.799   5.838
 5433POPC   GL268918  10.538  41.134   5.879
 5433POPC   C1A68919  10.627  40.670   6.263
 5433POPC   D2A68920  10.967  40.754   6.563
 5433POPC   C3A68921  10.791  40.701   6.991
 5433POPC   C4A68922  10.418  40.488   7.219
 5433POPC   C1B68923  10.443  41.167   6.282
 5433POPC   C2B68924  10.534  41.074   6.729
 5433POPC   C3B68925  10.465  41.059   7.204
 5433POPC   C4B68926  10.596  41.197   7.652
 5434POPC   NC368927   2.418  19.295   5.467
 5434POPC   PO468928   3.061  19.051   5.286
 5434POPC   GL168929   2.907  19.023   5.725
 5434POPC   GL268930   2.621  18.788   5.750
 5434POPC   C1A68931   3.014  19.208   6.136
 5434POPC   D2A68932   3.007  19.099   6.579
 5434POPC   C3A68933   3.070  19.350   6.944
 5434POPC   C4A68934   3.007  19.170   7.303
 5434POPC   C1B68935   2.506  19.073   6.097
 5434POPC   C2B68936   2.493  19.206   6.522
 5434POPC   C3B68937   2.578  19.121   6.957
 5434POPC   C4B68938   2.440  18.866   7.284
 5435POPC   NC368939  26.094   7.566   5.367
 5435POPC   PO468940  25.773   7.082   5.773
 5435POPC   GL168941  26.073   7.370   5.846
 5435POPC   GL268942  25.791   7.618   5.778
 5435POPC   C1A68943  26.364   7.384   6.221
 5435POPC   D2A68944  26.474   7.108   6.582
 5435POPC   C3A68945  26.233   7.106   6.938
 5435POPC   C4A68946  26.276   7.400   7.299
 5435POPC   C1B68947  25.924   7.645   6.226
 5435POPC   C2B68948  25.962   7.380   6.563
 5435POPC   C3B68949  25.863   7.462   6.968
 5435POPC   C4B68950  25.810   7.783   7.276
 5436POPC   NC368951  21.593   3.433   5.431
 5436POPC   PO468952  21.000   3.468   5.407
 5436POPC   GL168953  21.213   3.548   5.778
 5436POPC   GL268954  21.203   3.897   5.818
 5436POPC   C1A68955  21.448   3.542   6.163
 5436POPC   D2A68956  21.461   3.709   6.585
 5436POPC   C3A68957  21.397   3.351   6.837
 5436POPC   C4A68958  21.474   3.152   7.246
 5436POPC   C1B68959  21.047   3.857   6.252
 5436POPC   C2B68960  20.941   3.618   6.645
 5436POPC   C3B68961  21.131   3.794   7.003
 5436POPC   C4B68962  21.515   3.676   7.202
 5437POPC   NC368963  22.966  34.273   5.477
 5437POPC   PO468964  22.770  34.875   5.256
 5437POPC   GL168965  22.758  34.674   5.670
 5437POPC   GL268966  23.122  34.653   5.823
 5437POPC   C1A68967  22.687  34.622   6.133
 5437POPC   D2A68968  22.810  34.438   6.540
 5437POPC   C3A68969  22.678  34.499   6.989
 5437POPC   C4A68970  22.940  34.652   7.279
 5437POPC   C1B68971  23.204  34.321   6.154
 5437POPC   C2B68972  23.143  34.058   6.532
 5437POPC   C3B68973  23.134  34.190   6.955
 5437POPC   C4B68974  23.401  34.459   7.187
 5438POPC   NC368975   8.821  26.092   5.462
 5438POPC   PO468976   9.405  25.738   5.628
 5438POPC   GL168977   9.114  25.937   5.886
 5438POPC   GL268978   9.183  25.696   6.117
 5438POPC   C1A68979   9.146  26.222   6.259
 5438POPC   D2A68980   8.954  26.403   6.649
 5438POPC   C3A68981   9.023  26.185   7.040
 5438POPC   C4A68982   8.706  25.898   7.272
 5438POPC   C1B68983   8.795  25.828   6.312
 5438POPC   C2B68984   8.754  25.840   6.749
 5438POPC   C3B68985   9.109  25.696   6.917
 5438POPC   C4B68986   9.261  25.671   7.297
 5439POPC   NC368987  14.414   4.655   4.972
 5439POPC   PO468988  14.320   4.157   5.453
 5439POPC   GL168989  14.242   4.065   5.893
 5439POPC   GL268990  14.238   4.393   5.916
 5439POPC   C1A68991  14.139   4.143   6.350
 5439POPC   D2A68992  14.172   4.311   6.751
 5439POPC   C3A68993  14.540   4.239   6.940
 5439POPC   C4A68994  14.508   4.143   7.330
 5439POPC   C1B68995  14.570   4.379   6.252
 5439POPC   C2B68996  14.570   4.603   6.585
 5439POPC   C3B68997  14.608   4.759   6.941
 5439POPC   C4B68998  14.535   4.630   7.300
 5440POPC   NC368999   8.019  24.576   4.940
 5440POPC   PO469000   8.348  24.504   5.476
 5440POPC   GL169001   8.126  24.342   5.819
 5440POPC   GL269002   8.468  24.313   5.951
 5440POPC   C1A69003   8.052  24.553   6.226
 5440POPC   D2A69004   8.379  24.646   6.548
 5440POPC   C3A69005   8.347  24.598   6.993
 5440POPC   C4A69006   7.946  24.514   7.191
 5440POPC   C1B69007   8.334  24.161   6.332
 5440POPC   C2B69008   8.082  24.232   6.715
 5440POPC   C3B69009   8.242  24.089   7.127
 5440POPC   C4B69010   8.234  24.135   7.583
 5441POPC   NC369011   1.655  12.834   5.446
 5441POPC   PO469012   2.322  12.570   5.365
 5441POPC   GL169013   2.114  12.664   5.783
 5441POPC   GL269014   1.924  12.972   5.854
 5441POPC   C1A69015   2.093  12.670   6.260
 5441POPC   D2A69016   1.920  12.992   6.578
 5441POPC   C3A69017   1.858  12.885   7.039
 5441POPC   C4A69018   1.793  12.659   7.454
 5441POPC   C1B69019   2.299  13.103   6.069
 5441POPC   C2B69020   2.438  13.055   6.499
 5441POPC   C3B69021   2.351  13.090   6.936
 5441POPC   C4B69022   2.275  12.877   7.320
 5442POPC   NC369023  22.969  44.681   5.299
 5442POPC   PO469024  22.446  44.832   5.553
 5442POPC   GL169025  22.734  44.773   5.791
 5442POPC   GL269026  22.682  44.442   5.838
 5442POPC   C1A69027  23.055  44.791   6.076
 5442POPC   D2A69028  23.230  44.734   6.480
 5442POPC   C3A69029  23.078  44.894   6.873
 5442POPC   C4A69030  23.029  44.639   7.246
 5442POPC   C1B69031  22.774  44.403   6.252
 5442POPC   C2B69032  22.712  44.578   6.634
 5442POPC   C3B69033  22.588  44.737   7.009
 5442POPC   C4B69034  22.516  44.474   7.354
 5443POPC   NC369035  17.485  18.627   5.268
 5443POPC   PO469036  17.612  19.249   5.476
 5443POPC   GL169037  17.480  18.988   5.794
 5443POPC   GL269038  17.570  18.631   5.760
 5443POPC   C1A69039  17.489  19.223   6.192
 5443POPC   D2A69040  17.613  19.490   6.563
 5443POPC   C3A69041  17.574  19.192   6.912
 5443POPC   C4A69042  17.397  19.229   7.310
 5443POPC   C1B69043  17.468  18.590   6.178
 5443POPC   C2B69044  17.497  18.826   6.542
 5443POPC   C3B69045  17.263  18.779   6.910
 5443POPC   C4B69046  17.430  18.720   7.281
 5444POPC   NC369047  13.813  38.527   5.437
 5444POPC   PO469048  13.373  39.047   5.472
 5444POPC   GL169049  13.482  38.732   5.786
 5444POPC   GL269050  13.387  38.369   5.755
 5444POPC   C1A69051  13.688  38.605   6.171
 5444POPC   D2A69052  13.687  38.809   6.582
 5444POPC   C3A69053  13.693  38.507   6.897
 5444POPC   C4A69054  13.584  38.660   7.233
 5444POPC   C1B69055  13.452  38.130   6.152
 5444POPC   C2B69056  13.520  38.004   6.591
 5444POPC   C3B69057  13.216  38.074   6.877
 5444POPC   C4B69058  13.286  38.261   7.240
 5445POPC   NC369059   3.479  41.889   5.505
 5445POPC   PO469060   3.475  42.585   5.399
 5445POPC   GL169061   3.432  42.367   5.740
 5445POPC   GL269062   3.785  42.349   5.815
 5445POPC   C1A69063   3.383  42.171   6.122
 5445POPC   D2A69064   3.560  42.112   6.534
 5445POPC   C3A69065   3.389  42.392   6.849
 5445POPC   C4A69066   3.342  42.330   7.289
 5445POPC   C1B69067   3.781  42.729   6.077
 5445POPC   C2B69068   3.673  42.865   6.525
 5445POPC   C3B69069   3.769  42.751   6.964
 5445POPC   C4B69070   3.694  42.689   7.395
 5446POPC   NC369071  39.805  44.714   5.240
 5446POPC   PO469072  40.339  44.311   5.356
 5446POPC   GL169073  40.085  44.566   5.698
 5446POPC   GL269074  39.759  44.373   5.745
 5446POPC   C1A69075  40.210  44.717   6.143
 5446POPC   D2A69076  40.450  44.850   6.539
 5446POPC   C3A69077  40.249  44.811   6.958
 5446POPC   C4A69078  40.031  44.861   7.376
 5446POPC   C1B69079  39.692  44.570   6.146
 5446POPC   C2B69080  39.891  44.662   6.563
 5446POPC   C3B69081  39.731  44.697   6.993
 5446POPC   C4B69082  39.668  44.470   7.378
 5447POPC   NC369083   7.304  14.719   5.667
 5447POPC   PO469084   7.831  14.567   5.329
 5447POPC   GL169085   7.699  14.335   5.708
 5447POPC   GL269086   7.335  14.187   5.710
 5447POPC   C1A69087   7.638  14.412   6.157
 5447POPC   D2A69088   7.420  14.287   6.556
 5447POPC   C3A69089   7.550  14.447   6.972
 5447POPC   C4A69090   7.574  14.209   7.343
 5447POPC   C1B69091   7.032  14.270   6.065
 5447POPC   C2B69092   6.909  14.287   6.488
 5447POPC   C3B69093   6.953  14.489   6.880
 5447POPC   C4B69094   7.125  14.447   7.285
 5448POPC   NC369095  43.899   0.078   5.180
 5448POPC   PO469096  44.051   0.508   5.689
 5448POPC   GL169097  44.113   0.729   5.997
 5448POPC   GL269098  44.263   0.403   6.150
 5448POPC   C1A69099  43.899   0.711   6.375
 5448POPC   D2A69100  43.823   0.332   6.588
 5448POPC   C3A69101  43.630   0.321   6.978
 5448POPC   C4A69102  43.769   0.585   7.293
 5448POPC   C1B69103  44.311   0.116   6.495
 5448POPC   C2B69104  44.176   0.119   6.899
 5448POPC   C3B69105  44.225   0.416   7.213
 5448POPC   C4B69106  44.067   0.313   7.611
 5449POPC   NC369107  30.038  43.591   5.345
 5449POPC   PO469108  29.808  44.277   5.328
 5449POPC   GL169109  29.976  43.996   5.744
 5449POPC   GL269110  30.171  43.645   5.817
 5449POPC   C1A69111  29.991  43.898   6.230
 5449POPC   D2A69112  30.230  44.088   6.608
 5449POPC   C3A69113  30.114  44.214   7.074
 5449POPC   C4A69114  29.705  44.084   7.275
 5449POPC   C1B69115  30.205  43.399   6.176
 5449POPC   C2B69116  30.181  43.574   6.587
 5449POPC   C3B69117  30.040  43.722   6.991
 5449POPC   C4B69118  30.116  43.776   7.430
 5450POPC   NC369119  41.681  39.273   5.390
 5450POPC   PO469120  41.306  38.740   5.427
 5450POPC   GL169121  41.480  39.030   5.783
 5450POPC   GL269122  41.318  39.396   5.734
 5450POPC   C1A69123  41.811  39.089   6.130
 5450POPC   D2A69124  41.886  39.424   6.460
 5450POPC   C3A69125  41.676  39.367   6.862
 5450POPC   C4A69126  41.837  39.348   7.264
 5450POPC   C1B69127  41.428  39.446   6.162
 5450POPC   C2B69128  41.276  39.211   6.498
 5450POPC   C3B69129  41.143  39.275   6.905
 5450POPC   C4B69130  41.311  39.412   7.297
 5451POPC   NC369131   6.847  30.244   5.423
 5451POPC   PO469132   6.251  29.843   5.378
 5451POPC   GL169133   6.542  29.953   5.743
 5451POPC   GL269134   6.916  29.880   5.776
 5451POPC   C1A69135   6.655  29.986   6.205
 5451POPC   D2A69136   6.768  30.138   6.607
 5451POPC   C3A69137   6.741  29.860   6.998
 5451POPC   C4A69138   6.603  29.847   7.482
 5451POPC   C1B69139   7.096  30.216   6.084
 5451POPC   C2B69140   7.270  30.248   6.528
 5451POPC   C3B69141   7.104  30.214   6.966
 5451POPC   C4B69142   7.082  30.000   7.360
 5452POPC   NC369143  37.047  37.360   5.448
 5452POPC   PO469144  36.860  36.755   5.398
 5452POPC   GL169145  36.992  36.882   5.793
 5452POPC   GL269146  37.263  37.116   5.831
 5452POPC   C1A69147  36.830  37.105   6.155
 5452POPC   D2A69148  36.930  37.094   6.596
 5452POPC   C3A69149  36.710  36.759   6.850
 5452POPC   C4A69150  36.652  36.772   7.322
 5452POPC   C1B69151  37.327  36.956   6.259
 5452POPC   C2B69152  37.405  36.989   6.735
 5452POPC   C3B69153  37.097  36.962   7.097
 5452POPC   C4B69154  36.701  37.225   7.094
 5453POPC   NC369155   3.886  23.225   5.431
 5453POPC   PO469156   4.466  22.881   5.275
 5453POPC   GL169157   4.472  22.921   5.774
 5453POPC   GL269158   4.257  23.206   5.816
 5453POPC   C1A69159   4.409  22.937   6.270
 5453POPC   D2A69160   4.606  23.125   6.678
 5453POPC   C3A69161   4.448  22.953   7.082
 5453POPC   C4A69162   4.160  22.633   7.217
 5453POPC   C1B69163   4.170  23.386   6.223
 5453POPC   C2B69164   4.111  23.248   6.643
 5453POPC   C3B69165   4.148  23.350   7.068
 5453POPC   C4B69166   3.950  23.466   7.445
 5454POPC   NC369167  33.243  29.772   5.380
 5454POPC   PO469168  33.799  29.927   5.211
 5454POPC   GL169169  33.695  29.994   5.654
 5454POPC   GL269170  33.556  29.700   5.831
 5454POPC   C1A69171  33.794  30.071   6.105
 5454POPC   D2A69172  33.583  30.202   6.466
 5454POPC   C3A69173  33.773  30.036   6.811
 5454POPC   C4A69174  33.737  29.881   7.227
 5454POPC   C1B69175  33.884  29.556   6.126
 5454POPC   C2B69176  34.037  29.754   6.477
 5454POPC   C3B69177  34.061  29.608   6.902
 5454POPC   C4B69178  34.206  29.605   7.323
 5455POPC   NC369179  24.320  21.276   5.453
 5455POPC   PO469180  24.753  21.792   5.501
 5455POPC   GL169181  24.739  21.433   5.792
 5455POPC   GL269182  24.584  21.126   5.852
 5455POPC   C1A69183  24.800  21.399   6.218
 5455POPC   D2A69184  24.673  21.192   6.570
 5455POPC   C3A69185  24.469  21.382   6.892
 5455POPC   C4A69186  24.746  21.476   7.210
 5455POPC   C1B69187  24.317  21.224   6.223
 5455POPC   C2B69188  24.202  20.963   6.615
 5455POPC   C3B69189  24.082  21.065   7.052
 5455POPC   C4B69190  24.367  21.188   7.378
 5456POPC   NC369191   4.662  12.213   5.443
 5456POPC   PO469192   5.383  12.069   5.368
 5456POPC   GL169193   5.263  12.143   5.780
 5456POPC   GL269194   5.026  11.848   5.811
 5456POPC   C1A69195   5.196  12.213   6.229
 5456POPC   D2A69196   5.017  11.892   6.493
 5456POPC   C3A69197   4.754  12.040   6.818
 5456POPC   C4A69198   4.850  12.159   7.210
 5456POPC   C1B69199   5.338  11.714   6.131
 5456POPC   C2B69200   5.528  11.840   6.556
 5456POPC   C3B69201   5.263  11.852   6.944
 5456POPC   C4B69202   5.164  11.751   7.368
 5457POPC   NC369203  41.655  29.988   5.281
 5457POPC   PO469204  41.856  29.377   5.522
 5457POPC   GL169205  41.528  29.691   5.725
 5457POPC   GL269206  41.453  30.105   5.730
 5457POPC   C1A69207  41.417  29.852   6.143
 5457POPC   D2A69208  41.426  30.035   6.499
 5457POPC   C3A69209  41.573  29.754   6.831
 5457POPC   C4A69210  41.629  29.886   7.245
 5457POPC   C1B69211  41.739  30.271   6.100
 5457POPC   C2B69212  41.771  30.419   6.537
 5457POPC   C3B69213  41.577  30.272   6.925
 5457POPC   C4B69214  41.369  30.334   7.320
 5458POPC   NC369215  38.100  38.664   5.479
 5458POPC   PO469216  38.729  38.426   5.536
 5458POPC   GL169217  38.504  38.524   5.900
 5458POPC   GL269218  38.139  38.427   5.936
 5458POPC   C1A69219  38.333  38.737   6.256
 5458POPC   D2A69220  38.340  38.930   6.612
 5458POPC   C3A69221  38.558  38.720   6.896
 5458POPC   C4A69222  38.489  38.494   7.209
 5458POPC   C1B69223  38.356  38.211   6.280
 5458POPC   C2B69224  38.385  38.256   6.710
 5458POPC   C3B69225  38.375  38.046   7.061
 5458POPC   C4B69226  38.275  38.134   7.516
 5459POPC   NC369227  20.750  40.106   5.380
 5459POPC   PO469228  20.040  40.102   5.319
 5459POPC   GL169229  20.333  40.141   5.699
 5459POPC   GL269230  20.565  40.373   5.849
 5459POPC   C1A69231  20.367  40.004   6.130
 5459POPC   D2A69232  20.279  39.769   6.446
 5459POPC   C3A69233  20.426  39.946   6.794
 5459POPC   C4A69234  20.395  39.880   7.214
 5459POPC   C1B69235  20.860  40.158   6.153
 5459POPC   C2B69236  20.931  40.059   6.598
 5459POPC   C3B69237  20.906  39.828   7.005
 5459POPC   C4B69238  20.886  39.961   7.425
 5460POPC   NC369239   3.693  40.619   5.403
 5460POPC   PO469240   3.425  41.259   5.514
 5460POPC   GL169241   3.609  40.965   5.796
 5460POPC   GL269242   3.273  40.913   5.852
 5460POPC   C1A69243   3.547  40.734   6.224
 5460POPC   D2A69244   3.289  40.742   6.606
 5460POPC   C3A69245   3.449  40.584   7.015
 5460POPC   C4A69246   3.857  40.516   7.187
 5460POPC   C1B69247   3.215  41.165   6.201
 5460POPC   C2B69248   3.469  41.262   6.538
 5460POPC   C3B69249   3.478  41.099   6.918
 5460POPC   C4B69250   3.118  40.994   7.163
 5461POPC   NC369251   6.178  41.069   5.656
 5461POPC   PO469252   5.807  41.480   5.191
 5461POPC   GL169253   5.833  41.489   5.661
 5461POPC   GL269254   6.107  41.669   5.793
 5461POPC   C1A69255   5.712  41.504   6.130
 5461POPC   D2A69256   5.737  41.690   6.554
 5461POPC   C3A69257   5.939  41.478   6.901
 5461POPC   C4A69258   5.788  41.417   7.353
 5461POPC   C1B69259   6.118  41.872   6.184
 5461POPC   C2B69260   6.290  41.786   6.572
 5461POPC   C3B69261   6.146  41.942   6.903
 5461POPC   C4B69262   6.089  41.809   7.277
 5462POPC   NC369263  37.988  13.384   5.424
 5462POPC   PO469264  37.581  13.860   5.471
 5462POPC   GL169265  37.860  13.743   5.788
 5462POPC   GL269266  37.797  13.369   5.897
 5462POPC   C1A69267  37.960  13.754   6.214
 5462POPC   D2A69268  37.994  14.009   6.570
 5462POPC   C3A69269  37.875  13.757   6.909
 5462POPC   C4A69270  37.694  13.819   7.306
 5462POPC   C1B69271  37.464  13.620   6.106
 5462POPC   C2B69272  37.474  13.769   6.548
 5462POPC   C3B69273  37.322  13.737   6.984
 5462POPC   C4B69274  37.252  13.492   7.370
 5463POPC   NC369275  30.848  39.867   5.391
 5463POPC   PO469276  30.238  40.178   5.339
 5463POPC   GL169277  30.523  40.096   5.720
 5463POPC   GL269278  30.556  39.747   5.806
 5463POPC   C1A69279  30.811  40.068   6.120
 5463POPC   D2A69280  31.057  40.017   6.512
 5463POPC   C3A69281  30.939  40.336   6.768
 5463POPC   C4A69282  30.568  40.534   6.975
 5463POPC   C1B69283  30.425  39.731   6.232
 5463POPC   C2B69284  30.549  39.960   6.603
 5463POPC   C3B69285  30.784  39.890   6.976
 5463POPC   C4B69286  30.956  39.780   7.359
 5464POPC   NC369287  23.227   3.345   5.236
 5464POPC   PO469288  22.863   3.843   5.384
 5464POPC   GL169289  23.080   3.565   5.732
 5464POPC   GL269290  22.902   3.290   5.898
 5464POPC   C1A69291  23.313   3.594   6.173
 5464POPC   D2A69292  23.283   3.415   6.609
 5464POPC   C3A69293  23.264   3.641   6.991
 5464POPC   C4A69294  23.194   3.361   7.322
 5464POPC   C1B69295  22.863   3.391   6.321
 5464POPC   C2B69296  22.863   3.694   6.643
 5464POPC   C3B69297  22.774   3.504   7.001
 5464POPC   C4B69298  22.722   3.575   7.414
 5465POPC   NC369299  37.461  32.774   5.610
 5465POPC   PO469300  38.059  32.474   5.450
 5465POPC   GL169301  37.803  32.344   5.802
 5465POPC   GL269302  37.593  32.057   5.797
 5465POPC   C1A69303  37.857  32.266   6.254
 5465POPC   D2A69304  37.598  32.283   6.629
 5465POPC   C3A69305  37.731  32.215   7.074
 5465POPC   C4A69306  37.908  32.499   7.383
 5465POPC   C1B69307  37.363  32.169   6.159
 5465POPC   C2B69308  37.133  32.087   6.533
 5465POPC   C3B69309  37.247  32.110   6.948
 5465POPC   C4B69310  37.382  31.817   7.236
 5466POPC   NC369311  28.230  27.300   5.029
 5466POPC   PO469312  28.801  27.372   5.429
 5466POPC   GL169313  28.540  27.561   5.751
 5466POPC   GL269314  28.151  27.567   5.770
 5466POPC   C1A69315  28.460  27.490   6.176
 5466POPC   D2A69316  28.260  27.426   6.562
 5466POPC   C3A69317  28.541  27.386   6.899
 5466POPC   C4A69318  28.494  27.423   7.314
 5466POPC   C1B69319  28.031  27.777   6.208
 5466POPC   C2B69320  27.880  27.761   6.666
 5466POPC   C3B69321  28.043  27.531   7.062
 5466POPC   C4B69322  28.197  27.785   7.458
 5467POPC   NC369323  26.821   2.384   5.570
 5467POPC   PO469324  26.866   1.793   5.365
 5467POPC   GL169325  27.010   1.946   5.778
 5467POPC   GL269326  26.727   2.083   5.956
 5467POPC   C1A69327  27.122   2.006   6.237
 5467POPC   D2A69328  26.863   1.986   6.584
 5467POPC   C3A69329  27.074   1.894   6.941
 5467POPC   C4A69330  26.982   2.082   7.330
 5467POPC   C1B69331  26.656   1.696   6.199
 5467POPC   C2B69332  26.432   1.708   6.621
 5467POPC   C3B69333  26.548   1.973   7.004
 5467POPC   C4B69334  26.820   2.365   6.943
 5468POPC   NC369335  20.321   0.621   5.502
 5468POPC   PO469336  20.639   0.060   5.418
 5468POPC   GL169337  20.682   0.345   5.765
 5468POPC   GL269338  20.332   0.329   5.918
 5468POPC   C1A69339  20.738   0.248   6.225
 5468POPC   D2A69340  20.558   0.323   6.626
 5468POPC   C3A69341  20.834   0.197   6.963
 5468POPC   C4A69342  20.893   0.268   7.399
 5468POPC   C1B69343  20.122   0.436   6.342
 5468POPC   C2B69344  20.095   0.446   6.829
 5468POPC   C3B69345  20.425   0.473   7.167
 5468POPC   C4B69346  20.444   0.378   7.634
 5469POPC   NC369347  37.688  42.957   5.375
 5469POPC   PO469348  37.523  42.375   5.506
 5469POPC   GL169349  37.716  42.422   5.891
 5469POPC   GL269350  37.938  42.717   5.779
 5469POPC   C1A69351  37.584  42.345   6.355
 5469POPC   D2A69352  37.374  42.609   6.678
 5469POPC   C3A69353  37.266  42.499   7.128
 5469POPC   C4A69354  37.492  42.284   7.474
 5469POPC   C1B69355  37.822  42.769   6.221
 5469POPC   C2B69356  37.994  42.538   6.596
 5469POPC   C3B69357  37.871  42.471   7.017
 5469POPC   C4B69358  37.707  42.715   7.325
 5470POPC   NC369359   0.175  31.304   5.491
 5470POPC   PO469360   0.638  31.854   5.449
 5470POPC   GL169361   0.470  31.657   5.780
 5470POPC   GL269362   0.592  31.330   5.795
 5470POPC   C1A69363   0.367  31.620   6.199
 5470POPC   D2A69364   0.452  31.778   6.579
 5470POPC   C3A69365   0.136  31.823   6.886
 5470POPC   C4A69366   0.366  31.783   7.254
 5470POPC   C1B69367   0.784  31.324   6.183
 5470POPC   C2B69368   0.698  31.361   6.628
 5470POPC   C3B69369   0.575  31.279   7.051
 5470POPC   C4B69370   0.815  30.950   7.230
 5471POPC   NC369371  19.372  36.247   5.337
 5471POPC   PO469372  18.762  35.997   5.334
 5471POPC   GL169373  19.034  35.978   5.691
 5471POPC   GL269374  18.821  35.690   5.806
 5471POPC   C1A69375  19.018  36.132   6.107
 5471POPC   D2A69376  18.922  36.299   6.539
 5471POPC   C3A69377  18.983  36.056   6.880
 5471POPC   C4A69378  19.066  36.188   7.273
 5471POPC   C1B69379  18.560  35.761   6.164
 5471POPC   C2B69380  18.532  35.922   6.577
 5471POPC   C3B69381  18.610  35.715   6.944
 5471POPC   C4B69382  18.882  35.639   7.289
 5472POPC   NC369383  24.479  43.161   5.408
 5472POPC   PO469384  24.687  42.555   5.635
 5472POPC   GL169385  24.584  42.940   5.849
 5472POPC   GL269386  24.285  42.788   5.925
 5472POPC   C1A69387  24.387  43.204   6.196
 5472POPC   D2A69388  24.202  42.996   6.597
 5472POPC   C3A69389  24.395  43.214   6.925
 5472POPC   C4A69390  24.567  43.162   7.306
 5472POPC   C1B69391  24.538  42.730   6.326
 5472POPC   C2B69392  24.703  42.834   6.757
 5472POPC   C3B69393  24.813  42.708   7.210
 5472POPC   C4B69394  24.926  42.618   7.633
 5473POPC   NC369395  22.738  16.524   5.464
 5473POPC   PO469396  23.271  16.990   5.660
 5473POPC   GL169397  23.040  16.638   5.861
 5473POPC   GL269398  22.735  16.850   5.859
 5473POPC   C1A69399  22.949  16.409   6.260
 5473POPC   D2A69400  23.139  16.610   6.621
 5473POPC   C3A69401  22.899  16.697   6.975
 5473POPC   C4A69402  22.778  16.403   7.313
 5473POPC   C1B69403  22.874  16.952   6.272
 5473POPC   C2B69404  22.670  17.159   6.614
 5473POPC   C3B69405  22.509  17.037   7.003
 5473POPC   C4B69406  22.694  16.884   7.419
 5474POPC   NC369407  41.694  35.821   5.300
 5474POPC   PO469408  41.339  36.336   5.508
 5474POPC   GL169409  41.479  36.022   5.813
 5474POPC   GL269410  41.808  35.871   5.807
 5474POPC   C1A69411  41.549  36.028   6.261
 5474POPC   D2A69412  41.315  35.883   6.614
 5474POPC   C3A69413  41.300  36.046   7.032
 5474POPC   C4A69414  41.306  35.913   7.471
 5474POPC   C1B69415  41.890  35.653   6.209
 5474POPC   C2B69416  41.884  35.878   6.632
 5474POPC   C3B69417  41.842  35.996   7.054
 5474POPC   C4B69418  41.831  35.885   7.486
 5475POPC   NC369419  32.080  30.904   5.472
 5475POPC   PO469420  32.675  30.634   5.394
 5475POPC   GL169421  32.489  30.808   5.756
 5475POPC   GL269422  32.482  30.508   5.941
 5475POPC   C1A69423  32.313  30.996   6.145
 5475POPC   D2A69424  32.430  30.814   6.529
 5475POPC   C3A69425  32.210  30.745   6.898
 5475POPC   C4A69426  32.449  30.716   7.231
 5475POPC   C1B69427  32.141  30.532   6.153
 5475POPC   C2B69428  31.913  30.762   6.451
 5475POPC   C3B69429  31.704  30.695   6.836
 5475POPC   C4B69430  31.794  30.567   7.246
 5476POPC   NC369431  31.051  44.840   5.502
 5476POPC   PO469432  30.544  44.571   5.252
 5476POPC   GL169433  30.509  44.768   5.674
 5476POPC   GL269434  30.767  44.573   5.829
 5476POPC   C1A69435  30.438  44.794   6.149
 5476POPC   D2A69436  30.749  44.690   6.492
 5476POPC   C3A69437  30.637  44.861   6.903
 5476POPC   C4A69438  30.329  44.755   7.207
 5476POPC   C1B69439  30.624  44.293   6.130
 5476POPC   C2B69440  30.729  44.181   6.539
 5476POPC   C3B69441  30.588  44.362   6.917
 5476POPC   C4B69442  30.770  44.501   7.280
 5477POPC   NC369443  19.445  16.885   5.534
 5477POPC   PO469444  20.074  16.683   5.476
 5477POPC   GL169445  19.962  16.742   5.875
 5477POPC   GL269446  20.028  16.425   6.023
 5477POPC   C1A69447  19.589  16.726   6.148
 5477POPC   D2A69448  19.485  16.525   6.518
 5477POPC   C3A69449  19.718  16.741   6.804
 5477POPC   C4A69450  19.644  16.567   7.166
 5477POPC   C1B69451  20.075  16.668   6.379
 5477POPC   C2B69452  20.259  16.841   6.716
 5477POPC   C3B69453  20.136  16.650   7.108
 5477POPC   C4B69454  20.001  16.274   7.366
 5478POPC   NC369455  12.076  25.565   5.393
 5478POPC   PO469456  12.399  25.021   5.671
 5478POPC   GL169457  12.090  25.226   5.871
 5478POPC   GL269458  12.261  25.531   5.878
 5478POPC   C1A69459  12.095  25.303   6.318
 5478POPC   D2A69460  12.377  25.310   6.657
 5478POPC   C3A69461  12.208  25.052   6.999
 5478POPC   C4A69462  11.744  24.970   7.006
 5478POPC   C1B69463  11.835  25.648   6.052
 5478POPC   C2B69464  11.723  25.785   6.480
 5478POPC   C3B69465  11.679  25.669   6.912
 5478POPC   C4B69466  11.949  25.443   7.183
 5479POPC   NC369467  35.559  27.458   5.604
 5479POPC   PO469468  35.377  28.070   5.312
 5479POPC   GL169469  35.277  27.923   5.736
 5479POPC   GL269470  35.068  27.623   5.736
 5479POPC   C1A69471  35.359  27.800   6.180
 5479POPC   D2A69472  35.320  27.840   6.630
 5479POPC   C3A69473  35.601  27.698   6.950
 5479POPC   C4A69474  35.406  27.394   7.162
 5479POPC   C1B69475  35.077  27.365   6.115
 5479POPC   C2B69476  35.270  27.316   6.538
 5479POPC   C3B69477  35.062  27.125   6.888
 5479POPC   C4B69478  34.925  27.126   7.303
 5480POPC   NC369479   7.695   2.452   5.426
 5480POPC   PO469480   7.244   2.976   5.337
 5480POPC   GL169481   7.192   2.685   5.685
 5480POPC   GL269482   7.525   2.794   5.771
 5480POPC   C1A69483   7.175   2.787   6.164
 5480POPC   D2A69484   7.311   2.967   6.604
 5480POPC   C3A69485   7.151   2.816   7.013
 5480POPC   C4A69486   7.293   2.651   7.436
 5480POPC   C1B69487   7.513   2.428   6.078
 5480POPC   C2B69488   7.414   2.454   6.527
 5480POPC   C3B69489   7.622   2.657   6.875
 5480POPC   C4B69490   7.769   2.512   7.242
 5481POPC   NC369491  40.469  22.211   5.486
 5481POPC   PO469492  41.090  21.971   5.336
 5481POPC   GL169493  40.907  22.043   5.801
 5481POPC   GL269494  40.620  22.258   5.964
 5481POPC   C1A69495  40.870  21.875   6.246
 5481POPC   D2A69496  40.639  21.928   6.653
 5481POPC   C3A69497  40.910  21.986   7.008
 5481POPC   C4A69498  40.880  21.874   7.413
 5481POPC   C1B69499  40.565  22.643   6.248
 5481POPC   C2B69500  40.768  22.648   6.637
 5481POPC   C3B69501  40.591  22.379   6.937
 5481POPC   C4B69502  40.641  22.309   7.370
 5482POPC   NC369503  38.142  21.851   5.515
 5482POPC   PO469504  37.466  21.941   5.406
 5482POPC   GL169505  37.735  22.134   5.753
 5482POPC   GL269506  37.548  22.422   5.855
 5482POPC   C1A69507  37.897  22.060   6.202
 5482POPC   D2A69508  37.845  22.198   6.648
 5482POPC   C3A69509  37.845  21.895   7.017
 5482POPC   C4A69510  37.760  21.963   7.489
 5482POPC   C1B69511  37.431  22.252   6.266
 5482POPC   C2B69512  37.180  22.201   6.629
 5482POPC   C3B69513  37.182  22.370   6.987
 5482POPC   C4B69514  37.405  22.269   7.318
 5483POPC   NC369515  26.796  24.647   5.277
 5483POPC   PO469516  27.418  24.374   5.199
 5483POPC   GL169517  27.141  24.411   5.587
 5483POPC   GL269518  26.798  24.240   5.632
 5483POPC   C1A69519  26.949  24.648   5.944
 5483POPC   D2A69520  26.980  24.636   6.405
 5483POPC   C3A69521  26.780  24.688   6.834
 5483POPC   C4A69522  26.666  24.703   7.286
 5483POPC   C1B69523  26.842  24.164   6.095
 5483POPC   C2B69524  26.677  24.251   6.523
 5483POPC   C3B69525  26.751  24.153   6.953
 5483POPC   C4B69526  26.721  24.183   7.389
 5484POPC   NC369527  29.656   3.888   5.173
 5484POPC   PO469528  30.194   3.469   5.394
 5484POPC   GL169529  29.948   3.357   5.777
 5484POPC   GL269530  29.599   3.287   5.646
 5484POPC   C1A69531  30.037   3.488   6.211
 5484POPC   D2A69532  30.030   3.759   6.528
 5484POPC   C3A69533  30.242   3.656   6.891
 5484POPC   C4A69534  29.988   3.594   7.219
 5484POPC   C1B69535  29.523   3.548   6.019
 5484POPC   C2B69536  29.550   3.541   6.481
 5484POPC   C3B69537  29.578   3.426   6.947
 5484POPC   C4B69538  29.647   3.071   7.246
 5485POPC   NC369539  25.390  12.042   5.583
 5485POPC   PO469540  24.742  12.283   5.623
 5485POPC   GL169541  25.006  12.185   5.905
 5485POPC   GL269542  25.030  11.826   5.873
 5485POPC   C1A69543  25.294  12.184   6.238
 5485POPC   D2A69544  25.425  11.959   6.597
 5485POPC   C3A69545  25.483  12.213   6.931
 5485POPC   C4A69546  25.354  12.203   7.337
 5485POPC   C1B69547  25.170  11.643   6.223
 5485POPC   C2B69548  25.038  11.638   6.635
 5485POPC   C3B69549  25.240  11.710   7.025
 5485POPC   C4B69550  25.028  11.778   7.409
 5486POPC   NC369551   4.610  36.034   5.574
 5486POPC   PO469552   4.050  36.331   5.226
 5486POPC   GL169553   3.961  36.087   5.691
 5486POPC   GL269554   4.223  35.986   5.892
 5486POPC   C1A69555   3.888  36.147   6.198
 5486POPC   D2A69556   4.130  36.185   6.617
 5486POPC   C3A69557   3.950  36.123   7.048
 5486POPC   C4A69558   3.944  36.238   7.511
 5486POPC   C1B69559   4.482  36.104   6.247
 5486POPC   C2B69560   4.547  35.871   6.645
 5486POPC   C3B69561   4.500  35.913   7.090
 5486POPC   C4B69562   4.391  36.300   7.265
 5487POPC   NC369563   2.394  39.846   5.710
 5487POPC   PO469564   1.845  40.234   5.566
 5487POPC   GL169565   2.019  40.116   5.921
 5487POPC   GL269566   2.039  40.442   6.075
 5487POPC   C1A69567   2.130  39.986   6.350
 5487POPC   D2A69568   2.048  40.041   6.806
 5487POPC   C3A69569   2.319  39.796   7.154
 5487POPC   C4A69570   2.135  39.617   7.556
 5487POPC   C1B69571   1.669  40.205   6.254
 5487POPC   C2B69572   1.485  40.128   6.635
 5487POPC   C3B69573   1.599  40.185   7.042
 5487POPC   C4B69574   1.865  39.970   7.275
 5488POPC   NC369575  10.217  10.034   5.403
 5488POPC   PO469576  10.395   9.400   5.675
 5488POPC   GL169577  10.552   9.812   5.810
 5488POPC   GL269578  10.258   9.986   5.907
 5488POPC   C1A69579  10.702   9.879   6.244
 5488POPC   D2A69580  10.593   9.609   6.620
 5488POPC   C3A69581  10.692   9.678   7.054
 5488POPC   C4A69582  10.438   9.772   7.418
 5488POPC   C1B69583  10.173  10.262   6.215
 5488POPC   C2B69584  10.181  10.396   6.586
 5488POPC   C3B69585  10.282  10.132   6.919
 5488POPC   C4B69586  10.152  10.206   7.309
 5489POPC   NC369587  27.741  44.219   5.389
 5489POPC   PO469588  27.637  43.591   5.170
 5489POPC   GL169589  27.564  43.777   5.603
 5489POPC   GL269590  27.665  43.526   5.812
 5489POPC   C1A69591  27.489  43.910   6.075
 5489POPC   D2A69592  27.562  43.789   6.540
 5489POPC   C3A69593  27.654  44.113   6.864
 5489POPC   C4A69594  27.763  44.117   7.316
 5489POPC   C1B69595  27.830  43.445   6.233
 5489POPC   C2B69596  27.715  43.298   6.639
 5489POPC   C3B69597  27.819  43.472   7.017
 5489POPC   C4B69598  27.542  43.663   7.261
 5490POPC   NC369599   7.216  23.533   5.478
 5490POPC   PO469600   6.722  23.937   5.165
 5490POPC   GL169601   6.845  23.859   5.648
 5490POPC   GL269602   6.816  24.137   5.873
 5490POPC   C1A69603   6.841  23.646   6.091
 5490POPC   D2A69604   6.704  23.646   6.556
 5490POPC   C3A69605   6.786  23.365   6.883
 5490POPC   C4A69606   6.584  23.384   7.269
 5490POPC   C1B69607   6.682  24.102   6.314
 5490POPC   C2B69608   6.294  24.073   6.600
 5490POPC   C3B69609   6.306  23.838   6.998
 5490POPC   C4B69610   6.563  23.911   7.325
 5491POPC   NC369611  33.696   3.538   5.290
 5491POPC   PO469612  34.144   3.983   5.512
 5491POPC   GL169613  33.758   3.796   5.746
 5491POPC   GL269614  33.646   3.412   5.790
 5491POPC   C1A69615  33.683   3.783   6.176
 5491POPC   D2A69616  33.918   3.724   6.539
 5491POPC   C3A69617  33.725   3.730   6.929
 5491POPC   C4A69618  33.881   3.706   7.323
 5491POPC   C1B69619  33.671   3.246   6.232
 5491POPC   C2B69620  33.819   3.236   6.693
 5491POPC   C3B69621  33.548   3.244   7.088
 5491POPC   C4B69622  33.438   3.055   7.499
 5492POPC   NC369623   8.620  36.400   5.391
 5492POPC   PO469624   8.972  35.774   5.249
 5492POPC   GL169625   8.928  36.030   5.676
 5492POPC   GL269626   9.253  36.174   5.811
 5492POPC   C1A69627   8.786  36.196   6.122
 5492POPC   D2A69628   8.938  36.322   6.571
 5492POPC   C3A69629   8.737  36.239   6.993
 5492POPC   C4A69630   8.884  36.256   7.420
 5492POPC   C1B69631   9.124  35.841   6.153
 5492POPC   C2B69632   8.943  35.780   6.625
 5492POPC   C3B69633   8.965  35.788   7.126
 5492POPC   C4B69634   9.066  35.809   7.589
 5493POPC   NC369635  10.151  40.424   5.456
 5493POPC   PO469636  10.834  40.168   5.478
 5493POPC   GL169637  10.618  40.277   5.841
 5493POPC   GL269638  10.315  40.096   5.875
 5493POPC   C1A69639  10.646  40.134   6.274
 5493POPC   D2A69640  10.704  40.312   6.662
 5493POPC   C3A69641  10.549  40.067   6.968
 5493POPC   C4A69642  10.664  40.002   7.383
 5493POPC   C1B69643  10.136  40.283   6.238
 5493POPC   C2B69644  10.197  40.340   6.659
 5493POPC   C3B69645   9.966  40.249   6.990
 5493POPC   C4B69646  10.136  40.015   7.293
 5494POPC   NC369647  31.835   8.449   5.423
 5494POPC   PO469648  31.330   7.965   5.235
 5494POPC   GL169649  31.576   8.056   5.620
 5494POPC   GL269650  31.421   8.364   5.760
 5494POPC   C1A69651  31.624   8.043   6.100
 5494POPC   D2A69652  31.362   8.167   6.470
 5494POPC   C3A69653  31.394   7.912   6.836
 5494POPC   C4A69654  31.346   7.940   7.281
 5494POPC   C1B69655  31.647   8.551   6.148
 5494POPC   C2B69656  31.802   8.392   6.572
 5494POPC   C3B69657  31.626   8.372   7.021
 5494POPC   C4B69658  31.762   8.499   7.449
 5495POPC   NC369659   3.041  18.638   5.060
 5495POPC   PO469660   2.874  18.076   5.287
 5495POPC   GL169661   2.799  18.246   5.722
 5495POPC   GL269662   3.050  18.498   5.838
 5495POPC   C1A69663   2.724  18.221   6.182
 5495POPC   D2A69664   2.994  18.270   6.548
 5495POPC   C3A69665   2.824  18.188   6.947
 5495POPC   C4A69666   2.578  18.368   7.301
 5495POPC   C1B69667   2.897  18.712   6.221
 5495POPC   C2B69668   2.694  18.700   6.645
 5495POPC   C3B69669   2.904  18.719   7.054
 5495POPC   C4B69670   3.098  18.418   7.320
 5496POPC   NC369671  33.103  24.562   5.387
 5496POPC   PO469672  32.952  23.881   5.369
 5496POPC   GL169673  33.041  24.190   5.723
 5496POPC   GL269674  32.828  24.480   5.851
 5496POPC   C1A69675  33.226  24.283   6.130
 5496POPC   D2A69676  33.289  24.069   6.507
 5496POPC   C3A69677  33.154  24.240   6.891
 5496POPC   C4A69678  33.361  24.285   7.260
 5496POPC   C1B69679  32.912  24.675   6.264
 5496POPC   C2B69680  33.274  24.698   6.595
 5496POPC   C3B69681  33.237  24.734   7.051
 5496POPC   C4B69682  32.898  24.571   7.271
 5497POPC   NC369683   7.641   9.977   5.456
 5497POPC   PO469684   7.212   9.321   5.417
 5497POPC   GL169685   7.440   9.572   5.717
 5497POPC   GL269686   7.226   9.879   5.793
 5497POPC   C1A69687   7.640   9.705   6.098
 5497POPC   D2A69688   7.578   9.574   6.531
 5497POPC   C3A69689   7.577   9.735   6.950
 5497POPC   C4A69690   7.680   9.997   7.287
 5497POPC   C1B69691   7.168   9.788   6.255
 5497POPC   C2B69692   7.113   9.755   6.719
 5497POPC   C3B69693   7.116   9.954   7.142
 5497POPC   C4B69694   6.849  10.165   7.471
 5498POPC   NC369695  40.400  12.984   5.450
 5498POPC   PO469696  39.874  12.451   5.470
 5498POPC   GL169697  40.095  12.662   5.798
 5498POPC   GL269698  40.357  12.415   5.861
 5498POPC   C1A69699  40.096  12.917   6.201
 5498POPC   D2A69700  40.062  13.251   6.545
 5498POPC   C3A69701  40.056  13.114   7.001
 5498POPC   C4A69702  40.141  13.104   7.480
 5498POPC   C1B69703  40.357  12.488   6.333
 5498POPC   C2B69704  40.217  12.715   6.715
 5498POPC   C3B69705  40.251  12.694   7.188
 5498POPC   C4B69706  40.006  12.610   7.596
 5499POPC   NC369707  16.605  40.225   5.283
 5499POPC   PO469708  16.418  39.607   5.257
 5499POPC   GL169709  16.567  39.814   5.659
 5499POPC   GL269710  16.489  40.145   5.844
 5499POPC   C1A69711  16.768  39.726   6.074
 5499POPC   D2A69712  16.969  39.811   6.490
 5499POPC   C3A69713  16.693  39.796   6.868
 5499POPC   C4A69714  16.453  40.086   7.171
 5499POPC   C1B69715  16.738  40.208   6.237
 5499POPC   C2B69716  16.798  40.254   6.705
 5499POPC   C3B69717  16.977  40.140   7.126
 5499POPC   C4B69718  17.200  40.180   7.557
 5500POPC   NC369719  17.617  26.908   5.542
 5500POPC   PO469720  16.976  26.863   5.398
 5500POPC   GL169721  17.211  26.620   5.778
 5500POPC   GL269722  17.608  26.605   5.945
 5500POPC   C1A69723  17.188  26.495   6.215
 5500POPC   D2A69724  17.445  26.568   6.590
 5500POPC   C3A69725  17.298  26.524   6.983
 5500POPC   C4A69726  17.457  26.715   7.335
 5500POPC   C1B69727  17.933  26.936   6.126
 5500POPC   C2B69728  17.910  27.261   6.466
 5500POPC   C3B69729  17.653  27.155   6.841
 5500POPC   C4B69730  17.873  27.015   7.200
 5501POPC   NC369731  34.180  42.113   5.416
 5501POPC   PO469732  34.759  42.455   5.407
 5501POPC   GL169733  34.589  42.116   5.706
 5501POPC   GL269734  34.370  42.377   5.818
 5501POPC   C1A69735  34.426  41.963   6.128
 5501POPC   D2A69736  34.506  42.210   6.516
 5501POPC   C3A69737  34.683  42.059   6.903
 5501POPC   C4A69738  34.484  42.205   7.277
 5501POPC   C1B69739  34.765  42.378   6.093
 5501POPC   C2B69740  34.854  42.625   6.434
 5501POPC   C3B69741  34.778  42.570   6.889
 5501POPC   C4B69742  34.971  42.375   7.264
 5502POPC   NC369743  14.578   7.006   5.506
 5502POPC   PO469744  14.122   6.410   5.523
 5502POPC   GL169745  14.307   6.670   5.800
 5502POPC   GL269746  14.450   6.398   5.987
 5502POPC   C1A69747  14.491   6.864   6.167
 5502POPC   D2A69748  14.643   6.588   6.494
 5502POPC   C3A69749  14.419   6.651   6.880
 5502POPC   C4A69750  14.517   6.936   7.216
 5502POPC   C1B69751  14.146   6.470   6.331
 5502POPC   C2B69752  13.940   6.507   6.762
 5502POPC   C3B69753  14.069   6.497   7.241
 5502POPC   C4B69754  14.096   6.365   7.691
 5503POPC   NC369755  20.905   3.036   5.291
 5503POPC   PO469756  20.553   2.593   5.616
 5503POPC   GL169757  20.432   2.904   5.885
 5503POPC   GL269758  20.735   2.926   6.120
 5503POPC   C1A69759  20.296   2.847   6.304
 5503POPC   D2A69760  20.575   2.755   6.593
 5503POPC   C3A69761  20.416   2.825   6.939
 5503POPC   C4A69762  20.661   2.953   7.261
 5503POPC   C1B69763  21.024   2.652   6.353
 5503POPC   C2B69764  21.139   2.559   6.732
 5503POPC   C3B69765  20.791   2.476   6.987
 5503POPC   C4B69766  20.705   2.465   7.402
 5504POPC   NC369767  39.592   5.577   5.503
 5504POPC   PO469768  39.227   4.914   5.445
 5504POPC   GL169769  39.158   5.246   5.732
 5504POPC   GL269770  39.483   5.184   5.889
 5504POPC   C1A69771  39.049   5.213   6.173
 5504POPC   D2A69772  39.201   5.057   6.568
 5504POPC   C3A69773  38.973   4.994   6.929
 5504POPC   C4A69774  39.289   4.846   7.177
 5504POPC   C1B69775  39.554   5.327   6.328
 5504POPC   C2B69776  39.455   5.497   6.748
 5504POPC   C3B69777  39.184   5.440   7.113
 5504POPC   C4B69778  39.281   5.452   7.552
 5505POPC   NC369779  42.496  44.817   5.402
 5505POPC   PO469780  42.060  44.368   5.434
 5505POPC   GL169781  42.163  44.599   5.793
 5505POPC   GL269782  42.505  44.584   5.867
 5505POPC   C1A69783  42.131  44.761   6.211
 5505POPC   D2A69784  42.319  44.663   6.591
 5505POPC   C3A69785  42.051  44.732   6.920
 5505POPC   C4A69786  42.198  44.767   7.321
 5505POPC   C1B69787  42.618  44.932   6.150
 5505POPC   C2B69788  42.758  44.934   6.582
 5505POPC   C3B69789  42.602  44.886   7.015
 5505POPC   C4B69790  42.549   0.270   7.302
 5506POPC   NC369791  28.789  38.687   5.540
 5506POPC   PO469792  29.213  38.236   5.557
 5506POPC   GL169793  29.205  38.435   5.953
 5506POPC   GL269794  29.097  38.769   5.951
 5506POPC   C1A69795  29.094  38.494   6.392
 5506POPC   D2A69796  28.928  38.637   6.779
 5506POPC   C3A69797  29.187  38.421   7.045
 5506POPC   C4A69798  29.594  38.441   7.181
 5506POPC   C1B69799  29.422  38.878   6.253
 5506POPC   C2B69800  29.481  38.723   6.670
 5506POPC   C3B69801  29.370  38.898   7.025
 5506POPC   C4B69802  29.015  38.837   7.269
 5507POPC   NC369803  36.956  14.791   5.525
 5507POPC   PO469804  36.671  14.140   5.538
 5507POPC   GL169805  36.963  14.331   5.787
 5507POPC   GL269806  36.683  14.549   5.915
 5507POPC   C1A69807  37.127  14.510   6.167
 5507POPC   D2A69808  36.888  14.528   6.568
 5507POPC   C3A69809  37.089  14.525   6.995
 5507POPC   C4A69810  36.871  14.704   7.399
 5507POPC   C1B69811  36.658  14.189   6.210
 5507POPC   C2B69812  36.517  14.146   6.643
 5507POPC   C3B69813  36.561  14.457   6.976
 5507POPC   C4B69814  36.603  14.279   7.370
 5508POPC   NC369815  12.929  37.963   5.427
 5508POPC   PO469816  12.739  38.574   5.248
 5508POPC   GL169817  12.868  38.402   5.701
 5508POPC   GL269818  12.947  38.718   5.808
 5508POPC   C1A69819  12.872  38.179   6.150
 5508POPC   D2A69820  12.844  38.320   6.596
 5508POPC   C3A69821  12.693  38.127   6.961
 5508POPC   C4A69822  12.890  37.947   7.280
 5508POPC   C1B69823  13.162  38.595   6.168
 5508POPC   C2B69824  13.317  38.479   6.531
 5508POPC   C3B69825  13.177  38.630   6.896
 5508POPC   C4B69826  12.870  38.547   7.159
 5509POPC   NC369827  25.881  15.285   5.390
 5509POPC   PO469828  26.352  14.910   5.515
 5509POPC   GL169829  26.053  15.098   5.839
 5509POPC   GL269830  25.762  15.365   5.853
 5509POPC   C1A69831  26.063  14.978   6.270
 5509POPC   D2A69832  25.832  15.029   6.666
 5509POPC   C3A69833  26.053  15.069   7.060
 5509POPC   C4A69834  25.975  14.809   7.432
 5509POPC   C1B69835  25.674  15.285   6.246
 5509POPC   C2B69836  25.504  15.476   6.606
 5509POPC   C3B69837  25.654  15.453   6.975
 5509POPC   C4B69838  25.748  15.637   7.310
 5510POPC   NC369839  15.280  36.356   5.203
 5510POPC   PO469840  14.948  35.932   5.697
 5510POPC   GL169841  15.317  35.944   5.985
 5510POPC   GL269842  15.594  36.248   5.979
 5510POPC   C1A69843  15.266  36.155   6.355
 5510POPC   D2A69844  15.355  36.131   6.741
 5510POPC   C3A69845  15.036  36.258   6.972
 5510POPC   C4A69846  14.954  35.913   7.197
 5510POPC   C1B69847  15.732  36.508   6.298
 5510POPC   C2B69848  15.558  36.609   6.669
 5510POPC   C3B69849  15.561  36.460   7.050
 5510POPC   C4B69850  15.415  36.170   7.318
 5511POPC   NC369851   0.199  16.877   5.473
 5511POPC   PO469852   0.326  16.273   5.659
 5511POPC   GL169853   0.405  16.681   5.871
 5511POPC   GL269854   0.762  16.799   5.839
 5511POPC   C1A69855   0.446  16.906   6.245
 5511POPC   D2A69856   0.402  16.677   6.581
 5511POPC   C3A69857   0.319  16.839   6.960
 5511POPC   C4A69858   0.097  16.541   7.166
 5511POPC   C1B69859   0.722  16.432   6.162
 5511POPC   C2B69860   0.697  16.239   6.575
 5511POPC   C3B69861   0.698  16.476   6.945
 5511POPC   C4B69862   0.598  16.612   7.342
 5512POPC   NC369863  37.855  39.279   5.361
 5512POPC   PO469864  37.212  39.371   5.189
 5512POPC   GL169865  37.491  39.175   5.701
 5512POPC   GL269866  37.922  39.066   5.799
 5512POPC   C1A69867  37.644  39.270   6.151
 5512POPC   D2A69868  37.848  39.081   6.562
 5512POPC   C3A69869  37.600  39.081   6.923
 5512POPC   C4A69870  37.482  39.496   7.064
 5512POPC   C1B69871  38.182  39.231   6.172
 5512POPC   C2B69872  38.287  39.433   6.582
 5512POPC   C3B69873  38.012  39.402   6.956
 5512POPC   C4B69874  37.842  39.236   7.352
 5513POPC   NC369875  26.814  14.939   5.553
 5513POPC   PO469876  26.342  15.438   5.402
 5513POPC   GL169877  26.555  15.296   5.802
 5513POPC   GL269878  26.532  14.996   5.996
 5513POPC   C1A69879  26.900  15.344   6.115
 5513POPC   D2A69880  27.161  15.284   6.475
 5513POPC   C3A69881  26.966  15.128   6.837
 5513POPC   C4A69882  27.022  15.229   7.245
 5513POPC   C1B69883  26.420  15.335   6.288
 5513POPC   C2B69884  26.440  15.230   6.704
 5513POPC   C3B69885  26.548  15.311   7.112
 5513POPC   C4B69886  26.399  15.091   7.461
 5514POPC   NC369887  21.592  11.949   5.351
 5514POPC   PO469888  21.714  12.634   5.365
 5514POPC   GL169889  21.546  12.413   5.764
 5514POPC   GL269890  21.609  12.047   5.838
 5514POPC   C1A69891  21.306  12.388   6.180
 5514POPC   D2A69892  21.115  12.116   6.507
 5514POPC   C3A69893  21.143  12.245   6.934
 5514POPC   C4A69894  21.082  11.992   7.298
 5514POPC   C1B69895  21.456  11.891   6.207
 5514POPC   C2B69896  21.617  11.935   6.615
 5514POPC   C3B69897  21.483  11.835   7.016
 5514POPC   C4B69898  21.577  11.943   7.426
 5515POPC   NC369899  12.570  23.937   5.466
 5515POPC   PO469900  13.292  23.774   5.560
 5515POPC   GL169901  13.119  23.996   5.923
 5515POPC   GL269902  12.729  23.954   5.954
 5515POPC   C1A69903  13.061  23.900   6.386
 5515POPC   D2A69904  13.167  23.913   6.856
 5515POPC   C3A69905  12.996  23.619   7.112
 5515POPC   C4A69906  12.987  23.798   7.499
 5515POPC   C1B69907  12.671  23.558   6.209
 5515POPC   C2B69908  12.684  23.465   6.661
 5515POPC   C3B69909  12.616  23.248   7.047
 5515POPC   C4B69910  12.622  23.414   7.455
 5516POPC   NC369911  17.278  34.727   5.472
 5516POPC   PO469912  17.904  34.365   5.418
 5516POPC   GL169913  17.648  34.502   5.768
 5516POPC   GL269914  17.335  34.318   5.801
 5516POPC   C1A69915  17.627  34.557   6.227
 5516POPC   D2A69916  17.894  34.397   6.597
 5516POPC   C3A69917  17.708  34.360   7.029
 5516POPC   C4A69918  17.585  34.669   7.369
 5516POPC   C1B69919  17.084  34.358   6.161
 5516POPC   C2B69920  17.036  34.370   6.606
 5516POPC   C3B69921  17.103  34.218   7.047
 5516POPC   C4B69922  17.182  34.359   7.474
 5517POPC   NC369923  34.922  39.464   5.332
 5517POPC   PO469924  34.389  39.127   5.321
 5517POPC   GL169925  34.488  39.404   5.701
 5517POPC   GL269926  34.829  39.360   5.812
 5517POPC   C1A69927  34.355  39.475   6.160
 5517POPC   D2A69928  34.212  39.185   6.521
 5517POPC   C3A69929  34.441  39.049   6.892
 5517POPC   C4A69930  34.754  39.347   7.060
 5517POPC   C1B69931  34.688  39.082   6.125
 5517POPC   C2B69932  34.787  39.179   6.543
 5517POPC   C3B69933  34.976  38.939   6.858
 5517POPC   C4B69934  34.954  38.864   7.277
 5518POPC   NC369935  18.843  33.123   5.499
 5518POPC   PO469936  19.211  32.565   5.636
 5518POPC   GL169937  19.082  32.909   5.900
 5518POPC   GL269938  18.718  32.887   5.950
 5518POPC   C1A69939  19.078  32.899   6.347
 5518POPC   D2A69940  19.368  32.830   6.680
 5518POPC   C3A69941  19.214  32.979   7.074
 5518POPC   C4A69942  19.220  33.368   7.311
 5518POPC   C1B69943  18.613  33.160   6.274
 5518POPC   C2B69944  18.772  33.278   6.698
 5518POPC   C3B69945  18.741  33.316   7.122
 5518POPC   C4B69946  18.808  33.015   7.426
 5519POPC   NC369947   5.137  15.015   5.524
 5519POPC   PO469948   5.192  15.549   5.197
 5519POPC   GL169949   5.258  15.408   5.795
 5519POPC   GL269950   5.148  15.008   6.007
 5519POPC   C1A69951   5.057  15.423   6.236
 5519POPC   D2A69952   5.165  15.155   6.571
 5519POPC   C3A69953   4.954  15.406   6.897
 5519POPC   C4A69954   5.003  15.325   7.340
 5519POPC   C1B69955   4.765  14.947   6.260
 5519POPC   C2B69956   4.694  15.009   6.663
 5519POPC   C3B69957   4.951  14.915   7.000
 5519POPC   C4B69958   4.704  14.855   7.328
 5520POPC   NC369959  36.370  15.742   5.475
 5520POPC   PO469960  35.783  16.088   5.339
 5520POPC   GL169961  36.061  16.077   5.746
 5520POPC   GL269962  36.333  16.352   5.740
 5520POPC   C1A69963  36.171  15.790   6.141
 5520POPC   D2A69964  35.997  15.712   6.581
 5520POPC   C3A69965  36.001  15.925   7.020
 5520POPC   C4A69966  36.146  15.878   7.481
 5520POPC   C1B69967  36.353  16.275   6.202
 5520POPC   C2B69968  36.654  16.267   6.571
 5520POPC   C3B69969  36.637  16.437   7.016
 5520POPC   C4B69970  36.265  16.412   7.291
 5521POPC   NC369971  37.043  44.994   5.227
 5521POPC   PO469972  36.962   0.690   5.289
 5521POPC   GL169973  36.780   0.537   5.710
 5521POPC   GL269974  36.620   0.193   5.682
 5521POPC   C1A69975  36.937   0.384   6.155
 5521POPC   D2A69976  37.119   0.555   6.547
 5521POPC   C3A69977  36.995   0.374   6.948
 5521POPC   C4A69978  37.150   0.179   7.339
 5521POPC   C1B69979  36.528   0.059   6.125
 5521POPC   C2B69980  36.666   0.130   6.565
 5521POPC   C3B69981  36.542   0.161   7.019
 5521POPC   C4B69982  36.634   0.083   7.458
 5522POPC   NC369983   3.185  15.385   5.665
 5522POPC   PO469984   2.607  15.025   5.543
 5522POPC   GL169985   2.773  15.158   5.921
 5522POPC   GL269986   3.090  15.017   6.029
 5522POPC   C1A69987   2.732  15.224   6.365
 5522POPC   D2A69988   2.820  15.550   6.644
 5522POPC   C3A69989   2.852  15.479   7.075
 5522POPC   C4A69990   2.728  15.127   7.266
 5522POPC   C1B69991   3.097  14.860   6.431
 5522POPC   C2B69992   2.821  14.922   6.775
 5522POPC   C3B69993   2.825  14.646   7.088
 5522POPC   C4B69994   2.938  14.700   7.469
 5523POPC   NC369995  20.309  28.601   5.328
 5523POPC   PO469996  19.647  28.387   5.425
 5523POPC   GL169997  19.748  28.273   5.814
 5523POPC   GL269998  19.920  28.597   5.856
 5523POPC   C1A69999  19.668  28.333   6.246
 5523POPC   D2A70000  19.772  28.585   6.609
 5523POPC   C3A70001  19.659  28.412   6.964
 5523POPC   C4A70002  19.759  28.064   7.219
 5523POPC   C1B70003  20.124  28.621   6.262
 5523POPC   C2B70004  20.298  28.563   6.688
 5523POPC   C3B70005  20.159  28.355   7.042
 5523POPC   C4B70006  19.941  28.544   7.395
 5524POPC   NC370007  44.342  16.377   5.603
 5524POPC   PO470008  44.927  16.565   5.259
 5524POPC   GL170009  44.871  16.586   5.748
 5524POPC   GL270010  44.645  16.869   5.853
 5524POPC   C1A70011  44.987  16.712   6.200
 5524POPC   D2A70012  44.954  16.970   6.597
 5524POPC   C3A70013  44.709  16.828   6.925
 5524POPC   C4A70014  44.671  16.767   7.361
 5524POPC   C1B70015  44.502  16.869   6.314
 5524POPC   C2B70016  44.363  17.127   6.688
 5524POPC   C3B70017  44.266  16.998   7.134
 5524POPC   C4B70018  44.320  17.065   7.614
 5525POPC   NC370019  10.145   7.281   5.337
 5525POPC   PO470020   9.733   7.815   5.484
 5525POPC   GL170021   9.837   7.509   5.820
 5525POPC   GL270022  10.052   7.221   5.824
 5525POPC   C1A70023   9.716   7.286   6.219
 5525POPC   D2A70024   9.497   7.169   6.605
 5525POPC   C3A70025   9.801   7.288   6.877
 5525POPC   C4A70026   9.885   7.517   7.260
 5525POPC   C1B70027  10.068   6.904   6.128
 5525POPC   C2B70028   9.921   6.876   6.515
 5525POPC   C3B70029  10.146   6.831   6.865
 5525POPC   C4B70030  10.126   7.071   7.200
 5526POPC   NC370031  23.860  20.757   5.253
 5526POPC   PO470032  23.863  21.347   5.411
 5526POPC   GL170033  24.003  21.397   5.825
 5526POPC   GL270034  24.046  21.059   5.846
 5526POPC   C1A70035  23.955  21.586   6.193
 5526POPC   D2A70036  24.027  21.431   6.606
 5526POPC   C3A70037  23.775  21.475   6.944
 5526POPC   C4A70038  24.101  21.616   7.215
 5526POPC   C1B70039  23.817  21.089   6.266
 5526POPC   C2B70040  23.698  21.006   6.713
 5526POPC   C3B70041  23.462  21.016   7.120
 5526POPC   C4B70042  23.182  21.282   7.401
 5527POPC   NC370043  37.594  21.524   5.270
 5527POPC   PO470044  37.285  21.012   5.546
 5527POPC   GL170045  37.661  21.248   5.745
 5527POPC   GL270046  37.732  21.618   5.748
 5527POPC   C1A70047  37.842  21.331   6.159
 5527POPC   D2A70048  37.954  21.548   6.550
 5527POPC   C3A70049  37.676  21.424   6.880
 5527POPC   C4A70050  37.778  21.169   7.225
 5527POPC   C1B70051  37.532  21.749   6.102
 5527POPC   C2B70052  37.525  21.832   6.548
 5527POPC   C3B70053  37.348  21.855   6.966
 5527POPC   C4B70054  37.448  21.609   7.315
 5528POPC   NC370055  14.965  13.188   5.432
 5528POPC   PO470056  14.436  13.527   5.535
 5528POPC   GL170057  14.234  13.673   5.903
 5528POPC   GL270058  14.093  13.366   6.001
 5528POPC   C1A70059  14.344  13.654   6.360
 5528POPC   D2A70060  14.582  13.676   6.736
 5528POPC   C3A70061  14.483  13.920   7.139
 5528POPC   C4A70062  14.752  13.887   7.519
 5528POPC   C1B70063  14.123  13.200   6.426
 5528POPC   C2B70064  14.165  13.396   6.824
 5528POPC   C3B70065  14.460  13.425   7.170
 5528POPC   C4B70066  14.533  13.431   7.616
 5529POPC   NC370067  19.697  18.508   5.609
 5529POPC   PO470068  20.281  18.369   5.505
 5529POPC   GL170069  20.010  18.117   5.870
 5529POPC   GL270070  19.615  18.088   5.919
 5529POPC   C1A70071  19.853  18.148   6.340
 5529POPC   D2A70072  19.642  18.291   6.720
 5529POPC   C3A70073  19.927  18.537   7.045
 5529POPC   C4A70074  20.392  18.620   7.121
 5529POPC   C1B70075  19.359  17.930   6.286
 5529POPC   C2B70076  19.165  17.935   6.702
 5529POPC   C3B70077  19.421  17.966   7.056
 5529POPC   C4B70078  19.882  18.040   7.101
 5530POPC   NC370079   1.869  17.395   5.412
 5530POPC   PO470080   1.884  18.008   5.413
 5530POPC   GL170081   1.898  17.702   5.802
 5530POPC   GL270082   1.599  17.445   5.832
 5530POPC   C1A70083   1.984  17.457   6.177
 5530POPC   D2A70084   1.828  17.603   6.553
 5530POPC   C3A70085   2.135  17.608   6.827
 5530POPC   C4A70086   2.183  17.595   7.246
 5530POPC   C1B70087   1.425  17.500   6.229
 5530POPC   C2B70088   1.443  17.265   6.633
 5530POPC   C3B70089   1.711  17.342   6.992
 5530POPC   C4B70090   1.651  17.673   7.275
 5531POPC   NC370091  26.552   1.459   5.289
 5531POPC   PO470092  26.937   0.874   5.161
 5531POPC   GL170093  26.775   1.077   5.627
 5531POPC   GL270094  26.888   1.429   5.706
 5531POPC   C1A70095  26.805   1.164   6.138
 5531POPC   D2A70096  26.919   1.040   6.597
 5531POPC   C3A70097  26.562   0.994   6.898
 5531POPC   C4A70098  26.486   0.933   7.349
 5531POPC   C1B70099  27.163   1.536   6.055
 5531POPC   C2B70100  27.072   1.531   6.496
 5531POPC   C3B70101  26.796   1.472   6.849
 5531POPC   C4B70102  26.820   1.598   7.263
 5532POPC   NC370103  34.891   2.221   5.567
 5532POPC   PO470104  34.353   2.080   5.265
 5532POPC   GL170105  34.441   2.020   5.717
 5532POPC   GL270106  34.609   1.711   5.719
 5532POPC   C1A70107  34.600   2.077   6.174
 5532POPC   D2A70108  34.405   2.137   6.583
 5532POPC   C3A70109  34.586   2.391   6.939
 5532POPC   C4A70110  34.975   2.394   7.193
 5532POPC   C1B70111  34.706   1.548   6.144
 5532POPC   C2B70112  34.834   1.698   6.551
 5532POPC   C3B70113  34.646   1.847   6.916
 5532POPC   C4B70114  34.655   2.009   7.312
 5533POPC   NC370115  34.724   0.488   4.969
 5533POPC   PO470116  34.270   0.146   5.306
 5533POPC   GL170117  34.487   0.306   5.703
 5533POPC   GL270118  34.330   0.114   5.939
 5533POPC   C1A70119  34.643   0.484   6.145
 5533POPC   D2A70120  34.884   0.493   6.553
 5533POPC   C3A70121  34.768   0.599   6.974
 5533POPC   C4A70122  34.508   0.352   7.240
 5533POPC   C1B70123  34.252   0.232   6.349
 5533POPC   C2B70124  34.458   0.146   6.714
 5533POPC   C3B70125  34.176  44.946   6.976
 5533POPC   C4B70126  34.182  44.979   7.392
 5534POPC   NC370127  34.377  38.672   5.327
 5534POPC   PO470128  34.817  38.210   5.360
 5534POPC   GL170129  34.605  38.375   5.719
 5534POPC   GL270130  34.577  38.111   5.936
 5534POPC   C1A70131  34.761  38.542   6.133
 5534POPC   D2A70132  34.552  38.716   6.507
 5534POPC   C3A70133  34.667  38.530   6.894
 5534POPC   C4A70134  34.748  38.409   7.298
 5534POPC   C1B70135  34.283  38.344   6.234
 5534POPC   C2B70136  34.223  38.289   6.685
 5534POPC   C3B70137  34.315  38.208   7.124
 5534POPC   C4B70138  34.290  38.309   7.561
 5535POPC   NC370139  44.590  12.874   5.310
 5535POPC   PO470140  44.145  12.407   5.520
 5535POPC   GL170141  44.547  12.599   5.717
 5535POPC   GL270142  44.566  12.951   5.816
 5535POPC   C1A70143  44.713  12.575   6.148
 5535POPC   D2A70144  44.976  12.844   6.422
 5535POPC   C3A70145  44.869  12.807   6.874
 5535POPC   C4A70146  44.572  12.624   7.219
 5535POPC   C1B70147  44.590  13.228   6.173
 5535POPC   C2B70148  44.620  13.185   6.608
 5535POPC   C3B70149  44.513  13.170   7.051
 5535POPC   C4B70150  44.812  13.036   7.349
 5536POPC   NC370151   9.936   1.740   5.292
 5536POPC   PO470152   9.572   2.389   5.329
 5536POPC   GL170153   9.639   2.008   5.680
 5536POPC   GL270154   9.881   1.749   5.780
 5536POPC   C1A70155   9.557   1.855   6.145
 5536POPC   D2A70156   9.782   1.839   6.566
 5536POPC   C3A70157   9.584   1.824   6.939
 5536POPC   C4A70158   9.389   2.129   7.203
 5536POPC   C1B70159  10.069   1.763   6.169
 5536POPC   C2B70160  10.244   1.627   6.578
 5536POPC   C3B70161  10.132   1.857   6.945
 5536POPC   C4B70162   9.918   1.955   7.305
 5537POPC   NC370163  22.825   4.298   5.294
 5537POPC   PO470164  22.944   4.921   5.418
 5537POPC   GL170165  22.835   4.619   5.712
 5537POPC   GL270166  23.186   4.527   5.679
 5537POPC   C1A70167  22.863   4.356   6.084
 5537POPC   D2A70168  22.748   4.180   6.485
 5537POPC   C3A70169  23.009   4.203   6.861
 5537POPC   C4A70170  22.946   4.128   7.308
 5537POPC   C1B70171  23.180   4.781   6.079
 5537POPC   C2B70172  23.031   4.646   6.493
 5537POPC   C3B70173  23.023   4.730   6.925
 5537POPC   C4B70174  23.272   4.560   7.256
 5538POPC   NC370175  23.982  36.259   5.398
 5538POPC   PO470176  23.346  36.050   5.449
 5538POPC   GL170177  23.556  36.124   5.840
 5538POPC   GL270178  23.943  36.120   5.909
 5538POPC   C1A70179  23.353  36.099   6.227
 5538POPC   D2A70180  23.441  36.225   6.631
 5538POPC   C3A70181  23.767  36.034   6.882
 5538POPC   C4A70182  23.659  36.212   7.252
 5538POPC   C1B70183  23.896  36.144   6.372
 5538POPC   C2B70184  23.898  36.494   6.681
 5538POPC   C3B70185  24.057  36.491   7.090
 5538POPC   C4B70186  24.202  36.160   7.291
 5539POPC   NC370187  19.603  37.782   5.330
 5539POPC   PO470188  19.995  37.288   5.366
 5539POPC   GL170189  19.789  37.464   5.738
 5539POPC   GL270190  19.436  37.355   5.772
 5539POPC   C1A70191  19.934  37.705   6.131
 5539POPC   D2A70192  20.057  37.594   6.567
 5539POPC   C3A70193  19.857  37.785   6.946
 5539POPC   C4A70194  19.742  38.122   7.250
 5539POPC   C1B70195  19.607  37.325   6.239
 5539POPC   C2B70196  19.647  37.328   6.736
 5539POPC   C3B70197  19.466  37.483   7.138
 5539POPC   C4B70198  19.390  37.439   7.603
 5540POPC   NC370199  20.065  24.044   5.507
 5540POPC   PO470200  19.422  23.617   5.535
 5540POPC   GL170201  19.680  23.823   5.814
 5540POPC   GL270202  20.022  23.711   5.931
 5540POPC   C1A70203  19.631  23.728   6.247
 5540POPC   D2A70204  19.941  23.733   6.566
 5540POPC   C3A70205  19.855  23.459   6.857
 5540POPC   C4A70206  19.606  23.571   7.132
 5540POPC   C1B70207  20.013  24.080   6.187
 5540POPC   C2B70208  20.056  24.237   6.610
 5540POPC   C3B70209  19.947  24.025   7.007
 5540POPC   C4B70210  20.094  24.147   7.413
 5541POPC   NC370211  15.478  22.265   5.487
 5541POPC   PO470212  14.807  22.104   5.426
 5541POPC   GL170213  14.906  22.220   5.848
 5541POPC   GL270214  15.218  22.093   5.883
 5541POPC   C1A70215  15.002  22.325   6.289
 5541POPC   D2A70216  15.287  22.281   6.624
 5541POPC   C3A70217  15.123  22.127   6.977
 5541POPC   C4A70218  14.899  22.353   7.226
 5541POPC   C1B70219  15.477  22.062   6.207
 5541POPC   C2B70220  15.456  21.761   6.516
 5541POPC   C3B70221  15.428  21.675   6.943
 5541POPC   C4B70222  15.318  21.820   7.342
 5542POPC   NC370223  28.969   4.904   5.267
 5542POPC   PO470224  29.497   4.961   5.593
 5542POPC   GL170225  29.232   5.067   5.883
 5542POPC   GL270226  28.904   5.000   5.771
 5542POPC   C1A70227  29.353   5.111   6.304
 5542POPC   D2A70228  29.150   5.199   6.678
 5542POPC   C3A70229  29.289   5.149   7.100
 5542POPC   C4A70230  29.416   4.904   7.468
 5542POPC   C1B70231  28.850   5.261   6.184
 5542POPC   C2B70232  28.635   5.220   6.579
 5542POPC   C3B70233  28.754   5.036   6.952
 5542POPC   C4B70234  28.791   5.415   7.156
 5543POPC   NC370235  11.827  17.663   5.276
 5543POPC   PO470236  11.850  17.084   5.585
 5543POPC   GL170237  11.965  17.311   5.912
 5543POPC   GL270238  12.099  17.582   5.714
 5543POPC   C1A70239  11.843  17.433   6.348
 5543POPC   D2A70240  11.985  17.251   6.740
 5543POPC   C3A70241  12.095  17.293   7.195
 5543POPC   C4A70242  11.993  17.665   7.404
 5543POPC   C1B70243  12.244  17.714   6.123
 5543POPC   C2B70244  12.118  17.846   6.547
 5543POPC   C3B70245  12.263  17.719   6.956
 5543POPC   C4B70246  12.530  17.724   7.321
 5544POPC   NC370247  38.089  41.228   5.587
 5544POPC   PO470248  38.704  41.136   5.322
 5544POPC   GL170249  38.503  40.957   5.734
 5544POPC   GL270250  38.261  40.684   5.739
 5544POPC   C1A70251  38.557  41.026   6.209
 5544POPC   D2A70252  38.581  41.177   6.674
 5544POPC   C3A70253  38.569  40.906   7.050
 5544POPC   C4A70254  38.566  40.672   7.437
 5544POPC   C1B70255  38.354  40.554   6.164
 5544POPC   C2B70256  38.451  40.661   6.602
 5544POPC   C3B70257  38.200  40.559   6.981
 5544POPC   C4B70258  38.277  40.255   7.311
 5545POPC   NC370259   6.089   2.843   5.178
 5545POPC   PO470260   5.812   2.322   5.528
 5545POPC   GL170261   5.884   2.572   5.887
 5545POPC   GL270262   5.999   2.896   5.697
 5545POPC   C1A70263   6.014   2.422   6.284
 5545POPC   D2A70264   6.388   2.394   6.529
 5545POPC   C3A70265   6.180   2.508   6.879
 5545POPC   C4A70266   5.873   2.533   7.176
 5545POPC   C1B70267   5.862   3.046   6.107
 5545POPC   C2B70268   5.935   2.917   6.522
 5545POPC   C3B70269   5.885   3.001   6.952
 5545POPC   C4B70270   6.054   3.226   7.278
 5546POPC   NC370271  15.310  26.157   5.412
 5546POPC   PO470272  15.006  25.593   5.610
 5546POPC   GL170273  15.109  25.994   5.878
 5546POPC   GL270274  15.445  26.150   5.896
 5546POPC   C1A70275  15.184  26.157   6.323
 5546POPC   D2A70276  15.254  26.461   6.651
 5546POPC   C3A70277  15.168  26.255   7.034
 5546POPC   C4A70278  14.901  25.895   7.129
 5546POPC   C1B70279  15.439  25.730   6.185
 5546POPC   C2B70280  15.300  25.773   6.647
 5546POPC   C3B70281  15.420  25.784   7.077
 5546POPC   C4B70282  15.604  26.160   7.279
 5547POPC   NC370283  33.639  15.864   5.450
 5547POPC   PO470284  34.127  16.269   5.075
 5547POPC   GL170285  34.161  16.022   5.544
 5547POPC   GL270286  33.892  16.160   5.755
 5547POPC   C1A70287  34.081  15.767   5.992
 5547POPC   D2A70288  33.788  15.728   6.366
 5547POPC   C3A70289  33.935  15.691   6.821
 5547POPC   C4A70290  33.703  15.644   7.234
 5547POPC   C1B70291  33.917  16.261   6.169
 5547POPC   C2B70292  34.079  16.148   6.556
 5547POPC   C3B70293  33.911  16.264   6.905
 5547POPC   C4B70294  34.037  16.015   7.203
 5548POPC   NC370295  39.487  25.119   5.373
 5548POPC   PO470296  39.824  25.779   5.282
 5548POPC   GL170297  40.049  25.662   5.698
 5548POPC   GL270298  40.022  25.282   5.797
 5548POPC   C1A70299  39.927  25.634   6.160
 5548POPC   D2A70300  39.657  25.301   6.384
 5548POPC   C3A70301  39.625  25.282   6.824
 5548POPC   C4A70302  39.882  25.307   7.159
 5548POPC   C1B70303  40.222  25.217   6.228
 5548POPC   C2B70304  40.177  25.342   6.668
 5548POPC   C3B70305  40.296  25.050   6.991
 5548POPC   C4B70306  40.217  24.608   7.109
 5549POPC   NC370307  10.748  29.501   5.646
 5549POPC   PO470308  10.215  29.365   5.191
 5549POPC   GL170309  10.266  29.038   5.609
 5549POPC   GL270310  10.245  28.732   5.796
 5549POPC   C1A70311  10.445  29.046   6.124
 5549POPC   D2A70312  10.652  29.361   6.452
 5549POPC   C3A70313  10.790  29.312   6.895
 5549POPC   C4A70314  10.555  29.396   7.244
 5549POPC   C1B70315  10.185  28.557   6.233
 5549POPC   C2B70316  10.242  28.625   6.706
 5549POPC   C3B70317  10.435  28.948   7.003
 5549POPC   C4B70318  10.611  28.926   7.439
 5550POPC   NC370319  21.937   7.399   5.624
 5550POPC   PO470320  22.583   7.183   5.827
 5550POPC   GL170321  22.154   7.305   6.068
 5550POPC   GL270322  21.996   7.621   6.082
 5550POPC   C1A70323  21.958   7.274   6.457
 5550POPC   D2A70324  22.233   7.310   6.808
 5550POPC   C3A70325  22.061   7.279   7.207
 5550POPC   C4A70326  22.141   7.138   7.637
 5550POPC   C1B70327  22.392   7.613   6.383
 5550POPC   C2B70328  22.475   7.795   6.784
 5550POPC   C3B70329  22.173   7.804   7.125
 5550POPC   C4B70330  22.189   7.636   7.541
 5551POPC   NC370331  36.765  23.900   5.517
 5551POPC   PO470332  37.044  23.317   5.599
 5551POPC   GL170333  37.002  23.642   5.912
 5551POPC   GL270334  36.665  23.767   5.990
 5551POPC   C1A70335  36.997  23.641   6.354
 5551POPC   D2A70336  36.952  23.301   6.596
 5551POPC   C3A70337  36.756  23.516   6.879
 5551POPC   C4A70338  36.684  23.729   7.245
 5551POPC   C1B70339  36.561  23.965   6.367
 5551POPC   C2B70340  36.707  24.041   6.773
 5551POPC   C3B70341  36.406  24.154   7.088
 5551POPC   C4B70342  36.328  24.021   7.485
 5552POPC   NC370343  25.295  16.292   5.433
 5552POPC   PO470344  25.626  15.671   5.423
 5552POPC   GL170345  25.361  15.738   5.802
 5552POPC   GL270346  25.315  16.124   5.901
 5552POPC   C1A70347  25.486  15.801   6.224
 5552POPC   D2A70348  25.292  16.099   6.484
 5552POPC   C3A70349  25.390  15.934   6.887
 5552POPC   C4A70350  25.245  15.749   7.254
 5552POPC   C1B70351  25.040  16.419   6.135
 5552POPC   C2B70352  24.833  16.346   6.529
 5552POPC   C3B70353  25.026  16.293   6.928
 5552POPC   C4B70354  24.872  16.077   7.271
 5553POPC   NC370355  16.033  26.466   5.521
 5553POPC   PO470356  15.697  25.839   5.503
 5553POPC   GL170357  15.881  25.911   5.937
 5553POPC   GL270358  16.220  25.945   6.010
 5553POPC   C1A70359  15.720  26.117   6.340
 5553POPC   D2A70360  15.650  26.150   6.759
 5553POPC   C3A70361  15.965  25.955   6.939
 5553POPC   C4A70362  15.908  25.690   7.228
 5553POPC   C1B70363  16.183  25.909   6.432
 5553POPC   C2B70364  16.170  26.290   6.596
 5553POPC   C3B70365  16.093  26.448   6.973
 5553POPC   C4B70366  16.089  26.247   7.367
 5554POPC   NC370367   3.349  33.957   5.451
 5554POPC   PO470368   3.749  33.436   5.369
 5554POPC   GL170369   3.685  33.727   5.742
 5554POPC   GL270370   3.323  33.687   5.885
 5554POPC   C1A70371   3.606  34.013   6.122
 5554POPC   D2A70372   3.398  33.861   6.479
 5554POPC   C3A70373   3.538  33.994   6.838
 5554POPC   C4A70374   3.616  33.743   7.171
 5554POPC   C1B70375   3.061  33.992   6.132
 5554POPC   C2B70376   2.906  33.975   6.568
 5554POPC   C3B70377   3.061  33.940   6.980
 5554POPC   C4B70378   3.217  33.950   7.398
 5555POPC   NC370379   7.620   3.263   5.466
 5555POPC   PO470380   7.134   3.672   5.380
 5555POPC   GL170381   7.228   3.530   5.765
 5555POPC   GL270382   7.132   3.188   5.799
 5555POPC   C1A70383   7.298   3.809   6.132
 5555POPC   D2A70384   7.328   4.048   6.512
 5555POPC   C3A70385   7.514   3.849   6.862
 5555POPC   C4A70386   7.377   3.872   7.257
 5555POPC   C1B70387   7.283   3.288   6.203
 5555POPC   C2B70388   7.216   3.500   6.593
 5555POPC   C3B70389   7.284   3.394   7.042
 5555POPC   C4B70390   7.308   3.393   7.516
 5556POPC   NC370391  40.791  19.755   5.415
 5556POPC   PO470392  41.238  20.190   5.620
 5556POPC   GL170393  40.990  19.868   5.866
 5556POPC   GL270394  40.601  19.943   5.858
 5556POPC   C1A70395  40.738  19.513   6.074
 5556POPC   D2A70396  40.591  19.482   6.507
 5556POPC   C3A70397  40.793  19.776   6.795
 5556POPC   C4A70398  40.867  19.695   7.253
 5556POPC   C1B70399  40.761  19.989   6.297
 5556POPC   C2B70400  40.754  20.288   6.626
 5556POPC   C3B70401  40.616  20.245   7.024
 5556POPC   C4B70402  40.629  20.133   7.426
 5557POPC   NC370403  17.807  20.374   5.571
 5557POPC   PO470404  17.467  21.032   5.533
 5557POPC   GL170405  17.387  20.731   5.889
 5557POPC   GL270406  17.082  20.494   5.932
 5557POPC   C1A70407  17.523  20.714   6.318
 5557POPC   D2A70408  17.596  20.730   6.753
 5557POPC   C3A70409  17.432  20.766   7.151
 5557POPC   C4A70410  17.698  20.796   7.518
 5557POPC   C1B70411  17.373  20.239   6.189
 5557POPC   C2B70412  17.557  20.242   6.576
 5557POPC   C3B70413  17.438  20.262   6.988
 5557POPC   C4B70414  17.811  20.419   7.167
 5558POPC   NC370415  19.550  28.859   5.587
 5558POPC   PO470416  20.270  28.942   5.646
 5558POPC   GL170417  19.949  29.123   5.872
 5558POPC   GL270418  19.802  29.431   5.749
 5558POPC   C1A70419  19.855  29.053   6.300
 5558POPC   D2A70420  20.080  29.020   6.632
 5558POPC   C3A70421  19.897  28.887   6.999
 5558POPC   C4A70422  20.015  29.037   7.357
 5558POPC   C1B70423  19.498  29.326   6.089
 5558POPC   C2B70424  19.513  29.379   6.522
 5558POPC   C3B70425  19.797  29.384   6.849
 5558POPC   C4B70426  19.637  29.334   7.225
 5559POPC   NC370427  18.170   0.039   5.424
 5559POPC   PO470428  18.606  44.554   5.419
 5559POPC   GL170429  18.519  44.717   5.813
 5559POPC   GL270430  18.167  44.670   5.790
 5559POPC   C1A70431  18.484  44.445   6.199
 5559POPC   D2A70432  18.658  44.316   6.598
 5559POPC   C3A70433  18.422  44.611   6.868
 5559POPC   C4A70434  18.568  44.765   7.245
 5559POPC   C1B70435  18.092  44.768   6.220
 5559POPC   C2B70436  18.129  44.947   6.602
 5559POPC   C3B70437  17.921  44.868   6.988
 5559POPC   C4B70438  18.072  44.599   7.290
 5560POPC   NC370439  10.464  27.901   5.450
 5560POPC   PO470440  10.891  27.328   5.455
 5560POPC   GL170441  10.682  27.543   5.811
 5560POPC   GL270442  10.309  27.511   5.769
 5560POPC   C1A70443  10.491  27.674   6.218
 5560POPC   D2A70444  10.299  27.593   6.630
 5560POPC   C3A70445  10.488  27.719   6.994
 5560POPC   C4A70446  10.463  27.982   7.355
 5560POPC   C1B70447  10.219  27.216   6.100
 5560POPC   C2B70448  10.106  27.128   6.538
 5560POPC   C3B70449  10.291  27.195   6.957
 5560POPC   C4B70450  10.356  27.396   7.354
 5561POPC   NC370451  36.154  12.449   5.514
 5561POPC   PO470452  35.772  12.110   5.102
 5561POPC   GL170453  36.067  11.956   5.523
 5561POPC   GL270454  35.894  12.118   5.830
 5561POPC   C1A70455  36.362  11.957   5.951
 5561POPC   D2A70456  36.471  11.821   6.399
 5561POPC   C3A70457  36.403  12.043   6.820
 5561POPC   C4A70458  36.132  12.132   7.166
 5561POPC   C1B70459  35.846  12.266   6.275
 5561POPC   C2B70460  35.883  12.306   6.727
 5561POPC   C3B70461  35.661  12.019   6.992
 5561POPC   C4B70462  35.592  12.176   7.361
 5562POPC   NC370463   6.763   9.502   5.425
 5562POPC   PO470464   6.485  10.129   5.450
 5562POPC   GL170465   6.681   9.902   5.801
 5562POPC   GL270466   6.428   9.651   5.811
 5562POPC   C1A70467   6.671   9.859   6.281
 5562POPC   D2A70468   6.616   9.647   6.684
 5562POPC   C3A70469   6.624   9.827   7.139
 5562POPC   C4A70470   6.853   9.666   7.560
 5562POPC   C1B70471   6.212   9.959   6.084
 5562POPC   C2B70472   6.142   9.888   6.525
 5562POPC   C3B70473   6.172   9.670   6.915
 5562POPC   C4B70474   6.104   9.870   7.276
 5563POPC   NC370475   1.608  38.409   5.564
 5563POPC   PO470476   2.154  38.860   5.401
 5563POPC   GL170477   1.910  38.775   5.779
 5563POPC   GL270478   2.022  38.434   5.898
 5563POPC   C1A70479   1.660  38.811   6.180
 5563POPC   D2A70480   1.631  38.705   6.657
 5563POPC   C3A70481   2.036  38.705   6.907
 5563POPC   C4A70482   2.210  38.655   7.317
 5563POPC   C1B70483   1.920  38.214   6.312
 5563POPC   C2B70484   2.082  38.194   6.741
 5563POPC   C3B70485   2.100  38.105   7.176
 5563POPC   C4B70486   2.082  38.231   7.584
 5564POPC   NC370487  24.059  38.773   5.463
 5564POPC   PO470488  23.604  38.212   5.436
 5564POPC   GL170489  23.634  38.334   5.831
 5564POPC   GL270490  23.651  38.701   5.817
 5564POPC   C1A70491  23.452  38.441   6.219
 5564POPC   D2A70492  23.631  38.642   6.573
 5564POPC   C3A70493  23.664  38.462   6.942
 5564POPC   C4A70494  23.454  38.581   7.286
 5564POPC   C1B70495  23.961  38.585   6.166
 5564POPC   C2B70496  24.143  38.558   6.600
 5564POPC   C3B70497  24.149  38.538   7.065
 5564POPC   C4B70498  23.911  38.495   7.475
 5565POPC   NC370499  30.040   7.655   5.391
 5565POPC   PO470500  29.602   7.232   5.653
 5565POPC   GL170501  29.780   7.602   5.868
 5565POPC   GL270502  30.157   7.616   5.903
 5565POPC   C1A70503  29.781   7.537   6.302
 5565POPC   D2A70504  29.771   7.176   6.588
 5565POPC   C3A70505  29.786   7.424   6.952
 5565POPC   C4A70506  30.112   7.388   7.246
 5565POPC   C1B70507  30.277   7.677   6.330
 5565POPC   C2B70508  30.184   7.722   6.761
 5565POPC   C3B70509  30.402   7.786   7.134
 5565POPC   C4B70510  30.315   7.744   7.566
 5566POPC   NC370511  15.114   7.218   5.238
 5566POPC   PO470512  15.302   6.725   5.646
 5566POPC   GL170513  15.030   7.133   5.742
 5566POPC   GL270514  15.159   7.476   5.703
 5566POPC   C1A70515  14.887   7.332   6.143
 5566POPC   D2A70516  14.835   7.224   6.589
 5566POPC   C3A70517  15.186   7.200   6.879
 5566POPC   C4A70518  15.310   7.177   7.295
 5566POPC   C1B70519  15.309   7.609   6.124
 5566POPC   C2B70520  15.220   7.614   6.560
 5566POPC   C3B70521  15.337   7.690   6.978
 5566POPC   C4B70522  15.634   7.567   7.325
 5567POPC   NC370523  15.237   3.573   5.429
 5567POPC   PO470524  15.011   2.978   5.680
 5567POPC   GL170525  15.345   3.226   5.904
 5567POPC   GL270526  15.300   3.589   5.926
 5567POPC   C1A70527  15.276   3.287   6.384
 5567POPC   D2A70528  15.040   3.179   6.783
 5567POPC   C3A70529  15.145   3.472   7.143
 5567POPC   C4A70530  15.469   3.784   7.297
 5567POPC   C1B70531  15.052   3.736   6.239
 5567POPC   C2B70532  15.002   3.667   6.655
 5567POPC   C3B70533  14.764   3.785   6.990
 5567POPC   C4B70534  14.964   3.949   7.339
 5568POPC   NC370535  21.912   6.731   5.457
 5568POPC   PO470536  22.468   7.057   5.305
 5568POPC   GL170537  22.193   6.882   5.834
 5568POPC   GL270538  22.054   6.589   5.926
 5568POPC   C1A70539  22.196   6.842   6.341
 5568POPC   D2A70540  21.950   6.727   6.752
 5568POPC   C3A70541  22.061   6.777   7.220
 5568POPC   C4A70542  22.465   6.773   7.482
 5568POPC   C1B70543  21.847   6.433   6.297
 5568POPC   C2B70544  21.818   6.211   6.691
 5568POPC   C3B70545  21.859   6.318   7.119
 5568POPC   C4B70546  22.197   6.288   7.409
 5569POPC   NC370547  43.552   3.605   5.095
 5569POPC   PO470548  44.003   3.524   5.686
 5569POPC   GL170549  44.036   3.524   6.045
 5569POPC   GL270550  44.323   3.274   6.001
 5569POPC   C1A70551  43.655   3.449   6.278
 5569POPC   D2A70552  43.563   3.413   6.680
 5569POPC   C3A70553  43.580   3.795   6.916
 5569POPC   C4A70554  43.687   3.518   7.219
 5569POPC   C1B70555  44.170   3.272   6.462
 5569POPC   C2B70556  44.073   3.525   6.825
 5569POPC   C3B70557  44.195   3.588   7.269
 5569POPC   C4B70558  44.113   3.911   7.589
 5570POPC   NC370559  44.128  14.005   5.439
 5570POPC   PO470560  44.743  14.185   5.448
 5570POPC   GL170561  44.813  14.470   5.818
 5570POPC   GL270562  44.478  14.474   5.859
 5570POPC   C1A70563  44.860  14.454   6.286
 5570POPC   D2A70564  44.601  14.556   6.654
 5570POPC   C3A70565  44.818  14.503   7.071
 5570POPC   C4A70566  44.757  14.166   7.412
 5570POPC   C1B70567  44.375  14.278   6.260
 5570POPC   C2B70568  44.299  14.116   6.683
 5570POPC   C3B70569  44.349  14.314   7.094
 5570POPC   C4B70570  44.387  14.735   7.297
 5571POPC   NC370571  33.998  39.158   5.559
 5571POPC   PO470572  33.374  39.371   5.282
 5571POPC   GL170573  33.394  39.167   5.748
 5571POPC   GL270574  33.634  38.915   5.899
 5571POPC   C1A70575  33.317  39.218   6.216
 5571POPC   D2A70576  33.286  39.109   6.658
 5571POPC   C3A70577  33.648  39.009   6.896
 5571POPC   C4A70578  33.934  39.015   7.228
 5571POPC   C1B70579  33.826  39.246   6.183
 5571POPC   C2B70580  33.725  39.426   6.585
 5571POPC   C3B70581  33.906  39.469   6.995
 5571POPC   C4B70582  34.284  39.378   7.244
 5572POPC   NC370583  12.375  32.451   5.573
 5572POPC   PO470584  12.253  33.053   5.356
 5572POPC   GL170585  12.097  33.081   5.768
 5572POPC   GL270586  12.371  32.887   5.864
 5572POPC   C1A70587  12.076  33.249   6.201
 5572POPC   D2A70588  12.075  33.052   6.601
 5572POPC   C3A70589  12.209  33.190   6.985
 5572POPC   C4A70590  12.016  33.204   7.337
 5572POPC   C1B70591  12.580  33.241   6.097
 5572POPC   C2B70592  12.566  33.311   6.552
 5572POPC   C3B70593  12.709  33.193   6.976
 5572POPC   C4B70594  12.579  33.193   7.397
 5573POPC   NC370595  11.930  11.820   5.473
 5573POPC   PO470596  12.399  11.417   5.439
 5573POPC   GL170597  12.043  11.400   5.756
 5573POPC   GL270598  11.844  11.065   5.747
 5573POPC   C1A70599  11.875  11.621   6.133
 5573POPC   D2A70600  11.766  11.452   6.557
 5573POPC   C3A70601  11.967  11.593   6.962
 5573POPC   C4A70602  11.999  11.399   7.383
 5573POPC   C1B70603  11.956  11.110   6.186
 5573POPC   C2B70604  11.887  10.951   6.584
 5573POPC   C3B70605  11.908  11.082   6.976
 5573POPC   C4B70606  11.672  10.987   7.329
 5574POPC   NC370607   6.539   8.029   5.298
 5574POPC   PO470608   6.719   8.660   5.504
 5574POPC   GL170609   6.604   8.289   5.738
 5574POPC   GL270610   6.477   8.504   5.925
 5574POPC   C1A70611   6.500   8.051   6.153
 5574POPC   D2A70612   6.690   7.912   6.547
 5574POPC   C3A70613   6.476   7.764   6.917
 5574POPC   C4A70614   6.223   7.995   7.210
 5574POPC   C1B70615   6.817   8.445   6.229
 5574POPC   C2B70616   6.930   8.334   6.647
 5574POPC   C3B70617   6.685   8.256   6.992
 5574POPC   C4B70618   6.897   8.371   7.353
 5575POPC   NC370619  28.695   8.981   5.294
 5575POPC   PO470620  28.144   9.168   5.164
 5575POPC   GL170621  28.125   9.152   5.684
 5575POPC   GL270622  28.493   9.140   5.763
 5575POPC   C1A70623  28.138   8.925   6.123
 5575POPC   D2A70624  28.131   9.055   6.582
 5575POPC   C3A70625  28.009   8.805   6.953
 5575POPC   C4A70626  27.962   8.855   7.412
 5575POPC   C1B70627  28.613   8.751   5.995
 5575POPC   C2B70628  28.510   8.648   6.418
 5575POPC   C3B70629  28.513   8.807   6.829
 5575POPC   C4B70630  28.423   8.994   7.219
 5576POPC   NC370631  18.265  27.911   5.410
 5576POPC   PO470632  18.491  28.545   5.454
 5576POPC   GL170633  18.307  28.470   5.832
 5576POPC   GL270634  18.205  28.150   5.859
 5576POPC   C1A70635  18.353  28.645   6.253
 5576POPC   D2A70636  18.417  28.461   6.651
 5576POPC   C3A70637  18.178  28.380   7.010
 5576POPC   C4A70638  18.123  28.494   7.430
 5576POPC   C1B70639  18.482  28.161   6.227
 5576POPC   C2B70640  18.720  28.050   6.590
 5576POPC   C3B70641  18.646  28.153   6.995
 5576POPC   C4B70642  18.455  28.123   7.421
 5577POPC   NC370643  10.864   9.341   5.674
 5577POPC   PO470644  11.483   8.902   5.467
 5577POPC   GL170645  11.282   8.910   5.813
 5577POPC   GL270646  11.325   9.245   5.878
 5577POPC   C1A70647  11.206   8.680   6.175
 5577POPC   D2A70648  11.045   8.757   6.559
 5577POPC   C3A70649  11.038   8.699   6.982
 5577POPC   C4A70650  10.963   9.072   7.198
 5577POPC   C1B70651  11.293   9.255   6.325
 5577POPC   C2B70652  11.485   9.023   6.640
 5577POPC   C3B70653  11.466   9.004   7.064
 5577POPC   C4B70654  11.780   8.875   7.369
 5578POPC   NC370655  23.565  37.313   5.317
 5578POPC   PO470656  23.843  36.718   5.301
 5578POPC   GL170657  23.793  36.606   5.782
 5578POPC   GL270658  24.041  36.744   6.044
 5578POPC   C1A70659  23.611  36.532   6.226
 5578POPC   D2A70660  23.434  36.729   6.616
 5578POPC   C3A70661  23.596  36.715   7.060
 5578POPC   C4A70662  23.516  36.651   7.519
 5578POPC   C1B70663  23.636  37.008   6.078
 5578POPC   C2B70664  23.459  37.205   6.461
 5578POPC   C3B70665  23.382  37.173   6.910
 5578POPC   C4B70666  23.570  37.169   7.338
 5579POPC   NC370667  11.086  12.032   5.356
 5579POPC   PO470668  11.660  12.117   5.267
 5579POPC   GL170669  11.449  11.900   5.721
 5579POPC   GL270670  11.066  11.779   5.814
 5579POPC   C1A70671  11.389  11.765   6.200
 5579POPC   D2A70672  11.509  11.876   6.645
 5579POPC   C3A70673  11.402  12.283   6.821
 5579POPC   C4A70674  11.312  12.192   7.228
 5579POPC   C1B70675  10.922  11.521   6.184
 5579POPC   C2B70676  10.808  11.682   6.557
 5579POPC   C3B70677  11.003  11.931   6.852
 5579POPC   C4B70678  11.125  11.694   7.176
 5580POPC   NC370679  32.881  10.924   5.427
 5580POPC   PO470680  33.320  10.385   5.513
 5580POPC   GL170681  33.075  10.407   5.901
 5580POPC   GL270682  32.837  10.699   5.915
 5580POPC   C1A70683  33.078  10.373   6.365
 5580POPC   D2A70684  33.015  10.615   6.755
 5580POPC   C3A70685  33.129  10.411   7.132
 5580POPC   C4A70686  33.441  10.250   7.409
 5580POPC   C1B70687  32.612  10.336   6.116
 5580POPC   C2B70688  32.632  10.168   6.541
 5580POPC   C3B70689  32.616  10.312   6.971
 5580POPC   C4B70690  32.703  10.667   7.232
 5581POPC   NC370691   9.701  26.525   5.266
 5581POPC   PO470692   9.397  27.027   5.559
 5581POPC   GL170693   9.799  26.808   5.734
 5581POPC   GL270694   9.960  26.451   5.738
 5581POPC   C1A70695   9.865  26.831   6.187
 5581POPC   D2A70696   9.675  26.826   6.621
 5581POPC   C3A70697   9.774  27.127   6.939
 5581POPC   C4A70698   9.939  27.114   7.354
 5581POPC   C1B70699  10.032  26.339   6.182
 5581POPC   C2B70700  10.115  26.527   6.572
 5581POPC   C3B70701  10.099  26.723   6.938
 5581POPC   C4B70702   9.938  26.615   7.312
 5582POPC   NC370703  16.448  37.433   5.366
 5582POPC   PO470704  16.875  37.961   5.243
 5582POPC   GL170705  16.928  37.796   5.710
 5582POPC   GL270706  16.702  37.514   5.810
 5582POPC   C1A70707  17.005  37.728   6.178
 5582POPC   D2A70708  16.811  37.553   6.551
 5582POPC   C3A70709  16.817  37.744   6.973
 5582POPC   C4A70710  16.715  37.655   7.425
 5582POPC   C1B70711  16.461  37.663   6.172
 5582POPC   C2B70712  16.306  37.566   6.594
 5582POPC   C3B70713  16.269  37.705   7.025
 5582POPC   C4B70714  16.205  37.409   7.349
 5583POPC   NC370715   5.473  28.965   5.329
 5583POPC   PO470716   4.880  28.901   5.294
 5583POPC   GL170717   5.017  29.050   5.712
 5583POPC   GL270718   4.682  29.203   5.788
 5583POPC   C1A70719   5.193  29.255   6.135
 5583POPC   D2A70720   5.129  29.336   6.624
 5583POPC   C3A70721   5.435  29.420   6.998
 5583POPC   C4A70722   5.763  29.278   7.330
 5583POPC   C1B70723   4.695  29.343   6.226
 5583POPC   C2B70724   4.589  29.326   6.671
 5583POPC   C3B70725   4.840  29.255   7.070
 5583POPC   C4B70726   5.023  28.850   7.259
 5584POPC   NC370727  21.573  13.369   5.567
 5584POPC   PO470728  21.287  13.730   5.115
 5584POPC   GL170729  21.141  13.667   5.647
 5584POPC   GL270730  21.243  13.396   5.944
 5584POPC   C1A70731  20.987  13.784   6.116
 5584POPC   D2A70732  21.174  13.820   6.547
 5584POPC   C3A70733  21.059  13.617   6.937
 5584POPC   C4A70734  21.091  13.736   7.377
 5584POPC   C1B70735  21.527  13.677   6.201
 5584POPC   C2B70736  21.666  13.719   6.667
 5584POPC   C3B70737  21.544  13.621   7.114
 5584POPC   C4B70738  21.308  13.271   7.322
 5585POPC   NC370739  14.774  27.603   5.497
 5585POPC   PO470740  15.323  27.686   5.381
 5585POPC   GL170741  15.200  27.353   5.739
 5585POPC   GL270742  14.865  27.315   5.934
 5585POPC   C1A70743  15.284  27.163   6.168
 5585POPC   D2A70744  15.114  27.400   6.522
 5585POPC   C3A70745  15.170  27.309   6.934
 5585POPC   C4A70746  15.374  27.522   7.278
 5585POPC   C1B70747  14.704  27.585   6.249
 5585POPC   C2B70748  14.711  27.746   6.678
 5585POPC   C3B70749  14.886  27.723   7.078
 5585POPC   C4B70750  14.905  27.555   7.471
 5586POPC   NC370751   2.589  32.540   5.237
 5586POPC   PO470752   2.505  31.914   5.217
 5586POPC   GL170753   2.701  32.260   5.634
 5586POPC   GL270754   2.722  32.041   5.976
 5586POPC   C1A70755   2.703  32.532   6.036
 5586POPC   D2A70756   2.667  32.300   6.445
 5586POPC   C3A70757   2.659  32.470   6.862
 5586POPC   C4A70758   2.961  32.482   7.191
 5586POPC   C1B70759   2.532  31.816   6.318
 5586POPC   C2B70760   2.457  31.935   6.758
 5586POPC   C3B70761   2.696  32.007   7.125
 5586POPC   C4B70762   2.594  31.801   7.518
 5587POPC   NC370763  37.160  38.946   5.348
 5587POPC   PO470764  36.960  38.320   5.494
 5587POPC   GL170765  36.997  38.527   5.843
 5587POPC   GL270766  36.634  38.684   5.829
 5587POPC   C1A70767  37.159  38.358   6.233
 5587POPC   D2A70768  37.286  38.192   6.619
 5587POPC   C3A70769  37.005  38.227   6.938
 5587POPC   C4A70770  37.000  38.143   7.354
 5587POPC   C1B70771  36.663  38.494   6.223
 5587POPC   C2B70772  36.910  38.643   6.587
 5587POPC   C3B70773  36.807  38.714   7.002
 5587POPC   C4B70774  37.128  38.644   7.262
 5588POPC   NC370775  14.824  35.529   5.533
 5588POPC   PO470776  14.126  35.432   5.424
 5588POPC   GL170777  14.398  35.340   5.725
 5588POPC   GL270778  14.438  35.694   5.828
 5588POPC   C1A70779  14.430  35.222   6.133
 5588POPC   D2A70780  14.729  35.359   6.468
 5588POPC   C3A70781  14.679  35.329   6.947
 5588POPC   C4A70782  14.410  35.088   7.244
 5588POPC   C1B70783  14.229  35.661   6.227
 5588POPC   C2B70784  14.244  35.375   6.603
 5588POPC   C3B70785  14.165  35.484   7.013
 5588POPC   C4B70786  14.411  35.576   7.405
 5589POPC   NC370787  43.110  38.287   5.232
 5589POPC   PO470788  43.683  38.716   5.426
 5589POPC   GL170789  43.372  38.724   5.767
 5589POPC   GL270790  43.207  38.421   5.729
 5589POPC   C1A70791  43.037  38.711   6.105
 5589POPC   D2A70792  43.039  38.475   6.507
 5589POPC   C3A70793  43.096  38.607   6.956
 5589POPC   C4A70794  43.001  38.210   7.236
 5589POPC   C1B70795  43.461  38.427   6.155
 5589POPC   C2B70796  43.542  38.510   6.600
 5589POPC   C3B70797  43.399  38.202   6.903
 5589POPC   C4B70798  43.510  37.950   7.270
 5590POPC   NC370799  34.029   9.301   5.300
 5590POPC   PO470800  33.586   9.797   5.469
 5590POPC   GL170801  33.712   9.580   5.832
 5590POPC   GL270802  34.066   9.612   5.727
 5590POPC   C1A70803  33.770   9.722   6.286
 5590POPC   D2A70804  33.831  10.037   6.657
 5590POPC   C3A70805  33.505   9.989   6.968
 5590POPC   C4A70806  33.510   9.707   7.311
 5590POPC   C1B70807  34.202   9.473   6.125
 5590POPC   C2B70808  34.042   9.356   6.537
 5590POPC   C3B70809  33.874   9.576   6.942
 5590POPC   C4B70810  34.010   9.592   7.401
 5591POPC   NC370811  42.969  33.960   5.266
 5591POPC   PO470812  43.507  33.522   5.453
 5591POPC   GL170813  43.354  33.570   5.842
 5591POPC   GL270814  43.136  33.796   5.795
 5591POPC   C1A70815  43.207  33.691   6.274
 5591POPC   D2A70816  43.210  33.833   6.707
 5591POPC   C3A70817  43.190  33.711   7.139
 5591POPC   C4A70818  43.261  33.380   7.429
 5591POPC   C1B70819  42.908  34.083   6.140
 5591POPC   C2B70820  42.872  34.215   6.604
 5591POPC   C3B70821  42.848  34.155   7.057
 5591POPC   C4B70822  42.821  34.200   7.527
 5592POPC   NC370823   6.949   8.966   5.229
 5592POPC   PO470824   7.557   8.722   5.468
 5592POPC   GL170825   7.666   8.821   5.855
 5592POPC   GL270826   7.387   9.066   5.864
 5592POPC   C1A70827   7.538   8.772   6.290
 5592POPC   D2A70828   7.130   8.771   6.485
 5592POPC   C3A70829   7.147   8.719   6.939
 5592POPC   C4A70830   7.096   8.966   7.317
 5592POPC   C1B70831   7.263   9.246   6.267
 5592POPC   C2B70832   7.302   9.190   6.731
 5592POPC   C3B70833   7.515   9.233   7.118
 5592POPC   C4B70834   7.361   9.550   7.387
 5593POPC   NC370835  17.476  34.177   5.320
 5593POPC   PO470836  17.296  33.563   5.391
 5593POPC   GL170837  17.402  33.780   5.759
 5593POPC   GL270838  17.720  33.978   5.741
 5593POPC   C1A70839  17.641  33.642   6.136
 5593POPC   D2A70840  17.588  33.579   6.570
 5593POPC   C3A70841  17.485  33.860   6.907
 5593POPC   C4A70842  17.483  33.578   7.249
 5593POPC   C1B70843  17.848  34.101   6.178
 5593POPC   C2B70844  17.999  33.886   6.590
 5593POPC   C3B70845  17.952  33.725   7.028
 5593POPC   C4B70846  17.932  33.567   7.479
 5594POPC   NC370847  38.762   0.923   5.517
 5594POPC   PO470848  38.496   1.544   5.473
 5594POPC   GL170849  38.469   1.245   5.809
 5594POPC   GL270850  38.782   1.204   5.979
 5594POPC   C1A70851  38.354   1.088   6.222
 5594POPC   D2A70852  38.332   1.267   6.624
 5594POPC   C3A70853  38.351   1.009   6.924
 5594POPC   C4A70854  38.265   1.126   7.305
 5594POPC   C1B70855  38.697   1.526   6.349
 5594POPC   C2B70856  38.783   1.674   6.786
 5594POPC   C3B70857  38.727   1.334   7.077
 5594POPC   C4B70858  38.884   0.916   7.145
 5595POPC   NC370859  24.582  19.311   5.320
 5595POPC   PO470860  24.743  18.738   5.224
 5595POPC   GL170861  24.540  18.823   5.652
 5595POPC   GL270862  24.691  19.128   5.786
 5595POPC   C1A70863  24.492  18.854   6.152
 5595POPC   D2A70864  24.441  19.138   6.528
 5595POPC   C3A70865  24.475  18.911   6.894
 5595POPC   C4A70866  24.841  18.913   7.092
 5595POPC   C1B70867  24.838  19.286   6.201
 5595POPC   C2B70868  24.935  19.316   6.649
 5595POPC   C3B70869  24.658  19.396   6.973
 5595POPC   C4B70870  24.230  19.343   7.077
 5596POPC   NC370871  38.128  20.076   5.319
 5596POPC   PO470872  38.820  20.170   5.414
 5596POPC   GL170873  38.720  20.064   5.816
 5596POPC   GL270874  38.399  19.899   5.752
 5596POPC   C1A70875  38.605  19.952   6.235
 5596POPC   D2A70876  38.203  19.994   6.481
 5596POPC   C3A70877  38.265  20.101   6.931
 5596POPC   C4A70878  38.568  19.961   7.258
 5596POPC   C1B70879  38.281  19.586   6.085
 5596POPC   C2B70880  38.248  19.459   6.493
 5596POPC   C3B70881  38.335  19.605   6.869
 5596POPC   C4B70882  38.381  19.483   7.254
 5597POPC   NC370883   6.176  13.104   5.131
 5597POPC   PO470884   6.756  12.863   5.394
 5597POPC   GL170885   6.788  13.032   5.823
 5597POPC   GL270886   6.478  13.063   5.965
 5597POPC   C1A70887   6.885  12.913   6.243
 5597POPC   D2A70888   6.746  12.646   6.574
 5597POPC   C3A70889   6.847  12.844   6.962
 5597POPC   C4A70890   6.786  12.794   7.384
 5597POPC   C1B70891   6.435  12.649   6.164
 5597POPC   C2B70892   6.225  12.573   6.560
 5597POPC   C3B70893   6.333  12.756   6.954
 5597POPC   C4B70894   6.447  13.149   7.142
 5598POPC   NC370895  35.605   0.438   5.367
 5598POPC   PO470896  34.955   0.234   5.292
 5598POPC   GL170897  35.200   0.216   5.739
 5598POPC   GL270898  35.382   0.530   5.820
 5598POPC   C1A70899  35.217   0.278   6.236
 5598POPC   D2A70900  35.355   0.322   6.705
 5598POPC   C3A70901  35.240   0.449   7.120
 5598POPC   C4A70902  34.970   0.367   7.494
 5598POPC   C1B70903  35.458   0.747   6.188
 5598POPC   C2B70904  35.709   0.648   6.545
 5598POPC   C3B70905  35.563   0.790   6.920
 5598POPC   C4B70906  35.686   0.877   7.309
 5599POPC   NC370907   1.366  40.187   5.535
 5599POPC   PO470908   1.342  39.441   5.454
 5599POPC   GL170909   1.314  39.727   5.797
 5599POPC   GL270910   0.981  39.813   5.829
 5599POPC   C1A70911   1.274  39.867   6.233
 5599POPC   D2A70912   1.226  39.640   6.582
 5599POPC   C3A70913   1.187  39.859   6.939
 5599POPC   C4A70914   1.364  39.771   7.304
 5599POPC   C1B70915   0.786  40.037   6.201
 5599POPC   C2B70916   0.811  40.251   6.614
 5599POPC   C3B70917   0.740  40.054   7.052
 5599POPC   C4B70918   0.910  39.927   7.465
 5600POPC   NC370919  30.079  44.669   5.341
 5600POPC   PO470920  29.434  44.663   5.615
 5600POPC   GL170921  29.847  44.542   5.796
 5600POPC   GL270922  30.015  44.862   5.839
 5600POPC   C1A70923  30.113  44.404   6.174
 5600POPC   D2A70924  30.245  44.598   6.601
 5600POPC   C3A70925  29.912  44.681   6.942
 5600POPC   C4A70926  29.875  44.558   7.421
 5600POPC   C1B70927  29.813  44.813   6.258
 5600POPC   C2B70928  29.591  44.961   6.630
 5600POPC   C3B70929  29.736   0.202   6.956
 5600POPC   C4B70930  29.922   0.065   7.308
 5601POPC   NC370931  34.146  16.624   5.380
 5601POPC   PO470932  33.775  17.166   5.394
 5601POPC   GL170933  33.705  17.024   5.829
 5601POPC   GL270934  33.810  16.672   5.820
 5601POPC   C1A70935  33.597  16.960   6.266
 5601POPC   D2A70936  33.712  16.613   6.565
 5601POPC   C3A70937  33.604  16.691   7.009
 5601POPC   C4A70938  33.766  16.979   7.327
 5601POPC   C1B70939  34.062  16.773   6.189
 5601POPC   C2B70940  34.221  16.743   6.613
 5601POPC   C3B70941  34.140  16.724   7.049
 5601POPC   C4B70942  33.942  16.483   7.370
 5602POPC   NC370943  30.011  10.118   5.503
 5602POPC   PO470944  29.958  10.799   5.436
 5602POPC   GL170945  30.090  10.547   5.770
 5602POPC   GL270946  30.307  10.684   6.012
 5602POPC   C1A70947  29.924  10.366   6.150
 5602POPC   D2A70948  30.033  10.485   6.576
 5602POPC   C3A70949  29.643  10.471   6.835
 5602POPC   C4A70950  29.551  10.331   7.241
 5602POPC   C1B70951  29.879  10.866   6.189
 5602POPC   C2B70952  29.766  10.935   6.637
 5602POPC   C3B70953  30.015  10.791   7.004
 5602POPC   C4B70954  30.210  10.417   7.194
 5603POPC   NC370955  35.356  40.249   5.564
 5603POPC   PO470956  35.924  39.789   5.542
 5603POPC   GL170957  35.608  39.858   5.844
 5603POPC   GL270958  35.307  39.643   5.838
 5603POPC   C1A70959  35.616  40.062   6.237
 5603POPC   D2A70960  35.483  39.894   6.635
 5603POPC   C3A70961  35.500  40.088   7.015
 5603POPC   C4A70962  35.183  40.169   7.271
 5603POPC   C1B70963  35.147  39.823   6.227
 5603POPC   C2B70964  35.043  39.626   6.631
 5603POPC   C3B70965  35.057  39.746   7.068
 5603POPC   C4B70966  34.867  39.741   7.502
 5604POPC   NC370967  41.718  31.739   5.456
 5604POPC   PO470968  41.302  31.290   5.233
 5604POPC   GL170969  41.312  31.336   5.714
 5604POPC   GL270970  41.366  31.653   5.875
 5604POPC   C1A70971  41.387  31.246   6.181
 5604POPC   D2A70972  41.391  31.358   6.605
 5604POPC   C3A70973  41.748  31.247   6.876
 5604POPC   C4A70974  41.971  31.008   7.183
 5604POPC   C1B70975  41.543  31.765   6.278
 5604POPC   C2B70976  41.658  31.767   6.717
 5604POPC   C3B70977  41.503  31.612   7.121
 5604POPC   C4B70978  41.357  31.721   7.558
 5605POPC   NC370979  39.654  30.357   5.364
 5605POPC   PO470980  40.270  29.981   5.321
 5605POPC   GL170981  40.008  30.095   5.665
 5605POPC   GL270982  39.833  29.784   5.752
 5605POPC   C1A70983  40.004  30.171   6.106
 5605POPC   D2A70984  40.250  30.019   6.478
 5605POPC   C3A70985  40.111  30.107   6.896
 5605POPC   C4A70986  40.195  30.007   7.316
 5605POPC   C1B70987  40.017  29.666   6.166
 5605POPC   C2B70988  39.965  29.555   6.608
 5605POPC   C3B70989  40.103  29.542   7.043
 5605POPC   C4B70990  39.875  29.623   7.436
 5606POPC   NC370991  42.251   4.874   5.221
 5606POPC   PO470992  42.694   4.411   5.389
 5606POPC   GL170993  42.413   4.284   5.712
 5606POPC   GL270994  42.476   4.586   5.839
 5606POPC   C1A70995  42.181   4.133   6.097
 5606POPC   D2A70996  42.258   4.220   6.531
 5606POPC   C3A70997  42.091   4.185   6.921
 5606POPC   C4A70998  42.364   3.973   7.186
 5606POPC   C1B70999  42.406   4.620   6.247
 5606POPC   C2B71000  42.688   4.496   6.571
 5606POPC   C3B71001  42.532   4.442   6.982
 5606POPC   C4B71002  42.596   4.571   7.391
 5607POPC   NC371003   7.857  19.765   5.515
 5607POPC   PO471004   7.281  20.058   5.416
 5607POPC   GL171005   7.381  19.798   5.756
 5607POPC   GL271006   7.294  19.441   5.823
 5607POPC   C1A71007   7.563  19.800   6.151
 5607POPC   D2A71008   7.399  19.870   6.541
 5607POPC   C3A71009   7.623  19.799   6.899
 5607POPC   C4A71010   7.524  19.854   7.294
 5607POPC   C1B71011   7.280  19.356   6.284
 5607POPC   C2B71012   7.355  19.396   6.740
 5607POPC   C3B71013   7.403  19.388   7.170
 5607POPC   C4B71014   7.217  19.518   7.544
 5608POPC   NC371015   9.570  36.695   5.497
 5608POPC   PO471016   9.228  37.263   5.635
 5608POPC   GL171017   9.670  37.195   5.854
 5608POPC   GL271018   9.758  36.817   5.951
 5608POPC   C1A71019   9.912  37.159   6.275
 5608POPC   D2A71020   9.909  36.766   6.531
 5608POPC   C3A71021   9.998  36.866   6.945
 5608POPC   C4A71022   9.852  37.055   7.344
 5608POPC   C1B71023   9.512  36.552   6.270
 5608POPC   C2B71024   9.482  36.433   6.728
 5608POPC   C3B71025   9.567  36.566   7.176
 5608POPC   C4B71026   9.243  36.676   7.465
 5609POPC   NC371027   1.673  10.785   5.504
 5609POPC   PO471028   2.184  10.433   5.402
 5609POPC   GL171029   2.105  10.681   5.816
 5609POPC   GL271030   1.822  10.909   5.964
 5609POPC   C1A71031   1.985  10.513   6.240
 5609POPC   D2A71032   2.147  10.623   6.635
 5609POPC   C3A71033   2.038  10.536   7.038
 5609POPC   C4A71034   2.227  10.496   7.430
 5609POPC   C1B71035   1.845  10.993   6.409
 5609POPC   C2B71036   1.652  10.857   6.809
 5609POPC   C3B71037   1.708  10.833   7.259
 5609POPC   C4B71038   1.747  10.562   7.612
 5610POPC   NC371039   6.071   4.177   5.438
 5610POPC   PO471040   5.610   4.679   5.504
 5610POPC   GL171041   5.843   4.450   5.806
 5610POPC   GL271042   5.647   4.195   5.746
 5610POPC   C1A71043   6.057   4.420   6.197
 5610POPC   D2A71044   5.910   4.416   6.617
 5610POPC   C3A71045   6.034   4.454   7.061
 5610POPC   C4A71046   5.903   4.484   7.506
 5610POPC   C1B71047   5.632   4.082   6.150
 5610POPC   C2B71048   5.689   3.951   6.556
 5610POPC   C3B71049   5.615   4.142   6.937
 5610POPC   C4B71050   5.819   4.039   7.306
 5611POPC   NC371051  30.153   3.814   5.689
 5611POPC   PO471052  30.768   3.568   5.529
 5611POPC   GL171053  30.486   3.439   5.834
 5611POPC   GL271054  30.393   3.090   5.753
 5611POPC   C1A71055  30.552   3.621   6.240
 5611POPC   D2A71056  30.923   3.648   6.553
 5611POPC   C3A71057  30.914   3.589   7.022
 5611POPC   C4A71058  30.543   3.577   7.305
 5611POPC   C1B71059  30.338   3.083   6.204
 5611POPC   C2B71060  30.392   3.294   6.573
 5611POPC   C3B71061  30.572   3.216   6.934
 5611POPC   C4B71062  30.832   3.108   7.238
 5612POPC   NC371063  39.812  35.015   5.576
 5612POPC   PO471064  39.809  35.673   5.384
 5612POPC   GL171065  40.126  35.556   5.741
 5612POPC   GL271066  39.872  35.413   5.930
 5612POPC   C1A71067  40.295  35.483   6.211
 5612POPC   D2A71068  40.058  35.339   6.575
 5612POPC   C3A71069  40.143  35.373   7.032
 5612POPC   C4A71070  39.985  35.445   7.445
 5612POPC   C1B71071  39.678  35.137   6.201
 5612POPC   C2B71072  39.790  34.900   6.541
 5612POPC   C3B71073  39.615  34.933   6.914
 5612POPC   C4B71074  39.748  35.008   7.307
 5613POPC   NC371075  34.888  36.146   5.536
 5613POPC   PO471076  34.248  35.885   5.733
 5613POPC   GL171077  34.562  35.975   5.975
 5613POPC   GL271078  34.587  36.316   5.993
 5613POPC   C1A71079  34.466  36.035   6.412
 5613POPC   D2A71080  34.342  36.404   6.643
 5613POPC   C3A71081  34.400  36.262   7.044
 5613POPC   C4A71082  34.567  35.848   7.030
 5613POPC   C1B71083  34.923  36.232   6.297
 5613POPC   C2B71084  34.836  36.254   6.752
 5613POPC   C3B71085  34.916  36.202   7.193
 5613POPC   C4B71086  35.038  36.130   7.662
 5614POPC   NC371087  44.123  42.309   5.177
 5614POPC   PO471088  43.671  42.569   5.504
 5614POPC   GL171089  44.034  42.507   5.766
 5614POPC   GL271090  44.053  42.149   5.855
 5614POPC   C1A71091  44.125  42.519   6.219
 5614POPC   D2A71092  43.952  42.204   6.497
 5614POPC   C3A71093  44.049  42.238   6.925
 5614POPC   C4A71094  43.890  42.417   7.301
 5614POPC   C1B71095  43.853  41.836   6.130
 5614POPC   C2B71096  43.667  41.736   6.508
 5614POPC   C3B71097  43.611  41.947   6.842
 5614POPC   C4B71098  43.713  41.939   7.254
 5615POPC   NC371099  14.350  33.295   5.587
 5615POPC   PO471100  14.700  32.729   5.622
 5615POPC   GL171101  14.674  33.022   5.876
 5615POPC   GL271102  14.401  32.863   6.040
 5615POPC   C1A71103  14.754  33.176   6.249
 5615POPC   D2A71104  14.611  32.943   6.564
 5615POPC   C3A71105  14.623  33.142   6.937
 5615POPC   C4A71106  14.620  32.913   7.271
 5615POPC   C1B71107  14.224  33.216   6.261
 5615POPC   C2B71108  14.142  33.183   6.691
 5615POPC   C3B71109  14.199  32.828   6.962
 5615POPC   C4B71110  14.085  32.774   7.404
 5616POPC   NC371111  17.506  39.849   5.448
 5616POPC   PO471112  17.556  40.490   5.637
 5616POPC   GL171113  17.586  40.105   5.879
 5616POPC   GL271114  17.222  39.975   5.882
 5616POPC   C1A71115  17.585  39.950   6.295
 5616POPC   D2A71116  17.751  39.807   6.667
 5616POPC   C3A71117  17.436  39.789   6.981
 5616POPC   C4A71118  17.677  39.850   7.325
 5616POPC   C1B71119  17.234  40.291   6.234
 5616POPC   C2B71120  17.342  40.226   6.679
 5616POPC   C3B71121  17.454  40.298   7.115
 5616POPC   C4B71122  17.701  40.324   7.485
 5617POPC   NC371123  42.993  30.983   5.671
 5617POPC   PO471124  42.670  30.419   5.675
 5617POPC   GL171125  43.080  30.531   5.887
 5617POPC   GL271126  43.085  30.860   6.145
 5617POPC   C1A71127  43.383  30.483   6.242
 5617POPC   D2A71128  43.217  30.656   6.635
 5617POPC   C3A71129  43.484  30.733   6.961
 5617POPC   C4A71130  43.372  30.788   7.374
 5617POPC   C1B71131  42.811  30.522   6.338
 5617POPC   C2B71132  42.791  30.401   6.763
 5617POPC   C3B71133  42.902  30.669   7.096
 5617POPC   C4B71134  42.829  30.675   7.492
 5618POPC   NC371135  25.613  20.666   5.433
 5618POPC   PO471136  24.975  20.251   5.578
 5618POPC   GL171137  25.187  20.452   5.887
 5618POPC   GL271138  25.254  20.748   5.801
 5618POPC   C1A71139  25.288  20.544   6.309
 5618POPC   D2A71140  25.121  20.347   6.679
 5618POPC   C3A71141  25.140  20.602   7.044
 5618POPC   C4A71142  25.474  20.637   7.333
 5618POPC   C1B71143  25.014  20.934   6.120
 5618POPC   C2B71144  25.158  21.002   6.531
 5618POPC   C3B71145  25.014  21.109   6.934
 5618POPC   C4B71146  24.898  20.965   7.338
 5619POPC   NC371147   5.307   9.979   5.447
 5619POPC   PO471148   5.020   9.413   5.516
 5619POPC   GL171149   5.048   9.734   5.821
 5619POPC   GL271150   5.375   9.643   5.879
 5619POPC   C1A71151   5.164   9.975   6.203
 5619POPC   D2A71152   4.974   9.890   6.597
 5619POPC   C3A71153   5.177   9.979   6.978
 5619POPC   C4A71154   5.062  10.128   7.377
 5619POPC   C1B71155   5.282   9.482   6.307
 5619POPC   C2B71156   5.277   9.496   6.758
 5619POPC   C3B71157   5.184   9.512   7.181
 5619POPC   C4B71158   5.078   9.655   7.598
 5620POPC   NC371159  10.106  11.779   5.677
 5620POPC   PO471160  10.615  11.941   5.242
 5620POPC   GL171161  10.627  12.002   5.660
 5620POPC   GL271162  10.370  12.227   5.747
 5620POPC   C1A71163  10.685  12.002   6.115
 5620POPC   D2A71164  10.611  12.185   6.532
 5620POPC   C3A71165  10.483  11.937   6.878
 5620POPC   C4A71166  10.469  11.999   7.295
 5620POPC   C1B71167  10.255  12.345   6.172
 5620POPC   C2B71168  10.286  12.603   6.546
 5620POPC   C3B71169  10.388  12.462   6.943
 5620POPC   C4B71170  10.248  12.447   7.360
 5621POPC   NC371171  32.726  27.095   5.377
 5621POPC   PO471172  32.178  26.600   5.258
 5621POPC   GL171173  32.185  26.681   5.743
 5621POPC   GL271174  32.184  27.032   5.835
 5621POPC   C1A71175  32.073  26.647   6.216
 5621POPC   D2A71176  32.284  26.647   6.644
 5621POPC   C3A71177  31.995  26.588   6.992
 5621POPC   C4A71178  32.056  26.737   7.371
 5621POPC   C1B71179  32.378  27.055   6.233
 5621POPC   C2B71180  32.249  27.165   6.615
 5621POPC   C3B71181  32.276  27.050   7.031
 5621POPC   C4B71182  32.073  27.283   7.367
 5622POPC   NC371183  38.496  35.290   5.367
 5622POPC   PO471184  38.698  35.844   5.301
 5622POPC   GL171185  38.520  35.578   5.768
 5622POPC   GL271186  38.184  35.367   5.764
 5622POPC   C1A71187  38.591  35.268   6.102
 5622POPC   D2A71188  38.645  35.171   6.536
 5622POPC   C3A71189  38.675  35.539   6.797
 5622POPC   C4A71190  38.644  35.294   7.122
 5622POPC   C1B71191  38.042  35.531   6.149
 5622POPC   C2B71192  38.245  35.548   6.523
 5622POPC   C3B71193  38.158  35.462   6.945
 5622POPC   C4B71194  37.939  35.729   7.199
 5623POPC   NC371195  41.391  34.236   5.504
 5623POPC   PO471196  41.446  33.557   5.457
 5623POPC   GL171197  41.528  33.787   5.816
 5623POPC   GL271198  41.846  33.961   5.738
 5623POPC   C1A71199  41.383  33.639   6.242
 5623POPC   D2A71200  41.219  33.699   6.656
 5623POPC   C3A71201  41.521  33.651   6.969
 5623POPC   C4A71202  41.271  33.737   7.330
 5623POPC   C1B71203  41.847  33.973   6.179
 5623POPC   C2B71204  41.877  33.834   6.579
 5623POPC   C3B71205  41.886  34.069   6.939
 5623POPC   C4B71206  41.762  33.952   7.325
 5624POPC   NC371207  43.931  13.332   5.529
 5624POPC   PO471208  43.675  14.003   5.578
 5624POPC   GL171209  43.947  13.723   5.902
 5624POPC   GL271210  43.846  13.345   6.012
 5624POPC   C1A71211  43.990  13.638   6.377
 5624POPC   D2A71212  44.075  13.265   6.598
 5624POPC   C3A71213  44.024  13.350   7.033
 5624POPC   C4A71214  44.229  13.513   7.419
 5624POPC   C1B71215  43.573  13.318   6.356
 5624POPC   C2B71216  43.558  13.550   6.718
 5624POPC   C3B71217  43.501  13.499   7.132
 5624POPC   C4B71218  43.735  13.444   7.441
 5625POPC   NC371219  32.031  20.283   5.515
 5625POPC   PO471220  32.244  19.721   5.441
 5625POPC   GL171221  32.145  19.875   5.849
 5625POPC   GL271222  32.182  20.232   5.999
 5625POPC   C1A71223  32.014  19.805   6.272
 5625POPC   D2A71224  32.105  20.026   6.676
 5625POPC   C3A71225  32.014  19.821   7.069
 5625POPC   C4A71226  32.244  19.759   7.471
 5625POPC   C1B71227  32.492  19.970   6.210
 5625POPC   C2B71228  32.730  19.972   6.558
 5625POPC   C3B71229  32.579  20.065   6.922
 5625POPC   C4B71230  32.725  20.022   7.335
 5626POPC   NC371231  23.303  30.966   5.439
 5626POPC   PO471232  22.666  30.895   5.353
 5626POPC   GL171233  22.842  30.712   5.708
 5626POPC   GL271234  23.014  30.989   5.845
 5626POPC   C1A71235  22.798  30.638   6.146
 5626POPC   D2A71236  22.926  30.555   6.575
 5626POPC   C3A71237  22.597  30.599   6.921
 5626POPC   C4A71238  22.653  30.525   7.362
 5626POPC   C1B71239  23.206  30.926   6.251
 5626POPC   C2B71240  23.118  31.013   6.682
 5626POPC   C3B71241  23.082  30.716   7.047
 5626POPC   C4B71242  23.390  30.633   7.336
 5627POPC   NC371243  31.873  22.208   5.648
 5627POPC   PO471244  31.490  22.024   5.178
 5627POPC   GL171245  31.370  22.053   5.660
 5627POPC   GL271246  31.293  22.380   5.870
 5627POPC   C1A71247  31.462  21.975   6.128
 5627POPC   D2A71248  31.683  21.972   6.510
 5627POPC   C3A71249  31.628  21.946   6.939
 5627POPC   C4A71250  31.280  21.984   7.190
 5627POPC   C1B71251  31.631  22.443   6.262
 5627POPC   C2B71252  31.858  22.440   6.678
 5627POPC   C3B71253  31.652  22.483   7.102
 5627POPC   C4B71254  31.222  22.469   7.187
 5628POPC   NC371255   7.835  39.672   5.549
 5628POPC   PO471256   7.255  39.994   5.676
 5628POPC   GL171257   7.579  39.959   5.897
 5628POPC   GL271258   7.681  40.279   5.813
 5628POPC   C1A71259   7.556  39.833   6.309
 5628POPC   D2A71260   7.226  39.846   6.590
 5628POPC   C3A71261   7.374  39.914   6.996
 5628POPC   C4A71262   7.138  39.696   7.320
 5628POPC   C1B71263   7.852  40.272   6.208
 5628POPC   C2B71264   7.922  40.068   6.586
 5628POPC   C3B71265   7.784  40.270   6.944
 5628POPC   C4B71266   7.609  40.258   7.327
 5629POPC   NC371267  34.513  22.528   5.574
 5629POPC   PO471268  34.305  23.083   5.427
 5629POPC   GL171269  34.557  22.996   5.816
 5629POPC   GL271270  34.866  22.809   5.784
 5629POPC   C1A71271  34.451  23.033   6.254
 5629POPC   D2A71272  34.321  23.235   6.614
 5629POPC   C3A71273  34.511  23.129   6.979
 5629POPC   C4A71274  34.696  23.358   7.273
 5629POPC   C1B71275  34.751  22.614   6.201
 5629POPC   C2B71276  34.797  22.784   6.628
 5629POPC   C3B71277  34.733  22.622   7.014
 5629POPC   C4B71278  34.451  22.694   7.240
 5630POPC   NC371279  11.722   3.637   5.377
 5630POPC   PO471280  11.130   3.312   5.467
 5630POPC   GL171281  11.255   3.548   5.812
 5630POPC   GL271282  11.615   3.562   5.857
 5630POPC   C1A71283  11.290   3.563   6.261
 5630POPC   D2A71284  11.421   3.790   6.636
 5630POPC   C3A71285  11.142   3.697   6.993
 5630POPC   C4A71286  10.721   3.864   7.059
 5630POPC   C1B71287  11.695   3.272   6.173
 5630POPC   C2B71288  11.593   3.299   6.612
 5630POPC   C3B71289  11.602   3.448   7.037
 5630POPC   C4B71290  11.537   3.219   7.425
 5631POPC   NC371291  18.733  37.319   5.361
 5631POPC   PO471292  18.526  37.954   5.429
 5631POPC   GL171293  18.350  37.996   5.811
 5631POPC   GL271294  18.250  37.649   5.887
 5631POPC   C1A71295  18.421  37.989   6.229
 5631POPC   D2A71296  18.336  37.588   6.447
 5631POPC   C3A71297  18.295  37.605   6.895
 5631POPC   C4A71298  18.312  37.919   7.233
 5631POPC   C1B71299  17.979  37.352   6.154
 5631POPC   C2B71300  17.915  37.167   6.579
 5631POPC   C3B71301  18.062  37.154   7.024
 5631POPC   C4B71302  18.083  37.464   7.355
 5632POPC   NC371303  31.730   9.855   5.232
 5632POPC   PO471304  31.257   9.473   5.423
 5632POPC   GL171305  31.479   9.760   5.708
 5632POPC   GL271306  31.247   9.720   5.952
 5632POPC   C1A71307  31.710   9.906   6.108
 5632POPC   D2A71308  31.710  10.039   6.544
 5632POPC   C3A71309  31.509   9.780   6.870
 5632POPC   C4A71310  31.539   9.852   7.324
 5632POPC   C1B71311  31.326   9.678   6.388
 5632POPC   C2B71312  31.092   9.524   6.750
 5632POPC   C3B71313  31.168   9.536   7.186
 5632POPC   C4B71314  31.232   9.571   7.662
 5633POPC   NC371315  16.778  39.281   5.328
 5633POPC   PO471316  17.384  39.095   5.481
 5633POPC   GL171317  16.979  39.178   5.783
 5633POPC   GL271318  16.610  39.306   5.805
 5633POPC   C1A71319  16.997  39.299   6.229
 5633POPC   D2A71320  16.778  39.341   6.638
 5633POPC   C3A71321  16.948  39.348   7.066
 5633POPC   C4A71322  17.056  38.959   7.282
 5633POPC   C1B71323  16.450  39.276   6.220
 5633POPC   C2B71324  16.272  39.426   6.594
 5633POPC   C3B71325  16.400  39.424   7.027
 5633POPC   C4B71326  16.536  39.119   7.278
 5634POPC   NC371327  12.401   1.939   5.209
 5634POPC   PO471328  11.878   1.709   5.580
 5634POPC   GL171329  11.972   1.963   5.949
 5634POPC   GL271330  12.271   2.169   5.957
 5634POPC   C1A71331  11.967   2.085   6.390
 5634POPC   D2A71332  11.883   2.459   6.626
 5634POPC   C3A71333  11.924   2.357   7.057
 5634POPC   C4A71334  12.020   1.984   7.252
 5634POPC   C1B71335  12.372   2.376   6.370
 5634POPC   C2B71336  12.374   2.199   6.800
 5634POPC   C3B71337  12.498   2.164   7.251
 5634POPC   C4B71338  12.459   2.153   7.720
 5635POPC   NC371339   7.946  31.602   5.422
 5635POPC   PO471340   8.565  31.400   5.537
 5635POPC   GL171341   8.253  31.560   5.807
 5635POPC   GL271342   8.433  31.482   6.040
 5635POPC   C1A71343   7.942  31.577   6.157
 5635POPC   D2A71344   8.211  31.572   6.532
 5635POPC   C3A71345   7.984  31.541   6.920
 5635POPC   C4A71346   7.776  31.334   7.244
 5635POPC   C1B71347   8.643  31.200   6.277
 5635POPC   C2B71348   8.737  31.313   6.652
 5635POPC   C3B71349   8.417  31.278   6.925
 5635POPC   C4B71350   8.323  31.411   7.323
 5636POPC   NC371351  27.959  18.666   5.426
 5636POPC   PO471352  27.419  18.302   5.471
 5636POPC   GL171353  27.765  18.272   5.807
 5636POPC   GL271354  27.967  17.921   5.891
 5636POPC   C1A71355  27.728  18.521   6.213
 5636POPC   D2A71356  27.934  18.492   6.634
 5636POPC   C3A71357  27.671  18.519   7.000
 5636POPC   C4A71358  27.751  18.388   7.418
 5636POPC   C1B71359  27.681  18.000   6.241
 5636POPC   C2B71360  27.478  18.229   6.580
 5636POPC   C3B71361  27.461  18.066   7.000
 5636POPC   C4B71362  27.305  18.104   7.437
 5637POPC   NC371363  31.010   7.681   5.425
 5637POPC   PO471364  30.412   7.491   5.126
 5637POPC   GL171365  30.603   7.430   5.654
 5637POPC   GL271366  30.835   7.650   5.892
 5637POPC   C1A71367  30.602   7.302   6.164
 5637POPC   D2A71368  30.362   7.245   6.585
 5637POPC   C3A71369  30.610   7.353   6.938
 5637POPC   C4A71370  30.951   7.105   7.099
 5637POPC   C1B71371  30.761   7.794   6.309
 5637POPC   C2B71372  30.715   7.841   6.718
 5637POPC   C3B71373  30.938   7.732   7.049
 5637POPC   C4B71374  30.781   7.596   7.409
 5638POPC   NC371375  44.272  38.950   5.691
 5638POPC   PO471376  44.464  39.494   5.362
 5638POPC   GL171377  44.541  39.367   5.844
 5638POPC   GL271378  44.499  39.104   6.099
 5638POPC   C1A71379  44.784  39.507   6.252
 5638POPC   D2A71380   0.035  39.397   6.638
 5638POPC   C3A71381  44.806  39.247   6.994
 5638POPC   C4A71382  44.909  39.048   7.403
 5638POPC   C1B71383  44.549  39.134   6.533
 5638POPC   C2B71384  44.303  39.187   6.870
 5638POPC   C3B71385  44.426  39.024   7.248
 5638POPC   C4B71386  44.485  39.000   7.685
 5639POPC   NC371387   6.734  24.345   5.404
 5639POPC   PO471388   6.315  24.865   5.285
 5639POPC   GL171389   6.362  24.610   5.694
 5639POPC   GL271390   6.708  24.666   5.791
 5639POPC   C1A71391   6.356  24.463   6.157
 5639POPC   D2A71392   6.560  24.532   6.590
 5639POPC   C3A71393   6.500  24.328   7.012
 5639POPC   C4A71394   6.402  24.580   7.388
 5639POPC   C1B71395   6.881  24.559   6.166
 5639POPC   C2B71396   7.097  24.508   6.538
 5639POPC   C3B71397   7.001  24.458   6.931
 5639POPC   C4B71398   6.980  24.168   7.204
 5640POPC   NC371399  44.895  34.626   5.439
 5640POPC   PO471400  44.232  34.379   5.373
 5640POPC   GL171401  44.492  34.372   5.766
 5640POPC   GL271402  44.636  34.703   5.868
 5640POPC   C1A71403  44.359  34.450   6.202
 5640POPC   D2A71404  44.533  34.454   6.586
 5640POPC   C3A71405  44.660  34.574   7.002
 5640POPC   C4A71406  44.373  34.442   7.291
 5640POPC   C1B71407  44.904  34.506   6.204
 5640POPC   C2B71408   0.059  34.512   6.649
 5640POPC   C3B71409   0.143  34.749   7.041
 5640POPC   C4B71410  44.938  35.064   7.316
 5641POPC   NC371411  27.097  13.210   5.436
 5641POPC   PO471412  26.602  12.791   5.325
 5641POPC   GL171413  26.796  12.937   5.763
 5641POPC   GL271414  27.105  13.057   5.920
 5641POPC   C1A71415  26.785  12.769   6.199
 5641POPC   D2A71416  26.633  12.797   6.634
 5641POPC   C3A71417  26.914  12.823   6.976
 5641POPC   C4A71418  26.725  12.550   7.196
 5641POPC   C1B71419  26.998  13.267   6.244
 5641POPC   C2B71420  26.927  13.196   6.617
 5641POPC   C3B71421  26.866  13.328   7.021
 5641POPC   C4B71422  26.824  13.183   7.458
 5642POPC   NC371423  16.276  21.665   5.551
 5642POPC   PO471424  15.868  21.130   5.461
 5642POPC   GL171425  15.857  21.276   5.885
 5642POPC   GL271426  15.889  21.624   5.905
 5642POPC   C1A71427  15.787  21.351   6.329
 5642POPC   D2A71428  15.801  21.087   6.658
 5642POPC   C3A71429  15.840  21.313   6.997
 5642POPC   C4A71430  15.717  21.486   7.336
 5642POPC   C1B71431  15.938  21.844   6.295
 5642POPC   C2B71432  15.900  21.766   6.741
 5642POPC   C3B71433  16.185  21.763   7.054
 5642POPC   C4B71434  16.541  21.759   7.335
 5643POPC   NC371435   0.935  32.217   5.474
 5643POPC   PO471436   1.560  32.223   5.329
 5643POPC   GL171437   1.381  32.340   5.771
 5643POPC   GL271438   1.033  32.224   5.959
 5643POPC   C1A71439   1.342  32.542   6.188
 5643POPC   D2A71440   1.043  32.325   6.486
 5643POPC   C3A71441   1.215  32.332   6.895
 5643POPC   C4A71442   1.291  32.557   7.286
 5643POPC   C1B71443   1.365  32.003   6.196
 5643POPC   C2B71444   1.529  32.021   6.613
 5643POPC   C3B71445   1.371  31.852   7.013
 5643POPC   C4B71446   1.112  32.043   7.317
 5644POPC   NC371447  30.669   0.469   5.231
 5644POPC   PO471448  31.302   0.203   5.415
 5644POPC   GL171449  30.900   0.281   5.693
 5644POPC   GL271450  30.787   0.546   5.929
 5644POPC   C1A71451  30.843   0.092   6.123
 5644POPC   D2A71452  30.582   0.171   6.495
 5644POPC   C3A71453  30.739   0.381   6.861
 5644POPC   C4A71454  30.909   0.175   7.207
 5644POPC   C1B71455  30.512   0.615   6.268
 5644POPC   C2B71456  30.305   0.582   6.642
 5644POPC   C3B71457  30.397   0.710   7.079
 5644POPC   C4B71458  30.785   0.692   7.284
 5645POPC   NC371459  14.842   1.949   5.355
 5645POPC   PO471460  14.350   2.386   5.218
 5645POPC   GL171461  14.565   2.249   5.734
 5645POPC   GL271462  14.288   2.142   5.953
 5645POPC   C1A71463  14.644   1.924   6.177
 5645POPC   D2A71464  14.424   1.872   6.597
 5645POPC   C3A71465  14.608   1.976   6.974
 5645POPC   C4A71466  14.492   1.811   7.369
 5645POPC   C1B71467  14.121   2.240   6.295
 5645POPC   C2B71468  13.987   2.143   6.658
 5645POPC   C3B71469  14.150   2.197   7.032
 5645POPC   C4B71470  14.225   2.252   7.417
 5646POPC   NC371471  44.913  42.542   5.399
 5646POPC   PO471472  44.476  43.145   5.460
 5646POPC   GL171473  44.587  43.225   5.875
 5646POPC   GL271474  44.936  43.118   5.888
 5646POPC   C1A71475  44.648  43.590   6.148
 5646POPC   D2A71476  44.574  43.652   6.576
 5646POPC   C3A71477  44.488  43.267   6.780
 5646POPC   C4A71478  44.638  43.063   7.143
 5646POPC   C1B71479  44.790  43.122   6.329
 5646POPC   C2B71480  44.926  42.977   6.709
 5646POPC   C3B71481  44.862  42.638   6.959
 5646POPC   C4B71482  44.936  42.675   7.365
 5647POPC   NC371483  44.838  41.905   5.138
 5647POPC   PO471484  44.610  41.323   5.491
 5647POPC   GL171485  44.775  41.423   5.924
 5647POPC   GL271486  44.580  41.676   6.101
 5647POPC   C1A71487  44.869  41.348   6.350
 5647POPC   D2A71488  44.583  41.516   6.615
 5647POPC   C3A71489  44.822  41.319   6.910
 5647POPC   C4A71490   0.018  41.381   7.279
 5647POPC   C1B71491  44.918  41.868   6.342
 5647POPC   C2B71492  44.968  41.806   6.804
 5647POPC   C3B71493  44.605  41.738   7.083
 5647POPC   C4B71494  44.368  42.034   7.286
 5648POPC   NC371495  24.845  31.177   5.550
 5648POPC   PO471496  24.519  30.550   5.496
 5648POPC   GL171497  24.427  30.642   5.885
 5648POPC   GL271498  24.578  30.373   6.020
 5648POPC   C1A71499  24.604  30.876   6.242
 5648POPC   D2A71500  24.503  30.887   6.696
 5648POPC   C3A71501  24.375  30.664   7.067
 5648POPC   C4A71502  24.612  30.988   7.226
 5648POPC   C1B71503  24.472  30.434   6.441
 5648POPC   C2B71504  24.715  30.375   6.815
 5648POPC   C3B71505  24.619  30.201   7.235
 5648POPC   C4B71506  24.668  30.370   7.710
 5649POPC   NC371507  36.381  35.952   5.490
 5649POPC   PO471508  35.876  35.887   5.148
 5649POPC   GL171509  35.916  35.981   5.720
 5649POPC   GL271510  36.220  36.150   5.923
 5649POPC   C1A71511  35.928  35.872   6.209
 5649POPC   D2A71512  36.225  36.013   6.563
 5649POPC   C3A71513  36.073  35.976   7.005
 5649POPC   C4A71514  35.756  35.702   7.220
 5649POPC   C1B71515  36.045  36.413   6.235
 5649POPC   C2B71516  36.226  36.587   6.611
 5649POPC   C3B71517  36.321  36.456   7.033
 5649POPC   C4B71518  36.228  36.509   7.455
 5650POPC   NC371519  25.124  14.648   5.532
 5650POPC   PO471520  25.626  14.223   5.501
 5650POPC   GL171521  25.385  14.291   5.831
 5650POPC   GL271522  25.475  14.629   5.935
 5650POPC   C1A71523  25.459  14.166   6.248
 5650POPC   D2A71524  25.201  14.208   6.600
 5650POPC   C3A71525  25.379  14.223   6.977
 5650POPC   C4A71526  25.197  14.118   7.350
 5650POPC   C1B71527  25.137  14.570   6.244
 5650POPC   C2B71528  24.974  14.670   6.667
 5650POPC   C3B71529  25.129  14.656   7.080
 5650POPC   C4B71530  25.102  14.816   7.470
 5651POPC   NC371531  24.096  15.927   5.283
 5651POPC   PO471532  24.763  15.723   5.452
 5651POPC   GL171533  24.473  16.031   5.650
 5651POPC   GL271534  24.784  16.142   5.799
 5651POPC   C1A71535  24.362  16.060   6.099
 5651POPC   D2A71536  24.572  15.915   6.468
 5651POPC   C3A71537  24.364  15.819   6.837
 5651POPC   C4A71538  24.396  15.902   7.240
 5651POPC   C1B71539  24.947  15.833   6.111
 5651POPC   C2B71540  25.026  15.671   6.513
 5651POPC   C3B71541  24.892  15.797   6.854
 5651POPC   C4B71542  24.759  15.569   7.146
 5652POPC   NC371543  16.829  21.798   5.129
 5652POPC   PO471544  16.862  21.232   5.423
 5652POPC   GL171545  16.715  21.436   5.780
 5652POPC   GL271546  16.407  21.230   5.836
 5652POPC   C1A71547  16.829  21.327   6.217
 5652POPC   D2A71548  16.679  21.152   6.590
 5652POPC   C3A71549  16.714  21.398   6.990
 5652POPC   C4A71550  16.779  21.302   7.424
 5652POPC   C1B71551  16.322  21.497   6.200
 5652POPC   C2B71552  16.228  21.394   6.617
 5652POPC   C3B71553  16.307  21.114   6.944
 5652POPC   C4B71554  16.259  21.343   7.305
 5653POPC   NC371555  38.489  11.745   5.500
 5653POPC   PO471556  38.288  12.405   5.397
 5653POPC   GL171557  38.570  12.198   5.753
 5653POPC   GL271558  38.443  11.928   5.978
 5653POPC   C1A71559  38.825  12.204   6.157
 5653POPC   D2A71560  38.685  12.019   6.563
 5653POPC   C3A71561  38.629  12.330   6.871
 5653POPC   C4A71562  38.568  12.258   7.283
 5653POPC   C1B71563  38.208  11.918   6.357
 5653POPC   C2B71564  38.145  12.142   6.759
 5653POPC   C3B71565  38.122  12.045   7.187
 5653POPC   C4B71566  38.064  11.613   7.226
 5654POPC   NC371567  33.011   6.266   5.486
 5654POPC   PO471568  33.305   5.612   5.468
 5654POPC   GL171569  33.049   5.743   5.792
 5654POPC   GL271570  33.252   6.002   5.817
 5654POPC   C1A71571  32.825   5.720   6.210
 5654POPC   D2A71572  32.495   5.635   6.561
 5654POPC   C3A71573  32.681   5.703   6.971
 5654POPC   C4A71574  33.080   5.669   7.155
 5654POPC   C1B71575  33.363   6.126   6.173
 5654POPC   C2B71576  33.262   5.893   6.523
 5654POPC   C3B71577  33.392   5.968   6.910
 5654POPC   C4B71578  33.424   6.310   7.134
 5655POPC   NC371579  32.551  42.422   5.478
 5655POPC   PO471580  31.999  42.020   5.369
 5655POPC   GL171581  31.958  42.338   5.719
 5655POPC   GL271582  32.286  42.442   5.893
 5655POPC   C1A71583  31.874  42.519   6.136
 5655POPC   D2A71584  32.217  42.429   6.467
 5655POPC   C3A71585  32.084  42.382   6.915
 5655POPC   C4A71586  32.237  42.116   7.202
 5655POPC   C1B71587  32.630  42.617   6.128
 5655POPC   C2B71588  32.730  42.514   6.526
 5655POPC   C3B71589  32.617  42.308   6.895
 5655POPC   C4B71590  32.535  42.564   7.228
 5656POPC   NC371591   7.790  41.569   5.126
 5656POPC   PO471592   8.312  41.856   5.307
 5656POPC   GL171593   8.144  41.676   5.726
 5656POPC   GL271594   7.963  41.907   5.945
 5656POPC   C1A71595   8.187  41.395   6.134
 5656POPC   D2A71596   8.264  41.070   6.502
 5656POPC   C3A71597   8.207  41.317   6.866
 5656POPC   C4A71598   8.471  41.634   7.039
 5656POPC   C1B71599   7.720  41.929   6.323
 5656POPC   C2B71600   7.815  41.678   6.663
 5656POPC   C3B71601   7.993  41.791   7.047
 5656POPC   C4B71602   8.161  42.108   7.292
 5657POPC   NC371603   1.058  36.343   5.065
 5657POPC   PO471604   1.239  35.881   5.501
 5657POPC   GL171605   1.257  36.107   5.867
 5657POPC   GL271606   1.359  35.802   6.035
 5657POPC   C1A71607   1.275  36.473   6.189
 5657POPC   D2A71608   1.511  36.653   6.569
 5657POPC   C3A71609   1.461  36.437   6.973
 5657POPC   C4A71610   1.106  36.336   7.234
 5657POPC   C1B71611   1.089  36.036   6.342
 5657POPC   C2B71612   1.014  36.161   6.771
 5657POPC   C3B71613   0.984  35.846   7.113
 5657POPC   C4B71614   1.382  35.646   7.132
 5658POPC   NC371615  13.093  32.128   5.513
 5658POPC   PO471616  12.784  32.649   5.575
 5658POPC   GL171617  12.795  32.323   5.895
 5658POPC   GL271618  13.022  32.024   6.001
 5658POPC   C1A71619  12.894  32.405   6.318
 5658POPC   D2A71620  12.934  32.153   6.636
 5658POPC   C3A71621  12.821  32.388   6.966
 5658POPC   C4A71622  12.819  32.284   7.391
 5658POPC   C1B71623  12.630  31.945   6.243
 5658POPC   C2B71624  12.546  31.828   6.701
 5658POPC   C3B71625  12.674  31.871   7.147
 5658POPC   C4B71626  12.824  31.820   7.606
 5659POPC   NC371627  20.070  15.194   5.382
 5659POPC   PO471628  19.466  15.098   5.650
 5659POPC   GL171629  19.739  14.976   5.948
 5659POPC   GL271630  20.074  15.037   5.863
 5659POPC   C1A71631  19.526  14.924   6.326
 5659POPC   D2A71632  19.371  15.181   6.651
 5659POPC   C3A71633  19.671  15.158   6.962
 5659POPC   C4A71634  19.700  15.037   7.362
 5659POPC   C1B71635  20.242  15.152   6.255
 5659POPC   C2B71636  20.279  14.973   6.676
 5659POPC   C3B71637  20.202  15.217   7.060
 5659POPC   C4B71638  20.095  15.426   7.425
 5660POPC   NC371639  32.627  40.325   5.496
 5660POPC   PO471640  33.226  40.235   5.153
 5660POPC   GL171641  33.112  40.030   5.563
 5660POPC   GL271642  32.788  39.870   5.676
 5660POPC   C1A71643  33.190  39.987   6.015
 5660POPC   D2A71644  33.102  40.294   6.365
 5660POPC   C3A71645  33.198  40.194   6.787
 5660POPC   C4A71646  33.143  40.019   7.196
 5660POPC   C1B71647  32.693  40.056   6.092
 5660POPC   C2B71648  32.607  40.131   6.520
 5660POPC   C3B71649  32.740  39.984   6.901
 5660POPC   C4B71650  32.632  40.018   7.314
 5661POPC   NC371651  17.690   9.877   5.209
 5661POPC   PO471652  17.111   9.818   5.478
 5661POPC   GL171653  17.417   9.783   5.776
 5661POPC   GL271654  17.271   9.493   5.915
 5661POPC   C1A71655  17.394   9.913   6.220
 5661POPC   D2A71656  17.601   9.802   6.606
 5661POPC   C3A71657  17.391   9.706   6.992
 5661POPC   C4A71658  17.381   9.923   7.373
 5661POPC   C1B71659  17.603   9.427   6.209
 5661POPC   C2B71660  17.700   9.281   6.627
 5661POPC   C3B71661  17.689   9.258   7.063
 5661POPC   C4B71662  17.449   9.386   7.430
 5662POPC   NC371663  39.262  43.371   5.489
 5662POPC   PO471664  39.154  42.657   5.552
 5662POPC   GL171665  39.285  42.927   5.891
 5662POPC   GL271666  39.070  43.170   5.886
 5662POPC   C1A71667  39.322  43.097   6.342
 5662POPC   D2A71668  39.316  42.965   6.794
 5662POPC   C3A71669  39.335  43.096   7.260
 5662POPC   C4A71670  39.562  43.152   7.684
 5662POPC   C1B71671  38.962  43.448   6.187
 5662POPC   C2B71672  39.153  43.550   6.586
 5662POPC   C3B71673  39.013  43.362   6.962
 5662POPC   C4B71674  38.813  43.395   7.314
 5663POPC   NC371675   0.255  30.327   5.687
 5663POPC   PO471676   0.494  30.958   5.454
 5663POPC   GL171677   0.370  30.834   5.852
 5663POPC   GL271678   0.119  31.075   5.945
 5663POPC   C1A71679   0.383  30.618   6.267
 5663POPC   D2A71680   0.167  30.475   6.627
 5663POPC   C3A71681   0.431  30.338   6.962
 5663POPC   C4A71682   0.486  30.555   7.332
 5663POPC   C1B71683   0.341  31.119   6.309
 5663POPC   C2B71684   0.455  30.916   6.680
 5663POPC   C3B71685   0.187  30.862   6.998
 5663POPC   C4B71686   0.160  30.947   7.401
 5664POPC   NC371687   8.676  30.938   5.499
 5664POPC   PO471688   8.902  30.204   5.336
 5664POPC   GL171689   8.995  30.578   5.684
 5664POPC   GL271690   9.337  30.656   5.799
 5664POPC   C1A71691   8.927  30.786   6.126
 5664POPC   D2A71692   9.035  30.905   6.560
 5664POPC   C3A71693   8.746  30.846   6.902
 5664POPC   C4A71694   8.765  30.949   7.322
 5664POPC   C1B71695   9.260  30.399   6.178
 5664POPC   C2B71696   9.403  30.535   6.567
 5664POPC   C3B71697   9.299  30.674   6.972
 5664POPC   C4B71698   9.397  30.371   7.304
 5665POPC   NC371699   3.628  16.034   5.084
 5665POPC   PO471700   3.119  15.883   5.579
 5665POPC   GL171701   3.388  16.126   5.867
 5665POPC   GL271702   3.740  16.152   5.875
 5665POPC   C1A71703   3.430  16.103   6.294
 5665POPC   D2A71704   3.681  16.080   6.676
 5665POPC   C3A71705   3.449  16.096   7.070
 5665POPC   C4A71706   3.185  15.811   7.283
 5665POPC   C1B71707   3.854  15.848   6.188
 5665POPC   C2B71708   4.025  15.726   6.594
 5665POPC   C3B71709   3.781  15.665   6.992
 5665POPC   C4B71710   3.783  15.794   7.420
 5666POPC   NC371711  20.257   2.756   5.311
 5666POPC   PO471712  19.611   2.901   5.396
 5666POPC   GL171713  19.890   2.842   5.788
 5666POPC   GL271714  20.079   2.540   5.769
 5666POPC   C1A71715  19.808   2.772   6.266
 5666POPC   D2A71716  19.948   2.948   6.706
 5666POPC   C3A71717  19.813   2.797   7.143
 5666POPC   C4A71718  19.808   2.988   7.600
 5666POPC   C1B71719  20.157   2.367   6.172
 5666POPC   C2B71720  20.133   2.456   6.618
 5666POPC   C3B71721  20.278   2.331   7.025
 5666POPC   C4B71722  19.979   2.165   7.326
 5667POPC   NC371723  12.978   6.948   5.383
 5667POPC   PO471724  12.599   6.545   5.123
 5667POPC   GL171725  12.598   6.460   5.624
 5667POPC   GL271726  12.733   6.734   5.813
 5667POPC   C1A71727  12.526   6.390   6.124
 5667POPC   D2A71728  12.740   6.335   6.554
 5667POPC   C3A71729  12.633   6.537   6.974
 5667POPC   C4A71730  12.880   6.789   7.304
 5667POPC   C1B71731  12.986   6.642   6.212
 5667POPC   C2B71732  12.925   6.849   6.617
 5667POPC   C3B71733  13.098   7.111   6.934
 5667POPC   C4B71734  13.358   6.947   7.248
 5668POPC   NC371735  17.350   2.099   5.453
 5668POPC   PO471736  17.628   1.479   5.516
 5668POPC   GL171737  17.582   1.801   5.813
 5668POPC   GL271738  17.219   1.720   5.802
 5668POPC   C1A71739  17.714   2.063   6.181
 5668POPC   D2A71740  17.553   2.155   6.607
 5668POPC   C3A71741  17.692   1.923   6.976
 5668POPC   C4A71742  17.613   2.186   7.326
 5668POPC   C1B71743  17.212   1.960   6.157
 5668POPC   C2B71744  17.157   1.812   6.563
 5668POPC   C3B71745  17.187   1.979   6.950
 5668POPC   C4B71746  17.206   1.876   7.343
 5669POPC   NC371747   9.996   2.575   5.446
 5669POPC   PO471748  10.458   3.068   5.458
 5669POPC   GL171749  10.565   2.854   5.837
 5669POPC   GL271750  10.228   2.742   5.878
 5669POPC   C1A71751  10.775   2.830   6.247
 5669POPC   D2A71752  10.663   2.893   6.693
 5669POPC   C3A71753  10.721   2.681   7.100
 5669POPC   C4A71754  10.487   2.938   7.414
 5669POPC   C1B71755  10.325   2.563   6.269
 5669POPC   C2B71756  10.159   2.652   6.691
 5669POPC   C3B71757  10.218   2.594   7.143
 5669POPC   C4B71758  10.316   2.473   7.582
 5670POPC   NC371759   2.227  15.259   5.406
 5670POPC   PO471760   1.622  14.969   5.315
 5670POPC   GL171761   1.746  14.945   5.750
 5670POPC   GL271762   2.104  14.880   5.771
 5670POPC   C1A71763   1.761  15.048   6.194
 5670POPC   D2A71764   1.759  15.316   6.545
 5670POPC   C3A71765   1.962  15.203   6.914
 5670POPC   C4A71766   1.849  15.272   7.307
 5670POPC   C1B71767   2.256  15.150   6.111
 5670POPC   C2B71768   2.270  15.387   6.505
 5670POPC   C3B71769   2.445  15.279   6.864
 5670POPC   C4B71770   2.321  15.488   7.234
 5671POPC   NC371771  28.157   5.272   5.421
 5671POPC   PO471772  28.561   4.694   5.472
 5671POPC   GL171773  28.385   4.968   5.811
 5671POPC   GL271774  28.489   5.300   5.829
 5671POPC   C1A71775  28.452   4.883   6.261
 5671POPC   D2A71776  28.218   4.851   6.647
 5671POPC   C3A71777  28.294   4.847   7.083
 5671POPC   C4A71778  28.511   5.023   7.390
 5671POPC   C1B71779  28.188   5.308   6.156
 5671POPC   C2B71780  28.098   5.343   6.577
 5671POPC   C3B71781  28.304   5.336   6.972
 5671POPC   C4B71782  28.125   5.345   7.383
 5672POPC   NC371783  24.376  32.060   5.519
 5672POPC   PO471784  24.824  32.588   5.423
 5672POPC   GL171785  24.693  32.323   5.843
 5672POPC   GL271786  24.289  32.322   5.929
 5672POPC   C1A71787  24.611  32.194   6.300
 5672POPC   D2A71788  24.744  32.246   6.723
 5672POPC   C3A71789  24.408  32.186   7.046
 5672POPC   C4A71790  24.418  32.348   7.455
 5672POPC   C1B71791  24.139  32.005   6.231
 5672POPC   C2B71792  24.135  31.793   6.641
 5672POPC   C3B71793  23.924  31.988   6.976
 5672POPC   C4B71794  24.013  32.066   7.411
 5673POPC   NC371795  32.201  10.192   5.472
 5673POPC   PO471796  32.488  10.741   5.269
 5673POPC   GL171797  32.356  10.656   5.722
 5673POPC   GL271798  32.051  10.479   5.874
 5673POPC   C1A71799  32.349  10.776   6.166
 5673POPC   D2A71800  32.521  10.663   6.560
 5673POPC   C3A71801  32.292  10.814   6.907
 5673POPC   C4A71802  32.185  10.577   7.208
 5673POPC   C1B71803  32.120  10.226   6.254
 5673POPC   C2B71804  32.164  10.197   6.721
 5673POPC   C3B71805  32.147  10.085   7.147
 5673POPC   C4B71806  32.481  10.130   7.435
 5674POPC   NC371807  29.683  21.582   5.257
 5674POPC   PO471808  30.044  21.113   5.507
 5674POPC   GL171809  29.818  21.339   5.787
 5674POPC   GL271810  29.818  21.696   5.790
 5674POPC   C1A71811  29.799  21.214   6.207
 5674POPC   D2A71812  30.148  21.239   6.502
 5674POPC   C3A71813  30.078  21.225   6.949
 5674POPC   C4A71814  30.074  21.174   7.409
 5674POPC   C1B71815  29.870  21.711   6.268
 5674POPC   C2B71816  29.694  21.468   6.658
 5674POPC   C3B71817  29.745  21.561   7.140
 5674POPC   C4B71818  29.718  21.692   7.579
 5675POPC   NC371819  19.110  38.243   5.184
 5675POPC   PO471820  19.163  37.599   5.356
 5675POPC   GL171821  19.132  37.787   5.743
 5675POPC   GL271822  18.784  37.672   5.807
 5675POPC   C1A71823  19.320  37.762   6.162
 5675POPC   D2A71824  19.221  37.519   6.546
 5675POPC   C3A71825  19.055  37.681   6.926
 5675POPC   C4A71826  18.732  37.604   7.239
 5675POPC   C1B71827  18.820  37.675   6.266
 5675POPC   C2B71828  18.683  37.899   6.671
 5675POPC   C3B71829  18.778  38.111   7.090
 5675POPC   C4B71830  18.715  38.030   7.540
 5676POPC   NC371831   9.167   4.023   5.669
 5676POPC   PO471832   8.807   3.431   5.453
 5676POPC   GL171833   8.851   3.638   5.815
 5676POPC   GL271834   9.198   3.567   5.885
 5676POPC   C1A71835   8.845   3.550   6.262
 5676POPC   D2A71836   8.718   3.277   6.584
 5676POPC   C3A71837   8.872   3.370   6.992
 5676POPC   C4A71838   8.919   3.695   7.326
 5676POPC   C1B71839   9.297   3.237   6.177
 5676POPC   C2B71840   9.175   3.041   6.564
 5676POPC   C3B71841   9.314   3.088   6.963
 5676POPC   C4B71842   9.234   3.289   7.351
 5677POPC   NC371843  23.829  41.488   5.437
 5677POPC   PO471844  23.707  40.898   5.638
 5677POPC   GL171845  23.572  41.352   5.895
 5677POPC   GL271846  23.550  41.726   5.829
 5677POPC   C1A71847  23.689  41.606   6.320
 5677POPC   D2A71848  23.868  41.525   6.759
 5677POPC   C3A71849  23.689  41.685   7.158
 5677POPC   C4A71850  23.691  41.545   7.619
 5677POPC   C1B71851  23.235  41.785   6.161
 5677POPC   C2B71852  23.217  41.806   6.618
 5677POPC   C3B71853  23.294  41.974   7.034
 5677POPC   C4B71854  23.445  41.971   7.504
 5678POPC   NC371855  11.128  27.745   5.569
 5678POPC   PO471856  11.604  27.415   5.463
 5678POPC   GL171857  11.405  27.372   5.851
 5678POPC   GL271858  11.099  27.200   5.901
 5678POPC   C1A71859  11.522  27.269   6.262
 5678POPC   D2A71860  11.596  27.328   6.706
 5678POPC   C3A71861  11.626  27.625   7.027
 5678POPC   C4A71862  11.442  27.543   7.458
 5678POPC   C1B71863  11.068  27.543   6.221
 5678POPC   C2B71864  11.167  27.622   6.650
 5678POPC   C3B71865  11.143  27.453   7.038
 5678POPC   C4B71866  10.847  27.612   7.338
 5679POPC   NC371867  44.941  26.022   5.374
 5679POPC   PO471868  44.323  26.139   5.395
 5679POPC   GL171869  44.620  26.070   5.766
 5679POPC   GL271870  44.829  25.740   5.794
 5679POPC   C1A71871  44.624  26.204   6.194
 5679POPC   D2A71872  44.867  26.265   6.568
 5679POPC   C3A71873  44.709  26.070   6.939
 5679POPC   C4A71874  44.632  26.228   7.353
 5679POPC   C1B71875  44.457  25.695   6.054
 5679POPC   C2B71876  44.331  25.809   6.440
 5679POPC   C3B71877  44.402  25.587   6.823
 5679POPC   C4B71878  44.408  25.735   7.215
 5680POPC   NC371879  13.125  20.493   5.382
 5680POPC   PO471880  12.587  20.926   5.226
 5680POPC   GL171881  12.853  20.823   5.656
 5680POPC   GL271882  13.190  20.878   5.751
 5680POPC   C1A71883  12.788  20.757   6.134
 5680POPC   D2A71884  12.694  20.809   6.615
 5680POPC   C3A71885  12.687  20.430   6.915
 5680POPC   C4A71886  12.580  20.461   7.382
 5680POPC   C1B71887  13.301  20.786   6.220
 5680POPC   C2B71888  13.137  20.539   6.604
 5680POPC   C3B71889  13.137  20.640   7.063
 5680POPC   C4B71890  13.146  20.438   7.435
 5681POPC   NC371891  31.273  27.660   5.612
 5681POPC   PO471892  31.918  27.359   5.551
 5681POPC   GL171893  31.699  27.511   5.889
 5681POPC   GL271894  31.456  27.240   5.870
 5681POPC   C1A71895  31.504  27.530   6.295
 5681POPC   D2A71896  31.710  27.398   6.674
 5681POPC   C3A71897  31.668  27.591   7.079
 5681POPC   C4A71898  31.263  27.742   7.224
 5681POPC   C1B71899  31.169  27.154   6.230
 5681POPC   C2B71900  31.158  27.336   6.664
 5681POPC   C3B71901  31.293  27.239   7.100
 5681POPC   C4B71902  31.349  27.367   7.558
 5682POPC   NC371903   9.898  20.956   5.186
 5682POPC   PO471904   9.629  21.527   5.635
 5682POPC   GL171905   9.688  21.411   6.017
 5682POPC   GL271906   9.449  21.161   5.952
 5682POPC   C1A71907   9.803  21.604   6.396
 5682POPC   D2A71908   9.836  21.921   6.726
 5682POPC   C3A71909   9.937  21.757   7.139
 5682POPC   C4A71910   9.739  21.703   7.543
 5682POPC   C1B71911   9.375  20.910   6.280
 5682POPC   C2B71912   9.565  21.104   6.601
 5682POPC   C3B71913   9.894  21.341   6.831
 5682POPC   C4B71914  10.007  21.229   7.243
 5683POPC   NC371915   4.971  24.554   5.157
 5683POPC   PO471916   5.545  24.378   5.437
 5683POPC   GL171917   5.292  24.373   5.814
 5683POPC   GL271918   4.920  24.476   5.735
 5683POPC   C1A71919   5.226  24.288   6.257
 5683POPC   D2A71920   5.203  24.146   6.677
 5683POPC   C3A71921   5.304  24.317   7.087
 5683POPC   C4A71922   5.155  24.658   7.384
 5683POPC   C1B71923   4.736  24.434   6.176
 5683POPC   C2B71924   4.903  24.568   6.598
 5683POPC   C3B71925   4.759  24.671   7.020
 5683POPC   C4B71926   4.639  24.506   7.410
 5684POPC   NC371927  23.611  10.481   5.404
 5684POPC   PO471928  24.331  10.525   5.337
 5684POPC   GL171929  24.006  10.510   5.757
 5684POPC   GL271930  24.095  10.242   6.006
 5684POPC   C1A71931  23.614  10.420   6.054
 5684POPC   D2A71932  23.665  10.296   6.484
 5684POPC   C3A71933  23.719  10.596   6.819
 5684POPC   C4A71934  23.632  10.495   7.231
 5684POPC   C1B71935  24.038  10.621   6.248
 5684POPC   C2B71936  24.084  10.893   6.569
 5684POPC   C3B71937  24.208  10.799   6.951
 5684POPC   C4B71938  24.049  10.833   7.377
 5685POPC   NC371939   6.224   8.611   5.481
 5685POPC   PO471940   6.537   9.158   5.219
 5685POPC   GL171941   6.564   9.131   5.725
 5685POPC   GL271942   6.851   8.954   5.899
 5685POPC   C1A71943   6.711   9.362   6.145
 5685POPC   D2A71944   6.806   9.180   6.570
 5685POPC   C3A71945   6.499   9.201   6.913
 5685POPC   C4A71946   6.815   9.355   7.161
 5685POPC   C1B71947   6.556   8.884   6.252
 5685POPC   C2B71948   6.562   8.710   6.682
 5685POPC   C3B71949   6.670   8.760   7.126
 5685POPC   C4B71950   6.598   8.672   7.601
 5686POPC   NC371951  22.120   5.824   5.423
 5686POPC   PO471952  22.305   6.423   5.502
 5686POPC   GL171953  22.210   6.112   5.849
 5686POPC   GL271954  22.317   5.763   5.880
 5686POPC   C1A71955  22.163   6.023   6.283
 5686POPC   D2A71956  22.403   5.847   6.596
 5686POPC   C3A71957  22.180   5.938   6.966
 5686POPC   C4A71958  22.071   5.784   7.365
 5686POPC   C1B71959  22.024   5.534   6.180
 5686POPC   C2B71960  21.978   5.597   6.613
 5686POPC   C3B71961  21.919   5.446   7.004
 5686POPC   C4B71962  21.907   5.201   7.367
 5687POPC   NC371963  42.885  27.176   5.423
 5687POPC   PO471964  43.165  26.515   5.527
 5687POPC   GL171965  42.990  26.795   5.866
 5687POPC   GL271966  42.970  27.188   5.926
 5687POPC   C1A71967  43.131  26.843   6.295
 5687POPC   D2A71968  43.055  26.680   6.693
 5687POPC   C3A71969  43.345  26.732   7.028
 5687POPC   C4A71970  43.004  26.765   7.307
 5687POPC   C1B71971  43.262  27.330   6.277
 5687POPC   C2B71972  43.346  27.130   6.676
 5687POPC   C3B71973  43.016  27.148   6.940
 5687POPC   C4B71974  42.827  27.228   7.301
 5688POPC   NC371975   7.951  13.208   5.225
 5688POPC   PO471976   8.408  12.767   5.377
 5688POPC   GL171977   8.000  12.775   5.653
 5688POPC   GL271978   7.883  12.463   5.846
 5688POPC   C1A71979   7.887  12.950   6.083
 5688POPC   D2A71980   8.114  13.128   6.470
 5688POPC   C3A71981   7.988  13.075   6.930
 5688POPC   C4A71982   8.097  12.657   7.125
 5688POPC   C1B71983   8.259  12.549   6.086
 5688POPC   C2B71984   8.386  12.398   6.523
 5688POPC   C3B71985   8.514  12.379   6.951
 5688POPC   C4B71986   8.462  12.373   7.410
 5689POPC   NC371987  23.297   1.818   5.591
 5689POPC   PO471988  22.796   2.078   5.418
 5689POPC   GL171989  22.869   1.936   5.859
 5689POPC   GL271990  23.202   2.024   6.040
 5689POPC   C1A71991  22.769   1.663   6.183
 5689POPC   D2A71992  22.766   1.537   6.602
 5689POPC   C3A71993  22.623   1.923   6.796
 5689POPC   C4A71994  22.629   1.930   7.230
 5689POPC   C1B71995  23.534   2.292   6.268
 5689POPC   C2B71996  23.340   2.492   6.597
 5689POPC   C3B71997  23.011   2.278   6.814
 5689POPC   C4B71998  23.115   2.037   7.197
 5690POPC   NC371999  37.082  36.361   5.468
 5690POPC   PO472000  36.835  35.780   5.409
 5690POPC   GL172001  36.788  36.075   5.784
 5690POPC   GL272002  36.659  36.430   5.772
 5690POPC   C1A72003  36.665  36.053   6.214
 5690POPC   D2A72004  36.742  35.809   6.587
 5690POPC   C3A72005  36.590  36.016   6.938
 5690POPC   C4A72006  36.771  36.266   7.228
 5690POPC   C1B72007  37.029  36.466   6.113
 5690POPC   C2B72008  37.121  36.586   6.558
 5690POPC   C3B72009  37.179  36.470   6.999
 5690POPC   C4B72010  37.104  36.548   7.480
 5691POPC   NC372011  41.159   0.498   5.484
 5691POPC   PO472012  40.562   0.246   5.264
 5691POPC   GL172013  40.668   0.452   5.670
 5691POPC   GL272014  40.901   0.213   5.810
 5691POPC   C1A72015  40.453   0.510   6.081
 5691POPC   D2A72016  40.531   0.335   6.487
 5691POPC   C3A72017  40.485   0.290   6.924
 5691POPC   C4A72018  40.598   0.690   7.097
 5691POPC   C1B72019  40.967   0.413   6.193
 5691POPC   C2B72020  41.036   0.238   6.599
 5691POPC   C3B72021  40.996   0.331   7.029
 5691POPC   C4B72022  41.129   0.083   7.374
 5692POPC   NC372023  28.067  11.430   5.364
 5692POPC   PO472024  28.614  11.827   5.377
 5692POPC   GL172025  28.512  11.582   5.764
 5692POPC   GL272026  28.402  11.215   5.778
 5692POPC   C1A72027  28.282  11.518   6.176
 5692POPC   D2A72028  28.371  11.262   6.558
 5692POPC   C3A72029  28.327  11.485   6.956
 5692POPC   C4A72030  28.605  11.453   7.357
 5692POPC   C1B72031  28.168  10.996   6.148
 5692POPC   C2B72032  28.250  10.770   6.559
 5692POPC   C3B72033  28.326  10.946   6.968
 5692POPC   C4B72034  28.171  11.195   7.328
 5693POPC   NC372035  18.705  39.050   5.405
 5693POPC   PO472036  18.197  39.444   5.509
 5693POPC   GL172037  18.262  39.230   5.852
 5693POPC   GL272038  18.548  39.036   5.887
 5693POPC   C1A72039  18.145  39.324   6.253
 5693POPC   D2A72040  17.970  39.288   6.644
 5693POPC   C3A72041  18.240  39.124   6.993
 5693POPC   C4A72042  18.014  39.454   7.139
 5693POPC   C1B72043  18.650  39.283   6.230
 5693POPC   C2B72044  18.486  39.388   6.633
 5693POPC   C3B72045  18.537  39.583   7.018
 5693POPC   C4B72046  18.891  39.525   7.283
 5694POPC   NC372047  44.110  38.729   5.218
 5694POPC   PO472048  43.955  39.266   5.579
 5694POPC   GL172049  44.006  39.287   5.972
 5694POPC   GL272050  43.678  39.261   6.025
 5694POPC   C1A72051  44.047  39.200   6.401
 5694POPC   D2A72052  43.882  38.898   6.705
 5694POPC   C3A72053  43.848  39.076   7.097
 5694POPC   C4A72054  43.987  39.038   7.489
 5694POPC   C1B72055  43.489  39.008   6.331
 5694POPC   C2B72056  43.421  39.153   6.752
 5694POPC   C3B72057  43.347  39.036   7.169
 5694POPC   C4B72058  43.565  39.321   7.516
 5695POPC   NC372059  37.507  23.369   5.518
 5695POPC   PO472060  37.281  24.054   5.569
 5695POPC   GL172061  37.504  23.747   5.868
 5695POPC   GL272062  37.847  23.693   5.819
 5695POPC   C1A72063  37.498  23.684   6.320
 5695POPC   D2A72064  37.360  24.007   6.619
 5695POPC   C3A72065  37.165  23.826   6.938
 5695POPC   C4A72066  37.231  23.395   7.037
 5695POPC   C1B72067  37.965  23.520   6.191
 5695POPC   C2B72068  37.889  23.409   6.590
 5695POPC   C3B72069  37.670  23.623   6.886
 5695POPC   C4B72070  37.656  23.544   7.303
 5696POPC   NC372071  40.278  12.191   5.387
 5696POPC   PO472072  39.899  11.676   5.361
 5696POPC   GL172073  39.898  11.772   5.811
 5696POPC   GL272074  40.208  11.910   5.802
 5696POPC   C1A72075  39.790  11.648   6.265
 5696POPC   D2A72076  39.644  11.604   6.724
 5696POPC   C3A72077  39.867  11.834   7.069
 5696POPC   C4A72078  39.790  12.184   7.386
 5696POPC   C1B72079  40.033  12.116   6.162
 5696POPC   C2B72080  40.046  12.031   6.596
 5696POPC   C3B72081  40.078  12.277   6.956
 5696POPC   C4B72082  40.295  12.219   7.335
 5697POPC   NC372083  20.758  17.888   5.159
 5697POPC   PO472084  20.420  17.411   5.252
 5697POPC   GL172085  20.548  17.342   5.711
 5697POPC   GL272086  20.277  17.176   5.848
 5697POPC   C1A72087  20.775  17.399   6.129
 5697POPC   D2A72088  20.707  17.685   6.488
 5697POPC   C3A72089  20.744  17.555   6.930
 5697POPC   C4A72090  20.993  17.773   7.214
 5697POPC   C1B72091  20.284  17.479   6.207
 5697POPC   C2B72092  20.325  17.395   6.659
 5697POPC   C3B72093  20.257  17.590   7.068
 5697POPC   C4B72094  20.368  17.410   7.448
 5698POPC   NC372095  25.505   6.777   5.543
 5698POPC   PO472096  24.850   6.660   5.442
 5698POPC   GL172097  25.064   6.552   5.809
 5698POPC   GL272098  25.086   6.908   5.833
 5698POPC   C1A72099  25.306   6.644   6.220
 5698POPC   D2A72100  25.665   6.457   6.445
 5698POPC   C3A72101  25.573   6.477   6.874
 5698POPC   C4A72102  25.399   6.556   7.261
 5698POPC   C1B72103  24.837   6.846   6.172
 5698POPC   C2B72104  24.990   6.962   6.540
 5698POPC   C3B72105  25.173   6.794   6.864
 5698POPC   C4B72106  24.960   6.811   7.238
 5699POPC   NC372107   4.195   8.017   4.992
 5699POPC   PO472108   4.148   8.504   5.481
 5699POPC   GL172109   4.330   8.275   5.831
 5699POPC   GL272110   4.426   7.944   5.674
 5699POPC   C1A72111   4.171   8.033   6.216
 5699POPC   D2A72112   4.081   7.775   6.591
 5699POPC   C3A72113   4.229   7.976   6.995
 5699POPC   C4A72114   4.378   8.348   7.222
 5699POPC   C1B72115   4.656   7.930   6.072
 5699POPC   C2B72116   4.611   8.073   6.509
 5699POPC   C3B72117   4.833   7.878   6.855
 5699POPC   C4B72118   4.744   7.754   7.277
 5700POPC   NC372119  29.607  35.667   5.495
 5700POPC   PO472120  30.147  35.332   5.513
 5700POPC   GL172121  29.875  35.344   5.835
 5700POPC   GL272122  29.547  35.219   5.735
 5700POPC   C1A72123  29.950  35.487   6.249
 5700POPC   D2A72124  29.859  35.363   6.651
 5700POPC   C3A72125  30.072  35.532   6.966
 5700POPC   C4A72126  30.105  35.334   7.294
 5700POPC   C1B72127  29.552  35.160   6.188
 5700POPC   C2B72128  29.608  34.933   6.581
 5700POPC   C3B72129  29.479  35.094   6.975
 5700POPC   C4B72130  29.602  35.368   7.290
 5701POPC   NC372131  30.762  13.889   5.563
 5701POPC   PO472132  30.428  14.573   5.425
 5701POPC   GL172133  30.741  14.385   5.708
 5701POPC   GL272134  30.517  14.194   5.879
 5701POPC   C1A72135  30.993  14.349   6.080
 5701POPC   D2A72136  30.990  14.569   6.470
 5701POPC   C3A72137  31.099  14.442   6.875
 5701POPC   C4A72138  30.913  14.495   7.249
 5701POPC   C1B72139  30.521  14.175   6.292
 5701POPC   C2B72140  30.508  14.442   6.615
 5701POPC   C3B72141  30.459  14.350   7.023
 5701POPC   C4B72142  30.502  14.243   7.464
 5702POPC   NC372143   7.275  44.962   5.436
 5702POPC   PO472144   7.609  44.418   5.163
 5702POPC   GL172145   7.453  44.492   5.674
 5702POPC   GL272146   7.558  44.842   5.837
 5702POPC   C1A72147   7.553  44.492   6.195
 5702POPC   D2A72148   7.570  44.810   6.584
 5702POPC   C3A72149   7.621  44.672   7.063
 5702POPC   C4A72150   7.678  44.249   7.311
 5702POPC   C1B72151   7.195  44.867   6.158
 5702POPC   C2B72152   7.144   0.138   6.536
 5702POPC   C3B72153   7.357   0.113   6.951
 5702POPC   C4B72154   7.178  44.919   7.307
 5703POPC   NC372155  40.284  28.716   5.317
 5703POPC   PO472156  39.826  28.222   5.395
 5703POPC   GL172157  39.763  28.495   5.823
 5703POPC   GL272158  40.031  28.763   5.864
 5703POPC   C1A72159  39.749  28.686   6.296
 5703POPC   D2A72160  39.691  28.652   6.782
 5703POPC   C3A72161  39.718  28.204   6.997
 5703POPC   C4A72162  40.107  28.015   7.110
 5703POPC   C1B72163  40.369  28.750   6.193
 5703POPC   C2B72164  40.540  28.730   6.644
 5703POPC   C3B72165  40.437  28.503   7.026
 5703POPC   C4B72166  40.025  28.530   7.237
 5704POPC   NC372167  31.416  25.704   5.222
 5704POPC   PO472168  31.431  25.034   5.312
 5704POPC   GL172169  31.486  25.024   5.816
 5704POPC   GL272170  31.225  25.136   6.041
 5704POPC   C1A72171  31.678  25.365   6.159
 5704POPC   D2A72172  31.576  25.713   6.439
 5704POPC   C3A72173  31.664  25.609   6.857
 5704POPC   C4A72174  31.420  25.452   7.196
 5704POPC   C1B72175  31.561  24.899   6.287
 5704POPC   C2B72176  31.823  25.123   6.594
 5704POPC   C3B72177  31.540  25.069   6.894
 5704POPC   C4B72178  31.532  24.913   7.292
 5705POPC   NC372179  43.658  14.778   5.178
 5705POPC   PO472180  43.981  15.275   5.480
 5705POPC   GL172181  43.867  15.066   5.815
 5705POPC   GL272182  44.186  14.917   5.820
 5705POPC   C1A72183  43.679  15.242   6.195
 5705POPC   D2A72184  43.847  15.341   6.615
 5705POPC   C3A72185  43.595  15.098   6.875
 5705POPC   C4A72186  43.518  14.831   7.218
 5705POPC   C1B72187  44.164  15.113   6.250
 5705POPC   C2B72188  44.177  14.950   6.670
 5705POPC   C3B72189  44.083  15.141   7.063
 5705POPC   C4B72190  44.099  15.391   7.440
 5706POPC   NC372191  18.222  13.199   5.423
 5706POPC   PO472192  18.157  12.468   5.517
 5706POPC   GL172193  18.389  12.738   5.795
 5706POPC   GL272194  18.162  13.035   5.889
 5706POPC   C1A72195  18.421  12.794   6.245
 5706POPC   D2A72196  18.105  12.838   6.587
 5706POPC   C3A72197  18.229  12.725   7.008
 5706POPC   C4A72198  18.485  12.563   7.357
 5706POPC   C1B72199  18.164  13.256   6.257
 5706POPC   C2B72200  18.202  13.351   6.676
 5706POPC   C3B72201  18.059  13.202   7.080
 5706POPC   C4B72202  18.123  12.941   7.474
 5707POPC   NC372203  28.791  26.021   5.600
 5707POPC   PO472204  29.464  25.670   5.560
 5707POPC   GL172205  29.220  25.878   5.868
 5707POPC   GL272206  29.013  25.606   5.870
 5707POPC   C1A72207  29.037  26.104   6.234
 5707POPC   D2A72208  29.037  26.309   6.661
 5707POPC   C3A72209  29.152  26.066   7.011
 5707POPC   C4A72210  29.537  26.032   7.252
 5707POPC   C1B72211  28.829  25.603   6.261
 5707POPC   C2B72212  28.913  25.795   6.624
 5707POPC   C3B72213  28.716  25.795   6.985
 5707POPC   C4B72214  28.865  25.640   7.359
 5708POPC   NC372215  12.879   8.609   5.424
 5708POPC   PO472216  13.125   7.994   5.594
 5708POPC   GL172217  12.894   8.297   5.843
 5708POPC   GL272218  13.127   8.473   6.045
 5708POPC   C1A72219  12.620   8.367   6.221
 5708POPC   D2A72220  12.659   8.430   6.687
 5708POPC   C3A72221  12.436   8.151   7.030
 5708POPC   C4A72222  12.519   8.102   7.509
 5708POPC   C1B72223  13.053   8.066   6.297
 5708POPC   C2B72224  12.952   7.960   6.736
 5708POPC   C3B72225  12.937   8.259   7.082
 5708POPC   C4B72226  13.275   8.482   7.289
 5709POPC   NC372227  17.227  43.829   5.072
 5709POPC   PO472228  16.678  44.062   5.399
 5709POPC   GL172229  16.645  43.979   5.846
 5709POPC   GL272230  16.593  43.643   5.930
 5709POPC   C1A72231  16.568  44.024   6.311
 5709POPC   D2A72232  16.490  44.272   6.697
 5709POPC   C3A72233  16.705  44.074   7.023
 5709POPC   C4A72234  16.556  43.748   7.230
 5709POPC   C1B72235  16.827  43.559   6.296
 5709POPC   C2B72236  16.738  43.668   6.713
 5709POPC   C3B72237  17.036  43.685   7.061
 5709POPC   C4B72238  16.923  43.464   7.449
 5710POPC   NC372239  36.544   1.987   5.119
 5710POPC   PO472240  36.730   2.092   5.720
 5710POPC   GL172241  37.006   1.875   5.921
 5710POPC   GL272242  37.210   2.168   5.963
 5710POPC   C1A72243  36.910   1.874   6.334
 5710POPC   D2A72244  36.674   2.088   6.625
 5710POPC   C3A72245  36.842   1.940   6.997
 5710POPC   C4A72246  36.679   1.684   7.308
 5710POPC   C1B72247  37.011   2.375   6.337
 5710POPC   C2B72248  37.087   2.373   6.812
 5710POPC   C3B72249  37.107   2.287   7.270
 5710POPC   C4B72250  37.166   1.966   7.595
 5711POPC   NC372251   9.934  39.439   5.328
 5711POPC   PO472252   9.267  39.604   5.471
 5711POPC   GL172253   9.606  39.381   5.765
 5711POPC   GL272254   9.999  39.400   5.821
 5711POPC   C1A72255   9.733  39.237   6.202
 5711POPC   D2A72256   9.899  39.440   6.556
 5711POPC   C3A72257   9.779  39.189   6.904
 5711POPC   C4A72258   9.868  38.969   7.264
 5711POPC   C1B72259  10.273  39.608   6.124
 5711POPC   C2B72260  10.274  39.838   6.505
 5711POPC   C3B72261  10.212  39.695   6.902
 5711POPC   C4B72262  10.009  39.506   7.215
 5712POPC   NC372263   3.498  11.020   5.393
 5712POPC   PO472264   3.919  11.486   5.575
 5712POPC   GL172265   3.531  11.356   5.840
 5712POPC   GL272266   3.234  11.112   5.834
 5712POPC   C1A72267   3.280  11.450   6.239
 5712POPC   D2A72268   3.324  11.382   6.697
 5712POPC   C3A72269   3.732  11.463   6.877
 5712POPC   C4A72270   3.779  11.501   7.295
 5712POPC   C1B72271   3.434  10.959   6.228
 5712POPC   C2B72272   3.323  10.851   6.636
 5712POPC   C3B72273   3.091  10.926   7.006
 5712POPC   C4B72274   3.391  10.901   7.330
 5713POPC   NC372275  11.493   9.366   5.381
 5713POPC   PO472276  11.016   9.782   5.578
 5713POPC   GL172277  11.275   9.956   5.841
 5713POPC   GL272278  11.528   9.708   5.809
 5713POPC   C1A72279  11.227   9.825   6.257
 5713POPC   D2A72280  11.072   9.812   6.668
 5713POPC   C3A72281  11.075   9.396   6.803
 5713POPC   C4A72282  11.307   9.480   7.152
 5713POPC   C1B72283  11.668   9.598   6.241
 5713POPC   C2B72284  11.596   9.536   6.719
 5713POPC   C3B72285  11.736   9.794   7.104
 5713POPC   C4B72286  11.831   9.714   7.579
 5714POPC   NC372287  25.756  11.201   5.446
 5714POPC   PO472288  25.784  11.815   5.636
 5714POPC   GL172289  25.891  11.472   5.910
 5714POPC   GL272290  26.227  11.379   5.834
 5714POPC   C1A72291  25.996  11.434   6.360
 5714POPC   D2A72292  25.953  11.648   6.757
 5714POPC   C3A72293  25.999  11.429   7.165
 5714POPC   C4A72294  25.907  11.125   7.477
 5714POPC   C1B72295  26.427  11.200   6.212
 5714POPC   C2B72296  26.370  11.027   6.630
 5714POPC   C3B72297  26.446  11.185   7.064
 5714POPC   C4B72298  26.385  11.338   7.481
 5715POPC   NC372299  44.880  39.311   5.482
 5715POPC   PO472300   0.462  39.517   5.259
 5715POPC   GL172301   0.397  39.324   5.693
 5715POPC   GL272302   0.521  39.606   5.865
 5715POPC   C1A72303   0.453  39.154   6.149
 5715POPC   D2A72304   0.571  39.265   6.609
 5715POPC   C3A72305   0.634  39.035   7.001
 5715POPC   C4A72306   0.284  38.837   7.156
 5715POPC   C1B72307   0.833  39.523   6.223
 5715POPC   C2B72308   0.743  39.741   6.630
 5715POPC   C3B72309   0.407  39.676   6.914
 5715POPC   C4B72310   0.281  39.347   7.141
 5716POPC   NC372311   1.353  16.359   5.205
 5716POPC   PO472312   1.222  15.795   5.510
 5716POPC   GL172313   1.337  16.093   5.791
 5716POPC   GL272314   1.669  15.932   5.811
 5716POPC   C1A72315   1.105  16.085   6.195
 5716POPC   D2A72316   0.944  15.793   6.518
 5716POPC   C3A72317   0.963  15.946   6.950
 5716POPC   C4A72318   0.892  16.173   7.331
 5716POPC   C1B72319   1.692  16.226   6.145
 5716POPC   C2B72320   1.474  16.245   6.503
 5716POPC   C3B72321   1.467  15.994   6.842
 5716POPC   C4B72322   1.379  16.041   7.276
 5717POPC   NC372323   7.342  37.499   5.384
 5717POPC   PO472324   7.507  36.733   5.433
 5717POPC   GL172325   7.515  36.926   5.821
 5717POPC   GL272326   7.194  37.029   5.770
 5717POPC   C1A72327   7.466  36.783   6.250
 5717POPC   D2A72328   7.691  36.703   6.646
 5717POPC   C3A72329   7.480  36.878   7.005
 5717POPC   C4A72330   7.472  37.174   7.344
 5717POPC   C1B72331   7.118  37.174   6.202
 5717POPC   C2B72332   7.297  37.232   6.635
 5717POPC   C3B72333   7.078  37.226   7.029
 5717POPC   C4B72334   6.898  36.856   7.193
 5718POPC   NC372335  10.685  28.783   5.528
 5718POPC   PO472336  10.867  28.120   5.551
 5718POPC   GL172337  10.519  28.285   5.799
 5718POPC   GL272338  10.169  28.260   5.640
 5718POPC   C1A72339  10.582  28.199   6.245
 5718POPC   D2A72340  10.733  27.925   6.599
 5718POPC   C3A72341  10.751  28.176   6.989
 5718POPC   C4A72342  10.467  28.477   7.198
 5718POPC   C1B72343  10.126  28.062   6.051
 5718POPC   C2B72344  10.165  28.065   6.504
 5718POPC   C3B72345  10.152  28.114   6.950
 5718POPC   C4B72346  10.011  28.299   7.341
 5719POPC   NC372347  44.622   2.486   5.466
 5719POPC   PO472348  44.321   1.845   5.511
 5719POPC   GL172349  44.605   1.826   5.877
 5719POPC   GL272350  44.542   2.195   5.870
 5719POPC   C1A72351  44.784   1.694   6.309
 5719POPC   D2A72352  44.835   1.692   6.757
 5719POPC   C3A72353  44.585   1.919   7.031
 5719POPC   C4A72354  44.522   1.845   7.473
 5719POPC   C1B72355  44.743   2.194   6.243
 5719POPC   C2B72356  44.577   2.365   6.610
 5719POPC   C3B72357  44.715   2.427   6.987
 5719POPC   C4B72358  44.632   2.316   7.375
 5720POPC   NC372359   5.799   0.620   5.309
 5720POPC   PO472360   6.166   0.069   5.252
 5720POPC   GL172361   6.099   0.344   5.660
 5720POPC   GL272362   5.730   0.383   5.793
 5720POPC   C1A72363   6.138   0.342   6.137
 5720POPC   D2A72364   5.900   0.505   6.526
 5720POPC   C3A72365   6.053   0.429   6.933
 5720POPC   C4A72366   5.850   0.317   7.321
 5720POPC   C1B72367   5.545   0.623   6.171
 5720POPC   C2B72368   5.405   0.711   6.604
 5720POPC   C3B72369   5.606   0.720   7.024
 5720POPC   C4B72370   5.583   0.725   7.519
 5721POPC   NC372371  26.414  19.112   5.538
 5721POPC   PO472372  27.052  19.476   5.675
 5721POPC   GL172373  26.923  19.091   5.934
 5721POPC   GL272374  27.104  18.756   5.898
 5721POPC   C1A72375  26.668  18.863   6.241
 5721POPC   D2A72376  26.486  19.053   6.611
 5721POPC   C3A72377  26.519  18.971   7.046
 5721POPC   C4A72378  26.778  19.262   7.262
 5721POPC   C1B72379  27.119  18.570   6.308
 5721POPC   C2B72380  26.930  18.634   6.719
 5721POPC   C3B72381  27.041  18.723   7.156
 5721POPC   C4B72382  26.905  18.889   7.569
 5722POPC   NC372383   8.432   2.148   5.366
 5722POPC   PO472384   7.819   2.044   5.598
 5722POPC   GL172385   8.172   2.195   5.818
 5722POPC   GL272386   8.352   1.876   5.788
 5722POPC   C1A72387   8.322   2.171   6.253
 5722POPC   D2A72388   8.232   2.056   6.681
 5722POPC   C3A72389   8.235   2.198   7.114
 5722POPC   C4A72390   8.092   2.112   7.522
 5722POPC   C1B72391   8.544   1.715   6.133
 5722POPC   C2B72392   8.500   1.625   6.547
 5722POPC   C3B72393   8.564   1.796   6.939
 5722POPC   C4B72394   8.404   1.762   7.311
 5723POPC   NC372395  13.279  34.684   5.082
 5723POPC   PO472396  12.732  34.691   5.471
 5723POPC   GL172397  12.782  34.602   5.864
 5723POPC   GL272398  12.687  34.276   5.825
 5723POPC   C1A72399  12.945  34.696   6.257
 5723POPC   D2A72400  13.201  34.523   6.560
 5723POPC   C3A72401  13.034  34.607   6.949
 5723POPC   C4A72402  12.798  34.589   7.318
 5723POPC   C1B72403  12.463  34.343   6.193
 5723POPC   C2B72404  12.638  34.457   6.587
 5723POPC   C3B72405  12.684  34.234   6.965
 5723POPC   C4B72406  12.616  34.104   7.392
 5724POPC   NC372407  37.361  34.017   5.719
 5724POPC   PO472408  37.924  33.927   5.334
 5724POPC   GL172409  37.780  33.731   5.746
 5724POPC   GL272410  37.864  34.075   5.843
 5724POPC   C1A72411  37.590  33.674   6.211
 5724POPC   D2A72412  37.399  33.694   6.649
 5724POPC   C3A72413  37.609  33.495   6.986
 5724POPC   C4A72414  37.767  33.606   7.385
 5724POPC   C1B72415  38.018  33.949   6.228
 5724POPC   C2B72416  37.934  33.720   6.606
 5724POPC   C3B72417  37.933  33.903   6.989
 5724POPC   C4B72418  38.165  33.913   7.376
 5725POPC   NC372419  19.045  35.608   5.347
 5725POPC   PO472420  18.489  35.206   5.337
 5725POPC   GL172421  18.880  35.161   5.629
 5725POPC   GL272422  19.220  35.327   5.733
 5725POPC   C1A72423  18.948  35.089   6.084
 5725POPC   D2A72424  19.184  35.250   6.437
 5725POPC   C3A72425  19.098  35.059   6.830
 5725POPC   C4A72426  19.254  35.220   7.231
 5725POPC   C1B72427  19.238  35.653   6.081
 5725POPC   C2B72428  19.005  35.737   6.462
 5725POPC   C3B72429  19.128  35.571   6.859
 5725POPC   C4B72430  19.403  35.763   7.191
 5726POPC   NC372431  25.283   9.607   5.498
 5726POPC   PO472432  24.846  10.099   5.468
 5726POPC   GL172433  25.114   9.982   5.822
 5726POPC   GL272434  25.477   9.851   5.885
 5726POPC   C1A72435  25.051   9.652   6.125
 5726POPC   D2A72436  24.905   9.690   6.518
 5726POPC   C3A72437  25.210   9.608   6.814
 5726POPC   C4A72438  25.218   9.652   7.217
 5726POPC   C1B72439  25.621  10.061   6.243
 5726POPC   C2B72440  25.458  10.106   6.668
 5726POPC   C3B72441  25.611   9.929   7.044
 5726POPC   C4B72442  25.608   9.773   7.512
 5727POPC   NC372443   2.078  11.036   5.217
 5727POPC   PO472444   2.046  11.651   5.410
 5727POPC   GL172445   2.024  11.311   5.675
 5727POPC   GL272446   1.737  11.392   5.817
 5727POPC   C1A72447   2.224  11.187   6.068
 5727POPC   D2A72448   2.374  11.060   6.471
 5727POPC   C3A72449   2.120  11.095   6.856
 5727POPC   C4A72450   2.198  11.007   7.265
 5727POPC   C1B72451   1.851  11.504   6.192
 5727POPC   C2B72452   1.891  11.478   6.593
 5727POPC   C3B72453   1.770  11.566   6.978
 5727POPC   C4B72454   1.796  11.314   7.300
 5728POPC   NC372455  11.231  13.198   5.405
 5728POPC   PO472456  11.096  12.521   5.449
 5728POPC   GL172457  11.385  12.798   5.727
 5728POPC   GL272458  11.162  12.999   5.869
 5728POPC   C1A72459  11.613  12.939   6.122
 5728POPC   D2A72460  11.596  12.700   6.520
 5728POPC   C3A72461  11.555  12.926   6.906
 5728POPC   C4A72462  11.746  12.912   7.310
 5728POPC   C1B72463  11.103  12.943   6.319
 5728POPC   C2B72464  10.893  13.175   6.651
 5728POPC   C3B72465  10.939  13.003   7.070
 5728POPC   C4B72466  11.247  12.695   7.236
 5729POPC   NC372467  31.858  21.222   5.812
 5729POPC   PO472468  32.220  20.712   5.495
 5729POPC   GL172469  32.239  20.759   5.891
 5729POPC   GL272470  32.365  21.087   5.914
 5729POPC   C1A72471  32.200  20.772   6.323
 5729POPC   D2A72472  32.025  20.517   6.610
 5729POPC   C3A72473  32.243  20.499   6.967
 5729POPC   C4A72474  32.285  20.230   7.274
 5729POPC   C1B72475  32.630  21.051   6.316
 5729POPC   C2B72476  32.498  20.958   6.776
 5729POPC   C3B72477  32.530  21.017   7.264
 5729POPC   C4B72478  32.421  20.980   7.741
 5730POPC   NC372479   9.484  10.414   5.590
 5730POPC   PO472480  10.135  10.443   5.603
 5730POPC   GL172481   9.872  10.521   5.895
 5730POPC   GL272482   9.741  10.850   5.801
 5730POPC   C1A72483   9.685  10.409   6.269
 5730POPC   D2A72484   9.649  10.590   6.652
 5730POPC   C3A72485   9.752  10.359   7.009
 5730POPC   C4A72486   9.638  10.230   7.425
 5730POPC   C1B72487   9.601  10.936   6.221
 5730POPC   C2B72488   9.574  11.099   6.645
 5730POPC   C3B72489   9.618  10.893   7.071
 5730POPC   C4B72490   9.846  10.674   7.385
 5731POPC   NC372491  40.849  31.330   5.178
 5731POPC   PO472492  40.790  30.653   5.276
 5731POPC   GL172493  40.848  30.571   5.719
 5731POPC   GL272494  40.529  30.401   5.822
 5731POPC   C1A72495  40.808  30.764   6.143
 5731POPC   D2A72496  40.962  30.970   6.508
 5731POPC   C3A72497  40.708  30.893   6.880
 5731POPC   C4A72498  40.868  30.833   7.287
 5731POPC   C1B72499  40.618  30.316   6.286
 5731POPC   C2B72500  40.591  30.330   6.765
 5731POPC   C3B72501  40.439  30.496   7.179
 5731POPC   C4B72502  40.405  30.825   7.502
 5732POPC   NC372503   0.840  33.029   5.330
 5732POPC   PO472504   1.455  33.198   5.522
 5732POPC   GL172505   1.160  33.049   5.845
 5732POPC   GL272506   1.005  32.716   5.776
 5732POPC   C1A72507   1.236  33.096   6.298
 5732POPC   D2A72508   1.240  32.795   6.647
 5732POPC   C3A72509   1.312  33.010   7.027
 5732POPC   C4A72510   1.404  33.403   7.247
 5732POPC   C1B72511   0.876  32.763   6.209
 5732POPC   C2B72512   0.802  33.052   6.567
 5732POPC   C3B72513   0.825  32.931   6.986
 5732POPC   C4B72514   0.885  33.218   7.274
 5733POPC   NC372515   0.781  36.962   5.471
 5733POPC   PO472516   1.383  36.580   5.274
 5733POPC   GL172517   1.271  36.708   5.716
 5733POPC   GL272518   0.948  36.513   5.750
 5733POPC   C1A72519   1.433  36.947   6.120
 5733POPC   D2A72520   1.513  37.217   6.527
 5733POPC   C3A72521   1.370  37.124   6.950
 5733POPC   C4A72522   1.523  36.921   7.315
 5733POPC   C1B72523   0.930  36.848   6.093
 5733POPC   C2B72524   1.058  36.932   6.501
 5733POPC   C3B72525   1.053  36.722   6.876
 5733POPC   C4B72526   1.042  36.839   7.311
 5734POPC   NC372527  23.533  13.236   5.018
 5734POPC   PO472528  23.807  13.744   5.416
 5734POPC   GL172529  23.734  13.707   5.855
 5734POPC   GL272530  23.380  13.764   5.834
 5734POPC   C1A72531  23.858  13.557   6.274
 5734POPC   D2A72532  23.876  13.371   6.676
 5734POPC   C3A72533  23.953  13.693   6.975
 5734POPC   C4A72534  23.753  14.032   7.202
 5734POPC   C1B72535  23.396  13.393   6.137
 5734POPC   C2B72536  23.390  13.234   6.564
 5734POPC   C3B72537  23.449  13.393   7.003
 5734POPC   C4B72538  23.406  13.394   7.443
 5735POPC   NC372539  13.627  39.468   5.450
 5735POPC   PO472540  14.088  38.971   5.449
 5735POPC   GL172541  13.816  39.138   5.806
 5735POPC   GL272542  13.455  39.317   5.895
 5735POPC   C1A72543  13.895  39.421   6.151
 5735POPC   D2A72544  13.647  39.394   6.522
 5735POPC   C3A72545  13.812  39.298   6.916
 5735POPC   C4A72546  13.660  39.447   7.305
 5735POPC   C1B72547  13.427  39.044   6.209
 5735POPC   C2B72548  13.247  39.066   6.615
 5735POPC   C3B72549  13.348  39.093   7.044
 5735POPC   C4B72550  13.035  39.024   7.334
 5736POPC   NC372551  37.864   5.330   5.281
 5736POPC   PO472552  37.464   4.814   5.570
 5736POPC   GL172553  37.772   5.076   5.712
 5736POPC   GL272554  37.622   5.340   5.841
 5736POPC   C1A72555  37.937   5.056   6.118
 5736POPC   D2A72556  37.709   5.326   6.410
 5736POPC   C3A72557  37.665   5.263   6.859
 5736POPC   C4A72558  37.796   5.028   7.224
 5736POPC   C1B72559  37.379   5.078   6.140
 5736POPC   C2B72560  37.394   4.914   6.558
 5736POPC   C3B72561  37.497   4.709   6.927
 5736POPC   C4B72562  37.334   4.797   7.324
 5737POPC   NC372563   7.107   5.919   5.256
 5737POPC   PO472564   7.677   5.716   5.420
 5737POPC   GL172565   7.387   5.874   5.739
 5737POPC   GL272566   7.151   5.608   5.807
 5737POPC   C1A72567   7.374   5.985   6.190
 5737POPC   D2A72568   7.651   6.079   6.539
 5737POPC   C3A72569   7.474   6.001   6.941
 5737POPC   C4A72570   7.519   6.088   7.370
 5737POPC   C1B72571   7.287   5.448   6.229
 5737POPC   C2B72572   7.450   5.581   6.609
 5737POPC   C3B72573   7.272   5.449   6.997
 5737POPC   C4B72574   7.228   5.688   7.363
 5738POPC   NC372575  30.503   3.874   5.276
 5738POPC   PO472576  30.961   4.435   5.404
 5738POPC   GL172577  30.758   4.343   5.780
 5738POPC   GL272578  30.643   3.985   5.804
 5738POPC   C1A72579  30.621   4.499   6.189
 5738POPC   D2A72580  30.279   4.618   6.484
 5738POPC   C3A72581  30.398   4.628   6.942
 5738POPC   C4A72582  30.494   4.402   7.343
 5738POPC   C1B72583  30.854   4.030   6.203
 5738POPC   C2B72584  30.771   4.169   6.627
 5738POPC   C3B72585  30.672   4.027   7.071
 5738POPC   C4B72586  30.772   3.973   7.567
 5739POPC   NC372587  11.600  16.876   5.255
 5739POPC   PO472588  11.159  16.515   5.623
 5739POPC   GL172589  11.247  16.658   5.986
 5739POPC   GL272590  11.546  16.824   5.896
 5739POPC   C1A72591  11.116  16.754   6.357
 5739POPC   D2A72592  11.401  16.624   6.615
 5739POPC   C3A72593  11.254  16.799   6.963
 5739POPC   C4A72594  11.415  16.704   7.371
 5739POPC   C1B72595  11.447  17.121   6.207
 5739POPC   C2B72596  11.510  17.113   6.643
 5739POPC   C3B72597  11.645  17.081   7.073
 5739POPC   C4B72598  11.600  17.345   7.430
 5740POPC   NC372599   6.876   3.285   5.369
 5740POPC   PO472600   6.417   3.812   5.492
 5740POPC   GL172601   6.726   3.629   5.734
 5740POPC   GL272602   6.600   3.297   5.793
 5740POPC   C1A72603   6.844   3.570   6.167
 5740POPC   D2A72604   6.685   3.639   6.589
 5740POPC   C3A72605   6.956   3.780   6.930
 5740POPC   C4A72606   6.921   3.668   7.358
 5740POPC   C1B72607   6.742   3.065   6.102
 5740POPC   C2B72608   6.857   3.152   6.476
 5740POPC   C3B72609   6.797   3.220   6.880
 5740POPC   C4B72610   6.892   3.176   7.283
 5741POPC   NC372611  33.420  32.154   5.581
 5741POPC   PO472612  32.756  32.115   5.636
 5741POPC   GL172613  33.064  32.195   5.965
 5741POPC   GL272614  33.240  32.505   6.032
 5741POPC   C1A72615  33.155  32.165   6.406
 5741POPC   D2A72616  33.106  32.250   6.849
 5741POPC   C3A72617  33.236  31.916   7.141
 5741POPC   C4A72618  33.245  32.022   7.608
 5741POPC   C1B72619  32.848  32.583   6.243
 5741POPC   C2B72620  32.730  32.669   6.686
 5741POPC   C3B72621  32.896  32.647   7.127
 5741POPC   C4B72622  33.271  32.421   7.301
 5742POPC   NC372623  40.004  24.378   5.407
 5742POPC   PO472624  39.975  25.043   5.330
 5742POPC   GL172625  39.778  24.812   5.711
 5742POPC   GL272626  39.863  24.468   5.874
 5742POPC   C1A72627  39.808  24.864   6.180
 5742POPC   D2A72628  40.003  24.843   6.610
 5742POPC   C3A72629  39.774  24.822   7.016
 5742POPC   C4A72630  39.735  24.625   7.428
 5742POPC   C1B72631  40.131  24.452   6.259
 5742POPC   C2B72632  40.115  24.304   6.681
 5742POPC   C3B72633  39.920  24.178   7.061
 5742POPC   C4B72634  40.214  24.158   7.396
 5743POPC   NC372635  37.536  31.168   5.469
 5743POPC   PO472636  37.625  30.531   5.388
 5743POPC   GL172637  37.605  30.709   5.770
 5743POPC   GL272638  37.361  30.436   5.824
 5743POPC   C1A72639  37.760  30.859   6.172
 5743POPC   D2A72640  37.768  30.638   6.581
 5743POPC   C3A72641  37.864  30.795   6.983
 5743POPC   C4A72642  37.629  30.853   7.350
 5743POPC   C1B72643  37.525  30.378   6.209
 5743POPC   C2B72644  37.296  30.414   6.615
 5743POPC   C3B72645  37.272  30.365   7.086
 5743POPC   C4B72646  37.325  30.479   7.556
 5744POPC   NC372647  34.681  10.713   5.612
 5744POPC   PO472648  34.987  10.157   5.761
 5744POPC   GL172649  34.779  10.331   6.042
 5744POPC   GL272650  34.452  10.329   5.868
 5744POPC   C1A72651  34.915  10.628   6.340
 5744POPC   D2A72652  34.984  10.883   6.687
 5744POPC   C3A72653  34.676  10.771   6.990
 5744POPC   C4A72654  34.890  10.517   7.280
 5744POPC   C1B72655  34.411  10.615   6.227
 5744POPC   C2B72656  34.404  10.388   6.609
 5744POPC   C3B72657  34.392  10.134   6.960
 5744POPC   C4B72658  34.418  10.335   7.345
 5745POPC   NC372659  15.342  39.442   5.545
 5745POPC   PO472660  14.783  39.243   5.219
 5745POPC   GL172661  15.056  38.989   5.639
 5745POPC   GL272662  15.412  39.039   5.833
 5745POPC   C1A72663  15.021  38.961   6.126
 5745POPC   D2A72664  14.985  38.925   6.581
 5745POPC   C3A72665  14.951  39.241   6.946
 5745POPC   C4A72666  15.133  39.302   7.382
 5745POPC   C1B72667  15.418  39.296   6.216
 5745POPC   C2B72668  15.407  39.266   6.664
 5745POPC   C3B72669  15.505  39.160   7.090
 5745POPC   C4B72670  15.589  39.565   7.366
 5746POPC   NC372671  23.946  37.875   5.404
 5746POPC   PO472672  23.297  37.714   5.272
 5746POPC   GL172673  23.482  37.794   5.712
 5746POPC   GL272674  23.648  37.512   5.809
 5746POPC   C1A72675  23.659  37.930   6.144
 5746POPC   D2A72676  23.794  38.149   6.535
 5746POPC   C3A72677  23.788  37.966   6.980
 5746POPC   C4A72678  23.830  37.622   7.303
 5746POPC   C1B72679  23.844  37.440   6.190
 5746POPC   C2B72680  23.975  37.133   6.525
 5746POPC   C3B72681  23.957  37.193   6.987
 5746POPC   C4B72682  24.250  37.288   7.331
 5747POPC   NC372683  31.421  33.468   5.108
 5747POPC   PO472684  31.931  33.890   5.422
 5747POPC   GL172685  31.608  33.905   5.756
 5747POPC   GL272686  31.519  34.240   5.733
 5747POPC   C1A72687  31.413  33.688   6.150
 5747POPC   D2A72688  31.270  33.522   6.563
 5747POPC   C3A72689  31.553  33.431   6.913
 5747POPC   C4A72690  31.633  33.594   7.327
 5747POPC   C1B72691  31.273  34.184   6.111
 5747POPC   C2B72692  31.171  34.025   6.546
 5747POPC   C3B72693  31.318  33.906   6.947
 5747POPC   C4B72694  31.416  34.180   7.266
 5748POPC   NC372695  37.106  10.140   5.506
 5748POPC   PO472696  36.817  10.684   5.339
 5748POPC   GL172697  36.723  10.672   5.801
 5748POPC   GL272698  36.630  10.342   5.890
 5748POPC   C1A72699  36.884  10.642   6.260
 5748POPC   D2A72700  36.953  10.311   6.604
 5748POPC   C3A72701  36.846  10.364   7.033
 5748POPC   C4A72702  36.965  10.793   7.144
 5748POPC   C1B72703  36.426  10.460   6.271
 5748POPC   C2B72704  36.487  10.488   6.674
 5748POPC   C3B72705  36.460  10.706   7.017
 5748POPC   C4B72706  36.582  10.597   7.431
 5749POPC   NC372707  38.185  24.546   5.379
 5749POPC   PO472708  38.797  24.481   5.300
 5749POPC   GL172709  38.557  24.414   5.709
 5749POPC   GL272710  38.467  24.755   5.772
 5749POPC   C1A72711  38.482  24.417   6.195
 5749POPC   D2A72712  38.275  24.274   6.610
 5749POPC   C3A72713  38.460  24.286   7.016
 5749POPC   C4A72714  38.715  24.587   7.245
 5749POPC   C1B72715  38.256  24.921   6.160
 5749POPC   C2B72716  38.368  24.802   6.589
 5749POPC   C3B72717  38.284  24.802   7.034
 5749POPC   C4B72718  38.040  25.067   7.295
 5750POPC   NC372719  20.871  13.433   5.269
 5750POPC   PO472720  20.311  13.756   5.399
 5750POPC   GL172721  20.579  13.579   5.691
 5750POPC   GL272722  20.675  13.920   5.746
 5750POPC   C1A72723  20.556  13.426   6.121
 5750POPC   D2A72724  20.760  13.514   6.509
 5750POPC   C3A72725  20.605  13.388   6.907
 5750POPC   C4A72726  20.798  13.316   7.287
 5750POPC   C1B72727  20.329  13.896   6.046
 5750POPC   C2B72728  20.334  13.806   6.464
 5750POPC   C3B72729  20.603  13.938   6.770
 5750POPC   C4B72730  20.582  13.814   7.184
 5751POPC   NC372731  26.462   5.488   5.550
 5751POPC   PO472732  26.754   6.061   5.377
 5751POPC   GL172733  26.765   5.857   5.763
 5751POPC   GL272734  26.488   6.071   5.852
 5751POPC   C1A72735  26.703   5.649   6.175
 5751POPC   D2A72736  26.864   5.811   6.567
 5751POPC   C3A72737  26.781   5.650   6.965
 5751POPC   C4A72738  27.029   5.810   7.299
 5751POPC   C1B72739  26.628   6.151   6.275
 5751POPC   C2B72740  26.578   6.222   6.736
 5751POPC   C3B72741  26.696   6.182   7.189
 5751POPC   C4B72742  26.593   6.188   7.684
 5752POPC   NC372743  25.231  31.604   5.327
 5752POPC   PO472744  25.823  31.630   5.519
 5752POPC   GL172745  25.546  31.426   5.844
 5752POPC   GL272746  25.189  31.433   5.843
 5752POPC   C1A72747  25.456  31.441   6.302
 5752POPC   D2A72748  25.318  31.288   6.702
 5752POPC   C3A72749  25.388  31.442   7.105
 5752POPC   C4A72750  25.161  31.775   7.172
 5752POPC   C1B72751  25.039  31.156   6.203
 5752POPC   C2B72752  24.813  31.266   6.589
 5752POPC   C3B72753  24.900  31.340   7.034
 5752POPC   C4B72754  25.013  31.374   7.493
 5753POPC   NC372755  39.343  36.641   5.560
 5753POPC   PO472756  38.599  36.605   5.509
 5753POPC   GL172757  38.900  36.628   5.874
 5753POPC   GL272758  39.077  36.928   5.928
 5753POPC   C1A72759  39.168  36.554   6.260
 5753POPC   D2A72760  39.062  36.671   6.677
 5753POPC   C3A72761  39.339  36.699   7.029
 5753POPC   C4A72762  39.101  37.009   7.253
 5753POPC   C1B72763  39.364  37.035   6.292
 5753POPC   C2B72764  39.335  37.128   6.739
 5753POPC   C3B72765  39.568  37.151   7.117
 5753POPC   C4B72766  39.418  37.309   7.531
 5754POPC   NC372767  34.531  25.301   5.432
 5754POPC   PO472768  34.148  24.839   5.211
 5754POPC   GL172769  34.544  24.886   5.684
 5754POPC   GL272770  34.488  25.265   5.915
 5754POPC   C1A72771  34.616  24.914   6.213
 5754POPC   D2A72772  34.426  25.213   6.535
 5754POPC   C3A72773  34.621  25.286   6.952
 5754POPC   C4A72774  34.729  25.015   7.277
 5754POPC   C1B72775  34.416  25.646   6.123
 5754POPC   C2B72776  34.347  25.862   6.500
 5754POPC   C3B72777  34.270  25.685   6.887
 5754POPC   C4B72778  34.426  25.661   7.270
 5755POPC   NC372779  21.590  31.619   5.227
 5755POPC   PO472780  22.238  31.724   5.568
 5755POPC   GL172781  22.188  31.461   5.910
 5755POPC   GL272782  21.989  31.657   6.142
 5755POPC   C1A72783  22.229  31.236   6.256
 5755POPC   D2A72784  22.346  31.440   6.602
 5755POPC   C3A72785  22.128  31.317   6.934
 5755POPC   C4A72786  21.822  31.613   7.030
 5755POPC   C1B72787  22.382  31.879   6.230
 5755POPC   C2B72788  22.558  31.930   6.641
 5755POPC   C3B72789  22.449  31.722   7.040
 5755POPC   C4B72790  22.590  31.806   7.465
 5756POPC   NC372791  41.903  11.913   5.305
 5756POPC   PO472792  41.583  12.535   5.353
 5756POPC   GL172793  41.484  12.216   5.702
 5756POPC   GL272794  41.584  11.847   5.706
 5756POPC   C1A72795  41.634  12.156   6.138
 5756POPC   D2A72796  41.710  11.919   6.532
 5756POPC   C3A72797  41.631  12.126   6.944
 5756POPC   C4A72798  41.745  12.197   7.397
 5756POPC   C1B72799  41.385  11.682   6.077
 5756POPC   C2B72800  41.210  11.797   6.481
 5756POPC   C3B72801  41.341  11.694   6.889
 5756POPC   C4B72802  41.225  11.910   7.236
 5757POPC   NC372803  14.156   2.075   5.492
 5757POPC   PO472804  13.439   2.051   5.459
 5757POPC   GL172805  13.750   2.048   5.818
 5757POPC   GL272806  13.973   1.729   5.822
 5757POPC   C1A72807  13.680   1.969   6.259
 5757POPC   D2A72808  13.474   2.184   6.611
 5757POPC   C3A72809  13.616   1.975   6.956
 5757POPC   C4A72810  13.786   2.007   7.362
 5757POPC   C1B72811  14.116   1.686   6.239
 5757POPC   C2B72812  13.896   1.648   6.650
 5757POPC   C3B72813  14.097   1.695   7.031
 5757POPC   C4B72814  14.036   1.560   7.450
 5758POPC   NC372815  20.231  16.269   5.586
 5758POPC   PO472816  19.917  15.855   5.178
 5758POPC   GL172817  19.978  15.826   5.645
 5758POPC   GL272818  20.038  15.543   5.860
 5758POPC   C1A72819  19.814  15.965   6.071
 5758POPC   D2A72820  19.692  15.949   6.512
 5758POPC   C3A72821  19.793  16.195   6.858
 5758POPC   C4A72822  19.506  16.079   7.205
 5758POPC   C1B72823  19.811  15.465   6.263
 5758POPC   C2B72824  19.914  15.521   6.701
 5758POPC   C3B72825  19.878  15.738   7.092
 5758POPC   C4B72826  19.790  15.847   7.538
 5759POPC   NC372827  35.401  22.962   5.427
 5759POPC   PO472828  34.911  23.334   5.607
 5759POPC   GL172829  35.276  23.134   5.878
 5759POPC   GL272830  35.318  22.782   5.992
 5759POPC   C1A72831  35.519  23.119   6.287
 5759POPC   D2A72832  35.316  22.952   6.651
 5759POPC   C3A72833  35.511  23.092   7.019
 5759POPC   C4A72834  35.542  22.963   7.470
 5759POPC   C1B72835  34.979  23.072   6.256
 5759POPC   C2B72836  34.905  23.292   6.666
 5759POPC   C3B72837  35.012  23.040   7.057
 5759POPC   C4B72838  35.225  22.661   7.181
 5760POPC   NC372839  38.571   4.039   5.578
 5760POPC   PO472840  38.374   4.677   5.444
 5760POPC   GL172841  38.359   4.421   5.836
 5760POPC   GL272842  38.649   4.556   5.997
 5760POPC   C1A72843  38.483   4.142   6.213
 5760POPC   D2A72844  38.648   4.317   6.589
 5760POPC   C3A72845  38.435   4.241   6.963
 5760POPC   C4A72846  38.580   4.021   7.326
 5760POPC   C1B72847  38.251   4.637   6.286
 5760POPC   C2B72848  37.981   4.706   6.666
 5760POPC   C3B72849  38.099   4.636   7.103
 5760POPC   C4B72850  38.449   4.502   7.407
 5761POPC   NC372851  16.026  36.004   5.213
 5761POPC   PO472852  15.484  36.021   5.514
 5761POPC   GL172853  15.830  35.857   5.770
 5761POPC   GL272854  16.075  36.132   5.715
 5761POPC   C1A72855  15.835  35.890   6.257
 5761POPC   D2A72856  15.860  36.162   6.652
 5761POPC   C3A72857  15.891  36.020   7.087
 5761POPC   C4A72858  16.233  35.888   7.353
 5761POPC   C1B72859  16.155  36.302   6.116
 5761POPC   C2B72860  16.256  36.480   6.538
 5761POPC   C3B72861  16.088  36.534   6.954
 5761POPC   C4B72862  16.332  36.436   7.327
 5762POPC   NC372863  42.805  12.493   5.220
 5762POPC   PO472864  42.358  11.987   5.386
 5762POPC   GL172865  42.278  12.262   5.730
 5762POPC   GL272866  42.497  12.555   5.660
 5762POPC   C1A72867  42.155  12.164   6.171
 5762POPC   D2A72868  42.223  11.937   6.554
 5762POPC   C3A72869  42.146  12.085   6.948
 5762POPC   C4A72870  42.187  11.908   7.343
 5762POPC   C1B72871  42.459  12.588   6.112
 5762POPC   C2B72872  42.480  12.396   6.512
 5762POPC   C3B72873  42.428  12.510   6.935
 5762POPC   C4B72874  42.257  12.397   7.336
 5763POPC   NC372875  44.395  44.577   5.395
 5763POPC   PO472876  44.897  44.862   5.694
 5763POPC   GL172877  44.699  44.641   5.991
 5763POPC   GL272878  44.509  44.914   6.070
 5763POPC   C1A72879  44.935  44.452   6.305
 5763POPC   D2A72880  44.734  44.451   6.628
 5763POPC   C3A72881  44.994  44.464   6.961
 5763POPC   C4A72882  44.859  44.654   7.358
 5763POPC   C1B72883  44.784  44.925   6.442
 5763POPC   C2B72884  44.708  44.889   6.884
 5763POPC   C3B72885  44.522   0.012   7.258
 5763POPC   C4B72886  44.534   0.092   7.676
 5764POPC   NC372887   2.361  13.045   5.402
 5764POPC   PO472888   3.086  12.897   5.451
 5764POPC   GL172889   2.794  13.034   5.734
 5764POPC   GL272890   2.640  12.728   5.733
 5764POPC   C1A72891   2.801  13.151   6.159
 5764POPC   D2A72892   2.922  12.888   6.524
 5764POPC   C3A72893   2.864  13.088   6.910
 5764POPC   C4A72894   2.782  12.941   7.319
 5764POPC   C1B72895   2.617  12.652   6.164
 5764POPC   C2B72896   2.494  12.556   6.589
 5764POPC   C3B72897   2.594  12.572   7.020
 5764POPC   C4B72898   2.552  12.496   7.489
 5765POPC   NC372899   2.693  22.277   5.292
 5765POPC   PO472900   2.182  21.978   5.585
 5765POPC   GL172901   2.543  22.230   5.783
 5765POPC   GL272902   2.333  22.344   6.062
 5765POPC   C1A72903   2.822  22.462   6.117
 5765POPC   D2A72904   2.719  22.370   6.557
 5765POPC   C3A72905   2.971  22.301   6.917
 5765POPC   C4A72906   2.956  22.638   7.216
 5765POPC   C1B72907   2.617  21.992   6.232
 5765POPC   C2B72908   2.657  21.857   6.678
 5765POPC   C3B72909   2.631  21.974   7.154
 5765POPC   C4B72910   2.552  21.934   7.648
 5766POPC   NC372911  19.844   8.551   5.426
 5766POPC   PO472912  19.706   9.099   5.414
 5766POPC   GL172913  20.018   8.929   5.741
 5766POPC   GL272914  20.277   9.148   5.831
 5766POPC   C1A72915  19.994   8.855   6.213
 5766POPC   D2A72916  19.673   8.987   6.554
 5766POPC   C3A72917  19.723   8.921   7.027
 5766POPC   C4A72918  19.486   8.843   7.446
 5766POPC   C1B72919  20.168   9.335   6.238
 5766POPC   C2B72920  20.134   9.156   6.655
 5766POPC   C3B72921  20.074   9.309   7.056
 5766POPC   C4B72922  19.910   9.171   7.442
 5767POPC   NC372923   9.228  15.617   5.576
 5767POPC   PO472924   8.737  16.115   5.363
 5767POPC   GL172925   8.879  15.941   5.755
 5767POPC   GL272926   8.715  15.609   5.683
 5767POPC   C1A72927   9.121  16.000   6.196
 5767POPC   D2A72928   9.052  16.204   6.637
 5767POPC   C3A72929   9.010  16.016   7.087
 5767POPC   C4A72930   9.103  15.944   7.565
 5767POPC   C1B72931   8.809  15.596   6.125
 5767POPC   C2B72932   8.811  15.725   6.524
 5767POPC   C3B72933   8.897  15.533   6.904
 5767POPC   C4B72934   9.188  15.546   7.235
 5768POPC   NC372935  38.963  31.003   5.041
 5768POPC   PO472936  39.342  31.441   5.420
 5768POPC   GL172937  39.098  31.423   5.800
 5768POPC   GL272938  38.943  31.084   5.766
 5768POPC   C1A72939  39.226  31.508   6.245
 5768POPC   D2A72940  39.077  31.445   6.681
 5768POPC   C3A72941  39.353  31.515   7.028
 5768POPC   C4A72942  39.491  31.762   7.369
 5768POPC   C1B72943  38.862  31.147   6.210
 5768POPC   C2B72944  38.660  31.147   6.635
 5768POPC   C3B72945  38.880  31.104   7.037
 5768POPC   C4B72946  39.131  31.244   7.409
 5769POPC   NC372947  38.207  12.721   5.077
 5769POPC   PO472948  37.655  12.864   5.421
 5769POPC   GL172949  37.799  12.799   5.860
 5769POPC   GL272950  37.467  12.610   5.948
 5769POPC   C1A72951  37.824  12.625   6.298
 5769POPC   D2A72952  37.681  12.857   6.638
 5769POPC   C3A72953  37.759  12.854   7.085
 5769POPC   C4A72954  38.084  13.033   7.344
 5769POPC   C1B72955  37.464  13.034   6.153
 5769POPC   C2B72956  37.698  13.314   6.428
 5769POPC   C3B72957  37.571  13.312   6.840
 5769POPC   C4B72958  37.716  13.345   7.199
 5770POPC   NC372959  12.037  24.780   5.526
 5770POPC   PO472960  12.198  24.136   5.251
 5770POPC   GL172961  12.233  24.283   5.664
 5770POPC   GL272962  11.876  24.255   5.705
 5770POPC   C1A72963  12.201  24.461   6.089
 5770POPC   D2A72964  12.108  24.790   6.399
 5770POPC   C3A72965  12.037  24.598   6.802
 5770POPC   C4A72966  11.983  24.608   7.247
 5770POPC   C1B72967  11.768  24.040   6.096
 5770POPC   C2B72968  11.561  24.173   6.514
 5770POPC   C3B72969  11.714  24.227   6.960
 5770POPC   C4B72970  12.136  24.147   7.105
 5771POPC   NC372971  30.943  15.463   4.979
 5771POPC   PO472972  30.782  16.012   5.276
 5771POPC   GL172973  30.664  15.786   5.694
 5771POPC   GL272974  30.310  15.626   5.751
 5771POPC   C1A72975  30.656  15.917   6.145
 5771POPC   D2A72976  30.926  15.961   6.501
 5771POPC   C3A72977  30.817  16.076   6.921
 5771POPC   C4A72978  30.758  16.051   7.373
 5771POPC   C1B72979  30.222  15.656   6.216
 5771POPC   C2B72980  30.431  15.774   6.632
 5771POPC   C3B72981  30.468  15.718   7.103
 5771POPC   C4B72982  30.472  15.641   7.547
 5772POPC   NC372983  12.354  15.331   5.379
 5772POPC   PO472984  11.912  14.787   5.392
 5772POPC   GL172985  11.912  15.066   5.757
 5772POPC   GL272986  11.866  15.428   5.676
 5772POPC   C1A72987  12.002  15.030   6.217
 5772POPC   D2A72988  11.772  15.199   6.595
 5772POPC   C3A72989  11.801  14.918   6.925
 5772POPC   C4A72990  11.796  15.041   7.325
 5772POPC   C1B72991  12.093  15.505   6.087
 5772POPC   C2B72992  12.242  15.381   6.540
 5772POPC   C3B72993  12.124  15.315   7.002
 5772POPC   C4B72994  12.258  15.343   7.471
 5773POPC   NC372995  26.121   7.008   5.480
 5773POPC   PO472996  25.810   6.382   5.454
 5773POPC   GL172997  26.062   6.372   5.842
 5773POPC   GL272998  26.149   6.721   5.906
 5773POPC   C1A72999  26.146   6.344   6.304
 5773POPC   D2A73000  26.254   6.620   6.654
 5773POPC   C3A73001  26.056   6.600   7.032
 5773POPC   C4A73002  26.238   6.359   7.332
 5773POPC   C1B73003  26.089   6.933   6.301
 5773POPC   C2B73004  25.817   6.902   6.664
 5773POPC   C3B73005  25.666   6.952   7.072
 5773POPC   C4B73006  25.815   6.763   7.479
 5774POPC   NC373007  33.318   1.127   5.621
 5774POPC   PO473008  32.688   1.057   5.399
 5774POPC   GL173009  32.848   1.231   5.813
 5774POPC   GL273010  33.073   1.556   5.808
 5774POPC   C1A73011  33.008   1.071   6.217
 5774POPC   D2A73012  33.037   0.869   6.630
 5774POPC   C3A73013  33.220   1.005   6.997
 5774POPC   C4A73014  32.923   1.034   7.323
 5774POPC   C1B73015  32.825   1.580   6.202
 5774POPC   C2B73016  32.821   1.357   6.616
 5774POPC   C3B73017  32.944   1.449   7.035
 5774POPC   C4B73018  32.841   1.583   7.469
 5775POPC   NC373019  11.246  18.367   5.454
 5775POPC   PO473020  11.730  18.809   5.726
 5775POPC   GL173021  11.427  18.551   5.889
 5775POPC   GL273022  11.530  18.661   6.183
 5775POPC   C1A73023  11.241  18.188   6.096
 5775POPC   D2A73024  11.113  18.008   6.482
 5775POPC   C3A73025  11.231  18.044   6.907
 5775POPC   C4A73026  10.955  18.130   7.267
 5775POPC   C1B73027  11.468  18.400   6.505
 5775POPC   C2B73028  11.256  18.560   6.829
 5775POPC   C3B73029  11.384  18.460   7.224
 5775POPC   C4B73030  11.508  18.661   7.600
 5776POPC   NC373031  26.248  13.075   5.494
 5776POPC   PO473032  25.645  12.703   5.531
 5776POPC   GL173033  25.962  12.810   5.878
 5776POPC   GL273034  26.338  12.744   5.878
 5776POPC   C1A73035  26.097  12.820   6.323
 5776POPC   D2A73036  26.262  12.478   6.559
 5776POPC   C3A73037  26.222  12.571   7.000
 5776POPC   C4A73038  25.834  12.480   7.258
 5776POPC   C1B73039  26.460  13.138   6.153
 5776POPC   C2B73040  26.417  13.254   6.613
 5776POPC   C3B73041  26.406  13.097   7.058
 5776POPC   C4B73042  26.046  12.968   7.298
 5777POPC   NC373043  32.731   3.301   5.399
 5777POPC   PO473044  33.282   3.755   5.403
 5777POPC   GL173045  33.160   3.610   5.793
 5777POPC   GL273046  32.811   3.644   5.813
 5777POPC   C1A73047  33.188   3.671   6.237
 5777POPC   D2A73048  33.385   3.495   6.581
 5777POPC   C3A73049  33.213   3.600   6.946
 5777POPC   C4A73050  33.212   3.557   7.371
 5777POPC   C1B73051  32.721   3.453   6.214
 5777POPC   C2B73052  32.830   3.459   6.648
 5777POPC   C3B73053  32.629   3.408   7.069
 5777POPC   C4B73054  32.733   3.552   7.504
 5778POPC   NC373055  43.779  34.887   5.474
 5778POPC   PO473056  44.114  35.448   5.328
 5778POPC   GL173057  43.924  35.313   5.719
 5778POPC   GL273058  43.608  35.498   5.732
 5778POPC   C1A73059  44.069  35.290   6.137
 5778POPC   D2A73060  44.178  35.469   6.513
 5778POPC   C3A73061  44.128  35.274   6.893
 5778POPC   C4A73062  44.073  35.360   7.299
 5778POPC   C1B73063  43.558  35.277   6.132
 5778POPC   C2B73064  43.742  35.147   6.547
 5778POPC   C3B73065  43.610  35.278   6.966
 5778POPC   C4B73066  43.590  35.324   7.414
 5779POPC   NC373067   8.761  34.908   5.560
 5779POPC   PO473068   8.122  35.250   5.190
 5779POPC   GL173069   8.047  35.324   5.711
 5779POPC   GL273070   7.958  35.010   5.917
 5779POPC   C1A73071   8.185  35.385   6.167
 5779POPC   D2A73072   8.190  35.135   6.570
 5779POPC   C3A73073   8.148  35.372   6.979
 5779POPC   C4A73074   8.027  35.802   7.117
 5779POPC   C1B73075   7.736  35.123   6.315
 5779POPC   C2B73076   7.695  35.027   6.778
 5779POPC   C3B73077   7.772  35.063   7.250
 5779POPC   C4B73078   7.862  35.142   7.705
 5780POPC   NC373079  20.740  31.143   5.453
 5780POPC   PO473080  20.540  31.772   5.710
 5780POPC   GL173081  20.682  31.452   5.996
 5780POPC   GL273082  20.466  31.243   5.868
 5780POPC   C1A73083  20.703  31.383   6.462
 5780POPC   D2A73084  20.471  31.624   6.785
 5780POPC   C3A73085  20.656  31.824   7.170
 5780POPC   C4A73086  20.930  31.684   7.509
 5780POPC   C1B73087  20.417  31.017   6.249
 5780POPC   C2B73088  20.512  30.889   6.682
 5780POPC   C3B73089  20.642  31.182   7.004
 5780POPC   C4B73090  20.661  31.229   7.493
 5781POPC   NC373091   2.031  20.044   5.460
 5781POPC   PO473092   1.708  19.471   5.432
 5781POPC   GL173093   1.979  19.612   5.778
 5781POPC   GL273094   1.770  19.872   5.917
 5781POPC   C1A73095   2.179  19.706   6.199
 5781POPC   D2A73096   1.986  19.813   6.608
 5781POPC   C3A73097   2.201  19.781   7.005
 5781POPC   C4A73098   2.204  20.190   7.180
 5781POPC   C1B73099   1.553  19.939   6.334
 5781POPC   C2B73100   1.500  19.782   6.773
 5781POPC   C3B73101   1.719  19.919   7.165
 5781POPC   C4B73102   1.555  19.850   7.592
 5782POPC   NC373103  16.023  29.577   5.439
 5782POPC   PO473104  15.643  29.158   5.312
 5782POPC   GL173105  15.896  29.193   5.760
 5782POPC   GL273106  16.194  29.416   5.876
 5782POPC   C1A73107  16.021  29.052   6.213
 5782POPC   D2A73108  15.995  29.208   6.661
 5782POPC   C3A73109  16.199  28.974   6.999
 5782POPC   C4A73110  15.918  28.938   7.343
 5782POPC   C1B73111  16.218  29.527   6.273
 5782POPC   C2B73112  16.452  29.405   6.636
 5782POPC   C3B73113  16.299  29.473   7.064
 5782POPC   C4B73114  16.331  29.359   7.486
 5783POPC   NC373115  14.021  23.536   5.320
 5783POPC   PO473116  13.560  23.958   5.121
 5783POPC   GL173117  13.773  23.911   5.612
 5783POPC   GL273118  13.739  23.604   5.786
 5783POPC   C1A73119  13.670  24.034   6.082
 5783POPC   D2A73120  13.524  24.098   6.541
 5783POPC   C3A73121  13.694  23.942   6.969
 5783POPC   C4A73122  13.460  23.827   7.337
 5783POPC   C1B73123  13.461  23.569   6.188
 5783POPC   C2B73124  13.301  23.492   6.608
 5783POPC   C3B73125  13.478  23.448   7.019
 5783POPC   C4B73126  13.763  23.432   7.385
 5784POPC   NC373127  31.141  17.989   5.376
 5784POPC   PO473128  31.403  18.606   5.240
 5784POPC   GL173129  31.490  18.322   5.553
 5784POPC   GL273130  31.358  18.557   5.778
 5784POPC   C1A73131  31.542  18.137   5.997
 5784POPC   D2A73132  31.418  18.268   6.434
 5784POPC   C3A73133  31.464  18.016   6.817
 5784POPC   C4A73134  31.487  18.095   7.245
 5784POPC   C1B73135  31.288  18.755   6.185
 5784POPC   C2B73136  31.474  18.790   6.578
 5784POPC   C3B73137  31.628  18.505   6.869
 5784POPC   C4B73138  31.571  18.600   7.263
 5785POPC   NC373139  28.639  24.279   5.567
 5785POPC   PO473140  28.065  24.714   5.580
 5785POPC   GL173141  28.324  24.559   5.914
 5785POPC   GL273142  28.337  24.184   5.964
 5785POPC   C1A73143  28.521  24.719   6.323
 5785POPC   D2A73144  28.526  24.870   6.765
 5785POPC   C3A73145  28.212  24.648   6.993
 5785POPC   C4A73146  28.033  24.276   7.159
 5785POPC   C1B73147  28.725  24.155   6.248
 5785POPC   C2B73148  28.732  24.069   6.701
 5785POPC   C3B73149  28.552  24.233   7.079
 5785POPC   C4B73150  28.645  24.137   7.480
 5786POPC   NC373151   5.887  11.004   5.468
 5786POPC   PO473152   5.563  10.374   5.430
 5786POPC   GL173153   5.840  10.535   5.764
 5786POPC   GL273154   5.796  10.211   5.900
 5786POPC   C1A73155   6.092  10.578   6.157
 5786POPC   D2A73156   6.071  10.393   6.603
 5786POPC   C3A73157   5.958  10.612   6.996
 5786POPC   C4A73158   6.290  10.803   7.193
 5786POPC   C1B73159   5.643  10.338   6.283
 5786POPC   C2B73160   5.574  10.478   6.697
 5786POPC   C3B73161   5.429  10.414   7.092
 5786POPC   C4B73162   5.456  10.385   7.526
 5787POPC   NC373163   2.305   9.969   5.398
 5787POPC   PO473164   1.974   9.380   5.245
 5787POPC   GL173165   1.997   9.568   5.681
 5787POPC   GL273166   2.283   9.742   5.853
 5787POPC   C1A73167   1.964   9.507   6.164
 5787POPC   D2A73168   1.698   9.414   6.532
 5787POPC   C3A73169   1.773   9.719   6.870
 5787POPC   C4A73170   2.054   9.635   7.194
 5787POPC   C1B73171   2.265  10.067   6.156
 5787POPC   C2B73172   2.031  10.088   6.561
 5787POPC   C3B73173   2.211  10.069   6.968
 5787POPC   C4B73174   2.382  10.001   7.391
 5788POPC   NC373175   8.286  25.219   5.468
 5788POPC   PO473176   7.811  24.840   5.261
 5788POPC   GL173177   8.000  24.833   5.705
 5788POPC   GL273178   7.930  25.158   5.845
 5788POPC   C1A73179   8.326  24.940   6.077
 5788POPC   D2A73180   8.163  25.095   6.490
 5788POPC   C3A73181   8.162  25.084   6.950
 5788POPC   C4A73182   8.435  25.048   7.270
 5788POPC   C1B73183   8.176  25.447   6.128
 5788POPC   C2B73184   8.405  25.533   6.542
 5788POPC   C3B73185   8.351  25.568   7.011
 5788POPC   C4B73186   7.983  25.548   7.283
 5789POPC   NC373187  24.639  26.632   5.527
 5789POPC   PO473188  24.261  27.165   5.565
 5789POPC   GL173189  24.573  26.972   5.944
 5789POPC   GL273190  24.914  26.776   5.944
 5789POPC   C1A73191  24.784  26.970   6.410
 5789POPC   D2A73192  24.810  26.888   6.886
 5789POPC   C3A73193  24.450  26.931   7.234
 5789POPC   C4A73194  24.504  27.074   7.697
 5789POPC   C1B73195  24.713  26.489   6.265
 5789POPC   C2B73196  24.628  26.416   6.731
 5789POPC   C3B73197  24.677  26.473   7.183
 5789POPC   C4B73198  24.713  26.615   7.591
 5790POPC   NC373199  33.257  44.529   5.050
 5790POPC   PO473200  33.087   0.097   5.360
 5790POPC   GL173201  33.083  44.746   5.711
 5790POPC   GL273202  32.829  44.932   5.862
 5790POPC   C1A73203  33.007  44.483   6.160
 5790POPC   D2A73204  33.085  44.260   6.596
 5790POPC   C3A73205  33.080  44.434   7.012
 5790POPC   C4A73206  33.243  44.827   7.164
 5790POPC   C1B73207  32.965  44.980   6.242
 5790POPC   C2B73208  32.983  44.785   6.649
 5790POPC   C3B73209  32.741  44.870   7.014
 5790POPC   C4B73210  32.821   0.059   7.413
 5791POPC   NC373211  19.604   9.523   5.281
 5791POPC   PO473212  20.042  10.041   5.424
 5791POPC   GL173213  19.899   9.866   5.790
 5791POPC   GL273214  19.878   9.496   5.762
 5791POPC   C1A73215  19.925   9.800   6.213
 5791POPC   D2A73216  19.812   9.548   6.553
 5791POPC   C3A73217  19.842   9.734   6.946
 5791POPC   C4A73218  19.814   9.665   7.363
 5791POPC   C1B73219  19.652   9.314   6.119
 5791POPC   C2B73220  19.341   9.373   6.481
 5791POPC   C3B73221  19.482   9.357   6.896
 5791POPC   C4B73222  19.431   9.329   7.309
 5792POPC   NC373223  17.158  31.274   5.455
 5792POPC   PO473224  16.546  31.588   5.535
 5792POPC   GL173225  16.760  31.556   5.925
 5792POPC   GL273226  17.086  31.542   5.897
 5792POPC   C1A73227  16.815  31.611   6.376
 5792POPC   D2A73228  16.478  31.388   6.608
 5792POPC   C3A73229  16.371  31.302   7.031
 5792POPC   C4A73230  16.533  31.616   7.243
 5792POPC   C1B73231  17.138  31.208   6.175
 5792POPC   C2B73232  16.963  31.162   6.574
 5792POPC   C3B73233  16.915  31.415   6.938
 5792POPC   C4B73234  17.179  31.469   7.299
 5793POPC   NC373235  16.823  24.156   5.100
 5793POPC   PO473236  16.595  24.510   5.630
 5793POPC   GL173237  16.638  24.800   5.919
 5793POPC   GL273238  16.988  24.866   5.880
 5793POPC   C1A73239  16.552  24.615   6.332
 5793POPC   D2A73240  16.448  24.267   6.627
 5793POPC   C3A73241  16.422  24.386   7.044
 5793POPC   C4A73242  16.749  24.651   7.203
 5793POPC   C1B73243  17.066  24.519   6.142
 5793POPC   C2B73244  17.182  24.256   6.478
 5793POPC   C3B73245  16.972  24.365   6.826
 5793POPC   C4B73246  17.116  24.286   7.203
 5794POPC   NC373247   7.671  18.945   5.633
 5794POPC   PO473248   6.978  19.115   5.550
 5794POPC   GL173249   7.223  18.875   5.895
 5794POPC   GL273250   7.533  18.613   5.989
 5794POPC   C1A73251   7.230  18.845   6.330
 5794POPC   D2A73252   7.050  19.014   6.659
 5794POPC   C3A73253   7.267  18.921   7.020
 5794POPC   C4A73254   7.234  19.009   7.461
 5794POPC   C1B73255   7.755  18.867   6.268
 5794POPC   C2B73256   7.646  18.987   6.660
 5794POPC   C3B73257   7.837  19.316   6.915
 5794POPC   C4B73258   7.864  19.236   7.335
 5795POPC   NC373259  13.465  42.635   5.514
 5795POPC   PO473260  13.831  42.131   5.475
 5795POPC   GL173261  13.695  41.979   5.863
 5795POPC   GL273262  13.318  42.024   5.822
 5795POPC   C1A73263  13.820  42.273   6.204
 5795POPC   D2A73264  13.886  42.575   6.556
 5795POPC   C3A73265  13.843  42.448   6.979
 5795POPC   C4A73266  13.491  42.511   7.221
 5795POPC   C1B73267  13.355  42.075   6.275
 5795POPC   C2B73268  13.623  42.105   6.661
 5795POPC   C3B73269  13.572  42.001   7.099
 5795POPC   C4B73270  13.309  41.852   7.463
 5796POPC   NC373271  25.267   3.985   4.730
 5796POPC   PO473272  25.163   4.118   5.432
 5796POPC   GL173273  25.229   4.275   5.852
 5796POPC   GL273274  24.903   4.334   5.890
 5796POPC   C1A73275  25.255   4.594   6.183
 5796POPC   D2A73276  25.484   4.487   6.533
 5796POPC   C3A73277  25.324   4.608   6.927
 5796POPC   C4A73278  25.321   4.427   7.322
 5796POPC   C1B73279  25.006   4.162   6.325
 5796POPC   C2B73280  24.973   4.179   6.794
 5796POPC   C3B73281  24.919   4.118   7.246
 5796POPC   C4B73282  25.089   4.116   7.677
 5797POPC   NC373283  42.666  10.610   5.106
 5797POPC   PO473284  42.224  10.631   5.634
 5797POPC   GL173285  42.483  10.713   5.961
 5797POPC   GL273286  42.401  10.365   6.045
 5797POPC   C1A73287  42.550  10.717   6.392
 5797POPC   D2A73288  42.181  10.712   6.684
 5797POPC   C3A73289  42.294  10.618   7.094
 5797POPC   C4A73290  42.134  10.195   7.028
 5797POPC   C1B73291  42.261  10.223   6.404
 5797POPC   C2B73292  42.520  10.321   6.716
 5797POPC   C3B73293  42.697  10.270   7.069
 5797POPC   C4B73294  42.482  10.266   7.426
 5798POPC   NC373295  34.430  22.181   5.011
 5798POPC   PO473296  34.887  22.264   5.477
 5798POPC   GL173297  34.647  22.171   5.897
 5798POPC   GL273298  34.238  22.223   5.874
 5798POPC   C1A73299  34.492  22.130   6.337
 5798POPC   D2A73300  34.280  22.023   6.752
 5798POPC   C3A73301  34.465  21.828   7.154
 5798POPC   C4A73302  34.477  21.471   7.490
 5798POPC   C1B73303  34.229  22.553   6.196
 5798POPC   C2B73304  34.340  22.546   6.640
 5798POPC   C3B73305  34.090  22.413   7.007
 5798POPC   C4B73306  34.260  22.240   7.362
 5799POPC   NC373307  40.429   2.470   5.086
 5799POPC   PO473308  40.930   2.855   5.432
 5799POPC   GL173309  40.638   2.945   5.774
 5799POPC   GL273310  40.860   3.023   5.987
 5799POPC   C1A73311  40.391   2.988   6.168
 5799POPC   D2A73312  40.634   2.934   6.549
 5799POPC   C3A73313  40.502   2.901   6.956
 5799POPC   C4A73314  40.506   3.056   7.356
 5799POPC   C1B73315  41.075   2.674   6.113
 5799POPC   C2B73316  41.141   2.520   6.501
 5799POPC   C3B73317  40.928   2.597   6.858
 5799POPC   C4B73318  40.933   2.808   7.236
 5800POPC   NC373319   7.126  40.374   5.472
 5800POPC   PO473320   7.438  40.945   5.429
 5800POPC   GL173321   7.299  40.998   5.822
 5800POPC   GL273322   7.544  40.757   5.895
 5800POPC   C1A73323   7.307  41.006   6.276
 5800POPC   D2A73324   7.359  40.817   6.668
 5800POPC   C3A73325   7.365  40.966   7.070
 5800POPC   C4A73326   7.492  40.732   7.437
 5800POPC   C1B73327   7.346  40.482   6.190
 5800POPC   C2B73328   7.422  40.313   6.589
 5800POPC   C3B73329   7.250  40.416   7.006
 5800POPC   C4B73330   7.122  40.217   7.444
 5801POPC   NC373331  16.649  33.960   5.345
 5801POPC   PO473332  16.469  33.417   5.688
 5801POPC   GL173333  16.588  33.852   5.874
 5801POPC   GL273334  16.911  34.013   5.817
 5801POPC   C1A73335  16.676  34.067   6.291
 5801POPC   D2A73336  16.444  34.040   6.682
 5801POPC   C3A73337  16.643  33.986   7.066
 5801POPC   C4A73338  16.618  33.673   7.432
 5801POPC   C1B73339  17.138  33.845   6.193
 5801POPC   C2B73340  17.050  33.865   6.631
 5801POPC   C3B73341  17.022  33.663   7.040
 5801POPC   C4B73342  17.102  33.859   7.439
 5802POPC   NC373343  18.296  30.472   5.514
 5802POPC   PO473344  18.338  31.136   5.355
 5802POPC   GL173345  18.351  30.914   5.835
 5802POPC   GL273346  18.255  30.562   5.996
 5802POPC   C1A73347  18.489  30.897   6.333
 5802POPC   D2A73348  18.644  30.942   6.796
 5802POPC   C3A73349  18.476  30.754   7.144
 5802POPC   C4A73350  18.632  30.704   7.547
 5802POPC   C1B73351  17.992  30.696   6.323
 5802POPC   C2B73352  18.100  30.804   6.743
 5802POPC   C3B73353  18.061  30.443   7.026
 5802POPC   C4B73354  18.162  30.418   7.429
 5803POPC   NC373355  30.011  38.973   5.471
 5803POPC   PO473356  29.642  39.463   5.417
 5803POPC   GL173357  29.872  39.446   5.792
 5803POPC   GL273358  30.224  39.348   5.791
 5803POPC   C1A73359  29.838  39.196   6.167
 5803POPC   D2A73360  29.667  39.211   6.597
 5803POPC   C3A73361  29.864  39.032   6.927
 5803POPC   C4A73362  29.721  39.203   7.281
 5803POPC   C1B73363  30.336  39.224   6.223
 5803POPC   C2B73364  30.137  39.452   6.578
 5803POPC   C3B73365  30.063  39.534   7.015
 5803POPC   C4B73366  30.242  39.200   7.248
 5804POPC   NC373367  21.625  29.141   5.349
 5804POPC   PO473368  21.050  29.081   5.449
 5804POPC   GL173369  21.261  29.349   5.734
 5804POPC   GL273370  21.564  29.181   5.858
 5804POPC   C1A73371  21.314  29.515   6.155
 5804POPC   D2A73372  21.174  29.606   6.566
 5804POPC   C3A73373  21.436  29.403   6.891
 5804POPC   C4A73374  21.713  29.405   7.271
 5804POPC   C1B73375  21.497  29.054   6.324
 5804POPC   C2B73376  21.692  28.965   6.755
 5804POPC   C3B73377  21.541  28.918   7.178
 5804POPC   C4B73378  21.755  28.888   7.583
 5805POPC   NC373379  28.566   7.590   5.357
 5805POPC   PO473380  28.374   6.974   5.465
 5805POPC   GL173381  28.483   7.163   5.837
 5805POPC   GL273382  28.605   7.441   5.831
 5805POPC   C1A73383  28.296   7.261   6.227
 5805POPC   D2A73384  28.280   7.045   6.640
 5805POPC   C3A73385  28.206   7.335   6.988
 5805POPC   C4A73386  28.278   7.582   7.352
 5805POPC   C1B73387  28.564   7.694   6.195
 5805POPC   C2B73388  28.466   7.566   6.600
 5805POPC   C3B73389  28.618   7.666   6.976
 5805POPC   C4B73390  28.547   8.006   7.259
 5806POPC   NC373391  17.941  31.616   5.607
 5806POPC   PO473392  17.577  31.157   5.248
 5806POPC   GL173393  17.680  31.144   5.757
 5806POPC   GL273394  17.682  31.455   6.039
 5806POPC   C1A73395  17.606  30.995   6.206
 5806POPC   D2A73396  17.415  30.970   6.619
 5806POPC   C3A73397  17.472  31.318   6.890
 5806POPC   C4A73398  17.754  31.316   7.228
 5806POPC   C1B73399  17.362  31.674   6.303
 5806POPC   C2B73400  17.287  31.761   6.730
 5806POPC   C3B73401  17.549  31.875   7.076
 5806POPC   C4B73402  17.290  31.962   7.409
 5807POPC   NC373403  23.285  32.304   5.518
 5807POPC   PO473404  23.918  31.941   5.479
 5807POPC   GL173405  23.698  32.154   5.793
 5807POPC   GL273406  23.393  32.001   5.968
 5807POPC   C1A73407  23.746  32.330   6.167
 5807POPC   D2A73408  23.607  32.185   6.550
 5807POPC   C3A73409  23.809  32.460   6.793
 5807POPC   C4A73410  24.040  32.529   7.159
 5807POPC   C1B73411  23.233  32.390   6.194
 5807POPC   C2B73412  23.233  32.587   6.611
 5807POPC   C3B73413  23.237  32.434   7.020
 5807POPC   C4B73414  23.583  32.297   7.236
 5808POPC   NC373415  21.795  16.895   5.634
 5808POPC   PO473416  22.418  16.911   5.410
 5808POPC   GL173417  22.275  16.639   5.769
 5808POPC   GL273418  22.012  16.398   5.795
 5808POPC   C1A73419  22.437  16.477   6.165
 5808POPC   D2A73420  22.575  16.652   6.561
 5808POPC   C3A73421  22.418  16.507   6.944
 5808POPC   C4A73422  22.247  16.703   7.280
 5808POPC   C1B73423  21.942  16.594   6.205
 5808POPC   C2B73424  21.808  16.697   6.620
 5808POPC   C3B73425  21.904  16.546   6.954
 5808POPC   C4B73426  21.728  16.373   7.227
 5809POPC   NC373427  44.592  41.762   5.611
 5809POPC   PO473428  44.577  42.290   5.187
 5809POPC   GL173429  44.511  42.319   5.637
 5809POPC   GL273430  44.808  42.189   5.810
 5809POPC   C1A73431  44.613  42.639   5.993
 5809POPC   D2A73432  44.719  42.571   6.443
 5809POPC   C3A73433  44.372  42.649   6.748
 5809POPC   C4A73434  44.380  42.550   7.193
 5809POPC   C1B73435  44.489  42.163   6.144
 5809POPC   C2B73436  44.422  42.001   6.544
 5809POPC   C3B73437  44.605  42.202   6.858
 5809POPC   C4B73438  44.863  42.166   7.194
 5810POPC   NC373439   4.995  17.651   5.319
 5810POPC   PO473440   5.475  17.083   5.382
 5810POPC   GL173441   5.223  17.274   5.731
 5810POPC   GL273442   5.023  17.576   5.819
 5810POPC   C1A73443   5.348  17.352   6.179
 5810POPC   D2A73444   5.534  17.141   6.538
 5810POPC   C3A73445   5.476  17.385   6.903
 5810POPC   C4A73446   5.102  17.456   7.143
 5810POPC   C1B73447   5.059  17.810   6.209
 5810POPC   C2B73448   4.944  18.017   6.589
 5810POPC   C3B73449   4.872  17.914   7.010
 5810POPC   C4B73450   5.064  17.886   7.405
 5811POPC   NC373451   7.263  25.108   5.321
 5811POPC   PO473452   7.292  25.663   5.493
 5811POPC   GL173453   7.414  25.288   5.835
 5811POPC   GL273454   7.480  24.918   5.740
 5811POPC   C1A73455   7.663  25.190   6.270
 5811POPC   D2A73456   7.749  25.293   6.722
 5811POPC   C3A73457   7.393  25.395   6.993
 5811POPC   C4A73458   7.042  25.363   7.285
 5811POPC   C1B73459   7.282  24.873   6.166
 5811POPC   C2B73460   7.359  24.948   6.637
 5811POPC   C3B73461   7.172  24.925   7.043
 5811POPC   C4B73462   7.214  24.942   7.501
 5812POPC   NC373463   0.975   1.613   5.460
 5812POPC   PO473464   1.398   1.086   5.466
 5812POPC   GL173465   1.100   1.084   5.771
 5812POPC   GL273466   1.212   1.388   5.883
 5812POPC   C1A73467   1.100   0.991   6.213
 5812POPC   D2A73468   1.109   1.221   6.589
 5812POPC   C3A73469   1.011   1.038   6.987
 5812POPC   C4A73470   1.251   1.093   7.340
 5812POPC   C1B73471   0.858   1.448   6.134
 5812POPC   C2B73472   0.709   1.563   6.513
 5812POPC   C3B73473   0.813   1.496   6.910
 5812POPC   C4B73474   1.012   1.593   7.306
 5813POPC   NC373475  29.142   2.343   5.152
 5813POPC   PO473476  29.357   1.771   5.458
 5813POPC   GL173477  29.123   2.006   5.794
 5813POPC   GL273478  29.199   2.359   5.849
 5813POPC   C1A73479  28.814   2.127   6.146
 5813POPC   D2A73480  28.815   2.012   6.613
 5813POPC   C3A73481  28.894   2.119   7.068
 5813POPC   C4A73482  28.967   1.790   7.353
 5813POPC   C1B73483  29.310   2.164   6.272
 5813POPC   C2B73484  29.300   2.173   6.743
 5813POPC   C3B73485  29.400   2.009   7.121
 5813POPC   C4B73486  29.288   2.231   7.461
 5814POPC   NC373487  15.534  38.501   5.371
 5814POPC   PO473488  14.902  38.497   5.424
 5814POPC   GL173489  15.012  38.446   5.840
 5814POPC   GL273490  15.324  38.545   5.868
 5814POPC   C1A73491  15.048  38.479   6.282
 5814POPC   D2A73492  14.973  38.237   6.566
 5814POPC   C3A73493  14.819  38.348   6.934
 5814POPC   C4A73494  15.040  38.325   7.303
 5814POPC   C1B73495  15.461  38.779   6.287
 5814POPC   C2B73496  15.445  38.761   6.737
 5814POPC   C3B73497  15.135  38.770   7.061
 5814POPC   C4B73498  15.241  38.792   7.483
 5815POPC   NC373499  37.292  41.328   5.529
 5815POPC   PO473500  36.998  41.925   5.573
 5815POPC   GL173501  36.751  41.704   5.833
 5815POPC   GL273502  36.902  41.366   5.864
 5815POPC   C1A73503  36.638  41.773   6.271
 5815POPC   D2A73504  36.881  41.806   6.647
 5815POPC   C3A73505  36.689  41.830   7.003
 5815POPC   C4A73506  36.580  41.434   7.173
 5815POPC   C1B73507  37.129  41.596   6.200
 5815POPC   C2B73508  37.332  41.531   6.595
 5815POPC   C3B73509  37.238  41.594   7.011
 5815POPC   C4B73510  37.482  41.700   7.392
 5816POPC   NC373511   5.166  33.166   5.497
 5816POPC   PO473512   5.270  32.520   5.316
 5816POPC   GL173513   5.204  32.711   5.743
 5816POPC   GL273514   5.450  32.908   5.848
 5816POPC   C1A73515   5.057  32.951   6.151
 5816POPC   D2A73516   4.869  33.083   6.553
 5816POPC   C3A73517   5.086  33.111   6.949
 5816POPC   C4A73518   4.859  32.915   7.240
 5816POPC   C1B73519   5.510  32.678   6.199
 5816POPC   C2B73520   5.388  32.838   6.590
 5816POPC   C3B73521   5.375  32.660   7.011
 5816POPC   C4B73522   5.288  32.731   7.436
 5817POPC   NC373523  27.464   0.683   5.462
 5817POPC   PO473524  27.651   1.330   5.470
 5817POPC   GL173525  27.568   1.266   5.856
 5817POPC   GL273526  27.264   1.092   5.800
 5817POPC   C1A73527  27.818   1.321   6.229
 5817POPC   D2A73528  28.019   1.084   6.577
 5817POPC   C3A73529  27.799   1.060   6.962
 5817POPC   C4A73530  27.732   1.384   7.184
 5817POPC   C1B73531  27.334   1.097   6.263
 5817POPC   C2B73532  27.500   1.294   6.631
 5817POPC   C3B73533  27.266   1.367   6.991
 5817POPC   C4B73534  26.962   1.115   7.189
 5818POPC   NC373535  24.112  29.453   5.633
 5818POPC   PO473536  23.492  29.620   5.440
 5818POPC   GL173537  23.681  29.834   5.787
 5818POPC   GL273538  23.720  30.196   5.751
 5818POPC   C1A73539  23.852  29.865   6.199
 5818POPC   D2A73540  23.975  29.736   6.595
 5818POPC   C3A73541  23.791  29.850   6.964
 5818POPC   C4A73542  23.853  29.744   7.380
 5818POPC   C1B73543  23.466  30.199   6.099
 5818POPC   C2B73544  23.537  30.132   6.536
 5818POPC   C3B73545  23.406  30.202   6.976
 5818POPC   C4B73546  23.657  30.203   7.343
 5819POPC   NC373547   6.951   2.658   5.154
 5819POPC   PO473548   6.455   3.071   5.366
 5819POPC   GL173549   6.634   2.739   5.682
 5819POPC   GL273550   6.375   2.475   5.759
 5819POPC   C1A73551   6.714   2.557   6.145
 5819POPC   D2A73552   6.898   2.647   6.563
 5819POPC   C3A73553   6.712   2.530   6.954
 5819POPC   C4A73554   6.790   2.691   7.376
 5819POPC   C1B73555   6.299   2.813   6.128
 5819POPC   C2B73556   6.438   2.892   6.598
 5819POPC   C3B73557   6.411   2.925   7.080
 5819POPC   C4B73558   6.469   3.067   7.521
 5820POPC   NC373559  13.242  40.887   5.082
 5820POPC   PO473560  13.767  40.631   5.444
 5820POPC   GL173561  13.660  40.680   5.840
 5820POPC   GL273562  13.491  40.981   5.796
 5820POPC   C1A73563  13.839  40.546   6.219
 5820POPC   D2A73564  13.779  40.732   6.614
 5820POPC   C3A73565  13.882  40.453   6.956
 5820POPC   C4A73566  13.720  40.558   7.342
 5820POPC   C1B73567  13.449  41.006   6.231
 5820POPC   C2B73568  13.517  41.171   6.637
 5820POPC   C3B73569  13.516  40.931   7.016
 5820POPC   C4B73570  13.635  41.063   7.408
 5821POPC   NC373571  34.486  11.529   5.353
 5821POPC   PO473572  34.886  11.137   5.592
 5821POPC   GL173573  34.762  11.026   6.013
 5821POPC   GL273574  34.588  11.330   5.985
 5821POPC   C1A73575  34.586  11.076   6.450
 5821POPC   D2A73576  34.385  11.232   6.833
 5821POPC   C3A73577  34.545  11.197   7.269
 5821POPC   C4A73578  34.696  11.418   7.648
 5821POPC   C1B73579  34.333  11.532   6.288
 5821POPC   C2B73580  34.208  11.722   6.670
 5821POPC   C3B73581  34.013  11.547   7.013
 5821POPC   C4B73582  34.215  11.569   7.390
 5822POPC   NC373583  24.437  16.439   5.269
 5822POPC   PO473584  24.371  17.114   5.342
 5822POPC   GL173585  24.545  16.944   5.747
 5822POPC   GL273586  24.536  16.589   5.767
 5822POPC   C1A73587  24.724  16.924   6.167
 5822POPC   D2A73588  24.600  16.796   6.582
 5822POPC   C3A73589  24.652  16.981   6.978
 5822POPC   C4A73590  24.296  16.770   7.099
 5822POPC   C1B73591  24.321  16.567   6.185
 5822POPC   C2B73592  24.304  16.333   6.590
 5822POPC   C3B73593  24.515  16.320   6.970
 5822POPC   C4B73594  24.740  16.556   7.290
 5823POPC   NC373595  17.075  19.079   5.441
 5823POPC   PO473596  16.443  18.881   5.636
 5823POPC   GL173597  16.628  19.241   5.835
 5823POPC   GL273598  16.301  19.313   5.969
 5823POPC   C1A73599  16.942  19.305   6.192
 5823POPC   D2A73600  17.161  19.220   6.610
 5823POPC   C3A73601  16.958  19.186   7.030
 5823POPC   C4A73602  16.560  19.206   7.267
 5823POPC   C1B73603  16.502  19.046   6.308
 5823POPC   C2B73604  16.739  18.874   6.674
 5823POPC   C3B73605  16.557  18.701   7.054
 5823POPC   C4B73606  16.397  18.757   7.490
 5824POPC   NC373607  30.919  19.951   5.317
 5824POPC   PO473608  30.350  19.722   5.694
 5824POPC   GL173609  30.792  19.780   5.846
 5824POPC   GL273610  30.946  20.103   5.793
 5824POPC   C1A73611  30.959  19.607   6.243
 5824POPC   D2A73612  31.073  19.690   6.682
 5824POPC   C3A73613  30.710  19.625   7.004
 5824POPC   C4A73614  30.740  19.637   7.502
 5824POPC   C1B73615  31.173  20.139   6.170
 5824POPC   C2B73616  31.087  20.254   6.603
 5824POPC   C3B73617  30.958  20.088   7.023
 5824POPC   C4B73618  30.555  20.045   7.221
 5825POPC   NC373619  42.015  23.082   5.488
 5825POPC   PO473620  41.388  22.797   5.451
 5825POPC   GL173621  41.690  22.753   5.808
 5825POPC   GL273622  41.780  23.088   5.939
 5825POPC   C1A73623  41.542  22.785   6.255
 5825POPC   D2A73624  41.704  22.938   6.635
 5825POPC   C3A73625  41.461  22.839   7.023
 5825POPC   C4A73626  41.372  22.683   7.444
 5825POPC   C1B73627  41.780  23.401   6.262
 5825POPC   C2B73628  41.632  23.478   6.671
 5825POPC   C3B73629  41.827  23.265   7.003
 5825POPC   C4B73630  42.053  23.269   7.376
 5826POPC   NC373631  42.270  23.510   5.073
 5826POPC   PO473632  42.567  24.036   5.398
 5826POPC   GL173633  42.352  23.725   5.756
 5826POPC   GL273634  42.194  23.393   5.852
 5826POPC   C1A73635  42.145  23.803   6.162
 5826POPC   D2A73636  42.223  23.993   6.561
 5826POPC   C3A73637  42.078  23.717   6.859
 5826POPC   C4A73638  42.180  23.848   7.250
 5826POPC   C1B73639  42.546  23.450   6.126
 5826POPC   C2B73640  42.595  23.665   6.494
 5826POPC   C3B73641  42.604  23.749   6.933
 5826POPC   C4B73642  42.579  23.499   7.292
 5827POPC   NC373643   9.682  12.641   5.397
 5827POPC   PO473644   9.878  13.230   5.512
 5827POPC   GL173645   9.571  12.997   5.796
 5827POPC   GL273646   9.556  12.615   5.886
 5827POPC   C1A73647   9.685  12.974   6.238
 5827POPC   D2A73648   9.959  13.111   6.581
 5827POPC   C3A73649   9.676  13.140   6.915
 5827POPC   C4A73650   9.549  13.155   7.324
 5827POPC   C1B73651   9.756  12.458   6.299
 5827POPC   C2B73652   9.797  12.632   6.697
 5827POPC   C3B73653  10.017  12.791   7.030
 5827POPC   C4B73654   9.829  12.736   7.393
 5828POPC   NC373655  18.439  18.501   5.541
 5828POPC   PO473656  17.843  18.279   5.359
 5828POPC   GL173657  18.034  18.392   5.789
 5828POPC   GL273658  18.206  18.084   5.827
 5828POPC   C1A73659  18.343  18.440   6.176
 5828POPC   D2A73660  18.511  18.619   6.561
 5828POPC   C3A73661  18.317  18.450   6.907
 5828POPC   C4A73662  18.556  18.453   7.238
 5828POPC   C1B73663  18.221  17.873   6.236
 5828POPC   C2B73664  18.222  17.989   6.672
 5828POPC   C3B73665  18.397  17.954   7.094
 5828POPC   C4B73666  18.248  18.130   7.479
 5829POPC   NC373667  31.943  40.990   5.378
 5829POPC   PO473668  32.664  41.049   5.298
 5829POPC   GL173669  32.363  41.070   5.674
 5829POPC   GL273670  32.210  40.730   5.783
 5829POPC   C1A73671  32.267  41.141   6.135
 5829POPC   D2A73672  32.400  40.935   6.533
 5829POPC   C3A73673  32.208  40.976   6.932
 5829POPC   C4A73674  32.290  40.571   7.088
 5829POPC   C1B73675  32.020  40.701   6.225
 5829POPC   C2B73676  31.960  40.533   6.664
 5829POPC   C3B73677  31.788  40.661   7.075
 5829POPC   C4B73678  31.863  41.019   7.352
 5830POPC   NC373679  17.774  16.367   5.628
 5830POPC   PO473680  17.525  16.986   5.592
 5830POPC   GL173681  17.760  16.951   5.968
 5830POPC   GL273682  17.620  16.610   6.075
 5830POPC   C1A73683  17.884  16.872   6.413
 5830POPC   D2A73684  17.631  16.532   6.629
 5830POPC   C3A73685  17.467  16.690   6.989
 5830POPC   C4A73686  17.680  16.756   7.375
 5830POPC   C1B73687  17.358  16.884   6.376
 5830POPC   C2B73688  17.137  17.064   6.754
 5830POPC   C3B73689  17.209  17.067   7.204
 5830POPC   C4B73690  17.192  16.663   7.459
 5831POPC   NC373691  16.523  32.046   5.472
 5831POPC   PO473692  17.047  32.358   5.139
 5831POPC   GL173693  16.975  32.307   5.629
 5831POPC   GL273694  16.644  32.396   5.832
 5831POPC   C1A73695  16.967  32.033   6.031
 5831POPC   D2A73696  16.999  32.105   6.494
 5831POPC   C3A73697  16.915  32.053   6.970
 5831POPC   C4A73698  16.779  32.422   7.228
 5831POPC   C1B73699  16.494  32.156   6.229
 5831POPC   C2B73700  16.511  31.939   6.665
 5831POPC   C3B73701  16.347  32.059   7.097
 5831POPC   C4B73702  16.296  31.983   7.586
 5832POPC   NC373703  31.553  30.195   5.401
 5832POPC   PO473704  31.852  29.610   5.381
 5832POPC   GL173705  31.629  29.787   5.768
 5832POPC   GL273706  31.552  30.104   5.910
 5832POPC   C1A73707  31.442  29.660   6.160
 5832POPC   D2A73708  31.562  29.824   6.565
 5832POPC   C3A73709  31.335  29.846   6.929
 5832POPC   C4A73710  31.383  29.585   7.262
 5832POPC   C1B73711  31.816  30.181   6.286
 5832POPC   C2B73712  32.088  30.311   6.631
 5832POPC   C3B73713  31.771  30.184   6.905
 5832POPC   C4B73714  31.607  30.045   7.307
 5833POPC   NC373715  40.535  26.933   5.437
 5833POPC   PO473716  41.223  26.720   5.434
 5833POPC   GL173717  40.904  26.713   5.758
 5833POPC   GL273718  41.017  27.016   5.833
 5833POPC   C1A73719  40.685  26.781   6.153
 5833POPC   D2A73720  40.727  27.008   6.535
 5833POPC   C3A73721  40.718  26.833   6.947
 5833POPC   C4A73722  40.772  26.511   7.243
 5833POPC   C1B73723  41.159  26.942   6.272
 5833POPC   C2B73724  41.212  26.963   6.719
 5833POPC   C3B73725  41.157  27.047   7.160
 5833POPC   C4B73726  41.064  27.436   7.385
 5834POPC   NC373727   0.773  28.931   5.152
 5834POPC   PO473728   1.208  29.472   5.390
 5834POPC   GL173729   0.977  29.387   5.760
 5834POPC   GL273730   1.291  29.226   5.865
 5834POPC   C1A73731   0.919  29.297   6.218
 5834POPC   D2A73732   0.919  29.108   6.607
 5834POPC   C3A73733   0.919  29.360   6.989
 5834POPC   C4A73734   1.010  29.275   7.415
 5834POPC   C1B73735   1.410  29.403   6.277
 5834POPC   C2B73736   1.415  29.221   6.712
 5834POPC   C3B73737   1.188  28.931   7.014
 5834POPC   C4B73738   1.344  28.878   7.424
 5835POPC   NC373739  22.209  17.340   5.346
 5835POPC   PO473740  22.670  17.642   5.541
 5835POPC   GL173741  22.298  17.503   5.843
 5835POPC   GL273742  22.208  17.158   5.818
 5835POPC   C1A73743  22.067  17.419   6.267
 5835POPC   D2A73744  22.233  17.475   6.718
 5835POPC   C3A73745  22.041  17.714   7.066
 5835POPC   C4A73746  22.141  18.018   7.413
 5835POPC   C1B73747  22.356  16.989   6.178
 5835POPC   C2B73748  22.192  16.994   6.560
 5835POPC   C3B73749  22.010  17.047   6.941
 5835POPC   C4B73750  22.150  17.244   7.302
 5836POPC   NC373751  26.127  44.182   5.350
 5836POPC   PO473752  25.914  43.533   5.411
 5836POPC   GL173753  25.948  43.875   5.738
 5836POPC   GL273754  25.574  43.930   5.791
 5836POPC   C1A73755  26.140  43.978   6.189
 5836POPC   D2A73756  26.263  43.874   6.634
 5836POPC   C3A73757  26.249  44.041   7.065
 5836POPC   C4A73758  26.216  43.726   7.378
 5836POPC   C1B73759  25.722  43.691   6.139
 5836POPC   C2B73760  25.774  43.747   6.553
 5836POPC   C3B73761  25.888  43.676   6.972
 5836POPC   C4B73762  25.727  43.805   7.348
 5837POPC   NC373763  18.023  19.398   5.609
 5837POPC   PO473764  18.580  18.948   5.455
 5837POPC   GL173765  18.296  18.950   5.775
 5837POPC   GL273766  17.989  18.876   5.615
 5837POPC   C1A73767  18.376  18.970   6.214
 5837POPC   D2A73768  18.433  19.139   6.621
 5837POPC   C3A73769  18.333  18.938   7.024
 5837POPC   C4A73770  18.559  18.927   7.422
 5837POPC   C1B73771  17.893  18.870   6.084
 5837POPC   C2B73772  17.943  19.123   6.482
 5837POPC   C3B73773  18.046  19.350   6.896
 5837POPC   C4B73774  17.910  19.077   7.280
 5838POPC   NC373775   8.398  34.172   5.423
 5838POPC   PO473776   8.335  33.481   5.374
 5838POPC   GL173777   8.352  33.768   5.759
 5838POPC   GL273778   8.074  33.976   5.782
 5838POPC   C1A73779   8.314  33.872   6.223
 5838POPC   D2A73780   8.018  33.923   6.581
 5838POPC   C3A73781   8.170  33.759   6.990
 5838POPC   C4A73782   7.999  33.406   7.226
 5838POPC   C1B73783   8.007  34.300   6.138
 5838POPC   C2B73784   8.115  34.428   6.527
 5838POPC   C3B73785   8.090  34.274   6.946
 5838POPC   C4B73786   8.082  34.101   7.374
 5839POPC   NC373787  16.162  31.337   5.502
 5839POPC   PO473788  15.785  31.940   5.505
 5839POPC   GL173789  15.861  31.641   5.824
 5839POPC   GL273790  15.765  31.274   5.828
 5839POPC   C1A73791  15.854  31.629   6.254
 5839POPC   D2A73792  15.724  31.684   6.645
 5839POPC   C3A73793  16.077  31.679   6.865
 5839POPC   C4A73794  16.017  31.669   7.278
 5839POPC   C1B73795  16.121  31.206   6.154
 5839POPC   C2B73796  16.022  31.170   6.607
 5839POPC   C3B73797  15.838  31.246   7.026
 5839POPC   C4B73798  15.879  31.201   7.495
 5840POPC   NC373799  27.693  32.752   5.491
 5840POPC   PO473800  27.687  32.182   5.465
 5840POPC   GL173801  27.525  32.312   5.868
 5840POPC   GL273802  27.341  31.978   5.930
 5840POPC   C1A73803  27.621  32.306   6.333
 5840POPC   D2A73804  27.814  32.380   6.742
 5840POPC   C3A73805  27.613  32.240   7.133
 5840POPC   C4A73806  27.829  32.200   7.555
 5840POPC   C1B73807  27.197  32.017   6.361
 5840POPC   C2B73808  27.132  32.205   6.765
 5840POPC   C3B73809  27.158  32.018   7.158
 5840POPC   C4B73810  27.455  31.805   7.459
 5841POPC   NC373811  16.235   3.634   5.381
 5841POPC   PO473812  15.681   3.254   5.405
 5841POPC   GL173813  15.782   3.511   5.732
 5841POPC   GL273814  16.105   3.414   5.798
 5841POPC   C1A73815  15.724   3.482   6.181
 5841POPC   D2A73816  15.515   3.765   6.479
 5841POPC   C3A73817  15.570   3.567   6.853
 5841POPC   C4A73818  15.865   3.435   7.174
 5841POPC   C1B73819  16.240   3.506   6.184
 5841POPC   C2B73820  16.057   3.515   6.609
 5841POPC   C3B73821  16.274   3.648   6.975
 5841POPC   C4B73822  16.364   3.333   7.284
 5842POPC   NC373823  39.850  20.092   5.443
 5842POPC   PO473824  40.338  19.652   5.416
 5842POPC   GL173825  40.105  19.690   5.791
 5842POPC   GL273826  40.091  20.027   5.903
 5842POPC   C1A73827  39.794  19.696   6.142
 5842POPC   D2A73828  39.694  20.006   6.449
 5842POPC   C3A73829  39.854  19.898   6.863
 5842POPC   C4A73830  39.670  19.797   7.279
 5842POPC   C1B73831  40.286  20.221   6.282
 5842POPC   C2B73832  40.354  19.968   6.634
 5842POPC   C3B73833  40.368  19.791   7.043
 5842POPC   C4B73834  40.165  19.909   7.373
 5843POPC   NC373835  24.174  36.914   5.559
 5843POPC   PO473836  24.613  37.344   5.422
 5843POPC   GL173837  24.635  37.106   5.800
 5843POPC   GL273838  24.323  37.180   5.978
 5843POPC   C1A73839  24.614  36.775   6.130
 5843POPC   D2A73840  24.367  36.576   6.472
 5843POPC   C3A73841  24.318  36.852   6.841
 5843POPC   C4A73842  24.489  36.843   7.268
 5843POPC   C1B73843  24.650  37.281   6.285
 5843POPC   C2B73844  24.502  37.315   6.705
 5843POPC   C3B73845  24.725  37.272   7.083
 5843POPC   C4B73846  24.717  37.236   7.530
 5844POPC   NC373847  35.965  23.433   5.547
 5844POPC   PO473848  36.325  22.865   5.388
 5844POPC   GL173849  36.111  22.924   5.800
 5844POPC   GL273850  35.766  23.017   5.810
 5844POPC   C1A73851  36.047  23.145   6.230
 5844POPC   D2A73852  35.928  23.208   6.689
 5844POPC   C3A73853  36.188  22.877   6.918
 5844POPC   C4A73854  36.432  22.767   7.306
 5844POPC   C1B73855  35.808  22.698   6.165
 5844POPC   C2B73856  35.770  22.711   6.633
 5844POPC   C3B73857  35.766  22.671   7.095
 5844POPC   C4B73858  35.728  22.477   7.479
 5845POPC   NC373859  34.263  43.831   5.255
 5845POPC   PO473860  34.765  43.456   5.672
 5845POPC   GL173861  34.375  43.663   5.767
 5845POPC   GL273862  34.337  44.032   5.706
 5845POPC   C1A73863  34.265  43.607   6.197
 5845POPC   D2A73864  34.458  43.504   6.606
 5845POPC   C3A73865  34.416  43.736   6.989
 5845POPC   C4A73866  34.629  43.656   7.385
 5845POPC   C1B73867  34.337  44.141   6.111
 5845POPC   C2B73868  34.391  44.018   6.529
 5845POPC   C3B73869  34.536  44.206   6.887
 5845POPC   C4B73870  34.603  44.147   7.292
 5846POPC   NC373871  40.087  43.090   5.364
 5846POPC   PO473872  39.613  43.446   5.143
 5846POPC   GL173873  39.694  43.195   5.638
 5846POPC   GL273874  40.003  43.367   5.795
 5846POPC   C1A73875  39.771  43.022   6.078
 5846POPC   D2A73876  39.789  42.905   6.529
 5846POPC   C3A73877  39.802  43.208   6.862
 5846POPC   C4A73878  39.833  43.027   7.253
 5846POPC   C1B73879  40.206  43.319   6.234
 5846POPC   C2B73880  40.219  43.485   6.686
 5846POPC   C3B73881  40.292  43.276   7.126
 5846POPC   C4B73882  40.623  43.114   7.447
 5847POPC   NC373883  10.278  35.201   5.413
 5847POPC   PO473884  10.522  35.836   5.450
 5847POPC   GL173885  10.662  35.436   5.743
 5847POPC   GL273886  10.469  35.124   5.878
 5847POPC   C1A73887  10.796  35.382   6.200
 5847POPC   D2A73888  10.642  35.294   6.612
 5847POPC   C3A73889  10.830  35.488   6.957
 5847POPC   C4A73890  10.730  35.323   7.338
 5847POPC   C1B73891  10.290  35.322   6.236
 5847POPC   C2B73892  10.120  35.263   6.656
 5847POPC   C3B73893  10.307  35.311   7.075
 5847POPC   C4B73894  10.302  35.187   7.563
 5848POPC   NC373895  12.427  12.792   5.420
 5848POPC   PO473896  11.698  13.038   5.397
 5848POPC   GL173897  11.958  13.073   5.746
 5848POPC   GL273898  12.034  12.726   5.758
 5848POPC   C1A73899  12.165  13.053   6.168
 5848POPC   D2A73900  12.389  13.170   6.582
 5848POPC   C3A73901  12.166  13.080   6.972
 5848POPC   C4A73902  12.236  12.865   7.350
 5848POPC   C1B73903  12.007  12.580   6.189
 5848POPC   C2B73904  12.103  12.729   6.593
 5848POPC   C3B73905  11.999  12.594   6.989
 5848POPC   C4B73906  12.269  12.329   7.226
 5849POPC   NC373907   5.145   4.554   5.483
 5849POPC   PO473908   4.979   3.920   5.344
 5849POPC   GL173909   5.129   4.095   5.803
 5849POPC   GL273910   5.269   4.456   5.942
 5849POPC   C1A73911   5.119   4.143   6.279
 5849POPC   D2A73912   4.975   4.466   6.554
 5849POPC   C3A73913   5.086   4.359   6.971
 5849POPC   C4A73914   4.925   4.090   7.273
 5849POPC   C1B73915   5.546   4.585   6.252
 5849POPC   C2B73916   5.448   4.624   6.696
 5849POPC   C3B73917   5.521   4.628   7.110
 5849POPC   C4B73918   5.390   4.296   7.374
 5850POPC   NC373919  25.657  28.680   5.746
 5850POPC   PO473920  25.956  28.101   5.437
 5850POPC   GL173921  26.108  28.124   5.870
 5850POPC   GL273922  26.063  28.441   5.946
 5850POPC   C1A73923  26.192  28.118   6.314
 5850POPC   D2A73924  26.242  28.158   6.747
 5850POPC   C3A73925  25.863  28.333   6.926
 5850POPC   C4A73926  25.777  28.526   7.323
 5850POPC   C1B73927  26.213  28.636   6.317
 5850POPC   C2B73928  26.166  28.691   6.757
 5850POPC   C3B73929  26.257  28.527   7.170
 5850POPC   C4B73930  26.503  28.388   7.522
 5851POPC   NC373931  43.684  24.734   5.102
 5851POPC   PO473932  44.100  24.372   5.456
 5851POPC   GL173933  43.800  24.446   5.778
 5851POPC   GL273934  44.002  24.699   5.888
 5851POPC   C1A73935  43.772  24.337   6.232
 5851POPC   D2A73936  44.020  24.341   6.617
 5851POPC   C3A73937  43.914  24.218   7.029
 5851POPC   C4A73938  43.817  24.314   7.450
 5851POPC   C1B73939  44.049  24.778   6.332
 5851POPC   C2B73940  43.696  24.738   6.621
 5851POPC   C3B73941  43.710  24.691   7.050
 5851POPC   C4B73942  44.065  24.757   7.294
 5852POPC   NC373943  42.737  41.901   5.374
 5852POPC   PO473944  43.337  41.684   5.545
 5852POPC   GL173945  43.250  41.466   5.914
 5852POPC   GL273946  42.887  41.398   5.927
 5852POPC   C1A73947  43.209  41.523   6.326
 5852POPC   D2A73948  42.936  41.458   6.619
 5852POPC   C3A73949  43.175  41.546   6.931
 5852POPC   C4A73950  43.235  41.217   7.182
 5852POPC   C1B73951  42.875  41.833   6.115
 5852POPC   C2B73952  43.054  41.961   6.549
 5852POPC   C3B73953  42.794  41.888   6.894
 5852POPC   C4B73954  42.839  41.711   7.262
 5853POPC   NC373955   7.221  43.394   5.523
 5853POPC   PO473956   7.576  42.793   5.409
 5853POPC   GL173957   7.400  42.928   5.776
 5853POPC   GL273958   7.615  43.227   5.822
 5853POPC   C1A73959   7.350  42.790   6.206
 5853POPC   D2A73960   7.607  42.973   6.544
 5853POPC   C3A73961   7.387  42.902   6.913
 5853POPC   C4A73962   7.147  42.842   7.280
 5853POPC   C1B73963   7.387  43.295   6.179
 5853POPC   C2B73964   7.392  43.447   6.575
 5853POPC   C3B73965   7.579  43.372   6.947
 5853POPC   C4B73966   7.308  43.315   7.244
 5854POPC   NC373967   4.617   9.682   5.479
 5854POPC   PO473968   4.076  10.024   5.301
 5854POPC   GL173969   4.153   9.780   5.731
 5854POPC   GL273970   4.006   9.446   5.835
 5854POPC   C1A73971   4.239   9.727   6.200
 5854POPC   D2A73972   4.464   9.856   6.572
 5854POPC   C3A73973   4.333   9.774   6.995
 5854POPC   C4A73974   4.676   9.785   7.296
 5854POPC   C1B73975   4.130   9.228   6.198
 5854POPC   C2B73976   4.262   9.373   6.595
 5854POPC   C3B73977   4.384   9.198   6.977
 5854POPC   C4B73978   4.352   9.404   7.360
 5855POPC   NC373979   7.602  12.448   5.429
 5855POPC   PO473980   7.536  13.163   5.421
 5855POPC   GL173981   7.341  12.949   5.800
 5855POPC   GL273982   7.356  12.571   5.868
 5855POPC   C1A73983   7.399  12.913   6.261
 5855POPC   D2A73984   7.583  13.158   6.590
 5855POPC   C3A73985   7.376  13.044   6.993
 5855POPC   C4A73986   7.627  12.797   7.269
 5855POPC   C1B73987   7.160  12.441   6.280
 5855POPC   C2B73988   7.235  12.609   6.715
 5855POPC   C3B73989   7.187  12.534   7.182
 5855POPC   C4B73990   7.384  12.509   7.593
 5856POPC   NC373991  18.229  41.303   5.489
 5856POPC   PO473992  18.048  41.891   5.374
 5856POPC   GL173993  18.205  41.733   5.776
 5856POPC   GL273994  17.930  41.553   5.874
 5856POPC   C1A73995  18.398  41.460   6.115
 5856POPC   D2A73996  18.326  41.397   6.554
 5856POPC   C3A73997  18.421  41.151   6.915
 5856POPC   C4A73998  18.445  41.375   7.314
 5856POPC   C1B73999  17.902  41.306   6.263
 5856POPC   C2B74000  17.858  41.258   6.719
 5856POPC   C3B74001  18.053  41.524   7.027
 5856POPC   C4B74002  17.953  41.600   7.465
 5857POPC   NC374003  14.370  44.292   5.489
 5857POPC   PO474004  14.633  44.976   5.562
 5857POPC   GL174005  14.379  44.704   5.807
 5857POPC   GL274006  14.121  44.883   6.004
 5857POPC   C1A74007  14.273  44.414   6.147
 5857POPC   D2A74008  14.108  44.344   6.548
 5857POPC   C3A74009  14.209  44.603   6.891
 5857POPC   C4A74010  14.349  44.352   7.245
 5857POPC   C1B74011  14.512  44.981   6.216
 5857POPC   C2B74012  14.580  44.704   6.504
 5857POPC   C3B74013  14.704  44.762   6.892
 5857POPC   C4B74014  14.566  44.803   7.273
 5858POPC   NC374015  10.968   1.200   5.458
 5858POPC   PO474016  10.289   1.386   5.304
 5858POPC   GL174017  10.214   1.334   5.729
 5858POPC   GL274018  10.460   1.052   5.721
 5858POPC   C1A74019  10.389   1.369   6.159
 5858POPC   D2A74020  10.316   1.083   6.525
 5858POPC   C3A74021  10.371   1.237   6.946
 5858POPC   C4A74022  10.268   1.536   7.307
 5858POPC   C1B74023  10.652   0.940   6.129
 5858POPC   C2B74024  10.828   1.136   6.501
 5858POPC   C3B74025  10.900   1.292   6.901
 5858POPC   C4B74026  10.716   1.323   7.297
 5859POPC   NC374027  22.216  29.776   5.469
 5859POPC   PO474028  21.897  30.378   5.386
 5859POPC   GL174029  22.019  30.116   5.778
 5859POPC   GL274030  22.346  30.196   5.845
 5859POPC   C1A74031  22.115  29.902   6.226
 5859POPC   D2A74032  22.273  29.785   6.685
 5859POPC   C3A74033  22.073  29.803   7.108
 5859POPC   C4A74034  22.090  29.651   7.516
 5859POPC   C1B74035  22.473  30.264   6.238
 5859POPC   C2B74036  22.597  30.171   6.641
 5859POPC   C3B74037  22.469  30.121   7.066
 5859POPC   C4B74038  22.435  30.061   7.497
 5860POPC   NC374039  38.255  17.287   5.367
 5860POPC   PO474040  38.097  17.872   5.216
 5860POPC   GL174041  38.425  17.746   5.623
 5860POPC   GL274042  38.431  17.399   5.815
 5860POPC   C1A74043  38.533  17.793   6.107
 5860POPC   D2A74044  38.216  17.689   6.449
 5860POPC   C3A74045  38.394  17.559   6.859
 5860POPC   C4A74046  38.588  17.723   7.232
 5860POPC   C1B74047  38.628  17.299   6.208
 5860POPC   C2B74048  38.465  17.117   6.573
 5860POPC   C3B74049  38.363  17.051   6.987
 5860POPC   C4B74050  38.773  17.144   7.179
 5861POPC   NC374051  34.404  40.307   5.472
 5861POPC   PO474052  35.008  39.892   5.503
 5861POPC   GL174053  34.740  39.852   5.902
 5861POPC   GL274054  34.448  40.058   5.910
 5861POPC   C1A74055  34.628  39.864   6.372
 5861POPC   D2A74056  34.795  40.077   6.753
 5861POPC   C3A74057  34.571  39.943   7.130
 5861POPC   C4A74058  34.485  40.077   7.559
 5861POPC   C1B74059  34.340  40.302   6.275
 5861POPC   C2B74060  34.324  40.262   6.692
 5861POPC   C3B74061  34.300  40.401   7.106
 5861POPC   C4B74062  34.350  40.562   7.529
 5862POPC   NC374063   3.192   2.764   5.417
 5862POPC   PO474064   2.610   2.416   5.454
 5862POPC   GL174065   2.781   2.729   5.755
 5862POPC   GL274066   2.999   2.471   5.789
 5862POPC   C1A74067   2.668   2.970   6.164
 5862POPC   D2A74068   2.485   2.824   6.568
 5862POPC   C3A74069   2.499   2.948   7.031
 5862POPC   C4A74070   2.511   2.922   7.504
 5862POPC   C1B74071   2.818   2.483   6.215
 5862POPC   C2B74072   3.054   2.778   6.497
 5862POPC   C3B74073   3.207   2.878   6.925
 5862POPC   C4B74074   2.968   2.769   7.307
 5863POPC   NC374075   0.140  36.740   5.078
 5863POPC   PO474076   0.386  37.327   5.421
 5863POPC   GL174077   0.443  37.085   5.848
 5863POPC   GL274078   0.504  36.744   5.837
 5863POPC   C1A74079   0.455  36.897   6.304
 5863POPC   D2A74080   0.191  36.799   6.624
 5863POPC   C3A74081   0.295  36.930   7.001
 5863POPC   C4A74082   0.059  37.088   7.330
 5863POPC   C1B74083   0.655  36.433   6.198
 5863POPC   C2B74084   0.613  36.498   6.659
 5863POPC   C3B74085   0.640  36.579   7.133
 5863POPC   C4B74086   0.440  36.805   7.488
 5864POPC   NC374087  10.073   0.093   5.460
 5864POPC   PO474088  10.793   0.070   5.399
 5864POPC   GL174089  10.687   0.402   5.749
 5864POPC   GL274090  10.899   0.721   5.717
 5864POPC   C1A74091  10.451   0.459   6.195
 5864POPC   D2A74092  10.239   0.545   6.645
 5864POPC   C3A74093  10.442   0.408   7.056
 5864POPC   C4A74094  10.436   0.404   7.561
 5864POPC   C1B74095  10.988   0.549   6.154
 5864POPC   C2B74096  10.770   0.630   6.566
 5864POPC   C3B74097  10.756   0.810   6.973
 5864POPC   C4B74098  10.869   0.542   7.301
 5865POPC   NC374099   3.569   7.605   5.362
 5865POPC   PO474100   3.357   6.999   5.403
 5865POPC   GL174101   3.612   7.031   5.748
 5865POPC   GL274102   3.586   7.390   5.825
 5865POPC   C1A74103   3.471   7.007   6.170
 5865POPC   D2A74104   3.464   7.223   6.552
 5865POPC   C3A74105   3.521   7.064   6.967
 5865POPC   C4A74106   3.481   7.348   7.330
 5865POPC   C1B74107   3.749   7.697   6.123
 5865POPC   C2B74108   3.561   7.720   6.519
 5865POPC   C3B74109   3.653   7.580   6.907
 5865POPC   C4B74110   3.819   7.756   7.261
 5866POPC   NC374111  38.883  44.291   5.571
 5866POPC   PO474112  39.406  44.658   5.454
 5866POPC   GL174113  39.241  44.562   5.837
 5866POPC   GL274114  39.209  44.848   5.984
 5866POPC   C1A74115  39.189  44.448   6.275
 5866POPC   D2A74116  39.243  44.708   6.618
 5866POPC   C3A74117  39.258  44.505   6.982
 5866POPC   C4A74118  39.194  44.255   7.322
 5866POPC   C1B74119  39.514   0.012   6.296
 5866POPC   C2B74120  39.576   0.072   6.698
 5866POPC   C3B74121  39.304   0.028   7.070
 5866POPC   C4B74122  39.337  44.852   7.471
 5867POPC   NC374123  21.983  14.535   5.407
 5867POPC   PO474124  22.505  14.053   5.503
 5867POPC   GL174125  22.319  14.229   5.910
 5867POPC   GL274126  22.215  14.559   5.857
 5867POPC   C1A74127  22.037  14.391   6.289
 5867POPC   D2A74128  22.041  14.697   6.638
 5867POPC   C3A74129  21.925  14.516   7.055
 5867POPC   C4A74130  22.033  14.103   7.209
 5867POPC   C1B74131  22.499  14.615   6.232
 5867POPC   C2B74132  22.562  14.468   6.660
 5867POPC   C3B74133  22.407  14.663   7.040
 5867POPC   C4B74134  22.262  14.538   7.452
 5868POPC   NC374135   4.887  29.374   5.318
 5868POPC   PO474136   4.219  29.209   5.298
 5868POPC   GL174137   4.170  29.363   5.742
 5868POPC   GL274138   4.138  29.037   5.822
 5868POPC   C1A74139   4.183  29.331   6.247
 5868POPC   D2A74140   4.037  29.217   6.695
 5868POPC   C3A74141   4.268  29.336   7.090
 5868POPC   C4A74142   4.516  29.447   7.474
 5868POPC   C1B74143   3.939  28.844   6.173
 5868POPC   C2B74144   4.004  28.696   6.611
 5868POPC   C3B74145   4.200  28.779   7.000
 5868POPC   C4B74146   4.514  28.943   7.305
 5869POPC   NC374147  19.401  11.844   5.581
 5869POPC   PO474148  19.733  12.341   5.187
 5869POPC   GL174149  19.885  12.329   5.686
 5869POPC   GL274150  19.602  12.180   5.883
 5869POPC   C1A74151  19.994  12.194   6.174
 5869POPC   D2A74152  19.835  12.145   6.591
 5869POPC   C3A74153  20.137  11.939   6.827
 5869POPC   C4A74154  20.153  11.963   7.245
 5869POPC   C1B74155  19.564  11.862   6.242
 5869POPC   C2B74156  19.603  11.640   6.651
 5869POPC   C3B74157  19.705  11.774   7.074
 5869POPC   C4B74158  19.573  12.121   7.314
 5870POPC   NC374159  40.191  32.036   5.439
 5870POPC   PO474160  39.620  31.909   5.531
 5870POPC   GL174161  39.918  32.021   5.882
 5870POPC   GL274162  40.049  32.372   5.813
 5870POPC   C1A74163  39.783  32.167   6.297
 5870POPC   D2A74164  39.630  32.316   6.693
 5870POPC   C3A74165  39.789  32.023   7.000
 5870POPC   C4A74166  39.872  32.113   7.454
 5870POPC   C1B74167  40.259  32.305   6.208
 5870POPC   C2B74168  40.187  32.115   6.643
 5870POPC   C3B74169  40.212  32.294   7.089
 5870POPC   C4B74170  40.294  32.380   7.549
 5871POPC   NC374171  28.034   0.131   5.570
 5871POPC   PO474172  27.350   0.266   5.618
 5871POPC   GL174173  27.657   0.399   5.873
 5871POPC   GL274174  27.482   0.668   5.961
 5871POPC   C1A74175  27.652   0.305   6.311
 5871POPC   D2A74176  27.392   0.298   6.672
 5871POPC   C3A74177  27.488   0.397   7.064
 5871POPC   C4A74178  27.633   0.193   7.397
 5871POPC   C1B74179  27.776   0.812   6.183
 5871POPC   C2B74180  27.618   0.773   6.579
 5871POPC   C3B74181  27.318   0.851   6.895
 5871POPC   C4B74182  27.364   0.805   7.357
 5872POPC   NC374183  42.522  37.091   5.534
 5872POPC   PO474184  42.968  36.580   5.307
 5872POPC   GL174185  42.672  36.596   5.760
 5872POPC   GL274186  42.292  36.671   5.749
 5872POPC   C1A74187  42.522  36.888   6.154
 5872POPC   D2A74188  42.249  36.918   6.569
 5872POPC   C3A74189  42.307  36.721   7.002
 5872POPC   C4A74190  42.386  36.923   7.401
 5872POPC   C1B74191  42.103  36.586   6.177
 5872POPC   C2B74192  42.087  36.416   6.612
 5872POPC   C3B74193  41.829  36.522   6.971
 5872POPC   C4B74194  41.879  36.776   7.382
 5873POPC   NC374195  36.691  37.914   5.526
 5873POPC   PO474196  37.323  37.741   5.429
 5873POPC   GL174197  37.137  37.879   5.844
 5873POPC   GL274198  36.907  37.577   5.884
 5873POPC   C1A74199  36.923  37.890   6.296
 5873POPC   D2A74200  36.729  37.599   6.654
 5873POPC   C3A74201  36.773  37.742   7.115
 5873POPC   C4A74202  36.861  37.739   7.597
 5873POPC   C1B74203  37.204  37.469   6.206
 5873POPC   C2B74204  37.264  37.628   6.598
 5873POPC   C3B74205  37.147  37.424   6.922
 5873POPC   C4B74206  37.144  37.438   7.343
 5874POPC   NC374207  30.321  37.261   5.510
 5874POPC   PO474208  30.071  37.887   5.602
 5874POPC   GL174209  29.967  37.512   5.803
 5874POPC   GL274210  30.271  37.432   5.976
 5874POPC   C1A74211  29.658  37.502   6.135
 5874POPC   D2A74212  29.671  37.698   6.538
 5874POPC   C3A74213  29.796  37.428   6.894
 5874POPC   C4A74214  29.703  37.530   7.312
 5874POPC   C1B74215  30.194  37.755   6.265
 5874POPC   C2B74216  30.103  37.942   6.673
 5874POPC   C3B74217  30.147  37.778   7.089
 5874POPC   C4B74218  30.204  37.395   7.272
 5875POPC   NC374219   0.068  16.117   5.308
 5875POPC   PO474220  44.426  15.847   5.563
 5875POPC   GL174221  44.707  15.876   5.880
 5875POPC   GL274222  44.448  16.073   6.022
 5875POPC   C1A74223  44.842  15.887   6.311
 5875POPC   D2A74224  44.852  15.588   6.634
 5875POPC   C3A74225  44.793  15.876   6.945
 5875POPC   C4A74226  44.949  16.061   7.297
 5875POPC   C1B74227  44.626  16.359   6.282
 5875POPC   C2B74228  44.767  16.383   6.685
 5875POPC   C3B74229  44.584  16.347   7.092
 5875POPC   C4B74230  44.516  16.230   7.530
 5876POPC   NC374231   4.835  42.549   5.321
 5876POPC   PO474232   5.267  42.150   5.284
 5876POPC   GL174233   5.179  42.282   5.723
 5876POPC   GL274234   4.977  42.580   5.815
 5876POPC   C1A74235   5.100  42.147   6.152
 5876POPC   D2A74236   5.246  41.939   6.532
 5876POPC   C3A74237   5.132  42.111   6.947
 5876POPC   C4A74238   5.407  42.290   7.251
 5876POPC   C1B74239   5.345  42.610   6.082
 5876POPC   C2B74240   5.340  42.462   6.480
 5876POPC   C3B74241   5.299  42.586   6.854
 5876POPC   C4B74242   5.001  42.594   7.164
 5877POPC   NC374243   0.394  33.617   5.715
 5877POPC   PO474244  44.983  34.162   5.456
 5877POPC   GL174245   0.346  34.143   5.784
 5877POPC   GL274246   0.141  33.966   5.998
 5877POPC   C1A74247   0.617  33.956   6.196
 5877POPC   D2A74248   0.589  33.610   6.527
 5877POPC   C3A74249   0.581  33.790   6.950
 5877POPC   C4A74250   0.680  34.083   7.315
 5877POPC   C1B74251  44.943  33.620   6.241
 5877POPC   C2B74252   0.073  33.441   6.597
 5877POPC   C3B74253  44.986  33.422   7.022
 5877POPC   C4B74254   0.158  33.752   7.239
 5878POPC   NC374255   5.413  12.526   5.421
 5878POPC   PO474256   4.819  12.670   5.525
 5878POPC   GL174257   5.175  12.797   5.821
 5878POPC   GL274258   5.397  13.102   5.762
 5878POPC   C1A74259   5.141  12.920   6.261
 5878POPC   D2A74260   5.307  12.704   6.634
 5878POPC   C3A74261   5.065  12.583   6.974
 5878POPC   C4A74262   5.048  12.633   7.406
 5878POPC   C1B74263   5.598  13.176   6.178
 5878POPC   C2B74264   5.406  13.206   6.601
 5878POPC   C3B74265   5.279  13.073   7.009
 5878POPC   C4B74266   5.426  13.199   7.463
 5879POPC   NC374267  29.808  23.968   5.287
 5879POPC   PO474268  30.336  23.566   5.352
 5879POPC   GL174269  30.014  23.733   5.693
 5879POPC   GL274270  29.812  23.487   5.879
 5879POPC   C1A74271  29.724  23.964   6.023
 5879POPC   D2A74272  29.665  23.827   6.483
 5879POPC   C3A74273  29.866  23.938   6.865
 5879POPC   C4A74274  29.646  23.927   7.257
 5879POPC   C1B74275  30.111  23.708   6.213
 5879POPC   C2B74276  30.445  23.587   6.495
 5879POPC   C3B74277  30.344  23.714   6.899
 5879POPC   C4B74278  30.068  23.629   7.265
 5880POPC   NC374279  18.983  25.530   5.568
 5880POPC   PO474280  19.424  25.120   5.654
 5880POPC   GL174281  19.084  25.137   5.936
 5880POPC   GL274282  19.208  25.461   6.027
 5880POPC   C1A74283  19.081  25.099   6.389
 5880POPC   D2A74284  19.315  25.430   6.616
 5880POPC   C3A74285  19.282  25.404   7.065
 5880POPC   C4A74286  18.976  25.179   7.289
 5880POPC   C1B74287  18.858  25.542   6.243
 5880POPC   C2B74288  18.782  25.454   6.655
 5880POPC   C3B74289  18.808  25.603   7.017
 5880POPC   C4B74290  18.781  25.633   7.420
 5881POPC   NC374291  38.555  18.355   5.450
 5881POPC   PO474292  38.037  18.062   5.722
 5881POPC   GL174293  38.349  18.224   5.951
 5881POPC   GL274294  38.385  18.542   5.902
 5881POPC   C1A74295  38.382  18.203   6.397
 5881POPC   D2A74296  38.559  18.034   6.739
 5881POPC   C3A74297  38.329  18.148   7.108
 5881POPC   C4A74298  38.378  18.192   7.546
 5881POPC   C1B74299  38.637  18.636   6.265
 5881POPC   C2B74300  38.698  18.554   6.720
 5881POPC   C3B74301  38.548  18.607   7.146
 5881POPC   C4B74302  38.437  18.713   7.576
 5882POPC   NC374303  17.442  19.695   5.467
 5882POPC   PO474304  17.337  20.358   5.518
 5882POPC   GL174305  17.188  19.985   5.795
 5882POPC   GL274306  17.497  19.781   5.959
 5882POPC   C1A74307  17.051  19.813   6.206
 5882POPC   D2A74308  17.249  19.853   6.602
 5882POPC   C3A74309  17.291  19.610   6.969
 5882POPC   C4A74310  17.349  19.850   7.345
 5882POPC   C1B74311  17.868  19.875   6.234
 5882POPC   C2B74312  17.992  19.956   6.656
 5882POPC   C3B74313  17.748  19.857   6.985
 5882POPC   C4B74314  17.779  19.567   7.296
 5883POPC   NC374315   3.790  26.411   5.459
 5883POPC   PO474316   3.305  26.842   5.330
 5883POPC   GL174317   3.310  26.741   5.792
 5883POPC   GL274318   3.674  26.694   5.883
 5883POPC   C1A74319   3.377  26.853   6.264
 5883POPC   D2A74320   3.457  27.058   6.667
 5883POPC   C3A74321   3.216  26.969   7.038
 5883POPC   C4A74322   3.340  26.851   7.461
 5883POPC   C1B74323   3.825  26.392   6.214
 5883POPC   C2B74324   3.689  26.274   6.655
 5883POPC   C3B74325   3.599  26.599   6.967
 5883POPC   C4B74326   3.710  27.005   7.140
 5884POPC   NC374327  42.832  20.986   5.504
 5884POPC   PO474328  43.160  20.385   5.430
 5884POPC   GL174329  43.218  20.443   5.854
 5884POPC   GL274330  43.165  20.820   5.903
 5884POPC   C1A74331  43.094  20.452   6.281
 5884POPC   D2A74332  43.202  20.782   6.558
 5884POPC   C3A74333  43.122  20.590   6.941
 5884POPC   C4A74334  42.836  20.351   7.164
 5884POPC   C1B74335  42.738  20.794   6.139
 5884POPC   C2B74336  42.674  20.859   6.592
 5884POPC   C3B74337  42.929  21.054   6.915
 5884POPC   C4B74338  42.966  20.875   7.341
 5885POPC   NC374339   4.371  24.867   5.535
 5885POPC   PO474340   3.807  25.129   5.470
 5885POPC   GL174341   3.904  25.215   5.876
 5885POPC   GL274342   4.253  25.165   5.967
 5885POPC   C1A74343   3.874  25.429   6.239
 5885POPC   D2A74344   4.163  25.287   6.523
 5885POPC   C3A74345   4.162  25.333   6.949
 5885POPC   C4A74346   4.281  25.708   7.170
 5885POPC   C1B74347   4.465  24.925   6.303
 5885POPC   C2B74348   4.565  25.057   6.744
 5885POPC   C3B74349   4.684  25.371   7.092
 5885POPC   C4B74350   4.846  25.682   7.438
 5886POPC   NC374351   9.516  19.208   5.456
 5886POPC   PO474352  10.086  18.950   5.568
 5886POPC   GL174353   9.888  19.211   5.806
 5886POPC   GL274354   9.645  18.945   5.892
 5886POPC   C1A74355  10.073  19.396   6.143
 5886POPC   D2A74356   9.863  19.489   6.500
 5886POPC   C3A74357   9.876  19.182   6.807
 5886POPC   C4A74358   9.745  19.211   7.218
 5886POPC   C1B74359   9.709  19.011   6.329
 5886POPC   C2B74360   9.513  18.839   6.710
 5886POPC   C3B74361   9.782  18.731   7.058
 5886POPC   C4B74362   9.750  18.698   7.529
 5887POPC   NC374363  10.038  23.784   5.687
 5887POPC   PO474364  10.578  23.670   5.304
 5887POPC   GL174365  10.554  23.757   5.746
 5887POPC   GL274366  10.409  23.448   5.823
 5887POPC   C1A74367  10.731  23.876   6.176
 5887POPC   D2A74368  10.680  24.064   6.612
 5887POPC   C3A74369  10.510  23.992   7.055
 5887POPC   C4A74370  10.395  23.734   7.432
 5887POPC   C1B74371  10.347  23.502   6.254
 5887POPC   C2B74372  10.332  23.257   6.624
 5887POPC   C3B74373  10.386  23.379   7.065
 5887POPC   C4B74374  10.145  23.282   7.446
 5888POPC   NC374375   4.816  32.532   5.430
 5888POPC   PO474376   5.366  32.075   5.619
 5888POPC   GL174377   5.042  32.249   5.862
 5888POPC   GL274378   4.839  31.973   6.015
 5888POPC   C1A74379   5.050  32.447   6.201
 5888POPC   D2A74380   5.229  32.366   6.597
 5888POPC   C3A74381   4.979  32.247   6.931
 5888POPC   C4A74382   5.005  32.252   7.357
 5888POPC   C1B74383   5.220  31.962   6.269
 5888POPC   C2B74384   5.334  31.868   6.694
 5888POPC   C3B74385   5.293  31.850   7.148
 5888POPC   C4B74386   5.225  31.859   7.605
 5889POPC   NC374387  29.338   9.180   5.502
 5889POPC   PO474388  28.936   8.615   5.420
 5889POPC   GL174389  29.148   8.767   5.806
 5889POPC   GL274390  29.002   9.082   5.888
 5889POPC   C1A74391  29.334   8.871   6.237
 5889POPC   D2A74392  29.466   9.079   6.655
 5889POPC   C3A74393  29.283   8.917   7.021
 5889POPC   C4A74394  28.880   9.097   7.018
 5889POPC   C1B74395  28.856   9.077   6.320
 5889POPC   C2B74396  28.988   8.771   6.621
 5889POPC   C3B74397  28.923   8.527   6.996
 5889POPC   C4B74398  28.839   8.717   7.382
 5890POPC   NC374399  17.436  18.015   5.378
 5890POPC   PO474400  17.100  18.576   5.540
 5890POPC   GL174401  17.259  18.220   5.839
 5890POPC   GL274402  17.615  18.129   5.840
 5890POPC   C1A74403  17.352  18.094   6.297
 5890POPC   D2A74404  17.564  18.326   6.643
 5890POPC   C3A74405  17.431  18.279   7.041
 5890POPC   C4A74406  17.262  18.106   7.411
 5890POPC   C1B74407  17.861  18.256   6.235
 5890POPC   C2B74408  17.980  18.611   6.524
 5890POPC   C3B74409  17.841  18.635   6.957
 5890POPC   C4B74410  17.920  18.175   7.078
 5891POPC   NC374411   4.690  35.297   5.415
 5891POPC   PO474412   4.272  35.775   5.427
 5891POPC   GL174413   4.482  35.562   5.780
 5891POPC   GL274414   4.179  35.470   5.922
 5891POPC   C1A74415   4.576  35.275   6.142
 5891POPC   D2A74416   4.335  35.329   6.517
 5891POPC   C3A74417   4.511  35.430   6.923
 5891POPC   C4A74418   4.583  35.173   7.283
 5891POPC   C1B74419   3.967  35.170   6.156
 5891POPC   C2B74420   3.876  35.126   6.554
 5891POPC   C3B74421   3.815  35.210   6.932
 5891POPC   C4B74422   4.098  35.323   7.219
 5892POPC   NC374423   8.838  19.580   5.526
 5892POPC   PO474424   9.012  20.155   5.223
 5892POPC   GL174425   9.147  19.987   5.674
 5892POPC   GL274426   9.321  19.635   5.747
 5892POPC   C1A74427   8.983  20.041   6.126
 5892POPC   D2A74428   8.744  20.057   6.527
 5892POPC   C3A74429   8.872  20.156   6.960
 5892POPC   C4A74430   8.788  20.199   7.413
 5892POPC   C1B74431   9.133  19.554   6.177
 5892POPC   C2B74432   8.912  19.565   6.618
 5892POPC   C3B74433   8.944  19.645   7.088
 5892POPC   C4B74434   9.338  19.508   7.319
 5893POPC   NC374435  24.792  30.174   5.501
 5893POPC   PO474436  24.533  29.530   5.444
 5893POPC   GL174437  24.443  29.880   5.769
 5893POPC   GL274438  24.226  30.170   5.714
 5893POPC   C1A74439  24.368  29.924   6.219
 5893POPC   D2A74440  24.450  29.965   6.657
 5893POPC   C3A74441  24.565  29.712   6.976
 5893POPC   C4A74442  24.339  29.790   7.289
 5893POPC   C1B74443  24.052  30.336   6.129
 5893POPC   C2B74444  24.017  30.250   6.592
 5893POPC   C3B74445  24.147  30.200   7.035
 5893POPC   C4B74446  24.171  30.269   7.504
 5894POPC   NC374447  16.227  43.994   5.506
 5894POPC   PO474448  15.707  43.642   5.324
 5894POPC   GL174449  15.756  43.705   5.807
 5894POPC   GL274450  16.084  43.600   5.843
 5894POPC   C1A74451  15.870  43.905   6.259
 5894POPC   D2A74452  15.861  44.164   6.674
 5894POPC   C3A74453  15.758  44.000   7.085
 5894POPC   C4A74454  16.185  44.108   7.139
 5894POPC   C1B74455  16.161  43.479   6.277
 5894POPC   C2B74456  16.205  43.725   6.662
 5894POPC   C3B74457  16.105  43.622   7.075
 5894POPC   C4B74458  16.100  43.679   7.531
 5895POPC   NC374459  15.349  43.824   5.060
 5895POPC   PO474460  14.860  44.147   5.488
 5895POPC   GL174461  15.067  43.864   5.827
 5895POPC   GL274462  15.242  43.525   5.814
 5895POPC   C1A74463  14.899  43.659   6.202
 5895POPC   D2A74464  14.772  43.764   6.573
 5895POPC   C3A74465  15.057  44.006   6.752
 5895POPC   C4A74466  15.201  43.968   7.160
 5895POPC   C1B74467  15.398  43.715   6.225
 5895POPC   C2B74468  15.526  43.768   6.676
 5895POPC   C3B74469  15.483  43.567   7.086
 5895POPC   C4B74470  15.506  43.758   7.526
 5896POPC   NC374471  10.795  14.887   5.595
 5896POPC   PO474472  10.602  14.211   5.552
 5896POPC   GL174473  10.587  14.484   5.883
 5896POPC   GL274474  10.266  14.617   5.786
 5896POPC   C1A74475  10.704  14.333   6.300
 5896POPC   D2A74476  10.560  14.009   6.555
 5896POPC   C3A74477  10.453  14.199   6.910
 5896POPC   C4A74478  10.665  14.493   7.192
 5896POPC   C1B74479  10.246  14.551   6.248
 5896POPC   C2B74480  10.436  14.643   6.655
 5896POPC   C3B74481  10.231  14.697   7.058
 5896POPC   C4B74482  10.292  14.648   7.496
 5897POPC   NC374483  29.957  25.563   5.518
 5897POPC   PO474484  29.748  24.945   5.532
 5897POPC   GL174485  29.776  25.219   5.843
 5897POPC   GL274486  30.112  25.198   5.843
 5897POPC   C1A74487  29.816  25.284   6.271
 5897POPC   D2A74488  29.786  25.080   6.671
 5897POPC   C3A74489  29.816  25.394   7.002
 5897POPC   C4A74490  29.826  25.572   7.420
 5897POPC   C1B74491  30.235  24.942   6.175
 5897POPC   C2B74492  30.264  24.808   6.590
 5897POPC   C3B74493  30.154  24.938   7.020
 5897POPC   C4B74494  30.226  25.263   7.315
 5898POPC   NC374495  25.509  17.887   5.556
 5898POPC   PO474496  25.007  17.546   5.164
 5898POPC   GL174497  25.058  17.561   5.668
 5898POPC   GL274498  25.052  17.892   5.847
 5898POPC   C1A74499  25.113  17.439   6.155
 5898POPC   D2A74500  25.293  17.259   6.578
 5898POPC   C3A74501  25.087  17.303   6.976
 5898POPC   C4A74502  25.256  17.412   7.349
 5898POPC   C1B74503  24.861  17.881   6.282
 5898POPC   C2B74504  25.020  17.740   6.692
 5898POPC   C3B74505  25.009  17.795   7.158
 5898POPC   C4B74506  24.974  17.807   7.632
 5899POPC   NC374507  14.914  44.618   5.486
 5899POPC   PO474508  15.463  44.917   5.278
 5899POPC   GL174509  15.264  44.907   5.777
 5899POPC   GL274510  14.912  44.762   5.965
 5899POPC   C1A74511  15.320  44.800   6.246
 5899POPC   D2A74512  15.088  44.601   6.569
 5899POPC   C3A74513  15.229  44.871   6.885
 5899POPC   C4A74514  15.402  44.761   7.234
 5899POPC   C1B74515  15.140  44.350   6.083
 5899POPC   C2B74516  15.416  44.222   6.433
 5899POPC   C3B74517  15.411  44.345   6.889
 5899POPC   C4B74518  15.016  44.441   7.107
 5900POPC   NC374519  39.190  22.956   5.327
 5900POPC   PO474520  38.578  22.835   5.487
 5900POPC   GL174521  38.881  23.081   5.725
 5900POPC   GL274522  38.794  23.388   5.886
 5900POPC   C1A74523  39.289  23.080   5.973
 5900POPC   D2A74524  39.336  22.818   6.363
 5900POPC   C3A74525  39.539  22.893   6.767
 5900POPC   C4A74526  39.511  22.668   7.144
 5900POPC   C1B74527  38.869  23.090   6.259
 5900POPC   C2B74528  38.935  22.984   6.705
 5900POPC   C3B74529  39.091  22.991   7.122
 5900POPC   C4B74530  39.009  23.235   7.512
 5901POPC   NC374531  23.923  33.060   5.371
 5901POPC   PO474532  23.346  32.760   5.421
 5901POPC   GL174533  23.520  32.704   5.842
 5901POPC   GL274534  23.711  33.011   5.840
 5901POPC   C1A74535  23.595  32.804   6.304
 5901POPC   D2A74536  23.708  33.093   6.654
 5901POPC   C3A74537  23.601  32.857   7.015
 5901POPC   C4A74538  23.351  32.813   7.371
 5901POPC   C1B74539  23.984  33.127   6.186
 5901POPC   C2B74540  24.228  33.061   6.576
 5901POPC   C3B74541  24.105  33.064   7.012
 5901POPC   C4B74542  23.816  33.354   7.243
 5902POPC   NC374543   3.378  24.930   5.437
 5902POPC   PO474544   3.442  24.257   5.292
 5902POPC   GL174545   3.586  24.348   5.685
 5902POPC   GL274546   3.621  23.977   5.738
 5902POPC   C1A74547   3.531  24.634   6.057
 5902POPC   D2A74548   3.328  24.689   6.474
 5902POPC   C3A74549   3.516  24.668   6.870
 5902POPC   C4A74550   3.791  24.641   7.249
 5902POPC   C1B74551   3.512  24.136   6.132
 5902POPC   C2B74552   3.748  24.354   6.475
 5902POPC   C3B74553   3.800  24.230   6.913
 5902POPC   C4B74554   3.447  24.270   7.202
 5903POPC   NC374555  39.481  39.611   5.731
 5903POPC   PO474556  39.370  38.954   5.503
 5903POPC   GL174557  39.168  39.119   5.908
 5903POPC   GL274558  38.939  38.829   5.903
 5903POPC   C1A74559  39.136  39.362   6.352
 5903POPC   D2A74560  39.344  39.343   6.798
 5903POPC   C3A74561  39.262  39.537   7.246
 5903POPC   C4A74562  39.545  39.633   7.642
 5903POPC   C1B74563  39.158  38.823   6.330
 5903POPC   C2B74564  39.241  38.728   6.766
 5903POPC   C3B74565  39.281  38.965   7.139
 5903POPC   C4B74566  38.922  39.155   7.271
 5904POPC   NC374567  38.845  30.440   5.423
 5904POPC   PO474568  39.402  29.928   5.427
 5904POPC   GL174569  39.071  29.890   5.758
 5904POPC   GL274570  39.189  30.202   5.891
 5904POPC   C1A74571  38.973  29.863   6.221
 5904POPC   D2A74572  39.252  29.791   6.576
 5904POPC   C3A74573  39.138  29.999   6.947
 5904POPC   C4A74574  38.902  29.852   7.271
 5904POPC   C1B74575  39.499  29.922   6.124
 5904POPC   C2B74576  39.727  29.989   6.526
 5904POPC   C3B74577  39.654  29.863   6.981
 5904POPC   C4B74578  39.428  30.016   7.373
 5905POPC   NC374579   1.556  25.495   5.352
 5905POPC   PO474580   2.160  25.436   5.448
 5905POPC   GL174581   1.883  25.368   5.799
 5905POPC   GL274582   1.686  25.649   5.850
 5905POPC   C1A74583   1.834  25.065   6.167
 5905POPC   D2A74584   2.102  24.761   6.397
 5905POPC   C3A74585   2.066  24.801   6.836
 5905POPC   C4A74586   1.927  25.012   7.201
 5905POPC   C1B74587   1.857  25.555   6.266
 5905POPC   C2B74588   1.969  25.314   6.671
 5905POPC   C3B74589   2.020  25.525   7.093
 5905POPC   C4B74590   1.909  25.771   7.497
 5906POPC   NC374591  18.056  25.464   5.695
 5906POPC   PO474592  18.100  26.133   5.409
 5906POPC   GL174593  18.361  25.993   5.805
 5906POPC   GL274594  18.516  25.632   5.861
 5906POPC   C1A74595  18.502  26.094   6.251
 5906POPC   D2A74596  18.437  26.448   6.552
 5906POPC   C3A74597  18.589  26.428   6.964
 5906POPC   C4A74598  18.666  26.065   7.170
 5906POPC   C1B74599  18.358  25.586   6.299
 5906POPC   C2B74600  18.408  25.799   6.698
 5906POPC   C3B74601  18.313  25.686   7.112
 5906POPC   C4B74602  18.012  25.588   7.385
 5907POPC   NC374603  12.201  33.499   5.457
 5907POPC   PO474604  11.965  34.128   5.517
 5907POPC   GL174605  12.111  34.010   5.912
 5907POPC   GL274606  12.420  33.838   5.793
 5907POPC   C1A74607  11.960  33.758   6.273
 5907POPC   D2A74608  12.120  33.561   6.650
 5907POPC   C3A74609  11.876  33.615   7.034
 5907POPC   C4A74610  11.765  34.065   7.113
 5907POPC   C1B74611  12.470  33.745   6.216
 5907POPC   C2B74612  12.441  33.974   6.584
 5907POPC   C3B74613  12.278  33.938   7.002
 5907POPC   C4B74614  12.325  33.640   7.323
 5908POPC   NC374615  44.682  17.750   5.388
 5908POPC   PO474616  44.803  17.126   5.394
 5908POPC   GL174617  44.663  17.386   5.773
 5908POPC   GL274618  44.475  17.726   5.861
 5908POPC   C1A74619  44.580  17.364   6.210
 5908POPC   D2A74620  44.586  17.646   6.528
 5908POPC   C3A74621  44.767  17.441   6.870
 5908POPC   C4A74622  44.567  17.385   7.295
 5908POPC   C1B74623  44.908  17.734   6.046
 5908POPC   C2B74624   0.060  17.835   6.476
 5908POPC   C3B74625  44.872  18.015   6.813
 5908POPC   C4B74626  44.835  17.827   7.209
 5909POPC   NC374627  41.840   7.399   5.433
 5909POPC   PO474628  41.230   7.473   5.414
 5909POPC   GL174629  41.424   7.696   5.762
 5909POPC   GL274630  41.510   7.352   5.834
 5909POPC   C1A74631  41.512   7.662   6.231
 5909POPC   D2A74632  41.723   7.782   6.583
 5909POPC   C3A74633  41.576   7.646   6.947
 5909POPC   C4A74634  41.452   7.703   7.358
 5909POPC   C1B74635  41.819   7.274   6.134
 5909POPC   C2B74636  41.618   7.216   6.525
 5909POPC   C3B74637  41.616   7.098   6.934
 5909POPC   C4B74638  41.798   7.304   7.272
 5910POPC   NC374639   2.739  24.566   5.549
 5910POPC   PO474640   2.778  23.924   5.375
 5910POPC   GL174641   2.676  24.101   5.768
 5910POPC   GL274642   3.050  24.184   5.804
 5910POPC   C1A74643   2.546  24.358   6.141
 5910POPC   D2A74644   2.717  24.624   6.483
 5910POPC   C3A74645   2.628  24.463   6.872
 5910POPC   C4A74646   2.555  24.696   7.226
 5910POPC   C1B74647   3.062  24.321   6.255
 5910POPC   C2B74648   3.137  24.310   6.744
 5910POPC   C3B74649   3.040  24.529   7.162
 5910POPC   C4B74650   2.933  24.736   7.546
 5911POPC   NC374651  13.928  34.011   5.360
 5911POPC   PO474652  13.427  33.515   5.440
 5911POPC   GL174653  13.748  33.669   5.707
 5911POPC   GL274654  13.583  33.988   5.764
 5911POPC   C1A74655  13.840  33.697   6.162
 5911POPC   D2A74656  13.564  33.615   6.538
 5911POPC   C3A74657  13.833  33.548   6.893
 5911POPC   C4A74658  13.984  33.777   7.254
 5911POPC   C1B74659  13.453  34.035   6.197
 5911POPC   C2B74660  13.691  34.117   6.554
 5911POPC   C3B74661  13.589  33.985   6.944
 5911POPC   C4B74662  13.647  34.164   7.303
 5912POPC   NC374663   7.055  13.240   5.446
 5912POPC   PO474664   6.361  13.378   5.473
 5912POPC   GL174665   6.552  13.551   5.863
 5912POPC   GL274666   6.901  13.547   5.837
 5912POPC   C1A74667   6.604  13.452   6.296
 5912POPC   D2A74668   6.606  13.154   6.622
 5912POPC   C3A74669   6.853  13.352   6.931
 5912POPC   C4A74670   6.716  13.669   7.205
 5912POPC   C1B74671   7.014  13.770   6.197
 5912POPC   C2B74672   6.906  13.795   6.635
 5912POPC   C3B74673   7.128  13.990   6.998
 5912POPC   C4B74674   7.076  13.958   7.440
 5913POPC   NC374675  34.340  44.779   5.562
 5913POPC   PO474676  34.735  44.279   5.485
 5913POPC   GL174677  34.713  44.543   5.851
 5913POPC   GL274678  34.811  44.881   5.767
 5913POPC   C1A74679  34.426  44.650   6.204
 5913POPC   D2A74680  34.582  44.624   6.609
 5913POPC   C3A74681  34.607  44.689   7.044
 5913POPC   C4A74682  34.510  44.616   7.458
 5913POPC   C1B74683  34.769   0.008   6.206
 5913POPC   C2B74684  34.950  44.983   6.598
 5913POPC   C3B74685  34.894   0.104   7.006
 5913POPC   C4B74686  34.947  44.881   7.383
 5914POPC   NC374687  22.377  15.452   5.466
 5914POPC   PO474688  22.384  14.767   5.315
 5914POPC   GL174689  22.065  14.995   5.653
 5914POPC   GL274690  21.728  14.805   5.785
 5914POPC   C1A74691  22.085  14.998   6.140
 5914POPC   D2A74692  22.114  15.216   6.562
 5914POPC   C3A74693  22.400  15.169   6.918
 5914POPC   C4A74694  22.254  15.195   7.343
 5914POPC   C1B74695  21.645  14.764   6.258
 5914POPC   C2B74696  21.638  15.017   6.624
 5914POPC   C3B74697  21.880  15.031   7.018
 5914POPC   C4B74698  21.867  14.884   7.465
 5915POPC   NC374699  29.287  34.550   5.366
 5915POPC   PO474700  29.110  35.201   5.446
 5915POPC   GL174701  28.978  34.815   5.694
 5915POPC   GL274702  29.304  34.753   5.836
 5915POPC   C1A74703  28.875  34.612   6.110
 5915POPC   D2A74704  28.702  34.697   6.524
 5915POPC   C3A74705  28.981  34.649   6.874
 5915POPC   C4A74706  28.976  34.565   7.290
 5915POPC   C1B74707  29.475  34.599   6.210
 5915POPC   C2B74708  29.411  34.445   6.644
 5915POPC   C3B74709  29.473  34.594   7.081
 5915POPC   C4B74710  29.452  34.471   7.537
 5916POPC   NC374711  18.748  11.325   5.352
 5916POPC   PO474712  19.356  11.487   5.284
 5916POPC   GL174713  19.181  11.410   5.719
 5916POPC   GL274714  19.015  11.134   5.803
 5916POPC   C1A74715  19.109  11.572   6.147
 5916POPC   D2A74716  18.994  11.425   6.560
 5916POPC   C3A74717  19.110  11.617   6.923
 5916POPC   C4A74718  19.025  11.421   7.307
 5916POPC   C1B74719  19.335  11.111   6.159
 5916POPC   C2B74720  19.420  11.132   6.627
 5916POPC   C3B74721  19.088  11.058   6.946
 5916POPC   C4B74722  18.936  10.894   7.339
 5917POPC   NC374723  26.371  21.566   5.156
 5917POPC   PO474724  26.243  20.952   5.192
 5917POPC   GL174725  26.135  21.207   5.602
 5917POPC   GL274726  26.229  21.560   5.719
 5917POPC   C1A74727  26.079  21.163   6.060
 5917POPC   D2A74728  26.162  21.295   6.503
 5917POPC   C3A74729  26.038  21.045   6.878
 5917POPC   C4A74730  26.109  21.195   7.313
 5917POPC   C1B74731  25.870  21.627   6.067
 5917POPC   C2B74732  25.729  21.597   6.513
 5917POPC   C3B74733  25.917  21.547   6.939
 5917POPC   C4B74734  25.711  21.636   7.334
 5918POPC   NC374735  31.298  24.597   5.357
 5918POPC   PO474736  30.730  24.671   5.558
 5918POPC   GL174737  30.683  24.393   5.870
 5918POPC   GL274738  30.937  24.147   5.774
 5918POPC   C1A74739  30.569  24.518   6.267
 5918POPC   D2A74740  30.774  24.513   6.628
 5918POPC   C3A74741  30.590  24.668   6.969
 5918POPC   C4A74742  30.446  24.540   7.367
 5918POPC   C1B74743  31.031  24.185   6.220
 5918POPC   C2B74744  31.175  24.152   6.657
 5918POPC   C3B74745  31.005  24.325   7.032
 5918POPC   C4B74746  30.846  24.252   7.457
 5919POPC   NC374747  41.124  12.528   5.421
 5919POPC   PO474748  40.841  13.203   5.297
 5919POPC   GL174749  40.944  13.030   5.708
 5919POPC   GL274750  40.784  12.700   5.773
 5919POPC   C1A74751  40.906  13.120   6.165
 5919POPC   D2A74752  40.567  13.023   6.472
 5919POPC   C3A74753  40.531  13.229   6.876
 5919POPC   C4A74754  40.604  13.055   7.296
 5919POPC   C1B74755  41.106  12.652   6.114
 5919POPC   C2B74756  41.095  12.766   6.554
 5919POPC   C3B74757  40.929  12.827   6.972
 5919POPC   C4B74758  40.967  12.724   7.428
 5920POPC   NC374759  38.117  33.480   5.344
 5920POPC   PO474760  38.647  33.896   5.436
 5920POPC   GL174761  38.581  33.882   5.849
 5920POPC   GL274762  38.276  33.751   5.819
 5920POPC   C1A74763  38.734  33.764   6.249
 5920POPC   D2A74764  38.433  33.783   6.578
 5920POPC   C3A74765  38.500  33.890   6.970
 5920POPC   C4A74766  38.939  33.880   7.083
 5920POPC   C1B74767  38.283  33.507   6.186
 5920POPC   C2B74768  38.254  33.312   6.606
 5920POPC   C3B74769  38.188  33.457   7.066
 5920POPC   C4B74770  38.189  33.363   7.543
 5921POPC   NC374771   1.554   2.886   5.492
 5921POPC   PO474772   1.048   2.428   5.326
 5921POPC   GL174773   1.079   2.646   5.778
 5921POPC   GL274774   1.144   3.024   5.839
 5921POPC   C1A74775   1.198   2.643   6.235
 5921POPC   D2A74776   1.169   2.866   6.662
 5921POPC   C3A74777   1.045   2.646   7.088
 5921POPC   C4A74778   1.297   2.500   7.493
 5921POPC   C1B74779   1.422   3.116   6.223
 5921POPC   C2B74780   1.610   3.207   6.648
 5921POPC   C3B74781   1.359   3.204   7.036
 5921POPC   C4B74782   0.902   3.125   7.008
 5922POPC   NC374783  33.398  36.689   5.542
 5922POPC   PO474784  33.940  37.105   5.465
 5922POPC   GL174785  33.720  36.993   5.817
 5922POPC   GL274786  33.884  36.672   5.846
 5922POPC   C1A74787  33.737  37.011   6.248
 5922POPC   D2A74788  33.717  37.250   6.604
 5922POPC   C3A74789  33.744  37.045   7.009
 5922POPC   C4A74790  33.782  36.862   7.412
 5922POPC   C1B74791  34.127  36.694   6.239
 5922POPC   C2B74792  34.026  36.810   6.649
 5922POPC   C3B74793  34.086  36.651   7.060
 5922POPC   C4B74794  34.010  36.381   7.445
 5923POPC   NC374795  22.017  44.950   5.447
 5923POPC   PO474796  21.874  44.308   5.522
 5923POPC   GL174797  22.101  44.570   5.827
 5923POPC   GL274798  22.187  44.910   5.955
 5923POPC   C1A74799  22.223  44.458   6.223
 5923POPC   D2A74800  22.044  44.276   6.555
 5923POPC   C3A74801  22.139  44.475   6.922
 5923POPC   C4A74802  22.002  44.298   7.262
 5923POPC   C1B74803  22.505  44.865   6.240
 5923POPC   C2B74804  22.249  44.839   6.572
 5923POPC   C3B74805  22.166   0.020   6.934
 5923POPC   C4B74806  22.193  44.855   7.315
 5924POPC   NC374807  41.894  28.898   5.579
 5924POPC   PO474808  41.210  28.883   5.511
 5924POPC   GL174809  41.467  29.153   5.784
 5924POPC   GL274810  41.540  28.857   5.926
 5924POPC   C1A74811  41.545  29.374   6.181
 5924POPC   D2A74812  41.874  29.420   6.479
 5924POPC   C3A74813  41.825  29.268   6.879
 5924POPC   C4A74814  41.585  29.375   7.206
 5924POPC   C1B74815  41.323  28.934   6.267
 5924POPC   C2B74816  41.400  29.132   6.624
 5924POPC   C3B74817  41.338  28.987   6.993
 5924POPC   C4B74818  41.279  28.743   7.358
 5925POPC   NC374819  21.497  42.016   5.454
 5925POPC   PO474820  21.555  41.374   5.549
 5925POPC   GL174821  21.325  41.430   5.916
 5925POPC   GL274822  21.324  41.771   5.917
 5925POPC   C1A74823  21.262  41.389   6.361
 5925POPC   D2A74824  21.276  41.665   6.737
 5925POPC   C3A74825  21.340  41.502   7.147
 5925POPC   C4A74826  21.356  41.686   7.551
 5925POPC   C1B74827  21.487  41.881   6.320
 5925POPC   C2B74828  21.781  41.784   6.685
 5925POPC   C3B74829  21.733  41.855   7.174
 5925POPC   C4B74830  21.739  42.009   7.657
 5926POPC   NC374831  23.319  24.266   5.292
 5926POPC   PO474832  22.814  24.716   5.499
 5926POPC   GL174833  22.946  24.452   5.815
 5926POPC   GL274834  23.333  24.406   5.797
 5926POPC   C1A74835  22.632  24.248   6.125
 5926POPC   D2A74836  22.470  24.286   6.556
 5926POPC   C3A74837  22.746  24.424   6.861
 5926POPC   C4A74838  22.750  24.371   7.288
 5926POPC   C1B74839  23.228  24.445   6.255
 5926POPC   C2B74840  23.244  24.410   6.706
 5926POPC   C3B74841  23.208  24.550   7.124
 5926POPC   C4B74842  23.290  24.969   7.289
 5927POPC   NC374843  40.983  43.343   5.372
 5927POPC   PO474844  40.449  43.116   5.628
 5927POPC   GL174845  40.848  43.118   5.854
 5927POPC   GL274846  40.980  43.455   5.861
 5927POPC   C1A74847  40.886  42.887   6.264
 5927POPC   D2A74848  40.645  42.695   6.615
 5927POPC   C3A74849  40.731  42.930   6.992
 5927POPC   C4A74850  41.074  43.162   7.189
 5927POPC   C1B74851  40.714  43.443   6.222
 5927POPC   C2B74852  40.675  43.267   6.596
 5927POPC   C3B74853  40.717  43.511   6.950
 5927POPC   C4B74854  40.855  43.598   7.340
 5928POPC   NC374855  33.653  25.397   5.420
 5928POPC   PO474856  34.079  25.045   5.713
 5928POPC   GL174857  33.681  25.218   5.914
 5928POPC   GL274858  33.539  25.608   5.877
 5928POPC   C1A74859  33.718  25.103   6.352
 5928POPC   D2A74860  33.962  25.067   6.729
 5928POPC   C3A74861  33.663  24.992   7.005
 5928POPC   C4A74862  33.376  25.185   7.321
 5928POPC   C1B74863  33.894  25.667   6.113
 5928POPC   C2B74864  33.993  25.506   6.486
 5928POPC   C3B74865  33.783  25.536   6.885
 5928POPC   C4B74866  33.937  25.532   7.293
 5929POPC   NC374867  38.569  37.080   5.402
 5929POPC   PO474868  38.168  36.568   5.169
 5929POPC   GL174869  38.160  36.848   5.626
 5929POPC   GL274870  38.228  37.227   5.744
 5929POPC   C1A74871  38.273  36.874   6.106
 5929POPC   D2A74872  38.592  36.750   6.457
 5929POPC   C3A74873  38.517  36.773   6.934
 5929POPC   C4A74874  38.319  37.131   7.147
 5929POPC   C1B74875  38.618  37.247   6.043
 5929POPC   C2B74876  38.623  37.351   6.492
 5929POPC   C3B74877  38.810  37.238   6.886
 5929POPC   C4B74878  38.750  37.370   7.307
 5930POPC   NC374879   9.552  41.214   5.589
 5930POPC   PO474880   9.616  40.541   5.462
 5930POPC   GL174881   9.726  40.782   5.797
 5930POPC   GL274882  10.029  41.032   5.717
 5930POPC   C1A74883   9.618  40.759   6.232
 5930POPC   D2A74884   9.719  40.526   6.607
 5930POPC   C3A74885   9.623  40.739   7.018
 5930POPC   C4A74886   9.501  41.089   7.324
 5930POPC   C1B74887  10.134  40.784   6.083
 5930POPC   C2B74888  10.125  40.819   6.499
 5930POPC   C3B74889  10.119  40.792   6.934
 5930POPC   C4B74890   9.989  40.959   7.341
 5931POPC   NC374891  43.857   1.842   5.490
 5931POPC   PO474892  44.141   2.565   5.439
 5931POPC   GL174893  43.992   2.258   5.832
 5931POPC   GL274894  44.115   1.919   5.951
 5931POPC   C1A74895  43.746   2.044   6.233
 5931POPC   D2A74896  43.906   1.667   6.438
 5931POPC   C3A74897  43.827   1.685   6.873
 5931POPC   C4A74898  43.705   2.045   7.118
 5931POPC   C1B74899  44.283   2.002   6.350
 5931POPC   C2B74900  44.113   2.129   6.752
 5931POPC   C3B74901  44.175   2.192   7.193
 5931POPC   C4B74902  44.208   2.205   7.641
 5932POPC   NC374903  26.109  32.006   5.588
 5932POPC   PO474904  25.576  32.472   5.772
 5932POPC   GL174905  25.867  32.169   6.025
 5932POPC   GL274906  25.881  31.802   6.001
 5932POPC   C1A74907  26.213  32.203   6.360
 5932POPC   D2A74908  26.435  32.581   6.615
 5932POPC   C3A74909  26.267  32.628   7.047
 5932POPC   C4A74910  25.853  32.495   7.202
 5932POPC   C1B74911  25.870  31.725   6.428
 5932POPC   C2B74912  26.143  31.837   6.741
 5932POPC   C3B74913  26.219  32.113   7.034
 5932POPC   C4B74914  26.130  32.120   7.431
 5933POPC   NC374915  36.930  29.493   5.386
 5933POPC   PO474916  37.084  28.798   5.122
 5933POPC   GL174917  36.904  28.963   5.583
 5933POPC   GL274918  37.061  29.241   5.809
 5933POPC   C1A74919  36.685  28.969   6.027
 5933POPC   D2A74920  36.501  28.910   6.460
 5933POPC   C3A74921  36.562  29.261   6.767
 5933POPC   C4A74922  36.691  29.307   7.197
 5933POPC   C1B74923  37.208  29.076   6.221
 5933POPC   C2B74924  37.348  29.138   6.660
 5933POPC   C3B74925  37.277  28.981   7.072
 5933POPC   C4B74926  37.171  29.275   7.355
 5934POPC   NC374927   8.560   9.808   5.399
 5934POPC   PO474928   7.941   9.586   5.481
 5934POPC   GL174929   8.124   9.623   5.897
 5934POPC   GL274930   8.473   9.508   5.839
 5934POPC   C1A74931   8.070   9.625   6.371
 5934POPC   D2A74932   7.959   9.964   6.690
 5934POPC   C3A74933   8.189   9.929   7.078
 5934POPC   C4A74934   8.473   9.561   7.086
 5934POPC   C1B74935   8.500   9.851   6.184
 5934POPC   C2B74936   8.480   9.826   6.646
 5934POPC   C3B74937   8.701  10.040   6.989
 5934POPC   C4B74938   8.560  10.178   7.380
 5935POPC   NC374939  38.691   3.181   5.080
 5935POPC   PO474940  38.407   3.629   5.482
 5935POPC   GL174941  38.438   3.459   5.877
 5935POPC   GL274942  38.438   3.131   5.778
 5935POPC   C1A74943  38.378   3.622   6.275
 5935POPC   D2A74944  38.589   3.787   6.617
 5935POPC   C3A74945  38.247   3.768   6.858
 5935POPC   C4A74946  38.199   3.701   7.240
 5935POPC   C1B74947  38.577   3.058   6.208
 5935POPC   C2B74948  38.566   3.252   6.612
 5935POPC   C3B74949  38.357   3.228   7.008
 5935POPC   C4B74950  38.604   3.113   7.334
 5936POPC   NC374951   4.609  40.468   5.504
 5936POPC   PO474952   4.069  40.923   5.409
 5936POPC   GL174953   4.036  40.665   5.823
 5936POPC   GL274954   4.341  40.553   5.908
 5936POPC   C1A74955   4.019  40.539   6.303
 5936POPC   D2A74956   3.830  40.764   6.673
 5936POPC   C3A74957   4.155  40.875   6.963
 5936POPC   C4A74958   4.368  40.535   7.167
 5936POPC   C1B74959   4.456  40.810   6.228
 5936POPC   C2B74960   4.499  40.720   6.612
 5936POPC   C3B74961   4.767  40.699   6.914
 5936POPC   C4B74962   4.574  40.979   7.252
 5937POPC   NC374963  25.797  24.686   5.305
 5937POPC   PO474964  26.424  24.383   5.303
 5937POPC   GL174965  26.291  24.331   5.733
 5937POPC   GL274966  25.923  24.334   5.733
 5937POPC   C1A74967  26.268  24.372   6.189
 5937POPC   D2A74968  26.127  24.715   6.471
 5937POPC   C3A74969  26.246  24.679   6.902
 5937POPC   C4A74970  26.252  24.328   7.179
 5937POPC   C1B74971  25.728  24.404   6.135
 5937POPC   C2B74972  25.610  24.688   6.464
 5937POPC   C3B74973  25.706  24.592   6.895
 5937POPC   C4B74974  25.893  24.708   7.284
 5938POPC   NC374975  38.604  22.416   5.286
 5938POPC   PO474976  38.627  21.823   5.506
 5938POPC   GL174977  38.622  22.007   5.888
 5938POPC   GL274978  38.309  22.170   5.919
 5938POPC   C1A74979  38.621  22.092   6.328
 5938POPC   D2A74980  38.355  22.110   6.689
 5938POPC   C3A74981  38.599  22.085   7.044
 5938POPC   C4A74982  38.798  21.736   7.293
 5938POPC   C1B74983  38.223  22.414   6.300
 5938POPC   C2B74984  38.135  22.604   6.725
 5938POPC   C3B74985  38.108  22.313   7.100
 5938POPC   C4B74986  38.240  21.940   7.361
 5939POPC   NC374987  24.631  12.667   5.401
 5939POPC   PO474988  24.279  13.128   5.786
 5939POPC   GL174989  24.536  12.751   5.897
 5939POPC   GL274990  24.290  12.514   5.847
 5939POPC   C1A74991  24.659  12.463   6.247
 5939POPC   D2A74992  24.691  12.588   6.696
 5939POPC   C3A74993  24.934  12.956   6.820
 5939POPC   C4A74994  24.799  13.234   7.147
 5939POPC   C1B74995  24.207  12.697   6.299
 5939POPC   C2B74996  24.117  12.905   6.703
 5939POPC   C3B74997  24.316  12.904   7.124
 5939POPC   C4B74998  24.640  12.650   7.229
 5940POPC   NC374999   3.352  33.159   5.425
 5940POPC   PO475000   3.659  32.533   5.604
 5940POPC   GL175001   3.518  32.875   5.823
 5940POPC   GL275002   3.664  33.221   5.843
 5940POPC   C1A75003   3.632  32.880   6.225
 5940POPC   D2A75004   3.518  32.594   6.501
 5940POPC   C3A75005   3.552  32.871   6.809
 5940POPC   C4A75006   3.592  32.951   7.195
 5940POPC   C1B75007   3.507  33.392   6.251
 5940POPC   C2B75008   3.533  33.400   6.714
 5940POPC   C3B75009   3.868  33.346   7.004
 5940POPC   C4B75010   3.827  33.310   7.461
 5941POPC   NC375011  14.614   2.820   5.455
 5941POPC   PO475012  14.056   2.501   5.691
 5941POPC   GL175013  14.263   2.679   5.996
 5941POPC   GL275014  14.603   2.800   5.962
 5941POPC   C1A75015  14.327   2.826   6.394
 5941POPC   D2A75016  14.621   2.887   6.691
 5941POPC   C3A75017  14.267   2.875   6.936
 5941POPC   C4A75018  14.196   2.748   7.330
 5941POPC   C1B75019  14.621   2.433   6.243
 5941POPC   C2B75020  14.437   2.398   6.658
 5941POPC   C3B75021  14.587   2.500   7.046
 5941POPC   C4B75022  14.724   2.300   7.354
 5942POPC   NC375023   5.444  35.939   5.552
 5942POPC   PO475024   5.646  36.586   5.561
 5942POPC   GL175025   5.379  36.364   5.859
 5942POPC   GL275026   5.043  36.291   5.734
 5942POPC   C1A75027   5.406  36.106   6.242
 5942POPC   D2A75028   5.548  36.266   6.649
 5942POPC   C3A75029   5.351  36.039   6.962
 5942POPC   C4A75030   5.046  35.741   7.190
 5942POPC   C1B75031   4.972  36.374   6.196
 5942POPC   C2B75032   4.996  36.153   6.604
 5942POPC   C3B75033   4.886  36.243   7.051
 5942POPC   C4B75034   4.831  36.130   7.493
 5943POPC   NC375035  27.029   6.410   5.501
 5943POPC   PO475036  26.594   6.854   5.423
 5943POPC   GL175037  26.635   6.595   5.785
 5943POPC   GL275038  26.954   6.772   5.845
 5943POPC   C1A75039  26.548   6.656   6.229
 5943POPC   D2A75040  26.786   6.695   6.617
 5943POPC   C3A75041  26.594   6.692   7.031
 5943POPC   C4A75042  26.681   6.613   7.461
 5943POPC   C1B75043  27.031   6.461   6.181
 5943POPC   C2B75044  27.086   6.268   6.579
 5943POPC   C3B75045  27.189   6.357   7.005
 5943POPC   C4B75046  27.163   6.742   7.251
 5944POPC   NC375047  31.298  42.469   5.315
 5944POPC   PO475048  31.168  41.873   5.642
 5944POPC   GL175049  31.455  42.126   5.837
 5944POPC   GL275050  31.455  42.490   5.799
 5944POPC   C1A75051  31.447  42.249   6.256
 5944POPC   D2A75052  31.730  42.282   6.567
 5944POPC   C3A75053  31.529  42.300   6.955
 5944POPC   C4A75054  31.745  42.239   7.325
 5944POPC   C1B75055  31.343  42.747   6.160
 5944POPC   C2B75056  31.381  42.664   6.587
 5944POPC   C3B75057  31.197  42.700   6.982
 5944POPC   C4B75058  31.314  42.520   7.358
 5945POPC   NC375059  40.859  36.352   5.444
 5945POPC   PO475060  40.808  35.681   5.263
 5945POPC   GL175061  40.970  35.909   5.675
 5945POPC   GL275062  40.642  36.093   5.820
 5945POPC   C1A75063  41.048  36.116   6.127
 5945POPC   D2A75064  40.776  36.308   6.464
 5945POPC   C3A75065  40.813  36.154   6.874
 5945POPC   C4A75066  40.625  36.197   7.274
 5945POPC   C1B75067  40.379  35.995   6.167
 5945POPC   C2B75068  40.352  36.018   6.587
 5945POPC   C3B75069  40.468  35.770   6.926
 5945POPC   C4B75070  40.369  35.748   7.348
 5946POPC   NC375071  36.078  44.844   5.443
 5946POPC   PO475072  36.236  44.238   5.552
 5946POPC   GL175073  36.058  44.473   5.819
 5946POPC   GL275074  35.742  44.376   5.879
 5946POPC   C1A75075  36.135  44.719   6.157
 5946POPC   D2A75076  35.953  44.877   6.513
 5946POPC   C3A75077  36.221  44.821   6.842
 5946POPC   C4A75078  36.416  44.675   7.212
 5946POPC   C1B75079  35.660  44.516   6.216
 5946POPC   C2B75080  35.613  44.378   6.588
 5946POPC   C3B75081  35.759  44.573   6.896
 5946POPC   C4B75082  35.906  44.748   7.250
 5947POPC   NC375083  44.666  40.217   5.524
 5947POPC   PO475084   0.033  39.706   5.678
 5947POPC   GL175085  44.663  39.874   5.893
 5947POPC   GL275086  44.346  39.828   5.742
 5947POPC   C1A75087  44.418  40.121   6.210
 5947POPC   D2A75088  44.499  40.122   6.662
 5947POPC   C3A75089  44.860  39.884   6.745
 5947POPC   C4A75090  44.941  39.741   7.138
 5947POPC   C1B75091  44.286  39.643   6.163
 5947POPC   C2B75092  44.397  39.623   6.580
 5947POPC   C3B75093  44.418  39.689   7.006
 5947POPC   C4B75094  44.136  39.474   7.264
 5948POPC   NC375095  20.095  30.351   5.379
 5948POPC   PO475096  19.549  30.659   5.549
 5948POPC   GL175097  19.943  30.724   5.731
 5948POPC   GL275098  20.002  31.065   5.831
 5948POPC   C1A75099  20.039  30.670   6.152
 5948POPC   D2A75100  19.995  30.918   6.518
 5948POPC   C3A75101  20.045  30.721   6.895
 5948POPC   C4A75102  19.942  30.543   7.291
 5948POPC   C1B75103  19.767  31.245   6.168
 5948POPC   C2B75104  19.538  31.166   6.567
 5948POPC   C3B75105  19.641  31.038   6.958
 5948POPC   C4B75106  19.870  31.038   7.320
 5949POPC   NC375107  26.752   4.700   5.737
 5949POPC   PO475108  26.960   5.336   5.509
 5949POPC   GL175109  26.998   5.192   5.885
 5949POPC   GL275110  26.658   5.176   5.950
 5949POPC   C1A75111  27.154   5.399   6.227
 5949POPC   D2A75112  27.047   5.353   6.623
 5949POPC   C3A75113  27.113   5.069   6.932
 5949POPC   C4A75114  26.932   5.284   7.300
 5949POPC   C1B75115  26.726   5.034   6.375
 5949POPC   C2B75116  26.613   5.144   6.810
 5949POPC   C3B75117  26.648   4.879   7.168
 5949POPC   C4B75118  26.625   4.932   7.601
 5950POPC   NC375119  26.617   9.040   5.350
 5950POPC   PO475120  27.289   9.080   5.393
 5950POPC   GL175121  27.145   8.905   5.770
 5950POPC   GL275122  26.809   8.794   5.758
 5950POPC   C1A75123  27.031   9.097   6.173
 5950POPC   D2A75124  27.189   9.189   6.604
 5950POPC   C3A75125  26.884   9.170   6.952
 5950POPC   C4A75126  26.626   9.261   7.348
 5950POPC   C1B75127  26.927   8.581   6.135
 5950POPC   C2B75128  26.853   8.409   6.535
 5950POPC   C3B75129  26.836   8.667   6.865
 5950POPC   C4B75130  26.881   8.795   7.284
 5951POPC   NC375131  41.044   3.290   5.577
 5951POPC   PO475132  41.621   3.232   5.294
 5951POPC   GL175133  41.636   3.424   5.726
 5951POPC   GL275134  41.345   3.573   5.865
 5951POPC   C1A75135  41.711   3.427   6.192
 5951POPC   D2A75136  41.438   3.532   6.556
 5951POPC   C3A75137  41.645   3.434   6.908
 5951POPC   C4A75138  41.639   3.430   7.289
 5951POPC   C1B75139  41.096   3.727   6.200
 5951POPC   C2B75140  40.995   3.791   6.657
 5951POPC   C3B75141  41.197   3.697   7.042
 5951POPC   C4B75142  41.402   3.883   7.388
 5952POPC   NC375143  20.994  22.079   5.385
 5952POPC   PO475144  20.488  22.380   5.536
 5952POPC   GL175145  20.550  22.270   5.928
 5952POPC   GL275146  20.653  21.924   5.834
 5952POPC   C1A75147  20.654  22.456   6.343
 5952POPC   D2A75148  20.887  22.672   6.702
 5952POPC   C3A75149  20.879  22.446   7.083
 5952POPC   C4A75150  20.503  22.153   7.133
 5952POPC   C1B75151  20.498  21.916   6.296
 5952POPC   C2B75152  20.330  21.754   6.713
 5952POPC   C3B75153  20.373  21.650   7.146
 5952POPC   C4B75154  20.697  21.563   7.464
 5953POPC   NC375155  12.354  41.768   5.363
 5953POPC   PO475156  11.915  41.389   5.249
 5953POPC   GL175157  11.985  41.408   5.738
 5953POPC   GL275158  12.105  41.696   5.828
 5953POPC   C1A75159  11.922  41.359   6.234
 5953POPC   D2A75160  12.049  41.579   6.656
 5953POPC   C3A75161  11.832  41.447   7.051
 5953POPC   C4A75162  11.908  41.312   7.495
 5953POPC   C1B75163  12.374  41.829   6.174
 5953POPC   C2B75164  12.326  42.050   6.535
 5953POPC   C3B75165  12.478  41.985   6.954
 5953POPC   C4B75166  12.325  42.062   7.398
 5954POPC   NC375167  20.044  39.686   5.106
 5954POPC   PO475168  19.598  39.942   5.573
 5954POPC   GL175169  19.824  40.194   5.841
 5954POPC   GL275170  19.636  40.494   5.882
 5954POPC   C1A75171  19.834  40.078   6.255
 5954POPC   D2A75172  19.802  39.807   6.595
 5954POPC   C3A75173  19.928  39.948   6.952
 5954POPC   C4A75174  19.908  39.728   7.300
 5954POPC   C1B75175  19.412  40.425   6.234
 5954POPC   C2B75176  19.506  40.246   6.639
 5954POPC   C3B75177  19.582  40.321   7.066
 5954POPC   C4B75178  19.584  40.097   7.470
 5955POPC   NC375179   4.383  11.419   5.476
 5955POPC   PO475180   4.684  10.817   5.252
 5955POPC   GL175181   4.542  10.975   5.684
 5955POPC   GL275182   4.163  10.988   5.723
 5955POPC   C1A75183   4.446  11.217   6.109
 5955POPC   D2A75184   4.179  11.427   6.460
 5955POPC   C3A75185   4.246  11.269   6.885
 5955POPC   C4A75186   4.264  11.335   7.337
 5955POPC   C1B75187   3.948  11.092   6.136
 5955POPC   C2B75188   3.815  11.052   6.579
 5955POPC   C3B75189   3.838  10.993   7.041
 5955POPC   C4B75190   3.886  11.029   7.485
 5956POPC   NC375191  25.384  33.906   5.290
 5956POPC   PO475192  24.836  33.586   5.363
 5956POPC   GL175193  25.197  33.530   5.640
 5956POPC   GL275194  25.246  33.872   5.786
 5956POPC   C1A75195  25.252  33.463   6.097
 5956POPC   D2A75196  25.135  33.648   6.466
 5956POPC   C3A75197  25.249  33.516   6.880
 5956POPC   C4A75198  25.297  33.762   7.246
 5956POPC   C1B75199  25.603  33.842   6.090
 5956POPC   C2B75200  25.638  33.783   6.538
 5956POPC   C3B75201  25.669  33.950   6.927
 5956POPC   C4B75202  25.819  33.962   7.332
 5957POPC   NC375203   8.401  30.092   5.332
 5957POPC   PO475204   8.197  30.732   5.464
 5957POPC   GL175205   7.950  30.781   5.859
 5957POPC   GL275206   7.934  31.163   5.787
 5957POPC   C1A75207   8.064  30.640   6.292
 5957POPC   D2A75208   8.488  30.692   6.465
 5957POPC   C3A75209   8.435  30.433   6.838
 5957POPC   C4A75210   8.057  30.439   7.092
 5957POPC   C1B75211   8.133  31.121   6.179
 5957POPC   C2B75212   8.001  31.105   6.560
 5957POPC   C3B75213   8.167  30.857   6.826
 5957POPC   C4B75214   8.148  30.934   7.232
 5958POPC   NC375215  41.408   1.004   5.558
 5958POPC   PO475216  41.501   1.681   5.505
 5958POPC   GL175217  41.546   1.380   5.863
 5958POPC   GL275218  41.812   1.080   5.824
 5958POPC   C1A75219  41.421   1.287   6.276
 5958POPC   D2A75220  41.582   1.478   6.604
 5958POPC   C3A75221  41.690   1.324   6.958
 5958POPC   C4A75222  41.662   1.469   7.353
 5958POPC   C1B75223  41.662   0.856   6.181
 5958POPC   C2B75224  41.783   0.978   6.579
 5958POPC   C3B75225  41.807   0.785   6.971
 5958POPC   C4B75226  41.569   0.939   7.282
 5959POPC   NC375227  15.603  18.019   5.505
 5959POPC   PO475228  15.188  18.423   5.273
 5959POPC   GL175229  14.982  18.425   5.661
 5959POPC   GL275230  15.159  18.121   5.776
 5959POPC   C1A75231  14.949  18.449   6.124
 5959POPC   D2A75232  15.190  18.461   6.517
 5959POPC   C3A75233  15.021  18.544   6.925
 5959POPC   C4A75234  15.194  18.308   7.274
 5959POPC   C1B75235  15.421  18.134   6.154
 5959POPC   C2B75236  15.573  18.127   6.587
 5959POPC   C3B75237  15.639  18.171   7.042
 5959POPC   C4B75238  15.574  18.011   7.482
 5960POPC   NC375239  35.129  42.701   5.586
 5960POPC   PO475240  35.635  42.302   5.320
 5960POPC   GL175241  35.458  42.264   5.746
 5960POPC   GL275242  35.585  42.598   5.771
 5960POPC   C1A75243  35.336  42.107   6.199
 5960POPC   D2A75244  35.095  42.224   6.607
 5960POPC   C3A75245  35.362  42.188   6.968
 5960POPC   C4A75246  35.389  41.938   7.329
 5960POPC   C1B75247  35.342  42.610   6.185
 5960POPC   C2B75248  35.427  42.602   6.603
 5960POPC   C3B75249  35.283  42.712   6.992
 5960POPC   C4B75250  35.593  42.865   7.247
 5961POPC   NC375251  30.317  15.058   5.476
 5961POPC   PO475252  29.704  15.041   5.252
 5961POPC   GL175253  29.847  15.291   5.668
 5961POPC   GL275254  30.021  15.023   5.870
 5961POPC   C1A75255  29.773  15.405   6.144
 5961POPC   D2A75256  29.523  15.344   6.553
 5961POPC   C3A75257  29.686  15.375   6.972
 5961POPC   C4A75258  29.715  15.063   7.228
 5961POPC   C1B75259  30.268  15.119   6.180
 5961POPC   C2B75260  30.232  15.261   6.576
 5961POPC   C3B75261  30.164  15.096   6.978
 5961POPC   C4B75262  30.091  15.402   7.307
 5962POPC   NC375263  21.752   1.888   5.514
 5962POPC   PO475264  21.263   2.377   5.674
 5962POPC   GL175265  21.398   1.971   5.905
 5962POPC   GL275266  21.731   1.771   5.996
 5962POPC   C1A75267  21.365   1.855   6.349
 5962POPC   D2A75268  21.154   1.599   6.679
 5962POPC   C3A75269  21.252   1.810   7.047
 5962POPC   C4A75270  21.233   2.267   7.141
 5962POPC   C1B75271  21.784   2.193   6.204
 5962POPC   C2B75272  21.667   2.363   6.621
 5962POPC   C3B75273  21.736   2.219   7.029
 5962POPC   C4B75274  21.944   2.376   7.386
 5963POPC   NC375275  26.924  11.357   5.345
 5963POPC   PO475276  27.629  11.335   5.172
 5963POPC   GL175277  27.475  11.374   5.640
 5963POPC   GL275278  27.179  11.597   5.703
 5963POPC   C1A75279  27.538  11.267   6.111
 5963POPC   D2A75280  27.865  11.345   6.450
 5963POPC   C3A75281  27.874  11.147   6.858
 5963POPC   C4A75282  27.674  11.193   7.239
 5963POPC   C1B75283  27.215  11.742   6.128
 5963POPC   C2B75284  27.388  11.563   6.505
 5963POPC   C3B75285  27.327  11.399   6.899
 5963POPC   C4B75286  27.358  11.634   7.262
 5964POPC   NC375287  24.361  17.597   5.259
 5964POPC   PO475288  23.644  17.465   5.393
 5964POPC   GL175289  23.716  17.541   5.796
 5964POPC   GL275290  23.444  17.412   5.977
 5964POPC   C1A75291  23.942  17.550   6.200
 5964POPC   D2A75292  23.782  17.377   6.582
 5964POPC   C3A75293  23.880  17.553   6.969
 5964POPC   C4A75294  23.823  17.368   7.378
 5964POPC   C1B75295  23.477  17.727   6.326
 5964POPC   C2B75296  23.390  17.712   6.766
 5964POPC   C3B75297  23.396  17.445   7.135
 5964POPC   C4B75298  23.407  17.541   7.612
 5965POPC   NC375299  33.238  14.239   5.471
 5965POPC   PO475300  33.021  14.855   5.347
 5965POPC   GL175301  32.997  14.614   5.759
 5965POPC   GL275302  32.770  14.842   5.888
 5965POPC   C1A75303  33.192  14.323   6.130
 5965POPC   D2A75304  33.169  14.128   6.571
 5965POPC   C3A75305  33.362  14.265   7.004
 5965POPC   C4A75306  33.198  14.338   7.441
 5965POPC   C1B75307  32.847  14.640   6.318
 5965POPC   C2B75308  33.140  14.622   6.692
 5965POPC   C3B75309  33.209  14.760   7.135
 5965POPC   C4B75310  32.846  14.717   7.444
 5966POPC   NC375311  35.651  35.626   5.451
 5966POPC   PO475312  35.321  35.057   5.210
 5966POPC   GL175313  35.320  35.175   5.676
 5966POPC   GL275314  35.042  35.373   5.832
 5966POPC   C1A75315  35.500  35.362   6.086
 5966POPC   D2A75316  35.389  35.553   6.497
 5966POPC   C3A75317  35.524  35.375   6.892
 5966POPC   C4A75318  35.293  35.285   7.258
 5966POPC   C1B75319  35.011  35.715   6.175
 5966POPC   C2B75320  34.904  35.758   6.604
 5966POPC   C3B75321  34.911  35.483   6.974
 5966POPC   C4B75322  34.958  35.721   7.342
 5967POPC   NC375323   9.217   2.282   5.602
 5967POPC   PO475324   8.759   1.754   5.418
 5967POPC   GL175325   8.888   1.916   5.792
 5967POPC   GL275326   8.736   2.231   5.790
 5967POPC   C1A75327   9.042   1.825   6.217
 5967POPC   D2A75328   9.270   2.005   6.564
 5967POPC   C3A75329   9.066   1.859   6.917
 5967POPC   C4A75330   8.908   1.781   7.340
 5967POPC   C1B75331   8.819   2.345   6.233
 5967POPC   C2B75332   8.759   2.225   6.687
 5967POPC   C3B75333   8.788   2.238   7.161
 5967POPC   C4B75334   8.590   2.150   7.593
 5968POPC   NC375335  38.916  19.654   5.470
 5968POPC   PO475336  39.414  20.044   5.340
 5968POPC   GL175337  39.234  20.005   5.723
 5968POPC   GL275338  39.543  20.094   5.885
 5968POPC   C1A75339  39.127  19.760   6.111
 5968POPC   D2A75340  39.210  19.831   6.550
 5968POPC   C3A75341  38.944  19.933   6.895
 5968POPC   C4A75342  39.156  19.731   7.233
 5968POPC   C1B75343  39.247  20.239   6.198
 5968POPC   C2B75344  39.309  20.339   6.626
 5968POPC   C3B75345  39.417  20.111   6.982
 5968POPC   C4B75346  39.428  20.196   7.454
 5969POPC   NC375347  41.894  20.023   5.169
 5969POPC   PO475348  41.664  20.634   5.435
 5969POPC   GL175349  41.620  20.694   5.874
 5969POPC   GL275350  41.847  20.539   6.059
 5969POPC   C1A75351  41.445  20.792   6.293
 5969POPC   D2A75352  41.661  20.733   6.704
 5969POPC   C3A75353  41.499  20.896   7.099
 5969POPC   C4A75354  41.443  20.713   7.499
 5969POPC   C1B75355  41.612  20.308   6.354
 5969POPC   C2B75356  41.636  20.192   6.768
 5969POPC   C3B75357  41.546  20.352   7.155
 5969POPC   C4B75358  41.560  20.240   7.606
 5970POPC   NC375359  17.463  23.419   5.313
 5970POPC   PO475360  17.576  22.790   5.354
 5970POPC   GL175361  17.535  23.031   5.740
 5970POPC   GL275362  17.211  23.198   5.748
 5970POPC   C1A75363  17.504  22.873   6.174
 5970POPC   D2A75364  17.530  23.045   6.581
 5970POPC   C3A75365  17.738  22.808   6.915
 5970POPC   C4A75366  17.720  22.623   7.337
 5970POPC   C1B75367  17.239  23.312   6.176
 5970POPC   C2B75368  17.066  23.276   6.594
 5970POPC   C3B75369  17.224  23.098   6.992
 5970POPC   C4B75370  17.366  23.338   7.336
 5971POPC   NC375371  44.119   5.961   5.565
 5971POPC   PO475372  43.684   6.500   5.479
 5971POPC   GL175373  43.749   6.183   5.842
 5971POPC   GL275374  43.615   5.830   5.814
 5971POPC   C1A75375  43.911   5.963   6.217
 5971POPC   D2A75376  43.930   6.049   6.645
 5971POPC   C3A75377  44.012   5.754   6.952
 5971POPC   C4A75378  44.118   5.953   7.318
 5971POPC   C1B75379  43.401   5.851   6.250
 5971POPC   C2B75380  43.512   5.741   6.699
 5971POPC   C3B75381  43.543   5.566   7.122
 5971POPC   C4B75382  43.606   5.760   7.550
 5972POPC   NC375383  31.253  11.571   5.561
 5972POPC   PO475384  31.659  11.127   5.481
 5972POPC   GL175385  31.609  11.335   5.860
 5972POPC   GL275386  31.468  10.995   5.939
 5972POPC   C1A75387  31.369  11.437   6.230
 5972POPC   D2A75388  31.191  11.732   6.529
 5972POPC   C3A75389  31.336  11.602   6.948
 5972POPC   C4A75390  31.718  11.507   7.188
 5972POPC   C1B75391  31.222  10.874   6.282
 5972POPC   C2B75392  31.191  10.847   6.719
 5972POPC   C3B75393  31.025  10.894   7.119
 5972POPC   C4B75394  31.334  11.165   7.252
 5973POPC   NC375395   1.394  41.216   5.518
 5973POPC   PO475396   1.019  41.677   5.142
 5973POPC   GL175397   1.055  41.543   5.671
 5973POPC   GL275398   0.971  41.198   5.789
 5973POPC   C1A75399   1.266  41.495   6.099
 5973POPC   D2A75400   1.351  41.415   6.535
 5973POPC   C3A75401   1.347  41.798   6.796
 5973POPC   C4A75402   1.294  41.743   7.200
 5973POPC   C1B75403   0.768  41.409   6.147
 5973POPC   C2B75404   0.907  41.670   6.505
 5973POPC   C3B75405   0.893  41.535   6.933
 5973POPC   C4B75406   1.049  41.308   7.316
 5974POPC   NC375407   1.576  14.507   5.509
 5974POPC   PO475408   2.031  14.062   5.310
 5974POPC   GL175409   2.014  14.328   5.725
 5974POPC   GL275410   1.716  14.279   5.960
 5974POPC   C1A75411   2.149  14.519   6.142
 5974POPC   D2A75412   2.194  14.376   6.571
 5974POPC   C3A75413   1.964  14.332   6.950
 5974POPC   C4A75414   2.102  14.318   7.378
 5974POPC   C1B75415   1.674  14.562   6.326
 5974POPC   C2B75416   1.868  14.770   6.690
 5974POPC   C3B75417   1.860  14.768   7.191
 5974POPC   C4B75418   1.618  14.564   7.515
 5975POPC   NC375419  20.267  14.219   5.483
 5975POPC   PO475420  20.843  14.402   5.708
 5975POPC   GL175421  20.510  14.401   5.927
 5975POPC   GL275422  20.467  14.745   5.978
 5975POPC   C1A75423  20.472  14.286   6.348
 5975POPC   D2A75424  20.191  14.367   6.665
 5975POPC   C3A75425  20.348  14.303   7.039
 5975POPC   C4A75426  20.602  14.329   7.358
 5975POPC   C1B75427  20.769  14.689   6.289
 5975POPC   C2B75428  20.667  14.604   6.713
 5975POPC   C3B75429  20.942  14.599   7.061
 5975POPC   C4B75430  20.955  14.815   7.398
 5976POPC   NC375431  17.264   0.311   5.484
 5976POPC   PO475432  17.970   0.425   5.575
 5976POPC   GL175433  17.674   0.425   5.847
 5976POPC   GL275434  17.879   0.651   6.034
 5976POPC   C1A75435  17.424   0.485   6.223
 5976POPC   D2A75436  17.586   0.557   6.649
 5976POPC   C3A75437  17.527   0.253   7.005
 5976POPC   C4A75438  17.260   0.491   7.240
 5976POPC   C1B75439  17.930   0.336   6.321
 5976POPC   C2B75440  18.086   0.453   6.704
 5976POPC   C3B75441  17.897   0.589   7.073
 5976POPC   C4B75442  17.710   0.625   7.495
 5977POPC   NC375443   7.626  38.451   5.422
 5977POPC   PO475444   7.719  37.943   5.819
 5977POPC   GL175445   7.499  38.355   5.949
 5977POPC   GL275446   7.626  38.722   5.852
 5977POPC   C1A75447   7.304  38.312   6.365
 5977POPC   D2A75448   7.193  38.183   6.782
 5977POPC   C3A75449   7.530  38.060   7.070
 5977POPC   C4A75450   7.536  38.124   7.524
 5977POPC   C1B75451   7.395  38.791   6.229
 5977POPC   C2B75452   7.338  38.837   6.658
 5977POPC   C3B75453   7.326  38.728   7.087
 5977POPC   C4B75454   7.582  38.939   7.402
 5978POPC   NC375455  42.764  15.242   5.330
 5978POPC   PO475456  43.408  15.091   5.404
 5978POPC   GL175457  43.108  15.113   5.721
 5978POPC   GL275458  43.113  15.469   5.704
 5978POPC   C1A75459  43.142  15.157   6.183
 5978POPC   D2A75460  43.101  15.228   6.627
 5978POPC   C3A75461  43.157  14.825   6.840
 5978POPC   C4A75462  43.058  14.643   7.257
 5978POPC   C1B75463  43.329  15.616   6.099
 5978POPC   C2B75464  43.460  15.637   6.522
 5978POPC   C3B75465  43.369  15.565   6.960
 5978POPC   C4B75466  43.105  15.223   7.147
 5979POPC   NC375467  32.475  34.186   5.458
 5979POPC   PO475468  32.134  34.738   5.363
 5979POPC   GL175469  32.261  34.556   5.756
 5979POPC   GL275470  32.062  34.247   5.792
 5979POPC   C1A75471  32.197  34.709   6.179
 5979POPC   D2A75472  31.962  34.644   6.577
 5979POPC   C3A75473  32.207  34.772   6.924
 5979POPC   C4A75474  32.289  34.675   7.351
 5979POPC   C1B75475  32.341  34.213   6.156
 5979POPC   C2B75476  32.411  34.399   6.582
 5979POPC   C3B75477  32.255  34.246   6.972
 5979POPC   C4B75478  32.379  34.186   7.374
 5980POPC   NC375479   0.671   6.838   5.450
 5980POPC   PO475480   0.579   6.158   5.569
 5980POPC   GL175481   0.508   6.532   5.853
 5980POPC   GL275482   0.183   6.548   6.014
 5980POPC   C1A75483   0.598   6.826   6.218
 5980POPC   D2A75484   0.818   6.815   6.589
 5980POPC   C3A75485   0.685   6.434   6.770
 5980POPC   C4A75486   0.594   6.442   7.192
 5980POPC   C1B75487   0.126   6.781   6.395
 5980POPC   C2B75488   0.320   6.817   6.822
 5980POPC   C3B75489   0.222   6.760   7.275
 5980POPC   C4B75490   0.099   6.668   7.713
 5981POPC   NC375491  34.425   4.440   5.329
 5981POPC   PO475492  34.976   4.175   5.424
 5981POPC   GL175493  34.697   4.344   5.771
 5981POPC   GL275494  34.363   4.306   5.842
 5981POPC   C1A75495  34.693   4.221   6.226
 5981POPC   D2A75496  34.385   4.424   6.489
 5981POPC   C3A75497  34.329   4.329   6.923
 5981POPC   C4A75498  34.604   4.412   7.263
 5981POPC   C1B75499  34.294   3.928   6.158
 5981POPC   C2B75500  34.402   3.919   6.582
 5981POPC   C3B75501  34.257   3.813   6.978
 5981POPC   C4B75502  34.344   3.966   7.395
 5982POPC   NC375503  19.074  17.728   5.562
 5982POPC   PO475504  19.041  17.069   5.640
 5982POPC   GL175505  19.019  17.375   5.955
 5982POPC   GL275506  19.335  17.532   5.956
 5982POPC   C1A75507  18.981  17.584   6.350
 5982POPC   D2A75508  18.664  17.689   6.653
 5982POPC   C3A75509  18.837  17.683   7.066
 5982POPC   C4A75510  19.092  17.783   7.411
 5982POPC   C1B75511  19.417  17.269   6.293
 5982POPC   C2B75512  19.398  17.471   6.696
 5982POPC   C3B75513  19.288  17.404   7.143
 5982POPC   C4B75514  19.393  17.407   7.585
 5983POPC   NC375515  24.807   8.729   5.546
 5983POPC   PO475516  25.227   9.191   5.293
 5983POPC   GL175517  25.160   9.082   5.701
 5983POPC   GL275518  24.816   9.233   5.734
 5983POPC   C1A75519  25.416   8.905   6.058
 5983POPC   D2A75520  25.684   9.057   6.416
 5983POPC   C3A75521  25.494   9.012   6.826
 5983POPC   C4A75522  25.635   8.878   7.228
 5983POPC   C1B75523  24.950   9.096   6.160
 5983POPC   C2B75524  24.977   9.182   6.585
 5983POPC   C3B75525  25.014   9.143   7.005
 5983POPC   C4B75526  25.232   9.168   7.323
 5984POPC   NC375527  27.871  38.679   5.330
 5984POPC   PO475528  27.510  38.113   5.407
 5984POPC   GL175529  27.674  38.289   5.785
 5984POPC   GL275530  27.930  38.563   5.826
 5984POPC   C1A75531  27.689  38.399   6.221
 5984POPC   D2A75532  27.923  38.285   6.550
 5984POPC   C3A75533  27.730  38.461   6.881
 5984POPC   C4A75534  27.755  38.418   7.281
 5984POPC   C1B75535  27.938  38.849   6.252
 5984POPC   C2B75536  27.990  38.869   6.705
 5984POPC   C3B75537  27.833  38.891   7.144
 5984POPC   C4B75538  27.380  38.930   7.234
 5985POPC   NC375539  40.672  38.628   5.644
 5985POPC   PO475540  40.753  39.160   5.167
 5985POPC   GL175541  40.696  39.156   5.637
 5985POPC   GL275542  40.968  39.000   5.847
 5985POPC   C1A75543  40.601  39.268   6.094
 5985POPC   D2A75544  40.738  39.179   6.532
 5985POPC   C3A75545  40.576  39.271   6.955
 5985POPC   C4A75546  40.837  39.194   7.310
 5985POPC   C1B75547  40.989  38.804   6.286
 5985POPC   C2B75548  41.181  38.721   6.708
 5985POPC   C3B75549  41.155  38.816   7.157
 5985POPC   C4B75550  41.116  38.728   7.640
 5986POPC   NC375551  30.148   9.305   5.508
 5986POPC   PO475552  29.643   9.855   5.534
 5986POPC   GL175553  29.918   9.650   5.814
 5986POPC   GL275554  30.083   9.921   5.971
 5986POPC   C1A75555  29.966   9.489   6.243
 5986POPC   D2A75556  30.157   9.567   6.658
 5986POPC   C3A75557  29.922   9.696   7.034
 5986POPC   C4A75558  29.778   9.544   7.426
 5986POPC   C1B75559  30.301  10.075   6.340
 5986POPC   C2B75560  30.287  10.066   6.802
 5986POPC   C3B75561  30.361   9.897   7.205
 5986POPC   C4B75562  30.078   9.993   7.555
 5987POPC   NC375563   3.077   4.596   5.623
 5987POPC   PO475564   3.132   3.944   5.442
 5987POPC   GL175565   2.919   4.134   5.812
 5987POPC   GL275566   2.540   4.193   5.759
 5987POPC   C1A75567   3.030   4.166   6.267
 5987POPC   D2A75568   3.206   4.340   6.675
 5987POPC   C3A75569   3.054   4.169   7.057
 5987POPC   C4A75570   2.689   4.262   7.313
 5987POPC   C1B75571   2.530   4.325   6.202
 5987POPC   C2B75572   2.712   4.392   6.620
 5987POPC   C3B75573   2.765   4.648   6.987
 5987POPC   C4B75574   2.460   4.734   7.315
 5988POPC   NC375575  13.776   6.727   5.600
 5988POPC   PO475576  13.113   6.537   5.541
 5988POPC   GL175577  13.288   6.838   5.831
 5988POPC   GL275578  13.457   6.510   5.936
 5988POPC   C1A75579  13.384   6.992   6.283
 5988POPC   D2A75580  13.509   6.844   6.735
 5988POPC   C3A75581  13.843   6.930   7.070
 5988POPC   C4A75582  13.771   6.837   7.536
 5988POPC   C1B75583  13.614   6.518   6.333
 5988POPC   C2B75584  13.320   6.361   6.605
 5988POPC   C3B75585  13.170   6.527   6.952
 5988POPC   C4B75586  13.569   6.498   7.172
 5989POPC   NC375587  17.757  39.345   5.524
 5989POPC   PO475588  17.118  39.613   5.442
 5989POPC   GL175589  17.394  39.491   5.844
 5989POPC   GL275590  17.443  39.128   5.966
 5989POPC   C1A75591  17.647  39.463   6.247
 5989POPC   D2A75592  17.354  39.483   6.563
 5989POPC   C3A75593  17.380  39.199   6.857
 5989POPC   C4A75594  17.533  39.348   7.235
 5989POPC   C1B75595  17.413  38.997   6.363
 5989POPC   C2B75596  17.758  38.832   6.572
 5989POPC   C3B75597  17.784  38.949   6.984
 5989POPC   C4B75598  17.540  38.847   7.299
 5990POPC   NC375599  36.894  34.519   5.171
 5990POPC   PO475600  36.235  34.577   5.382
 5990POPC   GL175601  36.181  34.471   5.793
 5990POPC   GL275602  36.515  34.494   5.884
 5990POPC   C1A75603  36.013  34.580   6.190
 5990POPC   D2A75604  36.160  34.793   6.556
 5990POPC   C3A75605  35.950  34.652   6.917
 5990POPC   C4A75606  36.136  34.712   7.315
 5990POPC   C1B75607  36.405  34.262   6.276
 5990POPC   C2B75608  36.326  34.333   6.713
 5990POPC   C3B75609  36.436  34.346   7.124
 5990POPC   C4B75610  36.382  34.174   7.527
 5991POPC   NC375611  15.176  35.851   5.229
 5991POPC   PO475612  15.095  35.201   5.340
 5991POPC   GL175613  15.252  35.425   5.798
 5991POPC   GL275614  14.944  35.474   6.012
 5991POPC   C1A75615  15.370  35.562   6.290
 5991POPC   D2A75616  15.129  35.569   6.701
 5991POPC   C3A75617  15.213  35.343   7.089
 5991POPC   C4A75618  15.467  35.638   7.337
 5991POPC   C1B75619  15.149  35.117   6.218
 5991POPC   C2B75620  15.075  35.039   6.662
 5991POPC   C3B75621  14.930  34.854   7.010
 5991POPC   C4B75622  14.884  35.018   7.392
 5992POPC   NC375623  21.835   2.697   5.435
 5992POPC   PO475624  22.464   2.926   5.335
 5992POPC   GL175625  22.402   2.819   5.772
 5992POPC   GL275626  22.392   3.161   5.908
 5992POPC   C1A75627  22.220   2.633   6.173
 5992POPC   D2A75628  22.129   2.865   6.575
 5992POPC   C3A75629  22.050   2.619   6.935
 5992POPC   C4A75630  22.348   2.311   7.072
 5992POPC   C1B75631  22.612   2.962   6.245
 5992POPC   C2B75632  22.580   3.112   6.695
 5992POPC   C3B75633  22.311   3.033   7.064
 5992POPC   C4B75634  22.372   2.704   7.396
 5993POPC   NC375635  37.804  22.645   5.426
 5993POPC   PO475636  37.990  23.355   5.477
 5993POPC   GL175637  37.834  23.177   5.853
 5993POPC   GL275638  37.759  22.882   5.861
 5993POPC   C1A75639  37.542  23.186   6.200
 5993POPC   D2A75640  37.423  23.134   6.622
 5993POPC   C3A75641  37.682  23.109   6.996
 5993POPC   C4A75642  38.091  23.278   7.078
 5993POPC   C1B75643  37.779  22.665   6.260
 5993POPC   C2B75644  37.550  22.618   6.651
 5993POPC   C3B75645  37.673  22.600   7.056
 5993POPC   C4B75646  37.476  22.780   7.417
 5994POPC   NC375647   9.244  41.778   5.397
 5994POPC   PO475648   9.855  41.549   5.458
 5994POPC   GL175649   9.730  41.570   5.889
 5994POPC   GL275650   9.775  41.918   5.897
 5994POPC   C1A75651   9.896  41.266   6.196
 5994POPC   D2A75652  10.064  41.315   6.605
 5994POPC   C3A75653   9.817  41.253   6.958
 5994POPC   C4A75654   9.867  41.446   7.385
 5994POPC   C1B75655   9.570  41.834   6.316
 5994POPC   C2B75656   9.281  41.567   6.602
 5994POPC   C3B75657   9.382  41.529   7.046
 5994POPC   C4B75658   9.669  41.854   7.127
 5995POPC   NC375659  13.192  34.859   5.622
 5995POPC   PO475660  13.484  34.284   5.293
 5995POPC   GL175661  13.564  34.501   5.713
 5995POPC   GL275662  13.285  34.449   5.952
 5995POPC   C1A75663  13.793  34.432   6.123
 5995POPC   D2A75664  13.839  34.623   6.551
 5995POPC   C3A75665  13.578  34.504   6.910
 5995POPC   C4A75666  13.674  34.663   7.324
 5995POPC   C1B75667  13.456  34.815   6.230
 5995POPC   C2B75668  13.287  35.055   6.559
 5995POPC   C3B75669  13.391  34.967   6.969
 5995POPC   C4B75670  13.205  34.897   7.360
 5996POPC   NC375671  22.415  22.819   5.572
 5996POPC   PO475672  21.918  23.176   5.277
 5996POPC   GL175673  22.104  23.227   5.688
 5996POPC   GL275674  21.864  22.953   5.798
 5996POPC   C1A75675  22.259  23.259   6.143
 5996POPC   D2A75676  22.362  22.945   6.535
 5996POPC   C3A75677  22.339  23.008   7.007
 5996POPC   C4A75678  22.197  22.955   7.463
 5996POPC   C1B75679  21.899  22.923   6.290
 5996POPC   C2B75680  21.853  22.963   6.774
 5996POPC   C3B75681  21.933  22.686   7.134
 5996POPC   C4B75682  22.108  22.423   7.516
 5997POPC   NC375683   0.327   0.918   5.296
 5997POPC   PO475684   0.543   1.551   5.261
 5997POPC   GL175685   0.540   1.313   5.644
 5997POPC   GL275686   0.555   1.633   5.782
 5997POPC   C1A75687   0.479   1.108   6.058
 5997POPC   D2A75688   0.640   1.005   6.481
 5997POPC   C3A75689   0.451   1.110   6.879
 5997POPC   C4A75690   0.547   1.310   7.273
 5997POPC   C1B75691   0.213   1.543   6.053
 5997POPC   C2B75692   0.210   1.417   6.494
 5997POPC   C3B75693   0.321   1.626   6.874
 5997POPC   C4B75694   0.124   1.597   7.270
 5998POPC   NC375695  24.660   0.422   5.250
 5998POPC   PO475696  24.090   0.082   5.574
 5998POPC   GL175697  24.450   0.167   5.841
 5998POPC   GL275698  24.584   0.498   5.787
 5998POPC   C1A75699  24.340   0.357   6.245
 5998POPC   D2A75700  24.499   0.444   6.659
 5998POPC   C3A75701  24.241   0.433   7.039
 5998POPC   C4A75702  24.273   0.261   7.439
 5998POPC   C1B75703  24.706   0.725   6.193
 5998POPC   C2B75704  24.719   0.936   6.607
 5998POPC   C3B75705  24.633   0.774   7.025
 5998POPC   C4B75706  24.646   0.726   7.466
 5999POPC   NC375707  10.300  17.553   5.353
 5999POPC   PO475708   9.948  16.938   5.529
 5999POPC   GL175709   9.797  17.303   5.813
 5999POPC   GL275710   9.775  17.685   5.765
 5999POPC   C1A75711   9.808  17.335   6.271
 5999POPC   D2A75712   9.997  17.523   6.662
 5999POPC   C3A75713   9.818  17.327   7.030
 5999POPC   C4A75714   9.402  17.186   7.155
 5999POPC   C1B75715   9.836  17.847   6.192
 5999POPC   C2B75716   9.925  18.043   6.579
 5999POPC   C3B75717   9.881  17.941   7.011
 5999POPC   C4B75718  10.025  17.688   7.362
 6000POPC   NC375719  19.213  13.078   5.488
 6000POPC   PO475720  19.063  12.442   5.331
 6000POPC   GL175721  19.022  12.682   5.734
 6000POPC   GL275722  18.837  13.004   5.831
 6000POPC   C1A75723  19.103  12.717   6.181
 6000POPC   D2A75724  19.012  12.513   6.593
 6000POPC   C3A75725  19.131  12.836   6.890
 6000POPC   C4A75726  19.438  12.875   7.227
 6000POPC   C1B75727  18.780  13.160   6.261
 6000POPC   C2B75728  18.617  13.002   6.673
 6000POPC   C3B75729  18.673  12.954   7.103
 6000POPC   C4B75730  18.957  12.792   7.369
 6001POPC   NC375731  18.497  32.198   5.345
 6001POPC   PO475732  17.922  31.879   5.217
 6001POPC   GL175733  17.986  32.114   5.690
 6001POPC   GL275734  18.316  32.247   5.839
 6001POPC   C1A75735  17.962  32.134   6.189
 6001POPC   D2A75736  18.110  32.063   6.622
 6001POPC   C3A75737  17.984  32.255   7.001
 6001POPC   C4A75738  18.351  32.325   7.259
 6001POPC   C1B75739  18.367  32.436   6.293
 6001POPC   C2B75740  18.470  32.421   6.755
 6001POPC   C3B75741  18.740  32.615   7.107
 6001POPC   C4B75742  18.770  32.517   7.592
 6002POPC   NC375743  11.000  23.830   5.421
 6002POPC   PO475744  11.521  23.413   5.390
 6002POPC   GL175745  11.368  23.658   5.754
 6002POPC   GL275746  11.021  23.545   5.847
 6002POPC   C1A75747  11.274  23.873   6.152
 6002POPC   D2A75748  11.194  23.667   6.535
 6002POPC   C3A75749  11.340  23.872   6.912
 6002POPC   C4A75750  11.326  24.049   7.326
 6002POPC   C1B75751  10.838  23.389   6.220
 6002POPC   C2B75752  10.719  23.552   6.631
 6002POPC   C3B75753  10.867  23.645   7.018
 6002POPC   C4B75754  10.914  23.697   7.431
 6003POPC   NC375755  40.525  42.480   5.587
 6003POPC   PO475756  40.554  41.840   5.389
 6003POPC   GL175757  40.642  42.008   5.813
 6003POPC   GL275758  40.328  41.852   5.892
 6003POPC   C1A75759  40.778  42.321   6.185
 6003POPC   D2A75760  41.107  42.460   6.514
 6003POPC   C3A75761  40.986  42.473   6.972
 6003POPC   C4A75762  41.072  42.696   7.377
 6003POPC   C1B75763  40.501  41.879   6.292
 6003POPC   C2B75764  40.606  42.174   6.640
 6003POPC   C3B75765  40.457  42.226   7.035
 6003POPC   C4B75766  40.461  41.870   7.278
 6004POPC   NC375767  21.154  44.500   5.385
 6004POPC   PO475768  21.510   0.088   5.310
 6004POPC   GL175769  21.537  44.763   5.623
 6004POPC   GL275770  21.694  44.941   5.833
 6004POPC   C1A75771  21.296  44.695   6.029
 6004POPC   D2A75772  21.168  44.941   6.396
 6004POPC   C3A75773  21.136  44.713   6.782
 6004POPC   C4A75774  21.152  44.843   7.191
 6004POPC   C1B75775  21.783  44.720   6.207
 6004POPC   C2B75776  21.574  44.549   6.535
 6004POPC   C3B75777  21.611  44.535   6.966
 6004POPC   C4B75778  21.704  44.890   7.138
 6005POPC   NC375779  35.537   7.081   5.478
 6005POPC   PO475780  35.401   7.769   5.541
 6005POPC   GL175781  35.416   7.415   5.895
 6005POPC   GL275782  35.712   7.172   5.951
 6005POPC   C1A75783  35.135   7.398   6.273
 6005POPC   D2A75784  34.917   7.729   6.491
 6005POPC   C3A75785  35.062   7.653   6.904
 6005POPC   C4A75786  35.082   7.237   7.093
 6005POPC   C1B75787  35.651   7.372   6.357
 6005POPC   C2B75788  35.439   7.300   6.744
 6005POPC   C3B75789  35.593   7.202   7.180
 6005POPC   C4B75790  35.722   7.431   7.552
 6006POPC   NC375791  22.883   7.143   5.472
 6006POPC   PO475792  23.341   7.546   5.285
 6006POPC   GL175793  23.363   7.643   5.744
 6006POPC   GL275794  23.251   7.307   5.824
 6006POPC   C1A75795  23.252   7.676   6.228
 6006POPC   D2A75796  22.918   7.494   6.514
 6006POPC   C3A75797  22.884   7.497   6.954
 6006POPC   C4A75798  22.544   7.427   7.214
 6006POPC   C1B75799  23.290   6.957   6.122
 6006POPC   C2B75800  23.071   6.979   6.511
 6006POPC   C3B75801  22.730   7.026   6.808
 6006POPC   C4B75802  22.842   7.003   7.227
 6007POPC   NC375803  33.243  21.270   5.434
 6007POPC   PO475804  32.556  21.220   5.132
 6007POPC   GL175805  32.783  21.293   5.658
 6007POPC   GL275806  33.094  21.130   5.885
 6007POPC   C1A75807  32.973  21.531   6.126
 6007POPC   D2A75808  33.047  21.549   6.584
 6007POPC   C3A75809  32.876  21.286   6.893
 6007POPC   C4A75810  32.817  21.532   7.227
 6007POPC   C1B75811  33.160  21.118   6.357
 6007POPC   C2B75812  33.362  21.171   6.781
 6007POPC   C3B75813  33.283  21.200   7.239
 6007POPC   C4B75814  33.314  21.153   7.701
 6008POPC   NC375815  40.564  13.874   5.025
 6008POPC   PO475816  41.061  13.929   5.557
 6008POPC   GL175817  40.810  13.710   5.872
 6008POPC   GL275818  41.034  13.860   6.098
 6008POPC   C1A75819  40.651  13.582   6.311
 6008POPC   D2A75820  40.835  13.760   6.685
 6008POPC   C3A75821  40.644  13.758   7.088
 6008POPC   C4A75822  40.277  13.549   7.210
 6008POPC   C1B75823  41.179  13.520   6.358
 6008POPC   C2B75824  40.998  13.256   6.677
 6008POPC   C3B75825  40.959  13.373   7.127
 6008POPC   C4B75826  40.967  13.691   7.488
 6009POPC   NC375827  23.224  35.641   5.606
 6009POPC   PO475828  23.666  35.108   5.345
 6009POPC   GL175829  23.644  35.346   5.744
 6009POPC   GL275830  23.348  35.220   5.937
 6009POPC   C1A75831  23.853  35.395   6.161
 6009POPC   D2A75832  23.951  35.655   6.540
 6009POPC   C3A75833  23.785  35.502   6.944
 6009POPC   C4A75834  23.825  35.398   7.372
 6009POPC   C1B75835  23.388  35.582   6.235
 6009POPC   C2B75836  23.426  35.708   6.630
 6009POPC   C3B75837  23.288  35.897   6.986
 6009POPC   C4B75838  23.455  35.747   7.298
 6010POPC   NC375839  42.273  18.626   5.421
 6010POPC   PO475840  41.985  18.048   5.467
 6010POPC   GL175841  42.024  18.285   5.876
 6010POPC   GL275842  42.308  18.562   5.951
 6010POPC   C1A75843  42.181  18.181   6.290
 6010POPC   D2A75844  42.366  18.281   6.687
 6010POPC   C3A75845  42.160  18.277   7.052
 6010POPC   C4A75846  41.981  18.577   7.298
 6010POPC   C1B75847  42.658  18.414   6.281
 6010POPC   C2B75848  42.863  18.193   6.667
 6010POPC   C3B75849  42.738  18.343   7.076
 6010POPC   C4B75850  42.488  18.366   7.456
 6011POPC   NC375851  32.329  14.059   5.380
 6011POPC   PO475852  32.011  13.506   5.483
 6011POPC   GL175853  32.110  13.830   5.800
 6011POPC   GL275854  32.483  13.876   5.825
 6011POPC   C1A75855  31.995  13.764   6.228
 6011POPC   D2A75856  32.212  13.752   6.609
 6011POPC   C3A75857  32.053  13.741   7.015
 6011POPC   C4A75858  32.280  13.484   7.291
 6011POPC   C1B75859  32.603  13.772   6.234
 6011POPC   C2B75860  32.693  13.921   6.619
 6011POPC   C3B75861  32.569  13.789   7.006
 6011POPC   C4B75862  32.406  13.975   7.352
 6012POPC   NC375863  42.583  33.202   5.193
 6012POPC   PO475864  42.094  32.799   5.407
 6012POPC   GL175865  42.226  33.051   5.765
 6012POPC   GL275866  42.560  33.235   5.707
 6012POPC   C1A75867  42.152  32.970   6.220
 6012POPC   D2A75868  42.360  32.833   6.619
 6012POPC   C3A75869  42.146  32.867   7.042
 6012POPC   C4A75870  42.168  32.772   7.488
 6012POPC   C1B75871  42.624  33.128   6.151
 6012POPC   C2B75872  42.444  33.328   6.510
 6012POPC   C3B75873  42.462  33.265   6.940
 6012POPC   C4B75874  42.609  32.999   7.251
 6013POPC   NC375875   7.244  44.150   5.211
 6013POPC   PO475876   7.647  43.603   5.424
 6013POPC   GL175877   7.492  43.751   5.802
 6013POPC   GL275878   7.247  44.011   5.727
 6013POPC   C1A75879   7.303  43.794   6.203
 6013POPC   D2A75880   7.144  43.975   6.567
 6013POPC   C3A75881   7.308  43.805   6.935
 6013POPC   C4A75882   7.535  43.755   7.288
 6013POPC   C1B75883   7.100  44.265   6.102
 6013POPC   C2B75884   7.148  44.484   6.539
 6013POPC   C3B75885   7.246  44.338   6.976
 6013POPC   C4B75886   7.135  44.079   7.327
 6014POPC   NC375887  23.335  12.348   5.343
 6014POPC   PO475888  22.703  12.501   5.434
 6014POPC   GL175889  22.958  12.210   5.729
 6014POPC   GL275890  23.301  12.309   5.847
 6014POPC   C1A75891  22.951  11.927   6.126
 6014POPC   D2A75892  22.698  11.810   6.520
 6014POPC   C3A75893  22.885  11.828   6.931
 6014POPC   C4A75894  23.154  12.061   7.209
 6014POPC   C1B75895  23.071  12.418   6.189
 6014POPC   C2B75896  22.735  12.337   6.461
 6014POPC   C3B75897  22.780  12.327   6.896
 6014POPC   C4B75898  22.953  12.553   7.247
 6015POPC   NC375899   0.132  37.629   5.106
 6015POPC   PO475900  44.535  37.535   5.489
 6015POPC   GL175901  44.890  37.625   5.754
 6015POPC   GL275902  44.639  37.768   5.958
 6015POPC   C1A75903   0.038  37.636   6.210
 6015POPC   D2A75904   0.044  37.825   6.620
 6015POPC   C3A75905  44.833  37.553   6.943
 6015POPC   C4A75906  44.519  37.717   7.241
 6015POPC   C1B75907  44.444  37.861   6.335
 6015POPC   C2B75908  44.478  37.869   6.749
 6015POPC   C3B75909  44.405  38.195   7.033
 6015POPC   C4B75910  44.347  38.165   7.437
 6016POPC   NC375911  43.191   4.554   5.337
 6016POPC   PO475912  43.740   4.588   5.678
 6016POPC   GL175913  43.315   4.557   5.866
 6016POPC   GL275914  43.013   4.329   5.788
 6016POPC   C1A75915  43.170   4.404   6.280
 6016POPC   D2A75916  43.204   4.133   6.622
 6016POPC   C3A75917  43.035   4.319   6.956
 6016POPC   C4A75918  43.298   4.234   7.325
 6016POPC   C1B75919  42.719   4.199   6.126
 6016POPC   C2B75920  42.709   3.964   6.516
 6016POPC   C3B75921  42.806   3.869   6.946
 6016POPC   C4B75922  42.819   4.092   7.351
 6017POPC   NC375923  22.263   9.160   5.460
 6017POPC   PO475924  21.841   8.589   5.327
 6017POPC   GL175925  22.027   8.780   5.714
 6017POPC   GL275926  21.958   9.147   5.843
 6017POPC   C1A75927  22.193   8.831   6.138
 6017POPC   D2A75928  22.367   9.111   6.418
 6017POPC   C3A75929  22.384   8.853   6.796
 6017POPC   C4A75930  22.308   8.916   7.220
 6017POPC   C1B75931  21.838   9.284   6.208
 6017POPC   C2B75932  21.931   9.216   6.626
 6017POPC   C3B75933  21.903   9.190   7.047
 6017POPC   C4B75934  21.840   9.376   7.407
 6018POPC   NC375935  25.907   4.248   5.452
 6018POPC   PO475936  26.406   4.788   5.377
 6018POPC   GL175937  26.101   4.596   5.796
 6018POPC   GL275938  25.746   4.445   5.914
 6018POPC   C1A75939  26.093   4.445   6.280
 6018POPC   D2A75940  26.382   4.296   6.652
 6018POPC   C3A75941  26.351   4.481   7.057
 6018POPC   C4A75942  26.445   4.482   7.505
 6018POPC   C1B75943  25.726   4.826   6.185
 6018POPC   C2B75944  25.798   4.883   6.610
 6018POPC   C3B75945  25.866   4.534   6.893
 6018POPC   C4B75946  25.900   4.376   7.322
 6019POPC   NC375947  41.366  23.843   5.525
 6019POPC   PO475948  41.975  23.612   5.406
 6019POPC   GL175949  41.759  23.667   5.815
 6019POPC   GL275950  41.442  23.457   5.851
 6019POPC   C1A75951  41.611  23.901   6.198
 6019POPC   D2A75952  41.719  24.080   6.608
 6019POPC   C3A75953  41.566  23.909   6.949
 6019POPC   C4A75954  41.718  23.686   7.241
 6019POPC   C1B75955  41.222  23.550   6.234
 6019POPC   C2B75956  41.208  23.792   6.609
 6019POPC   C3B75957  41.143  23.641   7.025
 6019POPC   C4B75958  41.366  23.318   7.242
 6020POPC   NC375959  41.669   3.791   5.297
 6020POPC   PO475960  41.700   4.517   5.349
 6020POPC   GL175961  41.428   4.447   5.693
 6020POPC   GL275962  41.302   4.094   5.817
 6020POPC   C1A75963  41.458   4.493   6.137
 6020POPC   D2A75964  41.784   4.401   6.425
 6020POPC   C3A75965  41.660   4.452   6.844
 6020POPC   C4A75966  41.646   4.327   7.249
 6020POPC   C1B75967  41.626   3.960   6.115
 6020POPC   C2B75968  41.819   3.881   6.517
 6020POPC   C3B75969  41.654   3.929   6.919
 6020POPC   C4B75970  41.883   3.879   7.288
 6021POPC   NC375971  18.013   1.746   5.483
 6021POPC   PO475972  18.616   2.008   5.448
 6021POPC   GL175973  18.507   2.122   5.861
 6021POPC   GL275974  18.158   2.031   5.883
 6021POPC   C1A75975  18.521   2.051   6.281
 6021POPC   D2A75976  18.135   2.028   6.493
 6021POPC   C3A75977  18.209   2.008   6.900
 6021POPC   C4A75978  18.110   1.809   7.278
 6021POPC   C1B75979  18.113   2.397   6.114
 6021POPC   C2B75980  17.930   2.509   6.502
 6021POPC   C3B75981  17.889   2.415   6.953
 6021POPC   C4B75982  18.139   2.307   7.312
 6022POPC   NC375983  19.731  42.381   5.216
 6022POPC   PO475984  19.371  42.192   5.714
 6022POPC   GL175985  19.828  42.278   5.745
 6022POPC   GL275986  19.966  42.599   5.617
 6022POPC   C1A75987  20.030  42.218   6.143
 6022POPC   D2A75988  19.831  42.197   6.565
 6022POPC   C3A75989  19.958  42.349   6.974
 6022POPC   C4A75990  20.019  42.022   7.300
 6022POPC   C1B75991  20.143  42.710   6.017
 6022POPC   C2B75992  20.140  42.632   6.458
 6022POPC   C3B75993  20.377  42.601   6.808
 6022POPC   C4B75994  20.419  42.599   7.221
 6023POPC   NC375995   0.307  15.249   5.213
 6023POPC   PO475996   0.542  14.706   5.290
 6023POPC   GL175997   0.431  14.940   5.654
 6023POPC   GL275998   0.151  14.860   5.819
 6023POPC   C1A75999   0.518  15.114   6.090
 6023POPC   D2A76000   0.372  15.258   6.521
 6023POPC   C3A76001   0.601  15.128   6.906
 6023POPC   C4A76002   1.008  15.256   7.068
 6023POPC   C1B76003   0.042  14.993   6.222
 6023POPC   C2B76004   0.058  14.838   6.644
 6023POPC   C3B76005   0.068  15.189   6.917
 6023POPC   C4B76006   0.269  15.282   7.267
 6024POPC   NC376007  27.805   7.689   5.375
 6024POPC   PO476008  27.455   7.134   5.383
 6024POPC   GL176009  27.638   7.350   5.735
 6024POPC   GL276010  27.957   7.209   5.707
 6024POPC   C1A76011  27.539   7.574   6.160
 6024POPC   D2A76012  27.346   7.518   6.591
 6024POPC   C3A76013  27.252   7.746   7.012
 6024POPC   C4A76014  27.273   7.730   7.494
 6024POPC   C1B76015  27.821   7.130   6.149
 6024POPC   C2B76016  27.876   7.377   6.542
 6024POPC   C3B76017  27.729   7.539   6.927
 6024POPC   C4B76018  27.772   7.639   7.331
 6025POPC   NC376019   3.019  28.878   5.521
 6025POPC   PO476020   2.645  28.328   5.407
 6025POPC   GL176021   2.833  28.314   5.827
 6025POPC   GL276022   2.788  28.658   5.958
 6025POPC   C1A76023   2.848  28.282   6.300
 6025POPC   D2A76024   2.577  28.199   6.653
 6025POPC   C3A76025   2.790  28.331   7.023
 6025POPC   C4A76026   3.092  28.183   7.310
 6025POPC   C1B76027   2.465  28.628   6.330
 6025POPC   C2B76028   2.412  28.656   6.796
 6025POPC   C3B76029   2.589  28.752   7.213
 6025POPC   C4B76030   2.459  28.662   7.657
 6026POPC   NC376031  30.382  40.674   5.482
 6026POPC   PO476032  30.948  40.307   5.507
 6026POPC   GL176033  30.771  40.555   5.848
 6026POPC   GL276034  30.411  40.532   5.975
 6026POPC   C1A76035  30.880  40.926   6.094
 6026POPC   D2A76036  31.150  41.007   6.458
 6026POPC   C3A76037  30.954  40.842   6.822
 6026POPC   C4A76038  30.923  40.816   7.237
 6026POPC   C1B76039  30.332  40.977   6.110
 6026POPC   C2B76040  30.271  41.134   6.525
 6026POPC   C3B76041  30.328  41.207   6.979
 6026POPC   C4B76042  30.428  40.955   7.316
 6027POPC   NC376043  13.406  35.538   5.587
 6027POPC   PO476044  13.787  36.022   5.342
 6027POPC   GL176045  13.618  36.040   5.754
 6027POPC   GL276046  13.930  35.928   5.872
 6027POPC   C1A76047  13.590  36.254   6.184
 6027POPC   D2A76048  13.481  36.057   6.610
 6027POPC   C3A76049  13.517  36.303   6.987
 6027POPC   C4A76050  13.257  36.290   7.355
 6027POPC   C1B76051  13.703  35.760   6.214
 6027POPC   C2B76052  13.836  35.670   6.605
 6027POPC   C3B76053  13.850  35.891   6.988
 6027POPC   C4B76054  13.466  35.863   7.205
 6028POPC   NC376055  34.983  15.391   5.588
 6028POPC   PO476056  35.522  15.125   5.402
 6028POPC   GL176057  35.499  15.076   5.832
 6028POPC   GL276058  35.221  15.243   6.024
 6028POPC   C1A76059  35.542  14.947   6.256
 6028POPC   D2A76060  35.364  15.121   6.626
 6028POPC   C3A76061  35.633  15.026   6.947
 6028POPC   C4A76062  35.471  14.929   7.352
 6028POPC   C1B76063  35.483  15.526   6.340
 6028POPC   C2B76064  35.579  15.536   6.810
 6028POPC   C3B76065  35.352  15.391   7.147
 6028POPC   C4B76066  35.157  15.509   7.499
 6029POPC   NC376067  15.414   4.585   5.046
 6029POPC   PO476068  15.299   5.023   5.518
 6029POPC   GL176069  15.041   4.871   5.835
 6029POPC   GL276070  15.068   5.205   5.997
 6029POPC   C1A76071  14.863   4.841   6.253
 6029POPC   D2A76072  14.922   5.200   6.509
 6029POPC   C3A76073  14.844   5.194   6.910
 6029POPC   C4A76074  15.111   5.003   7.200
 6029POPC   C1B76075  15.397   5.169   6.299
 6029POPC   C2B76076  15.385   5.090   6.739
 6029POPC   C3B76077  15.530   4.789   7.035
 6029POPC   C4B76078  15.596   5.015   7.383
 6030POPC   NC376079   8.590  20.059   5.063
 6030POPC   PO476080   8.223  19.545   5.298
 6030POPC   GL176081   8.328  19.677   5.745
 6030POPC   GL276082   8.598  19.943   5.800
 6030POPC   C1A76083   8.184  19.919   6.153
 6030POPC   D2A76084   8.239  20.157   6.583
 6030POPC   C3A76085   7.986  20.144   6.995
 6030POPC   C4A76086   8.114  20.166   7.452
 6030POPC   C1B76087   8.628  19.659   6.175
 6030POPC   C2B76088   8.411  19.655   6.568
 6030POPC   C3B76089   8.404  19.832   6.990
 6030POPC   C4B76090   8.036  19.701   7.253
 6031POPC   NC376091   1.642  13.863   5.157
 6031POPC   PO476092   1.889  13.257   5.406
 6031POPC   GL176093   2.028  13.475   5.752
 6031POPC   GL276094   1.935  13.817   5.766
 6031POPC   C1A76095   1.931  13.467   6.181
 6031POPC   D2A76096   2.147  13.458   6.580
 6031POPC   C3A76097   1.928  13.381   6.938
 6031POPC   C4A76098   2.092  13.378   7.377
 6031POPC   C1B76099   2.070  13.981   6.189
 6031POPC   C2B76100   1.966  13.918   6.640
 6031POPC   C3B76101   2.024  13.851   7.098
 6031POPC   C4B76102   1.910  13.881   7.550
 6032POPC   NC376103  40.676  30.184   5.233
 6032POPC   PO476104  41.244  29.773   5.241
 6032POPC   GL176105  41.003  29.764   5.662
 6032POPC   GL276106  40.618  29.827   5.695
 6032POPC   C1A76107  40.949  30.004   6.066
 6032POPC   D2A76108  40.836  29.926   6.516
 6032POPC   C3A76109  41.083  30.013   6.892
 6032POPC   C4A76110  40.877  30.244   7.206
 6032POPC   C1B76111  40.534  29.688   6.139
 6032POPC   C2B76112  40.478  29.576   6.600
 6032POPC   C3B76113  40.560  29.830   6.974
 6032POPC   C4B76114  40.857  29.744   7.290
 6033POPC   NC376115  28.661  27.802   5.307
 6033POPC   PO476116  28.291  28.383   5.366
 6033POPC   GL176117  28.279  28.342   5.824
 6033POPC   GL276118  28.363  28.022   5.889
 6033POPC   C1A76119  27.985  28.282   6.162
 6033POPC   D2A76120  27.975  28.309   6.611
 6033POPC   C3A76121  28.199  28.637   6.840
 6033POPC   C4A76122  28.317  28.621   7.298
 6033POPC   C1B76123  28.429  28.132   6.324
 6033POPC   C2B76124  28.466  28.200   6.745
 6033POPC   C3B76125  28.342  28.146   7.136
 6033POPC   C4B76126  28.701  28.287   7.347
 6034POPC   NC376127  32.406  41.798   5.375
 6034POPC   PO476128  31.973  41.403   5.594
 6034POPC   GL176129  32.262  41.586   5.858
 6034POPC   GL276130  32.297  41.942   5.842
 6034POPC   C1A76131  32.336  41.714   6.299
 6034POPC   D2A76132  32.299  41.920   6.697
 6034POPC   C3A76133  32.183  41.547   6.906
 6034POPC   C4A76134  32.234  41.372   7.291
 6034POPC   C1B76135  31.908  41.966   6.104
 6034POPC   C2B76136  31.838  41.744   6.495
 6034POPC   C3B76137  31.830  41.905   6.914
 6034POPC   C4B76138  31.906  41.753   7.299
 6035POPC   NC376139  40.712  16.900   5.611
 6035POPC   PO476140  40.487  17.556   5.338
 6035POPC   GL176141  40.543  17.681   5.774
 6035POPC   GL276142  40.648  17.353   5.817
 6035POPC   C1A76143  40.781  17.654   6.195
 6035POPC   D2A76144  40.702  17.462   6.611
 6035POPC   C3A76145  40.869  17.459   7.005
 6035POPC   C4A76146  41.138  17.154   7.204
 6035POPC   C1B76147  40.493  17.205   6.215
 6035POPC   C2B76148  40.339  17.079   6.594
 6035POPC   C3B76149  40.363  17.235   7.000
 6035POPC   C4B76150  40.532  17.386   7.424
 6036POPC   NC376151  32.805  33.666   5.487
 6036POPC   PO476152  33.473  33.510   5.492
 6036POPC   GL176153  33.201  33.715   5.828
 6036POPC   GL276154  33.360  33.627   6.110
 6036POPC   C1A76155  32.969  33.957   6.196
 6036POPC   D2A76156  32.898  33.810   6.650
 6036POPC   C3A76157  32.768  34.067   7.033
 6036POPC   C4A76158  32.785  33.914   7.496
 6036POPC   C1B76159  33.415  33.893   6.470
 6036POPC   C2B76160  33.381  33.645   6.831
 6036POPC   C3B76161  33.055  33.649   7.130
 6036POPC   C4B76162  33.067  33.482   7.543
 6037POPC   NC376163   0.178   3.268   5.437
 6037POPC   PO476164   0.573   3.892   5.517
 6037POPC   GL176165   0.567   3.713   5.912
 6037POPC   GL276166   0.344   3.445   5.894
 6037POPC   C1A76167   0.619   3.713   6.355
 6037POPC   D2A76168   0.380   3.696   6.719
 6037POPC   C3A76169   0.526   3.466   7.072
 6037POPC   C4A76170   0.404   3.615   7.443
 6037POPC   C1B76171   0.136   3.482   6.259
 6037POPC   C2B76172   0.075   3.253   6.612
 6037POPC   C3B76173   0.035   3.420   7.003
 6037POPC   C4B76174   0.187   3.150   7.343
 6038POPC   NC376175  32.582  14.695   5.406
 6038POPC   PO476176  31.937  14.304   5.395
 6038POPC   GL176177  32.145  14.365   5.783
 6038POPC   GL276178  32.510  14.393   5.802
 6038POPC   C1A76179  32.254  14.196   6.182
 6038POPC   D2A76180  32.411  14.364   6.536
 6038POPC   C3A76181  32.268  14.195   6.888
 6038POPC   C4A76182  32.197  14.413   7.233
 6038POPC   C1B76183  32.369  14.707   6.132
 6038POPC   C2B76184  32.481  14.874   6.586
 6038POPC   C3B76185  32.475  14.803   7.075
 6038POPC   C4B76186  32.275  14.825   7.524
 6039POPC   NC376187  44.229  20.204   5.562
 6039POPC   PO476188  43.760  19.702   5.430
 6039POPC   GL176189  43.882  19.845   5.817
 6039POPC   GL276190  43.588  20.022   5.915
 6039POPC   C1A76191  43.958  19.682   6.235
 6039POPC   D2A76192  43.763  19.453   6.577
 6039POPC   C3A76193  43.900  19.576   6.938
 6039POPC   C4A76194  44.183  19.791   7.109
 6039POPC   C1B76195  43.909  20.201   6.210
 6039POPC   C2B76196  44.051  20.044   6.616
 6039POPC   C3B76197  43.799  20.083   6.977
 6039POPC   C4B76198  43.877  20.239   7.395
 6040POPC   NC376199   9.988  44.355   5.492
 6040POPC   PO476200   9.622  44.894   5.409
 6040POPC   GL176201   9.688  44.696   5.770
 6040POPC   GL276202   9.495  44.405   5.819
 6040POPC   C1A76203   9.864  44.620   6.169
 6040POPC   D2A76204   9.988  44.369   6.515
 6040POPC   C3A76205   9.854  44.425   6.932
 6040POPC   C4A76206  10.096  44.548   7.285
 6040POPC   C1B76207   9.345  44.680   6.183
 6040POPC   C2B76208   9.229  44.515   6.618
 6040POPC   C3B76209   9.311  44.671   7.037
 6040POPC   C4B76210   9.672  44.792   7.261
 6041POPC   NC376211  18.468   3.240   5.475
 6041POPC   PO476212  18.157   3.858   5.544
 6041POPC   GL176213  18.318   3.578   5.823
 6041POPC   GL276214  18.633   3.683   5.706
 6041POPC   C1A76215  18.256   3.362   6.190
 6041POPC   D2A76216  18.006   3.330   6.551
 6041POPC   C3A76217  18.211   3.373   6.905
 6041POPC   C4A76218  18.286   3.287   7.282
 6041POPC   C1B76219  18.713   3.633   6.149
 6041POPC   C2B76220  18.600   3.484   6.544
 6041POPC   C3B76221  18.603   3.746   6.875
 6041POPC   C4B76222  18.670   3.733   7.297
 6042POPC   NC376223  19.988   4.341   5.083
 6042POPC   PO476224  19.781   3.874   5.551
 6042POPC   GL176225  19.662   4.106   5.941
 6042POPC   GL276226  19.868   4.380   6.039
 6042POPC   C1A76227  19.621   4.104   6.402
 6042POPC   D2A76228  19.900   3.900   6.703
 6042POPC   C3A76229  19.776   3.947   7.136
 6042POPC   C4A76230  19.430   4.203   7.272
 6042POPC   C1B76231  20.114   4.303   6.422
 6042POPC   C2B76232  19.987   4.385   6.868
 6042POPC   C3B76233  19.715   4.613   7.158
 6042POPC   C4B76234  19.382   4.704   7.481
 6043POPC   NC376235  28.886   5.896   5.366
 6043POPC   PO476236  29.511   5.695   5.222
 6043POPC   GL176237  29.422   5.686   5.692
 6043POPC   GL276238  29.213   5.973   5.799
 6043POPC   C1A76239  29.354   5.600   6.142
 6043POPC   D2A76240  29.079   5.679   6.513
 6043POPC   C3A76241  29.301   5.657   6.941
 6043POPC   C4A76242  29.202   5.575   7.379
 6043POPC   C1B76243  28.937   6.218   6.097
 6043POPC   C2B76244  28.756   6.113   6.508
 6043POPC   C3B76245  28.870   5.921   6.928
 6043POPC   C4B76246  29.105   6.066   7.296
 6044POPC   NC376247  28.766   6.757   5.624
 6044POPC   PO476248  28.222   6.437   5.351
 6044POPC   GL176249  28.312   6.524   5.767
 6044POPC   GL276250  28.152   6.786   5.907
 6044POPC   C1A76251  28.398   6.303   6.155
 6044POPC   D2A76252  28.130   6.209   6.467
 6044POPC   C3A76253  28.133   6.513   6.762
 6044POPC   C4A76254  28.079   6.382   7.185
 6044POPC   C1B76255  28.508   6.798   6.225
 6044POPC   C2B76256  28.710   6.629   6.597
 6044POPC   C3B76257  28.673   6.749   7.012
 6044POPC   C4B76258  28.262   6.849   7.133
 6045POPC   NC376259  38.719  14.166   5.438
 6045POPC   PO476260  38.142  14.661   5.407
 6045POPC   GL176261  38.338  14.370   5.726
 6045POPC   GL276262  38.106  14.221   5.981
 6045POPC   C1A76263  38.615  14.367   6.098
 6045POPC   D2A76264  38.413  14.381   6.520
 6045POPC   C3A76265  38.627  14.461   6.892
 6045POPC   C4A76266  38.476  14.422   7.301
 6045POPC   C1B76267  38.210  14.686   6.135
 6045POPC   C2B76268  38.276  14.909   6.529
 6045POPC   C3B76269  38.201  14.738   6.951
 6045POPC   C4B76270  38.132  14.787   7.396
 6046POPC   NC376271  33.141  35.769   5.245
 6046POPC   PO476272  32.838  35.162   5.398
 6046POPC   GL176273  33.081  35.291   5.764
 6046POPC   GL276274  32.777  35.381   5.891
 6046POPC   C1A76275  33.150  35.262   6.226
 6046POPC   D2A76276  33.210  35.398   6.664
 6046POPC   C3A76277  33.115  35.198   7.051
 6046POPC   C4A76278  33.026  35.324   7.480
 6046POPC   C1B76279  32.694  35.037   6.174
 6046POPC   C2B76280  32.805  34.964   6.649
 6046POPC   C3B76281  32.666  34.962   7.121
 6046POPC   C4B76282  32.648  34.969   7.605
 6047POPC   NC376283   3.481  38.837   5.428
 6047POPC   PO476284   3.566  38.134   5.447
 6047POPC   GL176285   3.585  38.460   5.795
 6047POPC   GL276286   3.834  38.758   5.785
 6047POPC   C1A76287   3.375  38.562   6.194
 6047POPC   D2A76288   3.297  38.314   6.589
 6047POPC   C3A76289   3.476  38.455   6.999
 6047POPC   C4A76290   3.464  38.813   7.254
 6047POPC   C1B76291   3.895  38.594   6.198
 6047POPC   C2B76292   3.712  38.651   6.579
 6047POPC   C3B76293   3.886  38.761   6.957
 6047POPC   C4B76294   3.932  39.037   7.299
 6048POPC   NC376295  15.759  35.221   5.363
 6048POPC   PO476296  16.226  35.589   5.362
 6048POPC   GL176297  16.119  35.288   5.765
 6048POPC   GL276298  15.782  35.088   5.850
 6048POPC   C1A76299  16.087  35.410   6.229
 6048POPC   D2A76300  16.021  35.588   6.671
 6048POPC   C3A76301  16.157  35.425   7.092
 6048POPC   C4A76302  15.919  35.469   7.513
 6048POPC   C1B76303  15.653  35.139   6.292
 6048POPC   C2B76304  15.590  35.229   6.734
 6048POPC   C3B76305  15.703  35.164   7.187
 6048POPC   C4B76306  15.741  34.997   7.657
 6049POPC   NC376307  32.446   1.558   5.389
 6049POPC   PO476308  31.941   1.140   5.588
 6049POPC   GL176309  32.335   1.179   5.805
 6049POPC   GL276310  32.399   1.533   5.911
 6049POPC   C1A76311  32.497   1.163   6.248
 6049POPC   D2A76312  32.317   1.291   6.658
 6049POPC   C3A76313  32.468   1.103   7.033
 6049POPC   C4A76314  32.444   1.092   7.490
 6049POPC   C1B76315  32.042   1.357   6.192
 6049POPC   C2B76316  31.816   1.341   6.567
 6049POPC   C3B76317  31.913   1.121   6.959
 6049POPC   C4B76318  32.081   1.367   7.262
 6050POPC   NC376319  44.665  20.711   5.240
 6050POPC   PO476320  44.658  20.081   5.441
 6050POPC   GL176321  44.630  20.359   5.810
 6050POPC   GL276322  44.560  20.698   5.744
 6050POPC   C1A76323  44.459  20.410   6.205
 6050POPC   D2A76324  44.415  20.448   6.644
 6050POPC   C3A76325  44.807  20.428   6.873
 6050POPC   C4A76326  44.719  20.494   7.300
 6050POPC   C1B76327  44.463  20.939   6.138
 6050POPC   C2B76328  44.647  20.946   6.564
 6050POPC   C3B76329  44.565  20.865   6.988
 6050POPC   C4B76330  44.342  20.971   7.390
 6051POPC   NC376331   2.129  18.394   5.388
 6051POPC   PO476332   1.403  18.519   5.388
 6051POPC   GL176333   1.674  18.372   5.780
 6051POPC   GL276334   2.026  18.205   5.864
 6051POPC   C1A76335   1.761  18.363   6.267
 6051POPC   D2A76336   1.972  18.116   6.602
 6051POPC   C3A76337   2.011  18.413   6.931
 6051POPC   C4A76338   1.671  18.563   7.145
 6051POPC   C1B76339   2.249  17.917   6.180
 6051POPC   C2B76340   2.469  17.958   6.590
 6051POPC   C3B76341   2.329  18.029   7.032
 6051POPC   C4B76342   1.938  18.073   7.309
 6052POPC   NC376343   7.297  42.416   5.329
 6052POPC   PO476344   7.685  41.837   5.491
 6052POPC   GL176345   7.568  42.201   5.749
 6052POPC   GL276346   7.252  42.384   5.833
 6052POPC   C1A76347   7.713  42.414   6.120
 6052POPC   D2A76348   7.571  42.453   6.549
 6052POPC   C3A76349   7.642  42.122   6.832
 6052POPC   C4A76350   7.658  42.204   7.257
 6052POPC   C1B76351   7.237  42.112   6.191
 6052POPC   C2B76352   7.154  42.144   6.629
 6052POPC   C3B76353   7.257  42.409   7.007
 6052POPC   C4B76354   7.082  42.377   7.451
 6053POPC   NC376355  32.119  24.675   5.244
 6053POPC   PO476356  32.234  23.990   5.497
 6053POPC   GL176357  32.378  24.247   5.788
 6053POPC   GL276358  32.197  24.569   5.772
 6053POPC   C1A76359  32.416  24.349   6.205
 6053POPC   D2A76360  32.276  24.492   6.607
 6053POPC   C3A76361  32.093  24.259   6.959
 6053POPC   C4A76362  32.245  24.477   7.318
 6053POPC   C1B76363  31.952  24.576   6.196
 6053POPC   C2B76364  31.790  24.622   6.654
 6053POPC   C3B76365  31.963  24.781   7.039
 6053POPC   C4B76366  31.997  24.887   7.520
 6054POPC   NC376367  12.458  21.687   5.587
 6054POPC   PO476368  12.931  21.310   5.511
 6054POPC   GL176369  12.785  21.378   5.857
 6054POPC   GL276370  12.508  21.130   5.865
 6054POPC   C1A76371  13.066  21.522   6.168
 6054POPC   D2A76372  12.995  21.695   6.559
 6054POPC   C3A76373  12.912  21.323   6.789
 6054POPC   C4A76374  12.902  21.339   7.214
 6054POPC   C1B76375  12.621  21.231   6.309
 6054POPC   C2B76376  12.384  21.387   6.629
 6054POPC   C3B76377  12.411  21.230   7.025
 6054POPC   C4B76378  12.682  20.894   7.139
 6055POPC   NC376379   1.429  15.386   5.422
 6055POPC   PO476380   1.238  14.771   5.698
 6055POPC   GL176381   1.289  15.185   5.878
 6055POPC   GL276382   1.561  15.437   5.906
 6055POPC   C1A76383   1.280  15.232   6.303
 6055POPC   D2A76384   1.386  14.922   6.592
 6055POPC   C3A76385   1.481  15.049   6.988
 6055POPC   C4A76386   1.350  15.094   7.415
 6055POPC   C1B76387   1.463  15.708   6.293
 6055POPC   C2B76388   1.340  15.526   6.719
 6055POPC   C3B76389   1.428  15.545   7.138
 6055POPC   C4B76390   1.113  15.649   7.417
 6056POPC   NC376391   1.081  17.101   5.404
 6056POPC   PO476392   0.918  16.470   5.285
 6056POPC   GL176393   1.232  16.625   5.643
 6056POPC   GL276394   1.461  16.937   5.709
 6056POPC   C1A76395   1.265  16.570   6.106
 6056POPC   D2A76396   1.034  16.620   6.517
 6056POPC   C3A76397   1.199  16.433   6.902
 6056POPC   C4A76398   1.083  16.715   7.219
 6056POPC   C1B76399   1.527  17.008   6.164
 6056POPC   C2B76400   1.521  16.756   6.576
 6056POPC   C3B76401   1.567  16.774   7.022
 6056POPC   C4B76402   1.711  16.979   7.384
 6057POPC   NC376403  19.538   0.795   5.412
 6057POPC   PO476404  19.989   0.245   5.420
 6057POPC   GL176405  19.835   0.491   5.764
 6057POPC   GL276406  20.038   0.749   5.904
 6057POPC   C1A76407  19.629   0.595   6.165
 6057POPC   D2A76408  19.391   0.638   6.530
 6057POPC   C3A76409  19.623   0.670   6.908
 6057POPC   C4A76410  19.670   0.463   7.279
 6057POPC   C1B76411  20.158   0.969   6.251
 6057POPC   C2B76412  20.284   0.922   6.676
 6057POPC   C3B76413  20.110   0.997   7.064
 6057POPC   C4B76414  20.057   0.749   7.414
 6058POPC   NC376415  11.328  27.034   5.452
 6058POPC   PO476416  10.868  26.528   5.375
 6058POPC   GL176417  11.014  26.670   5.773
 6058POPC   GL276418  11.360  26.612   5.773
 6058POPC   C1A76419  11.138  26.807   6.216
 6058POPC   D2A76420  11.148  27.106   6.569
 6058POPC   C3A76421  11.337  26.978   6.966
 6058POPC   C4A76422  11.293  26.617   7.196
 6058POPC   C1B76423  11.625  26.648   6.130
 6058POPC   C2B76424  11.630  26.829   6.528
 6058POPC   C3B76425  11.727  26.617   6.880
 6058POPC   C4B76426  11.821  26.505   7.258
 6059POPC   NC376427  43.582   3.682   5.630
 6059POPC   PO476428  42.970   3.527   5.363
 6059POPC   GL176429  43.066   3.721   5.758
 6059POPC   GL276430  43.190   3.414   5.955
 6059POPC   C1A76431  43.155   3.879   6.179
 6059POPC   D2A76432  43.093   3.613   6.545
 6059POPC   C3A76433  43.159   3.501   6.964
 6059POPC   C4A76434  43.150   3.672   7.352
 6059POPC   C1B76435  43.001   3.162   6.331
 6059POPC   C2B76436  42.920   3.067   6.807
 6059POPC   C3B76437  43.016   3.142   7.288
 6059POPC   C4B76438  42.954   2.901   7.686
 6060POPC   NC376439  23.721  17.999   5.435
 6060POPC   PO476440  23.837  18.647   5.459
 6060POPC   GL176441  23.857  18.363   5.851
 6060POPC   GL276442  23.807  18.004   5.971
 6060POPC   C1A76443  24.058  18.283   6.281
 6060POPC   D2A76444  23.924  17.941   6.568
 6060POPC   C3A76445  23.927  18.140   6.970
 6060POPC   C4A76446  23.696  18.455   7.245
 6060POPC   C1B76447  23.544  18.239   6.301
 6060POPC   C2B76448  23.275  18.332   6.653
 6060POPC   C3B76449  23.304  18.143   7.052
 6060POPC   C4B76450  23.601  17.883   7.265
 6061POPC   NC376451  33.529  26.869   5.395
 6061POPC   PO476452  34.161  27.134   5.496
 6061POPC   GL176453  33.893  26.769   5.775
 6061POPC   GL276454  33.496  26.625   5.823
 6061POPC   C1A76455  33.793  26.686   6.231
 6061POPC   D2A76456  33.560  26.898   6.562
 6061POPC   C3A76457  33.805  26.992   6.914
 6061POPC   C4A76458  33.845  26.853   7.331
 6061POPC   C1B76459  33.290  26.518   6.204
 6061POPC   C2B76460  33.480  26.386   6.581
 6061POPC   C3B76461  33.635  26.471   6.977
 6061POPC   C4B76462  33.571  26.444   7.403
 6062POPC   NC376463  38.735  28.752   5.379
 6062POPC   PO476464  38.325  29.227   5.534
 6062POPC   GL176465  38.385  29.144   5.944
 6062POPC   GL276466  38.580  28.852   5.851
 6062POPC   C1A76467  38.274  29.025   6.367
 6062POPC   D2A76468  38.327  29.240   6.761
 6062POPC   C3A76469  38.269  29.054   7.167
 6062POPC   C4A76470  38.534  29.087   7.515
 6062POPC   C1B76471  38.821  28.951   6.184
 6062POPC   C2B76472  38.735  28.917   6.602
 6062POPC   C3B76473  38.776  29.078   6.992
 6062POPC   C4B76474  38.852  28.783   7.271
 6063POPC   NC376475  12.416   9.492   5.352
 6063POPC   PO476476  11.804   9.792   5.320
 6063POPC   GL176477  12.031   9.662   5.686
 6063POPC   GL276478  11.955   9.986   5.810
 6063POPC   C1A76479  12.163   9.573   6.129
 6063POPC   D2A76480  12.037   9.742   6.558
 6063POPC   C3A76481  12.179   9.531   6.910
 6063POPC   C4A76482  12.271   9.589   7.329
 6063POPC   C1B76483  12.130  10.100   6.185
 6063POPC   C2B76484  12.405  10.094   6.527
 6063POPC   C3B76485  12.263  10.037   6.934
 6063POPC   C4B76486  12.102  10.072   7.329
 6064POPC   NC376487  26.042  20.095   5.351
 6064POPC   PO476488  26.091  19.411   5.365
 6064POPC   GL176489  26.004  19.633   5.819
 6064POPC   GL276490  25.981  20.031   5.850
 6064POPC   C1A76491  25.814  19.765   6.254
 6064POPC   D2A76492  26.026  19.903   6.634
 6064POPC   C3A76493  25.857  19.811   7.034
 6064POPC   C4A76494  25.822  19.567   7.420
 6064POPC   C1B76495  26.250  20.010   6.194
 6064POPC   C2B76496  26.305  20.332   6.545
 6064POPC   C3B76497  26.220  20.238   6.974
 6064POPC   C4B76498  26.272  19.956   7.315
 6065POPC   NC376499  43.688   2.765   5.245
 6065POPC   PO476500  43.949   3.397   5.209
 6065POPC   GL176501  43.715   3.119   5.641
 6065POPC   GL276502  43.750   2.724   5.746
 6065POPC   C1A76503  43.902   3.024   6.104
 6065POPC   D2A76504  43.740   2.963   6.520
 6065POPC   C3A76505  43.918   3.049   6.924
 6065POPC   C4A76506  43.829   3.047   7.367
 6065POPC   C1B76507  43.742   2.552   6.194
 6065POPC   C2B76508  43.680   2.462   6.652
 6065POPC   C3B76509  43.755   2.564   7.084
 6065POPC   C4B76510  43.713   2.445   7.532
 6066POPC   NC376511  38.730  32.674   5.163
 6066POPC   PO476512  38.143  33.013   5.346
 6066POPC   GL176513  38.299  33.208   5.742
 6066POPC   GL276514  38.581  33.395   5.615
 6066POPC   C1A76515  38.301  32.994   6.173
 6066POPC   D2A76516  38.157  32.778   6.529
 6066POPC   C3A76517  38.402  32.886   6.880
 6066POPC   C4A76518  38.263  32.833   7.269
 6066POPC   C1B76519  38.707  33.273   6.027
 6066POPC   C2B76520  38.759  33.296   6.472
 6066POPC   C3B76521  38.699  33.427   6.895
 6066POPC   C4B76522  38.588  33.206   7.265
 6067POPC   NC376523  23.757   3.956   5.413
 6067POPC   PO476524  23.675   3.297   5.389
 6067POPC   GL176525  23.601   3.395   5.798
 6067POPC   GL276526  23.763   3.723   5.866
 6067POPC   C1A76527  23.786   3.339   6.206
 6067POPC   D2A76528  23.755   3.577   6.559
 6067POPC   C3A76529  23.727   3.333   6.908
 6067POPC   C4A76530  23.683   3.536   7.275
 6067POPC   C1B76531  24.065   3.798   6.204
 6067POPC   C2B76532  24.103   3.943   6.642
 6067POPC   C3B76533  24.107   3.701   6.995
 6067POPC   C4B76534  24.142   3.754   7.408
 6068POPC   NC376535  17.930   5.018   5.576
 6068POPC   PO476536  17.311   5.032   5.432
 6068POPC   GL176537  17.472   4.939   5.829
 6068POPC   GL276538  17.602   5.259   5.908
 6068POPC   C1A76539  17.515   4.937   6.289
 6068POPC   D2A76540  17.649   5.100   6.697
 6068POPC   C3A76541  17.482   5.045   7.100
 6068POPC   C4A76542  17.377   5.295   7.492
 6068POPC   C1B76543  17.841   5.348   6.284
 6068POPC   C2B76544  17.755   5.602   6.670
 6068POPC   C3B76545  17.610   5.541   7.100
 6068POPC   C4B76546  17.575   5.788   7.513
 6069POPC   NC376547  24.755  22.165   5.214
 6069POPC   PO476548  24.154  22.130   5.481
 6069POPC   GL176549  24.143  22.012   5.917
 6069POPC   GL276550  24.433  21.784   5.984
 6069POPC   C1A76551  24.346  22.184   6.299
 6069POPC   D2A76552  24.523  22.238   6.687
 6069POPC   C3A76553  24.221  22.271   6.996
 6069POPC   C4A76554  24.441  22.370   7.356
 6069POPC   C1B76555  24.794  21.898   6.296
 6069POPC   C2B76556  24.773  21.787   6.740
 6069POPC   C3B76557  24.603  21.942   7.124
 6069POPC   C4B76558  24.833  21.903   7.504
 6070POPC   NC376559   8.779  13.064   5.328
 6070POPC   PO476560   9.240  12.541   5.407
 6070POPC   GL176561   9.070  12.799   5.750
 6070POPC   GL276562   8.743  12.640   5.759
 6070POPC   C1A76563   9.126  12.986   6.186
 6070POPC   D2A76564   9.336  12.902   6.604
 6070POPC   C3A76565   9.172  12.997   7.018
 6070POPC   C4A76566   8.828  13.091   7.296
 6070POPC   C1B76567   8.752  12.459   6.165
 6070POPC   C2B76568   8.860  12.659   6.567
 6070POPC   C3B76569   8.977  12.531   6.968
 6070POPC   C4B76570   8.983  12.613   7.361
 6071POPC   NC376571  33.430  40.481   5.478
 6071POPC   PO476572  33.825  41.003   5.284
 6071POPC   GL176573  33.541  40.981   5.700
 6071POPC   GL276574  33.549  40.677   5.939
 6071POPC   C1A76575  33.577  41.139   6.162
 6071POPC   D2A76576  33.848  41.115   6.543
 6071POPC   C3A76577  33.698  41.001   6.963
 6071POPC   C4A76578  34.034  40.817   7.229
 6071POPC   C1B76579  33.872  40.669   6.294
 6071POPC   C2B76580  33.978  40.637   6.736
 6071POPC   C3B76581  33.779  40.367   7.068
 6071POPC   C4B76582  33.951  40.267   7.488
 6072POPC   NC376583  30.941  16.490   5.186
 6072POPC   PO476584  30.968  17.110   5.457
 6072POPC   GL176585  30.799  16.908   5.782
 6072POPC   GL276586  30.748  16.560   5.667
 6072POPC   C1A76587  30.840  16.926   6.232
 6072POPC   D2A76588  30.979  16.712   6.626
 6072POPC   C3A76589  30.942  16.961   7.006
 6072POPC   C4A76590  30.556  17.051   7.248
 6072POPC   C1B76591  30.631  16.444   6.098
 6072POPC   C2B76592  30.566  16.361   6.552
 6072POPC   C3B76593  30.628  16.559   6.986
 6072POPC   C4B76594  30.603  16.551   7.426
 6073POPC   NC376595  16.289  40.755   5.478
 6073POPC   PO476596  15.506  40.857   5.389
 6073POPC   GL176597  15.807  40.735   5.674
 6073POPC   GL276598  15.622  40.518   5.908
 6073POPC   C1A76599  16.010  40.783   6.072
 6073POPC   D2A76600  15.826  40.624   6.415
 6073POPC   C3A76601  15.977  40.845   6.747
 6073POPC   C4A76602  15.994  40.634   7.137
 6073POPC   C1B76603  15.520  40.919   6.111
 6073POPC   C2B76604  15.477  40.980   6.544
 6073POPC   C3B76605  15.506  40.780   6.948
 6073POPC   C4B76606  15.640  40.939   7.319
 6074POPC   NC376607  39.505   0.070   5.649
 6074POPC   PO476608  39.101   0.610   5.433
 6074POPC   GL176609  39.139   0.433   5.829
 6074POPC   GL276610  39.146   0.746   6.012
 6074POPC   C1A76611  39.019   0.226   6.224
 6074POPC   D2A76612  39.151   0.314   6.623
 6074POPC   C3A76613  38.915   0.430   6.958
 6074POPC   C4A76614  38.817   0.210   7.314
 6074POPC   C1B76615  39.457   0.506   6.237
 6074POPC   C2B76616  39.684   0.577   6.614
 6074POPC   C3B76617  39.494   0.487   6.978
 6074POPC   C4B76618  39.261   0.591   7.298
 6075POPC   NC376619  32.860  41.285   5.648
 6075POPC   PO476620  32.770  42.006   5.561
 6075POPC   GL176621  33.002  41.761   5.837
 6075POPC   GL276622  32.747  41.626   6.016
 6075POPC   C1A76623  33.216  41.519   6.169
 6075POPC   D2A76624  33.095  41.535   6.581
 6075POPC   C3A76625  33.163  41.210   6.851
 6075POPC   C4A76626  33.117  41.565   7.134
 6075POPC   C1B76627  32.705  41.312   6.355
 6075POPC   C2B76628  32.642  41.325   6.823
 6075POPC   C3B76629  32.623  41.662   7.151
 6075POPC   C4B76630  32.837  41.643   7.563
 6076POPC   NC376631   1.514  13.510   5.530
 6076POPC   PO476632   1.177  13.947   5.146
 6076POPC   GL176633   1.126  13.748   5.690
 6076POPC   GL276634   1.000  13.430   5.715
 6076POPC   C1A76635   1.447  13.783   6.140
 6076POPC   D2A76636   1.578  13.557   6.536
 6076POPC   C3A76637   1.545  13.750   6.911
 6076POPC   C4A76638   1.616  13.562   7.287
 6076POPC   C1B76639   0.781  13.360   6.101
 6076POPC   C2B76640   0.869  13.304   6.515
 6076POPC   C3B76641   0.917  13.442   6.908
 6076POPC   C4B76642   1.125  13.678   7.191
 6077POPC   NC376643  31.477  43.469   5.213
 6077POPC   PO476644  31.530  42.897   5.484
 6077POPC   GL176645  31.423  43.245   5.792
 6077POPC   GL276646  31.716  43.413   5.956
 6077POPC   C1A76647  31.311  43.284   6.260
 6077POPC   D2A76648  31.545  43.175   6.657
 6077POPC   C3A76649  31.336  43.178   7.043
 6077POPC   C4A76650  30.883  43.166   7.080
 6077POPC   C1B76651  31.771  43.032   6.202
 6077POPC   C2B76652  31.875  42.785   6.569
 6077POPC   C3B76653  31.732  42.765   6.945
 6077POPC   C4B76654  31.660  42.873   7.315
 6078POPC   NC376655  26.182  17.564   5.268
 6078POPC   PO476656  25.547  17.424   5.567
 6078POPC   GL176657  25.942  17.557   5.719
 6078POPC   GL276658  25.802  17.755   5.951
 6078POPC   C1A76659  26.239  17.562   6.098
 6078POPC   D2A76660  26.012  17.730   6.473
 6078POPC   C3A76661  26.139  17.635   6.913
 6078POPC   C4A76662  25.894  17.501   7.263
 6078POPC   C1B76663  25.707  18.060   6.220
 6078POPC   C2B76664  25.483  17.922   6.561
 6078POPC   C3B76665  25.488  17.668   6.929
 6078POPC   C4B76666  25.542  17.855   7.314
 6079POPC   NC376667  18.677  22.450   5.548
 6079POPC   PO476668  18.128  22.229   5.444
 6079POPC   GL176669  18.382  22.088   5.805
 6079POPC   GL276670  18.375  22.372   5.966
 6079POPC   C1A76671  18.445  21.944   6.251
 6079POPC   D2A76672  18.185  21.907   6.639
 6079POPC   C3A76673  18.363  22.193   6.899
 6079POPC   C4A76674  18.551  22.094   7.274
 6079POPC   C1B76675  18.276  22.413   6.389
 6079POPC   C2B76676  17.913  22.370   6.624
 6079POPC   C3B76677  17.830  22.231   7.006
 6079POPC   C4B76678  18.078  22.278   7.321
 6080POPC   NC376679  15.081  11.803   5.317
 6080POPC   PO476680  15.596  12.334   5.346
 6080POPC   GL176681  15.435  12.006   5.683
 6080POPC   GL276682  15.065  12.040   5.769
 6080POPC   C1A76683  15.370  11.824   6.111
 6080POPC   D2A76684  15.238  11.853   6.551
 6080POPC   C3A76685  15.451  11.721   6.925
 6080POPC   C4A76686  15.269  11.938   7.274
 6080POPC   C1B76687  14.944  12.116   6.204
 6080POPC   C2B76688  14.804  12.273   6.631
 6080POPC   C3B76689  14.813  12.250   7.096
 6080POPC   C4B76690  14.700  11.902   7.373
 6081POPC   NC376691  40.346  19.203   5.510
 6081POPC   PO476692  39.812  18.741   5.305
 6081POPC   GL176693  39.960  18.845   5.728
 6081POPC   GL276694  39.916  19.196   5.852
 6081POPC   C1A76695  40.144  18.853   6.152
 6081POPC   D2A76696  39.927  19.069   6.491
 6081POPC   C3A76697  40.195  19.076   6.859
 6081POPC   C4A76698  40.062  19.020   7.297
 6081POPC   C1B76699  40.202  19.378   6.189
 6081POPC   C2B76700  40.105  19.527   6.634
 6081POPC   C3B76701  39.991  19.468   7.104
 6081POPC   C4B76702  40.086  19.471   7.589
 6082POPC   NC376703   7.173  31.525   5.324
 6082POPC   PO476704   7.688  31.982   5.408
 6082POPC   GL176705   7.570  31.695   5.790
 6082POPC   GL276706   7.236  31.477   5.822
 6082POPC   C1A76707   7.438  31.662   6.245
 6082POPC   D2A76708   7.590  31.434   6.600
 6082POPC   C3A76709   7.479  31.678   6.967
 6082POPC   C4A76710   7.351  31.584   7.405
 6082POPC   C1B76711   7.150  31.206   6.188
 6082POPC   C2B76712   7.244  31.064   6.623
 6082POPC   C3B76713   7.288  31.202   7.065
 6082POPC   C4B76714   7.369  31.106   7.522
 6083POPC   NC376715  20.850  22.641   5.667
 6083POPC   PO476716  21.047  23.207   5.486
 6083POPC   GL176717  20.588  23.200   5.641
 6083POPC   GL276718  20.382  22.870   5.695
 6083POPC   C1A76719  20.460  23.239   6.072
 6083POPC   D2A76720  20.689  23.055   6.429
 6083POPC   C3A76721  20.661  23.085   6.898
 6083POPC   C4A76722  20.916  22.981   7.242
 6083POPC   C1B76723  20.265  22.770   6.143
 6083POPC   C2B76724  20.312  22.760   6.613
 6083POPC   C3B76725  20.420  22.653   7.043
 6083POPC   C4B76726  20.431  22.844   7.441
 6084POPC   NC376727   4.572  43.879   5.420
 6084POPC   PO476728   5.255  43.762   5.489
 6084POPC   GL176729   5.125  43.954   5.859
 6084POPC   GL276730   5.153  44.337   5.905
 6084POPC   C1A76731   5.273  43.938   6.258
 6084POPC   D2A76732   4.973  43.774   6.530
 6084POPC   C3A76733   5.057  43.896   6.934
 6084POPC   C4A76734   5.127  43.704   7.316
 6084POPC   C1B76735   4.855  44.248   6.251
 6084POPC   C2B76736   4.732  44.252   6.699
 6084POPC   C3B76737   4.819  44.292   7.154
 6084POPC   C4B76738   5.182  44.432   7.413
 6085POPC   NC376739   6.043   1.217   5.445
 6085POPC   PO476740   5.439   0.808   5.540
 6085POPC   GL176741   5.829   0.879   5.755
 6085POPC   GL276742   5.796   1.207   5.895
 6085POPC   C1A76743   6.016   0.838   6.141
 6085POPC   D2A76744   5.795   1.043   6.479
 6085POPC   C3A76745   5.965   1.072   6.894
 6085POPC   C4A76746   6.027   0.840   7.283
 6085POPC   C1B76747   5.667   1.484   6.227
 6085POPC   C2B76748   5.771   1.583   6.658
 6085POPC   C3B76749   5.592   1.634   7.063
 6085POPC   C4B76750   5.788   1.335   7.323
 6086POPC   NC376751  27.907  19.662   5.499
 6086POPC   PO476752  27.453  20.111   5.304
 6086POPC   GL176753  27.504  19.988   5.735
 6086POPC   GL276754  27.501  19.649   5.793
 6086POPC   C1A76755  27.617  19.962   6.192
 6086POPC   D2A76756  27.852  19.947   6.580
 6086POPC   C3A76757  27.600  20.129   6.879
 6086POPC   C4A76758  27.516  20.087   7.296
 6086POPC   C1B76759  27.718  19.439   6.111
 6086POPC   C2B76760  27.560  19.409   6.510
 6086POPC   C3B76761  27.538  19.615   6.896
 6086POPC   C4B76762  27.659  19.469   7.260
 6087POPC   NC376763  40.888  44.239   5.360
 6087POPC   PO476764  40.592  43.607   5.262
 6087POPC   GL176765  40.662  43.845   5.648
 6087POPC   GL276766  40.459  43.612   5.808
 6087POPC   C1A76767  40.868  43.920   6.066
 6087POPC   D2A76768  41.039  43.798   6.482
 6087POPC   C3A76769  40.925  44.002   6.891
 6087POPC   C4A76770  40.768  44.104   7.301
 6087POPC   C1B76771  40.370  43.813   6.189
 6087POPC   C2B76772  40.543  43.868   6.553
 6087POPC   C3B76773  40.414  43.936   6.945
 6087POPC   C4B76774  40.375  43.749   7.316
 6088POPC   NC376775  40.483  30.890   5.531
 6088POPC   PO476776  39.836  30.858   5.495
 6088POPC   GL176777  40.092  30.717   5.814
 6088POPC   GL276778  40.166  31.059   5.939
 6088POPC   C1A76779  40.228  30.621   6.224
 6088POPC   D2A76780  39.960  30.461   6.540
 6088POPC   C3A76781  39.981  30.646   6.916
 6088POPC   C4A76782  39.942  30.447   7.288
 6088POPC   C1B76783  39.817  30.916   6.228
 6088POPC   C2B76784  39.548  30.829   6.558
 6088POPC   C3B76785  39.380  30.994   6.917
 6088POPC   C4B76786  39.640  30.864   7.227
 6089POPC   NC376787  33.175  13.535   5.306
 6089POPC   PO476788  32.784  14.139   5.432
 6089POPC   GL176789  33.035  13.838   5.751
 6089POPC   GL276790  33.190  13.465   5.800
 6089POPC   C1A76791  33.151  13.767   6.197
 6089POPC   D2A76792  33.054  13.544   6.564
 6089POPC   C3A76793  33.070  13.803   6.950
 6089POPC   C4A76794  32.934  13.904   7.387
 6089POPC   C1B76795  33.393  13.266   6.160
 6089POPC   C2B76796  33.592  13.246   6.568
 6089POPC   C3B76797  33.354  13.338   6.914
 6089POPC   C4B76798  33.236  13.481   7.297
 6090POPC   NC376799  42.230  35.678   5.498
 6090POPC   PO476800  42.372  35.108   5.347
 6090POPC   GL176801  42.407  35.270   5.786
 6090POPC   GL276802  42.658  35.564   5.782
 6090POPC   C1A76803  42.251  35.259   6.227
 6090POPC   D2A76804  42.271  35.548   6.590
 6090POPC   C3A76805  42.136  35.530   7.024
 6090POPC   C4A76806  42.326  35.182   7.265
 6090POPC   C1B76807  42.587  35.689   6.197
 6090POPC   C2B76808  42.785  35.630   6.606
 6090POPC   C3B76809  42.663  35.580   7.038
 6090POPC   C4B76810  42.669  35.506   7.487
 6091POPC   NC376811  18.410  20.110   5.103
 6091POPC   PO476812  17.912  19.846   5.556
 6091POPC   GL176813  18.311  19.790   5.826
 6091POPC   GL276814  18.484  19.454   5.815
 6091POPC   C1A76815  18.523  19.929   6.201
 6091POPC   D2A76816  18.446  20.210   6.536
 6091POPC   C3A76817  18.432  20.075   6.967
 6091POPC   C4A76818  18.195  19.873   7.235
 6091POPC   C1B76819  18.247  19.483   6.238
 6091POPC   C2B76820  18.409  19.658   6.620
 6091POPC   C3B76821  18.525  19.552   7.016
 6091POPC   C4B76822  18.324  19.379   7.370
 6092POPC   NC376823  38.281  34.176   5.506
 6092POPC   PO476824  38.410  34.837   5.311
 6092POPC   GL176825  38.408  34.874   5.772
 6092POPC   GL276826  38.494  34.519   5.852
 6092POPC   C1A76827  38.380  34.817   6.250
 6092POPC   D2A76828  38.509  34.638   6.646
 6092POPC   C3A76829  38.381  34.788   7.050
 6092POPC   C4A76830  38.506  34.657   7.513
 6092POPC   C1B76831  38.451  34.243   6.240
 6092POPC   C2B76832  38.186  34.224   6.628
 6092POPC   C3B76833  38.223  34.316   7.053
 6092POPC   C4B76834  38.030  34.440   7.424
 6093POPC   NC376835  38.700  20.578   5.589
 6093POPC   PO476836  38.050  20.474   5.518
 6093POPC   GL176837  38.318  20.416   5.889
 6093POPC   GL276838  38.361  20.792   5.971
 6093POPC   C1A76839  38.524  20.450   6.306
 6093POPC   D2A76840  38.402  20.645   6.704
 6093POPC   C3A76841  38.567  20.479   7.086
 6093POPC   C4A76842  38.660  20.403   7.517
 6093POPC   C1B76843  38.192  21.008   6.370
 6093POPC   C2B76844  38.119  21.073   6.835
 6093POPC   C3B76845  38.382  20.944   7.191
 6093POPC   C4B76846  38.441  20.808   7.634
 6094POPC   NC376847   8.548  42.222   5.121
 6094POPC   PO476848   9.134  42.476   5.371
 6094POPC   GL176849   8.861  42.329   5.738
 6094POPC   GL276850   8.524  42.121   5.714
 6094POPC   C1A76851   8.814  42.444   6.172
 6094POPC   D2A76852   9.062  42.401   6.564
 6094POPC   C3A76853   8.940  42.349   6.990
 6094POPC   C4A76854   8.962  42.634   7.358
 6094POPC   C1B76855   8.469  41.882   6.097
 6094POPC   C2B76856   8.270  41.906   6.514
 6094POPC   C3B76857   8.453  42.116   6.875
 6094POPC   C4B76858   8.659  42.040   7.292
 6095POPC   NC376859  42.215  22.002   5.510
 6095POPC   PO476860  42.187  22.651   5.418
 6095POPC   GL176861  42.364  22.410   5.759
 6095POPC   GL276862  42.049  22.332   5.926
 6095POPC   C1A76863  42.532  22.509   6.139
 6095POPC   D2A76864  42.653  22.513   6.571
 6095POPC   C3A76865  42.388  22.298   6.834
 6095POPC   C4A76866  42.273  22.238   7.219
 6095POPC   C1B76867  42.328  22.044   6.183
 6095POPC   C2B76868  42.441  21.856   6.581
 6095POPC   C3B76869  42.250  21.785   6.979
 6095POPC   C4B76870  42.106  21.788   7.423
 6096POPC   NC376871  22.123  13.822   5.650
 6096POPC   PO476872  21.990  13.196   5.531
 6096POPC   GL176873  22.101  13.367   5.867
 6096POPC   GL276874  21.807  13.245   6.002
 6096POPC   C1A76875  22.446  13.550   6.153
 6096POPC   D2A76876  22.645  13.700   6.550
 6096POPC   C3A76877  22.371  13.808   6.909
 6096POPC   C4A76878  22.372  13.741   7.364
 6096POPC   C1B76879  21.974  13.445   6.349
 6096POPC   C2B76880  22.124  13.363   6.733
 6096POPC   C3B76881  22.071  13.363   7.174
 6096POPC   C4B76882  21.891  13.685   7.470
 6097POPC   NC376883   8.245  32.554   5.482
 6097POPC   PO476884   8.677  32.052   5.284
 6097POPC   GL176885   8.383  32.031   5.669
 6097POPC   GL276886   8.043  32.138   5.727
 6097POPC   C1A76887   8.285  31.947   6.145
 6097POPC   D2A76888   8.289  32.079   6.609
 6097POPC   C3A76889   8.410  31.850   6.980
 6097POPC   C4A76890   8.285  32.095   7.349
 6097POPC   C1B76891   8.135  32.416   6.099
 6097POPC   C2B76892   8.082  32.546   6.520
 6097POPC   C3B76893   8.136  32.501   6.952
 6097POPC   C4B76894   7.905  32.428   7.319
 6098POPC   NC376895  27.485  21.755   5.121
 6098POPC   PO476896  27.629  21.091   5.398
 6098POPC   GL176897  27.561  21.211   5.835
 6098POPC   GL276898  27.501  21.583   5.860
 6098POPC   C1A76899  27.754  21.256   6.216
 6098POPC   D2A76900  27.722  21.412   6.610
 6098POPC   C3A76901  27.813  21.198   6.979
 6098POPC   C4A76902  27.951  21.544   7.198
 6098POPC   C1B76903  27.469  21.773   6.297
 6098POPC   C2B76904  27.487  21.834   6.769
 6098POPC   C3B76905  27.443  21.551   7.123
 6098POPC   C4B76906  27.331  21.117   7.156
 6099POPC   NC376907  34.787  16.391   5.769
 6099POPC   PO476908  34.485  16.933   5.489
 6099POPC   GL176909  34.431  16.748   5.858
 6099POPC   GL276910  34.290  16.444   5.848
 6099POPC   C1A76911  34.627  16.846   6.255
 6099POPC   D2A76912  34.878  16.944   6.584
 6099POPC   C3A76913  34.613  16.944   6.947
 6099POPC   C4A76914  34.637  16.665   7.247
 6099POPC   C1B76915  34.413  16.397   6.282
 6099POPC   C2B76916  34.644  16.470   6.666
 6099POPC   C3B76917  34.419  16.287   6.983
 6099POPC   C4B76918  34.436  16.224   7.410
 6100POPC   NC376919  35.051  29.315   5.389
 6100POPC   PO476920  35.565  28.910   5.214
 6100POPC   GL176921  35.508  29.281   5.606
 6100POPC   GL276922  35.302  29.133   5.802
 6100POPC   C1A76923  35.489  29.485   6.090
 6100POPC   D2A76924  35.586  29.321   6.516
 6100POPC   C3A76925  35.410  29.339   6.942
 6100POPC   C4A76926  35.661  29.372   7.307
 6100POPC   C1B76927  35.271  29.005   6.238
 6100POPC   C2B76928  35.489  28.794   6.535
 6100POPC   C3B76929  35.556  28.837   6.952
 6100POPC   C4B76930  35.360  28.968   7.344
 6101POPC   NC376931  17.795  15.115   5.473
 6101POPC   PO476932  17.158  15.235   5.308
 6101POPC   GL176933  17.321  15.194   5.789
 6101POPC   GL276934  17.656  15.335   5.893
 6101POPC   C1A76935  17.381  15.205   6.279
 6101POPC   D2A76936  17.183  15.203   6.679
 6101POPC   C3A76937  17.403  15.293   7.068
 6101POPC   C4A76938  17.292  15.225   7.489
 6101POPC   C1B76939  17.762  15.561   6.241
 6101POPC   C2B76940  17.631  15.485   6.661
 6101POPC   C3B76941  17.739  15.659   7.061
 6101POPC   C4B76942  18.090  15.548   7.211
 6102POPC   NC376943  28.662   3.790   5.216
 6102POPC   PO476944  29.346   3.562   5.297
 6102POPC   GL176945  29.054   3.630   5.672
 6102POPC   GL276946  29.089   3.323   5.802
 6102POPC   C1A76947  28.991   3.684   6.172
 6102POPC   D2A76948  29.061   3.492   6.610
 6102POPC   C3A76949  29.107   3.658   7.033
 6102POPC   C4A76950  28.804   3.680   7.379
 6102POPC   C1B76951  29.222   3.166   6.198
 6102POPC   C2B76952  29.037   2.984   6.555
 6102POPC   C3B76953  29.224   3.047   6.942
 6102POPC   C4B76954  29.143   3.233   7.308
 6103POPC   NC376955  28.111  25.603   5.530
 6103POPC   PO476956  28.367  26.297   5.555
 6103POPC   GL176957  28.104  26.287   5.903
 6103POPC   GL276958  28.016  25.940   5.934
 6103POPC   C1A76959  28.253  26.329   6.290
 6103POPC   D2A76960  28.563  26.174   6.548
 6103POPC   C3A76961  28.357  26.162   6.922
 6103POPC   C4A76962  28.054  26.217   7.240
 6103POPC   C1B76963  28.359  25.835   6.201
 6103POPC   C2B76964  28.365  25.708   6.594
 6103POPC   C3B76965  28.160  25.681   6.947
 6103POPC   C4B76966  28.315  25.783   7.322
 6104POPC   NC376967  19.536  14.664   5.496
 6104POPC   PO476968  20.228  14.714   5.469
 6104POPC   GL176969  20.016  14.523   5.838
 6104POPC   GL276970  19.681  14.457   5.928
 6104POPC   C1A76971  20.019  14.671   6.279
 6104POPC   D2A76972  19.775  14.665   6.680
 6104POPC   C3A76973  19.993  14.739   7.047
 6104POPC   C4A76974  20.130  14.565   7.429
 6104POPC   C1B76975  19.697  14.254   6.333
 6104POPC   C2B76976  19.883  13.956   6.640
 6104POPC   C3B76977  19.918  14.035   7.074
 6104POPC   C4B76978  19.658  14.383   7.167
 6105POPC   NC376979  40.026  15.365   5.689
 6105POPC   PO476980  39.804  14.767   5.463
 6105POPC   GL176981  40.118  14.860   5.851
 6105POPC   GL276982  40.435  15.086   5.854
 6105POPC   C1A76983  40.149  15.035   6.281
 6105POPC   D2A76984  39.826  15.198   6.562
 6105POPC   C3A76985  39.857  15.014   6.961
 6105POPC   C4A76986  40.151  15.032   7.268
 6105POPC   C1B76987  40.482  15.438   6.164
 6105POPC   C2B76988  40.248  15.541   6.552
 6105POPC   C3B76989  40.068  15.501   6.961
 6105POPC   C4B76990  40.357  15.514   7.299
 6106POPC   NC376991  16.054   2.940   5.368
 6106POPC   PO476992  15.761   2.400   5.468
 6106POPC   GL176993  15.873   2.663   5.831
 6106POPC   GL276994  15.814   2.994   5.828
 6106POPC   C1A76995  16.029   2.621   6.276
 6106POPC   D2A76996  15.812   2.417   6.634
 6106POPC   C3A76997  15.987   2.470   7.055
 6106POPC   C4A76998  15.860   2.834   7.274
 6106POPC   C1B76999  16.261   2.998   6.023
 6106POPC   C2B77000  16.360   3.094   6.470
 6106POPC   C3B77001  16.177   3.070   6.889
 6106POPC   C4B77002  16.366   2.817   7.217
 6107POPC   NC377003   0.508  43.324   5.214
 6107POPC   PO477004   0.225  42.856   5.533
 6107POPC   GL177005   0.444  42.971   5.868
 6107POPC   GL277006   0.449  43.306   5.754
 6107POPC   C1A77007   0.287  42.973   6.295
 6107POPC   D2A77008   0.429  43.120   6.697
 6107POPC   C3A77009   0.319  42.890   7.070
 6107POPC   C4A77010   0.526  42.666   7.430
 6107POPC   C1B77011   0.650  43.328   6.185
 6107POPC   C2B77012   0.878  43.357   6.609
 6107POPC   C3B77013   0.772  43.308   7.076
 6107POPC   C4B77014   0.725  43.544   7.506
 6108POPC   NC377015   4.507  16.393   5.399
 6108POPC   PO477016   4.210  16.902   5.607
 6108POPC   GL177017   4.430  16.673   5.881
 6108POPC   GL277018   4.161  16.601   6.080
 6108POPC   C1A77019   4.608  16.831   6.269
 6108POPC   D2A77020   4.654  17.029   6.662
 6108POPC   C3A77021   4.470  16.750   6.930
 6108POPC   C4A77022   4.146  16.545   7.169
 6108POPC   C1B77023   4.010  16.946   6.244
 6108POPC   C2B77024   4.122  16.961   6.624
 6108POPC   C3B77025   3.965  16.978   7.000
 6108POPC   C4B77026   3.795  16.833   7.388
 6109POPC   NC377027  20.058  22.466   5.401
 6109POPC   PO477028  19.616  21.934   5.334
 6109POPC   GL177029  19.687  22.264   5.700
 6109POPC   GL277030  20.019  22.266   5.857
 6109POPC   C1A77031  19.579  22.435   6.112
 6109POPC   D2A77032  19.716  22.454   6.564
 6109POPC   C3A77033  19.516  22.247   6.965
 6109POPC   C4A77034  19.551  22.392   7.422
 6109POPC   C1B77035  20.133  22.293   6.269
 6109POPC   C2B77036  20.289  22.259   6.653
 6109POPC   C3B77037  20.035  22.333   6.952
 6109POPC   C4B77038  19.973  22.100   7.276
 6110POPC   NC377039   2.314  16.822   5.545
 6110POPC   PO477040   1.718  16.571   5.385
 6110POPC   GL177041   1.891  16.662   5.812
 6110POPC   GL277042   1.966  17.044   5.866
 6110POPC   C1A77043   1.909  16.691   6.257
 6110POPC   D2A77044   1.925  17.075   6.536
 6110POPC   C3A77045   2.032  16.959   6.933
 6110POPC   C4A77046   2.101  16.650   7.202
 6110POPC   C1B77047   2.308  16.989   6.202
 6110POPC   C2B77048   2.323  16.706   6.593
 6110POPC   C3B77049   2.526  16.501   6.956
 6110POPC   C4B77050   2.587  16.799   7.299
 6111POPC   NC377051  39.572   2.674   5.349
 6111POPC   PO477052  39.008   2.995   5.351
 6111POPC   GL177053  39.227   2.818   5.737
 6111POPC   GL277054  39.327   2.528   5.793
 6111POPC   C1A77055  39.118   2.765   6.194
 6111POPC   D2A77056  39.209   2.952   6.592
 6111POPC   C3A77057  39.129   2.705   6.957
 6111POPC   C4A77058  39.034   2.861   7.362
 6111POPC   C1B77059  39.541   2.482   6.168
 6111POPC   C2B77060  39.397   2.453   6.583
 6111POPC   C3B77061  39.470   2.290   6.981
 6111POPC   C4B77062  39.667   2.443   7.349
 6112POPC   NC377063  31.106  18.974   5.212
 6112POPC   PO477064  31.808  19.135   5.335
 6112POPC   GL177065  31.492  19.047   5.628
 6112POPC   GL277066  31.678  18.946   5.893
 6112POPC   C1A77067  31.267  19.240   6.011
 6112POPC   D2A77068  31.326  19.280   6.482
 6112POPC   C3A77069  31.178  19.112   6.869
 6112POPC   C4A77070  31.368  19.168   7.276
 6112POPC   C1B77071  31.763  19.282   6.190
 6112POPC   C2B77072  31.850  19.227   6.607
 6112POPC   C3B77073  31.746  19.008   6.978
 6112POPC   C4B77074  31.948  18.907   7.366
 6113POPC   NC377075   1.783  32.745   5.505
 6113POPC   PO477076   2.348  32.923   5.167
 6113POPC   GL177077   2.266  33.065   5.646
 6113POPC   GL277078   1.926  33.200   5.736
 6113POPC   C1A77079   2.202  33.005   6.122
 6113POPC   D2A77080   2.217  33.187   6.549
 6113POPC   C3A77081   2.171  32.907   6.895
 6113POPC   C4A77082   2.194  33.154   7.278
 6113POPC   C1B77083   1.701  33.005   6.116
 6113POPC   C2B77084   1.696  33.085   6.563
 6113POPC   C3B77085   1.773  33.180   6.987
 6113POPC   C4B77086   1.759  32.768   7.207
 6114POPC   NC377087  23.138  43.732   5.034
 6114POPC   PO477088  22.843  44.254   5.361
 6114POPC   GL177089  22.929  43.983   5.742
 6114POPC   GL277090  22.663  43.711   5.783
 6114POPC   C1A77091  22.950  43.880   6.190
 6114POPC   D2A77092  23.003  44.070   6.570
 6114POPC   C3A77093  23.019  43.865   6.926
 6114POPC   C4A77094  22.924  44.133   7.305
 6114POPC   C1B77095  22.514  43.570   6.218
 6114POPC   C2B77096  22.730  43.589   6.578
 6114POPC   C3B77097  22.567  43.633   6.993
 6114POPC   C4B77098  22.814  43.650   7.348
 6115POPC   NC377099  12.634  39.957   5.506
 6115POPC   PO477100  12.008  39.846   5.387
 6115POPC   GL177101  12.105  39.908   5.823
 6115POPC   GL277102  12.255  40.242   5.803
 6115POPC   C1A77103  11.991  39.796   6.269
 6115POPC   D2A77104  12.150  39.699   6.709
 6115POPC   C3A77105  12.072  40.006   7.042
 6115POPC   C4A77106  11.904  40.096   7.471
 6115POPC   C1B77107  12.173  40.285   6.256
 6115POPC   C2B77108  11.965  40.393   6.649
 6115POPC   C3B77109  11.992  40.497   7.072
 6115POPC   C4B77110  12.320  40.402   7.357
 6116POPC   NC377111   6.479  37.421   5.455
 6116POPC   PO477112   6.932  37.933   5.399
 6116POPC   GL177113   6.838  37.769   5.875
 6116POPC   GL277114   6.516  37.616   5.910
 6116POPC   C1A77115   6.779  37.561   6.325
 6116POPC   D2A77116   6.495  37.531   6.663
 6116POPC   C3A77117   6.675  37.549   7.083
 6116POPC   C4A77118   6.753  37.383   7.489
 6116POPC   C1B77119   6.357  37.853   6.248
 6116POPC   C2B77120   6.155  37.923   6.625
 6116POPC   C3B77121   6.284  37.857   7.019
 6116POPC   C4B77122   6.438  37.904   7.424
 6117POPC   NC377123   0.395  35.067   5.439
 6117POPC   PO477124   0.345  35.809   5.532
 6117POPC   GL177125   0.513  35.575   5.876
 6117POPC   GL277126   0.534  35.211   5.891
 6117POPC   C1A77127   0.419  35.500   6.300
 6117POPC   D2A77128   0.186  35.696   6.589
 6117POPC   C3A77129   0.500  35.628   6.877
 6117POPC   C4A77130   0.464  35.688   7.264
 6117POPC   C1B77131   0.723  35.087   6.256
 6117POPC   C2B77132   0.645  35.197   6.671
 6117POPC   C3B77133   0.429  35.173   7.081
 6117POPC   C4B77134   0.362  35.286   7.540
 6118POPC   NC377135  39.647  10.063   5.434
 6118POPC   PO477136  39.982   9.559   5.362
 6118POPC   GL177137  40.166   9.775   5.723
 6118POPC   GL277138  39.910   9.919   5.883
 6118POPC   C1A77139  40.265   9.683   6.164
 6118POPC   D2A77140  40.275   9.860   6.572
 6118POPC   C3A77141  40.182   9.696   6.970
 6118POPC   C4A77142  40.199   9.978   7.300
 6118POPC   C1B77143  39.861  10.102   6.306
 6118POPC   C2B77144  39.856  10.078   6.798
 6118POPC   C3B77145  39.700   9.912   7.218
 6118POPC   C4B77146  39.511   9.945   7.645
 6119POPC   NC377147  21.735  37.084   5.500
 6119POPC   PO477148  21.512  36.528   5.844
 6119POPC   GL177149  21.508  36.931   5.946
 6119POPC   GL277150  21.368  37.249   5.800
 6119POPC   C1A77151  21.652  36.897   6.346
 6119POPC   D2A77152  21.475  36.807   6.701
 6119POPC   C3A77153  21.698  36.973   6.979
 6119POPC   C4A77154  21.471  37.010   7.313
 6119POPC   C1B77155  21.261  37.265   6.256
 6119POPC   C2B77156  21.025  37.129   6.621
 6119POPC   C3B77157  21.041  37.097   7.054
 6119POPC   C4B77158  21.139  37.428   7.319
 6120POPC   NC377159  36.579  31.374   5.403
 6120POPC   PO477160  35.891  31.511   5.477
 6120POPC   GL177161  36.148  31.355   5.812
 6120POPC   GL277162  36.054  31.662   6.009
 6120POPC   C1A77163  36.309  31.302   6.245
 6120POPC   D2A77164  36.182  31.655   6.521
 6120POPC   C3A77165  36.067  31.543   6.949
 6120POPC   C4A77166  36.093  31.281   7.287
 6120POPC   C1B77167  35.798  31.364   6.243
 6120POPC   C2B77168  35.930  31.146   6.605
 6120POPC   C3B77169  35.695  31.135   6.975
 6120POPC   C4B77170  35.599  31.430   7.288
 6121POPC   NC377171  28.724  22.758   5.137
 6121POPC   PO477172  29.241  22.800   5.479
 6121POPC   GL177173  29.078  22.957   5.842
 6121POPC   GL277174  29.365  23.182   5.840
 6121POPC   C1A77175  29.015  22.743   6.234
 6121POPC   D2A77176  29.276  22.599   6.577
 6121POPC   C3A77177  29.137  22.824   6.922
 6121POPC   C4A77178  28.869  22.743   7.251
 6121POPC   C1B77179  29.439  23.048   6.260
 6121POPC   C2B77180  29.496  23.334   6.608
 6121POPC   C3B77181  29.603  23.396   7.034
 6121POPC   C4B77182  29.383  23.099   7.286
 6122POPC   NC377183  40.377   9.381   5.481
 6122POPC   PO477184  40.867   9.897   5.412
 6122POPC   GL177185  40.684   9.826   5.822
 6122POPC   GL277186  40.731   9.475   5.866
 6122POPC   C1A77187  40.724   9.863   6.280
 6122POPC   D2A77188  40.682  10.143   6.600
 6122POPC   C3A77189  40.643   9.952   7.012
 6122POPC   C4A77190  40.765   9.935   7.442
 6122POPC   C1B77191  40.716   9.338   6.297
 6122POPC   C2B77192  40.660   9.513   6.717
 6122POPC   C3B77193  40.708   9.467   7.163
 6122POPC   C4B77194  40.424   9.563   7.454
 6123POPC   NC377195  41.369   4.838   5.269
 6123POPC   PO477196  41.921   5.068   5.508
 6123POPC   GL177197  41.583   4.943   5.788
 6123POPC   GL277198  41.310   5.191   5.789
 6123POPC   C1A77199  41.469   5.007   6.232
 6123POPC   D2A77200  41.513   4.898   6.641
 6123POPC   C3A77201  41.794   5.154   6.858
 6123POPC   C4A77202  41.903   5.156   7.276
 6123POPC   C1B77203  41.126   5.397   6.195
 6123POPC   C2B77204  41.203   5.360   6.649
 6123POPC   C3B77205  41.151   5.076   7.004
 6123POPC   C4B77206  41.494   4.820   7.163
 6124POPC   NC377207   5.036  16.900   5.401
 6124POPC   PO477208   4.956  16.250   5.365
 6124POPC   GL177209   5.024  16.503   5.752
 6124POPC   GL277210   5.356  16.706   5.737
 6124POPC   C1A77211   5.226  16.441   6.169
 6124POPC   D2A77212   5.202  16.359   6.599
 6124POPC   C3A77213   5.015  16.517   6.966
 6124POPC   C4A77214   5.351  16.617   7.226
 6124POPC   C1B77215   5.096  16.912   6.061
 6124POPC   C2B77216   5.107  16.860   6.485
 6124POPC   C3B77217   5.163  16.994   6.889
 6124POPC   C4B77218   4.855  16.999   7.174
 6125POPC   NC377219   2.633  36.399   5.531
 6125POPC   PO477220   2.641  35.737   5.574
 6125POPC   GL177221   2.578  36.010   5.891
 6125POPC   GL277222   2.919  36.117   5.916
 6125POPC   C1A77223   2.625  35.863   6.317
 6125POPC   D2A77224   2.895  36.016   6.613
 6125POPC   C3A77225   2.844  35.844   7.001
 6125POPC   C4A77226   2.645  35.980   7.344
 6125POPC   C1B77227   3.005  36.403   6.254
 6125POPC   C2B77228   3.247  36.366   6.633
 6125POPC   C3B77229   3.252  36.478   7.032
 6125POPC   C4B77230   3.060  36.263   7.369
 6126POPC   NC377231  24.695   5.315   5.693
 6126POPC   PO477232  24.243   5.729   5.302
 6126POPC   GL177233  24.341   5.765   5.784
 6126POPC   GL277234  24.666   5.716   6.006
 6126POPC   C1A77235  24.238   5.808   6.237
 6126POPC   D2A77236  24.556   6.010   6.502
 6126POPC   C3A77237  24.515   6.086   6.952
 6126POPC   C4A77238  24.367   5.820   7.299
 6126POPC   C1B77239  24.663   5.483   6.382
 6126POPC   C2B77240  24.679   5.610   6.828
 6126POPC   C3B77241  24.689   5.394   7.228
 6126POPC   C4B77242  24.611   5.513   7.644
 6127POPC   NC377243   1.927  31.024   5.509
 6127POPC   PO477244   1.935  30.494   5.044
 6127POPC   GL177245   2.012  30.463   5.558
 6127POPC   GL277246   2.267  30.623   5.737
 6127POPC   C1A77247   1.861  30.610   6.040
 6127POPC   D2A77248   1.977  30.626   6.501
 6127POPC   C3A77249   1.755  30.814   6.836
 6127POPC   C4A77250   1.843  30.950   7.258
 6127POPC   C1B77251   2.344  30.768   6.170
 6127POPC   C2B77252   2.531  30.688   6.567
 6127POPC   C3B77253   2.298  30.687   6.948
 6127POPC   C4B77254   2.353  30.965   7.287
 6128POPC   NC377255  16.567  30.414   5.507
 6128POPC   PO477256  17.058  30.809   5.419
 6128POPC   GL177257  16.797  31.034   5.761
 6128POPC   GL277258  16.415  30.923   5.764
 6128POPC   C1A77259  16.632  31.120   6.180
 6128POPC   D2A77260  16.520  30.881   6.538
 6128POPC   C3A77261  16.700  30.931   6.928
 6128POPC   C4A77262  16.734  30.666   7.199
 6128POPC   C1B77263  16.430  30.594   6.125
 6128POPC   C2B77264  16.544  30.337   6.517
 6128POPC   C3B77265  16.368  30.336   6.946
 6128POPC   C4B77266  16.271  30.440   7.359
 6129POPC   NC377267  21.651  38.765   5.486
 6129POPC   PO477268  21.301  38.157   5.406
 6129POPC   GL177269  21.327  38.457   5.779
 6129POPC   GL277270  21.038  38.680   5.819
 6129POPC   C1A77271  21.643  38.498   6.134
 6129POPC   D2A77272  21.844  38.246   6.467
 6129POPC   C3A77273  21.737  38.330   6.907
 6129POPC   C4A77274  21.710  38.719   7.129
 6129POPC   C1B77275  21.201  38.753   6.243
 6129POPC   C2B77276  21.334  38.624   6.697
 6129POPC   C3B77277  21.180  38.405   7.110
 6129POPC   C4B77278  21.060  38.384   7.593
 6130POPC   NC377279  16.943  25.688   5.512
 6130POPC   PO477280  16.389  26.081   5.553
 6130POPC   GL177281  16.746  26.102   5.898
 6130POPC   GL277282  17.033  25.818   5.979
 6130POPC   C1A77283  16.626  26.173   6.321
 6130POPC   D2A77284  16.607  25.959   6.708
 6130POPC   C3A77285  16.485  26.088   7.103
 6130POPC   C4A77286  16.711  26.092   7.517
 6130POPC   C1B77287  17.119  25.990   6.335
 6130POPC   C2B77288  17.013  26.266   6.653
 6130POPC   C3B77289  17.002  26.119   7.074
 6130POPC   C4B77290  17.117  26.354   7.434
 6131POPC   NC377291  26.659  22.963   5.496
 6131POPC   PO477292  27.326  23.118   5.613
 6131POPC   GL177293  27.017  22.977   5.945
 6131POPC   GL277294  26.719  22.750   5.957
 6131POPC   C1A77295  26.861  22.941   6.406
 6131POPC   D2A77296  26.621  22.898   6.794
 6131POPC   C3A77297  26.786  23.178   7.108
 6131POPC   C4A77298  27.206  23.300   7.167
 6131POPC   C1B77299  26.477  23.091   6.149
 6131POPC   C2B77300  26.495  23.341   6.526
 6131POPC   C3B77301  26.332  23.333   6.935
 6131POPC   C4B77302  26.290  23.033   7.281
 6132POPC   NC377303  34.071   7.692   5.568
 6132POPC   PO477304  34.768   7.852   5.546
 6132POPC   GL177305  34.695   8.076   5.922
 6132POPC   GL277306  34.318   8.042   5.893
 6132POPC   C1A77307  34.556   8.277   6.317
 6132POPC   D2A77308  34.599   8.630   6.610
 6132POPC   C3A77309  34.735   8.532   7.050
 6132POPC   C4A77310  34.832   8.092   7.221
 6132POPC   C1B77311  34.081   8.081   6.281
 6132POPC   C2B77312  34.183   8.335   6.682
 6132POPC   C3B77313  34.339   8.152   7.070
 6132POPC   C4B77314  34.119   7.994   7.454
 6133POPC   NC377315  24.098  30.734   5.456
 6133POPC   PO477316  23.478  30.514   5.436
 6133POPC   GL177317  23.470  30.658   5.861
 6133POPC   GL277318  23.818  30.733   5.868
 6133POPC   C1A77319  23.623  30.620   6.312
 6133POPC   D2A77320  23.459  30.621   6.696
 6133POPC   C3A77321  23.775  30.557   7.001
 6133POPC   C4A77322  23.888  30.696   7.421
 6133POPC   C1B77323  24.091  30.848   6.197
 6133POPC   C2B77324  24.026  30.757   6.605
 6133POPC   C3B77325  24.010  30.999   6.960
 6133POPC   C4B77326  24.136  31.136   7.309
 6134POPC   NC377327  23.846  21.787   5.522
 6134POPC   PO477328  23.360  22.212   5.287
 6134POPC   GL177329  23.634  22.223   5.718
 6134POPC   GL277330  23.899  22.484   5.738
 6134POPC   C1A77331  23.650  21.999   6.165
 6134POPC   D2A77332  23.961  21.947   6.551
 6134POPC   C3A77333  23.794  21.987   6.982
 6134POPC   C4A77334  23.452  22.110   7.239
 6134POPC   C1B77335  23.912  22.422   6.184
 6134POPC   C2B77336  23.725  22.387   6.620
 6134POPC   C3B77337  23.735  22.501   7.053
 6134POPC   C4B77338  23.936  22.287   7.429
 6135POPC   NC377339  42.666   3.942   5.414
 6135POPC   PO477340  42.080   3.675   5.449
 6135POPC   GL177341  42.305   3.605   5.818
 6135POPC   GL277342  42.613   3.448   5.723
 6135POPC   C1A77343  42.212   3.616   6.263
 6135POPC   D2A77344  42.051   3.368   6.599
 6135POPC   C3A77345  42.137   3.549   6.981
 6135POPC   C4A77346  42.138   3.403   7.394
 6135POPC   C1B77347  42.719   3.568   6.163
 6135POPC   C2B77348  42.597   3.448   6.614
 6135POPC   C3B77349  42.623   3.409   7.078
 6135POPC   C4B77350  42.632   3.630   7.460
 6136POPC   NC377351   3.527  15.108   4.875
 6136POPC   PO477352   3.372  14.968   5.614
 6136POPC   GL177353   3.659  15.001   5.908
 6136POPC   GL277354   3.910  15.213   5.764
 6136POPC   C1A77355   3.536  15.159   6.298
 6136POPC   D2A77356   3.539  15.554   6.536
 6136POPC   C3A77357   3.329  15.436   6.921
 6136POPC   C4A77358   3.221  15.018   7.130
 6136POPC   C1B77359   3.997  15.362   6.192
 6136POPC   C2B77360   3.944  15.197   6.618
 6136POPC   C3B77361   3.771  15.155   7.021
 6136POPC   C4B77362   3.708  14.857   7.318
 6137POPC   NC377363  15.754  32.488   5.393
 6137POPC   PO477364  16.397  32.500   5.393
 6137POPC   GL177365  16.109  32.317   5.734
 6137POPC   GL277366  15.845  32.560   5.887
 6137POPC   C1A77367  15.948  32.141   6.154
 6137POPC   D2A77368  16.047  32.133   6.608
 6137POPC   C3A77369  15.786  32.103   6.983
 6137POPC   C4A77370  15.791  32.452   7.255
 6137POPC   C1B77371  16.243  32.638   6.129
 6137POPC   C2B77372  16.416  32.579   6.552
 6137POPC   C3B77373  16.217  32.569   6.958
 6137POPC   C4B77374  16.278  32.471   7.373
 6138POPC   NC377375  44.579  26.945   5.241
 6138POPC   PO477376  44.652  27.617   5.442
 6138POPC   GL177377  44.742  27.694   5.842
 6138POPC   GL277378   0.089  27.754   5.775
 6138POPC   C1A77379  44.444  27.606   6.172
 6138POPC   D2A77380  44.322  27.327   6.501
 6138POPC   C3A77381  44.508  27.491   6.899
 6138POPC   C4A77382  44.394  27.738   7.255
 6138POPC   C1B77383   0.110  27.756   6.197
 6138POPC   C2B77384  44.855  27.734   6.545
 6138POPC   C3B77385   0.011  27.607   6.928
 6138POPC   C4B77386  44.869  27.573   7.323
 6139POPC   NC377387  19.432  13.672   5.435
 6139POPC   PO477388  18.750  13.390   5.478
 6139POPC   GL177389  18.887  13.529   5.882
 6139POPC   GL277390  19.225  13.469   5.867
 6139POPC   C1A77391  19.044  13.701   6.296
 6139POPC   D2A77392  18.989  13.951   6.680
 6139POPC   C3A77393  18.957  13.695   7.039
 6139POPC   C4A77394  18.904  13.329   7.374
 6139POPC   C1B77395  19.290  13.245   6.256
 6139POPC   C2B77396  19.139  13.282   6.658
 6139POPC   C3B77397  19.318  13.339   7.048
 6139POPC   C4B77398  19.414  13.330   7.453
 6140POPC   NC377399  26.900  37.020   5.618
 6140POPC   PO477400  26.920  37.715   5.396
 6140POPC   GL177401  27.024  37.547   5.809
 6140POPC   GL277402  26.745  37.366   5.941
 6140POPC   C1A77403  26.986  37.736   6.232
 6140POPC   D2A77404  27.187  37.935   6.574
 6140POPC   C3A77405  26.991  37.853   6.946
 6140POPC   C4A77406  26.920  37.493   7.210
 6140POPC   C1B77407  26.944  37.239   6.332
 6140POPC   C2B77408  26.740  37.437   6.708
 6140POPC   C3B77409  26.448  37.561   7.044
 6140POPC   C4B77410  26.459  37.474   7.531
 6141POPC   NC377411  43.430  12.060   5.204
 6141POPC   PO477412  43.175  12.647   5.483
 6141POPC   GL177413  43.126  12.228   5.632
 6141POPC   GL277414  42.797  12.124   5.635
 6141POPC   C1A77415  43.183  12.037   6.060
 6141POPC   D2A77416  43.294  12.093   6.530
 6141POPC   C3A77417  43.147  11.879   6.932
 6141POPC   C4A77418  43.336  11.833   7.372
 6141POPC   C1B77419  42.664  12.126   6.043
 6141POPC   C2B77420  42.804  12.016   6.421
 6141POPC   C3B77421  42.659  12.029   6.828
 6141POPC   C4B77422  42.668  12.088   7.240
 6142POPC   NC377423  33.960   6.257   5.351
 6142POPC   PO477424  33.564   6.815   5.275
 6142POPC   GL177425  33.648   6.689   5.701
 6142POPC   GL277426  33.979   6.586   5.754
 6142POPC   C1A77427  33.657   6.580   6.159
 6142POPC   D2A77428  33.586   6.341   6.565
 6142POPC   C3A77429  33.841   6.442   6.890
 6142POPC   C4A77430  33.696   6.720   7.249
 6142POPC   C1B77431  34.185   6.826   6.067
 6142POPC   C2B77432  34.060   6.709   6.497
 6142POPC   C3B77433  34.041   6.924   6.895
 6142POPC   C4B77434  34.097   7.074   7.319
 6143POPC   NC377435  36.782  22.901   5.541
 6143POPC   PO477436  37.447  22.929   5.393
 6143POPC   GL177437  37.247  22.886   5.820
 6143POPC   GL277438  37.017  23.123   6.054
 6143POPC   C1A77439  37.272  22.735   6.235
 6143POPC   D2A77440  37.029  22.731   6.612
 6143POPC   C3A77441  37.188  22.883   6.994
 6143POPC   C4A77442  36.962  22.721   7.309
 6143POPC   C1B77443  36.605  23.304   6.188
 6143POPC   C2B77444  36.436  23.214   6.591
 6143POPC   C3B77445  36.679  23.006   6.924
 6143POPC   C4B77446  36.826  23.207   7.278
 6144POPC   NC377447   4.831  20.940   5.455
 6144POPC   PO477448   4.962  20.257   5.511
 6144POPC   GL177449   5.088  20.596   5.776
 6144POPC   GL277450   4.803  20.753   5.923
 6144POPC   C1A77451   5.298  20.688   6.173
 6144POPC   D2A77452   5.281  20.491   6.592
 6144POPC   C3A77453   5.238  20.724   6.994
 6144POPC   C4A77454   5.444  20.674   7.386
 6144POPC   C1B77455   4.867  20.427   6.231
 6144POPC   C2B77456   4.777  20.449   6.669
 6144POPC   C3B77457   4.871  20.365   7.097
 6144POPC   C4B77458   4.662  20.331   7.463
 6145POPC   NC377459  10.978  35.831   5.555
 6145POPC   PO477460  11.311  35.272   5.498
 6145POPC   GL177461  11.179  35.263   5.890
 6145POPC   GL277462  10.967  34.988   5.902
 6145POPC   C1A77463  11.313  35.448   6.299
 6145POPC   D2A77464  11.455  35.582   6.714
 6145POPC   C3A77465  11.374  35.513   7.173
 6145POPC   C4A77466  11.439  35.657   7.644
 6145POPC   C1B77467  11.088  34.978   6.309
 6145POPC   C2B77468  11.132  35.161   6.706
 6145POPC   C3B77469  11.112  35.034   7.125
 6145POPC   C4B77470  10.833  34.844   7.428
 6146POPC   NC377471  41.902  26.292   5.444
 6146POPC   PO477472  41.328  25.973   5.362
 6146POPC   GL177473  41.524  25.877   5.763
 6146POPC   GL277474  41.523  26.218   5.818
 6146POPC   C1A77475  41.481  25.885   6.238
 6146POPC   D2A77476  41.607  25.652   6.627
 6146POPC   C3A77477  41.525  25.861   7.016
 6146POPC   C4A77478  41.320  26.182   7.134
 6146POPC   C1B77479  41.769  26.434   6.169
 6146POPC   C2B77480  41.943  26.378   6.576
 6146POPC   C3B77481  41.825  26.271   6.998
 6146POPC   C4B77482  41.734  26.413   7.409
 6147POPC   NC377483  41.703  42.535   5.519
 6147POPC   PO477484  41.016  42.295   5.565
 6147POPC   GL177485  41.291  42.083   5.896
 6147POPC   GL277486  41.648  42.124   5.892
 6147POPC   C1A77487  41.466  42.092   6.353
 6147POPC   D2A77488  41.709  42.057   6.733
 6147POPC   C3A77489  41.429  41.933   7.064
 6147POPC   C4A77490  41.285  42.235   7.391
 6147POPC   C1B77491  41.703  42.498   6.173
 6147POPC   C2B77492  41.766  42.552   6.615
 6147POPC   C3B77493  41.522  42.515   6.989
 6147POPC   C4B77494  41.598  42.639   7.413
 6148POPC   NC377495  20.753  11.777   5.308
 6148POPC   PO477496  20.735  11.086   5.489
 6148POPC   GL177497  20.694  11.250   5.862
 6148POPC   GL277498  20.909  11.516   5.781
 6148POPC   C1A77499  20.465  11.303   6.248
 6148POPC   D2A77500  20.666  11.232   6.620
 6148POPC   C3A77501  20.496  11.047   7.004
 6148POPC   C4A77502  20.155  11.005   7.289
 6148POPC   C1B77503  20.978  11.689   6.208
 6148POPC   C2B77504  20.819  11.716   6.648
 6148POPC   C3B77505  20.620  11.564   7.028
 6148POPC   C4B77506  20.915  11.505   7.337
 6149POPC   NC377507  10.527   4.927   5.377
 6149POPC   PO477508  10.610   5.537   5.361
 6149POPC   GL177509  10.617   5.228   5.776
 6149POPC   GL277510  10.439   4.852   5.863
 6149POPC   C1A77511  10.652   5.155   6.220
 6149POPC   D2A77512  10.938   5.287   6.537
 6149POPC   C3A77513  11.014   5.174   6.961
 6149POPC   C4A77514  10.757   5.223   7.328
 6149POPC   C1B77515  10.425   4.698   6.295
 6149POPC   C2B77516  10.746   4.798   6.605
 6149POPC   C3B77517  10.606   4.863   7.012
 6149POPC   C4B77518  10.569   4.754   7.445
 6150POPC   NC377519   8.625   0.429   5.219
 6150POPC   PO477520   8.965  44.957   5.505
 6150POPC   GL177521   9.041   0.123   5.847
 6150POPC   GL277522   8.978   0.482   5.816
 6150POPC   C1A77523   9.185   0.245   6.227
 6150POPC   D2A77524   9.083   0.530   6.544
 6150POPC   C3A77525   9.105   0.414   6.971
 6150POPC   C4A77526   9.112   0.200   7.389
 6150POPC   C1B77527   8.626   0.708   6.068
 6150POPC   C2B77528   8.678   0.841   6.502
 6150POPC   C3B77529   8.549   0.875   6.957
 6150POPC   C4B77530   8.800   0.665   7.268
 6151POPC   NC377531  11.470  15.092   5.406
 6151POPC   PO477532  11.107  15.517   5.630
 6151POPC   GL177533  11.424  15.272   5.877
 6151POPC   GL277534  11.171  15.033   5.899
 6151POPC   C1A77535  11.508  14.946   6.245
 6151POPC   D2A77536  11.283  14.879   6.660
 6151POPC   C3A77537  11.337  15.011   7.088
 6151POPC   C4A77538  11.516  15.428   7.156
 6151POPC   C1B77539  11.148  15.319   6.283
 6151POPC   C2B77540  11.234  15.407   6.719
 6151POPC   C3B77541  10.991  15.369   7.116
 6151POPC   C4B77542  10.920  15.297   7.555
 6152POPC   NC377543   8.794  24.359   5.535
 6152POPC   PO477544   9.273  24.778   5.406
 6152POPC   GL177545   9.189  24.576   5.800
 6152POPC   GL277546   9.259  24.197   5.821
 6152POPC   C1A77547   9.075  24.665   6.209
 6152POPC   D2A77548   9.295  24.512   6.553
 6152POPC   C3A77549   9.216  24.645   6.971
 6152POPC   C4A77550   8.861  24.803   7.172
 6152POPC   C1B77551   8.925  24.171   6.141
 6152POPC   C2B77552   8.790  24.348   6.521
 6152POPC   C3B77553   8.829  24.267   6.951
 6152POPC   C4B77554   8.646  24.326   7.339
 6153POPC   NC377555  17.712  22.339   5.308
 6153POPC   PO477556  17.161  21.973   5.390
 6153POPC   GL177557  17.456  21.915   5.792
 6153POPC   GL277558  17.871  21.897   5.778
 6153POPC   C1A77559  17.395  22.144   6.224
 6153POPC   D2A77560  17.421  22.515   6.554
 6153POPC   C3A77561  17.357  22.482   7.012
 6153POPC   C4A77562  17.393  22.114   7.255
 6153POPC   C1B77563  17.908  22.031   6.222
 6153POPC   C2B77564  17.640  21.943   6.631
 6153POPC   C3B77565  17.621  21.709   7.053
 6153POPC   C4B77566  17.721  21.740   7.521
 6154POPC   NC377567  44.164   4.411   5.573
 6154POPC   PO477568  43.618   4.038   5.322
 6154POPC   GL177569  43.789   4.097   5.801
 6154POPC   GL277570  44.124   4.131   5.997
 6154POPC   C1A77571  43.673   4.088   6.247
 6154POPC   D2A77572  44.014   4.187   6.541
 6154POPC   C3A77573  44.053   4.023   6.925
 6154POPC   C4A77574  43.828   4.184   7.230
 6154POPC   C1B77575  44.049   4.567   6.210
 6154POPC   C2B77576  44.164   4.696   6.573
 6154POPC   C3B77577  43.991   4.573   6.907
 6154POPC   C4B77578  44.095   4.651   7.260
 6155POPC   NC377579  43.733  23.990   5.538
 6155POPC   PO477580  44.101  23.435   5.694
 6155POPC   GL177581  44.100  23.829   5.889
 6155POPC   GL277582  43.744  23.834   6.025
 6155POPC   C1A77583  44.152  23.928   6.326
 6155POPC   D2A77584  43.896  23.823   6.697
 6155POPC   C3A77585  44.094  23.700   7.089
 6155POPC   C4A77586  44.260  23.279   7.189
 6155POPC   C1B77587  43.589  23.550   6.357
 6155POPC   C2B77588  43.406  23.634   6.776
 6155POPC   C3B77589  43.583  23.835   7.139
 6155POPC   C4B77590  43.478  23.965   7.564
 6156POPC   NC377591  26.043   5.076   5.267
 6156POPC   PO477592  25.612   4.648   5.480
 6156POPC   GL177593  25.801   5.043   5.730
 6156POPC   GL277594  26.184   5.098   5.749
 6156POPC   C1A77595  25.927   5.316   6.116
 6156POPC   D2A77596  26.170   5.278   6.512
 6156POPC   C3A77597  26.035   5.450   6.900
 6156POPC   C4A77598  25.899   5.302   7.313
 6156POPC   C1B77599  26.257   4.913   6.161
 6156POPC   C2B77600  26.308   4.791   6.601
 6156POPC   C3B77601  26.148   4.958   6.982
 6156POPC   C4B77602  26.154   4.874   7.401
 6157POPC   NC377603  27.763  16.149   5.514
 6157POPC   PO477604  27.255  15.658   5.523
 6157POPC   GL177605  27.527  15.830   5.848
 6157POPC   GL277606  27.908  15.739   5.835
 6157POPC   C1A77607  27.457  16.090   6.223
 6157POPC   D2A77608  27.388  16.289   6.632
 6157POPC   C3A77609  27.456  16.090   7.014
 6157POPC   C4A77610  27.741  16.240   7.270
 6157POPC   C1B77611  27.790  15.667   6.254
 6157POPC   C2B77612  27.782  15.922   6.608
 6157POPC   C3B77613  27.953  15.871   7.001
 6157POPC   C4B77614  27.699  15.752   7.360
 6158POPC   NC377615  37.046  39.814   5.146
 6158POPC   PO477616  36.799  39.306   5.551
 6158POPC   GL177617  36.989  39.052   5.816
 6158POPC   GL277618  37.041  39.299   6.027
 6158POPC   C1A77619  37.265  38.872   6.113
 6158POPC   D2A77620  37.299  39.149   6.486
 6158POPC   C3A77621  37.084  39.102   6.840
 6158POPC   C4A77622  37.188  39.150   7.256
 6158POPC   C1B77623  36.779  39.050   6.301
 6158POPC   C2B77624  36.582  39.173   6.675
 6158POPC   C3B77625  36.658  39.225   7.109
 6158POPC   C4B77626  36.770  38.984   7.462
 6159POPC   NC377627  25.198  21.661   5.380
 6159POPC   PO477628  25.261  21.019   5.368
 6159POPC   GL177629  25.226  21.261   5.741
 6159POPC   GL277630  25.588  21.293   5.753
 6159POPC   C1A77631  25.311  21.369   6.182
 6159POPC   D2A77632  25.159  21.508   6.563
 6159POPC   C3A77633  25.406  21.472   6.901
 6159POPC   C4A77634  25.235  21.413   7.278
 6159POPC   C1B77635  25.599  20.973   6.092
 6159POPC   C2B77636  25.662  21.072   6.516
 6159POPC   C3B77637  25.513  20.968   6.921
 6159POPC   C4B77638  25.624  21.112   7.320
 6160POPC   NC377639  11.611  41.632   5.486
 6160POPC   PO477640  10.924  41.770   5.574
 6160POPC   GL177641  11.264  41.789   5.845
 6160POPC   GL277642  11.509  41.518   5.971
 6160POPC   C1A77643  11.385  41.916   6.255
 6160POPC   D2A77644  11.517  41.650   6.570
 6160POPC   C3A77645  11.496  41.832   6.969
 6160POPC   C4A77646  11.385  41.761   7.375
 6160POPC   C1B77647  11.103  41.489   6.210
 6160POPC   C2B77648  11.012  41.316   6.578
 6160POPC   C3B77649  11.158  41.456   6.962
 6160POPC   C4B77650  10.930  41.237   7.253
 6161POPC   NC377651  13.301  24.224   5.413
 6161POPC   PO477652  12.688  24.428   5.263
 6161POPC   GL177653  12.868  24.444   5.732
 6161POPC   GL277654  12.970  24.799   5.923
 6161POPC   C1A77655  12.908  24.377   6.200
 6161POPC   D2A77656  13.067  24.369   6.636
 6161POPC   C3A77657  12.962  24.603   7.005
 6161POPC   C4A77658  12.841  24.244   7.269
 6161POPC   C1B77659  12.616  24.803   6.247
 6161POPC   C2B77660  12.534  24.758   6.703
 6161POPC   C3B77661  12.476  24.629   7.126
 6161POPC   C4B77662  12.469  24.821   7.514
 6162POPC   NC377663  37.078   3.044   5.393
 6162POPC   PO477664  36.830   2.354   5.228
 6162POPC   GL177665  36.992   2.544   5.651
 6162POPC   GL277666  36.733   2.652   5.884
 6162POPC   C1A77667  37.203   2.737   6.038
 6162POPC   D2A77668  37.247   2.791   6.521
 6162POPC   C3A77669  36.834   2.816   6.791
 6162POPC   C4A77670  36.654   2.947   7.209
 6162POPC   C1B77671  36.515   2.505   6.258
 6162POPC   C2B77672  36.371   2.512   6.684
 6162POPC   C3B77673  36.612   2.400   7.052
 6162POPC   C4B77674  36.694   2.524   7.480
 6163POPC   NC377675  41.005  26.314   5.452
 6163POPC   PO477676  40.575  25.738   5.411
 6163POPC   GL177677  40.653  25.973   5.791
 6163POPC   GL277678  41.017  25.939   5.815
 6163POPC   C1A77679  40.735  26.250   6.167
 6163POPC   D2A77680  40.889  26.508   6.543
 6163POPC   C3A77681  40.900  26.211   6.854
 6163POPC   C4A77682  40.596  26.014   7.107
 6163POPC   C1B77683  40.967  25.745   6.216
 6163POPC   C2B77684  41.119  25.788   6.664
 6163POPC   C3B77685  41.032  25.748   7.117
 6163POPC   C4B77686  41.201  25.586   7.500
 6164POPC   NC377687  25.062   0.685   5.632
 6164POPC   PO477688  24.926   0.065   5.412
 6164POPC   GL177689  24.997   0.204   5.853
 6164POPC   GL277690  25.208   0.473   6.056
 6164POPC   C1A77691  24.840   0.228   6.273
 6164POPC   D2A77692  25.007   0.511   6.592
 6164POPC   C3A77693  25.262   0.449   6.974
 6164POPC   C4A77694  25.205   0.490   7.443
 6164POPC   C1B77695  25.415   0.749   6.364
 6164POPC   C2B77696  25.236   0.950   6.745
 6164POPC   C3B77697  25.076   0.934   7.164
 6164POPC   C4B77698  25.123   0.968   7.610
 6165POPC   NC377699  21.861  36.270   5.664
 6165POPC   PO477700  22.548  36.299   5.424
 6165POPC   GL177701  22.480  36.370   5.850
 6165POPC   GL277702  22.365  36.013   5.938
 6165POPC   C1A77703  22.521  36.364   6.294
 6165POPC   D2A77704  22.486  36.015   6.549
 6165POPC   C3A77705  22.255  36.103   6.878
 6165POPC   C4A77706  22.438  36.161   7.286
 6165POPC   C1B77707  22.054  36.116   6.281
 6165POPC   C2B77708  21.831  36.415   6.542
 6165POPC   C3B77709  21.953  36.526   6.924
 6165POPC   C4B77710  21.940  36.282   7.268
 6166POPC   NC377711  17.329  35.390   5.434
 6166POPC   PO477712  17.929  35.686   5.478
 6166POPC   GL177713  17.627  35.447   5.838
 6166POPC   GL277714  17.359  35.130   5.861
 6166POPC   C1A77715  17.607  35.318   6.273
 6166POPC   D2A77716  17.379  35.360   6.652
 6166POPC   C3A77717  17.662  35.502   6.950
 6166POPC   C4A77718  17.770  35.128   7.182
 6166POPC   C1B77719  17.102  35.364   6.193
 6166POPC   C2B77720  17.060  35.726   6.514
 6166POPC   C3B77721  17.140  35.690   6.980
 6166POPC   C4B77722  17.252  35.285   7.183
 6167POPC   NC377723  17.506  30.739   5.400
 6167POPC   PO477724  17.884  30.312   5.685
 6167POPC   GL177725  17.557  30.550   5.914
 6167POPC   GL277726  17.282  30.806   5.870
 6167POPC   C1A77727  17.413  30.533   6.340
 6167POPC   D2A77728  17.660  30.536   6.710
 6167POPC   C3A77729  17.674  30.813   7.064
 6167POPC   C4A77730  17.645  30.617   7.474
 6167POPC   C1B77731  16.949  30.701   6.174
 6167POPC   C2B77732  16.971  30.590   6.610
 6167POPC   C3B77733  17.200  30.602   6.966
 6167POPC   C4B77734  17.190  30.979   7.129
 6168POPC   NC377735  44.439  31.603   5.426
 6168POPC   PO477736  44.840  30.995   5.399
 6168POPC   GL177737  44.723  31.342   5.757
 6168POPC   GL277738  44.966  31.570   5.891
 6168POPC   C1A77739  44.499  31.607   6.099
 6168POPC   D2A77740  44.381  31.492   6.519
 6168POPC   C3A77741  44.667  31.536   6.880
 6168POPC   C4A77742  44.548  31.486   7.318
 6168POPC   C1B77743  44.920  31.433   6.352
 6168POPC   C2B77744   0.153  31.340   6.742
 6168POPC   C3B77745   0.056  31.387   7.193
 6168POPC   C4B77746  44.969  31.430   7.667
 6169POPC   NC377747   7.150  17.388   5.530
 6169POPC   PO477748   7.689  17.768   5.369
 6169POPC   GL177749   7.547  17.574   5.792
 6169POPC   GL277750   7.593  17.181   5.773
 6169POPC   C1A77751   7.208  17.652   6.141
 6169POPC   D2A77752   6.987  17.831   6.522
 6169POPC   C3A77753   7.180  17.736   6.930
 6169POPC   C4A77754   7.592  17.706   7.132
 6169POPC   C1B77755   7.393  17.144   6.171
 6169POPC   C2B77756   7.317  17.350   6.553
 6169POPC   C3B77757   7.365  17.258   6.962
 6169POPC   C4B77758   7.369  17.023   7.292
 6170POPC   NC377759  37.155  12.830   5.434
 6170POPC   PO477760  36.400  12.829   5.423
 6170POPC   GL177761  36.681  12.893   5.800
 6170POPC   GL277762  37.022  13.026   5.866
 6170POPC   C1A77763  36.652  13.092   6.208
 6170POPC   D2A77764  36.638  12.886   6.553
 6170POPC   C3A77765  36.814  13.001   6.936
 6170POPC   C4A77766  36.891  12.657   7.253
 6170POPC   C1B77767  37.015  12.717   6.180
 6170POPC   C2B77768  37.153  12.895   6.540
 6170POPC   C3B77769  37.265  12.759   6.913
 6170POPC   C4B77770  37.261  13.015   7.231
 6171POPC   NC377771   1.530  42.199   5.640
 6171POPC   PO477772   2.161  41.989   5.318
 6171POPC   GL177773   1.972  41.966   5.727
 6171POPC   GL277774   1.990  42.289   5.842
 6171POPC   C1A77775   1.887  41.946   6.193
 6171POPC   D2A77776   2.093  42.059   6.607
 6171POPC   C3A77777   1.835  41.986   6.980
 6171POPC   C4A77778   2.088  42.068   7.312
 6171POPC   C1B77779   2.159  42.404   6.226
 6171POPC   C2B77780   2.160  42.602   6.604
 6171POPC   C3B77781   2.237  42.444   6.982
 6171POPC   C4B77782   2.192  42.574   7.401
 6172POPC   NC377783   5.027  18.655   5.588
 6172POPC   PO477784   5.216  18.048   5.428
 6172POPC   GL177785   5.142  18.188   5.845
 6172POPC   GL277786   5.437  18.362   5.879
 6172POPC   C1A77787   4.913  18.382   6.202
 6172POPC   D2A77788   4.604  18.450   6.528
 6172POPC   C3A77789   4.741  18.695   6.893
 6172POPC   C4A77790   5.027  18.611   7.256
 6172POPC   C1B77791   5.380  18.212   6.322
 6172POPC   C2B77792   5.391  18.185   6.773
 6172POPC   C3B77793   5.387  18.217   7.209
 6172POPC   C4B77794   5.513  18.056   7.616
 6173POPC   NC377795  23.001  32.882   5.119
 6173POPC   PO477796  22.812  32.381   5.466
 6173POPC   GL177797  22.831  32.231   5.873
 6173POPC   GL277798  22.930  31.914   5.759
 6173POPC   C1A77799  22.734  32.314   6.316
 6173POPC   D2A77800  22.766  32.417   6.740
 6173POPC   C3A77801  22.793  32.130   7.063
 6173POPC   C4A77802  22.875  32.369   7.408
 6173POPC   C1B77803  22.930  31.860   6.229
 6173POPC   C2B77804  23.102  32.028   6.605
 6173POPC   C3B77805  23.377  31.929   6.938
 6173POPC   C4B77806  23.211  31.966   7.337
 6174POPC   NC377807  30.532  12.835   5.384
 6174POPC   PO477808  29.843  12.757   5.331
 6174POPC   GL177809  29.761  12.766   5.806
 6174POPC   GL277810  29.772  13.106   5.905
 6174POPC   C1A77811  29.938  12.728   6.242
 6174POPC   D2A77812  30.319  12.677   6.510
 6174POPC   C3A77813  30.257  12.603   6.935
 6174POPC   C4A77814  29.869  12.646   7.137
 6174POPC   C1B77815  29.869  13.234   6.313
 6174POPC   C2B77816  29.940  12.993   6.675
 6174POPC   C3B77817  30.032  13.124   7.035
 6174POPC   C4B77818  29.722  13.134   7.306
 6175POPC   NC377819  37.644  16.714   5.377
 6175POPC   PO477820  38.298  16.841   5.258
 6175POPC   GL177821  38.021  16.800   5.716
 6175POPC   GL277822  37.820  16.462   5.768
 6175POPC   C1A77823  37.690  16.842   6.095
 6175POPC   D2A77824  37.577  16.950   6.552
 6175POPC   C3A77825  37.747  16.851   6.944
 6175POPC   C4A77826  37.505  16.827   7.309
 6175POPC   C1B77827  37.577  16.349   6.153
 6175POPC   C2B77828  37.724  16.449   6.565
 6175POPC   C3B77829  37.527  16.386   6.952
 6175POPC   C4B77830  37.566  16.310   7.360
 6176POPC   NC377831  25.945  13.866   5.445
 6176POPC   PO477832  25.889  13.280   5.707
 6176POPC   GL177833  26.247  13.494   5.863
 6176POPC   GL277834  26.385  13.837   5.822
 6176POPC   C1A77835  26.132  13.535   6.298
 6176POPC   D2A77836  25.826  13.577   6.626
 6176POPC   C3A77837  25.866  13.301   6.955
 6176POPC   C4A77838  26.048  13.534   7.276
 6176POPC   C1B77839  26.270  14.023   6.262
 6176POPC   C2B77840  26.415  14.113   6.725
 6176POPC   C3B77841  26.355  14.066   7.220
 6176POPC   C4B77842  26.299  13.856   7.657
 6177POPC   NC377843  27.849  13.866   5.499
 6177POPC   PO477844  27.231  13.688   5.389
 6177POPC   GL177845  27.369  13.510   5.831
 6177POPC   GL277846  27.719  13.585   5.883
 6177POPC   C1A77847  27.499  13.384   6.300
 6177POPC   D2A77848  27.755  13.356   6.695
 6177POPC   C3A77849  27.591  13.457   7.077
 6177POPC   C4A77850  27.288  13.221   7.280
 6177POPC   C1B77851  27.669  13.922   6.163
 6177POPC   C2B77852  27.658  13.846   6.583
 6177POPC   C3B77853  27.734  13.959   7.000
 6177POPC   C4B77854  27.543  13.912   7.372
 6178POPC   NC377855  15.802  11.234   5.196
 6178POPC   PO477856  16.015  10.825   5.670
 6178POPC   GL177857  15.775  11.163   5.858
 6178POPC   GL277858  15.832  11.477   5.668
 6178POPC   C1A77859  15.856  11.213   6.308
 6178POPC   D2A77860  16.210  11.099   6.606
 6178POPC   C3A77861  16.092  11.060   7.030
 6178POPC   C4A77862  15.672  11.196   7.065
 6178POPC   C1B77863  15.874  11.709   6.039
 6178POPC   C2B77864  15.734  11.685   6.448
 6178POPC   C3B77865  15.955  11.540   6.789
 6178POPC   C4B77866  15.970  11.650   7.210
 6179POPC   NC377867  12.602   0.942   5.194
 6179POPC   PO477868  13.243   1.010   5.414
 6179POPC   GL177869  12.967   1.112   5.740
 6179POPC   GL277870  12.614   1.213   5.690
 6179POPC   C1A77871  13.015   1.244   6.157
 6179POPC   D2A77872  12.936   1.023   6.539
 6179POPC   C3A77873  13.022   1.194   6.911
 6179POPC   C4A77874  12.956   0.991   7.277
 6179POPC   C1B77875  12.484   1.207   6.154
 6179POPC   C2B77876  12.403   0.939   6.537
 6179POPC   C3B77877  12.543   1.006   6.955
 6179POPC   C4B77878  12.626   1.444   7.116
 6180POPC   NC377879  38.772   5.009   5.442
 6180POPC   PO477880  38.331   5.494   5.340
 6180POPC   GL177881  38.341   5.188   5.671
 6180POPC   GL277882  38.625   5.427   5.784
 6180POPC   C1A77883  38.525   5.039   6.087
 6180POPC   D2A77884  38.749   4.826   6.431
 6180POPC   C3A77885  38.506   4.765   6.795
 6180POPC   C4A77886  38.524   4.952   7.191
 6180POPC   C1B77887  38.236   5.476   6.065
 6180POPC   C2B77888  38.251   5.260   6.456
 6180POPC   C3B77889  38.293   5.246   6.850
 6180POPC   C4B77890  38.133   5.416   7.194
 6181POPC   NC377891  37.308   4.499   5.264
 6181POPC   PO477892  36.625   4.297   5.400
 6181POPC   GL177893  36.811   4.448   5.780
 6181POPC   GL277894  37.175   4.441   5.775
 6181POPC   C1A77895  36.760   4.273   6.202
 6181POPC   D2A77896  36.679   4.006   6.561
 6181POPC   C3A77897  36.741   4.236   6.943
 6181POPC   C4A77898  37.034   4.277   7.250
 6181POPC   C1B77899  37.161   4.610   6.196
 6181POPC   C2B77900  37.071   4.497   6.625
 6181POPC   C3B77901  36.948   4.723   7.008
 6181POPC   C4B77902  36.841   4.672   7.472
 6182POPC   NC377903   3.254  37.830   5.669
 6182POPC   PO477904   2.736  38.047   5.384
 6182POPC   GL177905   2.699  37.761   5.792
 6182POPC   GL277906   2.360  37.821   5.959
 6182POPC   C1A77907   2.850  37.445   6.147
 6182POPC   D2A77908   2.771  37.291   6.606
 6182POPC   C3A77909   2.686  37.594   6.924
 6182POPC   C4A77910   2.406  37.655   7.246
 6182POPC   C1B77911   2.508  37.752   6.382
 6182POPC   C2B77912   2.921  37.834   6.504
 6182POPC   C3B77913   2.944  38.035   6.860
 6182POPC   C4B77914   3.034  37.819   7.246
 6183POPC   NC377915  25.836   2.498   5.703
 6183POPC   PO477916  26.467   2.674   5.447
 6183POPC   GL177917  26.234   2.787   5.816
 6183POPC   GL277918  26.265   2.463   5.980
 6183POPC   C1A77919  25.932   2.912   6.190
 6183POPC   D2A77920  25.646   3.033   6.537
 6183POPC   C3A77921  25.772   3.042   6.987
 6183POPC   C4A77922  26.077   2.827   7.234
 6183POPC   C1B77923  25.929   2.389   6.314
 6183POPC   C2B77924  25.951   2.617   6.673
 6183POPC   C3B77925  26.315   2.551   6.894
 6183POPC   C4B77926  26.130   2.287   7.218
 6184POPC   NC377927  10.973   7.719   4.987
 6184POPC   PO477928  11.458   7.414   5.390
 6184POPC   GL177929  11.454   7.575   5.789
 6184POPC   GL277930  11.228   7.267   5.821
 6184POPC   C1A77931  11.262   7.648   6.183
 6184POPC   D2A77932  11.304   7.415   6.559
 6184POPC   C3A77933  11.305   7.655   6.939
 6184POPC   C4A77934  11.331   7.558   7.390
 6184POPC   C1B77935  10.991   7.214   6.159
 6184POPC   C2B77936  10.972   7.027   6.563
 6184POPC   C3B77937  11.152   7.075   6.965
 6184POPC   C4B77938  11.035   6.897   7.358
 6185POPC   NC377939  13.686   4.911   4.889
 6185POPC   PO477940  13.733   5.351   5.420
 6185POPC   GL177941  13.586   5.137   5.811
 6185POPC   GL277942  13.299   5.333   5.893
 6185POPC   C1A77943  13.770   5.081   6.270
 6185POPC   D2A77944  13.878   5.296   6.680
 6185POPC   C3A77945  13.868   5.180   7.122
 6185POPC   C4A77946  14.077   5.320   7.510
 6185POPC   C1B77947  13.253   5.066   6.260
 6185POPC   C2B77948  13.443   4.912   6.636
 6185POPC   C3B77949  13.379   5.151   6.966
 6185POPC   C4B77950  13.254   5.020   7.338
 6186POPC   NC377951  32.337  29.731   5.411
 6186POPC   PO477952  31.958  30.401   5.477
 6186POPC   GL177953  32.067  30.098   5.836
 6186POPC   GL277954  32.117  29.724   5.846
 6186POPC   C1A77955  32.324  30.054   6.221
 6186POPC   D2A77956  32.576  29.891   6.572
 6186POPC   C3A77957  32.404  29.904   6.992
 6186POPC   C4A77958  32.199  30.264   7.159
 6186POPC   C1B77959  31.956  29.697   6.226
 6186POPC   C2B77960  32.054  29.809   6.631
 6186POPC   C3B77961  31.900  29.724   7.045
 6186POPC   C4B77962  31.845  29.618   7.478
 6187POPC   NC377963  28.284  37.168   5.267
 6187POPC   PO477964  28.683  36.721   5.596
 6187POPC   GL177965  28.608  36.830   5.981
 6187POPC   GL277966  28.390  37.095   5.823
 6187POPC   C1A77967  28.539  36.730   6.420
 6187POPC   D2A77968  28.534  37.036   6.746
 6187POPC   C3A77969  28.646  36.829   7.099
 6187POPC   C4A77970  28.733  36.455   7.274
 6187POPC   C1B77971  28.218  37.078   6.240
 6187POPC   C2B77972  28.054  36.872   6.625
 6187POPC   C3B77973  28.127  37.018   7.056
 6187POPC   C4B77974  28.451  37.304   7.191
 6188POPC   NC377975  31.843  33.458   5.561
 6188POPC   PO477976  32.438  33.793   5.242
 6188POPC   GL177977  32.360  33.780   5.728
 6188POPC   GL277978  32.079  33.744   5.898
 6188POPC   C1A77979  32.486  33.712   6.189
 6188POPC   D2A77980  32.374  33.890   6.598
 6188POPC   C3A77981  32.472  33.637   6.961
 6188POPC   C4A77982  32.310  33.686   7.359
 6188POPC   C1B77983  31.863  33.963   6.206
 6188POPC   C2B77984  31.716  33.806   6.590
 6188POPC   C3B77985  31.957  33.792   6.971
 6188POPC   C4B77986  31.905  34.015   7.343
 6189POPC   NC377987  13.454  11.788   5.419
 6189POPC   PO477988  13.952  11.210   5.501
 6189POPC   GL177989  13.660  11.338   5.832
 6189POPC   GL277990  13.301  11.472   5.800
 6189POPC   C1A77991  13.605  11.490   6.255
 6189POPC   D2A77992  13.501  11.657   6.664
 6189POPC   C3A77993  13.764  11.508   6.983
 6189POPC   C4A77994  13.779  11.252   7.323
 6189POPC   C1B77995  13.276  11.124   6.110
 6189POPC   C2B77996  13.540  11.023   6.479
 6189POPC   C3B77997  13.479  11.089   6.925
 6189POPC   C4B77998  13.393  10.927   7.364
 6190POPC   NC377999  31.660  40.095   5.609
 6190POPC   PO478000  32.338  39.854   5.412
 6190POPC   GL178001  32.222  40.123   5.740
 6190POPC   GL278002  32.013  39.920   5.895
 6190POPC   C1A78003  32.233  40.247   6.190
 6190POPC   D2A78004  32.066  40.024   6.545
 6190POPC   C3A78005  32.241  40.087   6.920
 6190POPC   C4A78006  32.139  40.131   7.338
 6190POPC   C1B78007  31.814  39.717   6.221
 6190POPC   C2B78008  31.947  39.512   6.594
 6190POPC   C3B78009  32.105  39.594   6.999
 6190POPC   C4B78010  31.974  39.663   7.394
 6191POPC   NC378011  32.217   0.805   5.428
 6191POPC   PO478012  32.299   0.139   5.471
 6191POPC   GL178013  32.162   0.399   5.775
 6191POPC   GL278014  32.433   0.263   5.961
 6191POPC   C1A78015  32.128   0.736   6.090
 6191POPC   D2A78016  32.037   0.890   6.489
 6191POPC   C3A78017  32.174   0.681   6.863
 6191POPC   C4A78018  32.208   0.686   7.289
 6191POPC   C1B78019  32.278   0.325   6.366
 6191POPC   C2B78020  32.314   0.194   6.772
 6191POPC   C3B78021  32.437   0.260   7.158
 6191POPC   C4B78022  32.383   0.241   7.596
 6192POPC   NC378023   4.038  44.207   5.469
 6192POPC   PO478024   4.332  43.490   5.473
 6192POPC   GL178025   4.413  43.678   5.892
 6192POPC   GL278026   4.168  43.924   5.894
 6192POPC   C1A78027   4.467  43.907   6.333
 6192POPC   D2A78028   4.520  43.807   6.806
 6192POPC   C3A78029   4.221  44.016   7.045
 6192POPC   C4A78030   4.309  44.252   7.376
 6192POPC   C1B78031   4.005  43.634   6.236
 6192POPC   C2B78032   3.786  43.627   6.644
 6192POPC   C3B78033   3.894  43.598   7.095
 6192POPC   C4B78034   4.264  43.591   7.346
 6193POPC   NC378035   3.794  12.849   5.454
 6193POPC   PO478036   3.389  12.480   5.270
 6193POPC   GL178037   3.431  12.731   5.773
 6193POPC   GL278038   3.689  13.045   5.895
 6193POPC   C1A78039   3.298  12.986   6.177
 6193POPC   D2A78040   3.586  13.133   6.517
 6193POPC   C3A78041   3.382  13.067   6.929
 6193POPC   C4A78042   3.281  12.812   7.298
 6193POPC   C1B78043   3.744  12.716   6.242
 6193POPC   C2B78044   3.858  12.697   6.692
 6193POPC   C3B78045   3.765  12.776   7.120
 6193POPC   C4B78046   3.739  12.739   7.545
 6194POPC   NC378047  20.683  34.549   5.362
 6194POPC   PO478048  20.214  34.862   5.569
 6194POPC   GL178049  20.601  34.746   5.845
 6194POPC   GL278050  20.750  34.390   5.840
 6194POPC   C1A78051  20.701  34.668   6.303
 6194POPC   D2A78052  20.512  34.702   6.709
 6194POPC   C3A78053  20.768  34.807   7.064
 6194POPC   C4A78054  20.883  34.738   7.494
 6194POPC   C1B78055  20.812  34.171   6.234
 6194POPC   C2B78056  20.547  34.158   6.596
 6194POPC   C3B78057  20.559  34.306   7.028
 6194POPC   C4B78058  20.881  34.250   7.325
 6195POPC   NC378059  18.836  44.956   5.333
 6195POPC   PO478060  19.212   0.452   5.477
 6195POPC   GL178061  18.937   0.470   5.823
 6195POPC   GL278062  18.848   0.126   5.826
 6195POPC   C1A78063  18.874   0.543   6.266
 6195POPC   D2A78064  18.888   0.681   6.687
 6195POPC   C3A78065  19.167   0.949   6.870
 6195POPC   C4A78066  19.211   0.749   7.254
 6195POPC   C1B78067  19.178   0.141   6.154
 6195POPC   C2B78068  19.130   0.203   6.606
 6195POPC   C3B78069  19.256   0.284   7.043
 6195POPC   C4B78070  19.126   0.330   7.541
 6196POPC   NC378071  29.461  12.978   5.457
 6196POPC   PO478072  28.846  12.882   5.247
 6196POPC   GL178073  29.027  12.793   5.686
 6196POPC   GL278074  29.309  12.542   5.678
 6196POPC   C1A78075  29.079  12.860   6.171
 6196POPC   D2A78076  29.014  12.636   6.599
 6196POPC   C3A78077  28.844  12.809   7.001
 6196POPC   C4A78078  28.846  13.144   7.279
 6196POPC   C1B78079  29.456  12.505   6.124
 6196POPC   C2B78080  29.504  12.734   6.534
 6196POPC   C3B78081  29.386  12.590   6.976
 6196POPC   C4B78082  29.453  12.707   7.446
 6197POPC   NC378083  38.625  16.521   5.346
 6197POPC   PO478084  38.793  17.203   5.476
 6197POPC   GL178085  38.545  16.874   5.738
 6197POPC   GL278086  38.402  16.474   5.800
 6197POPC   C1A78087  38.561  16.787   6.177
 6197POPC   D2A78088  38.508  16.487   6.499
 6197POPC   C3A78089  38.658  16.640   6.894
 6197POPC   C4A78090  38.510  16.662   7.299
 6197POPC   C1B78091  38.112  16.556   6.161
 6197POPC   C2B78092  38.086  16.790   6.533
 6197POPC   C3B78093  38.154  16.550   6.909
 6197POPC   C4B78094  38.006  16.547   7.316
 6198POPC   NC378095   8.801  27.911   5.413
 6198POPC   PO478096   8.676  27.283   5.442
 6198POPC   GL178097   8.937  27.533   5.733
 6198POPC   GL278098   9.157  27.318   5.875
 6198POPC   C1A78099   9.130  27.794   6.099
 6198POPC   D2A78100   9.283  27.806   6.549
 6198POPC   C3A78101   8.997  27.753   6.896
 6198POPC   C4A78102   8.632  27.569   7.073
 6198POPC   C1B78103   8.934  27.230   6.216
 6198POPC   C2B78104   8.857  27.356   6.613
 6198POPC   C3B78105   9.005  27.223   6.997
 6198POPC   C4B78106   9.085  27.380   7.424
 6199POPC   NC378107  39.938  17.458   5.442
 6199POPC   PO478108  40.247  16.924   5.669
 6199POPC   GL178109  40.121  17.310   5.892
 6199POPC   GL278110  39.763  17.356   5.898
 6199POPC   C1A78111  40.099  17.558   6.297
 6199POPC   D2A78112  40.268  17.703   6.721
 6199POPC   C3A78113  40.096  17.617   7.161
 6199POPC   C4A78114  40.165  17.745   7.591
 6199POPC   C1B78115  39.540  17.576   6.183
 6199POPC   C2B78116  39.431  17.514   6.606
 6199POPC   C3B78117  39.577  17.565   7.026
 6199POPC   C4B78118  39.697  17.555   7.471
 6200POPC   NC378119  15.201  36.325   5.692
 6200POPC   PO478120  15.061  36.928   5.457
 6200POPC   GL178121  15.298  36.823   5.838
 6200POPC   GL278122  15.199  37.126   5.980
 6200POPC   C1A78123  15.253  36.657   6.235
 6200POPC   D2A78124  15.034  36.598   6.588
 6200POPC   C3A78125  15.148  36.782   6.936
 6200POPC   C4A78126  15.150  36.609   7.321
 6200POPC   C1B78127  14.986  37.371   6.316
 6200POPC   C2B78128  14.917  37.221   6.734
 6200POPC   C3B78129  14.789  37.194   7.156
 6200POPC   C4B78130  14.668  37.236   7.601
 6201POPC   NC378131  12.187  20.138   5.427
 6201POPC   PO478132  12.147  19.450   5.336
 6201POPC   GL178133  12.033  19.617   5.725
 6201POPC   GL278134  11.962  19.945   5.858
 6201POPC   C1A78135  12.221  19.572   6.127
 6201POPC   D2A78136  12.128  19.396   6.519
 6201POPC   C3A78137  12.056  19.730   6.803
 6201POPC   C4A78138  12.044  19.683   7.232
 6201POPC   C1B78139  12.008  20.034   6.319
 6201POPC   C2B78140  12.274  20.191   6.676
 6201POPC   C3B78141  12.241  20.178   7.127
 6201POPC   C4B78142  12.043  20.095   7.532
 6202POPC   NC378143   7.641  36.291   5.483
 6202POPC   PO478144   7.308  35.688   5.445
 6202POPC   GL178145   7.335  36.045   5.802
 6202POPC   GL278146   7.229  36.435   5.801
 6202POPC   C1A78147   7.575  36.143   6.187
 6202POPC   D2A78148   7.581  35.947   6.589
 6202POPC   C3A78149   7.538  36.018   7.024
 6202POPC   C4A78150   7.245  35.808   7.275
 6202POPC   C1B78151   7.125  36.372   6.255
 6202POPC   C2B78152   7.278  36.368   6.690
 6202POPC   C3B78153   7.244  36.441   7.131
 6202POPC   C4B78154   7.011  36.488   7.518
 6203POPC   NC378155  37.887  18.265   5.330
 6203POPC   PO478156  37.221  18.470   5.314
 6203POPC   GL178157  37.507  18.408   5.706
 6203POPC   GL278158  37.543  18.089   5.897
 6203POPC   C1A78159  37.536  18.506   6.183
 6203POPC   D2A78160  37.441  18.297   6.602
 6203POPC   C3A78161  37.651  18.400   6.968
 6203POPC   C4A78162  37.714  18.168   7.308
 6203POPC   C1B78163  37.830  18.104   6.320
 6203POPC   C2B78164  37.977  18.052   6.749
 6203POPC   C3B78165  37.993  17.761   7.114
 6203POPC   C4B78166  37.988  17.794   7.580
 6204POPC   NC378167   0.050  27.365   5.422
 6204POPC   PO478168   0.633  27.618   5.250
 6204POPC   GL178169   0.566  27.579   5.692
 6204POPC   GL278170   0.676  27.856   5.850
 6204POPC   C1A78171   0.407  27.368   6.076
 6204POPC   D2A78172   0.234  27.369   6.498
 6204POPC   C3A78173   0.411  27.278   6.876
 6204POPC   C4A78174   0.318  27.346   7.287
 6204POPC   C1B78175   0.594  27.880   6.265
 6204POPC   C2B78176   0.373  27.842   6.643
 6204POPC   C3B78177   0.563  27.847   7.017
 6204POPC   C4B78178   0.624  27.723   7.421
 6205POPC   NC378179  10.779  15.728   5.062
 6205POPC   PO478180  10.442  16.237   5.467
 6205POPC   GL178181  10.393  15.997   5.834
 6205POPC   GL278182  10.037  15.935   5.821
 6205POPC   C1A78183  10.602  15.916   6.241
 6205POPC   D2A78184  10.562  16.164   6.615
 6205POPC   C3A78185  10.675  16.130   7.082
 6205POPC   C4A78186  10.334  16.088   7.416
 6205POPC   C1B78187  10.170  15.585   6.104
 6205POPC   C2B78188  10.418  15.496   6.468
 6205POPC   C3B78189  10.668  15.650   6.809
 6205POPC   C4B78190  10.595  15.648   7.257
 6206POPC   NC378191  14.682  22.605   5.401
 6206POPC   PO478192  14.175  23.111   5.477
 6206POPC   GL178193  14.258  22.812   5.724
 6206POPC   GL278194  14.564  22.867   5.818
 6206POPC   C1A78195  14.191  22.826   6.154
 6206POPC   D2A78196  14.469  22.849   6.499
 6206POPC   C3A78197  14.271  22.792   6.865
 6206POPC   C4A78198  14.445  22.548   7.152
 6206POPC   C1B78199  14.648  23.158   6.147
 6206POPC   C2B78200  14.709  23.288   6.564
 6206POPC   C3B78201  14.589  23.205   6.991
 6206POPC   C4B78202  14.905  23.416   7.229
 6207POPC   NC378203  43.659  38.175   5.537
 6207POPC   PO478204  44.316  38.363   5.414
 6207POPC   GL178205  44.017  38.491   5.761
 6207POPC   GL278206  43.869  38.778   5.958
 6207POPC   C1A78207  43.960  38.284   6.164
 6207POPC   D2A78208  44.170  38.242   6.567
 6207POPC   C3A78209  43.899  38.280   6.927
 6207POPC   C4A78210  43.635  38.595   7.134
 6207POPC   C1B78211  44.185  38.718   6.321
 6207POPC   C2B78212  44.355  38.678   6.773
 6207POPC   C3B78213  44.158  38.614   7.201
 6207POPC   C4B78214  44.186  38.601   7.651
 6208POPC   NC378215   5.355  41.703   5.184
 6208POPC   PO478216   4.908  41.220   5.201
 6208POPC   GL178217   4.998  41.376   5.626
 6208POPC   GL278218   5.126  41.100   5.802
 6208POPC   C1A78219   5.185  41.557   6.050
 6208POPC   D2A78220   5.261  41.417   6.493
 6208POPC   C3A78221   5.065  41.605   6.873
 6208POPC   C4A78222   5.230  41.665   7.291
 6208POPC   C1B78223   4.891  41.153   6.200
 6208POPC   C2B78224   4.867  41.111   6.632
 6208POPC   C3B78225   4.989  41.146   7.050
 6208POPC   C4B78226   4.755  41.447   7.297
 6209POPC   NC378227  11.442  20.768   5.230
 6209POPC   PO478228  10.945  20.434   5.271
 6209POPC   GL178229  11.220  20.474   5.645
 6209POPC   GL278230  11.186  20.159   5.813
 6209POPC   C1A78231  11.188  20.593   6.105
 6209POPC   D2A78232  11.351  20.514   6.514
 6209POPC   C3A78233  11.204  20.675   6.909
 6209POPC   C4A78234  11.436  20.776   7.277
 6209POPC   C1B78235  11.508  20.134   6.123
 6209POPC   C2B78236  11.536  20.026   6.559
 6209POPC   C3B78237  11.519  20.258   6.938
 6209POPC   C4B78238  11.206  20.304   7.259
 6210POPC   NC378239  38.144  28.173   5.320
 6210POPC   PO478240  38.756  28.310   5.486
 6210POPC   GL178241  38.496  28.340   5.831
 6210POPC   GL278242  38.265  28.053   5.840
 6210POPC   C1A78243  38.500  28.549   6.258
 6210POPC   D2A78244  38.411  28.347   6.641
 6210POPC   C3A78245  38.458  28.624   6.979
 6210POPC   C4A78246  38.367  28.587   7.432
 6210POPC   C1B78247  38.081  28.288   6.181
 6210POPC   C2B78248  37.917  28.451   6.586
 6210POPC   C3B78249  38.053  28.304   7.015
 6210POPC   C4B78250  38.126  28.029   7.381
 6211POPC   NC378251  24.440  14.675   5.407
 6211POPC   PO478252  24.863  14.242   5.499
 6211POPC   GL178253  24.697  14.571   5.843
 6211POPC   GL278254  24.295  14.629   5.891
 6211POPC   C1A78255  24.620  14.509   6.286
 6211POPC   D2A78256  24.698  14.153   6.564
 6211POPC   C3A78257  24.826  14.269   6.964
 6211POPC   C4A78258  24.789  14.418   7.389
 6211POPC   C1B78259  24.077  14.535   6.305
 6211POPC   C2B78260  24.237  14.332   6.691
 6211POPC   C3B78261  24.331  14.352   7.126
 6211POPC   C4B78262  24.017  14.437   7.427
 6212POPC   NC378263  15.173  42.695   5.477
 6212POPC   PO478264  15.498  42.100   5.312
 6212POPC   GL178265  15.278  42.231   5.729
 6212POPC   GL278266  15.488  41.939   5.840
 6212POPC   C1A78267  15.149  42.510   6.125
 6212POPC   D2A78268  15.072  42.722   6.542
 6212POPC   C3A78269  15.104  42.460   6.911
 6212POPC   C4A78270  15.249  42.581   7.281
 6212POPC   C1B78271  15.270  41.980   6.212
 6212POPC   C2B78272  15.430  41.849   6.584
 6212POPC   C3B78273  15.571  41.934   6.988
 6212POPC   C4B78274  15.270  42.055   7.324
 6213POPC   NC378275  41.425  28.088   5.357
 6213POPC   PO478276  42.074  28.412   5.378
 6213POPC   GL178277  41.688  28.393   5.694
 6213POPC   GL278278  41.621  28.031   5.817
 6213POPC   C1A78279  41.596  28.422   6.172
 6213POPC   D2A78280  41.576  28.633   6.607
 6213POPC   C3A78281  41.472  28.431   6.991
 6213POPC   C4A78282  41.570  28.318   7.417
 6213POPC   C1B78283  41.512  27.885   6.229
 6213POPC   C2B78284  41.486  28.031   6.667
 6213POPC   C3B78285  41.282  27.951   7.084
 6213POPC   C4B78286  41.319  27.874   7.527
 6214POPC   NC378287  14.945   0.413   5.524
 6214POPC   PO478288  15.578   0.294   5.636
 6214POPC   GL178289  15.356   0.548   5.926
 6214POPC   GL278290  14.974   0.621   5.980
 6214POPC   C1A78291  15.323   0.759   6.319
 6214POPC   D2A78292  15.073   0.582   6.611
 6214POPC   C3A78293  15.237   0.430   6.984
 6214POPC   C4A78294  14.926   0.593   7.257
 6214POPC   C1B78295  15.020   0.232   6.173
 6214POPC   C2B78296  14.921   0.089   6.548
 6214POPC   C3B78297  14.749   0.253   6.928
 6214POPC   C4B78298  14.982   0.093   7.288
 6215POPC   NC378299  26.586  32.823   5.418
 6215POPC   PO478300  27.236  32.692   5.484
 6215POPC   GL178301  26.927  32.863   5.815
 6215POPC   GL278302  26.995  33.178   5.934
 6215POPC   C1A78303  26.686  32.912   6.238
 6215POPC   D2A78304  26.677  33.234   6.580
 6215POPC   C3A78305  26.551  33.050   6.948
 6215POPC   C4A78306  26.729  32.827   7.274
 6215POPC   C1B78307  27.132  33.177   6.339
 6215POPC   C2B78308  27.186  33.512   6.663
 6215POPC   C3B78309  26.971  33.368   7.028
 6215POPC   C4B78310  27.187  33.060   7.271
 6216POPC   NC378311   3.193  31.450   5.501
 6216POPC   PO478312   3.938  31.366   5.519
 6216POPC   GL178313   3.755  31.243   5.914
 6216POPC   GL278314   3.442  31.155   5.849
 6216POPC   C1A78315   3.829  31.095   6.362
 6216POPC   D2A78316   3.666  31.166   6.791
 6216POPC   C3A78317   3.896  31.442   7.128
 6216POPC   C4A78318   3.978  31.461   7.577
 6216POPC   C1B78319   3.354  31.309   6.259
 6216POPC   C2B78320   3.413  31.600   6.592
 6216POPC   C3B78321   3.432  31.576   7.018
 6216POPC   C4B78322   3.588  31.812   7.345
 6217POPC   NC378323  32.872  37.510   5.552
 6217POPC   PO478324  33.043  38.109   5.567
 6217POPC   GL178325  33.112  37.817   5.906
 6217POPC   GL278326  33.252  37.468   5.868
 6217POPC   C1A78327  32.996  37.657   6.299
 6217POPC   D2A78328  32.765  37.511   6.616
 6217POPC   C3A78329  32.878  37.637   6.993
 6217POPC   C4A78330  32.505  37.865   7.110
 6217POPC   C1B78331  33.260  37.195   6.199
 6217POPC   C2B78332  33.214  37.272   6.616
 6217POPC   C3B78333  33.360  37.379   7.005
 6217POPC   C4B78334  33.189  37.430   7.365
 6218POPC   NC378335   1.442   5.291   5.796
 6218POPC   PO478336   1.895   4.997   5.370
 6218POPC   GL178337   2.099   4.905   5.800
 6218POPC   GL278338   1.936   5.187   5.931
 6218POPC   C1A78339   2.295   5.002   6.234
 6218POPC   D2A78340   2.324   4.723   6.573
 6218POPC   C3A78341   2.118   4.826   6.944
 6218POPC   C4A78342   2.092   5.107   7.304
 6218POPC   C1B78343   1.778   4.935   6.290
 6218POPC   C2B78344   1.655   4.970   6.735
 6218POPC   C3B78345   1.608   5.231   7.114
 6218POPC   C4B78346   1.640   5.118   7.556
 6219POPC   NC378347  38.383  43.673   5.443
 6219POPC   PO478348  38.446  44.394   5.555
 6219POPC   GL178349  38.282  44.100   5.763
 6219POPC   GL278350  38.587  43.950   5.828
 6219POPC   C1A78351  38.235  44.164   6.199
 6219POPC   D2A78352  38.495  44.100   6.570
 6219POPC   C3A78353  38.273  44.090   6.958
 6219POPC   C4A78354  38.461  44.190   7.334
 6219POPC   C1B78355  38.519  43.722   6.185
 6219POPC   C2B78356  38.639  43.590   6.581
 6219POPC   C3B78357  38.666  43.766   6.981
 6219POPC   C4B78358  38.395  43.684   7.315
 6220POPC   NC378359   8.498  14.017   5.440
 6220POPC   PO478360   8.058  13.632   5.113
 6220POPC   GL178361   8.083  13.485   5.633
 6220POPC   GL278362   8.394  13.643   5.850
 6220POPC   C1A78363   7.942  13.483   6.117
 6220POPC   D2A78364   7.935  13.579   6.599
 6220POPC   C3A78365   8.341  13.496   6.802
 6220POPC   C4A78366   8.456  13.426   7.225
 6220POPC   C1B78367   8.349  13.785   6.303
 6220POPC   C2B78368   8.300  13.997   6.720
 6220POPC   C3B78369   8.180  13.874   7.133
 6220POPC   C4B78370   7.997  13.953   7.501
 6221POPC   NC378371  39.496  21.988   5.429
 6221POPC   PO478372  39.055  22.503   5.449
 6221POPC   GL178373  39.191  22.272   5.854
 6221POPC   GL278374  39.264  21.902   5.918
 6221POPC   C1A78375  39.104  22.343   6.309
 6221POPC   D2A78376  38.976  22.170   6.697
 6221POPC   C3A78377  39.021  22.443   7.042
 6221POPC   C4A78378  38.926  22.223   7.404
 6221POPC   C1B78379  39.533  22.065   6.287
 6221POPC   C2B78380  39.487  22.253   6.700
 6221POPC   C3B78381  39.488  22.169   7.131
 6221POPC   C4B78382  39.292  21.876   7.346
 6222POPC   NC378383  40.639  37.860   5.578
 6222POPC   PO478384  41.116  37.572   5.105
 6222POPC   GL178385  40.977  37.486   5.600
 6222POPC   GL278386  41.062  37.785   5.833
 6222POPC   C1A78387  40.724  37.422   6.047
 6222POPC   D2A78388  40.640  37.369   6.512
 6222POPC   C3A78389  40.560  37.508   6.936
 6222POPC   C4A78390  40.777  37.446   7.337
 6222POPC   C1B78391  40.868  37.886   6.214
 6222POPC   C2B78392  40.879  37.804   6.623
 6222POPC   C3B78393  41.037  37.721   7.000
 6222POPC   C4B78394  40.688  37.969   7.143
 6223POPC   NC378395   4.724  39.746   5.613
 6223POPC   PO478396   5.131  40.272   5.427
 6223POPC   GL178397   5.037  40.117   5.843
 6223POPC   GL278398   5.155  39.760   5.917
 6223POPC   C1A78399   5.175  40.194   6.267
 6223POPC   D2A78400   5.352  40.099   6.676
 6223POPC   C3A78401   5.093  40.250   7.023
 6223POPC   C4A78402   5.213  40.218   7.456
 6223POPC   C1B78403   4.824  39.807   6.241
 6223POPC   C2B78404   4.845  40.004   6.607
 6223POPC   C3B78405   4.963  39.767   6.905
 6223POPC   C4B78406   4.933  39.831   7.282
 6224POPC   NC378407  11.808  13.557   5.394
 6224POPC   PO478408  12.442  13.260   5.297
 6224POPC   GL178409  12.294  13.470   5.730
 6224POPC   GL278410  11.983  13.619   5.854
 6224POPC   C1A78411  12.318  13.522   6.211
 6224POPC   D2A78412  12.107  13.599   6.612
 6224POPC   C3A78413  12.266  13.582   7.016
 6224POPC   C4A78414  12.165  13.367   7.419
 6224POPC   C1B78415  11.792  13.433   6.214
 6224POPC   C2B78416  11.847  13.177   6.569
 6224POPC   C3B78417  11.768  13.389   6.974
 6224POPC   C4B78418  11.671  13.621   7.315
 6225POPC   NC378419  22.662  14.502   5.596
 6225POPC   PO478420  23.289  14.596   5.343
 6225POPC   GL178421  23.163  14.513   5.759
 6225POPC   GL278422  23.026  14.173   5.766
 6225POPC   C1A78423  23.198  14.455   6.214
 6225POPC   D2A78424  23.059  14.683   6.614
 6225POPC   C3A78425  22.920  14.572   7.032
 6225POPC   C4A78426  23.165  14.717   7.355
 6225POPC   C1B78427  22.781  14.163   6.171
 6225POPC   C2B78428  22.996  14.159   6.577
 6225POPC   C3B78429  22.858  14.080   6.943
 6225POPC   C4B78430  22.559  14.205   7.212
 6226POPC   NC378431   5.570  31.721   5.416
 6226POPC   PO478432   6.141  31.444   5.576
 6226POPC   GL178433   5.843  31.332   5.856
 6226POPC   GL278434   5.786  31.669   5.877
 6226POPC   C1A78435   5.885  31.230   6.291
 6226POPC   D2A78436   5.728  30.960   6.632
 6226POPC   C3A78437   5.989  31.107   6.982
 6226POPC   C4A78438   5.981  31.379   7.342
 6226POPC   C1B78439   5.673  31.734   6.255
 6226POPC   C2B78440   5.865  31.839   6.616
 6226POPC   C3B78441   5.771  31.708   7.019
 6226POPC   C4B78442   5.711  31.782   7.468
 6227POPC   NC378443  24.461  44.938   5.354
 6227POPC   PO478444  24.613  44.281   5.285
 6227POPC   GL178445  24.571  44.545   5.662
 6227POPC   GL278446  24.830  44.717   5.815
 6227POPC   C1A78447  24.382  44.672   6.077
 6227POPC   D2A78448  24.406  44.488   6.504
 6227POPC   C3A78449  24.244  44.664   6.928
 6227POPC   C4A78450  24.277  44.377   7.301
 6227POPC   C1B78451  24.856  44.708   6.283
 6227POPC   C2B78452  24.643  44.937   6.638
 6227POPC   C3B78453  24.625   0.080   7.071
 6227POPC   C4B78454  24.518  44.812   7.422
 6228POPC   NC378455  13.953  41.054   5.558
 6228POPC   PO478456  14.516  40.737   5.464
 6228POPC   GL178457  14.586  40.743   5.911
 6228POPC   GL278458  14.204  40.770   5.917
 6228POPC   C1A78459  14.486  40.834   6.339
 6228POPC   D2A78460  14.242  40.546   6.557
 6228POPC   C3A78461  14.416  40.464   6.938
 6228POPC   C4A78462  14.558  40.741   7.216
 6228POPC   C1B78463  13.962  41.050   6.192
 6228POPC   C2B78464  14.041  41.176   6.560
 6228POPC   C3B78465  14.296  41.004   6.828
 6228POPC   C4B78466  14.074  40.891   7.184
 6229POPC   NC378467  41.475  36.780   5.479
 6229POPC   PO478468  42.024  37.130   5.576
 6229POPC   GL178469  41.788  36.871   5.877
 6229POPC   GL278470  41.773  36.475   5.801
 6229POPC   C1A78471  41.498  37.037   6.201
 6229POPC   D2A78472  41.427  36.902   6.629
 6229POPC   C3A78473  41.806  37.031   6.884
 6229POPC   C4A78474  41.766  37.249   7.256
 6229POPC   C1B78475  41.447  36.521   6.148
 6229POPC   C2B78476  41.263  36.396   6.560
 6229POPC   C3B78477  41.125  36.570   6.951
 6229POPC   C4B78478  41.431  36.804   7.149
 6230POPC   NC378479  35.071  41.025   5.472
 6230POPC   PO478480  35.666  40.628   5.527
 6230POPC   GL178481  35.489  40.885   5.832
 6230POPC   GL278482  35.150  40.763   5.907
 6230POPC   C1A78483  35.462  41.021   6.251
 6230POPC   D2A78484  35.499  40.812   6.624
 6230POPC   C3A78485  35.638  41.007   6.981
 6230POPC   C4A78486  35.520  40.933   7.373
 6230POPC   C1B78487  35.309  40.492   6.242
 6230POPC   C2B78488  35.224  40.368   6.672
 6230POPC   C3B78489  35.305  40.603   7.064
 6230POPC   C4B78490  35.144  40.630   7.524
 6231W        W78491  10.171  36.536   1.718
 6232W        W78492  41.552  19.024  13.898
 6233W        W78493   0.138  10.636  13.329
 6234W        W78494   5.237  27.154   0.711
 6235W        W78495  12.827  32.257  11.268
 6236W        W78496  29.972  13.096  13.506
 6237W        W78497  17.070   4.068  13.854
 6238W        W78498  32.883  30.164  11.322
 6239W        W78499  40.390  32.879  14.450
 6240W        W78500  44.989  22.116  13.616
 6241W        W78501  26.165  23.700   4.389
 6242W        W78502  28.530  42.004  11.973
 6243W        W78503   7.988  15.734  14.940
 6244W        W78504  19.345  22.837   4.990
 6245W        W78505   7.437  43.956  10.975
 6246W        W78506   2.206  20.125   0.786
 6247W        W78507  29.626  15.215  12.949
 6248W        W78508   3.494  13.154  11.903
 6249W        W78509  25.026  32.733  12.824
 6250W        W78510   5.779  21.431  12.045
 6251W        W78511  15.745  44.762   4.342
 6252W        W78512  18.584  33.408  13.074
 6253W        W78513  18.105   7.868   3.046
 6254W        W78514  22.690  37.015   3.646
 6255W        W78515  25.977  41.473  13.226
 6256W        W78516  33.144   6.014   1.413
 6257W        W78517  31.261   1.399   2.207
 6258W        W78518  33.659   7.478   2.335
 6259W        W78519  26.908  15.810   0.911
 6260W        W78520  34.878  17.721   2.239
 6261W        W78521  18.104  31.486  12.595
 6262W        W78522  22.544   3.852  14.416
 6263W        W78523  15.879  31.803  12.915
 6264W        W78524  42.791  26.065  12.468
 6265W        W78525  37.341  12.673  13.453
 6266W        W78526  15.267  35.619   4.379
 6267W        W78527   0.012   8.996  11.889
 6268W        W78528  42.973  16.105  11.836
 6269W        W78529   8.168   3.878   3.335
 6270W        W78530  43.400  37.487  11.056
 6271W        W78531  44.976  43.054  13.480
 6272W        W78532  33.350  17.589   3.321
 6273W        W78533  16.724  41.427  11.260
 6274W        W78534  27.726  14.177  14.372
 6275W        W78535  29.089  22.785   1.028
 6276W        W78536  43.958  20.214  10.787
 6277W        W78537  28.475  23.005   2.705
 6278W        W78538  17.900  38.447  11.227
 6279W        W78539  18.710  37.345   4.528
 6280W        W78540  23.961  29.877   4.278
 6281W        W78541  27.672  39.833  12.492
 6282W        W78542   7.190  44.515   3.830
 6283W        W78543  22.224  17.515  13.040
 6284W        W78544  28.388  44.314   0.808
 6285W        W78545  38.949   8.859  11.345
 6286W        W78546  38.531  37.993  12.899
 6287W        W78547  31.811  23.014   4.214
 6288W        W78548  35.036  44.314  12.436
 6289W        W78549  23.775  24.490   4.091
 6290W        W78550  32.355  31.593  13.259
 6291W        W78551  16.489  40.965  12.620
 6292W        W78552  10.670   6.162  14.456
 6293W        W78553  37.228   9.154  11.100
 6294W        W78554  22.650  16.320  11.829
 6295W        W78555  23.977  16.580   3.225
 6296W        W78556  25.635  20.776  10.677
 6297W        W78557  10.391  42.228  11.968
 6298W        W78558  40.058  22.118  13.528
 6299W        W78559  16.996  26.251   2.661
 6300W        W78560  26.206  39.306  10.387
 6301W        W78561  19.016   1.358   0.461
 6302W        W78562  32.714  38.747   2.151
 6303W        W78563  28.986  35.214  13.814
 6304W        W78564  11.354  19.929   2.267
 6305W        W78565  25.643   6.368   1.703
 6306W        W78566  26.464   5.877  13.977
 6307W        W78567  44.862  19.112   0.130
 6308W        W78568   4.705  14.831   3.790
 6309W        W78569  42.297  41.644   4.643
 6310W        W78570  28.533  43.923   2.867
 6311W        W78571  20.719  17.739  10.735
 6312W        W78572   8.002  15.757   0.903
 6313W        W78573  28.096  34.198   0.419
 6314W        W78574   7.328  30.953   3.230
 6315W        W78575  27.139  12.767  11.165
 6316W        W78576  38.971  19.854   1.768
 6317W        W78577  40.454  44.325  10.717
 6318W        W78578  26.723  31.875  12.077
 6319W        W78579  30.109  27.705  10.526
 6320W        W78580  23.217   8.230   2.576
 6321W        W78581   3.993  43.841   3.739
 6322W        W78582  33.757  29.687  12.425
 6323W        W78583   4.258  11.897  14.510
 6324W        W78584  20.143  18.525   2.219
 6325W        W78585  41.222  12.124  10.992
 6326W        W78586   1.887  40.851  14.400
 6327W        W78587  41.937  11.715   4.714
 6328W        W78588  31.903  33.548   3.620
 6329W        W78589   3.487  34.535   3.659
 6330W        W78590  26.106  24.943   1.841
 6331W        W78591  13.291  17.548  11.948
 6332W        W78592   9.431  25.612  11.185
 6333W        W78593  27.670  22.017  11.295
 6334W        W78594  17.254   9.696  13.057
 6335W        W78595  42.434  39.898  10.979
 6336W        W78596  32.934  24.554  13.444
 6337W        W78597  27.619  43.354   4.668
 6338W        W78598  23.713  15.328   0.745
 6339W        W78599  30.080  19.461   3.266
 6340W        W78600  21.248  25.432  12.391
 6341W        W78601  40.946   8.131  10.723
 6342W        W78602  20.488  26.074   1.929
 6343W        W78603   8.482  28.691  10.618
 6344W        W78604   0.254  22.671  10.102
 6345W        W78605   0.940  21.049  13.473
 6346W        W78606  42.533  29.570  11.379
 6347W        W78607  24.576   4.812   1.794
 6348W        W78608  25.216  14.792   3.604
 6349W        W78609  26.554  31.062  13.790
 6350W        W78610  41.853   3.819   4.787
 6351W        W78611  21.241  41.258   3.609
 6352W        W78612  35.561   8.818   5.072
 6353W        W78613  21.201  42.574  13.104
 6354W        W78614  29.751  31.716  14.064
 6355W        W78615  19.819  35.024   1.323
 6356W        W78616  23.081  13.003   4.917
 6357W        W78617   1.206  44.353   4.627
 6358W        W78618  33.061  35.395   0.640
 6359W        W78619  37.780  35.366   0.609
 6360W        W78620  24.730  15.772  11.215
 6361W        W78621  26.454  39.516   4.989
 6362W        W78622   3.673  30.458  14.467
 6363W        W78623  16.846  10.759  13.167
 6364W        W78624  22.272  35.438  13.074
 6365W        W78625  27.356   7.791   3.727
 6366W        W78626   3.724  18.595  11.259
 6367W        W78627  21.277  42.000   2.341
 6368W        W78628  14.898  30.220  13.810
 6369W        W78629   3.312  12.251   3.281
 6370W        W78630  35.090  23.036   1.833
 6371W        W78631  22.910   8.719  10.130
 6372W        W78632  41.386   4.898   4.754
 6373W        W78633  13.266   7.290   2.148
 6374W        W78634  38.961  20.133   2.222
 6375W        W78635   5.683  15.338  14.057
 6376W        W78636  25.098   4.316   2.228
 6377W        W78637   9.248  37.016  11.105
 6378W        W78638  31.945   4.755   4.958
 6379W        W78639  15.730  31.839  14.972
 6380W        W78640   0.101  23.477  13.951
 6381W        W78641  39.604  35.119   0.958
 6382W        W78642  37.470  28.543  13.229
 6383W        W78643  28.393  42.520  12.901
 6384W        W78644  11.445   6.972  13.411
 6385W        W78645  35.922  29.922  11.387
 6386W        W78646  25.990  33.598   3.971
 6387W        W78647  13.127  11.557   0.808
 6388W        W78648  26.201  41.363  10.128
 6389W        W78649  14.316  31.128   3.537
 6390W        W78650  44.392  11.255   4.746
 6391W        W78651  26.376  25.122  11.208
 6392W        W78652  17.428  14.386   2.332
 6393W        W78653  17.778  20.034   0.780
 6394W        W78654  25.413  30.903  14.473
 6395W        W78655   6.789  44.313  14.431
 6396W        W78656  13.880  18.170  11.935
 6397W        W78657  25.035  25.050  13.011
 6398W        W78658  14.706  42.894  14.333
 6399W        W78659  29.075  19.562   0.869
 6400W        W78660  13.575  10.691   3.871
 6401W        W78661  14.867  20.826  11.688
 6402W        W78662  36.068  11.693  12.031
 6403W        W78663  33.210  26.452  12.479
 6404W        W78664  10.730  22.201  11.029
 6405W        W78665  15.133  20.504  11.358
 6406W        W78666  31.889  37.484  13.068
 6407W        W78667   0.492  12.903  14.952
 6408W        W78668  28.586  28.405   2.197
 6409W        W78669   3.261  11.848  13.174
 6410W        W78670  25.024  28.675   3.909
 6411W        W78671  10.318  27.022   4.647
 6412W        W78672  14.600  37.401  10.350
 6413W        W78673   9.577  20.209  12.101
 6414W        W78674  37.105  39.362   0.388
 6415W        W78675  23.487  21.604  14.548
 6416W        W78676  43.432  29.915   0.457
 6417W        W78677  15.371  16.289   1.947
 6418W        W78678  43.670  42.970   2.764
 6419W        W78679   8.545  43.896   1.926
 6420W        W78680  25.983  38.824  10.421
 6421W        W78681   4.209   1.637  13.899
 6422W        W78682  21.601  35.848  12.408
 6423W        W78683   4.499  33.375  11.499
 6424W        W78684  34.614   8.821   2.189
 6425W        W78685  23.220  14.906   0.037
 6426W        W78686  39.558  44.285   2.850
 6427W        W78687  13.538  17.592   5.145
 6428W        W78688  20.642   7.782  10.948
 6429W        W78689  20.215  28.345   4.573
 6430W        W78690  30.803  14.711   4.040
 6431W        W78691  28.225   4.385   2.680
 6432W        W78692  40.396  27.555   0.725
 6433W        W78693   9.685  30.534  10.540
 6434W        W78694  39.422  14.787  14.526
 6435W        W78695  12.056  12.866   5.060
 6436W        W78696  22.077  15.572  14.929
 6437W        W78697  27.269   1.314  11.681
 6438W        W78698  27.965  37.530   4.609
 6439W        W78699  13.660  18.545   2.380
 6440W        W78700  12.724   4.812   4.189
 6441W        W78701  20.064  30.128   4.892
 6442W        W78702  24.665  13.007   0.234
 6443W        W78703  16.291  31.018   3.607
 6444W        W78704  29.595  13.210   3.024
 6445W        W78705  23.447  41.061   4.132
 6446W        W78706  15.282  34.499  14.130
 6447W        W78707  42.761  33.929   1.694
 6448W        W78708  19.300   2.290   1.890
 6449W        W78709  39.648  20.631   2.385
 6450W        W78710  10.818   7.379   2.222
 6451W        W78711  17.147  43.899  12.178
 6452W        W78712  16.440  27.960   3.319
 6453W        W78713  34.071   4.664  11.959
 6454W        W78714   2.821  29.361   1.986
 6455W        W78715   7.764  20.557  10.581
 6456W        W78716   0.654  25.231   1.736
 6457W        W78717  12.612  18.638  13.374
 6458W        W78718  44.259   6.178   4.756
 6459W        W78719  14.902  12.841   5.025
 6460W        W78720  23.212   2.436   1.055
 6461W        W78721   5.688  11.626   4.391
 6462W        W78722  15.190  27.593   0.916
 6463W        W78723  44.701  40.706  11.265
 6464W        W78724  38.045  33.961   0.371
 6465W        W78725  31.579  31.539  14.007
 6466W        W78726   3.842   0.771   1.986
 6467W        W78727  28.438  25.768   3.692
 6468W        W78728  33.297  25.987  12.733
 6469W        W78729   1.512  44.936   0.901
 6470W        W78730  42.770  41.335   4.152
 6471W        W78731  43.762  14.178  12.139
 6472W        W78732   3.353   4.915  10.888
 6473W        W78733  41.028  33.918   2.406
 6474W        W78734   2.008   2.711  12.140
 6475W        W78735  30.382  22.207   1.298
 6476W        W78736  41.427  42.908  10.402
 6477W        W78737   8.280  18.220  10.608
 6478W        W78738  12.123  14.181  10.641
 6479W        W78739  14.887  38.856   2.383
 6480W        W78740  23.147  28.547   4.669
 6481W        W78741  27.602  39.110   9.794
 6482W        W78742  15.117  43.465   0.521
 6483W        W78743  21.012   8.776   4.169
 6484W        W78744  19.831   4.921   3.371
 6485W        W78745   5.395  22.227  11.627
 6486W        W78746  30.442  28.412   4.545
 6487W        W78747  38.502  38.939  12.621
 6488W        W78748   2.984  10.394  12.808
 6489W        W78749  32.432  15.627   1.766
 6490W        W78750   0.296  33.680   4.805
 6491W        W78751  15.350  15.137  13.492
 6492W        W78752  34.672  35.187  14.845
 6493W        W78753  20.252  13.134  11.139
 6494W        W78754   8.222  26.134  11.748
 6495W        W78755  38.134  27.221   3.819
 6496W        W78756   5.791  38.556   4.168
 6497W        W78757  14.556  13.332  12.485
 6498W        W78758  21.152  43.331   4.613
 6499W        W78759   2.384  34.659   4.719
 6500W        W78760  31.432  41.575  10.460
 6501W        W78761  28.914  28.123  12.511
 6502W        W78762  19.969   5.824   2.646
 6503W        W78763  32.668  41.743  12.453
 6504W        W78764  18.716  26.902   0.695
 6505W        W78765  35.610  22.922  10.712
 6506W        W78766   1.287  34.480   4.615
 6507W        W78767   9.804  14.079  12.358
 6508W        W78768  25.295  42.773  10.986
 6509W        W78769  33.712   5.900  14.874
 6510W        W78770  15.269   1.787  14.322
 6511W        W78771  22.060   0.644   3.713
 6512W        W78772  13.435  11.611  12.138
 6513W        W78773  32.562   3.087  12.995
 6514W        W78774  10.166  38.584  12.314
 6515W        W78775  21.568   5.227   1.758
 6516W        W78776  35.156   1.725  11.373
 6517W        W78777  12.598  19.702  14.447
 6518W        W78778   2.181  13.238   1.995
 6519W        W78779  40.552   1.783  14.502
 6520W        W78780  35.860  40.485   4.083
 6521W        W78781  35.027  38.427  13.336
 6522W        W78782  32.939  14.587   2.597
 6523W        W78783   2.307   0.993   4.526
 6524W        W78784  42.026  44.782  12.211
 6525W        W78785  12.286  26.139   0.957
 6526W        W78786   9.760  41.942   3.528
 6527W        W78787  21.521  41.563  10.606
 6528W        W78788  16.227   2.488  10.804
 6529W        W78789  17.783   1.014   1.383
 6530W        W78790  42.528  34.779   1.659
 6531W        W78791   1.125  14.111   1.410
 6532W        W78792  36.062  44.226  12.276
 6533W        W78793  25.941  41.558   0.239
 6534W        W78794  36.082  29.887   4.543
 6535W        W78795  40.896  33.171  13.326
 6536W        W78796   0.553  26.644  10.949
 6537W        W78797   1.216  15.296  10.670
 6538W        W78798   2.975  21.120   4.858
 6539W        W78799  17.018  16.334   3.725
 6540W        W78800  12.226   0.675  12.356
 6541W        W78801  41.760  15.722   1.257
 6542W        W78802  33.874  36.481  10.614
 6543W        W78803  23.222  29.174  14.857
 6544W        W78804  30.976  35.830  11.400
 6545W        W78805  21.505  26.639  12.036
 6546W        W78806  18.332  19.459   4.862
 6547W        W78807   3.693  20.713   2.240
 6548W        W78808   8.840  40.140   2.808
 6549W        W78809  30.905  39.615   2.345
 6550W        W78810   6.201  19.554  13.454
 6551W        W78811  33.355  31.622  10.480
 6552W        W78812   5.837  25.139  13.824
 6553W        W78813  29.176  32.565   0.345
 6554W        W78814  19.055  42.592   1.221
 6555W        W78815  25.557  38.934   2.351
 6556W        W78816   7.542   2.702   5.013
 6557W        W78817  21.498  12.035   0.251
 6558W        W78818  12.273  38.126   4.132
 6559W        W78819   6.681  39.290   1.869
 6560W        W78820   9.410  20.733  12.187
 6561W        W78821  24.934  32.689  11.477
 6562W        W78822  15.582   4.262   1.846
 6563W        W78823  21.618   7.119   0.161
 6564W        W78824  14.023   4.244   0.630
 6565W        W78825  12.279  24.431  11.036
 6566W        W78826  19.943   4.030  11.430
 6567W        W78827  41.980  14.031  14.823
 6568W        W78828  24.884  37.396  14.903
 6569W        W78829  21.464  30.015   4.815
 6570W        W78830  23.037  19.185   4.805
 6571W        W78831   5.023  24.079  12.575
 6572W        W78832  29.383  23.004  10.976
 6573W        W78833  28.752  16.023   0.385
 6574W        W78834  17.593  29.355   1.870
 6575W        W78835  29.427  40.831   1.242
 6576W        W78836   1.341  41.726  14.472
 6577W        W78837  21.491   9.796   3.638
 6578W        W78838  27.270   7.525  13.902
 6579W        W78839  18.132  12.227   2.898
 6580W        W78840  13.719  27.528   4.266
 6581W        W78841  37.910  18.188   3.728
 6582W        W78842  41.935  26.674   0.540
 6583W        W78843  40.513  39.356   3.328
 6584W        W78844  31.448   2.422   4.204
 6585W        W78845  17.684  25.559  14.205
 6586W        W78846   2.221  23.631   1.953
 6587W        W78847  33.154  11.316  13.402
 6588W        W78848  27.202  35.055  10.838
 6589W        W78849  18.575  30.927  11.915
 6590W        W78850   5.701   8.684  10.703
 6591W        W78851  42.200  39.486  11.164
 6592W        W78852  32.690  23.085   2.891
 6593W        W78853  33.138  37.046   3.135
 6594W        W78854   3.022  42.353  13.707
 6595W        W78855  17.570  44.161  10.984
 6596W        W78856  39.288  44.382   3.776
 6597W        W78857  33.591  29.401   3.705
 6598W        W78858  28.905  39.513  13.608
 6599W        W78859  30.685   2.856  10.339
 6600W        W78860   3.295  11.651  11.219
 6601W        W78861   6.464   8.353  12.145
 6602W        W78862  15.056  33.490   3.073
 6603W        W78863  24.392  36.876  13.327
 6604W        W78864  19.025  12.378  10.678
 6605W        W78865   0.238  38.138  11.779
 6606W        W78866   0.810  30.602   3.677
 6607W        W78867  35.936  16.209  14.347
 6608W        W78868   4.776   8.229   2.948
 6609W        W78869  27.011  39.690  10.388
 6610W        W78870   7.402  22.325   4.316
 6611W        W78871   8.256  34.973  14.218
 6612W        W78872   4.746  36.609   0.392
 6613W        W78873  37.415   7.366  11.531
 6614W        W78874  22.285  17.753   0.272
 6615W        W78875  36.433  10.729  13.922
 6616W        W78876   8.202  30.845  11.585
 6617W        W78877   7.822  13.232   2.800
 6618W        W78878  22.651   7.908  13.538
 6619W        W78879  43.918  43.064   1.800
 6620W        W78880  39.356   0.088  14.125
 6621W        W78881  27.562  29.668  10.653
 6622W        W78882  16.745  12.890   3.274
 6623W        W78883  26.858  42.519  10.408
 6624W        W78884  41.062  20.452   4.625
 6625W        W78885  37.432   8.693  10.434
 6626W        W78886  28.722  29.993  14.965
 6627W        W78887   7.968  20.112   0.359
 6628W        W78888  30.462  17.588   2.972
 6629W        W78889   5.926  10.831  13.335
 6630W        W78890  33.829  11.882  13.827
 6631W        W78891   1.058  28.178   0.357
 6632W        W78892  18.958  14.890   4.697
 6633W        W78893   1.450  36.468   3.261
 6634W        W78894  24.941   1.479   0.464
 6635W        W78895   8.423  23.767   4.547
 6636W        W78896  42.727  42.415  13.031
 6637W        W78897  38.679  29.408   4.616
 6638W        W78898  30.755  42.881   4.087
 6639W        W78899  21.522  41.707   0.949
 6640W        W78900  30.460  27.566  11.199
 6641W        W78901  21.070   3.037   2.363
 6642W        W78902  12.695  15.866   0.321
 6643W        W78903  44.708  36.994   2.175
 6644W        W78904  39.076  23.777   3.665
 6645W        W78905  10.200  31.433  12.995
 6646W        W78906  36.395  18.335   5.474
 6647W        W78907  29.446  16.202  12.802
 6648W        W78908  11.168  37.855  12.419
 6649W        W78909  41.764  35.338   2.368
 6650W        W78910  26.255  21.021  14.674
 6651W        W78911   9.826   3.532  13.512
 6652W        W78912  23.938  40.452   2.271
 6653W        W78913  27.540  17.861  13.766
 6654W        W78914  29.524  33.463  14.101
 6655W        W78915  30.502  19.746  12.897
 6656W        W78916   6.338   0.483   4.297
 6657W        W78917   7.588  29.421   1.994
 6658W        W78918  23.096  40.114   2.358
 6659W        W78919  13.260  10.663   3.170
 6660W        W78920  21.800  40.923  13.862
 6661W        W78921   2.467   3.425   3.610
 6662W        W78922  33.999  30.026  14.850
 6663W        W78923  37.282   2.938   1.154
 6664W        W78924  42.442  28.942   3.871
 6665W        W78925  24.222   3.934   0.406
 6666W        W78926  15.082  24.685   4.021
 6667W        W78927   6.711  22.928   2.835
 6668W        W78928  36.905  16.632   1.293
 6669W        W78929  39.299   0.758  11.472
 6670W        W78930   1.842  18.503  11.612
 6671W        W78931   7.386  44.002   0.110
 6672W        W78932   7.329  33.781  11.598
 6673W        W78933   9.239  10.176  13.497
 6674W        W78934  20.581  35.294   0.091
 6675W        W78935  31.203  14.293   2.449
 6676W        W78936  14.011  26.407  12.070
 6677W        W78937   4.948  27.773   9.876
 6678W        W78938  26.252  22.183   4.289
 6679W        W78939   9.701  24.519  13.516
 6680W        W78940  30.188  35.816   0.248
 6681W        W78941   1.768  32.557  12.081
 6682W        W78942   0.811  31.969  10.955
 6683W        W78943   2.198  26.689   0.338
 6684W        W78944  23.658   5.578  12.587
 6685W        W78945  10.697   2.915   1.232
 6686W        W78946  22.599  18.801   2.323
 6687W        W78947  38.793   2.896  13.650
 6688W        W78948   8.066   0.330  14.857
 6689W        W78949   3.741  19.484   2.736
 6690W        W78950  14.561  38.274   3.288
 6691W        W78951   0.693  31.089  10.906
 6692W        W78952  13.437  16.394  12.546
 6693W        W78953  27.156  36.341  10.734
 6694W        W78954   3.300  26.725  13.946
 6695W        W78955  27.287  18.928  10.821
 6696W        W78956  32.494   1.921   0.235
 6697W        W78957  37.190  35.821  12.366
 6698W        W78958  14.277  14.534   2.877
 6699W        W78959  19.050  38.777   5.073
 6700W        W78960  43.725  13.011  12.048
 6701W        W78961  16.896   6.375   2.264
 6702W        W78962  39.595  38.493  12.362
 6703W        W78963  27.121  42.995  12.549
 6704W        W78964  10.837  20.697  13.832
 6705W        W78965  23.573  39.554  10.644
 6706W        W78966  41.794   1.258  13.007
 6707W        W78967   7.020  14.524   3.753
 6708W        W78968   0.449  10.429   2.346
 6709W        W78969  43.360  42.024  14.105
 6710W        W78970  16.356  39.832  10.707
 6711W        W78971   0.253  34.105  13.309
 6712W        W78972   2.039  40.632   1.151
 6713W        W78973  27.560  41.387  11.605
 6714W        W78974   9.594  30.369   1.713
 6715W        W78975  25.449  19.000  11.894
 6716W        W78976  40.064   5.897   4.585
 6717W        W78977  17.694  19.956   3.279
 6718W        W78978  10.735  41.864   3.296
 6719W        W78979  20.086   6.647   2.258
 6720W        W78980  40.482  27.003  14.803
 6721W        W78981  44.297  38.300  14.783
 6722W        W78982  41.131  26.661   1.134
 6723W        W78983   8.373  26.000  13.668
 6724W        W78984  26.014  29.617  10.734
 6725W        W78985   2.069  21.622   0.783
 6726W        W78986  25.003   4.483   3.611
 6727W        W78987  13.718  37.564   4.041
 6728W        W78988  36.503  21.061   1.711
 6729W        W78989  20.852  25.274   4.987
 6730W        W78990  12.367  41.019   2.636
 6731W        W78991   0.684  26.197  14.942
 6732W        W78992   8.523  27.171  13.028
 6733W        W78993  24.577  28.914  13.169
 6734W        W78994   2.368   3.709  11.508
 6735W        W78995  28.652   2.833   3.378
 6736W        W78996   0.400  23.546   1.875
 6737W        W78997  34.457  31.644   1.382
 6738W        W78998  43.976  24.660   1.967
 6739W        W78999  30.535  30.152   1.712
 6740W        W79000  12.835   3.368   4.336
 6741W        W79001  43.844  42.106  11.948
 6742W        W79002  33.418  27.544  12.099
 6743W        W79003  30.658  28.717  14.553
 6744W        W79004  22.512  32.361   2.833
 6745W        W79005  22.169  28.977   1.412
 6746W        W79006  12.645  20.954   0.568
 6747W        W79007  41.172  32.436   1.391
 6748W        W79008  43.398  21.343  14.766
 6749W        W79009  38.408   9.663   0.171
 6750W        W79010   9.304  39.321   4.993
 6751W        W79011  40.555  24.558   0.426
 6752W        W79012  14.548  39.364   0.772
 6753W        W79013  32.572  34.666   0.780
 6754W        W79014  10.805   2.892   3.754
 6755W        W79015  21.223  15.578  13.043
 6756W        W79016   2.178  15.130  10.822
 6757W        W79017   7.534  32.883   2.748
 6758W        W79018  24.482   6.255   2.660
 6759W        W79019  34.758  13.156   4.156
 6760W        W79020  16.261  20.189  13.421
 6761W        W79021  27.961  11.779  11.908
 6762W        W79022   8.840  41.427  10.634
 6763W        W79023  34.264   6.921   2.779
 6764W        W79024  20.009   9.070  13.896
 6765W        W79025  21.755  44.510  11.090
 6766W        W79026   1.832   0.012  11.633
 6767W        W79027  21.856  24.127  11.942
 6768W        W79028  16.567  10.795   4.105
 6769W        W79029   0.014  11.150   4.080
 6770W        W79030  29.571   2.881  11.136
 6771W        W79031  24.586   6.795   0.822
 6772W        W79032  29.521  11.337  12.095
 6773W        W79033   9.708  40.500  11.148
 6774W        W79034  25.886  38.534  12.660
 6775W        W79035  22.068   7.024  11.624
 6776W        W79036  26.220  43.001  13.062
 6777W        W79037  33.131  43.004   2.321
 6778W        W79038   3.818  20.819   4.069
 6779W        W79039  43.270  24.080   2.296
 6780W        W79040   1.826  18.259  14.364
 6781W        W79041   6.353  38.414  14.843
 6782W        W79042  37.008  39.629   0.859
 6783W        W79043  28.675  12.502   2.400
 6784W        W79044   4.902  35.842   4.608
 6785W        W79045  19.806   2.733  12.781
 6786W        W79046   6.462  32.960  13.546
 6787W        W79047  40.295  18.043  14.293
 6788W        W79048  10.278  17.372   1.641
 6789W        W79049  30.820  31.595   9.602
 6790W        W79050  37.110  15.182  14.064
 6791W        W79051  35.961  30.452  14.476
 6792W        W79052  24.656  40.940  10.208
 6793W        W79053   1.268  41.030   3.539
 6794W        W79054   6.324  29.392   2.270
 6795W        W79055  15.047  30.901   4.376
 6796W        W79056  12.637  43.518   0.847
 6797W        W79057  40.263  34.078  10.706
 6798W        W79058  41.928  26.203  14.990
 6799W        W79059  24.100  29.938   3.010
 6800W        W79060  42.246  20.652   0.608
 6801W        W79061  15.927  22.140  12.367
 6802W        W79062  40.783  27.072  10.659
 6803W        W79063  14.200  10.886   3.234
 6804W        W79064  19.484  40.746  13.457
 6805W        W79065  36.343   7.372  14.399
 6806W        W79066   1.770  16.502   1.401
 6807W        W79067  35.140  36.963   4.259
 6808W        W79068   2.943  41.541   1.833
 6809W        W79069   3.414  32.010  13.897
 6810W        W79070  32.043   2.423   5.136
 6811W        W79071   5.709  10.094   1.476
 6812W        W79072  42.060   0.380  11.709
 6813W        W79073   5.238  28.012  11.524
 6814W        W79074   8.599  37.794  11.988
 6815W        W79075  20.220  23.059   2.426
 6816W        W79076  14.213  22.283   3.006
 6817W        W79077   7.678  28.505   1.133
 6818W        W79078   9.556  17.685   1.499
 6819W        W79079   9.490  24.937  13.824
 6820W        W79080   9.846  44.739  12.945
 6821W        W79081  34.314  12.813   2.333
 6822W        W79082  28.828  15.682   3.303
 6823W        W79083  30.983  13.811  12.110
 6824W        W79084  12.717  27.871   3.455
 6825W        W79085   7.807   4.505  11.510
 6826W        W79086  26.137  34.313   1.325
 6827W        W79087  26.979  31.469   4.443
 6828W        W79088   8.589  31.048   0.424
 6829W        W79089  37.749   9.213  13.502
 6830W        W79090  10.521  27.732  10.187
 6831W        W79091  33.947  23.830   3.219
 6832W        W79092   4.060  17.275   1.253
 6833W        W79093  36.070  33.363   2.410
 6834W        W79094   4.790   9.656  13.287
 6835W        W79095   7.407  29.439   1.217
 6836W        W79096  13.083  24.517   3.343
 6837W        W79097  29.958  38.531   2.830
 6838W        W79098  43.565  36.662  13.961
 6839W        W79099  22.413  12.584   3.183
 6840W        W79100   0.980   7.882   4.720
 6841W        W79101  15.639  37.888  13.144
 6842W        W79102  36.258  43.541  12.180
 6843W        W79103  14.210  39.409  13.031
 6844W        W79104  42.775  28.648  10.979
 6845W        W79105  21.659  10.433  14.251
 6846W        W79106  16.785  36.235  13.517
 6847W        W79107  16.213  35.467  11.613
 6848W        W79108  19.762  36.867  14.818
 6849W        W79109   6.484  29.740   0.278
 6850W        W79110   2.215  22.980  10.574
 6851W        W79111  31.415   7.720   4.668
 6852W        W79112  44.029  44.527   2.713
 6853W        W79113  29.067   5.791  14.601
 6854W        W79114  10.729  12.841   3.291
 6855W        W79115  44.395  38.023  10.637
 6856W        W79116  10.583  24.319   2.319
 6857W        W79117  38.377  34.926   2.839
 6858W        W79118  39.948  38.320   0.963
 6859W        W79119   5.891  32.623  14.407
 6860W        W79120  39.447  16.931   0.329
 6861W        W79121  44.905  18.135   4.606
 6862W        W79122   2.750  20.944  14.410
 6863W        W79123  33.986  41.352   2.989
 6864W        W79124  20.839  16.051  11.647
 6865W        W79125  23.220  16.098   0.251
 6866W        W79126  40.858  16.738   4.658
 6867W        W79127  36.930  33.844  11.683
 6868W        W79128  17.833   9.418  13.949
 6869W        W79129  13.347  27.492  12.626
 6870W        W79130  34.531   1.906  13.113
 6871W        W79131  26.075  34.325   3.909
 6872W        W79132  18.776  14.206   1.389
 6873W        W79133   4.247  12.255  14.131
 6874W        W79134  26.740  17.734   0.299
 6875W        W79135   8.969  40.375   0.425
 6876W        W79136  26.126  16.583  11.398
 6877W        W79137  43.360  27.117   1.316
 6878W        W79138  13.106  39.432  12.815
 6879W        W79139  27.578  32.435  13.295
 6880W        W79140  25.621  18.481   0.290
 6881W        W79141  15.121  21.809  12.396
 6882W        W79142  41.823  38.942   4.225
 6883W        W79143  29.879  40.607   1.312
 6884W        W79144  34.000  38.563  13.637
 6885W        W79145  33.552  26.614   1.754
 6886W        W79146  30.409  12.153   0.966
 6887W        W79147  35.861   0.690  14.080
 6888W        W79148   7.962  38.091   2.732
 6889W        W79149   4.507  10.391  10.955
 6890W        W79150  28.446  10.106   2.453
 6891W        W79151   5.329  10.418  14.732
 6892W        W79152  11.287   8.218  10.694
 6893W        W79153  37.851  18.484   1.817
 6894W        W79154  20.794  17.130   2.983
 6895W        W79155  14.659  33.402  14.453
 6896W        W79156  10.448   5.262  11.134
 6897W        W79157  13.596  11.675   3.731
 6898W        W79158  23.750  14.310   1.714
 6899W        W79159  18.099  22.717   0.531
 6900W        W79160  16.103  13.617   2.255
 6901W        W79161   2.081  23.831  13.326
 6902W        W79162  13.797  34.492   4.629
 6903W        W79163  38.071   5.342   0.711
 6904W        W79164   1.955  36.554   3.290
 6905W        W79165  10.310  35.835   3.259
 6906W        W79166   8.581  13.050  11.117
 6907W        W79167  22.794  20.466   0.294
 6908W        W79168  26.845  43.831  11.492
 6909W        W79169  14.212  24.139   4.097
 6910W        W79170   0.826   9.342   2.822
 6911W        W79171  17.495  28.943  13.782
 6912W        W79172  16.701  13.122   3.775
 6913W        W79173  26.986  27.502  11.973
 6914W        W79174  36.067  31.306   4.374
 6915W        W79175  32.851  10.183  11.492
 6916W        W79176  26.994  20.245   4.511
 6917W        W79177  27.920  19.361   2.352
 6918W        W79178  29.912   6.707   0.894
 6919W        W79179  13.183  21.509   1.289
 6920W        W79180  28.081  19.032  10.098
 6921W        W79181  39.652   9.615   4.139
 6922W        W79182   6.636  42.003   3.976
 6923W        W79183  37.064   9.283  14.656
 6924W        W79184   8.612   3.778   3.083
 6925W        W79185  29.187  30.154  14.792
 6926W        W79186   6.667   0.498  11.446
 6927W        W79187  24.734   9.245  13.463
 6928W        W79188   3.338  35.131   1.393
 6929W        W79189   9.783  35.524   4.672
 6930W        W79190   7.825  31.920  10.278
 6931W        W79191  10.944  27.039   3.780
 6932W        W79192   5.039  19.381   5.099
 6933W        W79193  39.187  36.898  13.823
 6934W        W79194  29.127  15.613  13.959
 6935W        W79195  32.885  32.964   1.423
 6936W        W79196  19.518  12.241   3.209
 6937W        W79197  38.072  15.217  10.782
 6938W        W79198  30.168  33.824  14.596
 6939W        W79199  25.753  20.528  11.132
 6940W        W79200   4.554  20.305  11.543
 6941W        W79201  26.171  43.832  12.642
 6942W        W79202  42.268  13.093   1.300
 6943W        W79203  23.547  40.811   3.258
 6944W        W79204   1.869  10.925   2.226
 6945W        W79205  15.757  18.279  12.560
 6946W        W79206  24.134  27.986   9.932
 6947W        W79207  24.153   9.865  13.827
 6948W        W79208   5.723   8.079   4.276
 6949W        W79209  24.181   9.862  14.342
 6950W        W79210  37.133  17.176  14.551
 6951W        W79211  20.191  15.571   3.847
 6952W        W79212  42.985  13.342  10.667
 6953W        W79213  12.741  15.163   4.640
 6954W        W79214  42.489  44.229   0.312
 6955W        W79215  20.766  37.011   4.656
 6956W        W79216  41.587  29.640  11.599
 6957W        W79217  28.882   5.830  12.907
 6958W        W79218  21.755  28.671   5.499
 6959W        W79219  29.470  28.088   1.832
 6960W        W79220  26.473  14.304   2.704
 6961W        W79221  30.499  38.853   4.645
 6962W        W79222  14.310   5.253  11.903
 6963W        W79223  24.114  30.542   0.719
 6964W        W79224   2.513   9.105  13.468
 6965W        W79225   3.283  19.189   4.510
 6966W        W79226  33.529  15.951   1.414
 6967W        W79227  22.574  41.022   4.094
 6968W        W79228   1.253   4.538  10.839
 6969W        W79229  22.116  11.629  11.030
 6970W        W79230   4.170  21.269   4.936
 6971W        W79231  28.600  31.449   3.602
 6972W        W79232  29.930  34.558  14.327
 6973W        W79233  33.057  20.960  12.396
 6974W        W79234   4.239  41.830   2.458
 6975W        W79235  39.697   5.902  14.926
 6976W        W79236   9.127  26.062  10.613
 6977W        W79237  30.034  34.648   1.703
 6978W        W79238  20.649   6.168  14.801
 6979W        W79239   2.407  15.515  11.575
 6980W        W79240  17.536  35.996  11.114
 6981W        W79241  26.753  33.537   2.674
 6982W        W79242   0.872   1.267   0.399
 6983W        W79243  13.939  25.816   0.769
 6984W        W79244  28.722  28.579   2.691
 6985W        W79245  29.477  15.253   1.513
 6986W        W79246  25.501  22.371  10.741
 6987W        W79247   3.387   5.804  11.576
 6988W        W79248  39.025  24.944  12.966
 6989W        W79249  39.720   1.870  13.081
 6990W        W79250  33.505  11.694  11.313
 6991W        W79251  22.579  36.542  13.283
 6992W        W79252  12.295  41.866  10.698
 6993W        W79253  16.746   1.795  10.379
 6994W        W79254  18.581  34.692   3.301
 6995W        W79255  14.542  43.756   3.183
 6996W        W79256   7.021  44.800   2.247
 6997W        W79257  39.088  21.872   0.546
 6998W        W79258  40.482  37.781   5.064
 6999W        W79259  29.513  15.364  14.470
 7000W        W79260  16.880  27.919   3.074
 7001W        W79261  12.084  44.804   3.684
 7002W        W79262  21.698  26.570  14.040
 7003W        W79263  41.827  41.283   5.039
 7004W        W79264  34.645  43.425   0.384
 7005W        W79265   7.409  25.011  11.826
 7006W        W79266  24.829   7.543  12.416
 7007W        W79267  33.528  37.250   4.985
 7008W        W79268  34.064  31.997   1.462
 7009W        W79269  23.047  11.671  14.023
 7010W        W79270   9.595  31.354  13.902
 7011W        W79271  13.073  28.639   3.570
 7012W        W79272  20.427   5.932  10.671
 7013W        W79273   4.858   4.386   1.191
 7014W        W79274  38.494   4.738  10.687
 7015W        W79275  18.387  28.767   1.836
 7016W        W79276  20.697  42.382  10.649
 7017W        W79277  35.622  12.896  12.990
 7018W        W79278  40.434   5.417   0.447
 7019W        W79279   3.694  44.735  10.553
 7020W        W79280   4.836   0.272  10.715
 7021W        W79281  12.862  18.591  13.838
 7022W        W79282  35.535  23.635   1.062
 7023W        W79283  30.005   4.194  12.167
 7024W        W79284  14.223  43.290  12.443
 7025W        W79285  20.279  20.154  12.945
 7026W        W79286  12.963  30.745  11.195
 7027W        W79287  12.752   5.904  11.328
 7028W        W79288  32.690   4.662   3.681
 7029W        W79289   6.711  32.015   4.106
 7030W        W79290  17.036  27.480  14.519
 7031W        W79291   7.419  33.599  10.712
 7032W        W79292  38.350   9.569   3.718
 7033W        W79293   1.315  39.493  12.878
 7034W        W79294  27.018  17.925  14.902
 7035W        W79295  21.888   5.594   4.108
 7036W        W79296  24.878  19.038  14.027
 7037W        W79297   9.874  44.023  10.709
 7038W        W79298   5.408  33.157  13.555
 7039W        W79299  41.717  26.178  13.981
 7040W        W79300  11.345   6.205   4.533
 7041W        W79301  39.388   9.064   0.954
 7042W        W79302  21.024  44.270  10.605
 7043W        W79303  38.784  26.615   4.643
 7044W        W79304  24.625   3.630   0.588
 7045W        W79305   7.915  42.327   4.447
 7046W        W79306  15.338  34.450  12.694
 7047W        W79307  44.795   0.524  11.927
 7048W        W79308  38.471   2.495  14.818
 7049W        W79309  29.528  15.870  10.682
 7050W        W79310  42.738  22.463  13.019
 7051W        W79311  12.775  16.346  11.110
 7052W        W79312  11.830  17.346  12.820
 7053W        W79313   8.681  39.530  14.512
 7054W        W79314  34.219  16.298   4.198
 7055W        W79315   0.818   0.267  12.962
 7056W        W79316  37.805  28.427   4.406
 7057W        W79317  34.257  32.443  12.516
 7058W        W79318  21.083  20.764  13.982
 7059W        W79319  36.001  28.381   1.774
 7060W        W79320  11.293  17.470   0.858
 7061W        W79321  25.060  30.919  13.498
 7062W        W79322  39.375  28.065  11.436
 7063W        W79323   1.304  35.479  11.941
 7064W        W79324  27.510  38.382   3.714
 7065W        W79325  10.422   4.419   1.189
 7066W        W79326  34.494   3.355  12.563
 7067W        W79327   6.900   1.865  14.456
 7068W        W79328  43.840  40.142  13.905
 7069W        W79329   4.873  41.107   0.256
 7070W        W79330  44.957  12.735  12.933
 7071W        W79331  31.487  35.983  11.563
 7072W        W79332  38.342  39.594   4.710
 7073W        W79333  13.612  34.896  13.937
 7074W        W79334  32.121  24.152   0.890
 7075W        W79335  31.484  15.800   0.694
 7076W        W79336  13.153  20.170  10.456
 7077W        W79337   0.255  30.556  12.919
 7078W        W79338  37.597  18.145  12.438
 7079W        W79339  15.488  13.470   0.492
 7080W        W79340  35.463  44.352  14.894
 7081W        W79341  37.314   5.958   0.292
 7082W        W79342  25.459  28.058  14.164
 7083W        W79343  34.719  15.800   4.553
 7084W        W79344  16.040   4.892   4.197
 7085W        W79345  34.302   4.168  12.037
 7086W        W79346  39.839  26.412  14.098
 7087W        W79347  13.893  11.184   4.620
 7088W        W79348  30.632   2.422  14.321
 7089W        W79349  10.492  40.106   5.075
 7090W        W79350  11.110  20.761  13.410
 7091W        W79351   4.354  10.738   4.171
 7092W        W79352   1.943  12.781   1.888
 7093W        W79353  16.024  27.389  14.695
 7094W        W79354  30.990  41.527  12.617
 7095W        W79355  23.787  26.457   4.178
 7096W        W79356  24.178   0.414   3.934
 7097W        W79357  32.002  44.395  13.509
 7098W        W79358  11.252  21.072   4.593
 7099W        W79359   0.015   0.350   3.638
 7100W        W79360  21.043  36.238  13.526
 7101W        W79361  32.256  14.455   5.024
 7102W        W79362  29.045   6.428  13.968
 7103W        W79363   3.580  33.448   0.963
 7104W        W79364  21.007  40.889   4.665
 7105W        W79365   8.836  24.481   2.404
 7106W        W79366  34.016  36.445  11.117
 7107W        W79367  31.993  20.471   3.259
 7108W        W79368  12.761   4.016  11.004
 7109W        W79369  34.702  31.414   4.120
 7110W        W79370  41.932   3.146  12.822
 7111W        W79371  20.933  32.020  12.530
 7112W        W79372  25.726  32.892  10.597
 7113W        W79373  38.091  38.933   0.965
 7114W        W79374  41.505  27.454  14.534
 7115W        W79375   8.028  40.287   0.420
 7116W        W79376   7.005  37.614  13.500
 7117W        W79377  13.035  34.515   0.051
 7118W        W79378  18.924  44.848  14.857
 7119W        W79379  41.444  20.175  12.155
 7120W        W79380  40.616  25.470  14.586
 7121W        W79381  22.075  20.637  12.422
 7122W        W79382  29.574   8.091  12.775
 7123W        W79383  18.529  20.939   4.173
 7124W        W79384  32.158   1.286  12.041
 7125W        W79385  38.787  17.814   2.756
 7126W        W79386  19.122  19.670  14.818
 7127W        W79387  19.505   3.970   0.716
 7128W        W79388  21.518   0.381   1.771
 7129W        W79389   8.943  39.850  13.419
 7130W        W79390  36.727  35.396   1.417
 7131W        W79391   9.117  12.656  11.626
 7132W        W79392  38.423  24.519   2.845
 7133W        W79393   6.627   3.963   1.840
 7134W        W79394  27.488  31.412   4.626
 7135W        W79395  28.343  42.734   5.136
 7136W        W79396  35.863  18.717   2.381
 7137W        W79397  31.342  18.761  12.815
 7138W        W79398  23.736  41.867   2.438
 7139W        W79399  32.552  40.801   3.720
 7140W        W79400  42.795   6.851   4.215
 7141W        W79401  17.036  21.738  11.627
 7142W        W79402  30.106   9.970  14.428
 7143W        W79403   6.080  33.019   4.516
 7144W        W79404  11.235  20.307   1.808
 7145W        W79405  29.545  24.582   0.294
 7146W        W79406  38.660  11.785   4.193
 7147W        W79407  22.344  12.588   4.098
 7148W        W79408  32.939  42.611   4.655
 7149W        W79409  16.090  43.872  13.947
 7150W        W79410   6.733  27.987  11.707
 7151W        W79411  41.004  32.987  13.828
 7152W        W79412  41.337  37.017   0.928
 7153W        W79413  41.554  24.059  14.871
 7154W        W79414  29.330  34.534   0.905
 7155W        W79415  37.502  36.875   4.783
 7156W        W79416  25.968  41.854   4.964
 7157W        W79417  30.057  43.994  13.874
 7158W        W79418  20.264  29.219  11.107
 7159W        W79419  38.759  21.177   1.223
 7160W        W79420  27.010  29.082  13.141
 7161W        W79421   1.449  31.443   2.989
 7162W        W79422  30.341  41.953   1.198
 7163W        W79423   4.771   9.236   3.149
 7164W        W79424  43.488  28.098  12.350
 7165W        W79425  36.045  11.655  10.652
 7166W        W79426  12.086  21.337   2.727
 7167W        W79427  37.957  35.528   4.679
 7168W        W79428  16.085  31.156   4.083
 7169W        W79429  28.938  32.667  14.878
 7170W        W79430  29.915  12.071  12.041
 7171W        W79431  18.053   1.404  12.862
 7172W        W79432  26.881  24.000   1.302
 7173W        W79433  23.620  19.186   3.540
 7174W        W79434  20.491  34.138  11.171
 7175W        W79435  40.807  16.255   3.483
 7176W        W79436   6.900  33.043   1.274
 7177W        W79437  34.000   8.035   1.474
 7178W        W79438  23.113  14.155   4.120
 7179W        W79439   4.703  31.378  11.768
 7180W        W79440   3.451  40.757   1.129
 7181W        W79441  14.954  36.215   2.909
 7182W        W79442  22.441  39.962  12.396
 7183W        W79443   7.228   3.786  12.891
 7184W        W79444  25.699  37.777   0.989
 7185W        W79445  43.924  43.904  13.028
 7186W        W79446  27.622  21.784  13.572
 7187W        W79447  12.416  15.361   2.825
 7188W        W79448  27.758  31.090   9.837
 7189W        W79449  15.193   9.581   2.796
 7190W        W79450  28.607  11.285  14.436
 7191W        W79451  42.831  27.093  10.553
 7192W        W79452  26.965  24.143   4.127
 7193W        W79453  30.007  34.916   2.160
 7194W        W79454  35.316  27.651   1.951
 7195W        W79455   7.420  27.118  14.384
 7196W        W79456  24.165  39.686   1.001
 7197W        W79457   4.808  23.169   1.452
 7198W        W79458  22.613   9.406   0.810
 7199W        W79459  14.015  41.978   0.399
 7200W        W79460  28.510  37.791  14.526
 7201W        W79461  32.011  39.620  14.686
 7202W        W79462  41.217  42.453   3.546
 7203W        W79463  27.987   0.453   0.215
 7204W        W79464  39.948   3.863   2.689
 7205W        W79465  37.491  24.199   4.552
 7206W        W79466   5.948  42.219  14.360
 7207W        W79467  34.900   8.768  10.305
 7208W        W79468   2.613   4.338  11.181
 7209W        W79469  34.702  32.045  14.851
 7210W        W79470   8.385  28.520   2.199
 7211W        W79471  17.814   4.016  11.077
 7212W        W79472  23.149   2.101   1.987
 7213W        W79473  25.403  33.371   2.133
 7214W        W79474  17.717   5.600  12.802
 7215W        W79475  13.096   8.040   2.528
 7216W        W79476  19.091  21.004   0.325
 7217W        W79477  31.953  37.970   0.728
 7218W        W79478   0.159  11.227  14.847
 7219W        W79479  18.568  33.062  11.610
 7220W        W79480  28.762  25.845  12.936
 7221W        W79481  23.023   2.147   0.195
 7222W        W79482  29.592  37.257   4.764
 7223W        W79483   8.907  12.094  12.450
 7224W        W79484  14.694  17.767  13.992
 7225W        W79485  13.756   7.349  13.790
 7226W        W79486  14.681  25.635  10.674
 7227W        W79487  44.492  33.224  13.421
 7228W        W79488   6.738   3.672  11.206
 7229W        W79489  27.952  33.400   2.912
 7230W        W79490  12.336  34.361   3.132
 7231W        W79491  30.047  13.209   1.802
 7232W        W79492  22.730  26.619   2.968
 7233W        W79493  15.808   4.257   3.597
 7234W        W79494  11.310   5.937   3.413
 7235W        W79495   7.057   2.042  11.995
 7236W        W79496  20.742  23.235  12.182
 7237W        W79497  38.532  44.143  13.420
 7238W        W79498  10.259  36.356   3.322
 7239W        W79499   6.621  29.154  11.147
 7240W        W79500  28.647  25.026  11.087
 7241W        W79501  27.097  33.870  12.633
 7242W        W79502  14.746  40.415  14.452
 7243W        W79503  20.326  27.956   3.244
 7244W        W79504   3.887  29.698   4.869
 7245W        W79505   1.329  22.963   2.730
 7246W        W79506  15.311   2.704   0.908
 7247W        W79507   0.956   0.372  14.345
 7248W        W79508  12.984  20.975  12.430
 7249W        W79509   1.426   0.748  14.969
 7250W        W79510   7.449  41.779  12.522
 7251W        W79511  13.570  30.070  10.223
 7252W        W79512  33.042  28.231  10.586
 7253W        W79513  19.202  35.052   4.054
 7254W        W79514  30.145  11.919   4.047
 7255W        W79515  38.113   3.861  12.635
 7256W        W79516  22.583  33.787  13.374
 7257W        W79517  41.952  16.659   4.787
 7258W        W79518  23.661  21.160  11.995
 7259W        W79519  34.808  11.606  12.292
 7260W        W79520  17.863   7.363  12.412
 7261W        W79521  33.593   9.640   1.610
 7262W        W79522  22.972  26.610  14.502
 7263W        W79523  37.487   0.223  14.086
 7264W        W79524   9.352  43.473   4.752
 7265W        W79525  14.879  44.361  14.524
 7266W        W79526  26.420  43.379  12.515
 7267W        W79527  27.755  14.535   3.285
 7268W        W79528  42.854  20.675  11.043
 7269W        W79529   5.747   0.382  11.152
 7270W        W79530  23.148  23.925  13.595
 7271W        W79531  11.730  24.092   3.567
 7272W        W79532  15.636  35.215   1.754
 7273W        W79533   6.227  39.984  14.048
 7274W        W79534  27.471  15.309  11.937
 7275W        W79535  29.609   8.021   4.476
 7276W        W79536  42.966  23.552   0.481
 7277W        W79537   9.604  29.434  12.064
 7278W        W79538  31.383  31.267  11.859
 7279W        W79539  32.559  30.111  10.460
 7280W        W79540  10.192  41.838  11.170
 7281W        W79541  16.270   0.280  11.147
 7282W        W79542  14.807  31.661  14.839
 7283W        W79543  22.558  39.454   0.738
 7284W        W79544   8.757  31.775  13.533
 7285W        W79545  14.073  37.572   1.692
 7286W        W79546  17.177  20.150   3.172
 7287W        W79547  41.238  40.530   4.503
 7288W        W79548   9.435  38.876  10.908
 7289W        W79549  38.396  30.543   3.095
 7290W        W79550  24.471  38.998  12.987
 7291W        W79551  24.831  35.588   1.798
 7292W        W79552  39.967  22.135   0.086
 7293W        W79553  23.015  17.752  13.618
 7294W        W79554  43.822  10.388   2.362
 7295W        W79555  25.252  41.592   3.391
 7296W        W79556  24.599  21.309  13.937
 7297W        W79557  35.091  27.265  14.814
 7298W        W79558  34.963  35.597  12.420
 7299W        W79559   3.901  20.763  14.554
 7300W        W79560  11.345  35.135   0.727
 7301W        W79561   9.221  42.260  14.372
 7302W        W79562   3.900  31.934  11.603
 7303W        W79563   7.516  22.983  10.956
 7304W        W79564  44.501  16.633   0.089
 7305W        W79565  24.934  41.280   4.296
 7306W        W79566  22.066  16.635  14.081
 7307W        W79567  28.835  26.967  12.017
 7308W        W79568   9.939  40.262  12.922
 7309W        W79569  18.341  28.413  14.786
 7310W        W79570  17.266  18.144   1.926
 7311W        W79571  34.756  27.551   0.850
 7312W        W79572   9.372  37.286   1.482
 7313W        W79573  32.490  23.519  14.254
 7314W        W79574  20.550  36.598  14.361
 7315W        W79575  18.770   2.394   4.056
 7316W        W79576  29.560  35.787  14.415
 7317W        W79577   3.034  42.377   2.983
 7318W        W79578  33.902  24.677   1.341
 7319W        W79579   4.845  35.474   1.208
 7320W        W79580  24.688  16.372   4.413
 7321W        W79581  43.437  19.411   1.833
 7322W        W79582  15.145   3.916   1.426
 7323W        W79583  17.737  29.249  12.829
 7324W        W79584  36.585  40.324  13.429
 7325W        W79585  12.103   5.451   2.320
 7326W        W79586   2.470  33.477   0.084
 7327W        W79587  28.376   8.333  12.409
 7328W        W79588  12.658   8.862  13.979
 7329W        W79589  14.297  15.199   2.076
 7330W        W79590  31.633  23.999  13.769
 7331W        W79591  10.779  41.331   1.500
 7332W        W79592  17.363  16.808  14.489
 7333W        W79593  15.858  21.312  11.540
 7334W        W79594  13.630   9.121  11.170
 7335W        W79595  33.666  25.296   0.919
 7336W        W79596  42.569   2.956  13.451
 7337W        W79597  22.632   1.378  14.815
 7338W        W79598  36.545  28.636   4.394
 7339W        W79599   8.212  41.311  13.980
 7340W        W79600  42.486  17.833   0.526
 7341W        W79601  34.392  41.360  11.645
 7342W        W79602  28.928  33.989   0.205
 7343W        W79603  15.055  12.206  11.288
 7344W        W79604   2.764   8.848   3.275
 7345W        W79605  25.299  28.180   4.251
 7346W        W79606   9.250  23.090  10.630
 7347W        W79607  40.583  41.279   1.619
 7348W        W79608  23.023  19.237  13.535
 7349W        W79609   6.216  21.930   3.237
 7350W        W79610  40.973  29.806   3.964
 7351W        W79611  19.186   5.497  14.850
 7352W        W79612  37.593  16.346  12.068
 7353W        W79613  30.999  25.436  14.336
 7354W        W79614  31.482  12.433  12.394
 7355W        W79615   3.045  39.218  11.716
 7356W        W79616  16.651  20.100   2.912
 7357W        W79617  17.704   0.839  10.870
 7358W        W79618  43.246  41.862   0.390
 7359W        W79619  38.577  26.580  11.188
 7360W        W79620   4.933  40.818   0.707
 7361W        W79621  28.971  37.518   2.413
 7362W        W79622  24.203  10.328  13.545
 7363W        W79623   6.590  21.837  12.302
 7364W        W79624  21.983  29.182  12.894
 7365W        W79625   1.312  40.621  12.218
 7366W        W79626  23.255   5.350  14.283
 7367W        W79627  32.399  30.085  14.097
 7368W        W79628  25.520   9.018  14.356
 7369W        W79629  41.594  20.261   3.407
 7370W        W79630   0.156  23.073   0.345
 7371W        W79631   9.389  15.549   4.387
 7372W        W79632  37.703   7.778  13.617
 7373W        W79633   4.446   1.488  13.042
 7374W        W79634  35.579  32.727   1.003
 7375W        W79635  23.773   1.804   3.426
 7376W        W79636  36.318   5.210   1.393
 7377W        W79637  39.009  27.978  11.083
 7378W        W79638  38.618  19.091   2.386
 7379W        W79639  37.254  22.634  12.135
 7380W        W79640  28.972  38.888   3.909
 7381W        W79641  36.385  30.880   3.112
 7382W        W79642  42.423  40.036  12.519
 7383W        W79643  21.550   2.891   0.900
 7384W        W79644  34.067  40.777   0.892
 7385W        W79645  35.653  25.990   3.761
 7386W        W79646  31.324  27.493  14.324
 7387W        W79647  44.225  30.542  14.334
 7388W        W79648   6.922  16.669  12.085
 7389W        W79649  37.470  33.477  11.422
 7390W        W79650  27.021  35.716   4.183
 7391W        W79651  35.129   0.202  14.009
 7392W        W79652  27.069   6.207   4.081
 7393W        W79653  30.164  13.864  14.901
 7394W        W79654  32.859   0.668   1.018
 7395W        W79655  30.340  32.436   4.175
 7396W        W79656   9.505  15.753  10.400
 7397W        W79657   0.849  10.239   3.948
 7398W        W79658  15.067  36.478   1.266
 7399W        W79659  22.612  22.051  14.425
 7400W        W79660  10.305  34.924  11.899
 7401W        W79661  20.925   5.436  12.439
 7402W        W79662  25.924  13.835   0.554
 7403W        W79663  41.104  12.828  11.566
 7404W        W79664  18.006  33.575  11.831
 7405W        W79665  43.010  34.017   3.110
 7406W        W79666  11.342  24.272  12.471
 7407W        W79667   2.482  33.420  12.536
 7408W        W79668  22.935  18.784  10.647
 7409W        W79669  13.626  42.890   1.375
 7410W        W79670  19.438  38.409   3.905
 7411W        W79671  10.214  11.796   1.335
 7412W        W79672   9.249  22.148   2.833
 7413W        W79673   4.953  34.895   4.492
 7414W        W79674   4.338  21.068   3.173
 7415W        W79675  10.727   1.296  12.954
 7416W        W79676  29.110  28.138   4.376
 7417W        W79677  18.422  12.048   4.705
 7418W        W79678  28.328   8.307   3.127
 7419W        W79679  42.495  41.546  13.076
 7420W        W79680  38.608   2.361  12.644
 7421W        W79681  18.296  28.112  10.524
 7422W        W79682  17.311  23.939   0.340
 7423W        W79683  29.433   4.323   2.265
 7424W        W79684  26.597  31.342  10.992
 7425W        W79685   7.710  34.304  14.292
 7426W        W79686  14.257  44.218  10.992
 7427W        W79687  38.690  29.728   4.195
 7428W        W79688   3.405  38.532   2.852
 7429W        W79689  12.956  23.625   3.116
 7430W        W79690  17.742  40.279   0.888
 7431W        W79691  40.994  23.574   2.625
 7432W        W79692  26.155   1.375   2.863
 7433W        W79693  44.778  24.959   0.226
 7434W        W79694  18.547  17.555   3.136
 7435W        W79695  43.600  35.116   4.180
 7436W        W79696  12.151   2.875  11.445
 7437W        W79697  15.888   2.884   4.110
 7438W        W79698  14.463  41.758  13.838
 7439W        W79699  39.553   1.416   1.252
 7440W        W79700   5.188  16.801  14.451
 7441W        W79701  37.533  16.910   3.611
 7442W        W79702  43.242  31.602  12.043
 7443W        W79703   9.926  31.248   2.788
 7444W        W79704   4.772  10.181   3.255
 7445W        W79705   2.497  16.577   1.932
 7446W        W79706  14.069  11.125   2.779
 7447W        W79707   9.934  17.893   2.829
 7448W        W79708  30.934  14.666  14.265
 7449W        W79709  12.717   1.209  13.094
 7450W        W79710  33.569   7.199  13.880
 7451W        W79711  19.081  40.492  11.602
 7452W        W79712  31.473  28.032  10.693
 7453W        W79713  11.304  41.569   1.331
 7454W        W79714  14.723   3.315  14.783
 7455W        W79715  17.287  16.071  10.621
 7456W        W79716  36.831  18.231  11.342
 7457W        W79717  37.037  13.510  11.596
 7458W        W79718  12.187   6.118  12.451
 7459W        W79719  42.382  42.817   1.469
 7460W        W79720  17.407  10.375   3.886
 7461W        W79721   8.433   2.521  12.931
 7462W        W79722  24.124   4.671  12.005
 7463W        W79723  28.170   6.222  14.497
 7464W        W79724  27.362  12.091  13.501
 7465W        W79725  25.461  20.447  12.854
 7466W        W79726  43.553  37.028  11.303
 7467W        W79727  20.921   3.518  13.081
 7468W        W79728  23.644  37.846  10.970
 7469W        W79729  10.767   9.420  14.877
 7470W        W79730  21.975  19.681   0.015
 7471W        W79731  44.276  19.327  11.634
 7472W        W79732   0.149  16.562  14.415
 7473W        W79733  44.961  14.342  11.600
 7474W        W79734  17.059  40.497  11.520
 7475W        W79735  39.029  15.352  11.521
 7476W        W79736   6.323   5.425   2.320
 7477W        W79737   7.188   6.238  11.532
 7478W        W79738  39.737  27.086  12.503
 7479W        W79739  10.718   6.644  12.443
 7480W        W79740  10.256  38.120  14.380
 7481W        W79741  41.917  23.657  11.604
 7482W        W79742  32.351  11.619   4.719
 7483W        W79743  21.269   3.767   1.441
 7484W        W79744   3.294  10.905   1.236
 7485W        W79745  16.031  13.879   1.791
 7486W        W79746  28.603   9.281   3.611
 7487W        W79747  39.278   7.576   1.972
 7488W        W79748   2.035  15.361  11.916
 7489W        W79749  38.954   8.419  12.541
 7490W        W79750  39.514  24.900  11.906
 7491W        W79751  41.898  41.796  10.737
 7492W        W79752  13.159  29.289   1.928
 7493W        W79753  36.558  26.978  10.614
 7494W        W79754  35.819  42.984  14.392
 7495W        W79755  19.824  27.487  10.591
 7496W        W79756  25.758  29.984   4.501
 7497W        W79757  18.543  33.546  14.006
 7498W        W79758   9.424   5.119  11.184
 7499W        W79759   0.514  34.543  12.500
 7500W        W79760  38.626  11.676  14.795
 7501W        W79761   7.460   0.904   2.277
 7502W        W79762  32.592  32.596   0.581
 7503W        W79763  37.092   8.462   1.881
 7504W        W79764   4.356  14.163  12.580
 7505W        W79765  11.245  29.648   0.498
 7506W        W79766  26.544  22.312  12.359
 7507W        W79767  28.518  21.021  13.087
 7508W        W79768  34.147  20.699  11.083
 7509W        W79769  10.650  44.868  12.769
 7510W        W79770  29.066  38.410   1.797
 7511W        W79771  21.870  24.182  10.195
 7512W        W79772  37.409  38.853   2.335
 7513W        W79773  25.440  32.844   2.127
 7514W        W79774  38.251  24.506  13.422
 7515W        W79775   2.737  25.641   4.653
 7516W        W79776  30.888  32.417   0.818
 7517W        W79777  36.841  21.897   3.175
 7518W        W79778  11.889  32.650  12.562
 7519W        W79779   4.023  26.753  14.794
 7520W        W79780  41.802  39.432   0.342
 7521W        W79781   3.437  29.487   5.052
 7522W        W79782  42.617  27.622  14.423
 7523W        W79783   8.407  31.709   4.550
 7524W        W79784  18.289  29.747  14.811
 7525W        W79785  35.182  30.902   5.052
 7526W        W79786  43.871  25.430   2.701
 7527W        W79787  11.554  42.045  10.867
 7528W        W79788  19.955  18.351  11.530
 7529W        W79789   6.690   9.727   0.939
 7530W        W79790  30.651   8.903   3.795
 7531W        W79791  29.093  28.505   0.823
 7532W        W79792  20.929  35.953  10.664
 7533W        W79793  22.662  14.194  11.573
 7534W        W79794  30.877  23.701   1.372
 7535W        W79795   9.363   1.939   5.239
 7536W        W79796  15.872  17.979  11.954
 7537W        W79797  19.287   3.258   1.849
 7538W        W79798  12.228  44.229  14.891
 7539W        W79799  18.025  23.582  13.488
 7540W        W79800  34.809  37.454  10.678
 7541W        W79801  33.013  21.047  12.902
 7542W        W79802  25.161  36.897   3.268
 7543W        W79803   5.360  41.761  11.728
 7544W        W79804  23.428   4.460   1.872
 7545W        W79805  16.813  25.844   3.656
 7546W        W79806  43.248   8.112   4.688
 7547W        W79807  25.730   8.791   9.919
 7548W        W79808  32.695  10.772  12.759
 7549W        W79809   7.489  37.912  12.781
 7550W        W79810  30.628   1.250   4.337
 7551W        W79811   4.598   3.533  11.153
 7552W        W79812  34.057  19.198  13.786
 7553W        W79813  11.897  34.895   2.175
 7554W        W79814   8.805  26.206   3.199
 7555W        W79815  43.792  11.177   0.642
 7556W        W79816  13.187  23.300   2.652
 7557W        W79817  11.612  20.786   3.819
 7558W        W79818  13.220  15.537  11.383
 7559W        W79819  20.677   9.423  13.483
 7560W        W79820  23.092  12.160  12.850
 7561W        W79821  41.426  21.948  14.023
 7562W        W79822   6.968  38.872   3.120
 7563W        W79823  15.977  29.678   4.140
 7564W        W79824  34.390   0.070   0.838
 7565W        W79825  22.046  37.699  13.529
 7566W        W79826  26.906  41.380   4.183
 7567W        W79827  21.145  19.715  11.247
 7568W        W79828   0.825   3.761  13.391
 7569W        W79829  26.093   2.315   2.897
 7570W        W79830  33.986  35.370   2.368
 7571W        W79831  12.902   5.474  11.115
 7572W        W79832  44.371  23.842   0.989
 7573W        W79833   6.637   8.474  10.527
 7574W        W79834  16.658  24.962   1.790
 7575W        W79835  11.260  42.371   0.562
 7576W        W79836  32.435  23.783   3.830
 7577W        W79837  11.993  21.782  13.619
 7578W        W79838  15.053  34.451  11.447
 7579W        W79839  11.205  26.927  14.535
 7580W        W79840  43.591  25.071  12.168
 7581W        W79841  34.348  30.477   1.897
 7582W        W79842  35.338   6.248  10.773
 7583W        W79843  30.583   6.336   0.224
 7584W        W79844  29.021  37.477   2.913
 7585W        W79845  19.925  28.508   0.342
 7586W        W79846  12.791  28.507   2.303
 7587W        W79847  13.813  15.148   2.276
 7588W        W79848  23.506  44.705  13.523
 7589W        W79849  21.035  41.781   1.309
 7590W        W79850  25.641  28.076   2.450
 7591W        W79851   5.050  17.028   3.217
 7592W        W79852  17.111   3.452   0.222
 7593W        W79853  44.177  22.677  14.055
 7594W        W79854  17.297  18.753   3.789
 7595W        W79855   7.579  30.881  14.532
 7596W        W79856   6.290  20.544   3.146
 7597W        W79857   7.724   6.888  11.126
 7598W        W79858  26.082  44.196  10.643
 7599W        W79859   0.423  16.133  10.790
 7600W        W79860  11.750  10.780  13.090
 7601W        W79861  16.183  44.769   3.051
 7602W        W79862  12.786  28.966   2.048
 7603W        W79863  15.565  43.235  11.532
 7604W        W79864   8.757   3.520   2.649
 7605W        W79865  30.436  17.710   4.416
 7606W        W79866  36.991  38.017  13.835
 7607W        W79867  32.453   9.627  11.057
 7608W        W79868  31.443  28.820   3.233
 7609W        W79869  36.032  12.747   4.336
 7610W        W79870  24.964  34.931  13.584
 7611W        W79871  32.317  32.735   2.180
 7612W        W79872  43.219  40.965  12.952
 7613W        W79873   1.348  44.930  11.715
 7614W        W79874  39.955   5.480  14.785
 7615W        W79875  20.051  19.582   2.673
 7616W        W79876  13.603  42.356   3.691
 7617W        W79877  22.753  26.767   1.326
 7618W        W79878  37.161   4.875   0.737
 7619W        W79879  22.698  15.094  13.870
 7620W        W79880   2.906   9.441   2.200
 7621W        W79881  42.827   0.991   1.733
 7622W        W79882  32.456  30.984   3.085
 7623W        W79883   3.701   3.060  11.586
 7624W        W79884  19.644  18.281  12.573
 7625W        W79885  17.316  16.012  12.992
 7626W        W79886  35.599  22.185   0.169
 7627W        W79887   9.062  33.103   2.803
 7628W        W79888  16.693  22.013   3.154
 7629W        W79889  22.533  23.416  14.350
 7630W        W79890   5.784  39.086   3.184
 7631W        W79891  18.235  42.116   1.240
 7632W        W79892  44.536  19.967   4.289
 7633W        W79893   4.134  32.784   0.445
 7634W        W79894  29.488  41.581  14.054
 7635W        W79895  16.200  18.689  13.886
 7636W        W79896  23.479   2.927  12.401
 7637W        W79897  19.791  12.877  13.036
 7638W        W79898  38.670   5.996   2.243
 7639W        W79899   3.372  15.596  10.535
 7640W        W79900   9.309  22.239  13.390
 7641W        W79901  22.286  37.477   1.945
 7642W        W79902  14.773   3.057   2.851
 7643W        W79903   9.782  10.099   4.708
 7644W        W79904  29.555  42.154   2.840
 7645W        W79905  31.204  17.305   4.936
 7646W        W79906   7.270  14.067  14.227
 7647W        W79907  43.510  25.092  13.006
 7648W        W79908  31.978  32.977   0.734
 7649W        W79909   8.025  34.006   0.214
 7650W        W79910   0.715   4.094  13.816
 7651W        W79911   2.325  26.871  12.069
 7652W        W79912  38.861  25.942   0.768
 7653W        W79913  21.927   8.715   3.671
 7654W        W79914  17.293  31.024  12.588
 7655W        W79915  20.274  23.978   0.701
 7656W        W79916  16.262  11.238   0.288
 7657W        W79917  44.320   2.512   3.404
 7658W        W79918  37.895  13.015  12.567
 7659W        W79919   2.947   4.899  11.174
 7660W        W79920  38.715  17.710  14.888
 7661W        W79921  43.095  40.427   4.138
 7662W        W79922   8.693  40.527   4.676
 7663W        W79923  17.935  19.102  14.881
 7664W        W79924   4.462  42.195   3.951
 7665W        W79925  44.257  40.349   0.872
 7666W        W79926  38.543   5.461   2.264
 7667W        W79927  44.935  42.970   4.144
 7668W        W79928   9.159  39.937   3.642
 7669W        W79929  34.904  11.363   3.244
 7670W        W79930  11.134  12.537  14.868
 7671W        W79931  37.428   1.246   4.872
 7672W        W79932   6.934  36.084  14.462
 7673W        W79933  37.047  36.311  12.339
 7674W        W79934  25.892   6.542   2.462
 7675W        W79935  24.299   2.440  13.509
 7676W        W79936  44.063  17.780   1.487
 7677W        W79937  35.615  43.411   2.410
 7678W        W79938   6.305  33.901   3.228
 7679W        W79939  38.907   5.328   2.788
 7680W        W79940  13.123  36.083   2.876
 7681W        W79941  20.195   3.611  13.588
 7682W        W79942  26.949   5.661  13.936
 7683W        W79943  40.576  12.723  13.112
 7684W        W79944  13.778  36.009  11.554
 7685W        W79945  40.363  24.722   2.561
 7686W        W79946  33.008   7.939   4.496
 7687W        W79947  23.334  28.023  11.523
 7688W        W79948   7.269   6.789  11.378
 7689W        W79949  31.947  41.256   1.751
 7690W        W79950   0.367  42.355   4.482
 7691W        W79951  10.909  26.060   1.259
 7692W        W79952   4.602  26.295   5.078
 7693W        W79953  16.731  20.085  13.121
 7694W        W79954  33.655  16.214   0.208
 7695W        W79955  41.547  42.816   2.083
 7696W        W79956   3.870   0.770   0.790
 7697W        W79957  14.814  13.665   4.196
 7698W        W79958  44.445  15.875   1.250
 7699W        W79959  40.428  25.758  14.194
 7700W        W79960   5.665   1.854   0.855
 7701W        W79961  36.032  11.346  11.071
 7702W        W79962  26.231  43.454  14.443
 7703W        W79963  30.855   8.439   3.753
 7704W        W79964  19.773   9.243   1.370
 7705W        W79965  39.610  16.887  11.983
 7706W        W79966  11.849  10.050  11.653
 7707W        W79967   4.787  38.651  10.034
 7708W        W79968  28.153  28.126  12.088
 7709W        W79969   5.024   9.874   0.314
 7710W        W79970  22.651  36.060  12.524
 7711W        W79971  19.114  43.033   1.497
 7712W        W79972  41.413  29.732   3.679
 7713W        W79973   9.926  23.469  11.189
 7714W        W79974  22.498  29.128   2.794
 7715W        W79975   1.767  19.446  11.576
 7716W        W79976  13.121  30.906  14.468
 7717W        W79977  19.292  13.391  11.580
 7718W        W79978  39.739  42.319  12.760
 7719W        W79979  11.467  28.561   0.333
 7720W        W79980   2.587  38.752   0.707
 7721W        W79981   5.029  37.454  12.800
 7722W        W79982  44.833  11.703  12.488
 7723W        W79983  34.034  19.561   4.776
 7724W        W79984   3.823  22.439   1.386
 7725W        W79985  31.488   7.401   1.439
 7726W        W79986   1.646  22.989  11.604
 7727W        W79987  13.568  31.991  12.006
 7728W        W79988  25.496  10.973   1.188
 7729W        W79989  26.992  30.031  12.838
 7730W        W79990  17.175  22.374   0.772
 7731W        W79991  30.427  37.839   4.885
 7732W        W79992   0.451  41.834  12.134
 7733W        W79993  28.563  44.235  12.561
 7734W        W79994  31.636  34.130  12.035
 7735W        W79995  12.983  12.674  13.150
 7736W        W79996   9.020   2.313  14.634
 7737W        W79997  10.138  42.294  10.273
 7738W        W79998  27.636  25.945   0.480
 7739W        W79999   1.461   3.477  12.993
 7740W        W80000  13.327  26.376  14.287
 7741W        W80001  29.962  37.497   2.757
 7742W        W80002  16.109   9.143   1.335
 7743W        W80003  22.072  20.630   1.738
 7744W        W80004   7.338   0.426  12.060
 7745W        W80005   7.578  27.130   3.196
 7746W        W80006   9.250  42.289   4.034
 7747W        W80007  44.371  41.768   3.234
 7748W        W80008  23.534  18.594  14.748
 7749W        W80009   6.813  30.563   3.658
 7750W        W80010  12.642  19.991   4.255
 7751W        W80011  28.851  34.999  10.630
 7752W        W80012  27.943   7.856   0.984
 7753W        W80013   8.930  27.421   2.350
 7754W        W80014  19.757  12.684  10.543
 7755W        W80015  14.401  11.472   2.241
 7756W        W80016   3.244  17.144  10.634
 7757W        W80017  20.568  39.517  11.635
 7758W        W80018  22.557   1.706   2.252
 7759W        W80019  43.740  39.756   4.748
 7760W        W80020  11.142  26.048  10.638
 7761W        W80021  21.928  35.334  14.798
 7762W        W80022  24.633  41.559   0.357
 7763W        W80023  12.378   9.246  14.177
 7764W        W80024  26.214   3.807   1.221
 7765W        W80025   2.864   1.663   1.467
 7766W        W80026   9.614  41.712   1.778
 7767W        W80027  12.668   2.961   3.832
 7768W        W80028  15.083  25.730  12.456
 7769W        W80029  11.765  13.223  10.654
 7770W        W80030  28.514  41.069  14.538
 7771W        W80031   2.348   6.795   0.736
 7772W        W80032  11.562   5.345   4.047
 7773W        W80033  21.772  28.916  11.264
 7774W        W80034  35.256  19.789  11.129
 7775W        W80035  31.841  29.409   3.545
 7776W        W80036  42.837  20.679   0.689
 7777W        W80037  33.516  36.479  13.131
 7778W        W80038  22.808  13.261  14.933
 7779W        W80039   4.387  25.545  10.319
 7780W        W80040   8.119  30.646   3.611
 7781W        W80041  12.840   7.107  11.147
 7782W        W80042  31.466  41.084   2.781
 7783W        W80043  37.717   1.440   3.396
 7784W        W80044   2.889  12.825  12.101
 7785W        W80045  17.405  26.062  13.201
 7786W        W80046   6.480  11.364   2.360
 7787W        W80047  41.997  16.782   0.968
 7788W        W80048  21.994  36.595   1.879
 7789W        W80049  28.598  11.671  14.103
 7790W        W80050  40.362  37.950  14.434
 7791W        W80051  31.483  41.402  11.915
 7792W        W80052   7.380  37.893  14.406
 7793W        W80053  17.611  43.271   4.275
 7794W        W80054  42.202  14.254  12.974
 7795W        W80055  14.779  30.266   3.762
 7796W        W80056  29.202  27.025   1.923
 7797W        W80057  39.772  33.879   1.199
 7798W        W80058  43.460  31.368  13.493
 7799W        W80059  28.440   8.728   3.796
 7800W        W80060  23.147  44.864  11.013
 7801W        W80061  44.306   7.868  12.464
 7802W        W80062  18.779  36.608   4.544
 7803W        W80063  16.678  34.501   0.346
 7804W        W80064   0.741  24.490   3.259
 7805W        W80065  27.708  21.275   4.116
 7806W        W80066  36.290  16.063  11.553
 7807W        W80067  39.756  38.994   4.128
 7808W        W80068  31.778   0.552   2.292
 7809W        W80069   1.825  32.729  10.523
 7810W        W80070   4.788   7.381  13.890
 7811W        W80071  23.774   9.325   1.658
 7812W        W80072  12.234  34.345  11.117
 7813W        W80073  43.848  32.595  11.257
 7814W        W80074  30.973  40.493  14.892
 7815W        W80075   3.289  12.033  14.356
 7816W        W80076   2.332  12.786   1.184
 7817W        W80077   4.916  40.507  11.930
 7818W        W80078   4.919  29.046  13.574
 7819W        W80079  16.638  35.095   2.749
 7820W        W80080   9.427   0.880  11.655
 7821W        W80081   2.029   5.005   2.591
 7822W        W80082   8.245  32.227  12.389
 7823W        W80083  24.035  39.380  10.830
 7824W        W80084   3.785   1.828   3.833
 7825W        W80085  40.322  16.273  14.685
 7826W        W80086  21.029  31.910   4.122
 7827W        W80087   2.918  12.288   4.251
 7828W        W80088  26.013  10.291   1.276
 7829W        W80089  10.408   2.811  12.482
 7830W        W80090  13.019  17.624  14.063
 7831W        W80091  36.894  20.678  11.643
 7832W        W80092  30.872  27.158  11.963
 7833W        W80093  34.182  16.695   3.628
 7834W        W80094   1.805  34.491   1.880
 7835W        W80095   7.082   2.134  13.267
 7836W        W80096  43.858  33.415  10.617
 7837W        W80097  15.098   8.322   1.909
 7838W        W80098  28.904  25.291  11.946
 7839W        W80099  26.306  19.206  12.827
 7840W        W80100   7.466  40.104  13.516
 7841W        W80101  17.903  43.317   2.833
 7842W        W80102  19.272  33.302  13.386
 7843W        W80103  10.230  34.422   0.075
 7844W        W80104  27.126  15.734  10.278
 7845W        W80105  13.561  32.163   1.547
 7846W        W80106   7.707   7.514   2.636
 7847W        W80107  28.533  41.920  12.815
 7848W        W80108   3.237   8.226   4.410
 7849W        W80109  19.218  40.391   1.746
 7850W        W80110   0.669  26.880   1.262
 7851W        W80111  25.922  30.310   4.118
 7852W        W80112   6.861  37.042  13.022
 7853W        W80113  39.358   1.053  14.366
 7854W        W80114   0.175  26.123   3.713
 7855W        W80115   1.177  18.569  14.225
 7856W        W80116  20.038  15.569   0.884
 7857W        W80117   8.358  23.516   4.077
 7858W        W80118  34.619  44.442  13.921
 7859W        W80119  30.224   4.898   3.903
 7860W        W80120  44.520  14.638   5.370
 7861W        W80121   1.514  20.411   2.550
 7862W        W80122  41.805  36.194   1.384
 7863W        W80123   1.239  25.880  11.945
 7864W        W80124  39.786  35.443   4.107
 7865W        W80125  28.461   1.401   1.907
 7866W        W80126   0.255   4.741  10.765
 7867W        W80127  28.680   4.257   0.015
 7868W        W80128  32.519  19.816  13.998
 7869W        W80129   1.496  38.454   2.163
 7870W        W80130  17.282  43.152  13.990
 7871W        W80131  37.648  43.370  13.798
 7872W        W80132   3.757   9.390  14.998
 7873W        W80133  10.272  43.031  11.585
 7874W        W80134  35.948   5.443   0.100
 7875W        W80135   3.893  19.936   4.494
 7876W        W80136  33.951  25.199   1.343
 7877W        W80137  44.554   4.251  12.462
 7878W        W80138  43.900   8.321  11.127
 7879W        W80139  24.222  41.761  10.320
 7880W        W80140  23.055  12.753  11.603
 7881W        W80141  31.462  19.514  14.379
 7882W        W80142   5.595   9.022   3.389
 7883W        W80143  34.386  39.126   1.763
 7884W        W80144  35.312  19.619  12.605
 7885W        W80145  37.821  40.854  12.937
 7886W        W80146   3.761  37.534   1.871
 7887W        W80147  40.658  13.512  13.486
 7888W        W80148  30.913  34.207   0.410
 7889W        W80149  36.604   8.952   5.479
 7890W        W80150  14.279   4.988  13.575
 7891W        W80151  29.441   3.385   2.703
 7892W        W80152  26.152  38.047  11.924
 7893W        W80153   5.912  21.559   4.588
 7894W        W80154   2.910   0.285   2.740
 7895W        W80155  28.615  17.837   3.213
 7896W        W80156  11.991  17.165   5.073
 7897W        W80157  35.126  10.619   2.694
 7898W        W80158  24.980  39.056  12.885
 7899W        W80159   3.329   8.130   1.971
 7900W        W80160  26.746   9.870  13.463
 7901W        W80161  13.061  14.564  14.983
 7902W        W80162  32.568  36.666   3.658
 7903W        W80163   2.728  43.361  10.805
 7904W        W80164  26.548  41.859   3.309
 7905W        W80165  12.824   8.492   2.565
 7906W        W80166  38.391  33.132  13.802
 7907W        W80167  43.472   0.719  10.693
 7908W        W80168  23.090  29.313   4.108
 7909W        W80169  41.024  36.521   2.081
 7910W        W80170  38.308  43.366   4.044
 7911W        W80171  44.445  34.202   1.698
 7912W        W80172   3.291  34.616  11.433
 7913W        W80173   1.597  36.518   1.367
 7914W        W80174  28.394  43.934   1.279
 7915W        W80175   5.488  14.220   2.916
 7916W        W80176  35.640  24.184   0.318
 7917W        W80177   3.436  16.744  13.426
 7918W        W80178  42.327   6.699   0.052
 7919W        W80179  22.818   3.810  13.944
 7920W        W80180   1.825   1.532  13.082
 7921W        W80181  26.005  20.924  13.382
 7922W        W80182  44.640   0.647  13.507
 7923W        W80183   8.340  27.121  14.275
 7924W        W80184  34.522  40.949   4.202
 7925W        W80185   0.863  30.980   4.677
 7926W        W80186  17.792  16.338  12.415
 7927W        W80187  15.863  35.965   1.233
 7928W        W80188  19.713  16.142  10.620
 7929W        W80189  37.660  39.291  11.133
 7930W        W80190   6.203   6.413   3.842
 7931W        W80191  35.129  18.178  10.217
 7932W        W80192   0.253   1.034   4.377
 7933W        W80193   9.209   4.292   4.597
 7934W        W80194  24.687  39.937  11.292
 7935W        W80195  23.861  13.625  11.070
 7936W        W80196  41.522  14.728  10.666
 7937W        W80197  39.529  23.622   2.769
 7938W        W80198  41.027  25.153   1.795
 7939W        W80199  40.998  13.741  13.152
 7940W        W80200  42.422   5.730  10.593
 7941W        W80201  27.615  35.322  12.524
 7942W        W80202  40.477  38.544   1.155
 7943W        W80203  11.670  32.839   1.435
 7944W        W80204  33.841  31.577  13.320
 7945W        W80205  24.028   2.672   2.151
 7946W        W80206   1.299  18.289  10.778
 7947W        W80207  19.700  13.201  11.340
 7948W        W80208  16.743  28.414  11.597
 7949W        W80209  12.759   7.525  13.856
 7950W        W80210   3.841  20.257   3.198
 7951W        W80211  37.323  31.906  12.669
 7952W        W80212  20.033  43.793   2.710
 7953W        W80213  32.956  15.011  12.096
 7954W        W80214  24.999  34.826   2.889
 7955W        W80215  12.239  38.602   0.125
 7956W        W80216  31.939  29.918   0.996
 7957W        W80217  26.484  31.586  13.784
 7958W        W80218  41.982  11.382  11.397
 7959W        W80219   2.898  32.143  10.726
 7960W        W80220  21.450  42.328  14.853
 7961W        W80221  28.727  42.390  13.265
 7962W        W80222  22.440  32.298  11.078
 7963W        W80223  39.320   4.296   0.477
 7964W        W80224  41.067  21.270  12.706
 7965W        W80225  20.260  33.480  14.378
 7966W        W80226   4.836  34.988   2.074
 7967W        W80227  36.184   6.333   4.156
 7968W        W80228  18.659   6.379  13.476
 7969W        W80229  30.462  14.866  14.124
 7970W        W80230  27.663  41.448  13.228
 7971W        W80231  26.234  16.183  14.428
 7972W        W80232  25.087   9.746  12.006
 7973W        W80233   1.500   9.358  12.970
 7974W        W80234  15.044   2.570   4.077
 7975W        W80235  29.675   2.756   3.306
 7976W        W80236  20.605  40.566  11.141
 7977W        W80237   8.278  24.657  14.027
 7978W        W80238  25.655  21.714   1.405
 7979W        W80239  25.669  44.774  14.258
 7980W        W80240  37.290   5.623   1.743
 7981W        W80241  24.119   6.327  11.216
 7982W        W80242  37.461  39.995  12.125
 7983W        W80243   2.516  27.079  11.626
 7984W        W80244   8.776   8.257  11.589
 7985W        W80245  19.676  31.019  13.435
 7986W        W80246  26.568  42.205   0.198
 7987W        W80247   9.875  12.402   4.082
 7988W        W80248  39.632   9.383   3.217
 7989W        W80249  14.150  16.063  12.105
 7990W        W80250  32.158  20.007   4.580
 7991W        W80251  31.284  43.992  14.100
 7992W        W80252  17.020  25.518  13.977
 7993W        W80253  11.265  14.696  14.774
 7994W        W80254  26.367  36.317  12.489
 7995W        W80255  24.514  11.618   2.803
 7996W        W80256  35.795  19.733   3.765
 7997W        W80257   2.039  11.450  11.350
 7998W        W80258  11.108  18.578  14.414
 7999W        W80259  44.899   9.799   0.821
 8000W        W80260  33.945  26.177   4.946
 8001W        W80261   5.140  32.130  12.920
 8002W        W80262  14.767   0.693   4.077
 8003W        W80263  14.675  30.460   0.863
 8004W        W80264  29.401   3.414  13.500
 8005W        W80265  33.916   8.174  14.004
 8006W        W80266  11.192   2.715  11.389
 8007W        W80267  35.619  32.945   0.073
 8008W        W80268  16.843  29.251  12.881
 8009W        W80269  36.604   3.281   0.014
 8010W        W80270  11.594  32.325   4.887
 8011W        W80271  25.521  41.072  10.639
 8012W        W80272  39.497  38.582   0.934
 8013W        W80273  26.637  29.174  14.094
 8014W        W80274  44.440  29.228   3.234
 8015W        W80275  17.274  14.273   9.922
 8016W        W80276  31.576  23.512  12.806
 8017W        W80277  30.485  32.946   4.153
 8018W        W80278  30.640  22.772  12.798
 8019W        W80279   3.932  23.957  13.419
 8020W        W80280   7.452   0.991  13.815
 8021W        W80281   9.705  29.442   4.529
 8022W        W80282  35.972  35.943   3.434
 8023W        W80283   1.475   2.136  10.455
 8024W        W80284  22.524  15.300  11.046
 8025W        W80285  37.834   9.780  12.777
 8026W        W80286  44.870  24.283  14.340
 8027W        W80287  10.192   8.611   3.656
 8028W        W80288  15.207  34.063  11.743
 8029W        W80289  35.512  35.824  14.859
 8030W        W80290  22.755  25.385   2.716
 8031W        W80291  11.252  24.686   4.609
 8032W        W80292  10.791  39.051  11.936
 8033W        W80293   5.660  39.620  11.154
 8034W        W80294  36.056  10.914   1.370
 8035W        W80295  41.898  21.478  14.692
 8036W        W80296  36.031   7.683   4.293
 8037W        W80297  11.795  12.478   0.094
 8038W        W80298  34.877  40.371  12.913
 8039W        W80299  34.349   1.024  11.600
 8040W        W80300  17.312  19.288  12.940
 8041W        W80301  25.163  15.148   3.233
 8042W        W80302  21.168   8.306   4.326
 8043W        W80303  18.604  14.688  14.941
 8044W        W80304  18.508  33.873  12.856
 8045W        W80305  37.420   0.723   2.341
 8046W        W80306   3.369  31.489   3.248
 8047W        W80307  22.277  13.212  14.999
 8048W        W80308  15.237  10.291   1.625
 8049W        W80309  21.287  19.983   4.603
 8050W        W80310  28.429  24.599   3.842
 8051W        W80311  40.982  21.512  11.205
 8052W        W80312  25.432  40.042   4.328
 8053W        W80313  22.864  40.235   3.743
 8054W        W80314  24.224  23.980  10.405
 8055W        W80315  31.609   2.752   2.927
 8056W        W80316   3.117   4.449   2.353
 8057W        W80317  37.865  30.352   4.118
 8058W        W80318   6.776  27.210  11.360
 8059W        W80319   5.251  33.615   3.516
 8060W        W80320  27.604  44.992  14.888
 8061W        W80321   7.708  22.282   3.738
 8062W        W80322   4.669  12.610   2.369
 8063W        W80323  22.091   4.866  11.171
 8064W        W80324  21.518  36.810   4.134
 8065W        W80325  20.120  23.760  11.418
 8066W        W80326  43.829   3.236  12.520
 8067W        W80327  37.224  19.890  12.450
 8068W        W80328  21.755  27.855  14.880
 8069W        W80329  39.029  17.220   2.185
 8070W        W80330  32.701  15.033  12.975
 8071W        W80331   3.203  42.614  11.192
 8072W        W80332  35.537   3.611  14.247
 8073W        W80333  20.010  22.077  11.436
 8074W        W80334  21.111  42.885  11.942
 8075W        W80335  18.979  10.831   3.688
 8076W        W80336  29.659  22.054   4.109
 8077W        W80337   5.128  25.621   9.959
 8078W        W80338  39.464   2.450  10.751
 8079W        W80339   4.661  44.347   2.207
 8080W        W80340  37.142  16.184   3.363
 8081W        W80341  43.018  12.265   3.437
 8082W        W80342  27.961  25.494  13.452
 8083W        W80343  41.038  25.530  11.209
 8084W        W80344  20.048   4.937  13.012
 8085W        W80345  10.661  10.320  12.530
 8086W        W80346  10.757  32.099   9.753
 8087W        W80347   1.384  28.450   2.312
 8088W        W80348  38.397  27.478  13.408
 8089W        W80349  18.478  44.399   4.548
 8090W        W80350  33.018   9.699   3.173
 8091W        W80351  15.821  44.794   2.680
 8092W        W80352   0.819  15.826  14.229
 8093W        W80353  11.242  22.040   1.330
 8094W        W80354   8.689  39.455   4.148
 8095W        W80355  25.969  10.920  11.071
 8096W        W80356  44.945   1.787   1.263
 8097W        W80357   1.953   2.205   2.846
 8098W        W80358  22.239  24.164   0.020
 8099W        W80359  22.014  31.998   0.942
 8100W        W80360  10.808   0.425   2.313
 8101W        W80361  34.563  33.045  11.938
 8102W        W80362   0.785  44.509   1.816
 8103W        W80363  21.094  26.466  14.729
 8104W        W80364  31.024  35.572   2.335
 8105W        W80365  44.229  41.004  12.126
 8106W        W80366   4.381  18.198  13.008
 8107W        W80367  22.292  23.648  14.872
 8108W        W80368  37.132  12.132   4.212
 8109W        W80369  36.926  28.073  13.072
 8110W        W80370  24.467   9.213  11.703
 8111W        W80371   4.639  11.211   0.456
 8112W        W80372  18.855   1.971  10.465
 8113W        W80373   5.712  16.329   3.364
 8114W        W80374  18.730   6.827  13.818
 8115W        W80375  13.680  14.944  11.542
 8116W        W80376  28.430  24.838  12.873
 8117W        W80377  29.741  15.879  13.611
 8118W        W80378  42.774  17.745   3.326
 8119W        W80379  41.379   0.846  13.830
 8120W        W80380  26.046  16.515   4.581
 8121W        W80381   5.640  39.061   4.137
 8122W        W80382  20.687  36.546  12.790
 8123W        W80383   2.961  27.550   1.680
 8124W        W80384  15.198  19.049  12.533
 8125W        W80385  20.010  22.616   1.723
 8126W        W80386  18.320  28.704  12.136
 8127W        W80387  24.098  17.323  10.745
 8128W        W80388  22.916   8.973   3.715
 8129W        W80389   7.979  30.420   5.053
 8130W        W80390  10.662  22.599  10.659
 8131W        W80391  38.839  34.685  14.427
 8132W        W80392   0.472  27.399  13.053
 8133W        W80393  23.654   8.161   1.367
 8134W        W80394  13.659  33.026   2.531
 8135W        W80395  34.152  28.538   1.295
 8136W        W80396  41.838  26.412  13.531
 8137W        W80397  14.825  28.906   1.484
 8138W        W80398  44.785  11.669   2.171
 8139W        W80399   3.484   3.650   3.717
 8140W        W80400  31.423  26.734   0.275
 8141W        W80401  26.722  24.503  13.692
 8142W        W80402   8.612   4.672  10.920
 8143W        W80403  11.959  39.475  14.974
 8144W        W80404  40.974  32.212   5.185
 8145W        W80405  37.886   3.277   4.931
 8146W        W80406  30.528   7.637   0.306
 8147W        W80407  37.606  40.258   0.858
 8148W        W80408  43.844  30.505  11.961
 8149W        W80409  36.618  39.303   2.777
 8150W        W80410   3.873  36.863  11.937
 8151W        W80411  13.093   4.663  11.045
 8152W        W80412  44.681   7.729  14.387
 8153W        W80413  42.322  43.838  13.929
 8154W        W80414   2.470  23.268  14.960
 8155W        W80415  25.559  24.936   4.120
 8156W        W80416   4.476  29.269   1.760
 8157W        W80417  40.024  24.960   1.800
 8158W        W80418   8.639   6.861  10.327
 8159W        W80419   8.761   2.231  10.749
 8160W        W80420  19.931  37.425   0.450
 8161W        W80421  19.250  10.889   4.155
 8162W        W80422  13.301  30.231  12.008
 8163W        W80423  22.021   6.667   4.601
 8164W        W80424  15.370  33.088   3.199
 8165W        W80425  12.119   7.113  11.401
 8166W        W80426  41.456  18.697  14.297
 8167W        W80427  13.065  29.716   4.281
 8168W        W80428  38.484   5.290  14.017
 8169W        W80429   9.881  15.902   2.777
 8170W        W80430  26.001   0.242   3.902
 8171W        W80431  39.012  13.861  12.173
 8172W        W80432   4.953  37.356   2.946
 8173W        W80433  30.644  13.686   1.613
 8174W        W80434  25.690  18.529  14.350
 8175W        W80435  22.547  27.670   3.701
 8176W        W80436  42.749  31.825   0.866
 8177W        W80437  27.374  31.271   5.148
 8178W        W80438  11.159   3.499  14.031
 8179W        W80439  40.373  19.621   2.012
 8180W        W80440  27.876  20.457  12.958
 8181W        W80441  33.078  42.018  13.256
 8182W        W80442  43.854   8.934   4.235
 8183W        W80443  18.929  18.938  13.533
 8184W        W80444   4.662  25.829   9.983
 8185W        W80445  18.066  30.103  14.470
 8186W        W80446  14.384  17.897  14.991
 8187W        W80447   1.033  14.457   2.373
 8188W        W80448   7.677  40.451  11.285
 8189W        W80449   4.747   0.972  11.048
 8190W        W80450  38.578  11.160  14.807
 8191W        W80451  18.485   8.229  13.542
 8192W        W80452  25.607  28.157   3.429
 8193W        W80453  13.832  13.614   1.386
 8194W        W80454  28.463  37.331  14.274
 8195W        W80455  23.544  41.053   2.790
 8196W        W80456  32.955  33.185  10.836
 8197W        W80457  35.321  32.811  10.573
 8198W        W80458   4.879  12.610  10.200
 8199W        W80459  18.134  15.015  10.845
 8200W        W80460  29.878  37.789   2.276
 8201W        W80461  26.014  14.826  11.618
 8202W        W80462  35.477  23.135   1.246
 8203W        W80463   9.678  43.189  14.558
 8204W        W80464   2.226  12.300  12.589
 8205W        W80465  43.388  26.555   9.968
 8206W        W80466  25.713  41.942   2.215
 8207W        W80467  16.048  18.099  14.613
 8208W        W80468  16.678  41.847  12.200
 8209W        W80469  33.373  23.101  12.697
 8210W        W80470  30.311  43.094  13.613
 8211W        W80471  26.596   0.584  12.376
 8212W        W80472  44.555  11.198   3.866
 8213W        W80473   5.003   4.262  13.095
 8214W        W80474  12.867   6.599  11.287
 8215W        W80475  41.443  44.705   0.444
 8216W        W80476  30.722  11.952   1.331
 8217W        W80477  23.163  18.561   1.325
 8218W        W80478  30.441   2.274  13.388
 8219W        W80479  21.487  34.894  14.451
 8220W        W80480  33.545  11.701  10.807
 8221W        W80481  18.155  43.419  14.825
 8222W        W80482  18.929   4.737  12.604
 8223W        W80483   7.276   8.239  13.488
 8224W        W80484  31.622  30.641  12.028
 8225W        W80485  23.057   1.743  14.777
 8226W        W80486  41.536  13.333   4.150
 8227W        W80487  39.154  38.207  12.338
 8228W        W80488  39.182  24.292   5.050
 8229W        W80489   9.718   9.402  13.054
 8230W        W80490   1.530  26.554  11.308
 8231W        W80491  23.131  18.369   2.790
 8232W        W80492   3.504  33.429  12.495
 8233W        W80493  25.107  10.394   4.534
 8234W        W80494  28.623  18.679   2.343
 8235W        W80495  12.629  40.844   4.363
 8236W        W80496  42.482  34.137  11.143
 8237W        W80497  39.052  26.166  13.838
 8238W        W80498  34.010   9.814   2.217
 8239W        W80499  28.467   4.875   3.623
 8240W        W80500  13.650  21.571  14.381
 8241W        W80501  26.270  11.850  10.760
 8242W        W80502   8.407  25.867   3.283
 8243W        W80503  30.971  29.038   3.425
 8244W        W80504  12.618   9.644   0.759
 8245W        W80505  38.330  38.504  12.875
 8246W        W80506  34.949  10.216  13.321
 8247W        W80507  13.852  26.231  13.438
 8248W        W80508  28.730  14.570   1.223
 8249W        W80509  40.958  24.298   1.807
 8250W        W80510  23.818  25.890  13.377
 8251W        W80511  24.133  38.771   1.003
 8252W        W80512  15.530  13.237   3.046
 8253W        W80513  40.139  35.070  11.519
 8254W        W80514   1.655  32.794  13.936
 8255W        W80515  28.488   9.331  10.639
 8256W        W80516  13.231  31.552   3.221
 8257W        W80517  12.618  37.019   2.390
 8258W        W80518  24.085  27.229  11.001
 8259W        W80519  39.107   2.935   0.389
 8260W        W80520  10.100   8.717   2.615
 8261W        W80521  17.240  21.197   4.511
 8262W        W80522  22.659   9.964   0.697
 8263W        W80523  36.536   6.225   3.796
 8264W        W80524  40.536   3.866  11.184
 8265W        W80525   8.744   8.136  14.447
 8266W        W80526   9.577  23.432   0.898
 8267W        W80527  32.576   4.700   0.838
 8268W        W80528  25.409  41.678  13.875
 8269W        W80529  21.981  18.709   0.917
 8270W        W80530   2.454  12.295   1.422
 8271W        W80531  24.241  16.861  14.934
 8272W        W80532   0.130   8.860  14.429
 8273W        W80533  38.498   4.625  13.840
 8274W        W80534  10.903  21.620  13.567
 8275W        W80535  38.694   1.768  13.068
 8276W        W80536  13.083  22.701  14.941
 8277W        W80537  19.986   6.241   1.839
 8278W        W80538  40.530  26.574   1.129
 8279W        W80539  12.159   4.368   3.009
 8280W        W80540   2.304  16.377   2.747
 8281W        W80541  24.133  27.405  14.427
 8282W        W80542  30.374  40.503   2.200
 8283W        W80543  24.620  24.971   2.579
 8284W        W80544  24.651   9.626  14.398
 8285W        W80545  12.459  42.067  11.145
 8286W        W80546  16.087  43.266  11.710
 8287W        W80547  13.776   2.728   1.549
 8288W        W80548  35.081  37.021   3.753
 8289W        W80549   7.189  43.691   0.491
 8290W        W80550  28.177  23.614   1.308
 8291W        W80551  29.024  31.859   0.788
 8292W        W80552  17.668  44.322  14.831
 8293W        W80553  42.741  37.400   2.904
 8294W        W80554  29.939  22.495  11.410
 8295W        W80555  19.044  35.118  14.437
 8296W        W80556   1.902  34.225  11.578
 8297W        W80557  39.942  29.648  12.418
 8298W        W80558  32.474   1.762   3.302
 8299W        W80559   3.376  17.554   4.614
 8300W        W80560   9.385  39.973   3.161
 8301W        W80561  18.637  40.626   2.115
 8302W        W80562  26.162  43.363  13.924
 8303W        W80563   7.707   1.506  12.450
 8304W        W80564  14.259  34.180   3.174
 8305W        W80565  19.562  33.534  11.911
 8306W        W80566  39.441  21.119   1.681
 8307W        W80567  23.426  34.307   1.329
 8308W        W80568  11.864  21.364   4.601
 8309W        W80569  36.720  30.640  14.976
 8310W        W80570  34.880   7.826   3.715
 8311W        W80571  18.048  40.233   0.464
 8312W        W80572  36.408  20.033  12.249
 8313W        W80573  40.935  29.434  13.818
 8314W        W80574  34.361  43.558  12.775
 8315W        W80575  16.684  28.167   1.676
 8316W        W80576   5.557   7.286  12.532
 8317W        W80577  27.522  23.526   3.911
 8318W        W80578  21.572  27.958  11.982
 8319W        W80579  10.732  37.524  13.037
 8320W        W80580  32.922  31.434  13.785
 8321W        W80581  32.867  20.019   9.831
 8322W        W80582  43.785  27.629  11.426
 8323W        W80583  28.957  16.068  14.821
 8324W        W80584  20.094  18.016  10.691
 8325W        W80585  13.851  39.539   1.803
 8326W        W80586  34.494  24.018  12.114
 8327W        W80587  30.446  22.822   3.385
 8328W        W80588  11.150  33.100  14.435
 8329W        W80589  12.016   5.859  12.056
 8330W        W80590  21.246  16.167   3.740
 8331W        W80591  37.320   3.911  10.504
 8332W        W80592  10.916   6.207  13.538
 8333W        W80593  35.121  24.721   4.263
 8334W        W80594  30.091  44.121  11.584
 8335W        W80595  43.055  33.440  13.918
 8336W        W80596  21.714   5.860   0.947
 8337W        W80597  31.908   3.778  13.019
 8338W        W80598   9.413  27.612   2.224
 8339W        W80599  42.944   9.375   4.118
 8340W        W80600   3.270  31.437  14.843
 8341W        W80601   8.744  18.278  13.003
 8342W        W80602  43.265  16.042   4.812
 8343W        W80603  38.694  43.350   0.710
 8344W        W80604  21.070  22.060   2.349
 8345W        W80605   7.052   5.980   0.995
 8346W        W80606  18.650  42.852  12.439
 8347W        W80607  32.919   7.971   0.504
 8348W        W80608   7.497   0.224   2.999
 8349W        W80609  11.800  26.553   2.718
 8350W        W80610  42.890   9.128   3.154
 8351W        W80611  22.585  10.198  14.812
 8352W        W80612  10.217   8.758   0.741
 8353W        W80613  30.669  29.656  14.710
 8354W        W80614  39.676  25.846   2.701
 8355W        W80615  28.904  29.237   4.204
 8356W        W80616  29.102  30.903   2.886
 8357W        W80617  43.693  26.625   2.421
 8358W        W80618  26.643  13.699  13.920
 8359W        W80619  21.117   4.257   0.665
 8360W        W80620  25.948  18.310   0.842
 8361W        W80621   6.228   7.947  14.259
 8362W        W80622  32.323   5.963   0.415
 8363W        W80623   7.973  37.800  13.216
 8364W        W80624  35.103  37.818   0.435
 8365W        W80625  35.625  10.747   4.618
 8366W        W80626  33.122  14.133   2.367
 8367W        W80627  33.512  11.719  10.299
 8368W        W80628   4.156  19.517  14.419
 8369W        W80629  22.078  38.918   1.444
 8370W        W80630  28.663  43.451  13.113
 8371W        W80631  21.532  31.438  11.220
 8372W        W80632  22.060  43.270   4.065
 8373W        W80633  27.285  33.062  14.940
 8374W        W80634   9.775  26.893   0.032
 8375W        W80635   1.319  41.733  12.399
 8376W        W80636  42.929  35.716  13.549
 8377W        W80637  16.604  18.808   1.290
 8378W        W80638  41.257  39.174   0.762
 8379W        W80639   9.364  39.390  12.949
 8380W        W80640  34.063  22.739   2.359
 8381W        W80641  44.081   0.013   0.851
 8382W        W80642  38.982  43.363   0.273
 8383W        W80643  39.096   8.852   0.213
 8384W        W80644  24.627  28.123   0.017
 8385W        W80645  14.210   5.275   4.304
 8386W        W80646  29.682  35.941  11.039
 8387W        W80647  44.684  13.879   1.798
 8388W        W80648  22.482   1.894  12.696
 8389W        W80649   9.527   1.180  12.466
 8390W        W80650  41.649  13.319   0.532
 8391W        W80651  41.947   0.068   1.381
 8392W        W80652  15.845  39.473   2.733
 8393W        W80653   1.949  18.096  11.183
 8394W        W80654   4.693  15.084  11.693
 8395W        W80655  12.301  18.969  11.957
 8396W        W80656  40.081  41.239   0.205
 8397W        W80657  14.072   4.673   2.739
 8398W        W80658  43.815  19.090  11.465
 8399W        W80659  37.872  26.140  10.789
 8400W        W80660  32.474  36.740  11.073
 8401W        W80661  24.153   0.005  14.952
 8402W        W80662  13.915   5.962  11.348
 8403W        W80663  18.822  36.964   4.157
 8404W        W80664  19.508  15.269   2.673
 8405W        W80665   3.850   6.680  10.944
 8406W        W80666  39.352  26.490   0.322
 8407W        W80667  19.553  33.409   3.656
 8408W        W80668   2.070  20.684  14.918
 8409W        W80669  29.933   7.663   0.894
 8410W        W80670  21.093  18.605  13.840
 8411W        W80671  29.778  35.023   1.023
 8412W        W80672   1.025  16.717  12.299
 8413W        W80673  39.051  35.469   3.311
 8414W        W80674  18.649  21.427   2.370
 8415W        W80675  36.482  25.206   1.831
 8416W        W80676  19.192   5.373   2.413
 8417W        W80677  25.451   4.729   3.736
 8418W        W80678  39.230  11.259  13.017
 8419W        W80679  22.613  20.118  14.296
 8420W        W80680  36.331   0.009   2.382
 8421W        W80681  28.811  15.582  14.952
 8422W        W80682  30.419   8.665  14.671
 8423W        W80683  36.594  25.457  11.640
 8424W        W80684  33.132  34.071  10.779
 8425W        W80685  37.385   4.419   4.129
 8426W        W80686  10.306  25.530  10.702
 8427W        W80687   5.410  43.036  11.970
 8428W        W80688   9.840   9.841   1.493
 8429W        W80689  39.860   2.072  12.402
 8430W        W80690  39.436  43.649  14.202
 8431W        W80691   4.174   4.595  13.405
 8432W        W80692   4.863   4.357   0.683
 8433W        W80693  14.731  43.781   2.701
 8434W        W80694  35.085   0.265   4.022
 8435W        W80695  35.513  38.049  11.512
 8436W        W80696  42.543   6.686  11.483
 8437W        W80697  29.259  22.048   0.421
 8438W        W80698  20.057  19.600   3.687
 8439W        W80699  10.813   5.416   2.814
 8440W        W80700  20.245   5.242   0.290
 8441W        W80701  21.263  29.650   0.881
 8442W        W80702  11.387  11.218   2.839
 8443W        W80703  44.296  44.865  13.288
 8444W        W80704  11.705  23.966  10.749
 8445W        W80705  39.263  24.004  12.046
 8446W        W80706   5.900  32.160  13.488
 8447W        W80707  20.822  20.409  10.156
 8448W        W80708  20.725  44.031  11.676
 8449W        W80709  15.315  42.744   4.622
 8450W        W80710  43.928  44.037  13.521
 8451W        W80711  44.459   3.802   4.151
 8452W        W80712  24.092  15.562   1.833
 8453W        W80713   5.736  40.097   1.476
 8454W        W80714   6.326  44.093  13.807
 8455W        W80715   2.783  16.548   3.936
 8456W        W80716  18.873  32.327  11.023
 8457W        W80717  31.481  29.180   0.040
 8458W        W80718   2.409  37.692   4.491
 8459W        W80719  39.886  12.395  11.963
 8460W        W80720  19.087  35.775  10.531
 8461W        W80721  22.563  33.110   3.614
 8462W        W80722  42.777  32.082   3.875
 8463W        W80723  43.366  33.172  12.884
 8464W        W80724  15.408  25.565  13.831
 8465W        W80725   7.104   7.187  12.394
 8466W        W80726  32.609  40.477  14.295
 8467W        W80727  37.926  16.682   3.329
 8468W        W80728  13.227  39.406  10.416
 8469W        W80729   4.839  16.751   3.656
 8470W        W80730  12.139  29.668  11.924
 8471W        W80731  21.203  35.138   4.348
 8472W        W80732  16.776  35.292  12.060
 8473W        W80733  34.401  35.066  11.476
 8474W        W80734   1.535  42.345  12.949
 8475W        W80735   6.459  30.647   0.150
 8476W        W80736  19.659  14.813   3.965
 8477W        W80737  31.712   9.875   3.154
 8478W        W80738  23.168  38.931  13.267
 8479W        W80739  19.384  24.697   3.027
 8480W        W80740   4.581  19.647  11.126
 8481W        W80741   7.080  32.512   2.826
 8482W        W80742  33.099  19.678   2.025
 8483W        W80743  27.514   9.295  13.547
 8484W        W80744  10.212  33.342   1.587
 8485W        W80745  38.009  23.104   0.729
 8486W        W80746  22.526  34.296  11.931
 8487W        W80747  36.929   0.055  12.955
 8488W        W80748  38.445  10.719  14.479
 8489W        W80749  40.968  21.771   0.323
 8490W        W80750  34.900  36.903  14.004
 8491W        W80751  11.618  22.482  11.538
 8492W        W80752   3.970   3.245  14.873
 8493W        W80753  29.067  41.736   0.639
 8494W        W80754  32.901  22.273   1.647
 8495W        W80755  31.322   1.046  13.564
 8496W        W80756   8.859   7.457  14.017
 8497W        W80757  32.406   4.175   1.780
 8498W        W80758  23.808  28.790  12.045
 8499W        W80759  28.644  13.518   2.614
 8500W        W80760  11.145  32.444   3.274
 8501W        W80761  19.613  40.628   4.737
 8502W        W80762  25.743   9.870  14.785
 8503W        W80763  34.195  18.737   5.040
 8504W        W80764  32.620   3.957  11.198
 8505W        W80765  12.719  11.767   0.538
 8506W        W80766  14.361  39.832   4.751
 8507W        W80767  26.465  15.637   2.157
 8508W        W80768  33.106   7.598   0.815
 8509W        W80769  44.308  31.323   0.561
 8510W        W80770  42.323   9.145   0.844
 8511W        W80771  13.942  37.590  13.925
 8512W        W80772  17.188  22.457  11.166
 8513W        W80773  19.390  30.500  14.553
 8514W        W80774  29.130   1.060  11.619
 8515W        W80775  15.665  28.440  13.851
 8516W        W80776  17.892  35.549  13.864
 8517W        W80777  21.026  22.538   1.435
 8518W        W80778   3.196  41.057   3.550
 8519W        W80779  24.688   6.437  13.955
 8520W        W80780  11.947   0.782   2.710
 8521W        W80781  30.014  18.624  12.224
 8522W        W80782  13.574  22.594  11.578
 8523W        W80783  11.320  10.603  13.349
 8524W        W80784   6.068  42.694   5.152
 8525W        W80785   7.751  33.051   4.555
 8526W        W80786  25.615  33.115  11.037
 8527W        W80787  10.645  37.858  11.674
 8528W        W80788   5.451  29.701   0.313
 8529W        W80789  42.030  36.382   0.935
 8530W        W80790   6.368   9.571  13.502
 8531W        W80791  34.349   2.081   1.831
 8532W        W80792   7.578  30.671  12.378
 8533W        W80793  25.026  44.690  11.465
 8534W        W80794  32.013  14.981   0.396
 8535W        W80795  13.075  30.613  12.631
 8536W        W80796  28.546   6.495  10.431
 8537W        W80797  17.256  29.646   0.001
 8538W        W80798  32.187  43.895  12.455
 8539W        W80799  13.197  39.693   9.997
 8540W        W80800   8.251  41.991  12.864
 8541W        W80801  21.833  11.187  11.928
 8542W        W80802  37.606  28.042   1.717
 8543W        W80803  23.062  18.509  12.966
 8544W        W80804  19.036   3.857   0.934
 8545W        W80805  21.738  25.689   2.766
 8546W        W80806  21.201  27.383   5.578
 8547W        W80807  19.586  25.612   0.428
 8548W        W80808  23.992  24.652  12.557
 8549W        W80809  34.799  41.864   4.585
 8550W        W80810  17.673  31.114   0.734
 8551W        W80811  37.038  28.186  12.137
 8552W        W80812  42.005  16.657  12.403
 8553W        W80813   1.216  34.955   3.432
 8554W        W80814  44.191  42.824   4.601
 8555W        W80815  42.270  34.867   4.066
 8556W        W80816  23.259  42.892   4.601
 8557W        W80817  39.320  10.625   2.698
 8558W        W80818  44.690  35.130   4.075
 8559W        W80819   1.108  38.812   1.863
 8560W        W80820  16.709  12.357  11.864
 8561W        W80821   8.292  38.916   1.296
 8562W        W80822   9.692  41.107   3.891
 8563W        W80823  15.245   7.225  13.755
 8564W        W80824  43.809  20.800   3.236
 8565W        W80825  29.664  35.332   2.152
 8566W        W80826  42.785  11.350  13.907
 8567W        W80827  23.573   2.335   1.417
 8568W        W80828  38.640  33.617  13.649
 8569W        W80829  26.914  25.579  14.482
 8570W        W80830  30.567  32.163  11.039
 8571W        W80831  43.548  34.879  12.196
 8572W        W80832  26.984  18.044   2.502
 8573W        W80833  41.839  37.053  12.065
 8574W        W80834  20.571  29.158  14.897
 8575W        W80835  44.154  10.725  12.995
 8576W        W80836  15.223  29.570  11.051
 8577W        W80837  35.086  17.724   3.599
 8578W        W80838  39.054   5.742   2.478
 8579W        W80839  20.061  43.428   1.667
 8580W        W80840  15.604  39.787   3.356
 8581W        W80841   2.096  28.090   0.665
 8582W        W80842  28.753  20.550   3.481
 8583W        W80843   2.341   0.830  12.559
 8584W        W80844  34.136  40.552  12.440
 8585W        W80845  41.571  32.857  12.279
 8586W        W80846   9.850  31.172   4.158
 8587W        W80847   1.773   4.435  10.738
 8588W        W80848  36.893  35.595   0.969
 8589W        W80849   6.836  25.173  14.168
 8590W        W80850   9.238  18.718   4.188
 8591W        W80851   0.221  19.593  13.519
 8592W        W80852  35.104  29.628  12.932
 8593W        W80853  10.559  28.311  13.794
 8594W        W80854  18.263  11.747   3.043
 8595W        W80855  27.935  32.654   1.714
 8596W        W80856  35.797   4.312   0.827
 8597W        W80857  44.017   2.811  13.256
 8598W        W80858  25.397   9.256   2.773
 8599W        W80859  23.537  35.375   1.220
 8600W        W80860  27.155  19.719   4.413
 8601W        W80861   6.734  14.396   0.512
 8602W        W80862  21.722  31.086   1.922
 8603W        W80863  24.005  40.846   2.965
 8604W        W80864  11.762  17.910   4.119
 8605W        W80865  10.139   6.660  13.244
 8606W        W80866   4.899  42.978  12.664
 8607W        W80867  41.052  20.643  14.353
 8608W        W80868  11.687   5.521  11.840
 8609W        W80869   1.715  21.234  11.053
 8610W        W80870  39.268  35.082   2.775
 8611W        W80871  17.401  18.718  14.098
 8612W        W80872   8.871  38.596   4.736
 8613W        W80873   7.154  20.801  12.577
 8614W        W80874  21.866  38.174  14.972
 8615W        W80875  37.625  29.442   4.071
 8616W        W80876   9.848  11.085   3.657
 8617W        W80877  21.438  31.633   3.900
 8618W        W80878  22.606  22.298   3.364
 8619W        W80879  24.175  29.072   4.689
 8620W        W80880  39.560  15.241   0.498
 8621W        W80881  11.914   8.764  10.084
 8622W        W80882  44.850  43.349  12.060
 8623W        W80883  23.119  36.386   0.045
 8624W        W80884  33.851   8.819  10.174
 8625W        W80885  41.515  19.658  13.049
 8626W        W80886  28.652  33.865   1.660
 8627W        W80887  13.885  15.904   1.854
 8628W        W80888  31.289   8.608  12.464
 8629W        W80889  21.680  10.570   1.917
 8630W        W80890   4.899  27.625  10.700
 8631W        W80891   5.013  29.945  11.149
 8632W        W80892  12.203  25.726   1.945
 8633W        W80893  24.299  40.820  13.603
 8634W        W80894  13.887  15.890  13.973
 8635W        W80895  27.308  37.952   3.908
 8636W        W80896  24.280   1.803   1.156
 8637W        W80897  19.052  44.544  13.034
 8638W        W80898  38.427  22.195  13.763
 8639W        W80899  26.933  36.179   1.715
 8640W        W80900   1.671  30.096  11.918
 8641W        W80901   1.442  25.059   4.534
 8642W        W80902  25.648  17.684  12.455
 8643W        W80903  16.348  16.247  10.581
 8644W        W80904   4.998  41.959  12.545
 8645W        W80905  37.948  33.600  11.299
 8646W        W80906  10.587  39.043   2.770
 8647W        W80907  19.780  23.484   4.879
 8648W        W80908  12.903  37.466   0.084
 8649W        W80909   3.439  22.713  13.050
 8650W        W80910  24.436  11.136   2.583
 8651W        W80911  29.613  10.604   2.117
 8652W        W80912  41.271   8.266   1.984
 8653W        W80913  14.086  22.602  11.532
 8654W        W80914  11.204   5.664   3.833
 8655W        W80915  43.737  38.681  10.635
 8656W        W80916  28.740   8.482   4.677
 8657W        W80917  34.072  33.002   3.218
 8658W        W80918  19.268  12.177  13.888
 8659W        W80919  38.838  14.293   3.290
 8660W        W80920  18.563  25.647   0.291
 8661W        W80921   7.914   4.937  12.315
 8662W        W80922  37.976  34.305   2.633
 8663W        W80923  44.900  40.520   0.009
 8664W        W80924  34.608  42.422  11.666
 8665W        W80925  11.310   5.856   1.445
 8666W        W80926  10.828  32.016  13.914
 8667W        W80927  23.999  40.120   1.836
 8668W        W80928  44.268   0.875   4.300
 8669W        W80929  39.410  41.248   3.903
 8670W        W80930  29.042  16.329   0.733
 8671W        W80931  21.796  44.533   1.267
 8672W        W80932  41.374  18.846  13.426
 8673W        W80933  32.035   2.448   4.228
 8674W        W80934  41.432   4.307   0.733
 8675W        W80935  13.900  41.352   1.113
 8676W        W80936  44.474   1.054  11.670
 8677W        W80937  23.099  38.063  14.901
 8678W        W80938  29.567  42.413  12.158
 8679W        W80939  31.253  42.374   1.249
 8680W        W80940  24.010   7.158   3.801
 8681W        W80941  12.787   1.379  12.414
 8682W        W80942  27.142   1.017  12.208
 8683W        W80943  34.015  29.381  12.021
 8684W        W80944   5.500  20.136  12.387
 8685W        W80945  20.527  27.909  12.210
 8686W        W80946   1.503  33.004  11.189
 8687W        W80947  18.979  40.390  14.375
 8688W        W80948  11.179  14.405  10.578
 8689W        W80949  12.611  24.200   3.775
 8690W        W80950  25.872  34.629   3.171
 8691W        W80951  27.177  23.978   2.759
 8692W        W80952  31.045  40.961   1.050
 8693W        W80953  14.640  16.178  13.395
 8694W        W80954   5.779  17.165   1.848
 8695W        W80955  31.056  21.034   1.806
 8696W        W80956  32.875  20.069   0.161
 8697W        W80957  32.680  29.361   3.300
 8698W        W80958  30.073  15.072  13.824
 8699W        W80959  35.398   7.816   3.701
 8700W        W80960   8.859   2.025  14.235
 8701W        W80961   1.800   7.940   0.427
 8702W        W80962  32.373  32.879   1.462
 8703W        W80963   9.298   4.417   2.099
 8704W        W80964   1.487  24.571  12.248
 8705W        W80965  22.969  28.936   3.049
 8706W        W80966  41.377  41.478   4.273
 8707W        W80967   2.979  16.767  12.583
 8708W        W80968  37.100  44.550  13.252
 8709W        W80969   6.881  34.664  14.747
 8710W        W80970   1.185  15.100  13.753
 8711W        W80971  16.311   0.518  13.427
 8712W        W80972  12.103   8.304  14.523
 8713W        W80973  15.281  35.639  12.146
 8714W        W80974  38.815  31.808  12.454
 8715W        W80975  30.625  36.579   5.129
 8716W        W80976  22.806  18.918   3.176
 8717W        W80977  18.804  23.158  11.067
 8718W        W80978   5.835  10.174  14.344
 8719W        W80979  34.570  18.732  11.664
 8720W        W80980  32.073  38.017   2.831
 8721W        W80981  21.104   0.249   2.627
 8722W        W80982  16.484  13.022  11.080
 8723W        W80983   7.799  17.696  14.349
 8724W        W80984  42.893  35.830   4.628
 8725W        W80985   0.865   7.478   0.327
 8726W        W80986  19.995  24.727   1.095
 8727W        W80987   8.760  37.424   3.410
 8728W        W80988  28.408  36.884  14.031
 8729W        W80989   9.280  29.616  13.367
 8730W        W80990  38.849   5.167  13.323
 8731W        W80991  13.025  30.177  10.313
 8732W        W80992  36.362   3.178   2.652
 8733W        W80993   7.224  19.692  14.314
 8734W        W80994  27.948  23.439   0.425
 8735W        W80995  24.683  35.562   4.154
 8736W        W80996  17.589  38.063  14.599
 8737W        W80997  38.076  27.573  10.309
 8738W        W80998  25.101  11.097  14.724
 8739W        W80999  32.507  12.650   3.573
 8740W        W81000  26.860  16.761   2.541
 8741W        W81001  10.251  35.512  13.273
 8742W        W81002  21.288  11.634  14.948
 8743W        W81003  43.786   0.567  13.515
 8744W        W81004  35.005  34.763  11.085
 8745W        W81005  28.419  18.526   2.796
 8746W        W81006  17.555  13.695   0.399
 8747W        W81007  25.585  44.803   1.603
 8748W        W81008  10.809  30.963  11.868
 8749W        W81009  15.815  26.991   3.206
 8750W        W81010  13.323  10.544  13.832
 8751W        W81011   0.222  19.984   0.985
 8752W        W81012  36.191   0.442  14.402
 8753W        W81013  15.238  17.498  12.377
 8754W        W81014   0.324  18.077  11.398
 8755W        W81015  23.944  28.088   5.534
 8756W        W81016  42.384  39.519   3.225
 8757W        W81017  23.695  14.435   4.576
 8758W        W81018   3.304   6.641  14.360
 8759W        W81019  34.942  35.088  11.509
 8760W        W81020   3.345  17.882   4.221
 8761W        W81021  19.920  33.080  14.458
 8762W        W81022  27.693  44.823  12.968
 8763W        W81023   9.698   0.590   3.717
 8764W        W81024   3.359   6.343   4.610
 8765W        W81025  13.705  39.401  11.179
 8766W        W81026   1.477  40.555   3.845
 8767W        W81027  30.145   5.649  11.155
 8768W        W81028  13.899  36.481  12.395
 8769W        W81029  38.971  33.523   1.721
 8770W        W81030   6.682  31.945  14.964
 8771W        W81031  10.567   7.206  14.454
 8772W        W81032  42.112   9.811   0.922
 8773W        W81033  29.481  22.644  13.517
 8774W        W81034   0.514  29.597   3.321
 8775W        W81035  44.189  40.389   4.377
 8776W        W81036  30.020  40.788   4.280
 8777W        W81037  21.719  21.007  14.069
 8778W        W81038  21.978  23.282   3.592
 8779W        W81039   1.840  11.803   1.755
 8780W        W81040  40.516  14.475   0.867
 8781W        W81041  38.993   0.409   2.849
 8782W        W81042  16.159  18.275   1.876
 8783W        W81043  34.126  40.256   2.197
 8784W        W81044  42.572  31.462   0.247
 8785W        W81045  33.789  21.688  13.895
 8786W        W81046  27.643   9.152  13.076
 8787W        W81047  36.311  14.743  12.179
 8788W        W81048  39.867  22.243   2.452
 8789W        W81049  18.146  31.883  10.381
 8790W        W81050   2.179  13.040  14.268
 8791W        W81051  31.527  30.072   0.735
 8792W        W81052   5.915  35.694  10.555
 8793W        W81053  10.115  22.476   4.538
 8794W        W81054  28.196  11.554  10.394
 8795W        W81055  28.406  36.997  11.203
 8796W        W81056  22.939   3.335  12.733
 8797W        W81057   3.174   0.998  12.671
 8798W        W81058  25.115  32.629  13.710
 8799W        W81059  37.474  22.958   0.636
 8800W        W81060  21.271  11.105   1.432
 8801W        W81061  11.155  11.586   0.086
 8802W        W81062  42.859   8.081   3.565
 8803W        W81063  39.919  29.759   2.298
 8804W        W81064  41.103  32.576  13.528
 8805W        W81065  10.526  14.318   3.780
 8806W        W81066  42.700  14.379  12.944
 8807W        W81067  25.068   3.459  14.484
 8808W        W81068  38.112  13.798   0.966
 8809W        W81069  21.692   1.713  11.662
 8810W        W81070  33.560  23.961  11.842
 8811W        W81071  19.229   7.946  11.133
 8812W        W81072  28.655  19.244  11.646
 8813W        W81073  34.654  40.356   0.291
 8814W        W81074   0.846  36.577   2.914
 8815W        W81075  10.746  32.003   2.318
 8816W        W81076  11.643  12.367   4.134
 8817W        W81077   6.847  21.608  10.411
 8818W        W81078  21.119  40.176  11.919
 8819W        W81079  13.796  28.172  11.585
 8820W        W81080  41.277  37.952   4.326
 8821W        W81081  24.464  32.612   1.279
 8822W        W81082  18.747   3.406   0.937
 8823W        W81083  21.940   1.414   0.510
 8824W        W81084  22.741  24.123  14.897
 8825W        W81085  24.910  21.289   3.708
 8826W        W81086  20.980  33.892   2.248
 8827W        W81087   1.754  28.034   2.999
 8828W        W81088  31.575  24.045   3.523
 8829W        W81089  22.191   0.717   2.389
 8830W        W81090  14.557   7.210   0.419
 8831W        W81091  11.437   8.313   2.912
 8832W        W81092   3.891  19.729  10.559
 8833W        W81093  15.464   1.397   0.226
 8834W        W81094  18.516  33.113  11.118
 8835W        W81095  34.768  10.625   2.289
 8836W        W81096   1.411  19.731   0.616
 8837W        W81097  17.723   5.763   4.994
 8838W        W81098  44.817   1.415   1.598
 8839W        W81099  23.226   3.012  12.982
 8840W        W81100  37.054  20.199   3.650
 8841W        W81101  30.564  32.624   4.610
 8842W        W81102  14.753  20.058   3.386
 8843W        W81103  14.636  35.332  12.718
 8844W        W81104  30.420  37.476   0.436
 8845W        W81105  27.471  14.390  13.955
 8846W        W81106  37.927  30.559  13.637
 8847W        W81107  32.311  22.009   0.061
 8848W        W81108  30.882   8.562  13.850
 8849W        W81109  21.373  39.489   1.249
 8850W        W81110  16.364  17.221   0.032
 8851W        W81111  31.540  32.137   4.322
 8852W        W81112  16.491  18.127   3.166
 8853W        W81113  40.939  29.490   4.361
 8854W        W81114   2.519   2.645   0.862
 8855W        W81115  14.111   1.383   1.327
 8856W        W81116   9.690  35.909   3.900
 8857W        W81117  14.067  15.422  14.794
 8858W        W81118  34.338   6.698  14.833
 8859W        W81119  30.681  10.696  13.400
 8860W        W81120  21.577  44.800   4.415
 8861W        W81121  16.723  20.095  14.462
 8862W        W81122   1.301  14.120   0.544
 8863W        W81123  22.085  28.075  11.073
 8864W        W81124   4.775  28.621   3.629
 8865W        W81125  22.496  17.303  14.652
 8866W        W81126  38.428  29.079   2.849
 8867W        W81127  38.342  43.391  10.658
 8868W        W81128  39.462  29.953  14.858
 8869W        W81129  12.869   6.672   0.302
 8870W        W81130  23.507  43.906  13.441
 8871W        W81131  11.355  13.603   2.383
 8872W        W81132   6.700  27.773   0.388
 8873W        W81133  15.644  32.842   4.314
 8874W        W81134  30.343  22.248  11.975
 8875W        W81135  23.159  30.218   1.966
 8876W        W81136  40.993  22.003  14.859
 8877W        W81137  28.576  22.568   3.188
 8878W        W81138  21.726  24.698   4.812
 8879W        W81139   7.631  28.075   3.263
 8880W        W81140  36.256  15.409   3.065
 8881W        W81141  18.029  43.536   2.368
 8882W        W81142  27.284  26.677  11.097
 8883W        W81143  27.266   0.915   2.314
 8884W        W81144   8.726  10.914  12.114
 8885W        W81145  30.905  39.669   4.130
 8886W        W81146   0.774  34.121   2.179
 8887W        W81147  30.906  21.883   1.418
 8888W        W81148   9.994  37.466   4.149
 8889W        W81149  22.657   1.512  13.499
 8890W        W81150  34.339   2.014  11.126
 8891W        W81151  12.317  23.577  12.052
 8892W        W81152  11.660  10.869   4.374
 8893W        W81153  23.485  18.373  10.992
 8894W        W81154  29.443  27.489  14.775
 8895W        W81155  16.672   5.044  12.183
 8896W        W81156  15.251  35.849   0.562
 8897W        W81157   6.728  41.356  14.256
 8898W        W81158  39.087  18.129   1.350
 8899W        W81159  28.047   7.266   3.282
 8900W        W81160  11.384  21.743   2.358
 8901W        W81161   8.279   9.341  12.502
 8902W        W81162  21.576  11.194  13.523
 8903W        W81163  34.892  40.477  14.773
 8904W        W81164   0.520  30.607   0.982
 8905W        W81165   5.393  39.619  13.157
 8906W        W81166  18.868   5.837   0.043
 8907W        W81167  30.924  12.268   2.199
 8908W        W81168  42.473  37.850   1.654
 8909W        W81169  10.895  15.545  13.935
 8910W        W81170  25.166   3.712  11.172
 8911W        W81171  20.143  40.303  13.001
 8912W        W81172  35.936  30.874   2.842
 8913W        W81173  28.155  41.804   0.595
 8914W        W81174  14.191  22.737   1.218
 8915W        W81175  23.096  29.472  13.367
 8916W        W81176   5.175   3.842   0.075
 8917W        W81177  28.463   2.747   0.442
 8918W        W81178  29.080  31.673   3.705
 8919W        W81179  38.141  35.406  12.915
 8920W        W81180  39.092   8.980  12.550
 8921W        W81181  32.959  43.450   1.426
 8922W        W81182  25.528   3.349  14.752
 8923W        W81183  19.989  13.756  12.571
 8924W        W81184  20.096  35.627  10.974
 8925W        W81185  28.086   4.896  12.851
 8926W        W81186  39.582  32.150  12.428
 8927W        W81187  42.889  12.930  12.839
 8928W        W81188   3.043  28.967   2.876
 8929W        W81189   2.028  15.982   1.487
 8930W        W81190  29.730  43.608   1.214
 8931W        W81191   7.617  12.836  10.936
 8932W        W81192  18.043  34.774   0.327
 8933W        W81193  31.100  43.400  13.828
 8934W        W81194   8.828   0.501  14.345
 8935W        W81195  13.132  44.570   4.671
 8936W        W81196  35.059  21.699   2.660
 8937W        W81197  19.154  24.169   3.667
 8938W        W81198  28.995  26.154  13.818
 8939W        W81199  17.233  43.726  11.692
 8940W        W81200  32.013   1.281   0.702
 8941W        W81201   4.383  42.907   4.583
 8942W        W81202  41.840  44.995  11.394
 8943W        W81203  19.355  26.617   4.310
 8944W        W81204   0.692   0.322  11.082
 8945W        W81205  18.670  22.268   4.303
 8946W        W81206  14.293  22.456  11.077
 8947W        W81207  37.911  23.788   3.329
 8948W        W81208  14.424  38.458  14.412
 8949W        W81209  32.452  18.202  12.485
 8950W        W81210  21.015  35.936   0.292
 8951W        W81211  36.370  28.671   4.893
 8952W        W81212  34.908  35.135   4.277
 8953W        W81213   1.718  14.242   2.653
 8954W        W81214  10.143  14.026   4.685
 8955W        W81215  26.198  13.047   0.982
 8956W        W81216  35.254  30.898  11.939
 8957W        W81217  17.961  31.494   0.198
 8958W        W81218  12.349  32.795  14.519
 8959W        W81219  17.322  44.753  13.605
 8960W        W81220  41.297  28.584   1.674
 8961W        W81221   7.180  25.946   3.216
 8962W        W81222  20.162   4.389   3.363
 8963W        W81223   4.988  30.971  12.625
 8964W        W81224   6.152  42.229  13.314
 8965W        W81225   1.327   7.278   4.557
 8966W        W81226  36.116  44.296   0.264
 8967W        W81227  30.611   2.591   1.758
 8968W        W81228   9.437  33.383  13.850
 8969W        W81229  14.857   8.114   3.048
 8970W        W81230  33.453  30.036  10.541
 8971W        W81231   3.055  17.637   2.590
 8972W        W81232   9.255   8.883  14.392
 8973W        W81233  12.566   0.719   3.765
 8974W        W81234   3.203  30.617  11.415
 8975W        W81235  12.138  41.800  13.779
 8976W        W81236  16.327  25.617   3.560
 8977W        W81237   8.815  39.021   1.286
 8978W        W81238  12.753   9.208   4.685
 8979W        W81239  37.528   4.897   1.113
 8980W        W81240  29.903  12.801   4.820
 8981W        W81241  37.091  30.279  14.956
 8982W        W81242   2.696  16.118   0.813
 8983W        W81243  37.917  39.406   4.431
 8984W        W81244  22.709  11.156  14.876
 8985W        W81245  11.108  39.457   0.264
 8986W        W81246  40.263  40.534   1.933
 8987W        W81247  41.244  28.763  14.285
 8988W        W81248   5.914  10.196  11.585
 8989W        W81249  44.225  44.299  11.474
 8990W        W81250   2.897  10.781  10.493
 8991W        W81251  10.233  17.363   0.420
 8992W        W81252  35.104  42.291  11.399
 8993W        W81253  36.134  33.201  13.772
 8994W        W81254  31.956  25.781   3.334
 8995W        W81255  10.675  17.318  10.786
 8996W        W81256   8.110  25.685   0.354
 8997W        W81257  24.917   8.802   1.220
 8998W        W81258   0.357  10.737  14.868
 8999W        W81259  33.665  16.457   1.402
 9000W        W81260   6.648  35.834  11.907
 9001W        W81261  20.499  30.459   1.608
 9002W        W81262  44.788   5.505   3.175
 9003W        W81263   1.596   1.014   1.459
 9004W        W81264   3.253  10.807  12.937
 9005W        W81265  33.428  44.967   0.822
 9006W        W81266  16.669  14.367   1.238
 9007W        W81267  34.456  30.746  12.878
 9008W        W81268  42.448  24.161  11.374
 9009W        W81269  44.683  31.972   1.898
 9010W        W81270  36.440  19.964   5.600
 9011W        W81271  30.570   0.459   1.183
 9012W        W81272  27.226  19.448  10.668
 9013W        W81273   9.826  20.001  12.505
 9014W        W81274  41.113  10.270   3.136
 9015W        W81275  43.521   3.184   0.859
 9016W        W81276  39.436   6.647   0.355
 9017W        W81277  22.844  26.149   3.204
 9018W        W81278   5.493  35.651   2.799
 9019W        W81279  44.524   4.852   3.440
 9020W        W81280  20.789  44.949   0.183
 9021W        W81281  24.255  35.958  14.697
 9022W        W81282  15.955  25.600  14.029
 9023W        W81283  14.169   8.122  12.442
 9024W        W81284   5.271   8.050   2.114
 9025W        W81285  28.990  20.575  13.745
 9026W        W81286   6.610  15.198   4.076
 9027W        W81287  23.953  14.903   4.049
 9028W        W81288  26.380   0.427   4.722
 9029W        W81289  15.861  14.691  14.980
 9030W        W81290   1.512  18.061  12.591
 9031W        W81291  24.546  43.976   4.225
 9032W        W81292  23.276   3.501  14.013
 9033W        W81293  12.356  28.586  14.374
 9034W        W81294   4.383  34.860  14.419
 9035W        W81295   9.835  43.007   1.892
 9036W        W81296  20.512  27.190   0.177
 9037W        W81297  15.723  44.373  11.908
 9038W        W81298  25.738  34.662   1.953
 9039W        W81299  14.666   9.304  13.073
 9040W        W81300  19.682   3.334  10.562
 9041W        W81301  33.181   2.866  14.616
 9042W        W81302  27.686  13.210   3.607
 9043W        W81303   4.791  33.539  13.381
 9044W        W81304  28.276   3.353  14.496
 9045W        W81305   2.327   9.898  11.232
 9046W        W81306  12.666  16.748  13.627
 9047W        W81307  11.289  40.127  13.357
 9048W        W81308   9.760  41.386  10.599
 9049W        W81309  25.443  22.193   3.267
 9050W        W81310  35.978  10.371   0.062
 9051W        W81311   5.406  26.644   4.270
 9052W        W81312  30.444   5.895  14.922
 9053W        W81313  21.075  24.230   0.315
 9054W        W81314  10.226  10.346   2.358
 9055W        W81315  24.634  20.622  11.351
 9056W        W81316  13.797  42.802  14.305
 9057W        W81317  31.505  14.975   1.205
 9058W        W81318  29.923   7.933  14.448
 9059W        W81319  21.769   9.744   4.091
 9060W        W81320  35.073  13.687   4.113
 9061W        W81321   6.169  30.910  10.680
 9062W        W81322   3.780  17.142   2.802
 9063W        W81323   8.914   6.603   2.043
 9064W        W81324  26.990  44.921  13.029
 9065W        W81325  17.523  41.416   2.429
 9066W        W81326  10.172  35.185   4.072
 9067W        W81327   6.238  31.895   2.764
 9068W        W81328  13.694  34.900  14.442
 9069W        W81329  42.032  34.989   1.046
 9070W        W81330   0.457   6.994  14.348
 9071W        W81331   9.309  34.680   0.677
 9072W        W81332   8.571  25.156  13.797
 9073W        W81333  34.390   1.001   2.795
 9074W        W81334   6.306  25.684  12.059
 9075W        W81335  19.669  36.544  10.663
 9076W        W81336   9.175   6.447   2.441
 9077W        W81337  19.735  41.855  11.099
 9078W        W81338  21.948  20.933   2.144
 9079W        W81339  35.354  19.147   2.256
 9080W        W81340   1.493   8.274  11.853
 9081W        W81341   5.304  24.639   4.091
 9082W        W81342  13.093  22.256   2.155
 9083W        W81343  33.672   8.968  11.991
 9084W        W81344  35.423  38.336  11.944
 9085W        W81345   7.493  15.548   0.032
 9086W        W81346  43.629  31.531   0.049
 9087W        W81347  19.643   2.603   3.697
 9088W        W81348   6.749  18.494  10.662
 9089W        W81349   5.874  33.432  12.987
 9090W        W81350  26.098  21.828   0.364
 9091W        W81351   2.292  37.488   3.578
 9092W        W81352  39.091  39.060  10.875
 9093W        W81353  33.302  22.463   1.923
 9094W        W81354  32.436  33.585   4.769
 9095W        W81355  41.749  24.722  11.634
 9096W        W81356  28.219   9.237   0.994
 9097W        W81357  33.923  18.060  13.301
 9098W        W81358   7.195  35.968  11.581
 9099W        W81359  18.025  40.022  14.881
 9100W        W81360  25.116  44.686   0.869
 9101W        W81361  11.751  43.443   4.097
 9102W        W81362  35.548  33.428  12.933
 9103W        W81363  18.259   0.336   2.186
 9104W        W81364  28.071  38.571   1.699
 9105W        W81365  29.909  21.945  12.059
 9106W        W81366  32.115  26.169  11.058
 9107W        W81367  37.943  37.104   0.947
 9108W        W81368  42.355  19.172  11.481
 9109W        W81369  27.959  40.090   1.375
 9110W        W81370  33.616  26.539   1.130
 9111W        W81371  17.266  38.156  13.668
 9112W        W81372  35.351  12.787   1.378
 9113W        W81373  29.637   3.786  10.587
 9114W        W81374  27.312   7.727   2.665
 9115W        W81375  32.687   6.830   1.349
 9116W        W81376  31.501  32.974   3.898
 9117W        W81377  44.738  11.507  11.086
 9118W        W81378   0.202  29.202   2.091
 9119W        W81379  12.160   4.264  12.617
 9120W        W81380  32.627  11.209   3.665
 9121W        W81381   2.462  41.945  12.888
 9122W        W81382  26.612   5.343  14.525
 9123W        W81383  35.189   2.883  14.905
 9124W        W81384  38.311  16.293  12.923
 9125W        W81385  41.544  37.109  13.414
 9126W        W81386   1.280  41.562  13.289
 9127W        W81387   7.200  12.957   4.063
 9128W        W81388   9.189  16.975  14.065
 9129W        W81389  23.802  23.119   4.447
 9130W        W81390   3.758  24.437  11.628
 9131W        W81391   3.438  16.082   4.590
 9132W        W81392  24.696  23.280  13.784
 9133W        W81393  33.114   3.975   1.824
 9134W        W81394  29.847  41.397  13.293
 9135W        W81395   4.669  31.184  13.963
 9136W        W81396   0.446  37.503  10.180
 9137W        W81397  21.652   4.225   2.424
 9138W        W81398  12.730  14.483   0.414
 9139W        W81399  13.700   1.895  13.054
 9140W        W81400  27.576  26.071   1.981
 9141W        W81401  27.495   6.960   2.158
 9142W        W81402   2.192  37.354   0.855
 9143W        W81403  44.537   5.741   4.706
 9144W        W81404  20.804  39.963  13.548
 9145W        W81405  40.837  20.619  10.660
 9146W        W81406  27.636  39.128   1.242
 9147W        W81407  23.540  17.631   0.902
 9148W        W81408  24.569  40.002  13.546
 9149W        W81409  34.155  44.535   3.843
 9150W        W81410  42.866  23.853  11.346
 9151W        W81411  41.349  39.133   0.234
 9152W        W81412  32.455   2.654  12.157
 9153W        W81413  22.158   4.304   4.337
 9154W        W81414  16.137  42.518   0.928
 9155W        W81415  15.626  33.917  14.268
 9156W        W81416   7.743  32.448  13.422
 9157W        W81417  29.872   9.456   1.185
 9158W        W81418  14.785  13.756  14.790
 9159W        W81419  24.430  13.874  14.550
 9160W        W81420  13.253   5.682  12.826
 9161W        W81421  33.853   1.317   3.971
 9162W        W81422  34.611   8.798  12.585
 9163W        W81423  15.584   1.756   4.216
 9164W        W81424  25.106  33.631   1.744
 9165W        W81425  26.011   5.637  13.911
 9166W        W81426   0.930  38.500  10.890
 9167W        W81427  24.064  12.283  10.666
 9168W        W81428  16.151  40.482   4.725
 9169W        W81429   6.869  12.312   1.952
 9170W        W81430  29.932  11.325   2.522
 9171W        W81431  21.659  13.753  12.364
 9172W        W81432  33.398   5.257   1.735
 9173W        W81433   3.518  41.014  11.678
 9174W        W81434  24.739  33.498   0.736
 9175W        W81435  32.021  12.100  13.951
 9176W        W81436  26.983   5.151  12.124
 9177W        W81437  21.809   4.478  11.391
 9178W        W81438  17.056   7.223  12.020
 9179W        W81439  26.597  44.787  11.938
 9180W        W81440  31.110   8.416  11.859
 9181W        W81441   9.168   7.676  14.846
 9182W        W81442  33.046  30.012   3.576
 9183W        W81443  44.676  26.759   2.230
 9184W        W81444  30.842  25.689  11.242
 9185W        W81445  10.594  22.044  13.528
 9186W        W81446  14.410  35.223  11.769
 9187W        W81447  27.033   2.282  10.704
 9188W        W81448  32.372  38.426  13.505
 9189W        W81449  19.602  22.524  14.550
 9190W        W81450  23.715  18.537   2.949
 9191W        W81451  25.302  23.483   3.599
 9192W        W81452  28.487  28.547  10.508
 9193W        W81453   9.982  29.060  12.955
 9194W        W81454  28.019   0.327   1.214
 9195W        W81455   5.172   8.080  11.414
 9196W        W81456  41.565  25.027   0.882
 9197W        W81457  35.123  22.133   4.639
 9198W        W81458   2.888   1.866   2.867
 9199W        W81459  13.568  16.123  10.594
 9200W        W81460  34.856   9.034  13.800
 9201W        W81461  41.336  15.154  11.475
 9202W        W81462  20.034  32.043  13.459
 9203W        W81463  25.606  23.743  13.597
 9204W        W81464  21.694  27.818   3.149
 9205W        W81465  26.421  29.504   4.117
 9206W        W81466  32.411  28.203  14.875
 9207W        W81467  26.497  39.397   3.318
 9208W        W81468  41.928  15.284   0.516
 9209W        W81469   2.009  16.218  11.823
 9210W        W81470   4.360  36.801   3.147
 9211W        W81471  41.852  32.836   3.576
 9212W        W81472  43.527  17.531   3.610
 9213W        W81473   2.664  23.286   1.840
 9214W        W81474  26.573  36.374   3.489
 9215W        W81475  16.789  15.708   9.800
 9216W        W81476  21.365  16.882  13.449
 9217W        W81477  14.359   5.203   1.330
 9218W        W81478  21.482  40.995  11.168
 9219W        W81479   8.184   2.410   0.226
 9220W        W81480   9.502   6.107   3.493
 9221W        W81481  42.909  43.697  12.782
 9222W        W81482  34.266  32.507   3.131
 9223W        W81483  20.683  14.179   3.658
 9224W        W81484  10.855  40.394   2.029
 9225W        W81485  36.044  25.791   0.316
 9226W        W81486  44.763  40.091  12.952
 9227W        W81487  28.919   9.113   4.232
 9228W        W81488  32.419  25.245  12.507
 9229W        W81489  28.948  12.694   1.386
 9230W        W81490  18.496  26.020  12.450
 9231W        W81491  10.539  18.247  11.482
 9232W        W81492  20.712  19.058   2.694
 9233W        W81493  18.043  39.022   1.377
 9234W        W81494  12.580  28.695   3.730
 9235W        W81495   6.868  25.654  13.370
 9236W        W81496  17.546  32.896  14.769
 9237W        W81497   6.475   0.622  13.433
 9238W        W81498   4.303  24.175   0.986
 9239W        W81499  33.356   5.764  14.484
 9240W        W81500  32.261  19.202   3.711
 9241W        W81501  41.384   3.196  12.019
 9242W        W81502  38.400   0.820   0.874
 9243W        W81503  29.409   7.324   0.318
 9244W        W81504   2.472   2.652   1.731
 9245W        W81505  32.896  31.508  11.402
 9246W        W81506  38.123  41.060  10.737
 9247W        W81507  43.601  28.469   4.039
 9248W        W81508  17.509  34.872   4.206
 9249W        W81509  18.548   4.559  14.394
 9250W        W81510  28.688  38.747   1.378
 9251W        W81511  23.703  24.728   3.104
 9252W        W81512  15.906  40.241   3.380
 9253W        W81513  41.782   1.338   0.710
 9254W        W81514  14.912  40.764   2.850
 9255W        W81515  41.887  44.491   0.174
 9256W        W81516  40.114   8.877  13.414
 9257W        W81517   5.296   9.412   4.324
 9258W        W81518  18.351  23.691  10.727
 9259W        W81519  43.826  10.767   0.968
 9260W        W81520  20.560  27.947   0.726
 9261W        W81521   7.305  42.587  11.530
 9262W        W81522   0.878   5.903  10.813
 9263W        W81523   8.185   0.934   4.147
 9264W        W81524  18.287  21.531   2.759
 9265W        W81525  36.517   1.362   4.609
 9266W        W81526  10.353  26.613   3.166
 9267W        W81527  26.842  19.628   0.339
 9268W        W81528   6.284  41.059  10.709
 9269W        W81529  27.756  24.673   2.164
 9270W        W81530   6.448  41.951   1.959
 9271W        W81531  28.155  10.715  12.195
 9272W        W81532  35.202  33.597   3.627
 9273W        W81533   5.647  16.852  12.487
 9274W        W81534  42.073  14.033   5.079
 9275W        W81535  17.713  21.279  11.087
 9276W        W81536  37.376  42.077   2.611
 9277W        W81537  34.867  32.566  13.122
 9278W        W81538  41.276  15.149   3.934
 9279W        W81539   7.898   2.963   4.263
 9280W        W81540  11.150  33.992  10.574
 9281W        W81541  23.991   5.892  11.665
 9282W        W81542   3.862   4.044   3.770
 9283W        W81543  20.802  42.006   1.712
 9284W        W81544  35.171  35.550   1.456
 9285W        W81545   3.530  37.194   4.173
 9286W        W81546  36.287  34.405   3.651
 9287W        W81547  22.729  18.585  12.165
 9288W        W81548   5.592   7.587  10.808
 9289W        W81549   0.193  21.099   3.605
 9290W        W81550   1.335  18.993   1.425
 9291W        W81551  21.237  23.485   4.135
 9292W        W81552  33.453  23.689   3.224
 9293W        W81553  42.555  37.883  13.879
 9294W        W81554  12.090  24.879   3.631
 9295W        W81555  29.566   9.248  14.419
 9296W        W81556  31.258   5.454  14.893
 9297W        W81557  22.409  40.387   3.564
 9298W        W81558  28.981  42.858   4.577
 9299W        W81559  16.785   2.528  11.060
 9300W        W81560  28.842  32.217   4.934
 9301W        W81561  40.328   4.402   1.479
 9302W        W81562  30.196  13.483   0.390
 9303W        W81563  27.425  39.791   4.190
 9304W        W81564   8.113  13.086  13.796
 9305W        W81565  34.618   4.972   2.712
 9306W        W81566  16.018  33.097  11.687
 9307W        W81567   3.357  26.423  11.634
 9308W        W81568  25.203  18.773  14.558
 9309W        W81569   3.457  12.621  12.062
 9310W        W81570  26.848   8.865  10.395
 9311W        W81571  18.080  38.444   4.567
 9312W        W81572  30.726  15.397   1.689
 9313W        W81573  41.857  36.806   0.326
 9314W        W81574  24.466  10.667  14.696
 9315W        W81575  33.907  25.712  13.990
 9316W        W81576  19.507   9.636   1.907
 9317W        W81577  20.334   6.913   2.707
 9318W        W81578  30.407  30.838  11.537
 9319W        W81579  19.995   2.759  10.599
 9320W        W81580  25.190  34.077   1.253
 9321W        W81581  31.031   6.677   2.231
 9322W        W81582  18.596  34.769  13.159
 9323W        W81583  41.516  22.130  11.149
 9324W        W81584   1.545   2.730  11.897
 9325W        W81585  10.840  15.702   1.348
 9326W        W81586  15.690   6.237   1.288
 9327W        W81587  13.608  44.895  12.859
 9328W        W81588  18.525  30.176  13.135
 9329W        W81589  10.158   5.788  14.578
 9330W        W81590   5.723  16.291  12.615
 9331W        W81591  22.496  11.679   1.730
 9332W        W81592   6.912  44.936   3.643
 9333W        W81593  42.759  23.830   4.226
 9334W        W81594  37.967   7.881   3.211
 9335W        W81595  18.743  33.524  10.454
 9336W        W81596  31.568  10.549  11.371
 9337W        W81597   3.416  18.798   4.126
 9338W        W81598  23.171   2.930  11.567
 9339W        W81599   3.133   1.388  11.728
 9340W        W81600   9.701  21.258   2.595
 9341W        W81601   9.742  42.819  10.897
 9342W        W81602  36.812  28.476  12.519
 9343W        W81603  35.969   0.937   2.914
 9344W        W81604   1.536  44.629  12.994
 9345W        W81605   1.938  26.641  13.403
 9346W        W81606  33.664  32.795  13.393
 9347W        W81607   0.371  32.520  12.490
 9348W        W81608  43.492   5.222   2.821
 9349W        W81609   6.481   7.179  13.637
 9350W        W81610  22.736  40.155   3.176
 9351W        W81611   7.362  35.855   1.834
 9352W        W81612   5.683   2.384   1.385
 9353W        W81613  18.308  22.483  13.669
 9354W        W81614  18.224  10.310   0.937
 9355W        W81615  39.283  44.271   1.154
 9356W        W81616  38.783  26.336   2.721
 9357W        W81617  36.344  43.011  14.481
 9358W        W81618   1.923   8.561  11.737
 9359W        W81619  21.946  34.162  13.415
 9360W        W81620  22.817  22.194   2.383
 9361W        W81621   1.182   4.575   4.945
 9362W        W81622  10.024   1.535   3.849
 9363W        W81623   7.594  14.154   0.239
 9364W        W81624   5.332  11.794  14.239
 9365W        W81625  44.368  30.025  14.842
 9366W        W81626  31.944  37.659  11.601
 9367W        W81627   3.361   6.822  10.755
 9368W        W81628  36.207  27.373   0.904
 9369W        W81629   3.801  24.471  14.330
 9370W        W81630   5.411  40.802   3.809
 9371W        W81631  39.507  18.669  14.392
 9372W        W81632  27.551   5.742   2.891
 9373W        W81633  11.346  21.195   0.907
 9374W        W81634  23.250  21.636  14.066
 9375W        W81635  38.525  31.398  12.310
 9376W        W81636  18.612  43.528  11.214
 9377W        W81637   6.968  13.340   3.296
 9378W        W81638   5.696  25.711  11.712
 9379W        W81639  29.637  31.472   3.668
 9380W        W81640  20.080  26.709  12.100
 9381W        W81641   3.812  14.848   4.415
 9382W        W81642  37.348  20.740   3.899
 9383W        W81643   3.689  13.058   1.200
 9384W        W81644  15.758   1.385   3.180
 9385W        W81645  27.635  20.016  13.080
 9386W        W81646  17.390  23.120  10.679
 9387W        W81647  15.292  25.991  12.852
 9388W        W81648  26.519  43.235  11.989
 9389W        W81649  24.113  20.360  13.799
 9390W        W81650   5.976  25.709   2.256
 9391W        W81651   0.608  32.665   0.444
 9392W        W81652  25.105  15.225   1.728
 9393W        W81653  15.572  38.049   2.821
 9394W        W81654  13.765  17.732   3.720
 9395W        W81655   1.210  19.705   4.118
 9396W        W81656  37.998  33.923   0.905
 9397W        W81657  23.891   2.828  11.030
 9398W        W81658  23.013  38.111   0.959
 9399W        W81659   7.684  25.215  10.529
 9400W        W81660   3.801  27.746  13.577
 9401W        W81661   4.973  24.753  10.797
 9402W        W81662  22.325  12.025  11.884
 9403W        W81663  30.603  16.615  10.649
 9404W        W81664  33.332  39.421  12.905
 9405W        W81665  35.508  22.404  10.709
 9406W        W81666   7.353  25.616   1.483
 9407W        W81667  25.653  26.167  11.808
 9408W        W81668   7.311  25.587  10.628
 9409W        W81669  19.211  21.335  13.102
 9410W        W81670  25.209  41.559   3.939
 9411W        W81671   9.251  18.672  12.451
 9412W        W81672   4.317  24.432   3.260
 9413W        W81673  34.450  17.564   4.287
 9414W        W81674  31.660  13.525  13.723
 9415W        W81675   1.816   9.362  10.726
 9416W        W81676  15.295  18.249   4.820
 9417W        W81677  10.363  44.945  10.690
 9418W        W81678   0.010  28.629  14.456
 9419W        W81679  11.012  15.670   2.296
 9420W        W81680  22.636  29.697   1.152
 9421W        W81681  17.714  11.788   3.096
 9422W        W81682  20.965  14.742  13.417
 9423W        W81683  38.046  36.079   3.797
 9424W        W81684  26.242  42.554  12.222
 9425W        W81685  19.074   5.798   2.678
 9426W        W81686  32.587  31.126   4.278
 9427W        W81687  23.142   9.875   1.812
 9428W        W81688  26.955  36.502  14.790
 9429W        W81689  27.757  42.416  13.604
 9430W        W81690   7.363  26.328  12.324
 9431W        W81691  18.189  21.265   0.687
 9432W        W81692  39.224   4.874   2.738
 9433W        W81693  29.168  39.023  14.444
 9434W        W81694  33.476  10.139   2.796
 9435W        W81695   4.710   2.434   2.380
 9436W        W81696  19.852  40.741  13.071
 9437W        W81697  29.888   0.069  11.504
 9438W        W81698  35.371  21.614   5.712
 9439W        W81699  31.959  25.021   3.658
 9440W        W81700  32.953  25.737  11.410
 9441W        W81701   0.221  34.495  14.050
 9442W        W81702  40.804   0.879   4.277
 9443W        W81703  30.119  39.243  11.605
 9444W        W81704  32.078  33.899  12.174
 9445W        W81705   0.818  25.029   3.129
 9446W        W81706  25.035  24.112  11.043
 9447W        W81707  38.046  19.991  10.644
 9448W        W81708   2.869  11.861   2.267
 9449W        W81709  13.669  21.992  13.350
 9450W        W81710   1.022  23.462   1.301
 9451W        W81711  22.827  15.163  13.014
 9452W        W81712  19.191  25.514  10.564
 9453W        W81713   5.918  17.076   4.564
 9454W        W81714   6.818  13.013   2.896
 9455W        W81715  41.100   0.753  14.290
 9456W        W81716  18.119  36.430   3.755
 9457W        W81717  35.499  18.736  13.119
 9458W        W81718  26.559  30.965   1.349
 9459W        W81719  12.351   1.196   0.743
 9460W        W81720  31.448  42.225   4.544
 9461W        W81721  30.967  33.972  14.762
 9462W        W81722   7.888  22.146   1.649
 9463W        W81723  11.841  16.888   4.162
 9464W        W81724  25.784   8.642   1.607
 9465W        W81725  24.016  30.063  11.886
 9466W        W81726  12.388  37.482   3.580
 9467W        W81727  10.550  30.611  13.593
 9468W        W81728   1.003  19.707   1.949
 9469W        W81729   1.263  43.807   0.478
 9470W        W81730  38.141  32.536   3.787
 9471W        W81731  10.413  21.208  10.619
 9472W        W81732  25.650  31.776   3.685
 9473W        W81733   1.045  11.822  11.716
 9474W        W81734  34.906  37.946   4.297
 9475W        W81735  26.402  42.339   4.298
 9476W        W81736  41.205  32.137  13.861
 9477W        W81737   3.679  32.164   4.648
 9478W        W81738   9.435  20.475  13.599
 9479W        W81739  41.356  31.137   0.549
 9480W        W81740  42.011  28.074   2.261
 9481W        W81741   1.750  23.542   3.326
 9482W        W81742  12.223  18.200   4.075
 9483W        W81743  26.106  44.843  13.379
 9484W        W81744  39.825  32.715   2.367
 9485W        W81745  29.627  38.607   2.246
 9486W        W81746  38.487  42.264  12.961
 9487W        W81747  29.393  28.053  11.417
 9488W        W81748  44.428  42.025   3.912
 9489W        W81749  28.938  18.200   4.459
 9490W        W81750  39.296   6.735   2.739
 9491W        W81751  34.844   5.193  13.371
 9492W        W81752   7.803  32.369  14.316
 9493W        W81753  21.609  12.307  11.552
 9494W        W81754  38.789  32.077  13.206
 9495W        W81755  19.370  40.722  12.298
 9496W        W81756  19.614  30.881   0.501
 9497W        W81757  20.133  37.979  14.447
 9498W        W81758  29.086   7.736   1.404
 9499W        W81759   9.839  33.019   3.347
 9500W        W81760   9.640  28.571  14.076
 9501W        W81761  12.725  20.096   1.801
 9502W        W81762  12.584  30.964   4.620
 9503W        W81763  25.894  31.974  12.415
 9504W        W81764   5.957  30.674   0.347
 9505W        W81765   3.284  28.139  12.900
 9506W        W81766  43.235  25.740   1.842
 9507W        W81767  20.588   5.147   4.403
 9508W        W81768  29.518   9.864  11.645
 9509W        W81769  19.441  27.095   2.329
 9510W        W81770  42.443  36.431  13.107
 9511W        W81771  22.993  16.142   3.272
 9512W        W81772  26.408  38.586   4.980
 9513W        W81773  35.675   7.771   2.304
 9514W        W81774  31.917  10.582   0.577
 9515W        W81775   1.260   2.897   1.242
 9516W        W81776  11.708  29.732  12.958
 9517W        W81777  29.204  15.193  13.261
 9518W        W81778  11.133  30.407  14.512
 9519W        W81779  31.740   3.978  11.693
 9520W        W81780   5.959   8.634  12.860
 9521W        W81781  44.402  11.145  12.189
 9522W        W81782  10.314  20.982  14.903
 9523W        W81783  11.768  16.442  11.301
 9524W        W81784  35.923  31.478   1.153
 9525W        W81785  44.322  41.267   3.168
 9526W        W81786   5.661  40.557   3.236
 9527W        W81787  14.222   1.823   3.811
 9528W        W81788  40.552  35.503  11.064
 9529W        W81789  20.460  39.267  12.492
 9530W        W81790  35.178  27.512  10.857
 9531W        W81791  18.709  31.121   1.774
 9532W        W81792  23.935  41.265   4.114
 9533W        W81793  14.727   5.998  11.496
 9534W        W81794   8.099  37.572  11.103
 9535W        W81795  40.056   7.113  10.603
 9536W        W81796  35.398  37.899  14.994
 9537W        W81797  17.093  38.004   2.702
 9538W        W81798  36.553  31.463   1.884
 9539W        W81799  44.212   3.459  11.117
 9540W        W81800  11.231   3.011   2.789
 9541W        W81801  11.253  39.114  12.144
 9542W        W81802  43.238  20.610   1.194
 9543W        W81803   8.420  39.953  13.441
 9544W        W81804  24.575  42.332  10.939
 9545W        W81805  13.804  27.920   3.558
 9546W        W81806  41.784  38.898  13.001
 9547W        W81807   4.762   6.490   4.132
 9548W        W81808  34.910  12.915  11.300
 9549W        W81809   9.785   4.236  13.538
 9550W        W81810  22.067  34.224  12.624
 9551W        W81811  13.955  22.683   0.242
 9552W        W81812  32.276  34.693  13.383
 9553W        W81813  15.800  34.536  11.526
 9554W        W81814   6.481  27.369  13.601
 9555W        W81815  32.169  11.395  13.502
 9556W        W81816  13.288  39.439   0.003
 9557W        W81817  43.978  32.490   4.578
 9558W        W81818   5.366  14.110   1.530
 9559W        W81819  25.035   5.723  12.462
 9560W        W81820  40.654  12.241   2.794
 9561W        W81821  37.430  35.012   2.793
 9562W        W81822   7.860   6.980   0.809
 9563W        W81823   9.166  40.641   1.209
 9564W        W81824  30.311  44.476   4.081
 9565W        W81825  12.581  19.192  11.582
 9566W        W81826  25.501  20.856   1.819
 9567W        W81827  28.930  39.199   0.738
 9568W        W81828  38.138  22.916  12.049
 9569W        W81829  37.353  15.854   2.860
 9570W        W81830  15.378  15.126  11.797
 9571W        W81831  15.057  38.373  13.671
 9572W        W81832  30.497  41.019   4.243
 9573W        W81833  29.918  42.722   2.924
 9574W        W81834  11.850  14.789  13.839
 9575W        W81835   4.531  12.180  11.552
 9576W        W81836   3.362   6.496  14.883
 9577W        W81837  20.093   2.727   1.190
 9578W        W81838   1.447  34.898   1.925
 9579W        W81839  25.680  33.645  14.653
 9580W        W81840  37.818  16.220   2.725
 9581W        W81841  11.762  22.231  12.879
 9582W        W81842  10.628   1.700   4.652
 9583W        W81843  29.557  30.157  13.353
 9584W        W81844  38.858  23.886   0.749
 9585W        W81845  19.746  21.691  13.663
 9586W        W81846   2.310  16.601  10.549
 9587W        W81847  31.598  16.044   3.990
 9588W        W81848  24.606  12.584  14.935
 9589W        W81849   3.246  16.393  14.394
 9590W        W81850   1.521  34.565   3.211
 9591W        W81851  17.254   7.617  13.753
 9592W        W81852  44.931  12.452  11.150
 9593W        W81853  17.156  19.068   4.603
 9594W        W81854  32.432  33.184   0.475
 9595W        W81855   9.849  22.043  10.978
 9596W        W81856   7.621  32.542   3.126
 9597W        W81857  35.438  35.491   3.624
 9598W        W81858  43.397  39.742   1.344
 9599W        W81859  25.401  26.544   1.818
 9600W        W81860  43.825  43.543  12.225
 9601W        W81861  15.050  18.150   2.916
 9602W        W81862  44.985   4.323  13.364
 9603W        W81863  35.015  28.617   1.874
 9604W        W81864   5.836   4.281   1.285
 9605W        W81865  23.289  34.842  12.344
 9606W        W81866   6.790  29.182  13.892
 9607W        W81867  23.633   1.173  10.986
 9608W        W81868  20.131  42.515   2.021
 9609W        W81869   6.810  24.589   4.139
 9610W        W81870  40.109   0.170  11.593
 9611W        W81871  40.179  25.461   4.098
 9612W        W81872   7.310  39.279   0.857
 9613W        W81873  34.326  17.088   0.194
 9614W        W81874  32.950  13.411  11.911
 9615W        W81875  18.508  23.137  12.538
 9616W        W81876  35.869  16.630  12.098
 9617W        W81877  33.471  28.018  11.336
 9618W        W81878  31.916  17.628  11.560
 9619W        W81879   2.459  43.536   2.700
 9620W        W81880   5.350  25.052   0.269
 9621W        W81881  39.505   4.328   3.171
 9622W        W81882  25.213  42.505   3.742
 9623W        W81883  27.615  24.095  12.681
 9624W        W81884  17.099  12.048  13.133
 9625W        W81885  34.289  30.175   0.275
 9626W        W81886   9.912  37.081   9.894
 9627W        W81887  23.038  35.315   3.892
 9628W        W81888  21.250   0.661   0.279
 9629W        W81889  40.935  24.045   2.838
 9630W        W81890   2.201  41.604  13.821
 9631W        W81891  34.884  43.507  13.420
 9632W        W81892   7.321   4.994  11.042
 9633W        W81893  18.607  35.106  13.552
 9634W        W81894  42.752  37.907   2.759
 9635W        W81895  32.952   3.152   2.924
 9636W        W81896   1.487  29.641   3.284
 9637W        W81897   7.763  16.021   2.857
 9638W        W81898  25.510  10.638   2.663
 9639W        W81899  10.549  33.899   1.366
 9640W        W81900  12.513  17.517  14.045
 9641W        W81901   5.532  28.701   4.165
 9642W        W81902  43.422  30.547  14.009
 9643W        W81903  43.336   6.838  12.518
 9644W        W81904  37.873  35.814  12.377
 9645W        W81905  35.548  22.426   4.550
 9646W        W81906  41.986  37.735   4.791
 9647W        W81907  10.755  33.067   1.933
 9648W        W81908  12.661  27.803  10.229
 9649W        W81909   6.186  24.970  10.665
 9650W        W81910   6.216   7.756   3.792
 9651W        W81911  12.281  20.980  14.926
 9652W        W81912  20.633   0.377   2.347
 9653W        W81913  43.003  39.301  11.639
 9654W        W81914  12.322  16.103  14.294
 9655W        W81915  43.192   5.645   2.818
 9656W        W81916   5.935  11.623   3.927
 9657W        W81917  30.563  35.529   2.592
 9658W        W81918  27.838   0.917   0.411
 9659W        W81919  33.874  13.262  12.891
 9660W        W81920  21.760  41.041   0.274
 9661W        W81921  34.513   8.229  10.857
 9662W        W81922  33.943  24.734  14.974
 9663W        W81923  20.125  14.845   3.169
 9664W        W81924  40.478   0.885   4.690
 9665W        W81925  22.132  20.573   0.873
 9666W        W81926  27.259  14.589   2.737
 9667W        W81927  41.875  37.395  13.084
 9668W        W81928  11.145  39.842   3.733
 9669W        W81929  17.139  38.316   3.339
 9670W        W81930   0.870  14.631   0.782
 9671W        W81931  24.985  34.703  12.098
 9672W        W81932  16.665  39.728   4.523
 9673W        W81933   0.986  10.710   2.633
 9674W        W81934  38.387  28.996  11.509
 9675W        W81935  33.662   3.825  13.507
 9676W        W81936  21.727  38.791  12.551
 9677W        W81937  25.214  27.978  12.051
 9678W        W81938  39.510  17.607   4.578
 9679W        W81939  41.580  13.588   3.273
 9680W        W81940  41.063  20.920  14.860
 9681W        W81941  43.178  27.792   0.290
 9682W        W81942  42.314   0.409   3.002
 9683W        W81943  18.314  11.682  13.492
 9684W        W81944  19.036  20.764   3.254
 9685W        W81945  41.795  14.042  11.254
 9686W        W81946  33.391   0.608   0.253
 9687W        W81947   6.419  36.061  14.428
 9688W        W81948  42.679  25.104   3.057
 9689W        W81949  23.141  25.857   0.452
 9690W        W81950  33.386  27.968   3.674
 9691W        W81951  41.644  13.429  12.659
 9692W        W81952  18.261  31.207   3.121
 9693W        W81953  34.829   1.863   5.185
 9694W        W81954   5.411  23.479  11.135
 9695W        W81955   5.206  31.447  11.904
 9696W        W81956  27.243  23.136   3.735
 9697W        W81957  23.622  13.278   0.286
 9698W        W81958  19.546  38.273   1.015
 9699W        W81959  28.849  25.715  14.118
 9700W        W81960  42.829  18.178   4.595
 9701W        W81961  14.784  19.680   1.303
 9702W        W81962  32.689  43.045   4.553
 9703W        W81963  44.715  21.602  10.474
 9704W        W81964  31.030  12.794  10.541
 9705W        W81965  26.580  35.047   3.756
 9706W        W81966  17.784  31.877   3.412
 9707W        W81967   1.352  22.552  13.804
 9708W        W81968  35.935  36.682   1.742
 9709W        W81969  36.397   4.888  13.074
 9710W        W81970  36.231  22.781  13.898
 9711W        W81971  37.565  20.663  10.097
 9712W        W81972  24.708  32.385  11.116
 9713W        W81973   4.938  16.955  10.277
 9714W        W81974   7.909  26.408   3.675
 9715W        W81975   9.107   7.451  11.016
 9716W        W81976   2.345   3.130  14.461
 9717W        W81977  28.456  10.952   1.267
 9718W        W81978   1.209  43.063   2.524
 9719W        W81979   0.485   4.344   3.222
 9720W        W81980  37.687  23.005  13.760
 9721W        W81981   7.809  18.190  14.032
 9722W        W81982  17.348  38.563  14.450
 9723W        W81983   6.113  43.939  12.481
 9724W        W81984   2.263  37.070  14.120
 9725W        W81985  24.732   3.986  11.141
 9726W        W81986  30.186  33.914  13.675
 9727W        W81987  40.267   8.231   1.923
 9728W        W81988  33.383  44.886   2.693
 9729W        W81989  17.353  35.561  13.868
 9730W        W81990  15.739  31.296  12.812
 9731W        W81991   1.409  35.477  13.384
 9732W        W81992   5.779  24.648  13.632
 9733W        W81993  24.476  37.727  14.905
 9734W        W81994   0.496  43.166   4.179
 9735W        W81995  33.059   8.729   3.212
 9736W        W81996  39.904  11.691   1.586
 9737W        W81997  36.802   4.858  13.404
 9738W        W81998  38.972  34.463   1.239
 9739W        W81999  40.069  15.452   4.821
 9740W        W82000  37.121  23.606   2.216
 9741W        W82001  38.564   5.986  13.348
 9742W        W82002  17.339  34.659  11.133
 9743W        W82003  44.948   7.449   2.672
 9744W        W82004  35.476  44.371  12.838
 9745W        W82005   3.764   7.052   3.588
 9746W        W82006  18.148  30.763  11.667
 9747W        W82007   5.909  23.699   1.882
 9748W        W82008  34.106  27.024   1.899
 9749W        W82009  34.601  12.923  13.122
 9750W        W82010  18.755   6.498  12.947
 9751W        W82011  43.998   7.166   2.335
 9752W        W82012   3.039  25.742   0.204
 9753W        W82013  12.560  25.049   2.858
 9754W        W82014  12.867   9.395   2.925
 9755W        W82015  37.165  10.115   4.183
 9756W        W82016  21.542   3.844   3.241
 9757W        W82017  31.455  27.130   4.403
 9758W        W82018  22.721  40.538   0.011
 9759W        W82019   5.500   5.303   4.278
 9760W        W82020  11.111  30.689   0.304
 9761W        W82021  36.576  16.587  14.786
 9762W        W82022  28.748  36.800   0.015
 9763W        W82023  11.952  18.778  14.764
 9764W        W82024  12.343  44.903  11.090
 9765W        W82025   3.900  26.454  13.305
 9766W        W82026  18.894  24.661  13.539
 9767W        W82027   5.901  28.052  10.762
 9768W        W82028  34.106  40.036  12.448
 9769W        W82029   1.250  37.826  11.429
 9770W        W82030   4.902  27.637   2.401
 9771W        W82031  28.906  25.151  12.446
 9772W        W82032   6.954  34.891   4.064
 9773W        W82033  37.395  33.483   4.996
 9774W        W82034  13.126  35.035  13.070
 9775W        W82035  22.282   8.750  13.279
 9776W        W82036  28.972  43.889  14.350
 9777W        W82037   6.023  27.586  13.519
 9778W        W82038  33.256  20.292  14.880
 9779W        W82039   8.610  36.643   0.824
 9780W        W82040  13.927  22.118  12.848
 9781W        W82041  19.718  17.084  11.781
 9782W        W82042  15.513  11.252   2.922
 9783W        W82043  40.980  41.699   2.179
 9784W        W82044  44.573  14.567  13.873
 9785W        W82045  32.986   4.656   0.368
 9786W        W82046  22.051  10.642  11.167
 9787W        W82047  13.721   7.427   0.826
 9788W        W82048  41.598  32.517  14.775
 9789W        W82049  14.664  12.030  12.897
 9790W        W82050  23.010  26.350  10.987
 9791W        W82051  36.368  36.495  13.574
 9792W        W82052   3.844  17.748   1.292
 9793W        W82053  30.977  42.143  14.826
 9794W        W82054   2.266   8.385   1.609
 9795W        W82055   0.327  15.402   2.941
 9796W        W82056  17.778   6.055  14.334
 9797W        W82057   6.811  12.653   3.836
 9798W        W82058  19.790  43.294  13.167
 9799W        W82059  31.205  40.944   3.457
 9800W        W82060  18.327   9.528  13.769
 9801W        W82061  38.281  40.809   0.349
 9802W        W82062  28.555   1.331   0.948
 9803W        W82063   8.623   4.248  14.807
 9804W        W82064  33.030  36.861  14.771
 9805W        W82065   1.471   0.774   4.511
 9806W        W82066  23.614  22.504  14.374
 9807W        W82067  22.564   4.477   4.812
 9808W        W82068  43.596   0.755   1.223
 9809W        W82069  14.478  19.989   2.955
 9810W        W82070  25.232   1.285   4.579
 9811W        W82071  38.830  30.782   2.860
 9812W        W82072  15.241  19.258   3.847
 9813W        W82073  35.363  24.538   3.314
 9814W        W82074  13.249  30.293   1.715
 9815W        W82075  22.272   5.506  10.447
 9816W        W82076   5.557  31.404  14.893
 9817W        W82077  20.625  42.118   1.214
 9818W        W82078  16.789  15.432  13.597
 9819W        W82079  20.987  11.332  11.577
 9820W        W82080  27.467  24.998   3.032
 9821W        W82081  27.425   2.302  13.824
 9822W        W82082  42.807  21.375  10.454
 9823W        W82083  15.721  38.337   1.022
 9824W        W82084  32.286  28.641  10.936
 9825W        W82085   0.820  25.689  14.920
 9826W        W82086  35.334   1.805   4.770
 9827W        W82087  25.745  42.783  13.853
 9828W        W82088   0.354  22.654   3.678
 9829W        W82089  10.187   0.788   4.406
 9830W        W82090  38.805  31.385   5.367
 9831W        W82091  40.425  18.300  10.663
 9832W        W82092  20.540   2.408   3.810
 9833W        W82093   0.956  39.854  13.645
 9834W        W82094   7.965   6.433  11.056
 9835W        W82095  39.045  20.259   3.522
 9836W        W82096  43.164   9.256  14.531
 9837W        W82097   4.174   2.817   4.973
 9838W        W82098  18.623  43.697   1.684
 9839W        W82099  24.661   1.717   3.029
 9840W        W82100  16.449  17.822   1.880
 9841W        W82101  33.662  21.705   2.255
 9842W        W82102  34.460  27.030  13.586
 9843W        W82103  15.153  29.146  11.834
 9844W        W82104  32.030  37.085   1.783
 9845W        W82105  32.060   2.791   4.757
 9846W        W82106  27.558  22.683  11.498
 9847W        W82107  17.578  44.407  12.462
 9848W        W82108   7.379  42.043  11.555
 9849W        W82109  26.072  40.489   3.855
 9850W        W82110  31.043  24.032   4.227
 9851W        W82111   5.717  35.460   0.292
 9852W        W82112  34.230  13.780  11.548
 9853W        W82113  44.251  27.804  11.258
 9854W        W82114  41.012  39.888  11.661
 9855W        W82115  13.489  10.057   0.859
 9856W        W82116   9.898  17.680   3.739
 9857W        W82117   3.260  13.455  14.619
 9858W        W82118  23.682  24.203   1.808
 9859W        W82119   1.719   5.801   4.657
 9860W        W82120   5.419  34.876  11.125
 9861W        W82121  14.639  20.487  12.036
 9862W        W82122  39.439   7.330  11.531
 9863W        W82123   1.666  32.325   1.915
 9864W        W82124  19.741  23.021   1.162
 9865W        W82125  42.866   3.827  13.931
 9866W        W82126  15.750  43.913  10.306
 9867W        W82127   1.707  28.494   1.892
 9868W        W82128  42.977   5.109   2.887
 9869W        W82129   9.823  44.537  12.008
 9870W        W82130  25.134  28.473  10.480
 9871W        W82131  35.144  30.014  12.529
 9872W        W82132  30.687  12.623  12.416
 9873W        W82133  39.230  34.313   1.929
 9874W        W82134   9.423  26.922   1.350
 9875W        W82135  32.883  42.877  14.518
 9876W        W82136  22.608  22.002   9.784
 9877W        W82137  30.162  33.707   3.763
 9878W        W82138  41.840  13.739   1.906
 9879W        W82139  22.481  30.084  13.564
 9880W        W82140  43.150  31.418   1.404
 9881W        W82141  11.637   7.358   0.281
 9882W        W82142  22.482  15.566  11.723
 9883W        W82143  10.861  21.509   4.454
 9884W        W82144   6.821  42.256  10.412
 9885W        W82145  25.171  21.980  12.895
 9886W        W82146   6.007  41.623   2.349
 9887W        W82147  38.544  28.896   4.791
 9888W        W82148  33.422  19.513  11.613
 9889W        W82149  11.278  39.503   2.346
 9890W        W82150  19.325  16.176  12.017
 9891W        W82151   0.056  37.166  14.227
 9892W        W82152   4.414  30.386  11.901
 9893W        W82153   6.115  11.751   4.641
 9894W        W82154  26.810  31.797  11.184
 9895W        W82155  28.643  16.409   1.750
 9896W        W82156  33.552   1.076   2.411
 9897W        W82157  37.010  23.574  13.094
 9898W        W82158  22.723  39.549  12.287
 9899W        W82159  23.234  35.411   4.380
 9900W        W82160  16.375  23.588   4.831
 9901W        W82161  19.763  36.402   0.063
 9902W        W82162  35.979  14.070  10.411
 9903W        W82163  42.780  32.629   3.190
 9904W        W82164  12.372  14.750  13.842
 9905W        W82165  31.969   9.743  14.763
 9906W        W82166  22.587  38.525  11.681
 9907W        W82167  39.870  41.000  11.653
 9908W        W82168  29.683   4.424   0.364
 9909W        W82169  29.883  11.578  13.573
 9910W        W82170  12.053  25.104  12.898
 9911W        W82171   0.879  33.038   3.801
 9912W        W82172  42.484   4.391  11.428
 9913W        W82173  40.808  39.662   3.010
 9914W        W82174  23.777  25.652   1.812
 9915W        W82175  18.298   7.952  10.211
 9916W        W82176  17.802  34.842   1.208
 9917W        W82177  32.731  40.675  12.571
 9918W        W82178  33.403  32.396  12.538
 9919W        W82179  34.527  30.029  10.545
 9920W        W82180  23.282  32.128  13.377
 9921W        W82181   0.391  38.987   0.374
 9922W        W82182  16.194  42.440   0.028
 9923W        W82183   8.393  27.140   0.802
 9924W        W82184  28.055  11.555   3.684
 9925W        W82185  34.172   4.336  10.592
 9926W        W82186   8.221  20.266   0.775
 9927W        W82187  22.634   2.627  11.936
 9928W        W82188  21.225  13.797  11.561
 9929W        W82189  15.652  17.473   4.099
 9930W        W82190  44.242   7.645   2.289
 9931W        W82191  37.832  21.174  10.704
 9932W        W82192   1.270  17.227  14.778
 9933W        W82193  27.447  22.126  12.185
 9934W        W82194  35.162   4.701  10.562
 9935W        W82195  40.029   0.004   2.206
 9936W        W82196  20.888  22.241  13.053
 9937W        W82197   6.259  27.189   1.094
 9938W        W82198  10.894   1.445  11.620
 9939W        W82199   7.858  30.418   0.287
 9940W        W82200  19.538  23.096  12.407
 9941W        W82201  19.729  39.302  14.934
 9942W        W82202  41.070  23.994   0.846
 9943W        W82203  30.916  42.978  12.964
 9944W        W82204  10.872  38.425  15.000
 9945W        W82205  20.858  40.985  13.868
 9946W        W82206   8.618  31.475   2.163
 9947W        W82207   7.134  26.023   0.152
 9948W        W82208  24.105  18.321   3.741
 9949W        W82209  33.800  15.878  14.859
 9950W        W82210  16.162   2.978   0.025
 9951W        W82211  42.999   9.906  11.494
 9952W        W82212   4.911  32.512   2.281
 9953W        W82213  20.742  24.246   4.168
 9954W        W82214  30.994  16.654  12.487
 9955W        W82215  17.375  19.519   4.430
 9956W        W82216  40.567  20.367   3.807
 9957W        W82217  17.303  30.067   2.344
 9958W        W82218  41.418  25.037  11.945
 9959W        W82219   5.528  12.374   4.415
 9960W        W82220   9.796  30.082   4.588
 9961W        W82221  26.669  29.483  11.044
 9962W        W82222  21.757  30.124  13.783
 9963W        W82223  37.361  37.966   2.190
 9964W        W82224   5.471  13.647  10.830
 9965W        W82225  17.707  15.393   3.289
 9966W        W82226  31.487  19.937   0.410
 9967W        W82227  44.142  26.511  11.516
 9968W        W82228  37.395  39.712  11.283
 9969W        W82229  40.930   6.255  10.757
 9970W        W82230  12.846  38.413  13.020
 9971W        W82231   4.233  37.032  12.350
 9972W        W82232  40.496  42.318  13.858
 9973W        W82233  42.523  44.549   2.520
 9974W        W82234  25.040   4.697   4.076
 9975W        W82235  29.045  22.531  11.553
 9976W        W82236   1.024  43.305   3.648
 9977W        W82237  34.610  18.328  12.970
 9978W        W82238   3.023   6.653  11.617
 9979W        W82239  27.730  31.055   5.447
 9980W        W82240  11.036   5.113   0.168
 9981W        W82241  35.330  23.765   3.561
 9982W        W82242  12.796  36.546   3.696
 9983W        W82243   3.192  13.193   4.132
 9984W        W82244   8.448   5.668   2.934
 9985W        W82245   0.051  16.618  12.447
 9986W        W82246   1.938  28.597  14.575
 9987W        W82247  16.667  15.885   1.228
 9988W        W82248   0.762   6.431   4.666
 9989W        W82249   8.140  38.065   3.227
 9990W        W82250  40.534  38.407   4.028
 9991W        W82251  28.320  30.548  10.203
 9992W        W82252  38.639   0.352   0.725
 9993W        W82253   1.783  10.408  14.744
 9994W        W82254  17.122  18.828  12.815
 9995W        W82255  21.790   6.458   4.172
 9996W        W82256  24.831  23.716  11.568
 9997W        W82257  34.046   1.762   2.522
 9998W        W82258  16.036  40.366   1.631
 9999W        W82259  32.113  39.812   2.826
10000W        W82260  11.892   0.342   4.250
10001W        W82261  43.043  18.936   0.000
10002W        W82262  11.155   3.964  12.051
10003W        W82263   4.293  15.773  14.694
10004W        W82264  32.361  26.159  12.465
10005W        W82265   4.803  26.321   9.902
10006W        W82266  32.412  12.143   4.103
10007W        W82267  28.225  26.679   2.135
10008W        W82268   8.346   7.246  12.892
10009W        W82269   9.162  40.160   1.443
10010W        W82270   3.740   2.959   1.719
10011W        W82271  20.265  12.714  12.871
10012W        W82272  38.991  16.188  14.071
10013W        W82273  44.287   5.155  10.645
10014W        W82274  31.460  41.601   2.815
10015W        W82275  29.468  43.699  14.185
10016W        W82276  39.801  36.602  12.081
10017W        W82277  33.631  33.084  14.721
10018W        W82278   4.069  29.022  10.810
10019W        W82279  35.956  16.111   2.788
10020W        W82280  36.529  22.659  10.294
10021W        W82281  14.641  30.250   3.263
10022W        W82282   8.313  27.177   3.727
10023W        W82283  18.360  34.676   2.613
10024W        W82284  26.228  33.423   3.544
10025W        W82285  41.048  10.978   1.949
10026W        W82286  42.400  19.046   2.139
10027W        W82287  36.448  35.337   0.987
10028W        W82288  21.203   8.322  12.673
10029W        W82289  17.603  44.759   4.200
10030W        W82290   3.366  21.698  12.917
10031W        W82291  12.688  24.176   0.895
10032W        W82292  11.772  42.630  13.449
10033W        W82293  12.728  12.420  11.680
10034W        W82294   3.897   2.873  12.571
10035W        W82295   2.481  10.205  14.403
10036W        W82296  25.015   1.943  10.974
10037W        W82297  38.378  34.387   3.757
10038W        W82298  28.645  23.840  14.899
10039W        W82299  10.776   1.624  10.764
10040W        W82300   3.865  15.744  10.014
10041W        W82301   8.739   2.146   3.146
10042W        W82302  36.113   8.898  12.664
10043W        W82303  43.449  23.006   0.869
10044W        W82304  42.236   6.776  10.685
10045W        W82305  17.621  37.253   4.578
10046W        W82306  31.974   4.464   0.993
10047W        W82307   0.778   9.814   1.901
10048W        W82308  43.184   0.438   2.985
10049W        W82309   5.332  36.094   1.886
10050W        W82310  14.685  35.545   2.916
10051W        W82311   0.422   3.430  12.956
10052W        W82312  24.714  26.999  14.691
10053W        W82313  25.422  34.188  12.857
10054W        W82314  32.661   4.237  14.874
10055W        W82315   3.244   7.838  10.761
10056W        W82316  44.487   9.782   3.708
10057W        W82317   6.847  11.685   4.099
10058W        W82318   5.594  43.458   2.215
10059W        W82319  40.559  31.931   3.291
10060W        W82320  43.844  12.323   2.802
10061W        W82321  11.433  42.623   3.275
10062W        W82322   3.939  10.459   4.303
10063W        W82323  33.448   1.930   3.612
10064W        W82324  22.699  15.464   2.779
10065W        W82325  13.415   2.890   1.207
10066W        W82326   7.886  10.160   0.155
10067W        W82327  29.656  10.361   0.875
10068W        W82328  17.208  13.107   4.492
10069W        W82329  35.024  25.974   2.104
10070W        W82330   6.370   2.241   4.639
10071W        W82331  24.114   1.936  11.418
10072W        W82332  16.437   1.570   4.022
10073W        W82333  26.291  41.430  13.905
10074W        W82334   9.413  10.206  10.883
10075W        W82335  11.130   0.269  14.897
10076W        W82336  20.720   7.600   0.259
10077W        W82337  40.514  14.681   3.678
10078W        W82338  44.947   1.996  13.710
10079W        W82339   6.395  16.494  13.445
10080W        W82340  26.190   0.540   1.698
10081W        W82341  39.967  43.238   0.451
10082W        W82342  31.111   1.784   1.409
10083W        W82343  15.219  36.812  10.364
10084W        W82344  44.677  38.576   3.082
10085W        W82345  20.181  12.995   0.974
10086W        W82346  28.041  24.063   2.340
10087W        W82347  42.242   1.785   3.756
10088W        W82348  28.977   5.918  13.788
10089W        W82349   7.429  18.064   3.730
10090W        W82350  21.023  36.371  14.417
10091W        W82351  31.616  12.396   3.201
10092W        W82352   0.906  16.807   1.256
10093W        W82353  22.172   5.439  12.821
10094W        W82354  41.330   7.710  14.407
10095W        W82355  39.022   2.944  11.527
10096W        W82356  16.966  42.191  14.998
10097W        W82357  23.098  10.947   2.744
10098W        W82358  22.673   3.145  12.021
10099W        W82359  28.062  30.644   4.600
10100W        W82360  12.720  15.572   5.023
10101W        W82361  39.677  10.264   0.407
10102W        W82362  30.583  41.067   0.394
10103W        W82363  15.115  38.524   1.997
10104W        W82364  13.884  38.046   0.585
10105W        W82365  15.346  19.297  11.205
10106W        W82366  16.266   3.938   0.246
10107W        W82367  29.553  13.363  10.985
10108W        W82368  37.414  30.882   0.372
10109W        W82369  36.340   7.488  12.872
10110W        W82370  34.536  31.921   0.856
10111W        W82371  31.874   4.824  14.890
10112W        W82372  28.013  22.451  10.609
10113W        W82373  37.582   7.362  13.918
10114W        W82374  25.446  15.071   4.303
10115W        W82375  30.651  35.407  12.581
10116W        W82376  29.601  25.434  12.877
10117W        W82377  37.530   1.486   4.417
10118W        W82378   5.940  13.608   1.028
10119W        W82379  20.551  30.067   4.728
10120W        W82380  24.974   0.850   2.820
10121W        W82381   7.273  11.861  13.985
10122W        W82382  44.790  15.736   3.759
10123W        W82383  20.838  30.712   2.320
10124W        W82384  12.634   8.101   2.210
10125W        W82385  15.261  31.271   4.641
10126W        W82386  27.130  36.254  14.342
10127W        W82387   0.333   7.328  13.112
10128W        W82388   4.411  13.342  12.194
10129W        W82389   5.053  31.117  13.136
10130W        W82390   0.844   6.743  10.544
10131W        W82391  28.109  21.658   0.316
10132W        W82392  39.365  23.085  12.943
10133W        W82393   3.229  26.393   4.043
10134W        W82394   9.433  41.556   0.850
10135W        W82395   0.581   4.811  13.957
10136W        W82396   5.835  34.872  11.426
10137W        W82397  34.401   0.520   3.595
10138W        W82398  23.314   0.461   0.726
10139W        W82399  32.608  39.989  11.626
10140W        W82400  43.248  38.976  13.979
10141W        W82401  11.633  42.867  11.145
10142W        W82402  31.937  32.923   2.674
10143W        W82403   3.854  15.726  10.702
10144W        W82404  44.799  27.225   4.280
10145W        W82405  12.615  11.305   0.759
10146W        W82406  39.039   1.988  14.497
10147W        W82407   6.389  34.062  11.891
10148W        W82408  43.280  31.145   0.963
10149W        W82409   1.472  31.444  11.320
10150W        W82410  39.910   8.384  13.456
10151W        W82411  43.700   1.248  11.622
10152W        W82412  13.650  44.886  11.377
10153W        W82413  27.123  13.807  10.799
10154W        W82414  32.416  39.183  10.696
10155W        W82415  40.007  33.887   3.223
10156W        W82416  22.989   7.239  14.449
10157W        W82417  17.282  20.642  14.823
10158W        W82418   5.105  24.714  14.163
10159W        W82419  44.994  13.567  12.540
10160W        W82420  23.719  26.681   1.238
10161W        W82421   8.195  36.990   2.336
10162W        W82422  23.331  29.033   4.790
10163W        W82423  19.526   3.479  13.145
10164W        W82424  43.434  25.216  10.487
10165W        W82425  33.185  41.422   1.325
10166W        W82426   0.432  21.887   1.151
10167W        W82427   3.304   7.458  13.067
10168W        W82428  36.039  32.353  11.580
10169W        W82429  20.730   3.327   2.131
10170W        W82430  12.241  41.383  12.426
10171W        W82431  17.653  39.055  10.535
10172W        W82432  31.865   2.027  12.584
10173W        W82433   9.814   3.222   1.354
10174W        W82434  14.315  32.530  14.980
10175W        W82435  40.092   9.411  13.406
10176W        W82436  14.325   9.952   0.161
10177W        W82437  15.782  32.164  11.617
10178W        W82438   3.855   3.558   0.340
10179W        W82439  24.540  14.222   0.801
10180W        W82440  10.372  32.954  11.975
10181W        W82441  35.472   2.983  13.983
10182W        W82442  18.194   1.713   1.224
10183W        W82443  19.104  32.097  14.024
10184W        W82444  23.790  26.954   3.656
10185W        W82445  13.721   9.784   3.649
10186W        W82446  20.472  15.032  13.079
10187W        W82447  37.896  44.246  13.132
10188W        W82448  33.137  28.414   2.423
10189W        W82449  23.035  37.412   3.753
10190W        W82450   4.380   6.656  11.605
10191W        W82451  32.096  44.234  12.022
10192W        W82452  31.443  25.756   4.587
10193W        W82453  17.099  32.428  10.691
10194W        W82454  39.997  15.234  14.641
10195W        W82455  25.114   8.003   4.203
10196W        W82456   5.364  35.899   2.364
10197W        W82457   6.942  28.883  10.872
10198W        W82458  31.028  14.248   4.108
10199W        W82459   9.404   2.745   0.850
10200W        W82460  12.333  13.332   1.648
10201W        W82461   8.692   7.895  14.937
10202W        W82462  37.963  36.790  14.485
10203W        W82463  18.735  21.562  14.947
10204W        W82464  13.922  10.214   4.686
10205W        W82465  31.445  31.296   3.756
10206W        W82466  37.493   2.405   4.462
10207W        W82467   8.907  34.519  12.035
10208W        W82468  10.299   2.385   4.869
10209W        W82469   5.700  44.281   2.240
10210W        W82470  26.514  43.544   3.256
10211W        W82471  22.608  37.054  10.417
10212W        W82472  25.165  27.119   3.654
10213W        W82473  33.528  10.112   5.029
10214W        W82474  14.659  37.922   4.238
10215W        W82475  20.518  32.945  11.429
10216W        W82476  32.931   8.691  13.817
10217W        W82477  39.571  30.148   0.889
10218W        W82478  13.893  24.556  13.154
10219W        W82479  18.867  43.371  11.714
10220W        W82480  18.429  10.017  13.923
10221W        W82481  35.961  30.612  13.091
10222W        W82482  41.039   5.319   2.142
10223W        W82483  29.711   0.372   3.231
10224W        W82484  27.559  18.635  13.503
10225W        W82485  25.307   8.391  12.089
10226W        W82486  14.830  27.879  11.428
10227W        W82487   7.663   0.929   0.242
10228W        W82488  36.453  34.994   0.564
10229W        W82489   6.001  28.484   4.208
10230W        W82490   1.798  41.827  10.618
10231W        W82491  24.521   6.191   2.140
10232W        W82492  31.456  14.258   4.404
10233W        W82493  24.693  21.824   0.466
10234W        W82494   8.349   0.172  14.435
10235W        W82495  33.473   3.892  13.983
10236W        W82496  19.032  28.456   2.657
10237W        W82497  17.561   7.192  12.006
10238W        W82498  21.494  38.239   0.909
10239W        W82499  10.058  32.628   0.774
10240W        W82500  27.811   7.646   0.525
10241W        W82501  39.196   7.293   5.093
10242W        W82502   0.981  29.135   0.252
10243W        W82503  10.832   5.939  11.207
10244W        W82504   1.842  22.243  13.125
10245W        W82505  10.375  44.053  13.373
10246W        W82506  23.972   8.389  13.049
10247W        W82507  24.820  33.533   2.191
10248W        W82508  14.391  38.050  10.907
10249W        W82509  10.783  21.108   4.803
10250W        W82510  11.599  25.993  13.003
10251W        W82511  36.010  41.576  10.994
10252W        W82512  13.092  33.056  14.841
10253W        W82513  26.934  27.472  14.085
10254W        W82514  23.731  18.012   4.683
10255W        W82515  12.314  36.634   0.317
10256W        W82516  34.770  42.057   0.228
10257W        W82517  35.008  22.543  14.403
10258W        W82518   4.256   3.705   3.667
10259W        W82519  19.076  37.952  10.455
10260W        W82520  26.755  15.079   3.195
10261W        W82521  41.420  41.686  13.798
10262W        W82522  17.582  16.805  12.578
10263W        W82523  40.368  13.394   4.094
10264W        W82524  15.319   2.934   0.046
10265W        W82525  12.775  38.786   3.228
10266W        W82526  33.887  12.139  10.682
10267W        W82527   5.318  11.223   1.830
10268W        W82528  34.141  12.288  13.879
10269W        W82529  12.035  13.681   4.820
10270W        W82530   5.808   8.813   2.967
10271W        W82531   7.376  34.368   2.919
10272W        W82532  18.517   7.368   2.671
10273W        W82533  43.822   8.282   1.317
10274W        W82534  29.063  42.807   1.472
10275W        W82535  41.635  33.901  13.527
10276W        W82536  39.838  35.725  14.199
10277W        W82537  26.856  18.254   0.815
10278W        W82538   1.245  34.505   3.685
10279W        W82539  17.600   0.562   1.256
10280W        W82540  34.456  15.706  10.912
10281W        W82541  36.946  39.894  11.962
10282W        W82542  11.741   6.321  13.249
10283W        W82543  15.145  34.547  10.730
10284W        W82544  32.491  14.873  11.137
10285W        W82545  25.429  35.344   2.385
10286W        W82546  37.105   0.308   1.165
10287W        W82547   9.627  26.041  10.360
10288W        W82548  22.377  14.808  10.908
10289W        W82549  38.443   8.581  10.643
10290W        W82550  36.031   8.750   4.869
10291W        W82551  17.341   4.235   3.978
10292W        W82552   2.709   6.843   0.328
10293W        W82553  41.739  16.591   0.256
10294W        W82554  19.201  26.595  14.542
10295W        W82555  19.774   2.831   0.322
10296W        W82556   5.169  26.470  11.996
10297W        W82557  42.040  12.617   1.387
10298W        W82558  13.795  14.744   2.665
10299W        W82559  27.975  16.561  12.044
10300W        W82560  41.903  22.301  13.291
10301W        W82561  25.774  23.751   2.689
10302W        W82562   4.336  14.527  13.852
10303W        W82563  12.793  31.436   3.512
10304W        W82564   2.473   9.373  13.041
10305W        W82565  42.242  19.683   1.509
10306W        W82566  39.296  28.511  12.161
10307W        W82567  14.640  42.992  12.456
10308W        W82568  24.622  32.402   1.722
10309W        W82569   6.740  27.110  10.849
10310W        W82570  11.441  28.424  13.357
10311W        W82571   8.800  43.924   0.787
10312W        W82572  21.679  32.834   4.911
10313W        W82573  12.605  11.788  14.553
10314W        W82574  36.892  23.081  14.376
10315W        W82575  21.704   3.526  12.098
10316W        W82576  22.951  34.931  10.562
10317W        W82577  29.666  43.234  14.040
10318W        W82578  37.884   9.419  10.655
10319W        W82579  40.711  14.970   0.922
10320W        W82580  39.866  26.639   4.738
10321W        W82581  44.980  33.051   2.193
10322W        W82582   6.956  16.517   3.347
10323W        W82583  33.218  11.146   4.509
10324W        W82584  38.948  13.609   2.160
10325W        W82585  33.453   7.283   1.306
10326W        W82586  40.756   4.883   1.704
10327W        W82587  40.656  25.567   3.978
10328W        W82588  27.515  21.155  10.729
10329W        W82589  35.935  21.181   2.486
10330W        W82590   1.763  15.494  14.560
10331W        W82591  16.475  16.553   5.396
10332W        W82592  21.712  28.527  13.044
10333W        W82593  33.162  17.964  12.104
10334W        W82594  19.685  12.596   2.386
10335W        W82595  23.593  32.378   2.326
10336W        W82596  32.108  22.705  13.813
10337W        W82597  35.665  12.302   4.070
10338W        W82598  36.920  12.282  14.907
10339W        W82599  34.074  33.090   0.795
10340W        W82600  19.177  14.614  11.111
10341W        W82601   8.455   5.452  11.051
10342W        W82602  34.102  24.503   2.754
10343W        W82603  17.313  25.163   4.135
10344W        W82604  36.602  29.683  10.739
10345W        W82605  44.024  33.428   2.660
10346W        W82606   8.931  29.105   0.296
10347W        W82607  41.537   2.760  13.811
10348W        W82608  33.000   5.238  14.059
10349W        W82609   2.670  22.746  10.683
10350W        W82610  43.665   3.115   0.342
10351W        W82611  31.104  12.353   1.725
10352W        W82612  38.012  15.827  13.405
10353W        W82613  37.949  15.765   3.822
10354W        W82614  31.839  41.755  12.070
10355W        W82615  17.011  35.073   0.060
10356W        W82616  16.588  15.773  12.751
10357W        W82617  10.309  37.601  14.427
10358W        W82618  40.315  33.461   5.045
10359W        W82619  41.486   7.198   4.169
10360W        W82620  27.070  18.441  14.953
10361W        W82621  39.552  31.198  13.773
10362W        W82622  39.966  28.578   3.129
10363W        W82623  22.447  25.931   4.188
10364W        W82624   3.805  22.549   2.304
10365W        W82625  19.684  21.739  12.236
10366W        W82626  15.091  39.069  14.442
10367W        W82627  31.564  12.658   3.680
10368W        W82628  36.253  24.896   0.374
10369W        W82629  26.231  35.554  11.635
10370W        W82630  32.085  17.219   4.364
10371W        W82631  43.459  33.381   1.352
10372W        W82632  28.718   6.421  14.374
10373W        W82633  34.368  16.193   1.857
10374W        W82634  44.520  35.543  12.016
10375W        W82635   6.223  34.957  10.311
10376W        W82636  42.974  12.342   2.928
10377W        W82637   1.728  17.190   1.811
10378W        W82638  39.664  16.894  14.433
10379W        W82639  44.157   1.979  13.315
10380W        W82640   4.232  41.718   1.386
10381W        W82641   6.149  37.547  11.736
10382W        W82642   5.977  42.263  12.401
10383W        W82643  29.411  30.625  13.508
10384W        W82644   5.932  40.405  10.806
10385W        W82645   5.901  24.532  10.727
10386W        W82646  33.817  32.685  12.363
10387W        W82647  35.819  12.722  14.311
10388W        W82648  43.768  24.171  14.906
10389W        W82649   4.544  22.180  11.138
10390W        W82650  35.324  40.819   2.771
10391W        W82651  10.599  20.653   4.576
10392W        W82652  32.732  15.448   3.736
10393W        W82653   2.693  13.938   3.589
10394W        W82654  38.029   3.972   3.708
10395W        W82655  39.186  19.104  14.414
10396W        W82656   7.289  15.237   2.253
10397W        W82657  28.823  40.426  10.689
10398W        W82658  17.539   8.202   5.644
10399W        W82659  34.695   0.928   3.717
10400W        W82660  33.060  31.891  12.897
10401W        W82661  35.963  17.311   4.916
10402W        W82662  14.961   1.288   0.709
10403W        W82663   3.924  39.548  13.417
10404W        W82664  42.117  15.518   5.029
10405W        W82665  32.864   9.687  14.339
10406W        W82666   7.820  19.892   3.638
10407W        W82667   4.007   3.436  11.775
10408W        W82668  14.932   5.753   0.830
10409W        W82669   8.340  15.208  14.750
10410W        W82670  42.996  42.126   2.393
10411W        W82671  16.638   1.983   4.868
10412W        W82672   4.748  38.419  11.035
10413W        W82673   3.159  25.519  13.845
10414W        W82674  42.464  17.691   4.205
10415W        W82675  41.434   2.245  12.926
10416W        W82676  36.929  28.031   0.382
10417W        W82677  26.621  32.293  11.204
10418W        W82678  23.467   0.356  13.954
10419W        W82679   7.142   4.657   0.034
10420W        W82680  27.220  20.301  14.753
10421W        W82681  42.483  21.107  12.137
10422W        W82682  31.660  27.067  12.540
10423W        W82683  20.139  23.763   0.235
10424W        W82684  29.471   8.295   0.518
10425W        W82685   7.353  41.444   0.733
10426W        W82686  40.027  30.841  12.985
10427W        W82687   7.213  22.036  12.463
10428W        W82688  26.387   6.219  12.981
10429W        W82689  19.358  23.562  10.786
10430W        W82690  28.203  30.667   3.717
10431W        W82691  17.436  22.584  12.956
10432W        W82692  16.171  31.071  13.585
10433W        W82693  18.185   2.871  11.646
10434W        W82694   5.521  38.897  13.752
10435W        W82695   8.980  31.844  11.022
10436W        W82696   5.801  18.654   2.378
10437W        W82697  22.211  43.059  13.868
10438W        W82698  42.446  29.113  11.615
10439W        W82699  30.110  39.411   4.163
10440W        W82700  10.846  23.469  12.898
10441W        W82701  40.026  20.690   1.446
10442W        W82702  34.044  23.666  14.897
10443W        W82703  35.668   0.237   1.775
10444W        W82704  18.995  31.887  12.595
10445W        W82705  13.231  12.077  13.923
10446W        W82706  17.362  39.460  12.112
10447W        W82707  16.380  17.568  10.321
10448W        W82708  13.325  11.655   1.811
10449W        W82709  23.631  32.378  13.897
10450W        W82710  37.877  30.879   4.137
10451W        W82711   6.868  13.356   1.960
10452W        W82712   4.966  24.768   1.886
10453W        W82713  15.610  35.554   2.126
10454W        W82714  42.114  40.094   1.330
10455W        W82715  29.769  29.635   4.231
10456W        W82716  33.862   4.951   9.781
10457W        W82717  19.986  36.623  12.131
10458W        W82718  14.676  33.850   3.091
10459W        W82719  25.598  17.520   2.396
10460W        W82720  29.189  21.117  14.990
10461W        W82721  19.633  28.985  14.478
10462W        W82722  35.789  15.121  14.497
10463W        W82723  28.065  25.641   0.444
10464W        W82724  38.523   2.730   3.555
10465W        W82725  24.150  20.920   1.418
10466W        W82726   4.115  40.056   4.539
10467W        W82727  11.990  21.211  12.476
10468W        W82728   9.182  44.747  10.416
10469W        W82729  11.567   6.894  11.476
10470W        W82730   7.671  43.962   4.934
10471W        W82731  37.658  18.317  14.508
10472W        W82732  25.180  23.639  11.202
10473W        W82733  22.008  37.875   1.741
10474W        W82734   0.420   1.726   0.429
10475W        W82735   8.773   0.851  12.925
10476W        W82736  16.235   4.382  14.318
10477W        W82737  38.956  11.614  13.741
10478W        W82738   5.286  21.554  12.058
10479W        W82739   3.342  28.159  13.817
10480W        W82740  22.703  22.678  14.021
10481W        W82741  37.064  29.403  12.596
10482W        W82742  26.940  23.031  12.063
10483W        W82743  36.866  20.294   1.204
10484W        W82744  25.640  12.119   0.519
10485W        W82745   0.127   0.505  13.469
10486W        W82746  34.457   4.091   1.845
10487W        W82747  31.381  17.173   1.393
10488W        W82748  13.370  39.673  13.784
10489W        W82749  12.185  17.429   1.719
10490W        W82750   0.551  18.894   4.021
10491W        W82751   0.460  25.668  12.396
10492W        W82752  12.199  28.174   3.224
10493W        W82753  38.051  42.065  12.402
10494W        W82754  14.166  18.546   1.800
10495W        W82755  22.517  42.723  11.568
10496W        W82756  28.349  28.019  13.142
10497W        W82757   5.715  17.622   2.335
10498W        W82758  39.291  24.209   0.275
10499W        W82759  35.327  19.094  11.359
10500W        W82760  20.307  35.863  11.413
10501W        W82761  36.449  31.007   2.114
10502W        W82762   1.447  29.176   3.525
10503W        W82763  11.834   8.513  12.287
10504W        W82764  37.514  19.928  13.356
10505W        W82765  44.318   7.793   1.776
10506W        W82766  16.669  44.287   0.601
10507W        W82767  29.448  24.218  14.881
10508W        W82768  14.224  41.273   0.290
10509W        W82769   3.396  25.781  13.473
10510W        W82770  33.997  14.992   1.810
10511W        W82771  38.344  27.526   4.472
10512W        W82772   4.821  33.030  11.706
10513W        W82773  28.911  24.659   3.609
10514W        W82774  28.033  28.084   2.743
10515W        W82775  34.944  20.250   5.043
10516W        W82776   7.994  10.602   4.209
10517W        W82777  31.049   5.407   1.076
10518W        W82778  28.787  21.433  11.274
10519W        W82779  30.139  24.098  12.044
10520W        W82780  42.341  24.124   1.443
10521W        W82781   4.991  40.392   2.375
10522W        W82782  19.774  31.355  12.984
10523W        W82783  43.210  34.435   4.774
10524W        W82784  43.533  11.110   1.229
10525W        W82785  42.499  21.018   0.867
10526W        W82786  38.883  25.293   3.781
10527W        W82787   1.317  35.418  11.433
10528W        W82788  16.290  12.733   2.789
10529W        W82789   5.905  41.956  10.708
10530W        W82790  34.554  18.588  14.439
10531W        W82791  22.107  34.368  10.733
10532W        W82792   6.173  14.732   3.189
10533W        W82793  12.671  13.472   0.376
10534W        W82794  29.656  34.538  11.600
10535W        W82795  18.191  25.751  13.498
10536W        W82796  11.102   8.509  11.083
10537W        W82797   2.946   6.652   3.607
10538W        W82798  22.308  10.570   3.268
10539W        W82799  13.680  36.864  13.118
10540W        W82800  42.239  27.554   3.687
10541W        W82801  36.475  25.434  13.518
10542W        W82802  43.442   1.701  13.867
10543W        W82803  24.238   7.843  11.593
10544W        W82804  19.187  14.429   4.781
10545W        W82805   6.314  29.209   0.407
10546W        W82806   2.874  17.167  11.287
10547W        W82807  19.796  17.546   2.240
10548W        W82808  13.309  39.935   3.673
10549W        W82809  39.795   1.377  11.742
10550W        W82810   2.607  42.769  14.444
10551W        W82811  24.104  27.247   0.462
10552W        W82812   8.364  37.145   3.190
10553W        W82813   1.175  32.059  12.420
10554W        W82814  36.529  16.812  13.457
10555W        W82815  29.559   6.116   3.675
10556W        W82816  42.795  42.505   3.630
10557W        W82817  11.732  35.604  13.009
10558W        W82818  12.889  10.648  10.990
10559W        W82819  21.328  13.236   1.727
10560W        W82820  21.566  11.558   0.841
10561W        W82821  39.975  24.966  11.595
10562W        W82822   1.381  33.757  13.916
10563W        W82823  19.301  39.386   4.210
10564W        W82824  22.231  44.980   0.478
10565W        W82825   9.248  32.124   1.199
10566W        W82826  30.576   7.615  11.794
10567W        W82827  16.670  18.826   2.214
10568W        W82828  24.624  29.050   0.237
10569W        W82829  32.192  25.888  13.889
10570W        W82830  30.607  37.343  13.479
10571W        W82831  36.919  32.466   1.413
10572W        W82832  22.030  27.004   2.219
10573W        W82833  43.522  24.743  12.548
10574W        W82834  25.074   0.277   4.501
10575W        W82835  21.570  35.130  10.729
10576W        W82836  10.092  30.976   0.302
10577W        W82837  24.387  44.594   1.929
10578W        W82838  39.546  17.597   2.696
10579W        W82839  11.105   3.088  13.080
10580W        W82840  11.780   1.286   2.740
10581W        W82841  17.016  11.267  12.486
10582W        W82842   7.375  27.731   0.886
10583W        W82843  33.036   3.947  12.100
10584W        W82844  23.264   6.521  12.528
10585W        W82845   9.118  13.252  11.985
10586W        W82846  37.450  28.480   2.288
10587W        W82847  42.427  40.286  12.966
10588W        W82848  17.465  18.527   4.238
10589W        W82849   8.072   3.302  11.228
10590W        W82850   0.515  30.000  14.267
10591W        W82851   7.249  34.815  11.756
10592W        W82852  37.156  32.166   4.130
10593W        W82853  40.899   2.305  11.157
10594W        W82854  19.983  24.364  12.055
10595W        W82855  20.825  34.042   3.559
10596W        W82856  24.629  23.994   1.706
10597W        W82857  28.854  10.626   1.205
10598W        W82858   4.192  38.615   0.447
10599W        W82859  39.767  21.570  11.582
10600W        W82860  32.448   9.951  13.358
10601W        W82861   6.583  39.827  10.139
10602W        W82862  41.049  19.057  11.062
10603W        W82863  11.264   5.681  11.065
10604W        W82864  26.156  42.713   1.346
10605W        W82865   2.651   3.929   1.009
10606W        W82866  29.700   6.795  14.513
10607W        W82867   6.389   3.307   9.836
10608W        W82868  22.461  10.705  14.729
10609W        W82869  21.113  18.761  12.440
10610W        W82870  40.012  10.183   1.318
10611W        W82871   6.770  13.215   4.280
10612W        W82872  20.725  15.139  14.535
10613W        W82873  24.501  44.432   0.466
10614W        W82874  19.182   0.510  12.136
10615W        W82875  42.044  23.195   0.864
10616W        W82876  23.153  24.517   0.451
10617W        W82877  34.657  37.406   1.890
10618W        W82878  11.811  32.029  10.542
10619W        W82879  17.766  23.472   1.212
10620W        W82880   9.889  32.577  13.366
10621W        W82881  21.211  21.733   5.072
10622W        W82882   3.546  37.992   2.809
10623W        W82883  16.665  15.916  13.794
10624W        W82884  19.959  34.134  12.929
10625W        W82885  31.105  13.746   1.394
10626W        W82886  35.085  19.613  13.999
10627W        W82887   5.686  16.988   4.077
10628W        W82888  31.099  13.071   2.782
10629W        W82889  32.822  20.773   1.408
10630W        W82890  17.145  11.360   4.370
10631W        W82891   1.606  14.243  14.798
10632W        W82892  12.935   6.213  14.920
10633W        W82893  26.680   4.977  11.061
10634W        W82894  42.580   2.288  13.916
10635W        W82895  24.709  43.470   2.378
10636W        W82896  17.069  35.721  11.953
10637W        W82897   8.407   9.692  13.855
10638W        W82898  36.119  30.664   2.333
10639W        W82899  14.715  35.876  11.720
10640W        W82900  39.357  16.785   3.333
10641W        W82901   5.851   2.887  12.614
10642W        W82902  38.772  32.595  11.568
10643W        W82903  19.518  10.644   4.559
10644W        W82904  20.474  10.833  10.666
10645W        W82905  36.056  28.475   4.529
10646W        W82906  14.097  20.078   1.587
10647W        W82907   8.413  30.994  11.145
10648W        W82908   0.921  32.975  11.995
10649W        W82909  18.728  34.413  13.536
10650W        W82910   7.708  44.837   2.704
10651W        W82911  41.227  10.685   1.241
10652W        W82912   9.564   8.958  14.795
10653W        W82913  28.555  19.157   0.423
10654W        W82914  42.332  10.148  11.385
10655W        W82915  39.465  33.368   2.280
10656W        W82916   9.940  23.823  12.547
10657W        W82917  30.384  39.518   2.267
10658W        W82918  41.868  24.535   3.234
10659W        W82919  43.696  21.042  12.496
10660W        W82920  21.267  41.256   2.708
10661W        W82921  20.677  19.177  13.503
10662W        W82922  34.211   2.146  13.896
10663W        W82923  26.623  31.405   3.696
10664W        W82924   6.395  22.615   4.007
10665W        W82925   6.416  35.160  14.257
10666W        W82926  11.567  40.796   4.586
10667W        W82927   4.320  42.081  11.457
10668W        W82928  24.003  13.683  12.887
10669W        W82929  15.637  28.663   0.371
10670W        W82930   1.721  34.573  14.182
10671W        W82931  18.330  26.044  11.240
10672W        W82932  24.104  32.574  12.889
10673W        W82933  27.708   1.426   1.455
10674W        W82934  27.425  22.079   2.456
10675W        W82935  32.882  11.766   4.745
10676W        W82936  41.736  17.811   1.021
10677W        W82937  26.640   2.676   4.387
10678W        W82938  30.550  40.876  13.358
10679W        W82939  40.222  24.163  11.043
10680W        W82940   5.036  27.592  12.667
10681W        W82941  42.869  27.371  13.350
10682W        W82942  17.577  19.081  12.526
10683W        W82943  40.021  32.136  12.867
10684W        W82944   0.694   0.184  12.066
10685W        W82945  33.657  16.620  12.604
10686W        W82946   2.870   9.318   4.731
10687W        W82947  12.241  25.975   1.480
10688W        W82948  43.440   7.001   1.200
10689W        W82949  15.539  25.127   2.263
10690W        W82950  22.734   8.812  13.017
10691W        W82951  23.197  38.356  12.889
10692W        W82952  21.003  31.711   1.850
10693W        W82953  40.176  16.691   1.267
10694W        W82954  18.814  23.526  12.637
10695W        W82955   0.343  15.657  10.992
10696W        W82956  17.218  26.702   1.893
10697W        W82957  39.324   1.584   0.385
10698W        W82958  25.708  40.887   2.519
10699W        W82959  19.995  34.460  11.592
10700W        W82960  19.253  20.787  11.605
10701W        W82961  29.005  19.060   0.753
10702W        W82962   6.822  41.308  12.767
10703W        W82963  30.285  19.294  11.084
10704W        W82964  18.661   5.225  12.525
10705W        W82965   0.376  38.483   2.326
10706W        W82966   4.390  10.283   0.783
10707W        W82967   7.697  29.407  11.941
10708W        W82968  12.952   6.287  10.706
10709W        W82969  44.274  21.169   2.163
10710W        W82970   3.275  40.276  12.048
10711W        W82971  35.679  23.512   2.295
10712W        W82972  30.968  31.283  10.378
10713W        W82973  25.021  23.590  10.694
10714W        W82974  15.411  17.088  11.933
10715W        W82975   7.394   1.282  11.570
10716W        W82976  29.500  44.203  14.077
10717W        W82977   9.197  10.281  14.905
10718W        W82978  10.043   3.967  10.627
10719W        W82979  11.798  19.568   3.300
10720W        W82980   2.716  41.408  13.824
10721W        W82981  18.686  22.832   3.666
10722W        W82982  28.452  31.078  14.331
10723W        W82983   9.861   7.408   3.203
10724W        W82984  14.451  28.722  13.937
10725W        W82985  32.281  18.790   0.021
10726W        W82986  14.775  12.300  14.918
10727W        W82987  19.048  19.112   3.504
10728W        W82988  11.397  29.351  11.965
10729W        W82989  18.868  15.279   5.057
10730W        W82990  11.942  32.550  11.710
10731W        W82991  22.483  26.108   5.075
10732W        W82992  37.884  40.893   2.195
10733W        W82993   0.078  19.307   1.873
10734W        W82994  42.977  12.899   1.408
10735W        W82995  42.974  30.540   1.924
10736W        W82996   1.805  42.477  13.377
10737W        W82997  10.365   9.051   3.444
10738W        W82998   4.858  15.742   2.330
10739W        W82999  39.862   9.802  10.618
10740W        W83000  27.395  40.980   1.468
10741W        W83001  41.452  25.112   4.526
10742W        W83002  43.704   7.181   0.768
10743W        W83003  21.585  11.925   1.204
10744W        W83004  42.716   4.254   4.147
10745W        W83005   1.040   0.484   1.889
10746W        W83006  13.854  17.262   0.821
10747W        W83007  13.035  41.086  12.804
10748W        W83008  32.309  37.316  14.414
10749W        W83009  29.120   5.430  13.588
10750W        W83010  34.491  20.747  11.519
10751W        W83011  24.487  11.300   1.968
10752W        W83012  36.801  21.375   0.493
10753W        W83013  33.247  25.088   4.114
10754W        W83014  29.577  16.064   4.279
10755W        W83015  15.707   2.058   3.795
10756W        W83016  16.511  21.495  14.424
10757W        W83017  17.514   4.718   4.193
10758W        W83018  25.737  30.062  10.643
10759W        W83019  25.421  23.644   1.768
10760W        W83020  10.755  33.386  11.644
10761W        W83021  28.242  27.111   0.548
10762W        W83022  36.894  31.500  14.970
10763W        W83023  34.004  11.922  13.349
10764W        W83024   4.172  36.973  11.392
10765W        W83025  44.298   8.390   3.221
10766W        W83026  37.899  18.970   1.692
10767W        W83027  16.973  42.057  12.576
10768W        W83028  41.813  36.427   4.331
10769W        W83029   9.241  35.782   4.142
10770W        W83030  28.245  11.152  14.823
10771W        W83031  15.853   8.264   2.745
10772W        W83032  38.483  11.999  12.887
10773W        W83033  15.772  22.820   2.229
10774W        W83034   3.322  39.850   2.325
10775W        W83035  42.166  29.214   0.893
10776W        W83036  39.901   7.730   3.303
10777W        W83037  44.446  23.204   3.365
10778W        W83038  36.201   1.399  14.518
10779W        W83039  35.324  18.036  13.915
10780W        W83040  27.616  12.639  14.043
10781W        W83041   1.447  41.241   2.881
10782W        W83042  35.985  30.007  14.829
10783W        W83043  42.415  19.968   2.871
10784W        W83044  28.559  23.171  12.962
10785W        W83045  12.116  27.668  11.934
10786W        W83046  10.576  44.034   1.241
10787W        W83047  10.845  14.258   0.811
10788W        W83048  40.351   3.516  12.085
10789W        W83049   1.276  29.992  11.601
10790W        W83050   2.316  35.517  12.027
10791W        W83051  12.096  29.545   0.821
10792W        W83052  12.805   2.942   2.824
10793W        W83053  41.520  11.209  14.793
10794W        W83054  39.723  18.898   1.762
10795W        W83055  25.530  18.585  13.441
10796W        W83056  11.141  25.555   4.766
10797W        W83057  25.641  15.697  11.737
10798W        W83058  39.394  13.018  13.532
10799W        W83059  44.457  32.658   4.756
10800W        W83060  38.950  16.351  11.525
10801W        W83061  16.353  19.684   1.115
10802W        W83062  37.977  20.078   4.198
10803W        W83063  41.763  25.758  11.492
10804W        W83064  28.147  38.591  10.779
10805W        W83065  11.134  36.985  10.969
10806W        W83066  11.677   5.907  12.866
10807W        W83067  30.835  23.020  14.953
10808W        W83068  29.834  18.347   2.259
10809W        W83069   4.571  15.818   3.702
10810W        W83070  13.119  43.956   1.149
10811W        W83071   3.777  20.336   1.865
10812W        W83072   0.468   5.899   2.495
10813W        W83073  43.828  20.262   1.901
10814W        W83074   6.073  23.446   0.275
10815W        W83075  25.746  18.113  13.397
10816W        W83076  37.377  37.106  14.418
10817W        W83077  39.595  25.933   4.623
10818W        W83078   6.176  12.194  13.417
10819W        W83079  41.430   0.232   0.431
10820W        W83080  26.834  39.375   3.699
10821W        W83081  16.964  35.590   0.749
10822W        W83082  28.116  44.956  14.985
10823W        W83083  36.599  24.943  14.909
10824W        W83084  42.740   8.926  12.850
10825W        W83085  43.973  23.073   0.890
10826W        W83086  21.504   8.549  14.743
10827W        W83087   7.678  25.369  12.972
10828W        W83088  32.928  22.245  11.593
10829W        W83089  21.731   3.650  11.099
10830W        W83090  21.263  20.270   1.677
10831W        W83091  27.560  22.309  13.503
10832W        W83092  18.060   8.128  14.915
10833W        W83093  20.873  34.776   4.559
10834W        W83094  36.343  11.755   0.752
10835W        W83095  28.558  37.834  13.972
10836W        W83096  30.364   8.361  12.974
10837W        W83097  18.870  41.380   2.710
10838W        W83098  18.444  31.462  13.558
10839W        W83099  23.033  42.432   0.000
10840W        W83100   8.460  33.474  12.913
10841W        W83101  33.495  39.433   2.133
10842W        W83102  19.603  38.825   4.932
10843W        W83103  35.365   4.740   3.203
10844W        W83104  32.021  13.085  12.285
10845W        W83105  17.041   6.517  13.460
10846W        W83106  10.809  41.791  12.794
10847W        W83107   0.017  17.758   2.878
10848W        W83108   6.170  15.229   3.764
10849W        W83109   0.521   5.555  14.544
10850W        W83110  31.994  16.796   1.882
10851W        W83111  27.690  30.718  12.053
10852W        W83112  12.647   4.842   0.007
10853W        W83113   9.671  19.198   3.172
10854W        W83114  13.781  39.362   3.202
10855W        W83115  10.430  23.635  12.570
10856W        W83116   8.006   6.261  13.258
10857W        W83117  14.758  10.085  11.249
10858W        W83118   1.821  10.134   1.687
10859W        W83119   7.828   7.887   0.563
10860W        W83120   6.748  10.942  14.745
10861W        W83121  22.614  20.707   0.767
10862W        W83122  27.976  38.279  11.154
10863W        W83123   2.945  36.455  13.922
10864W        W83124  42.813  20.201  14.531
10865W        W83125  24.000   5.965  12.551
10866W        W83126  14.279  29.444  10.211
10867W        W83127  22.857  25.421   0.464
10868W        W83128  25.158  25.192  10.600
10869W        W83129   4.843  44.711  13.865
10870W        W83130  33.129  42.741   1.885
10871W        W83131   1.807  13.404   3.502
10872W        W83132  39.032  31.255   3.715
10873W        W83133  27.618  17.882   3.345
10874W        W83134  22.121   1.166  14.889
10875W        W83135  14.578  14.494   1.674
10876W        W83136  21.224  24.732   0.411
10877W        W83137  41.404  20.711   3.200
10878W        W83138  21.709  30.167   1.495
10879W        W83139  13.700  22.655  14.247
10880W        W83140   9.858  36.961   0.968
10881W        W83141  35.995  18.994  14.731
10882W        W83142  42.840   2.346  11.135
10883W        W83143  25.738   0.273   1.803
10884W        W83144  29.148  39.452   2.098
10885W        W83145   6.069  16.741   2.924
10886W        W83146  29.116   1.862   3.242
10887W        W83147  38.461  33.943  11.756
10888W        W83148  22.284  27.892   3.094
10889W        W83149  10.844   0.667  10.097
10890W        W83150  26.598  39.231   5.438
10891W        W83151  10.657  10.589   0.724
10892W        W83152  21.752   6.761   0.500
10893W        W83153   2.324  31.262   4.326
10894W        W83154  30.033  39.901  10.783
10895W        W83155   6.196  15.404   4.880
10896W        W83156  32.529  34.572   3.114
10897W        W83157  22.144  33.397  10.462
10898W        W83158   4.400   1.808  12.362
10899W        W83159  11.127  21.218  14.868
10900W        W83160  17.743  31.693  10.689
10901W        W83161  34.811  26.885   1.385
10902W        W83162  18.524   7.367   0.872
10903W        W83163   2.795  23.496   3.321
10904W        W83164  21.664  24.187  11.079
10905W        W83165   4.309  33.360   2.147
10906W        W83166  36.917  32.351  13.421
10907W        W83167  39.385   4.903   2.232
10908W        W83168  20.265  22.192   1.870
10909W        W83169  29.592  32.457   2.647
10910W        W83170  44.262  37.318   0.792
10911W        W83171  26.467   8.653   3.271
10912W        W83172  36.479  44.828   3.306
10913W        W83173   0.633  15.923  12.087
10914W        W83174  26.738  19.293   2.596
10915W        W83175  22.043  37.095   1.657
10916W        W83176  20.421  25.564   1.869
10917W        W83177   6.673  10.850  13.791
10918W        W83178  15.151   8.491  13.050
10919W        W83179   9.566  20.586   2.264
10920W        W83180  27.116  39.084   4.663
10921W        W83181  36.813  13.773  13.805
10922W        W83182  14.816  22.637  12.900
10923W        W83183  19.696  28.725   1.395
10924W        W83184  33.811  40.470  12.027
10925W        W83185  33.966   7.395  11.550
10926W        W83186  21.263  41.490  12.486
10927W        W83187   7.554  19.571  11.209
10928W        W83188  15.775  11.705  13.424
10929W        W83189   6.984   7.226   1.280
10930W        W83190  26.220  42.997   0.363
10931W        W83191  10.591  35.911  12.930
10932W        W83192   2.981  43.291   4.813
10933W        W83193  22.185   8.600  11.306
10934W        W83194  27.936  10.920   1.311
10935W        W83195  44.475  22.079  13.535
10936W        W83196  22.736   6.298  14.834
10937W        W83197  25.480  40.418  11.880
10938W        W83198  11.640   6.388  11.555
10939W        W83199  36.042  35.476  11.270
10940W        W83200  44.104  20.627  14.031
10941W        W83201  26.505  20.120   1.277
10942W        W83202  14.862  25.047  11.545
10943W        W83203  13.789   4.751  13.492
10944W        W83204   3.397  20.047   1.343
10945W        W83205  16.585  43.026  12.999
10946W        W83206  30.622  38.079   1.246
10947W        W83207  11.665  21.538   4.072
10948W        W83208  23.601  21.248   1.745
10949W        W83209   8.729  34.669   1.871
10950W        W83210  30.191   0.482   4.151
10951W        W83211  11.702  39.471   1.433
10952W        W83212   8.225  33.018  12.839
10953W        W83213  32.636  29.763  11.509
10954W        W83214  17.049  24.091   2.095
10955W        W83215   2.026  27.021   2.277
10956W        W83216  20.297  28.419  14.952
10957W        W83217  11.764   9.710  14.714
10958W        W83218   7.655  33.882  12.928
10959W        W83219   5.455  22.549   4.967
10960W        W83220  18.889  41.852  11.022
10961W        W83221  32.037  14.589   1.805
10962W        W83222  33.381  35.858   3.638
10963W        W83223  24.513  32.913  12.878
10964W        W83224  44.331  16.781   2.364
10965W        W83225  42.072  21.804  13.279
10966W        W83226  39.103  22.166   2.900
10967W        W83227   8.779   8.661  14.471
10968W        W83228  19.239  13.992  12.028
10969W        W83229  12.578   6.901  11.608
10970W        W83230  24.470  14.937  11.381
10971W        W83231  28.630  28.000   4.285
10972W        W83232  32.318  35.151   3.671
10973W        W83233   0.014  11.732  14.890
10974W        W83234   1.549  19.293  12.019
10975W        W83235  43.973  10.010   4.616
10976W        W83236  41.227  24.307   2.262
10977W        W83237   4.990  44.959   4.661
10978W        W83238  38.768   8.832   2.242
10979W        W83239  32.303  10.436  12.560
10980W        W83240  16.136  39.460  12.938
10981W        W83241   3.456  10.292   1.707
10982W        W83242   3.786   4.556   3.830
10983W        W83243  28.673  41.971   1.962
10984W        W83244  35.742  35.990  12.601
10985W        W83245  13.014   0.514  14.813
10986W        W83246   8.549   5.262   4.205
10987W        W83247  24.589  20.685   4.509
10988W        W83248   2.179  40.094   2.817
10989W        W83249   3.653  35.981  12.904
10990W        W83250   2.495  29.432   4.628
10991W        W83251  28.973  35.806  11.623
10992W        W83252  12.178   7.665  14.769
10993W        W83253   0.818   1.440   4.846
10994W        W83254  44.811  17.665  14.030
10995W        W83255  13.107  39.998   4.540
10996W        W83256  32.094   1.878   2.990
10997W        W83257  26.639  39.482   0.927
10998W        W83258   7.729   3.332   0.000
10999W        W83259  12.867  22.663  11.066
11000W        W83260  10.603  23.519  13.835
11001W        W83261   6.491  39.590   4.252
11002W        W83262  21.146  10.630  14.628
11003W        W83263  22.214  14.205  14.524
11004W        W83264  14.155  36.519   3.912
11005W        W83265   5.201  24.986   1.480
11006W        W83266  11.690  26.015   2.682
11007W        W83267   0.264  37.009  10.649
11008W        W83268  19.533   5.848  13.732
11009W        W83269  27.864  39.075  12.940
11010W        W83270  11.216  23.488  10.774
11011W        W83271  38.129  25.532  12.907
11012W        W83272  12.206  20.297   2.723
11013W        W83273  28.990  29.935   4.968
11014W        W83274  24.916  29.678  14.804
11015W        W83275   6.698  32.922  11.682
11016W        W83276  24.683  14.390   4.537
11017W        W83277  43.046   6.172   1.853
11018W        W83278  30.713  38.354   4.494
11019W        W83279  16.310  28.053   0.306
11020W        W83280  11.760  15.376  12.506
11021W        W83281  21.532   5.443   2.348
11022W        W83282   9.617  16.227   0.887
11023W        W83283  25.467  35.523  14.259
11024W        W83284  40.353  17.598   4.698
11025W        W83285  28.209  27.207   0.042
11026W        W83286   5.543   0.789  11.369
11027W        W83287  42.721  12.656   3.244
11028W        W83288  14.675   8.267   1.175
11029W        W83289  25.713  33.651   1.814
11030W        W83290   1.188  27.475  14.275
11031W        W83291   5.895  33.010  12.676
11032W        W83292  38.718   9.355   1.649
11033W        W83293  24.081  18.650   2.155
11034W        W83294  10.332   0.633   2.125
11035W        W83295   2.696   8.488  13.413
11036W        W83296   6.771   6.940  14.940
11037W        W83297  34.977  11.341  11.195
11038W        W83298  44.538   7.439   4.122
11039W        W83299  17.312   5.982   1.498
11040W        W83300  34.556  26.963   3.417
11041W        W83301  20.406  17.358   3.343
11042W        W83302  40.237  29.450  12.038
11043W        W83303  37.651  25.137   2.697
11044W        W83304  41.581  22.172  11.833
11045W        W83305   9.468  14.401   0.045
11046W        W83306  44.435  44.408  10.333
11047W        W83307   0.522  40.372   1.245
11048W        W83308  41.075   1.682   2.794
11049W        W83309  16.788  39.980   3.630
11050W        W83310  27.367  19.851   3.661
11051W        W83311  30.031  21.978  11.545
11052W        W83312   0.964  24.134   0.449
11053W        W83313  44.143  30.849   4.058
11054W        W83314  40.309  10.165  11.004
11055W        W83315  11.064  44.556  12.867
11056W        W83316  21.254  39.457  14.990
11057W        W83317  31.060  39.453   4.584
11058W        W83318  30.193  17.375  14.844
11059W        W83319   0.455  43.826   3.336
11060W        W83320  18.017  37.129  13.964
11061W        W83321  31.083   8.700  11.040
11062W        W83322   4.929  12.274   0.898
11063W        W83323  21.083  12.873  11.100
11064W        W83324  33.593  37.552  11.259
11065W        W83325   5.318   7.385   4.295
11066W        W83326  23.037  42.432   3.123
11067W        W83327  41.753  34.091  10.711
11068W        W83328  23.542  33.576   1.751
11069W        W83329  13.485  29.871   0.896
11070W        W83330  41.375  19.525   1.227
11071W        W83331  40.619  40.734   1.549
11072W        W83332  26.800  12.202  14.884
11073W        W83333  24.802  22.595  12.977
11074W        W83334  20.266  41.135   2.757
11075W        W83335  11.615  22.802  12.872
11076W        W83336   5.287  44.315  11.568
11077W        W83337  30.214  33.327  14.465
11078W        W83338  25.714   9.647   1.774
11079W        W83339  12.572  30.961  13.466
11080W        W83340  42.837  12.583   1.967
11081W        W83341  25.374  38.044  11.136
11082W        W83342  19.504  42.916  13.407
11083W        W83343  34.997  24.456  13.747
11084W        W83344  28.674  23.302   0.998
11085W        W83345  22.692   2.798  13.980
11086W        W83346   2.826   4.358   0.719
11087W        W83347  30.189  12.608   0.760
11088W        W83348  10.599   2.191   4.459
11089W        W83349  38.324  36.030  11.147
11090W        W83350  24.422  23.162  12.037
11091W        W83351   4.911  32.021  10.735
11092W        W83352  24.280   2.898   1.233
11093W        W83353  43.331  25.818   0.755
11094W        W83354  20.762  21.937  12.554
11095W        W83355   2.975   9.738   3.816
11096W        W83356  10.399  13.667   0.236
11097W        W83357  18.843  37.707  11.647
11098W        W83358   8.457  15.559   1.781
11099W        W83359  10.099  11.285  14.123
11100W        W83360  15.395  34.062   0.412
11101W        W83361  22.981  10.583  11.075
11102W        W83362  15.768  43.561  12.172
11103W        W83363  18.518   5.442  13.676
11104W        W83364  29.098  36.174   3.485
11105W        W83365  16.986  14.714   1.551
11106W        W83366  14.916  12.111  11.802
11107W        W83367  27.402  41.283   2.708
11108W        W83368  43.918  42.940   3.226
11109W        W83369  39.039  12.913  11.641
11110W        W83370  19.464  17.886   0.839
11111W        W83371   3.861  30.906  13.552
11112W        W83372  35.779   4.078   0.344
11113W        W83373  15.276  24.215   2.660
11114W        W83374   5.105  42.822   4.650
11115W        W83375   7.894  31.068  14.947
11116W        W83376   0.671  36.115  14.420
11117W        W83377  25.202  38.385   1.580
11118W        W83378  40.256  38.796  13.886
11119W        W83379  35.775  30.970   3.681
11120W        W83380  22.266  19.609  12.467
11121W        W83381  25.087  10.590   3.709
11122W        W83382   5.732   1.377  10.618
11123W        W83383  16.999  30.502  13.831
11124W        W83384  36.099  10.789   3.546
11125W        W83385  23.223  42.840  11.876
11126W        W83386  29.065  26.233   2.363
11127W        W83387  35.850   6.944  14.890
11128W        W83388  32.439  24.945  11.645
11129W        W83389  28.515  23.481   2.945
11130W        W83390  32.023  10.407   3.804
11131W        W83391  44.168  20.567  11.181
11132W        W83392  16.256   5.835   4.891
11133W        W83393  20.530  25.048  11.994
11134W        W83394  34.933  33.628  11.774
11135W        W83395  42.535  37.110   3.336
11136W        W83396  12.162  30.422  10.497
11137W        W83397  24.781   3.639   2.784
11138W        W83398   2.072  42.898  13.565
11139W        W83399  36.410  15.148  11.491
11140W        W83400  17.487  13.182   2.324
11141W        W83401   5.982  29.424   0.753
11142W        W83402   9.332  38.452   2.838
11143W        W83403   2.954  40.862   1.198
11144W        W83404  23.956  43.922   3.327
11145W        W83405  43.474  12.945   3.673
11146W        W83406  27.905  39.037   2.988
11147W        W83407  39.265  38.463  11.038
11148W        W83408  32.712   3.689  14.441
11149W        W83409  34.010  27.479  13.116
11150W        W83410  15.052   8.712  11.461
11151W        W83411  25.073   6.383  12.165
11152W        W83412  30.615  30.916  10.324
11153W        W83413   9.762  13.257  13.828
11154W        W83414  27.521  27.054  13.530
11155W        W83415   1.347   8.113   0.720
11156W        W83416   4.157  19.986  12.004
11157W        W83417  29.712  28.712   2.590
11158W        W83418  24.563  22.947  11.122
11159W        W83419  22.342   9.690  12.923
11160W        W83420  30.611  29.617   1.693
11161W        W83421  36.408  10.884   3.143
11162W        W83422   0.076   5.212   2.362
11163W        W83423   4.256  28.442  11.520
11164W        W83424  30.629  36.313  12.473
11165W        W83425  13.618  30.174  12.416
11166W        W83426  25.558  22.092  11.163
11167W        W83427  24.185  37.102   5.066
11168W        W83428  14.724   0.430  12.997
11169W        W83429   8.702   9.666   0.719
11170W        W83430  27.962  41.614   1.478
11171W        W83431  15.093  42.425  12.619
11172W        W83432  18.803  33.774   5.445
11173W        W83433  37.978  21.778   2.258
11174W        W83434  41.997  10.264  10.613
11175W        W83435  21.489  32.636  11.409
11176W        W83436  34.068   6.434  14.441
11177W        W83437  13.314  28.400   2.273
11178W        W83438  42.093   9.705  13.778
11179W        W83439  44.761  20.768   1.358
11180W        W83440  27.992  21.324   2.040
11181W        W83441  15.098   1.038   0.259
11182W        W83442   9.191  21.796  13.636
11183W        W83443  24.057   5.374  10.856
11184W        W83444  27.689   7.342   2.716
11185W        W83445   8.341  30.388  11.783
11186W        W83446  17.719  21.263   4.668
11187W        W83447  18.123  35.390  14.583
11188W        W83448  16.648  13.949  12.779
11189W        W83449   9.844  33.334  11.136
11190W        W83450  31.028  12.211   4.853
11191W        W83451  36.026   6.328   3.659
11192W        W83452  30.684  23.627  14.045
11193W        W83453  21.993   1.187   1.433
11194W        W83454  15.103   6.921  12.001
11195W        W83455  32.366   2.368   2.606
11196W        W83456  22.479  39.034   4.191
11197W        W83457  16.249   4.934  11.903
11198W        W83458  37.468  19.341  11.949
11199W        W83459  40.054  10.298  14.950
11200W        W83460  23.478  32.645  12.104
11201W        W83461  23.141  33.573  14.492
11202W        W83462  18.866  19.774  13.059
11203W        W83463  22.291  34.984   1.345
11204W        W83464  21.804  38.379   3.168
11205W        W83465   9.591  41.266  12.113
11206W        W83466  33.902  43.934   0.377
11207W        W83467  10.207   1.933   2.521
11208W        W83468   7.182  44.031   1.740
11209W        W83469  15.781  34.606   4.880
11210W        W83470   8.448  41.276  11.448
11211W        W83471  40.293  31.147   1.347
11212W        W83472  35.387   3.706   3.246
11213W        W83473  20.864  16.364   1.434
11214W        W83474  17.416  35.992  14.985
11215W        W83475  37.557   0.017  12.413
11216W        W83476   8.871  40.162   4.991
11217W        W83477  10.215  18.346   0.173
11218W        W83478  21.684  12.502   0.708
11219W        W83479   6.716   5.668  12.999
11220W        W83480  22.442   1.517  13.031
11221W        W83481   0.252  35.836   2.791
11222W        W83482  21.510  37.503  14.601
11223W        W83483  15.991  24.010  12.380
11224W        W83484  39.835  35.417  10.684
11225W        W83485  19.146  32.692  13.112
11226W        W83486  44.249  17.084  10.971
11227W        W83487  15.862  24.871   2.670
11228W        W83488  16.402  31.110  12.795
11229W        W83489  20.672   5.949   0.816
11230W        W83490  37.415  14.880   4.560
11231W        W83491  33.664  43.080   3.797
11232W        W83492  32.052  12.918   3.541
11233W        W83493  25.035  40.516  11.037
11234W        W83494  20.258  42.833  14.837
11235W        W83495  31.971  15.715  12.032
11236W        W83496  44.136  20.543   2.872
11237W        W83497  27.106  39.940  14.443
11238W        W83498  20.750  29.575   0.902
11239W        W83499  40.878  44.339   0.399
11240W        W83500  23.106   0.759  14.809
11241W        W83501   1.230   7.724   4.293
11242W        W83502  41.004   9.996   3.912
11243W        W83503   2.374  16.375  14.554
11244W        W83504  19.484  34.455  11.613
11245W        W83505  22.320  40.844  13.766
11246W        W83506  12.476  44.389   3.764
11247W        W83507  26.167  13.506  14.767
11248W        W83508  43.711   0.261   3.169
11249W        W83509  27.040  14.567   4.579
11250W        W83510  35.654   2.282   4.898
11251W        W83511  44.421  10.370  14.009
11252W        W83512  33.534  35.691   4.108
11253W        W83513  27.444  16.187   2.112
11254W        W83514  34.002  39.490   0.413
11255W        W83515  17.730  23.198  14.935
11256W        W83516  44.637  29.798  13.797
11257W        W83517  12.886  22.603  12.468
11258W        W83518   7.132  19.988  10.815
11259W        W83519  18.060   1.675  14.306
11260W        W83520  44.880  29.919   3.703
11261W        W83521  16.188  22.679   0.844
11262W        W83522  28.687  25.344   3.450
11263W        W83523  44.827   1.060   2.818
11264W        W83524   6.878   9.512  14.841
11265W        W83525  39.146  23.093  11.125
11266W        W83526  16.587   2.240   1.835
11267W        W83527   5.457  24.774  10.598
11268W        W83528  32.636  19.096   0.872
11269W        W83529  27.935  12.873   1.241
11270W        W83530  36.689  15.289  14.352
11271W        W83531  14.608  25.270  12.913
11272W        W83532   9.281  10.186   4.232
11273W        W83533  35.245  19.226   4.084
11274W        W83534  43.968  24.126   3.178
11275W        W83535  40.550  24.888   0.902
11276W        W83536  23.042   6.682   1.272
11277W        W83537  34.009  36.156   1.706
11278W        W83538  10.586  37.336   4.597
11279W        W83539  38.443  24.502   0.251
11280W        W83540  17.307  18.543  11.879
11281W        W83541  17.647   3.814   0.610
11282W        W83542  17.622  40.089  14.539
11283W        W83543   5.925  24.214   1.282
11284W        W83544   9.250  21.449   2.747
11285W        W83545  32.336  19.187   0.384
11286W        W83546   7.423  28.638  10.630
11287W        W83547  26.611  22.521  14.851
11288W        W83548   2.291   1.518  13.309
11289W        W83549  30.970   7.858   2.715
11290W        W83550  25.208  14.729   1.877
11291W        W83551  24.244  32.102  13.117
11292W        W83552  14.096   1.903   1.259
11293W        W83553   7.824  17.177  10.341
11294W        W83554  30.588  37.189  10.648
11295W        W83555  18.796  40.893   2.938
11296W        W83556  17.523  40.571  14.362
11297W        W83557  20.238  14.578   1.787
11298W        W83558  10.742  38.265   0.970
11299W        W83559  11.604  36.382   4.198
11300W        W83560  30.021  10.155  13.384
11301W        W83561  27.742   0.794  14.917
11302W        W83562  44.476  32.468   4.271
11303W        W83563   0.461  29.093   2.538
11304W        W83564  44.622  41.954  14.010
11305W        W83565   4.621  43.346   1.930
11306W        W83566  40.409   0.374  12.563
11307W        W83567  23.481  26.556   3.703
11308W        W83568   4.908   9.042  12.812
11309W        W83569  33.281  24.924  13.395
11310W        W83570  11.167   0.507   4.692
11311W        W83571  24.039   7.388   1.885
11312W        W83572  24.442   3.677   3.676
11313W        W83573  40.988   6.451  13.505
11314W        W83574  32.226  27.194   0.058
11315W        W83575  22.375   5.264   0.946
11316W        W83576  20.011  12.184   2.300
11317W        W83577  11.158  31.696   0.383
11318W        W83578  11.161   4.782  11.490
11319W        W83579   8.675  41.397   3.165
11320W        W83580  22.169  27.513   2.262
11321W        W83581   4.615  44.771  10.851
11322W        W83582  35.549  21.515   4.398
11323W        W83583   2.081  36.554  12.956
11324W        W83584  33.614  13.894   0.433
11325W        W83585  15.960  19.803  10.684
11326W        W83586  25.614  33.815   2.333
11327W        W83587   2.744  27.660   2.145
11328W        W83588  18.579  11.182  14.985
11329W        W83589  17.215   2.197   0.013
11330W        W83590  37.822  19.744   4.566
11331W        W83591  39.175  16.387   0.944
11332W        W83592  42.520  42.508  13.485
11333W        W83593  35.819  26.591  12.554
11334W        W83594  15.170  21.029   1.384
11335W        W83595  41.834  25.085  12.783
11336W        W83596  37.963  41.532  11.618
11337W        W83597  28.745  41.069  11.046
11338W        W83598  15.535  22.148   2.701
11339W        W83599  37.478  37.882  13.984
11340W        W83600  42.848  42.031  14.424
11341W        W83601  11.673  22.153   1.019
11342W        W83602  34.417  24.526   4.844
11343W        W83603  34.018  15.614   4.602
11344W        W83604  10.898   3.199  10.675
11345W        W83605  24.706  15.989  14.294
11346W        W83606   5.285  17.303   1.700
11347W        W83607  19.037   1.330  13.127
11348W        W83608   6.225  39.360   3.268
11349W        W83609  44.515  31.584  10.685
11350W        W83610  20.763  44.037   2.775
11351W        W83611  14.408  34.739  11.902
11352W        W83612   9.880  40.855   4.800
11353W        W83613  28.827  29.812   1.763
11354W        W83614   7.379  23.506  14.302
11355W        W83615  17.988   2.281   3.330
11356W        W83616  17.212  41.374  11.121
11357W        W83617  10.356  26.716  14.406
11358W        W83618   1.023  30.134  13.054
11359W        W83619   6.131  23.231  14.821
11360W        W83620  15.816  39.861  11.521
11361W        W83621   8.832  24.243   1.929
11362W        W83622   8.137  43.054  11.844
11363W        W83623   8.264  24.150  13.886
11364W        W83624  40.807  12.812   0.032
11365W        W83625   1.120  24.439   3.891
11366W        W83626  40.876  44.044  11.616
11367W        W83627  20.116  27.028  11.557
11368W        W83628  35.203   6.824  12.477
11369W        W83629  17.734  37.876   3.416
11370W        W83630  20.647  14.801   1.987
11371W        W83631  13.144  38.385   1.836
11372W        W83632   5.460  32.086  12.479
11373W        W83633  20.601  23.478   3.748
11374W        W83634   5.307  43.099  13.520
11375W        W83635  23.299   5.063   0.521
11376W        W83636   6.447   6.377   2.306
11377W        W83637   9.062  34.271   4.074
11378W        W83638  30.465  29.662  12.278
11379W        W83639   4.986  22.152  13.505
11380W        W83640  23.625   9.179  11.366
11381W        W83641  21.749  45.000  11.190
11382W        W83642   4.588  24.631   4.611
11383W        W83643  42.273  30.507   1.241
11384W        W83644   0.881  24.907   4.707
11385W        W83645   8.875   1.344   0.497
11386W        W83646  21.802  28.503  14.220
11387W        W83647  20.270  21.582  13.704
11388W        W83648  21.303  25.980   3.194
11389W        W83649  39.458  25.951  14.071
11390W        W83650  40.139  13.709   3.758
11391W        W83651  10.957  29.370  10.742
11392W        W83652  42.348  15.797  11.507
11393W        W83653  27.679   4.163   1.778
11394W        W83654  38.815   2.986  10.683
11395W        W83655  10.127  21.759   3.836
11396W        W83656  27.132  31.621   2.139
11397W        W83657  41.823   8.858  13.906
11398W        W83658   7.814  23.429   2.171
11399W        W83659  21.191   5.775   0.219
11400W        W83660  22.753  27.192   3.747
11401W        W83661  34.983  31.568   1.454
11402W        W83662   6.957  23.210  13.375
11403W        W83663  25.148  18.681   0.409
11404W        W83664  10.114  37.462  14.895
11405W        W83665  20.685  36.534   3.793
11406W        W83666  36.374  42.905   0.342
11407W        W83667  28.024   0.923  12.063
11408W        W83668  12.315  37.968   3.647
11409W        W83669  42.024  20.185  13.462
11410W        W83670  14.283  25.982   2.404
11411W        W83671  44.003   5.345   2.864
11412W        W83672  15.311  29.168  13.443
11413W        W83673  17.839  17.339   2.272
11414W        W83674  44.731  33.552  13.085
11415W        W83675  21.199  28.942   3.650
11416W        W83676  35.376   9.733  13.482
11417W        W83677  25.332   3.874   2.265
11418W        W83678  18.650   6.628   0.361
11419W        W83679   1.461  13.718   4.032
11420W        W83680  26.528   5.330  12.894
11421W        W83681  13.275   0.867  11.540
11422W        W83682  31.033  43.384   4.247
11423W        W83683  38.710  11.373   3.185
11424W        W83684  22.151  37.966  11.824
11425W        W83685  36.058  21.263  14.986
11426W        W83686  25.145  31.997   3.115
11427W        W83687  39.822  38.393  11.890
11428W        W83688  44.290  12.123  13.693
11429W        W83689  18.224   2.561   2.607
11430W        W83690  43.332  44.798  12.456
11431W        W83691  27.771  30.659  14.211
11432W        W83692  27.473   4.982   1.666
11433W        W83693  23.107  35.323  11.647
11434W        W83694   2.253   1.778  12.865
11435W        W83695   7.951  40.369  13.608
11436W        W83696   5.721  42.357   3.000
11437W        W83697  17.114  30.060  11.183
11438W        W83698  13.065  30.397  10.774
11439W        W83699  37.070  17.856  11.070
11440W        W83700  24.501  28.452   9.789
11441W        W83701  32.593  13.701  13.249
11442W        W83702  16.051  25.119  12.934
11443W        W83703  20.004  13.718   3.773
11444W        W83704   2.990  17.151   3.204
11445W        W83705   4.234  28.644  14.841
11446W        W83706   0.416   0.093   4.550
11447W        W83707  43.796   6.157   2.471
11448W        W83708   4.809  14.742   5.104
11449W        W83709  24.587  26.113   1.294
11450W        W83710  17.447  13.907   3.619
11451W        W83711  30.399  23.626   1.482
11452W        W83712  11.774  27.572  11.376
11453W        W83713  35.496   2.697  14.413
11454W        W83714  37.546  35.468  14.286
11455W        W83715  44.908  22.748  13.406
11456W        W83716   3.513   8.958   2.702
11457W        W83717  43.279  30.873   3.117
11458W        W83718  20.785  37.403  10.681
11459W        W83719  12.328   1.470   2.262
11460W        W83720   9.366   4.499   0.299
11461W        W83721   2.509  37.075   3.822
11462W        W83722   2.291  32.543  12.164
11463W        W83723  10.662   4.293   3.408
11464W        W83724  27.953  42.330  10.382
11465W        W83725  41.800  40.804  14.509
11466W        W83726  36.559  36.120  12.966
11467W        W83727   3.852   8.374   1.357
11468W        W83728   0.507   2.914   0.797
11469W        W83729  43.715   4.009   4.156
11470W        W83730   3.157   3.886  13.941
11471W        W83731  10.681  30.053   3.326
11472W        W83732  43.303  27.244  13.079
11473W        W83733  21.116  13.721   1.630
11474W        W83734  36.560  16.291  13.467
11475W        W83735  24.417  14.285  13.840
11476W        W83736   2.482  12.192  13.932
11477W        W83737  20.465  15.236   2.282
11478W        W83738  13.063  44.437   1.316
11479W        W83739  13.537  35.389   3.727
11480W        W83740  41.889  20.901   3.267
11481W        W83741   4.719   4.362   1.685
11482W        W83742  36.077  40.846  13.427
11483W        W83743  33.107  29.550   0.055
11484W        W83744   2.239  42.863  14.068
11485W        W83745  30.542  34.165  12.060
11486W        W83746  41.491   1.378   1.946
11487W        W83747  10.579  24.946   1.880
11488W        W83748   1.807  34.911   1.540
11489W        W83749  30.221  42.955  11.196
11490W        W83750   8.160  43.055   1.955
11491W        W83751  29.925  32.531  14.703
11492W        W83752  39.389  36.092   1.127
11493W        W83753  44.390  39.134  12.308
11494W        W83754  39.587   6.373  13.305
11495W        W83755   5.399  11.737  11.115
11496W        W83756   9.536  15.105   4.079
11497W        W83757  21.333  40.963  14.092
11498W        W83758   8.003  35.503   1.020
11499W        W83759  38.205  44.045   2.983
11500W        W83760  20.739  10.228   3.827
11501W        W83761  13.762  28.377   0.494
11502W        W83762  10.063  26.172   5.063
11503W        W83763  32.601  33.854   1.416
11504W        W83764  43.814  11.693   3.689
11505W        W83765   0.452  31.420   3.432
11506W        W83766  35.460  23.162  12.447
11507W        W83767  30.093  25.757  14.232
11508W        W83768   2.458   0.206  14.269
11509W        W83769  36.570  19.268   4.505
11510W        W83770  43.574  30.648   4.728
11511W        W83771  23.052  33.042   3.790
11512W        W83772  23.097   1.430  13.917
11513W        W83773   9.661  21.848  13.425
11514W        W83774   3.033  44.325  13.119
11515W        W83775  25.526  39.033   1.309
11516W        W83776  18.087  30.110   1.846
11517W        W83777  31.449  21.556  11.549
11518W        W83778  31.028   3.268   2.838
11519W        W83779   2.694  33.459   3.384
11520W        W83780   7.136  36.556  14.963
11521W        W83781  26.107   8.657   4.851
11522W        W83782  26.174  42.734  11.201
11523W        W83783  17.089  23.436  12.925
11524W        W83784  13.593  41.288   2.637
11525W        W83785  28.243   2.506   3.402
11526W        W83786  37.563  19.072  13.630
11527W        W83787  32.559  21.732   0.456
11528W        W83788   4.797  39.054   1.661
11529W        W83789  28.052   5.332  13.104
11530W        W83790  12.657  27.852  11.026
11531W        W83791  40.049  18.795  13.563
11532W        W83792  33.262   6.780  13.268
11533W        W83793  13.429  37.491  13.855
11534W        W83794   3.307  40.494  14.397
11535W        W83795  19.602  29.638   3.767
11536W        W83796  38.105  15.725  14.934
11537W        W83797  11.142  38.396  13.506
11538W        W83798  29.118  20.237  11.038
11539W        W83799  13.854  36.622  13.578
11540W        W83800  27.585  19.734   0.840
11541W        W83801  18.901  31.660   4.830
11542W        W83802  31.471   0.910  12.109
11543W        W83803   8.696  38.757  10.610
11544W        W83804  27.292  44.509  12.885
11545W        W83805   9.735  18.993   4.146
11546W        W83806  19.993  12.779  12.442
11547W        W83807  25.131  39.362   3.113
11548W        W83808  22.811  29.456   0.705
11549W        W83809  36.100  40.253   3.684
11550W        W83810  22.749  42.022   2.981
11551W        W83811  13.774  13.398  10.602
11552W        W83812  12.894   0.312  13.528
11553W        W83813  29.063  18.932  11.599
11554W        W83814   4.294   9.175   1.907
11555W        W83815  41.804  32.406  13.020
11556W        W83816   7.317  36.917  14.579
11557W        W83817  27.594  30.907   4.638
11558W        W83818   2.965  28.039   1.890
11559W        W83819  24.429  11.090  13.361
11560W        W83820  42.536  23.017   1.764
11561W        W83821  36.591  20.305  11.848
11562W        W83822  24.818  40.284   2.854
11563W        W83823  38.399  20.224  13.590
11564W        W83824  32.505   5.152   3.658
11565W        W83825  14.155  24.174   3.173
11566W        W83826  29.963  24.303  13.064
11567W        W83827  36.119  27.702   0.504
11568W        W83828  12.286   4.133   3.964
11569W        W83829  31.548  44.351   4.521
11570W        W83830   9.240  29.151   2.689
11571W        W83831  27.842  24.593  14.689
11572W        W83832  16.243  37.198  11.583
11573W        W83833  22.984  17.581   3.589
11574W        W83834  41.031  32.842   3.341
11575W        W83835  35.480  31.573  10.538
11576W        W83836  27.539  32.616  14.832
11577W        W83837  28.145  17.370   3.677
11578W        W83838  14.147  28.653   5.002
11579W        W83839  40.372  28.355   2.373
11580W        W83840  34.719   4.931  10.380
11581W        W83841  19.849  37.489  14.072
11582W        W83842   8.961   9.841   1.154
11583W        W83843  32.129  14.732  11.561
11584W        W83844  43.073  27.114   3.165
11585W        W83845   3.048  42.861   3.259
11586W        W83846   0.920  35.162  14.803
11587W        W83847  18.958  29.937   0.267
11588W        W83848  16.623   8.712  10.805
11589W        W83849  25.188  34.683   3.705
11590W        W83850   1.372  30.333  13.916
11591W        W83851   8.420   0.533   0.544
11592W        W83852  31.437  16.320  12.026
11593W        W83853  19.262  25.613  14.948
11594W        W83854  33.543  43.545   2.154
11595W        W83855   4.957  20.553  13.984
11596W        W83856  39.395  34.051  10.676
11597W        W83857  16.062   6.897  13.362
11598W        W83858  42.861   9.527  12.602
11599W        W83859  32.114  16.768   2.483
11600W        W83860  31.397   6.884   4.283
11601W        W83861   5.380  15.108   2.960
11602W        W83862  18.984   5.283   4.736
11603W        W83863   9.722  17.149   2.280
11604W        W83864  36.413  31.697  12.070
11605W        W83865  36.016  37.010   0.049
11606W        W83866  32.832  36.361   4.020
11607W        W83867  36.094  18.987   2.786
11608W        W83868  18.532  15.328  10.644
11609W        W83869  13.329   4.223   4.326
11610W        W83870  34.603  16.146  11.154
11611W        W83871   9.882  10.327  10.150
11612W        W83872  34.367  29.137  13.912
11613W        W83873  14.664  17.951  10.206
11614W        W83874  37.744  29.193  13.971
11615W        W83875  38.019  37.918  10.915
11616W        W83876   3.443  33.928   0.809
11617W        W83877  39.217   3.761  14.833
11618W        W83878  31.578   9.375  10.743
11619W        W83879  31.571   0.351  10.652
11620W        W83880  20.630  25.461  10.671
11621W        W83881  30.089  32.875   0.941
11622W        W83882  39.840  15.358   1.045
11623W        W83883  29.458  21.813  13.463
11624W        W83884  36.849  42.894  13.152
11625W        W83885  32.648   2.737   4.065
11626W        W83886  14.702  23.683   1.459
11627W        W83887   6.911   8.851   2.244
11628W        W83888  15.741  34.185   1.742
11629W        W83889  14.897  17.191  10.222
11630W        W83890  13.270  44.561   0.014
11631W        W83891  41.472  39.007  13.408
11632W        W83892  15.074  15.362   0.469
11633W        W83893  30.785  40.189   4.073
11634W        W83894  43.452  26.491  12.765
11635W        W83895  10.415  15.156   2.822
11636W        W83896  24.760  14.277  12.835
11637W        W83897  41.372  41.391   4.798
11638W        W83898  10.383   1.021   0.596
11639W        W83899  21.655  15.498  13.315
11640W        W83900  21.154  40.453   2.293
11641W        W83901  34.519  21.465  13.459
11642W        W83902  32.917  22.942  12.450
11643W        W83903  30.232  33.316  10.146
11644W        W83904   9.687   6.792  11.306
11645W        W83905  32.430  40.617  13.835
11646W        W83906   0.826  33.747   2.633
11647W        W83907   9.149   4.817  14.021
11648W        W83908  29.302  14.672  14.032
11649W        W83909   5.690  36.318   0.848
11650W        W83910  22.727  41.409   1.796
11651W        W83911  29.959  42.921   1.951
11652W        W83912  15.067  27.678  14.477
11653W        W83913  32.596  38.953   0.497
11654W        W83914  20.669  37.782   0.200
11655W        W83915  21.452  14.731  13.599
11656W        W83916  18.977  17.105   4.177
11657W        W83917  16.593  27.742   2.661
11658W        W83918  12.598  37.055   0.747
11659W        W83919  26.537   0.263   3.823
11660W        W83920  14.187  29.705   2.668
11661W        W83921  20.112  22.102   1.387
11662W        W83922  19.092  19.713   3.211
11663W        W83923  27.998  35.064  10.270
11664W        W83924  42.858  34.182   0.418
11665W        W83925  34.050   7.872  14.809
11666W        W83926   5.256  42.331   2.244
11667W        W83927  34.414  23.943   1.402
11668W        W83928  34.700  44.282   0.312
11669W        W83929  26.496  27.804   4.567
11670W        W83930  26.289  14.113   4.110
11671W        W83931  20.194   7.155   9.811
11672W        W83932  26.476   5.376   4.131
11673W        W83933  33.005   5.940   3.706
11674W        W83934  29.539  18.528  12.384
11675W        W83935  32.990  21.972  13.890
11676W        W83936  17.644   3.293   2.430
11677W        W83937   2.923  32.937  13.384
11678W        W83938  28.455  20.567   2.505
11679W        W83939  26.766  24.284  12.319
11680W        W83940   8.335  14.636   4.496
11681W        W83941  38.803  15.559   0.469
11682W        W83942   6.266   5.511   3.811
11683W        W83943  14.579   5.702   1.195
11684W        W83944  18.220  34.363  10.687
11685W        W83945  29.192  41.351  14.880
11686W        W83946  14.188   9.649   0.553
11687W        W83947   8.721  29.587   4.161
11688W        W83948   5.780  12.322   2.727
11689W        W83949  25.575   6.719  13.430
11690W        W83950   2.876  13.220  12.508
11691W        W83951   5.620  35.838   0.666
11692W        W83952  21.460   7.380  11.099
11693W        W83953  21.279  44.798  11.144
11694W        W83954  25.346  37.656   5.178
11695W        W83955   8.139  40.922  13.043
11696W        W83956  21.286  44.201   4.072
11697W        W83957  28.484  43.005  14.872
11698W        W83958  40.643  39.160   2.861
11699W        W83959  33.655  14.169  14.944
11700W        W83960  10.793  20.624   3.044
11701W        W83961  30.070   9.871   2.471
11702W        W83962  25.499  31.913   1.780
11703W        W83963  25.568  34.286   0.984
11704W        W83964  40.727   4.741   2.761
11705W        W83965  37.933  38.071   2.001
11706W        W83966  16.683   0.940   2.798
11707W        W83967  29.911  24.634  10.787
11708W        W83968  30.554  23.042  12.359
11709W        W83969   1.411  23.083  14.999
11710W        W83970   7.118  24.659  12.643
11711W        W83971   7.208  10.318  11.021
11712W        W83972   7.532  27.705   5.272
11713W        W83973  40.942  39.383   4.668
11714W        W83974  28.232   7.297   2.791
11715W        W83975  22.619  44.202   2.769
11716W        W83976  44.748  39.815  14.335
11717W        W83977   2.452  44.674  14.405
11718W        W83978  33.875   6.260  11.954
11719W        W83979  30.362  33.624  12.044
11720W        W83980  26.698  43.210   0.304
11721W        W83981  21.292  16.644   1.451
11722W        W83982   8.961  23.954   4.677
11723W        W83983  23.318  15.987   4.034
11724W        W83984  29.501  27.471   0.693
11725W        W83985  37.405  40.982  12.485
11726W        W83986   4.757  15.327  10.682
11727W        W83987  26.005  39.952   4.666
11728W        W83988  15.384  36.467  10.723
11729W        W83989  41.070  37.313   0.185
11730W        W83990  21.569  22.539  12.816
11731W        W83991  35.851  21.731   0.256
11732W        W83992   1.605  21.447  12.968
11733W        W83993  34.097  27.478  11.582
11734W        W83994  23.696  12.733   1.298
11735W        W83995  37.158  13.236   3.249
11736W        W83996  43.054  20.115  10.401
11737W        W83997   0.055  30.456   1.147
11738W        W83998  37.603  24.054   3.624
11739W        W83999   1.164  17.207   1.868
11740W        W84000  22.372  17.624  11.694
11741W        W84001  11.216  23.335   0.862
11742W        W84002  42.528  19.067   2.637
11743W        W84003   3.206   7.606  13.565
11744W        W84004   9.738  23.603  12.123
11745W        W84005  22.166  36.823  14.797
11746W        W84006  27.712  35.030  10.709
11747W        W84007  17.628  12.182   2.751
11748W        W84008  29.158   2.474  13.815
11749W        W84009  23.639  40.692  12.591
11750W        W84010  28.751  30.698  12.996
11751W        W84011  31.250  16.071  14.402
11752W        W84012  19.906  29.121   5.334
11753W        W84013  38.327  23.645   2.593
11754W        W84014  19.278  18.190  13.831
11755W        W84015  18.864  43.630   3.993
11756W        W84016  41.744  16.986   1.409
11757W        W84017  43.763  41.606  12.059
11758W        W84018  10.394  36.875   4.695
11759W        W84019  24.714  25.970  13.458
11760W        W84020  33.253  18.875   2.358
11761W        W84021   4.463  35.158  11.105
11762W        W84022   0.753  32.174   3.900
11763W        W84023  22.507  27.178   4.633
11764W        W84024  30.872  18.638  13.045
11765W        W84025  25.071  19.022   3.519
11766W        W84026  36.768  22.836  13.935
11767W        W84027   6.237   9.596  10.535
11768W        W84028  30.221  17.123  13.926
11769W        W84029  32.104  31.480   4.110
11770W        W84030  37.950   0.931  14.045
11771W        W84031  15.010  25.917  13.864
11772W        W84032   3.042   0.001   0.931
11773W        W84033  21.927  44.913   4.787
11774W        W84034  18.329  19.043   1.619
11775W        W84035  34.434  11.224  14.842
11776W        W84036   5.026  14.631  12.545
11777W        W84037  17.270   8.252   0.839
11778W        W84038  16.880  19.532  12.079
11779W        W84039  11.262   7.404  12.525
11780W        W84040  37.890  34.791   2.751
11781W        W84041  15.358  22.365   4.444
11782W        W84042  39.607   2.003   2.753
11783W        W84043   1.302  13.793  13.583
11784W        W84044  38.594  44.113  11.089
11785W        W84045  26.743   4.749   0.307
11786W        W84046   3.920  44.379  10.875
11787W        W84047  44.928  42.005  10.501
11788W        W84048   2.578  30.058   3.076
11789W        W84049  33.530  12.148  11.073
11790W        W84050   3.843   2.917  13.100
11791W        W84051  44.987   7.288  13.500
11792W        W84052  33.567  25.158  12.430
11793W        W84053  26.236  14.753   2.844
11794W        W84054  41.427   1.966   3.252
11795W        W84055  43.315   5.157   1.651
11796W        W84056  27.094  31.466   3.957
11797W        W84057  26.408  40.020   1.651
11798W        W84058  36.604  18.645  11.535
11799W        W84059   3.894  35.033  11.682
11800W        W84060  37.659  34.382   4.946
11801W        W84061   1.837  40.461  12.059
11802W        W84062  28.653  28.134  13.998
11803W        W84063  12.170   1.489  13.909
11804W        W84064  44.723  23.625   3.080
11805W        W84065  44.564  11.720  11.518
11806W        W84066  14.121  44.173  12.239
11807W        W84067  19.222   8.949   1.359
11808W        W84068  43.697  23.120   1.334
11809W        W84069   8.262  25.312   4.537
11810W        W84070  31.964   8.844  14.708
11811W        W84071  31.541   1.723  11.608
11812W        W84072  30.517  43.808   0.193
11813W        W84073  19.489  34.873  11.934
11814W        W84074  33.156  42.242   4.299
11815W        W84075   0.221  26.136  12.883
11816W        W84076  39.939   1.045  12.123
11817W        W84077   4.623  23.141  12.616
11818W        W84078  18.925   7.571  12.865
11819W        W84079   9.899  14.202  10.581
11820W        W84080  39.358  14.580   1.334
11821W        W84081  26.517  18.054   2.134
11822W        W84082  34.096   6.226   4.119
11823W        W84083  37.118  42.061   2.137
11824W        W84084   9.661   1.957   1.823
11825W        W84085  27.485   2.761   2.322
11826W        W84086  38.943  33.014   1.044
11827W        W84087  39.540  43.729   4.144
11828W        W84088  31.998  33.155   1.213
11829W        W84089   1.273  15.565  13.510
11830W        W84090   8.879  29.624  11.643
11831W        W84091   3.811  36.403  13.804
11832W        W84092  25.967   3.957   1.712
11833W        W84093  39.733  14.145   2.170
11834W        W84094  21.397  43.327  11.935
11835W        W84095  44.150  41.045  10.000
11836W        W84096  12.074  44.050   0.368
11837W        W84097  25.742  30.011  13.596
11838W        W84098   8.005  10.625  13.800
11839W        W84099  36.784  34.274   2.843
11840W        W84100  12.820  39.362  14.777
11841W        W84101   0.223  36.282  10.956
11842W        W84102   3.892  39.063   3.208
11843W        W84103   0.278  11.103  12.123
11844W        W84104  32.552  19.223  11.752
11845W        W84105  30.144   5.701  13.590
11846W        W84106   1.441  31.919   0.361
11847W        W84107  18.877   3.082  12.386
11848W        W84108  23.715  35.828  14.465
11849W        W84109  11.078   2.481   4.437
11850W        W84110  31.965  31.869   0.294
11851W        W84111   2.143  37.740   4.941
11852W        W84112  15.249  18.728   2.142
11853W        W84113  22.456  23.498   3.622
11854W        W84114  38.273   6.449   4.638
11855W        W84115  44.449  29.529   1.951
11856W        W84116  20.497   3.456  13.987
11857W        W84117   2.850  28.837  11.550
11858W        W84118   7.150   5.020   4.974
11859W        W84119  40.534  11.223  13.417
11860W        W84120   6.642  30.283   1.374
11861W        W84121  20.233   0.280   4.257
11862W        W84122  32.869  22.025   1.202
11863W        W84123  24.763  23.487   3.747
11864W        W84124  11.244  30.327  10.731
11865W        W84125  41.838  31.287   4.140
11866W        W84126  44.572  20.839   2.869
11867W        W84127  23.386  23.440  13.922
11868W        W84128   6.398  38.849  13.044
11869W        W84129  22.686   1.382  11.074
11870W        W84130  43.102  32.949   4.453
11871W        W84131   1.082  31.461   1.724
11872W        W84132  23.603  10.829   2.829
11873W        W84133  15.123  22.503  13.908
11874W        W84134  16.042  39.894  12.004
11875W        W84135  24.218  17.316  14.051
11876W        W84136  14.258   9.776   3.718
11877W        W84137  14.273  20.671   2.894
11878W        W84138  22.689  20.071  10.872
11879W        W84139   0.014  40.355   1.937
11880W        W84140  10.886   9.355  11.071
11881W        W84141   6.899  20.601  12.984
11882W        W84142  42.395  11.449  11.098
11883W        W84143  11.922   0.396  12.663
11884W        W84144  26.891  23.473   1.189
11885W        W84145   6.236  43.076   4.270
11886W        W84146  23.028  10.299  14.492
11887W        W84147  25.369  30.158  13.976
11888W        W84148  32.635   1.170  13.427
11889W        W84149  20.392  43.019  11.633
11890W        W84150   3.813  16.582  14.837
11891W        W84151  11.916   7.446   2.630
11892W        W84152  12.190  13.654  11.518
11893W        W84153  19.206   0.551   4.585
11894W        W84154   9.544  14.440   3.967
11895W        W84155  28.046  28.736  12.929
11896W        W84156  35.771  28.568  11.173
11897W        W84157   5.939  23.539  13.552
11898W        W84158   6.674  40.616   4.063
11899W        W84159  29.079  40.992   1.840
11900W        W84160  23.139  14.178  10.795
11901W        W84161  40.230  27.455  14.791
11902W        W84162  29.308  32.403  10.870
11903W        W84163  35.330  20.376   4.724
11904W        W84164  41.529  40.493   2.275
11905W        W84165  23.628  24.992  11.097
11906W        W84166   5.675  32.172   4.196
11907W        W84167  30.043  31.110  10.560
11908W        W84168   9.383  10.917   2.032
11909W        W84169   7.821   3.354   0.501
11910W        W84170  17.568  40.538   0.468
11911W        W84171  16.823   8.526  11.655
11912W        W84172   7.022  33.927  10.731
11913W        W84173  20.707  27.438   5.402
11914W        W84174  13.133   3.557   2.954
11915W        W84175  41.445  17.585   2.269
11916W        W84176   5.350  13.403   4.018
11917W        W84177  18.832  16.403  12.636
11918W        W84178  13.014  20.583   3.363
11919W        W84179  25.008  12.706   2.668
11920W        W84180  14.849  20.312   0.883
11921W        W84181  33.801  26.745   2.214
11922W        W84182  43.733   3.976   0.289
11923W        W84183   1.290  41.890  12.887
11924W        W84184  41.956   3.839  13.441
11925W        W84185  11.589  40.877  11.139
11926W        W84186  34.948   3.335   2.900
11927W        W84187  13.767  14.550   3.136
11928W        W84188  17.653   9.660  10.675
11929W        W84189  10.619  36.367   3.732
11930W        W84190  36.627  19.761  13.680
11931W        W84191  10.470  19.654  13.172
11932W        W84192  20.151  17.371  11.690
11933W        W84193  40.977   9.351   0.038
11934W        W84194  42.884  34.438  14.637
11935W        W84195  33.927  11.385  14.999
11936W        W84196  17.943   2.820  10.983
11937W        W84197   9.004  13.119  14.079
11938W        W84198   8.402  34.909   3.681
11939W        W84199  17.694  28.272  14.361
11940W        W84200  35.442  21.901   0.911
11941W        W84201  16.600  15.365   1.206
11942W        W84202  24.138  26.367   1.262
11943W        W84203  11.774  29.817  10.159
11944W        W84204  11.386  17.633   3.907
11945W        W84205  33.280  17.908  13.015
11946W        W84206  28.277  21.742   2.900
11947W        W84207  36.113  27.500   4.694
11948W        W84208  42.463  24.665  12.511
11949W        W84209  29.631  33.612  13.626
11950W        W84210   0.187   5.749   2.906
11951W        W84211   8.780   6.564   2.749
11952W        W84212  44.936   2.267   4.691
11953W        W84213  41.669  38.254  13.872
11954W        W84214  13.069  40.463   0.003
11955W        W84215  27.972  38.444  14.797
11956W        W84216   3.792   1.935  13.907
11957W        W84217  43.210  10.873  12.938
11958W        W84218  22.596   1.321  12.074
11959W        W84219  25.899  18.369  11.115
11960W        W84220   5.502  27.054   4.621
11961W        W84221   1.565   5.314   0.536
11962W        W84222  18.739  41.752  14.887
11963W        W84223  39.196  16.305   1.956
11964W        W84224  14.262   8.833  10.545
11965W        W84225   4.333   6.681   1.160
11966W        W84226  12.873  33.289   0.972
11967W        W84227  28.911  36.031   2.660
11968W        W84228  21.718   9.922  14.455
11969W        W84229   2.684  14.146  11.496
11970W        W84230   1.088  10.153   4.413
11971W        W84231   3.011   0.739  14.932
11972W        W84232  18.927  19.452  12.640
11973W        W84233  42.092  38.305  12.668
11974W        W84234   2.617  11.268  13.367
11975W        W84235  15.810  17.151   4.523
11976W        W84236  34.939  38.962  11.518
11977W        W84237  37.606  36.426   3.424
11978W        W84238  13.454   9.526   4.172
11979W        W84239  44.932  30.928  11.951
11980W        W84240   3.411  12.303   1.440
11981W        W84241  33.621  34.941  12.000
11982W        W84242  40.365  43.319  11.610
11983W        W84243  33.096  15.581  14.425
11984W        W84244  35.073  19.620  13.095
11985W        W84245  37.386  39.869   2.445
11986W        W84246  39.183   3.786   4.553
11987W        W84247   3.269   7.280   0.534
11988W        W84248   8.412   1.936  12.116
11989W        W84249  34.833  24.697  11.642
11990W        W84250  14.887  33.572  14.007
11991W        W84251  25.647  19.973   2.625
11992W        W84252  37.823  38.455   4.231
11993W        W84253  18.641   7.770   1.451
11994W        W84254  22.733   5.279   0.281
11995W        W84255   7.317   3.199   3.617
11996W        W84256  33.069   2.417  12.857
11997W        W84257  39.847   4.794  10.552
11998W        W84258  22.314   3.990  13.952
11999W        W84259  19.016  31.043   2.194
12000W        W84260  10.654  28.678  12.237
12001W        W84261  29.746  43.849   3.794
12002W        W84262  21.523  36.043  13.860
12003W        W84263  32.359  25.863   3.950
12004W        W84264  41.318   1.466   3.252
12005W        W84265  27.683  36.661  14.449
12006W        W84266  38.502  21.104   0.790
12007W        W84267  31.374   8.696  13.868
12008W        W84268  41.371  23.596  10.941
12009W        W84269  19.630  37.505   4.065
12010W        W84270  24.531  17.135   3.801
12011W        W84271  32.058   3.872  10.874
12012W        W84272  36.124  22.538   0.803
12013W        W84273   0.528  31.461   2.921
12014W        W84274  31.914  29.002   0.971
12015W        W84275  15.517  10.447   2.057
12016W        W84276  19.601  14.335  11.173
12017W        W84277  17.530   3.120   0.252
12018W        W84278  40.433   6.114  10.685
12019W        W84279   8.217  44.264  13.294
12020W        W84280  17.757   2.856  14.864
12021W        W84281  40.461  24.253  13.784
12022W        W84282  40.794   9.147   2.247
12023W        W84283  32.202  31.474  14.509
12024W        W84284   6.355  38.339  13.162
12025W        W84285   6.252   5.964   5.072
12026W        W84286  40.020   3.915  10.705
12027W        W84287   5.650  26.044   3.434
12028W        W84288  29.184  36.124  13.850
12029W        W84289  24.196  41.087   1.773
12030W        W84290  38.080  13.338   1.803
12031W        W84291  17.793  43.614  14.076
12032W        W84292  25.008  12.138  11.562
12033W        W84293  10.174  30.952  11.112
12034W        W84294   3.786  33.042   1.226
12035W        W84295  12.400  38.186  14.822
12036W        W84296  12.724  12.136   2.845
12037W        W84297  11.861  37.796  14.337
12038W        W84298  34.657  19.225   1.089
12039W        W84299  44.994  36.525  13.440
12040W        W84300  17.588  40.497  11.381
12041W        W84301  20.060  29.993  14.380
12042W        W84302  42.047  29.451   2.452
12043W        W84303  26.043   6.970  13.341
12044W        W84304  25.743  11.721   3.164
12045W        W84305   8.843   1.770  12.318
12046W        W84306  43.090   1.454   1.332
12047W        W84307  36.077  15.338   4.719
12048W        W84308  21.280  31.822   2.679
12049W        W84309  27.609  30.188  11.525
12050W        W84310   1.235   1.330   0.783
12051W        W84311  17.637  29.865  14.308
12052W        W84312  16.710   3.005   2.891
12053W        W84313  38.967  28.590   4.910
12054W        W84314  17.026  35.972  14.621
12055W        W84315  42.970  15.165   0.318
12056W        W84316  38.128  33.395   1.611
12057W        W84317  22.230   7.296   2.345
12058W        W84318  30.512  24.756   0.956
12059W        W84319  37.669  43.726  11.219
12060W        W84320   2.306  41.738  13.331
12061W        W84321  11.225  37.274   3.199
12062W        W84322  35.050  41.382   3.128
12063W        W84323  25.997  20.168   1.366
12064W        W84324  41.559  44.392  12.982
12065W        W84325   3.833   4.496   1.982
12066W        W84326   4.693  14.605   1.859
12067W        W84327  10.725  42.243   3.678
12068W        W84328  39.836  21.651   0.716
12069W        W84329   2.869  39.385   3.941
12070W        W84330  23.534  14.705   1.435
12071W        W84331  34.547  19.208   1.920
12072W        W84332  21.711  44.869   2.393
12073W        W84333  12.639   0.856  14.383
12074W        W84334  28.991  36.567   4.822
12075W        W84335  11.361  40.567   4.042
12076W        W84336  27.004  15.687  12.254
12077W        W84337  14.796  36.411  12.021
12078W        W84338  30.407  43.510   4.872
12079W        W84339  44.298  28.563   2.037
12080W        W84340   4.744  38.921  12.841
12081W        W84341  38.036   4.875   3.858
12082W        W84342   7.248  12.324   1.332
12083W        W84343  10.713   6.363  11.551
12084W        W84344  13.830  43.248   2.181
12085W        W84345  25.577  16.103   2.486
12086W        W84346  28.622  37.484  11.906
12087W        W84347   2.518  32.669   2.204
12088W        W84348  30.165  33.299   4.387
12089W        W84349   0.256  19.109  11.614
12090W        W84350  14.360  11.377   3.186
12091W        W84351  29.590   8.791  12.871
12092W        W84352  10.402  21.538   3.217
12093W        W84353  41.949  40.843   3.178
12094W        W84354  42.864  36.444   3.282
12095W        W84355  25.997  18.808   0.330
12096W        W84356   6.412  13.189   2.166
12097W        W84357  32.372   9.115   1.811
12098W        W84358  27.960  29.121   2.768
12099W        W84359   7.477  33.624   4.140
12100W        W84360   5.656  11.778  12.465
12101W        W84361  32.864  42.292   1.907
12102W        W84362  33.382  44.762  10.683
12103W        W84363   6.121  28.929   0.944
12104W        W84364  25.626   0.764  11.147
12105W        W84365  43.536  31.626   2.666
12106W        W84366  35.451   5.126  14.541
12107W        W84367   3.100  38.175  11.893
12108W        W84368   6.331  17.861  13.090
12109W        W84369  29.880  15.612  10.989
12110W        W84370  26.767  35.868  14.608
12111W        W84371  29.957  22.796   4.435
12112W        W84372  40.506  41.497   2.095
12113W        W84373   3.445  10.755   3.030
12114W        W84374   4.098  11.446  14.279
12115W        W84375  25.725  30.511   3.217
12116W        W84376  16.913  39.588  13.353
12117W        W84377  11.557  25.190  12.154
12118W        W84378  33.321  41.026   0.869
12119W        W84379  26.411  30.896   0.854
12120W        W84380   8.387  43.465   2.776
12121W        W84381  18.257  31.960  13.861
12122W        W84382   8.813  19.109   0.730
12123W        W84383   0.978   3.101   0.858
12124W        W84384  26.016  26.099  10.903
12125W        W84385   9.231  10.281   1.016
12126W        W84386   0.372  25.500  14.422
12127W        W84387  13.189  14.646  10.655
12128W        W84388   4.333  13.599  10.700
12129W        W84389   6.706  21.023  14.356
12130W        W84390  39.885  22.607  10.443
12131W        W84391   4.748  23.495  11.552
12132W        W84392  14.668  27.243  13.766
12133W        W84393  16.986  15.312   3.789
12134W        W84394  30.461  39.384   2.834
12135W        W84395   6.497  19.570  12.008
12136W        W84396  39.152  23.706   0.349
12137W        W84397  31.526  40.228  13.999
12138W        W84398  25.589  10.891  14.737
12139W        W84399  11.208  19.593  12.034
12140W        W84400  25.434  14.903   1.450
12141W        W84401  13.066  27.545   0.412
12142W        W84402  10.513  43.957  10.800
12143W        W84403  27.085  28.466  11.470
12144W        W84404  40.294  15.110   2.001
12145W        W84405   9.251   0.392   3.526
12146W        W84406  28.967  34.415   0.524
12147W        W84407  39.546   7.844  14.746
12148W        W84408   1.313  32.822   3.604
12149W        W84409  24.158  15.185  10.670
12150W        W84410   9.880   1.763   2.999
12151W        W84411   6.327  33.499   9.989
12152W        W84412   4.768  40.532  13.081
12153W        W84413   3.774  32.175  10.276
12154W        W84414   9.926   7.301  12.485
12155W        W84415  28.425  16.203   2.622
12156W        W84416  13.229  44.752  12.557
12157W        W84417  30.698   4.739   4.037
12158W        W84418  30.132   0.817   2.241
12159W        W84419  10.783   6.424   1.353
12160W        W84420  39.851  31.416  14.809
12161W        W84421  20.030  27.728  12.129
12162W        W84422  38.426  17.091   3.410
12163W        W84423  32.205   6.839   0.306
12164W        W84424  26.946  12.869   1.461
12165W        W84425  41.380  34.810   1.418
12166W        W84426  33.092   3.700   2.383
12167W        W84427   8.539  39.219  10.811
12168W        W84428  13.130   9.068  13.906
12169W        W84429  35.145  15.160   1.327
12170W        W84430  12.518   5.334   3.225
12171W        W84431  23.613  44.914   4.628
12172W        W84432  33.541   1.452   4.734
12173W        W84433   5.001  22.457   3.797
12174W        W84434  24.975  38.341  12.429
12175W        W84435  19.037  16.726   2.971
12176W        W84436  33.079  19.287   5.510
12177W        W84437  38.610  42.513   2.241
12178W        W84438  12.173  38.553   0.691
12179W        W84439  21.435  32.097   1.833
12180W        W84440  11.849  15.109  13.382
12181W        W84441  33.761  44.009  12.424
12182W        W84442   7.890  34.164   3.715
12183W        W84443  27.508  32.814   5.001
12184W        W84444  18.603  33.543  11.468
12185W        W84445  10.108  14.814  12.396
12186W        W84446  26.175  40.318   1.277
12187W        W84447  28.508   9.737   3.291
12188W        W84448  22.550  13.990   3.343
12189W        W84449   3.993  25.202   4.974
12190W        W84450  20.552  42.283  11.153
12191W        W84451  26.488  30.050   0.992
12192W        W84452  43.932   9.422   4.414
12193W        W84453  30.210  21.227  11.161
12194W        W84454  26.187  23.494  12.994
12195W        W84455  35.340  26.860  12.570
12196W        W84456  30.942  29.667  10.180
12197W        W84457  12.015  35.389  12.447
12198W        W84458   8.862   1.329   4.703
12199W        W84459   6.724   0.234   2.236
12200W        W84460  23.625   1.756  14.969
12201W        W84461  15.763  30.622  14.300
12202W        W84462   6.618  43.351   1.924
12203W        W84463  32.027  32.686   4.688
12204W        W84464  16.781  14.271  12.404
12205W        W84465   5.948   0.357   0.703
12206W        W84466  39.334  17.314   3.296
12207W        W84467  13.116  39.905  12.208
12208W        W84468  25.202  35.890   1.507
12209W        W84469  41.933  29.012   2.197
12210W        W84470  32.003  11.991   3.806
12211W        W84471  22.014  13.854   1.745
12212W        W84472  19.517  15.180   1.149
12213W        W84473  10.740  19.213   3.125
12214W        W84474  26.569  39.916   0.646
12215W        W84475  31.657  32.047  13.892
12216W        W84476  12.596  22.135  13.309
12217W        W84477  39.955  34.478   4.492
12218W        W84478  31.083  10.722   3.621
12219W        W84479   8.906  22.795  11.566
12220W        W84480   3.765  37.120   0.070
12221W        W84481   7.421  38.984   2.256
12222W        W84482  27.629  29.887  13.623
12223W        W84483  44.695  43.216   3.684
12224W        W84484  34.369   5.654   1.753
12225W        W84485  17.438  40.987  13.595
12226W        W84486  41.003  23.122   0.723
12227W        W84487   5.901  43.836  11.955
12228W        W84488  18.845  13.347   0.187
12229W        W84489  10.239  19.328  12.312
12230W        W84490  16.356  34.022   3.440
12231W        W84491  20.795  27.523   4.478
12232W        W84492  21.275  11.288   4.559
12233W        W84493  12.279  18.588  10.895
12234W        W84494   5.936  37.295   4.666
12235W        W84495   4.336  16.805  12.567
12236W        W84496  12.083  42.222   0.220
12237W        W84497   6.859   8.694   4.575
12238W        W84498  25.671  26.912   1.482
12239W        W84499   9.769  25.038   3.193
12240W        W84500  24.707  39.434  14.874
12241W        W84501  22.935   5.723  12.416
12242W        W84502  42.799  39.240   3.343
12243W        W84503  22.063   0.947  12.591
12244W        W84504  40.174   6.215   1.308
12245W        W84505   7.207  43.866  12.644
12246W        W84506  18.563  30.158  14.370
12247W        W84507  44.853  22.526   2.356
12248W        W84508  44.046  41.306  11.764
12249W        W84509   5.130  25.060  14.779
12250W        W84510  22.054  11.426  11.526
12251W        W84511  37.668  14.013  12.746
12252W        W84512  19.574  34.939   4.607
12253W        W84513   4.805  15.754   0.442
12254W        W84514  37.466  32.632   1.697
12255W        W84515  13.309  42.207  14.827
12256W        W84516  17.983  19.883  12.953
12257W        W84517  30.023  27.518   1.447
12258W        W84518   4.896  35.927  12.120
12259W        W84519   2.338  39.670  13.943
12260W        W84520  30.138  42.043   4.101
12261W        W84521  41.320  24.288   4.121
12262W        W84522  14.859  39.417   2.621
12263W        W84523  42.378  14.047  13.455
12264W        W84524   6.954  42.279   4.321
12265W        W84525  23.600  41.031  10.517
12266W        W84526  24.031  29.599  14.670
12267W        W84527  11.549  30.074  12.469
12268W        W84528  36.928  42.805   3.701
12269W        W84529   0.319   7.871  12.509
12270W        W84530  27.928  40.779  14.981
12271W        W84531  36.660  14.375  12.098
12272W        W84532  43.660  20.273  12.979
12273W        W84533   5.425  34.520  10.732
12274W        W84534  19.266  20.641  12.504
12275W        W84535  34.999  26.421  13.411
12276W        W84536  31.485  43.622   0.554
12277W        W84537  41.790  39.601   1.771
12278W        W84538  19.396   7.177  12.307
12279W        W84539   6.109  34.485   2.926
12280W        W84540  27.385  36.047   3.991
12281W        W84541   6.719   7.257   4.437
12282W        W84542   1.940  15.722   2.827
12283W        W84543  31.426   0.007   2.811
12284W        W84544   1.231  27.985  11.232
12285W        W84545  35.011  10.951   0.737
12286W        W84546  16.691  32.591   1.663
12287W        W84547  29.517  32.117   0.833
12288W        W84548  35.268   7.289   1.277
12289W        W84549   1.819  37.059  12.878
12290W        W84550  18.623  24.688   2.824
12291W        W84551  23.679  34.025  11.108
12292W        W84552   1.339  17.663   3.757
12293W        W84553  30.672   2.218  11.499
12294W        W84554  22.764  36.484   3.551
12295W        W84555  34.451  42.804  12.981
12296W        W84556  15.316   1.496  14.745
12297W        W84557   0.892  17.309   1.419
12298W        W84558  34.443   2.748   0.325
12299W        W84559   4.832  35.629  10.800
12300W        W84560  10.224   4.495   3.153
12301W        W84561  11.736  39.440   4.743
12302W        W84562   5.092  29.583  12.015
12303W        W84563   8.304  26.193  12.244
12304W        W84564  22.460  10.789  13.950
12305W        W84565  21.994  19.963  14.217
12306W        W84566  40.007  18.004   1.157
12307W        W84567  17.101   7.649  10.315
12308W        W84568  37.157  43.531   2.317
12309W        W84569   7.781  12.635  13.133
12310W        W84570  20.230   4.247  12.371
12311W        W84571  26.726   4.698  13.877
12312W        W84572   4.469  14.599   4.218
12313W        W84573   2.790  39.481  12.069
12314W        W84574  22.028  39.455  13.831
12315W        W84575  43.925  34.456  13.600
12316W        W84576   8.800  12.419   3.816
12317W        W84577  28.664  43.869  11.679
12318W        W84578  36.542   0.955  11.877
12319W        W84579  37.413  15.860   3.854
12320W        W84580   4.030   0.897  12.532
12321W        W84581  32.110   4.133   4.849
12322W        W84582  11.570  10.348   4.200
12323W        W84583  10.124  27.427  10.588
12324W        W84584  19.765  40.991  11.505
12325W        W84585   0.702  41.878  14.022
12326W        W84586  43.052  12.747  13.311
12327W        W84587  19.082  26.937  11.112
12328W        W84588  32.587  35.527   0.437
12329W        W84589  44.019  22.546   0.059
12330W        W84590  13.812  31.009   3.675
12331W        W84591  36.928   8.872   2.151
12332W        W84592   4.278   2.083  11.940
12333W        W84593  11.064  23.464   0.348
12334W        W84594  15.574   3.425  13.015
12335W        W84595  14.854   1.397   4.597
12336W        W84596  18.814  26.147   3.808
12337W        W84597  12.746  38.804   4.015
12338W        W84598   2.948  38.882   2.218
12339W        W84599  28.492  42.694  13.596
12340W        W84600  28.894  22.380   3.847
12341W        W84601  44.774   6.776   4.023
12342W        W84602  20.770  36.442  12.300
12343W        W84603  27.537   6.200   2.664
12344W        W84604   5.385   1.511   2.192
12345W        W84605  40.544  43.110   5.115
12346W        W84606  12.609  39.825   4.286
12347W        W84607  18.209  23.695   2.376
12348W        W84608  29.205  12.955   3.722
12349W        W84609   1.714  10.217  10.988
12350W        W84610  10.385  18.562  13.757
12351W        W84611  18.132   3.460   2.299
12352W        W84612  30.335  40.334   1.359
12353W        W84613  38.797  28.066   1.406
12354W        W84614  36.211   9.830  11.425
12355W        W84615  15.928  40.222  13.320
12356W        W84616  35.428  21.512  11.145
12357W        W84617   5.181  24.284   1.819
12358W        W84618  31.408  28.006   3.820
12359W        W84619  11.381  24.942  14.494
12360W        W84620  37.297  30.229   1.325
12361W        W84621   5.263  31.580   0.948
12362W        W84622   0.864  23.751   1.725
12363W        W84623  13.532  27.275   2.857
12364W        W84624  34.403  11.384  11.625
12365W        W84625  20.263   5.613   2.293
12366W        W84626  44.001  24.413  14.495
12367W        W84627   0.986   1.917  11.618
12368W        W84628  44.846  18.782  12.915
12369W        W84629  36.402  17.770  10.702
12370W        W84630  36.958  14.590   1.618
12371W        W84631  22.540   3.284   1.615
12372W        W84632  13.640  30.403   4.561
12373W        W84633  40.545  21.090  12.661
12374W        W84634  26.491  30.904   3.479
12375W        W84635  36.076  35.999   1.062
12376W        W84636  44.856  22.696   3.777
12377W        W84637  39.918   9.535   2.148
12378W        W84638  14.614  40.724   4.264
12379W        W84639  39.431  44.426  10.404
12380W        W84640  29.937  32.636   5.776
12381W        W84641  13.234  16.528   1.194
12382W        W84642  35.971  24.527   2.636
12383W        W84643  21.212  15.970   1.395
12384W        W84644   4.213  26.754  13.898
12385W        W84645  24.098  12.620   2.256
12386W        W84646  13.069  35.746  13.108
12387W        W84647  25.233  17.431  12.615
12388W        W84648  10.230   0.453   4.808
12389W        W84649  39.451  27.968   4.975
12390W        W84650  33.366   4.795   4.206
12391W        W84651  30.769   3.839  11.885
12392W        W84652  21.504   4.704  14.461
12393W        W84653  39.476  32.835  12.978
12394W        W84654   5.821  22.715  10.527
12395W        W84655  37.866  43.657  12.032
12396W        W84656  42.271  29.450   3.214
12397W        W84657  13.625  40.741  11.628
12398W        W84658   0.266  18.278   0.992
12399W        W84659  24.528  11.832   1.308
12400W        W84660   2.898  38.318  13.551
12401W        W84661  11.600  24.731  11.166
12402W        W84662   3.679  22.993  12.511
12403W        W84663  19.684  30.470  12.392
12404W        W84664   1.175  38.437  13.446
12405W        W84665  26.528   2.161   0.314
12406W        W84666   7.877  42.397   3.909
12407W        W84667  38.958   8.410   1.784
12408W        W84668  31.464  43.564  11.179
12409W        W84669  26.107  38.755   3.657
12410W        W84670   2.698  32.921  12.524
12411W        W84671  35.457  39.856  12.040
12412W        W84672  11.768   2.168   0.013
12413W        W84673  33.545  24.899  14.242
12414W        W84674  16.465  42.147  10.655
12415W        W84675  19.118   4.030  11.478
12416W        W84676  42.529  34.569   2.873
12417W        W84677  40.272  18.093  12.552
12418W        W84678  26.056  28.476   1.776
12419W        W84679  23.543  44.790  12.547
12420W        W84680  39.889  20.904   3.900
12421W        W84681  28.915  10.222  10.220
12422W        W84682  21.336  35.605   1.689
12423W        W84683  41.241  36.097   2.366
12424W        W84684   1.791  20.852   4.657
12425W        W84685  22.609  31.934  11.430
12426W        W84686  15.211  29.904   4.647
12427W        W84687  34.342  37.004   0.119
12428W        W84688  11.552  17.019   0.789
12429W        W84689   0.377   1.884   4.873
12430W        W84690  11.764  10.816   1.454
12431W        W84691  16.581   4.808  11.120
12432W        W84692  38.640  27.102   4.719
12433W        W84693  16.343  40.474   4.247
12434W        W84694  37.854  10.590   5.109
12435W        W84695  40.118  12.438   3.656
12436W        W84696  13.378  36.122   4.357
12437W        W84697  19.108  21.639  12.370
12438W        W84698  36.817  20.105  14.398
12439W        W84699  17.512  20.213   3.690
12440W        W84700  20.155  33.023  11.994
12441W        W84701  10.709  17.772   3.304
12442W        W84702   8.494  42.014  12.401
12443W        W84703   5.910  44.061  14.430
12444W        W84704  39.525  30.512  10.723
12445W        W84705   9.673  36.067   2.991
12446W        W84706  14.828  22.038   3.650
12447W        W84707   8.424  38.289  14.798
12448W        W84708  17.508  36.905   0.453
12449W        W84709  43.717  11.251   2.245
12450W        W84710  28.432  17.227  10.213
12451W        W84711  31.391   8.714   1.704
12452W        W84712  11.263  10.626   2.195
12453W        W84713  41.924  10.013  13.395
12454W        W84714  15.907  34.677   0.871
12455W        W84715   2.976  38.491   3.597
12456W        W84716   9.746  37.617   2.353
12457W        W84717  34.091  16.639   4.592
12458W        W84718  21.077  19.323   0.291
12459W        W84719   4.573   0.405  13.044
12460W        W84720   7.864  23.521   0.884
12461W        W84721  36.985   0.394   0.315
12462W        W84722  25.074   2.173  13.942
12463W        W84723  42.249  14.641   2.254
12464W        W84724   9.516  39.465  14.998
12465W        W84725  40.403  22.582   1.864
12466W        W84726   7.500  36.485  12.534
12467W        W84727  16.140  20.090   4.742
12468W        W84728  15.858  20.245  13.077
12469W        W84729  40.127  23.758   3.801
12470W        W84730  44.415  41.036   3.889
12471W        W84731  12.163  30.992   0.940
12472W        W84732  21.283  42.817   2.912
12473W        W84733  26.549  20.802   1.468
12474W        W84734   3.832  15.157  14.107
12475W        W84735  16.645  19.131  11.903
12476W        W84736  14.382  28.999  10.986
12477W        W84737  29.434  31.603   0.932
12478W        W84738   4.324  34.902   3.738
12479W        W84739  27.471  17.405  12.852
12480W        W84740   9.176  20.836  11.150
12481W        W84741  12.346  37.864   2.572
12482W        W84742  23.654  31.866  11.951
12483W        W84743  42.344  40.563  13.393
12484W        W84744   9.604  36.439   4.556
12485W        W84745  14.286  29.010   0.485
12486W        W84746   1.197  10.703   3.919
12487W        W84747   1.763  23.230  10.606
12488W        W84748   4.274  18.268  13.950
12489W        W84749  20.367  23.555  11.800
12490W        W84750  26.187  12.346   3.251
12491W        W84751   6.480  36.549   1.233
12492W        W84752  41.478  31.386  12.126
12493W        W84753  32.355  42.555   3.219
12494W        W84754  32.310  23.547  10.660
12495W        W84755  26.649  11.706   0.532
12496W        W84756  39.471  36.558   0.897
12497W        W84757   1.043  14.332   1.880
12498W        W84758  15.796  26.147  14.289
12499W        W84759   0.484   9.893  13.668
12500W        W84760   1.450  20.664   3.003
12501W        W84761   5.423  27.487   3.329
12502W        W84762  36.351   1.897   4.560
12503W        W84763  28.032  28.183  11.192
12504W        W84764  14.757  10.213  12.078
12505W        W84765   6.485  27.647   1.388
12506W        W84766  28.286   1.768   3.117
12507W        W84767  12.793   7.253   3.765
12508W        W84768  37.272  43.405  12.453
12509W        W84769  42.014  13.756  10.891
12510W        W84770  35.254  39.322  12.820
12511W        W84771  27.463   7.644  11.174
12512W        W84772  36.130  36.612   2.222
12513W        W84773  27.486   8.032   4.175
12514W        W84774  18.797   0.282  11.924
12515W        W84775   9.625   2.723  13.144
12516W        W84776  18.597  29.366  13.004
12517W        W84777  17.514  32.084  12.282
12518W        W84778  30.535  24.573  14.262
12519W        W84779  16.525  24.669  13.919
12520W        W84780  10.849  14.323  14.779
12521W        W84781  37.082  37.546   3.231
12522W        W84782  37.059  36.050  12.798
12523W        W84783  34.366   4.226  11.071
12524W        W84784   1.197  24.582   4.440
12525W        W84785  28.884  25.990  11.362
12526W        W84786  33.291  24.136   4.122
12527W        W84787   8.847  13.815   4.940
12528W        W84788  40.581  17.531  12.006
12529W        W84789   1.519  12.403   4.550
12530W        W84790  14.094  14.077   9.743
12531W        W84791  16.832  17.202   3.882
12532W        W84792  21.789  38.527   1.248
12533W        W84793  25.282   2.817  14.041
12534W        W84794  36.540  15.314   1.346
12535W        W84795  29.093   9.749  14.417
12536W        W84796  21.684  42.928   1.176
12537W        W84797  21.851  35.228   1.223
12538W        W84798  36.504  31.847  13.005
12539W        W84799  16.030  10.133  13.870
12540W        W84800  39.426   8.607   1.922
12541W        W84801  32.506   3.921   1.238
12542W        W84802  18.684  31.484   3.212
12543W        W84803  28.237  14.121  14.412
12544W        W84804  31.878  23.926  12.692
12545W        W84805  43.984  22.243   3.315
12546W        W84806  43.346  43.500  12.035
12547W        W84807  19.866   4.492   1.252
12548W        W84808  30.167  12.969   0.381
12549W        W84809  35.717   7.203   0.356
12550W        W84810  42.381  39.829  10.473
12551W        W84811   5.604  30.581  11.354
12552W        W84812  38.847  13.349  14.764
12553W        W84813   0.779   4.476   2.785
12554W        W84814  12.051   0.895   1.810
12555W        W84815   4.837  11.412   3.829
12556W        W84816  14.556  30.252   2.347
12557W        W84817   9.235   7.785   3.539
12558W        W84818   6.627  39.148  14.342
12559W        W84819  25.503  15.648   2.222
12560W        W84820  34.718   5.799   0.746
12561W        W84821  22.732  31.578   4.255
12562W        W84822   4.760  16.067   0.988
12563W        W84823  16.201  18.621   0.980
12564W        W84824  43.852  29.223  13.901
12565W        W84825   7.643  26.526   1.348
12566W        W84826  42.887   1.453  11.161
12567W        W84827  28.622  21.459  13.317
12568W        W84828  30.711  26.971  14.844
12569W        W84829  22.692  32.092   1.365
12570W        W84830   9.640  43.307   3.396
12571W        W84831  27.902  34.408   0.891
12572W        W84832  12.183  44.585   1.826
12573W        W84833  21.568  19.766  13.114
12574W        W84834  17.531  13.406   3.743
12575W        W84835  18.201  29.049   2.950
12576W        W84836  32.939  36.606   4.486
12577W        W84837  21.250  11.615   1.453
12578W        W84838  40.495  10.408   1.529
12579W        W84839  36.761  18.806   4.621
12580W        W84840  34.607  31.524  11.707
12581W        W84841   5.408  12.759  13.076
12582W        W84842  28.554  12.066  14.845
12583W        W84843  20.509  22.786  12.309
12584W        W84844  26.571   8.943  13.024
12585W        W84845  17.586  38.373  11.619
12586W        W84846  43.712  41.387   0.793
12587W        W84847  32.192  10.723  14.603
12588W        W84848  22.672  30.080   4.931
12589W        W84849   0.442  11.313  14.070
12590W        W84850   1.232  34.000   2.382
12591W        W84851  19.797  34.650  10.656
12592W        W84852  31.425  42.888   0.027
12593W        W84853  33.856  31.691  14.908
12594W        W84854  24.102  42.958   4.520
12595W        W84855   8.635  24.679  10.805
12596W        W84856  35.957   5.745  11.917
12597W        W84857  28.438   0.558  12.101
12598W        W84858   0.450  17.410   4.288
12599W        W84859  20.147  40.806   3.169
12600W        W84860   4.214  29.918  12.029
12601W        W84861  15.182   8.682  14.817
12602W        W84862  44.920  13.573  14.826
12603W        W84863   7.968  30.795  10.237
12604W        W84864  15.628  34.619   3.124
12605W        W84865  13.102   1.519  11.084
12606W        W84866   2.270  12.504  12.098
12607W        W84867  10.379  38.360  10.985
12608W        W84868   7.856  16.602   4.354
12609W        W84869  37.428  27.518   4.934
12610W        W84870   4.192   6.869   0.676
12611W        W84871  23.063  26.699  10.412
12612W        W84872  27.094  38.347  14.445
12613W        W84873  16.105  39.129  11.138
12614W        W84874  14.863  19.168   2.845
12615W        W84875  23.494  27.563   2.550
12616W        W84876   2.608  30.889   2.619
12617W        W84877  38.057  15.782   4.338
12618W        W84878  24.622  42.395  13.724
12619W        W84879  42.212   9.874   2.976
12620W        W84880  25.506   5.281  12.658
12621W        W84881  11.152  33.498   2.055
12622W        W84882   7.331  40.281   0.943
12623W        W84883  24.677   4.789  10.740
12624W        W84884  13.587   4.909  13.981
12625W        W84885  28.943   5.985   4.176
12626W        W84886  30.390  34.663  14.556
12627W        W84887  22.838   0.030   4.965
12628W        W84888   2.718   7.999   2.151
12629W        W84889   0.854   8.377  10.990
12630W        W84890   7.983  28.188   2.331
12631W        W84891  34.000  12.044   4.996
12632W        W84892   6.286   7.002  12.059
12633W        W84893  35.315   3.317   1.539
12634W        W84894  36.328   4.781   1.868
12635W        W84895   7.956  22.701  12.481
12636W        W84896  19.487  15.870  12.997
12637W        W84897  27.489  25.510   1.139
12638W        W84898  13.603  20.505  12.065
12639W        W84899  14.722  26.071  13.366
12640W        W84900   9.962  35.065   4.880
12641W        W84901  15.570   6.862  11.539
12642W        W84902   8.782  25.002  11.198
12643W        W84903  25.471   9.407  14.002
12644W        W84904  12.588  31.677  12.881
12645W        W84905   3.239  18.065  10.739
12646W        W84906  37.291   9.776  14.601
12647W        W84907  24.076  27.631  10.300
12648W        W84908  11.269  39.629   0.720
12649W        W84909  15.729   4.176  10.398
12650W        W84910  32.656  29.224  11.691
12651W        W84911   2.195   9.638   0.961
12652W        W84912  44.903  25.669  12.340
12653W        W84913  22.801   3.923   0.451
12654W        W84914  22.252  34.384  13.074
12655W        W84915  19.897   5.344  13.593
12656W        W84916  17.213  35.062   3.789
12657W        W84917   7.777   1.002   4.483
12658W        W84918  14.344   0.052  11.247
12659W        W84919  32.170  41.837   4.147
12660W        W84920  20.195  36.517  10.783
12661W        W84921  24.500   5.838  11.617
12662W        W84922   2.211   4.863  12.428
12663W        W84923  22.507  37.488   2.857
12664W        W84924   5.905   1.365   4.657
12665W        W84925  35.078  43.330   0.729
12666W        W84926  20.734   0.798  11.856
12667W        W84927  31.788   1.151  13.817
12668W        W84928  13.681  21.638   3.335
12669W        W84929  40.837  13.165  11.853
12670W        W84930  11.065  41.020  11.144
12671W        W84931  24.980  18.818   4.645
12672W        W84932  10.152  34.980   2.676
12673W        W84933  19.649  43.267  12.669
12674W        W84934  22.770  39.025   2.388
12675W        W84935  23.701  36.102  14.026
12676W        W84936  14.836  30.167  12.927
12677W        W84937   8.812   7.516   5.354
12678W        W84938   1.884  10.682  11.130
12679W        W84939  19.344  15.635  13.451
12680W        W84940  15.227  27.092   4.868
12681W        W84941  20.744   4.792   2.367
12682W        W84942  31.878  13.259  10.885
12683W        W84943  28.151  22.939  14.071
12684W        W84944  40.901   3.562   1.326
12685W        W84945  43.466  22.954   2.271
12686W        W84946  27.692  35.869   1.275
12687W        W84947   6.273  15.256   1.887
12688W        W84948  33.487   6.181  10.268
12689W        W84949  29.637  25.409   1.887
12690W        W84950  14.292  16.128   2.124
12691W        W84951  21.279   5.765   1.233
12692W        W84952  37.309  17.573   1.098
12693W        W84953  43.997  34.062  10.502
12694W        W84954  42.476  26.261   4.161
12695W        W84955   4.271  41.653  10.733
12696W        W84956  13.027  31.464  10.111
12697W        W84957  26.958   7.863   0.753
12698W        W84958  23.378  43.301   0.460
12699W        W84959  28.404  36.856   4.151
12700W        W84960   5.389   5.418  13.355
12701W        W84961  34.446  27.952   0.879
12702W        W84962  13.418   4.274  11.055
12703W        W84963   8.766  28.483  10.986
12704W        W84964  44.295  36.007  12.310
12705W        W84965  18.476  40.338   1.289
12706W        W84966  41.381  42.795  13.923
12707W        W84967  36.922   3.247   3.346
12708W        W84968  43.428   7.717   2.824
12709W        W84969  12.271  30.095  13.523
12710W        W84970  27.277  44.110  13.444
12711W        W84971   8.416  25.665  11.604
12712W        W84972  13.215  28.454   1.372
12713W        W84973  36.508   4.926   3.834
12714W        W84974  37.509  15.712   0.433
12715W        W84975  12.410  35.990   3.596
12716W        W84976  24.323   4.079   2.233
12717W        W84977   0.890  12.348   0.768
12718W        W84978  10.218  16.125  10.490
12719W        W84979  42.709  42.441   1.668
12720W        W84980  19.751   2.116  12.397
12721W        W84981  40.394  25.063  10.506
12722W        W84982   3.895   3.542  10.555
12723W        W84983   5.759  25.711  10.755
12724W        W84984  17.033  10.307  12.385
12725W        W84985   9.881  15.580   0.300
12726W        W84986  32.899  14.419   0.916
12727W        W84987  33.933  25.193  14.042
12728W        W84988  15.985   0.477  11.534
12729W        W84989  24.847  26.592   5.058
12730W        W84990  30.656  39.891   0.284
12731W        W84991  23.604  30.026  11.461
12732W        W84992  32.940  15.161   4.257
12733W        W84993   3.771  37.574  13.306
12734W        W84994   1.919  23.372   4.539
12735W        W84995  44.524   9.620   1.131
12736W        W84996  38.345  10.374   5.082
12737W        W84997  31.078  37.339  12.630
12738W        W84998  19.747   4.986   4.425
12739W        W84999  41.607  15.697   0.330
12740W        W85000   1.359  31.885  13.830
12741W        W85001  11.312  16.999  12.115
12742W        W85002  31.622  37.791  11.982
12743W        W85003  39.358  33.821  14.515
12744W        W85004  31.091  30.122   0.463
12745W        W85005   1.711  43.759  12.015
12746W        W85006  29.049  33.452  14.296
12747W        W85007   9.392   9.604   1.374
12748W        W85008  35.926  41.713   3.747
12749W        W85009  13.381  28.551  14.494
12750W        W85010  22.550  20.013   0.301
12751W        W85011   1.399  21.237  10.638
12752W        W85012   0.895  10.142   2.354
12753W        W85013  21.710   5.287  11.908
12754W        W85014  14.831  44.966  11.344
12755W        W85015  11.305  28.163   4.586
12756W        W85016  42.348  39.387   0.376
12757W        W85017  38.269  44.486   1.011
12758W        W85018  36.371  16.779  12.054
12759W        W85019  20.577  41.902  10.772
12760W        W85020  27.385  19.199   3.121
12761W        W85021  34.209  22.189  13.353
12762W        W85022  29.894  35.546  11.887
12763W        W85023  41.869  23.557   1.598
12764W        W85024   3.072  23.955  11.042
12765W        W85025  36.098  11.067  10.628
12766W        W85026   2.982  31.588   0.880
12767W        W85027   1.369  39.871  13.973
12768W        W85028  13.035   6.195   2.746
12769W        W85029  16.259   5.704   0.794
12770W        W85030  27.009  25.867  14.933
12771W        W85031  16.557  23.202   2.824
12772W        W85032  24.374  31.688  12.409
12773W        W85033  26.835  44.420  13.097
12774W        W85034  27.407   3.435   3.243
12775W        W85035  10.307  24.082   1.716
12776W        W85036  35.843  44.818  11.205
12777W        W85037  34.717   2.923   3.164
12778W        W85038  16.413   2.283   2.375
12779W        W85039   3.674  10.180   4.634
12780W        W85040   4.018  35.040   4.156
12781W        W85041  19.715  26.754  14.724
12782W        W85042   2.347  21.644   2.918
12783W        W85043   2.388  21.291  14.297
12784W        W85044  26.853  44.408   4.615
12785W        W85045  37.010  14.317  14.941
12786W        W85046  37.147  39.405  13.310
12787W        W85047  36.906  12.929   3.808
12788W        W85048  37.096  18.584  11.621
12789W        W85049   9.315  21.113   1.882
12790W        W85050  31.383  25.193  12.526
12791W        W85051  28.066  26.921  12.739
12792W        W85052  39.873  32.964   3.376
12793W        W85053  44.966  24.303   1.614
12794W        W85054  29.873  25.929   2.820
12795W        W85055  37.013   6.191   3.539
12796W        W85056  22.963  23.987   2.819
12797W        W85057  11.262   1.980   4.396
12798W        W85058  15.290  41.270  11.978
12799W        W85059  30.229  22.091   1.774
12800W        W85060  28.557  33.611   3.777
12801W        W85061  12.815  15.082   5.163
12802W        W85062   5.471  22.493   4.453
12803W        W85063  37.228  24.892  11.595
12804W        W85064  19.733  26.016   4.719
12805W        W85065  32.452   4.665   3.183
12806W        W85066  31.197  23.318   0.799
12807W        W85067   8.865  14.986  11.195
12808W        W85068  27.032   2.151   1.849
12809W        W85069   1.049   3.208  14.845
12810W        W85070  15.403  36.492   0.874
12811W        W85071  28.884  21.109  10.908
12812W        W85072  28.839  16.093  12.100
12813W        W85073   5.245  40.121   2.732
12814W        W85074  42.873  21.570  14.836
12815W        W85075   5.831  27.636  12.049
12816W        W85076  18.547  24.583  14.036
12817W        W85077  28.650  22.471   1.193
12818W        W85078   7.430  13.426   3.106
12819W        W85079  42.043  22.937   3.263
12820W        W85080  26.151  11.196   2.456
12821W        W85081  35.836   3.235  12.985
12822W        W85082  26.131  19.155   4.516
12823W        W85083  19.990  12.201   1.386
12824W        W85084  24.193  18.553  11.664
12825W        W85085   6.469  12.189  11.598
12826W        W85086  38.093  44.181   3.610
12827W        W85087  23.999   9.489   0.714
12828W        W85088   4.826  30.936  10.970
12829W        W85089  19.502  18.565  12.985
12830W        W85090  23.672   0.295  12.528
12831W        W85091  36.201  33.621   3.313
12832W        W85092   4.740  35.115  10.680
12833W        W85093   0.544  13.655   2.832
12834W        W85094  42.309   5.147   0.743
12835W        W85095  19.565  36.778  12.418
12836W        W85096   0.775  19.243  11.546
12837W        W85097  20.979  37.381   0.379
12838W        W85098  38.217   9.821   9.759
12839W        W85099  41.556  37.568  12.618
12840W        W85100  27.011   0.217  14.742
12841W        W85101  40.339  10.118   2.859
12842W        W85102  31.498  10.178   1.694
12843W        W85103  15.937  25.035  10.774
12844W        W85104   4.403  28.932   1.275
12845W        W85105  34.486  34.851  10.462
12846W        W85106  29.196  23.083  13.626
12847W        W85107  12.400  36.967   2.849
12848W        W85108  18.727  40.890   4.869
12849W        W85109   1.700   2.217   0.675
12850W        W85110  42.722  29.433  10.578
12851W        W85111   3.962  15.683  11.206
12852W        W85112  34.122  25.947  13.564
12853W        W85113  35.812   7.178  10.600
12854W        W85114   3.647  35.658   3.297
12855W        W85115   4.927  45.000   2.350
12856W        W85116  37.068  42.448   1.299
12857W        W85117  27.741   3.798  10.887
12858W        W85118  36.684  12.181  13.589
12859W        W85119  31.452  35.038   4.929
12860W        W85120  30.040   2.464  12.512
12861W        W85121   6.702  29.231   4.181
12862W        W85122  40.464  16.627   3.822
12863W        W85123  42.364   1.187   0.823
12864W        W85124  33.427   5.424  13.838
12865W        W85125  15.286  14.628  13.756
12866W        W85126  35.146  14.387   4.999
12867W        W85127  37.869  12.526   0.544
12868W        W85128  21.109   5.287  14.861
12869W        W85129  30.780  39.600   1.600
12870W        W85130  13.168   5.329   2.149
12871W        W85131  24.621   7.456  10.614
12872W        W85132  43.468   6.434  12.186
12873W        W85133  41.546  16.450  14.220
12874W        W85134  41.619  28.062   0.812
12875W        W85135  17.117  42.758   4.995
12876W        W85136  34.009  28.590   3.615
12877W        W85137   6.889  14.726  14.272
12878W        W85138  14.111   4.755  11.938
12879W        W85139   0.193  20.480  14.904
12880W        W85140  12.642  40.365   2.913
12881W        W85141   5.308  30.498  14.873
12882W        W85142  34.400  38.384  14.944
12883W        W85143  15.012   9.041   0.403
12884W        W85144  10.721  40.334  11.241
12885W        W85145  40.944  28.584   0.196
12886W        W85146  25.037   3.352   0.491
12887W        W85147   2.453   7.268  12.627
12888W        W85148  32.187  17.128   1.036
12889W        W85149  33.487  27.571   2.231
12890W        W85150  29.022  31.179   3.800
12891W        W85151  19.832   3.907  12.202
12892W        W85152  38.817  33.052   1.928
12893W        W85153  26.249  10.356   3.342
12894W        W85154  22.332  38.875   3.296
12895W        W85155  18.186  36.239  10.611
12896W        W85156  24.514  33.556   1.187
12897W        W85157  31.189   1.747   0.362
12898W        W85158  16.710   0.451  14.575
12899W        W85159  41.171  42.866  13.413
12900W        W85160  13.424  35.550  11.927
12901W        W85161  21.726  17.012  11.247
12902W        W85162  35.573  10.908  14.044
12903W        W85163  12.601  44.060  11.124
12904W        W85164  23.191  42.533   1.392
12905W        W85165   9.336  43.034  12.685
12906W        W85166  21.834  32.067  10.547
12907W        W85167   8.854   8.128  13.432
12908W        W85168  16.892  29.379  11.104
12909W        W85169  16.545  34.279  14.892
12910W        W85170   0.845  39.128   3.585
12911W        W85171  20.877  24.197  12.074
12912W        W85172  10.094  36.682  11.607
12913W        W85173   7.919  34.429   0.714
12914W        W85174  11.233  19.146   0.468
12915W        W85175   8.926  35.466  11.159
12916W        W85176  44.273  19.546  13.006
12917W        W85177  35.664  25.583  14.365
12918W        W85178  35.490  39.520  11.143
12919W        W85179   5.355  38.792   0.296
12920W        W85180  29.105   2.763  10.958
12921W        W85181   8.898  44.129   2.752
12922W        W85182   7.870  40.021  14.970
12923W        W85183   0.420  41.842  12.662
12924W        W85184   3.497  25.251  13.554
12925W        W85185  23.873  42.774   3.595
12926W        W85186  12.037  37.680  12.433
12927W        W85187  14.368  31.971  13.544
12928W        W85188  24.145  40.817   4.293
12929W        W85189  43.882   5.447  11.582
12930W        W85190  41.779  27.090   2.375
12931W        W85191  40.910   0.477   1.143
12932W        W85192  17.326  15.809  11.099
12933W        W85193  43.122  26.639  10.532
12934W        W85194  15.860  43.732  14.941
12935W        W85195  26.481  21.734  14.312
12936W        W85196   5.159  10.160   2.318
12937W        W85197  25.468   0.460   1.308
12938W        W85198  39.975  13.466   4.737
12939W        W85199   4.868  33.073  10.746
12940W        W85200   9.213   9.175  12.466
12941W        W85201  16.345   2.339   4.585
12942W        W85202  18.093  34.419  14.499
12943W        W85203   3.516   6.911  11.746
12944W        W85204  33.121  34.547  10.597
12945W        W85205  37.366   5.797   4.158
12946W        W85206  24.064   5.830   0.238
12947W        W85207  40.294  44.900  13.867
12948W        W85208   5.729  27.028  10.660
12949W        W85209   9.656  10.097  12.483
12950W        W85210  43.806   4.208   3.658
12951W        W85211  15.046  22.751  10.938
12952W        W85212  29.410   6.634   0.887
12953W        W85213   1.454  31.458   3.490
12954W        W85214  40.117  25.219  14.380
12955W        W85215  23.005   8.741   0.680
12956W        W85216  28.528  28.945   2.379
12957W        W85217  42.239  21.275   4.520
12958W        W85218   3.520   6.385  12.989
12959W        W85219  40.481  38.606   4.497
12960W        W85220   7.248  33.489   2.832
12961W        W85221  37.275   5.036  13.380
12962W        W85222  41.470  19.782  14.347
12963W        W85223   4.446  41.886  14.576
12964W        W85224  39.822  30.562   4.378
12965W        W85225  40.975   7.118  12.437
12966W        W85226  20.555   9.001   4.931
12967W        W85227  30.476   7.288   3.570
12968W        W85228  14.982  43.889  14.765
12969W        W85229  13.848  19.197  13.029
12970W        W85230   1.304  22.480   3.612
12971W        W85231   3.955   9.128  11.271
12972W        W85232  18.423  14.610  12.296
12973W        W85233  29.029  31.982  12.003
12974W        W85234  23.028  27.117   4.714
12975W        W85235  33.818  11.920   2.687
12976W        W85236  27.949  36.768  11.100
12977W        W85237  28.353  39.647  13.614
12978W        W85238  28.157  26.204   3.778
12979W        W85239  16.183  13.567  14.344
12980W        W85240  37.476  19.789   2.613
12981W        W85241  17.199  33.537   3.754
12982W        W85242  24.390  41.938   1.665
12983W        W85243  23.444  33.107  14.457
12984W        W85244  40.484   2.308   3.164
12985W        W85245   5.167  25.712   2.685
12986W        W85246   5.314  14.519  11.991
12987W        W85247   5.028  17.363   0.014
12988W        W85248  29.492  19.443  12.053
12989W        W85249  25.773  37.265  11.404
12990W        W85250  19.829  14.845   1.934
12991W        W85251  16.835   0.895  14.876
12992W        W85252  16.971  21.518   1.240
12993W        W85253   8.124  13.239  12.593
12994W        W85254   2.083  27.288  12.962
12995W        W85255  10.749   0.959   2.295
12996W        W85256   5.367  21.645   0.513
12997W        W85257  35.658  37.418   1.700
12998W        W85258  10.623   7.860   2.135
12999W        W85259  24.375  21.643   1.983
13000W        W85260  11.083  11.436  10.355
13001W        W85261  18.139  40.394  10.620
13002W        W85262  32.669  41.353   1.281
13003W        W85263  27.306   7.484   0.921
13004W        W85264  30.511  23.689  13.142
13005W        W85265  19.221  33.667  10.682
13006W        W85266  23.200  25.297  13.660
13007W        W85267  38.373   3.929   2.177
13008W        W85268   4.336  20.807  14.827
13009W        W85269  16.641  11.716  13.777
13010W        W85270  32.084   6.166  14.438
13011W        W85271   7.938  22.041   3.249
13012W        W85272  36.902  12.570  10.953
13013W        W85273  18.536   6.752  10.598
13014W        W85274  37.507  42.409  13.810
13015W        W85275   3.149  25.992  12.432
13016W        W85276  32.441  34.003   2.385
13017W        W85277   9.889  18.030  14.915
13018W        W85278  15.330  35.328  11.093
13019W        W85279  38.428  22.415   3.285
13020W        W85280  39.148   1.300  12.642
13021W        W85281   3.398  43.353  10.561
13022W        W85282   1.891   8.617  13.986
13023W        W85283  43.509   9.236  13.146
13024W        W85284  39.677  34.601  13.516
13025W        W85285   3.973  14.214  14.818
13026W        W85286   2.175  30.358   1.843
13027W        W85287  33.675  41.910  12.538
13028W        W85288  44.024  44.524   4.516
13029W        W85289  37.083  40.887  14.704
13030W        W85290   1.430  32.639  13.400
13031W        W85291  27.842  21.356   5.005
13032W        W85292  29.541  30.987   4.780
13033W        W85293  15.556  26.736  10.649
13034W        W85294   7.935  41.987   1.753
13035W        W85295   5.339  41.998   1.263
13036W        W85296  11.688  33.584  12.614
13037W        W85297  26.074   8.326  11.538
13038W        W85298  31.150  29.137  13.508
13039W        W85299  41.461   9.459   5.203
13040W        W85300  28.028  15.534   4.225
13041W        W85301  37.960  43.347   1.193
13042W        W85302  27.372   1.131  14.876
13043W        W85303  19.498  36.296   0.856
13044W        W85304   5.149  29.433  12.675
13045W        W85305  14.539  12.186  11.469
13046W        W85306  11.040   4.421   2.447
13047W        W85307   4.845   3.865  12.635
13048W        W85308  38.306  11.499  12.923
13049W        W85309  22.191  16.927   3.970
13050W        W85310   6.791  11.141   4.795
13051W        W85311  44.767  30.674  11.545
13052W        W85312  14.621  40.761  12.466
13053W        W85313  36.405  38.810   2.782
13054W        W85314  39.635  17.120   4.944
13055W        W85315  44.582  18.483  12.579
13056W        W85316   7.851  17.042   4.648
13057W        W85317  26.940   0.753  10.328
13058W        W85318  39.603   4.749  12.748
13059W        W85319  15.246  32.844  11.675
13060W        W85320  18.113  13.154   4.323
13061W        W85321  20.511  15.400  12.470
13062W        W85322  41.500   6.454  13.955
13063W        W85323  31.858  28.587  13.283
13064W        W85324  40.037  29.157   3.330
13065W        W85325  33.519  42.638  13.769
13066W        W85326   1.582  32.100  10.319
13067W        W85327  25.918  24.351  12.047
13068W        W85328  14.646   4.513  11.872
13069W        W85329  30.614  11.592  12.647
13070W        W85330  27.208  22.324  14.407
13071W        W85331  16.508  40.716  14.421
13072W        W85332   5.538  34.487   3.615
13073W        W85333  25.680  41.577   4.636
13074W        W85334   1.217  17.220   0.304
13075W        W85335   9.432  37.972  11.045
13076W        W85336  33.975  17.033   0.884
13077W        W85337   8.783   6.111   1.819
13078W        W85338  12.663  18.500   4.665
13079W        W85339   8.925  42.639  12.839
13080W        W85340   2.893   9.625   4.316
13081W        W85341   1.323  42.747  14.485
13082W        W85342  33.577  28.162  14.462
13083W        W85343  16.253  31.981  11.713
13084W        W85344   4.765  44.320   3.553
13085W        W85345  16.882  39.451   1.845
13086W        W85346  32.447  30.499  13.795
13087W        W85347  39.107  21.181   4.978
13088W        W85348  29.448  42.569  14.032
13089W        W85349  35.499   2.528   0.905
13090W        W85350  17.068   2.395   3.901
13091W        W85351   8.303   6.821  11.212
13092W        W85352  11.171   4.829  10.958
13093W        W85353   7.896   5.022  13.985
13094W        W85354  10.388  25.143   4.455
13095W        W85355  20.201  23.249  12.767
13096W        W85356   8.703   4.464   0.817
13097W        W85357  13.649  42.845   4.593
13098W        W85358  26.050   9.567   4.443
13099W        W85359  10.685   7.748  13.482
13100W        W85360  44.249   7.484  11.033
13101W        W85361  37.672  31.204  10.906
13102W        W85362  39.100  42.855  14.977
13103W        W85363  34.128   9.916   1.252
13104W        W85364  38.966  34.841  10.333
13105W        W85365  39.450  17.046   2.488
13106W        W85366   7.954  25.902   3.561
13107W        W85367  22.834  12.707   4.090
13108W        W85368   4.990  23.141  13.511
13109W        W85369   7.411  19.877  12.559
13110W        W85370  34.175  44.724   3.229
13111W        W85371  44.906  36.884  11.404
13112W        W85372  26.869  23.219  14.925
13113W        W85373   1.641  44.194   3.640
13114W        W85374  13.744  33.825  14.991
13115W        W85375  15.125   2.789   1.402
13116W        W85376  32.891  13.126  14.492
13117W        W85377  30.048   2.881  10.957
13118W        W85378  40.262  15.401  12.333
13119W        W85379  40.215  35.884  13.247
13120W        W85380   3.221  22.316  14.826
13121W        W85381  19.320  24.007   4.163
13122W        W85382  11.479  37.005   3.609
13123W        W85383  34.424  43.424  11.424
13124W        W85384  34.970  34.421   4.686
13125W        W85385  37.503  44.460   2.718
13126W        W85386   1.689  43.968   3.113
13127W        W85387  31.880  25.554  12.071
13128W        W85388  12.687  36.887  11.980
13129W        W85389  27.892  41.548  12.512
13130W        W85390  35.806  33.055   4.640
13131W        W85391  15.380  28.297   3.240
13132W        W85392  22.946   2.834   1.248
13133W        W85393  24.465  26.714  12.889
13134W        W85394   6.441  29.153  12.453
13135W        W85395   5.982  21.228   5.081
13136W        W85396   4.470  10.494  14.410
13137W        W85397  35.871  11.903   2.577
13138W        W85398  34.438  14.346   3.211
13139W        W85399   8.770  37.684  12.894
13140W        W85400  21.145  24.254   4.643
13141W        W85401  19.067  15.872  11.667
13142W        W85402  19.524   1.352   0.392
13143W        W85403  16.680  11.219  11.158
13144W        W85404  11.612  26.648   0.959
13145W        W85405  37.983   4.153   1.906
13146W        W85406   5.645   8.817  11.743
13147W        W85407  23.304  16.472  11.012
13148W        W85408  34.844  19.407  12.433
13149W        W85409  22.975  40.967  14.833
13150W        W85410  10.577   6.370   2.731
13151W        W85411   0.923  27.090   2.161
13152W        W85412  30.430  30.049   4.718
13153W        W85413  41.514   4.268   2.585
13154W        W85414  43.830  11.417  10.934
13155W        W85415  29.198  35.041   2.886
13156W        W85416  39.532  39.768  11.798
13157W        W85417   9.918  30.316   2.861
13158W        W85418  41.820  32.468  11.997
13159W        W85419  18.980  13.023   4.878
13160W        W85420  37.029  14.654  12.321
13161W        W85421  43.420  10.720  14.902
13162W        W85422   5.857  24.001   4.212
13163W        W85423  36.609  42.447   1.546
13164W        W85424  18.188  18.694  11.961
13165W        W85425  34.601  30.542  14.111
13166W        W85426  24.498  38.214  11.504
13167W        W85427  44.303  16.572   0.576
13168W        W85428  28.606  21.585  12.101
13169W        W85429  17.992   2.707  14.417
13170W        W85430  40.202  38.419  14.320
13171W        W85431  36.922   1.767   1.324
13172W        W85432  25.434  25.810   3.717
13173W        W85433  21.911  44.441   2.206
13174W        W85434   9.785  25.789   1.898
13175W        W85435   2.578  34.410  14.983
13176W        W85436  16.320  31.035  11.511
13177W        W85437  39.333   4.171  12.973
13178W        W85438  40.998  12.943   3.669
13179W        W85439  35.704  30.439  14.920
13180W        W85440  41.833  30.823  14.996
13181W        W85441  39.003   3.877   0.294
13182W        W85442  11.160  28.900   3.722
13183W        W85443   1.967  31.468   2.799
13184W        W85444  32.263  28.907   2.236
13185W        W85445  29.079  40.743   3.767
13186W        W85446  42.905  38.660   1.610
13187W        W85447   0.507  38.378  13.957
13188W        W85448  17.748  29.454  10.776
13189W        W85449  35.379  26.241   1.779
13190W        W85450  37.394  41.142  13.376
13191W        W85451   9.847  21.149   4.706
13192W        W85452   5.759  18.615   4.099
13193W        W85453  15.646  31.579   4.789
13194W        W85454  30.687  44.520  10.865
13195W        W85455   5.753   7.117   3.392
13196W        W85456  24.873  15.889   4.292
13197W        W85457  39.237   9.309   0.013
13198W        W85458   8.203  32.918   0.740
13199W        W85459   3.283   5.873   3.317
13200W        W85460  18.980  40.497   3.439
13201W        W85461  16.281  31.437   4.511
13202W        W85462  30.874   9.787   3.772
13203W        W85463   7.166  28.495   4.682
13204W        W85464   7.774  32.524   4.533
13205W        W85465  33.603  32.781  11.163
13206W        W85466  15.355  15.247   2.377
13207W        W85467  34.127  39.808  10.716
13208W        W85468  14.660  40.231   0.922
13209W        W85469  39.522   8.892   0.493
13210W        W85470   2.199  19.731  12.470
13211W        W85471  14.342  32.596   0.480
13212W        W85472  34.339  14.216  12.917
13213W        W85473  20.576  20.576   0.878
13214W        W85474  31.136  13.626  11.106
13215W        W85475  19.713  35.978   1.674
13216W        W85476  39.507   9.332   3.729
13217W        W85477  12.875  38.895  13.195
13218W        W85478  36.578  43.286   4.433
13219W        W85479   0.568  31.350   2.400
13220W        W85480  23.774  29.920   2.588
13221W        W85481  18.309  18.367   1.016
13222W        W85482  17.757   7.099   3.079
13223W        W85483   4.289  17.218   0.651
13224W        W85484  19.640  11.777  14.592
13225W        W85485   0.790  32.844   2.742
13226W        W85486   9.943  41.777   1.303
13227W        W85487  27.067  26.135   3.714
13228W        W85488  23.303  28.500  14.507
13229W        W85489   9.639  41.369   1.392
13230W        W85490  17.673  13.335   4.596
13231W        W85491  14.689  39.576  13.832
13232W        W85492  34.957   3.894   3.719
13233W        W85493   7.760  44.145   2.220
13234W        W85494  39.512   9.582   5.578
13235W        W85495  14.151  40.894  14.004
13236W        W85496  33.933  44.855   0.915
13237W        W85497  43.033  33.818   3.590
13238W        W85498   4.713  44.484  12.474
13239W        W85499  36.130   2.135   1.999
13240W        W85500  10.889   9.798  11.323
13241W        W85501   2.532  33.828  14.366
13242W        W85502  12.621   1.763   2.644
13243W        W85503  39.996  41.313   1.239
13244W        W85504  43.598  35.973   5.084
13245W        W85505  27.991   3.363  11.068
13246W        W85506  34.012  10.564   4.201
13247W        W85507  39.389  24.673  14.784
13248W        W85508  20.096  13.609   1.926
13249W        W85509  36.645  38.951  12.136
13250W        W85510  42.098   3.709  14.777
13251W        W85511  44.776   9.221   1.350
13252W        W85512  24.434   2.906  14.833
13253W        W85513  21.179  34.954   2.793
13254W        W85514   7.770  37.943  14.735
13255W        W85515  14.907   3.624  10.643
13256W        W85516  30.392  40.777  11.970
13257W        W85517   6.864  39.515  13.120
13258W        W85518  13.185  14.369   4.599
13259W        W85519  36.604  22.266   2.941
13260W        W85520   6.837  29.224   0.336
13261W        W85521  20.134  10.218   1.463
13262W        W85522  21.081  37.898   0.728
13263W        W85523  33.882   5.192   3.082
13264W        W85524  16.225  22.319  14.555
13265W        W85525  42.488  10.285   4.726
13266W        W85526   2.471  31.619   2.230
13267W        W85527  25.550  34.685  12.872
13268W        W85528  37.448  31.037  13.843
13269W        W85529   3.004  38.938  14.176
13270W        W85530  33.529  41.530   4.971
13271W        W85531  11.452  19.646  12.928
13272W        W85532   2.451  34.072  12.979
13273W        W85533  35.493   4.501  11.753
13274W        W85534  21.201  42.276   1.859
13275W        W85535  23.446  16.739  10.545
13276W        W85536  38.368  30.915   2.642
13277W        W85537  17.341  24.553   2.192
13278W        W85538   5.280   2.079  13.530
13279W        W85539   8.915  13.792  13.810
13280W        W85540  15.090  23.457  14.302
13281W        W85541   3.658  40.417   1.440
13282W        W85542  12.069  18.514  12.009
13283W        W85543  31.336  41.804  13.973
13284W        W85544  24.933  26.056   0.344
13285W        W85545  12.678  31.635  13.773
13286W        W85546   1.199  24.146   2.846
13287W        W85547   3.680  34.375   0.896
13288W        W85548  27.610  30.509   0.318
13289W        W85549  39.007   3.751  13.044
13290W        W85550  32.105  27.481   4.849
13291W        W85551  10.339  26.429  12.273
13292W        W85552  23.012  44.284   3.133
13293W        W85553   2.830  44.307   3.103
13294W        W85554  36.545   5.426   3.898
13295W        W85555   0.598   8.155   4.976
13296W        W85556  25.996   3.146   4.183
13297W        W85557  16.644   6.225   0.409
13298W        W85558   5.630  12.068   3.719
13299W        W85559   5.812  22.500  10.988
13300W        W85560  19.122  17.456   0.119
13301W        W85561  17.482   6.487   0.699
13302W        W85562  42.480   5.232  10.370
13303W        W85563  35.867  43.234  12.103
13304W        W85564  22.530   8.037  10.640
13305W        W85565   1.488  18.527   3.242
13306W        W85566  36.878  28.442   4.790
13307W        W85567   8.299  20.967  13.977
13308W        W85568  11.678  29.995  11.107
13309W        W85569  11.188  10.598   0.326
13310W        W85570  20.659  23.362   2.375
13311W        W85571   6.455  16.604  10.635
13312W        W85572  15.073  44.196   2.693
13313W        W85573   2.540  34.066   2.337
13314W        W85574  23.027  42.792   1.824
13315W        W85575  22.516  37.294   2.371
13316W        W85576  33.392   1.576   4.254
13317W        W85577  11.408  36.865   0.885
13318W        W85578  18.034   0.981  13.820
13319W        W85579  40.738  32.493  10.518
13320W        W85580  36.632  20.563   1.716
13321W        W85581  43.277  33.072   1.890
13322W        W85582  10.434  27.579  14.871
13323W        W85583  33.863  11.418  12.474
13324W        W85584  32.153  22.061  13.568
13325W        W85585   0.448  26.457  11.907
13326W        W85586   7.180  32.891   4.564
13327W        W85587  14.746  11.704  14.567
13328W        W85588   4.493  10.903  10.717
13329W        W85589  32.105  17.361  12.839
13330W        W85590  31.209   2.458  11.509
13331W        W85591   6.338  28.882   4.239
13332W        W85592  41.993  44.708  12.988
13333W        W85593  42.271  42.348   2.636
13334W        W85594  27.807  35.365  12.004
13335W        W85595  32.239   2.433  11.727
13336W        W85596  20.353   6.370   0.786
13337W        W85597  40.364  12.373   4.119
13338W        W85598  35.327  37.136  13.831
13339W        W85599   2.945   7.151   2.303
13340W        W85600   3.884   6.476   1.340
13341W        W85601  28.418  11.147   0.368
13342W        W85602  32.525  18.042   1.764
13343W        W85603  20.782  27.720   3.160
13344W        W85604  35.840  32.541  14.188
13345W        W85605  20.122  25.265  11.771
13346W        W85606  32.069   3.325  10.658
13347W        W85607   0.856   8.650   2.015
13348W        W85608  11.097  28.222   2.804
13349W        W85609   8.704  30.426   2.261
13350W        W85610  42.989  10.297   3.174
13351W        W85611  34.886   9.831   3.867
13352W        W85612  14.234  42.944   3.503
13353W        W85613  39.325  41.591  12.501
13354W        W85614  26.187  38.846   4.154
13355W        W85615  32.635   9.053  12.493
13356W        W85616  25.452  12.352  11.664
13357W        W85617  34.800  20.558   3.817
13358W        W85618  21.767  34.012   0.179
13359W        W85619  43.976  37.321  13.420
13360W        W85620  29.316  33.244  11.895
13361W        W85621   1.999  32.116  11.920
13362W        W85622  32.621  40.416   2.825
13363W        W85623  30.547  31.753  12.033
13364W        W85624  23.586   8.184   4.243
13365W        W85625   9.176  34.472   4.542
13366W        W85626  41.387  11.154  12.074
13367W        W85627  10.599   4.685   2.374
13368W        W85628  36.399  22.185  10.529
13369W        W85629  18.268  27.105   2.592
13370W        W85630  14.695  19.226  11.544
13371W        W85631  36.455  43.485   2.876
13372W        W85632   7.651  31.431  11.138
13373W        W85633   4.519  38.211  13.352
13374W        W85634  25.178  20.091   2.888
13375W        W85635  10.311   6.810  14.702
13376W        W85636   4.778  44.734  14.812
13377W        W85637  13.091   9.599  13.937
13378W        W85638   8.495  13.684  14.261
13379W        W85639  15.826  16.234  12.856
13380W        W85640  23.058  29.056   3.566
13381W        W85641  32.893  12.802   1.708
13382W        W85642  29.955  10.488   3.288
13383W        W85643  37.006  26.431  14.520
13384W        W85644  21.497  41.764  14.118
13385W        W85645  14.039  25.160   1.231
13386W        W85646  32.170  30.982   4.022
13387W        W85647  27.917  24.811  14.184
13388W        W85648  34.048  20.779   5.090
13389W        W85649  42.299   8.936  11.936
13390W        W85650  31.631  16.522   0.264
13391W        W85651  42.562  40.324   1.438
13392W        W85652  28.614  40.906  12.400
13393W        W85653  26.112   6.717   2.889
13394W        W85654  37.946   4.774  10.709
13395W        W85655  28.873   9.812   1.234
13396W        W85656  40.936  32.062  14.317
13397W        W85657   6.950  26.541   0.804
13398W        W85658  35.036  26.261   3.006
13399W        W85659  21.608  43.725  14.863
13400W        W85660  12.745   8.671   4.702
13401W        W85661  14.152  14.721   9.753
13402W        W85662  13.015  21.639  13.611
13403W        W85663  33.067  12.826   0.794
13404W        W85664  36.179  39.756   3.647
13405W        W85665  23.581   4.554  12.361
13406W        W85666  10.328  43.027  13.265
13407W        W85667  36.645  27.025   3.687
13408W        W85668   0.702   9.322   5.042
13409W        W85669  27.756  39.947  12.010
13410W        W85670   4.817  27.829   5.138
13411W        W85671   5.814  23.749  11.298
13412W        W85672  19.283  43.492  12.061
13413W        W85673  13.443  27.343  12.122
13414W        W85674  26.118  19.989   2.376
13415W        W85675  34.655   1.754  14.452
13416W        W85676  33.858  18.241   1.406
13417W        W85677   8.387  37.487   2.242
13418W        W85678  19.511  12.654  12.112
13419W        W85679  20.769  21.242   1.028
13420W        W85680  22.286   0.106  14.978
13421W        W85681  43.176  11.713  14.941
13422W        W85682  39.919  28.580   2.604
13423W        W85683  33.663  10.964   4.079
13424W        W85684  21.091  21.798  14.819
13425W        W85685  13.333  25.655   3.120
13426W        W85686  43.321   2.228  12.077
13427W        W85687  20.588  42.304   2.101
13428W        W85688  34.629  43.247  10.473
13429W        W85689  14.872  31.534  13.006
13430W        W85690  38.751  35.797  12.033
13431W        W85691   1.479  20.344   3.414
13432W        W85692  35.758  36.882   0.953
13433W        W85693  25.028   0.954  12.769
13434W        W85694  30.390  35.771   0.815
13435W        W85695   4.925  20.600   0.993
13436W        W85696  15.404  20.494  14.811
13437W        W85697  31.012   6.499   2.729
13438W        W85698  16.488  14.087  13.492
13439W        W85699  36.349   3.498  12.945
13440W        W85700  38.228  11.200  10.710
13441W        W85701   4.464  37.426   0.035
13442W        W85702   2.290  43.099  10.296
13443W        W85703   7.138  35.747  12.039
13444W        W85704  20.978  44.536   3.609
13445W        W85705  31.342  16.198  14.986
13446W        W85706   9.536  19.750   1.778
13447W        W85707  32.337  44.839  12.843
13448W        W85708   8.616   1.817   4.922
13449W        W85709  41.106   6.645  11.631
13450W        W85710  21.374  28.777   4.105
13451W        W85711  25.661  26.997  10.704
13452W        W85712   7.936   8.786  10.573
13453W        W85713  37.869   0.752  13.022
13454W        W85714   8.347  11.728  14.089
13455W        W85715   4.358  17.260  14.652
13456W        W85716  29.390  11.725  14.907
13457W        W85717  35.420  36.174   0.266
13458W        W85718  25.323  23.768  14.023
13459W        W85719  21.559  18.121   4.625
13460W        W85720  42.933   7.197  10.965
13461W        W85721  13.345  25.541   4.190
13462W        W85722  39.054  23.071  14.548
13463W        W85723  40.463  19.287  10.339
13464W        W85724   3.995  28.108  12.234
13465W        W85725  27.463   3.691   1.747
13466W        W85726  39.096  27.007   4.459
13467W        W85727  15.825  40.571  12.934
13468W        W85728  27.044  20.061  12.216
13469W        W85729  13.449  37.592  11.145
13470W        W85730  21.254  37.473   1.950
13471W        W85731  31.724  26.679  14.793
13472W        W85732   6.484  37.038  11.054
13473W        W85733  21.671  12.779  13.455
13474W        W85734   3.370   6.216   2.081
13475W        W85735  15.123  13.464   4.554
13476W        W85736  22.286   1.730   4.214
13477W        W85737  23.157  25.221  11.089
13478W        W85738  32.221  24.998  12.912
13479W        W85739   5.801  15.900  12.275
13480W        W85740  15.531  44.902   1.413
13481W        W85741  10.391  11.590  11.204
13482W        W85742  32.077  25.214  14.794
13483W        W85743  30.125  38.823   0.462
13484W        W85744  18.371  36.944   4.462
13485W        W85745  28.186   7.369   0.893
13486W        W85746  42.946   6.121  13.005
13487W        W85747  40.340  16.611  13.064
13488W        W85748  11.847  18.512  11.258
13489W        W85749  39.475   2.945  11.176
13490W        W85750   5.115  33.608   3.997
13491W        W85751  11.772  14.903  11.130
13492W        W85752  38.204  31.299  14.267
13493W        W85753   6.371   4.944  12.427
13494W        W85754  34.157   1.794  13.502
13495W        W85755   8.230  11.605  14.999
13496W        W85756   7.512  16.293   2.487
13497W        W85757   6.366  14.661   4.539
13498W        W85758  38.419  10.745   1.018
13499W        W85759  32.964  21.244  10.917
13500W        W85760  27.699  21.177   3.338
13501W        W85761   2.934  38.998  10.929
13502W        W85762  33.747  35.300  10.585
13503W        W85763  39.016  14.637  13.042
13504W        W85764  32.478   4.109   4.454
13505W        W85765   2.242  34.502  12.099
13506W        W85766  23.008  34.693   0.185
13507W        W85767  15.734   3.198   0.299
13508W        W85768  20.291  21.531   0.227
13509W        W85769  16.312  11.654   0.675
13510W        W85770   5.811  21.533   0.779
13511W        W85771  22.678   8.178   1.132
13512W        W85772  32.013  34.132   1.217
13513W        W85773   9.200  41.333   1.758
13514W        W85774  18.664  10.318   2.779
13515W        W85775  13.440  38.952  12.505
13516W        W85776  21.655  31.886   4.750
13517W        W85777  27.707  14.318   0.315
13518W        W85778  42.653   5.753   4.092
13519W        W85779  36.785  31.806  12.524
13520W        W85780  17.586   8.796  11.241
13521W        W85781  27.814  32.322   0.329
13522W        W85782   8.740  30.744   4.748
13523W        W85783  39.060  11.916   1.084
13524W        W85784  37.843  22.473  12.173
13525W        W85785   6.427  27.623  12.698
13526W        W85786  37.996   3.082  12.885
13527W        W85787  33.683  37.778   1.347
13528W        W85788  16.328  34.700  11.370
13529W        W85789  18.709  35.087   2.207
13530W        W85790  13.373  34.670   3.209
13531W        W85791  43.887  43.872   2.863
13532W        W85792  17.673  10.678  10.599
13533W        W85793  23.271  33.106  12.042
13534W        W85794   8.614  16.197   3.415
13535W        W85795  20.365   6.293   3.277
13536W        W85796  36.492  15.294  10.456
13537W        W85797  30.945  30.667   0.895
13538W        W85798   2.309  33.682   1.417
13539W        W85799  16.063  19.396   0.320
13540W        W85800  38.309  11.950  11.150
13541W        W85801   4.967   7.900  13.898
13542W        W85802  29.620  24.515   1.707
13543W        W85803   3.136  44.889   4.251
13544W        W85804  22.731   1.333   2.659
13545W        W85805  26.908   3.311   2.733
13546W        W85806   7.756  10.193   1.159
13547W        W85807  11.675  38.523  11.602
13548W        W85808  28.975  15.775   0.817
13549W        W85809  35.549  31.175  13.803
13550W        W85810  28.098  19.710  12.563
13551W        W85811   7.990  29.995   4.741
13552W        W85812  37.424  44.980   0.269
13553W        W85813  26.641   9.682   1.728
13554W        W85814  20.017   3.847  14.386
13555W        W85815   8.522  23.731   2.699
13556W        W85816  13.909  30.365  11.160
13557W        W85817  30.031   6.881  12.885
13558W        W85818   1.142  19.622  11.962
13559W        W85819  16.942  16.739   5.521
13560W        W85820  38.450  25.873   3.871
13561W        W85821  25.497  37.835   3.330
13562W        W85822  32.639  21.588  10.728
13563W        W85823  21.530  33.898   3.926
13564W        W85824  32.406  29.700   0.976
13565W        W85825   8.559  29.402  11.187
13566W        W85826  30.347  15.422  11.023
13567W        W85827  35.034  34.969   0.151
13568W        W85828  11.900   3.365   4.917
13569W        W85829  16.750  25.100  14.125
13570W        W85830  22.782  33.732   9.868
13571W        W85831  23.076  26.171  12.454
13572W        W85832  26.313  14.175  12.938
13573W        W85833  20.743  14.461  14.358
13574W        W85834  16.766  19.199  12.891
13575W        W85835  25.390  42.568   2.775
13576W        W85836  21.447  37.943   4.640
13577W        W85837   0.307  17.916   3.284
13578W        W85838   5.897   8.698   1.296
13579W        W85839  22.097   4.472  13.958
13580W        W85840  34.358   5.345  10.596
13581W        W85841  14.378   8.842   3.540
13582W        W85842  10.448  22.264  14.540
13583W        W85843  11.650  30.908   4.911
13584W        W85844  13.966  16.255  12.540
13585W        W85845  21.639   0.736  12.360
13586W        W85846  15.540  37.560  10.736
13587W        W85847  39.861   9.883  13.501
13588W        W85848  41.375  22.473  14.026
13589W        W85849  19.812  20.142   4.957
13590W        W85850  44.416  40.039  13.960
13591W        W85851  26.092  42.741  10.686
13592W        W85852   1.011   0.254  12.481
13593W        W85853  16.104  26.891   1.040
13594W        W85854  41.938  42.887   1.751
13595W        W85855  12.559  39.352   4.552
13596W        W85856  39.040  30.594  14.417
13597W        W85857  31.379   7.751  11.930
13598W        W85858  38.140  44.502   0.457
13599W        W85859  15.968  41.028  12.659
13600W        W85860  24.107   7.917   2.341
13601W        W85861   3.264   3.753  10.663
13602W        W85862  15.522  22.790  10.663
13603W        W85863   1.363  41.235  13.670
13604W        W85864  19.843  23.467  11.769
13605W        W85865  10.850  25.973  13.612
13606W        W85866  20.110   4.432   3.862
13607W        W85867  12.671  42.991   2.786
13608W        W85868  13.254  30.674  11.672
13609W        W85869   9.999  26.095   1.005
13610W        W85870   8.127   3.844  14.304
13611W        W85871  43.327  10.070  10.304
13612W        W85872  37.276  32.374   0.365
13613W        W85873   0.018  30.688   4.065
13614W        W85874  43.828   7.864   4.294
13615W        W85875  30.997   9.810   4.265
13616W        W85876  31.131   3.103  10.262
13617W        W85877  20.778  21.468   3.747
13618W        W85878  33.703   3.272   4.329
13619W        W85879  34.433  27.583  12.184
13620W        W85880  25.839   5.229   2.808
13621W        W85881  19.808   0.438  12.620
13622W        W85882  37.977  21.097  11.535
13623W        W85883  41.404   5.111   3.002
13624W        W85884  43.789  17.642   3.155
13625W        W85885   7.847  15.366   1.643
13626W        W85886  25.075  32.430   3.418
13627W        W85887  27.134  15.144   3.586
13628W        W85888  19.071  24.940   1.695
13629W        W85889  41.836  19.675  10.607
13630W        W85890   1.389  38.435  10.579
13631W        W85891  33.884   4.645  13.894
13632W        W85892  28.137  35.988  10.596
13633W        W85893   1.100  17.203  13.032
13634W        W85894   0.983  10.666   4.402
13635W        W85895  41.508  25.913  14.925
13636W        W85896  33.883  39.342   0.907
13637W        W85897  21.452  37.504   9.854
13638W        W85898  17.870  27.880  10.708
13639W        W85899  41.376   9.342   4.195
13640W        W85900  37.408  38.406  13.115
13641W        W85901  39.383  44.142  14.034
13642W        W85902  39.033  12.802   4.191
13643W        W85903  10.352  25.239   1.247
13644W        W85904  32.589  23.299   3.837
13645W        W85905  12.791  32.114   4.202
13646W        W85906  27.067  25.531  11.540
13647W        W85907   1.414  35.138   1.238
13648W        W85908  37.818  32.968   0.036
13649W        W85909  17.057  43.841   4.586
13650W        W85910  11.632  39.298   0.933
13651W        W85911  33.524  37.756   2.213
13652W        W85912  27.663  42.860  11.480
13653W        W85913  22.264  22.339  12.530
13654W        W85914  30.965  29.584   3.746
13655W        W85915  38.037  44.826  13.389
13656W        W85916  10.822  19.878  13.460
13657W        W85917  32.350  36.036   0.125
13658W        W85918  31.148  25.018   2.238
13659W        W85919   2.887  19.568  14.977
13660W        W85920  43.161  22.601  14.549
13661W        W85921  15.975  41.257  10.719
13662W        W85922   7.746  27.453   2.813
13663W        W85923  28.599   2.897  13.774
13664W        W85924  26.202  16.684  11.893
13665W        W85925   2.248  23.131  14.513
13666W        W85926  39.090  12.151  11.345
13667W        W85927   6.508  17.343  13.139
13668W        W85928  15.059  15.524   1.423
13669W        W85929  27.351  10.749   2.953
13670W        W85930   6.965   1.633   3.332
13671W        W85931   7.777  36.867  12.282
13672W        W85932  15.639   6.633  12.011
13673W        W85933   8.682  24.980   4.542
13674W        W85934   8.435   7.901  12.593
13675W        W85935  24.970  34.077  10.674
13676W        W85936   6.766  11.209  11.723
13677W        W85937  23.757   9.849   2.448
13678W        W85938  19.957  14.682   0.633
13679W        W85939  28.099  42.049  14.305
13680W        W85940  42.868  14.114   2.451
13681W        W85941  44.690   8.751   3.799
13682W        W85942  22.295  33.916   0.747
13683W        W85943  32.144  40.414   1.168
13684W        W85944   3.983  34.033  11.982
13685W        W85945  20.614  27.742   2.196
13686W        W85946  33.950  42.019  14.968
13687W        W85947   6.206  42.564   4.175
13688W        W85948  21.460  23.067  13.881
13689W        W85949  10.334  14.667   2.596
13690W        W85950   3.517  24.680  13.800
13691W        W85951  12.043  34.542   4.143
13692W        W85952  20.595   2.872   1.180
13693W        W85953  27.962  31.085  14.454
13694W        W85954  39.301   8.088   2.012
13695W        W85955  27.381  34.184   3.471
13696W        W85956  30.184  11.162  14.479
13697W        W85957   5.289  38.909   2.425
13698W        W85958  28.593   4.497   1.419
13699W        W85959  19.533   2.984   3.375
13700W        W85960   0.230  19.250  12.103
13701W        W85961  31.101  32.896   1.085
13702W        W85962  15.084  37.460   0.966
13703W        W85963  32.823   3.449   3.340
13704W        W85964   7.728  38.782   1.300
13705W        W85965   9.267   3.854   4.317
13706W        W85966   0.052  36.079   2.349
13707W        W85967  42.890  14.837   1.674
13708W        W85968  36.053  43.435  11.134
13709W        W85969  42.792  15.289  13.474
13710W        W85970  23.485   8.684   4.311
13711W        W85971  17.187  18.077  13.476
13712W        W85972  40.210  15.565  12.879
13713W        W85973  21.129  40.972   2.262
13714W        W85974  36.932  23.759   0.884
13715W        W85975  15.840  23.719  11.168
13716W        W85976  44.176  23.456   0.074
13717W        W85977  11.112   0.846   3.571
13718W        W85978  36.958   1.759  13.809
13719W        W85979  18.584  15.649  13.859
13720W        W85980  20.633   2.405  14.877
13721W        W85981  14.591  34.598  13.380
13722W        W85982  26.690  10.408  14.474
13723W        W85983  19.761   6.726  11.104
13724W        W85984  44.599  34.463   3.185
13725W        W85985  42.527  44.766  13.612
13726W        W85986  14.543  11.126  13.470
13727W        W85987  21.944   7.821  11.859
13728W        W85988  36.462  30.077  12.597
13729W        W85989  27.657  12.070   0.265
13730W        W85990  13.988   1.699   4.706
13731W        W85991  40.276   3.757   4.551
13732W        W85992  34.502  22.696   5.095
13733W        W85993  33.400  38.037   0.930
13734W        W85994  32.481  19.136  12.686
13735W        W85995   6.459  32.169  14.539
13736W        W85996  32.416  15.930   2.748
13737W        W85997   9.832   4.445  10.727
13738W        W85998  21.478  20.506   3.424
13739W        W85999   4.767  15.569  12.461
13740W        W86000   7.695   6.193  12.867
13741W        W86001   8.718  23.187   3.944
13742W        W86002  10.325  18.676   2.141
13743W        W86003  36.016  17.153  11.984
13744W        W86004  24.471  19.026   1.816
13745W        W86005  43.951  14.464  10.667
13746W        W86006  10.982  29.512  14.629
13747W        W86007  41.792  39.587  12.087
13748W        W86008  36.942   4.677   3.694
13749W        W86009  32.418  28.761  12.605
13750W        W86010  27.461  13.935   2.745
13751W        W86011  28.501  30.402   5.384
13752W        W86012  25.126  30.473  14.421
13753W        W86013  15.965  17.149  11.044
13754W        W86014  42.766   3.732   4.064
13755W        W86015  15.542  35.167  12.441
13756W        W86016  44.869  11.763  14.391
13757W        W86017   7.037   0.502   1.920
13758W        W86018  39.639  31.808  13.045
13759W        W86019  42.886  42.205  13.944
13760W        W86020   1.317  10.051  11.671
13761W        W86021   7.687  28.729  12.557
13762W        W86022  27.126  39.985   2.280
13763W        W86023  43.738  39.645  12.044
13764W        W86024  25.499   3.752   1.779
13765W        W86025  25.158  28.134  13.365
13766W        W86026  37.599  10.781   4.689
13767W        W86027  22.149  27.510   5.026
13768W        W86028   2.209  43.594   1.029
13769W        W86029   2.826  33.591  14.718
13770W        W86030   7.878  41.294  10.252
13771W        W86031  23.696  42.428  10.665
13772W        W86032  29.919  11.499   0.292
13773W        W86033  10.414  25.546   2.677
13774W        W86034  26.464   1.348  12.796
13775W        W86035  16.953  24.170   1.578
13776W        W86036   5.750  15.723   1.314
13777W        W86037   3.364  41.541   0.637
13778W        W86038  42.494  39.831   4.153
13779W        W86039   3.703   0.446  13.829
13780W        W86040   2.816  34.173   1.852
13781W        W86041   7.821  23.736   0.415
13782W        W86042   8.764  23.357  13.834
13783W        W86043  27.670  18.994   4.942
13784W        W86044  19.002   3.287   0.027
13785W        W86045  43.803  23.995   2.283
13786W        W86046  17.283  43.379  10.858
13787W        W86047  16.640  34.378  12.936
13788W        W86048  11.032  41.561   0.517
13789W        W86049  27.194  28.420  10.973
13790W        W86050  15.671  10.553   0.320
13791W        W86051  17.210  13.923   2.734
13792W        W86052  17.908  20.665   2.275
13793W        W86053  31.143  33.557  14.275
13794W        W86054  29.931  44.936  10.501
13795W        W86055  37.660  34.876  11.289
13796W        W86056  37.700   9.601   2.570
13797W        W86057  38.827  20.602  12.554
13798W        W86058  12.045  28.526  12.358
13799W        W86059  20.929  11.481  14.460
13800W        W86060   2.862  36.908   0.430
13801W        W86061  30.729   1.251  14.807
13802W        W86062  15.154  32.164  10.057
13803W        W86063   2.936   2.994   0.743
13804W        W86064   4.827  21.783  12.049
13805W        W86065   0.037  35.438  12.893
13806W        W86066  25.058  26.914   4.705
13807W        W86067   6.267  15.231   2.767
13808W        W86068   1.426   0.997  14.530
13809W        W86069  42.577  28.624   2.628
13810W        W86070  43.101  13.567   1.825
13811W        W86071  40.002  12.951   0.925
13812W        W86072  34.803  15.580  12.433
13813W        W86073   2.956   1.837   4.437
13814W        W86074  34.575   6.491   1.988
13815W        W86075  10.862  27.981  10.750
13816W        W86076  19.733   5.874   3.845
13817W        W86077  43.370  18.920   0.433
13818W        W86078  24.644  23.209  14.923
13819W        W86079  29.541  12.822  13.399
13820W        W86080  30.522   6.784   4.432
13821W        W86081  37.875  29.455  14.411
13822W        W86082  14.205  30.727   1.676
13823W        W86083  30.548  19.615  13.452
13824W        W86084   2.980  10.905   3.269
13825W        W86085  27.797  22.566  13.895
13826W        W86086  25.478   5.800   0.435
13827W        W86087  21.688   1.513   4.550
13828W        W86088  35.040  17.331   0.525
13829W        W86089  11.742   1.339   4.211
13830W        W86090   0.853  42.918  12.864
13831W        W86091  37.860  39.510  14.916
13832W        W86092  17.663   4.557  11.045
13833W        W86093  32.629  33.133   4.582
13834W        W86094  28.005  44.689  11.536
13835W        W86095  31.527  19.075  10.747
13836W        W86096  24.000   8.730  10.567
13837W        W86097  36.561  13.139  14.531
13838W        W86098   2.808  30.435  14.390
13839W        W86099  21.515  17.203   0.341
13840W        W86100  39.760  18.719   3.834
13841W        W86101   0.344  44.021  14.263
13842W        W86102   5.340   5.466   1.303
13843W        W86103  23.948   9.067   5.188
13844W        W86104  25.129  29.040  12.962
13845W        W86105  33.452  34.371   1.724
13846W        W86106   1.849   3.214   2.825
13847W        W86107  24.676  13.744   2.901
13848W        W86108  37.624   7.641  11.915
13849W        W86109  27.046  26.578   3.288
13850W        W86110   5.978  42.824  14.888
13851W        W86111  40.423  39.857   2.469
13852W        W86112  40.353  39.992   1.953
13853W        W86113  11.241  16.949   1.860
13854W        W86114  34.224  36.127   2.172
13855W        W86115  22.081  38.434  11.632
13856W        W86116  13.168   3.814   3.534
13857W        W86117   2.367  25.193  11.108
13858W        W86118  44.184  10.229  10.823
13859W        W86119  38.332  18.267   4.958
13860W        W86120  15.586  31.933   3.955
13861W        W86121  28.040  16.497  14.090
13862W        W86122  40.554  23.704   4.120
13863W        W86123  43.451  20.049  14.361
13864W        W86124  26.686  39.764  11.991
13865W        W86125  34.430  42.521   4.843
13866W        W86126   4.464  43.253   4.192
13867W        W86127  10.947  27.391  11.549
13868W        W86128   3.295   7.962  13.193
13869W        W86129  32.533   8.911  13.329
13870W        W86130  18.004  10.370   1.417
13871W        W86131  37.820  12.810  13.541
13872W        W86132  28.923  38.720   0.898
13873W        W86133  32.076   0.239   1.332
13874W        W86134  41.467  44.945  14.986
13875W        W86135  43.760  35.483   2.069
13876W        W86136  25.309  17.228   9.939
13877W        W86137  31.108  17.421  11.070
13878W        W86138   3.234  19.201  12.939
13879W        W86139  20.083  21.290   1.843
13880W        W86140   6.942  41.788   2.676
13881W        W86141   3.953   5.569   3.624
13882W        W86142  43.022  37.342   3.328
13883W        W86143  26.121  29.434   2.830
13884W        W86144  10.081  36.135  10.820
13885W        W86145   1.738  11.197  11.707
13886W        W86146  26.712  19.573  10.642
13887W        W86147  31.932  16.193  13.380
13888W        W86148  37.659  27.133   2.306
13889W        W86149  32.408  23.937  11.470
13890W        W86150  31.664   3.670   1.398
13891W        W86151  18.221  17.872   0.887
13892W        W86152  15.499  31.552   4.300
13893W        W86153  32.126  24.327   3.166
13894W        W86154  16.049  38.943  14.510
13895W        W86155  24.043   2.978   3.108
13896W        W86156  17.836  28.763   0.967
13897W        W86157  39.309   6.308  11.395
13898W        W86158   0.857  24.766   1.635
13899W        W86159  13.539  39.433   3.692
13900W        W86160  24.595   1.803  14.732
13901W        W86161   8.387  19.377   4.859
13902W        W86162  36.626  38.546  11.423
13903W        W86163  11.864  14.753  12.951
13904W        W86164  11.212  42.659   1.540
13905W        W86165  24.637  32.643   4.134
13906W        W86166  19.321  27.101   3.656
13907W        W86167  23.456  28.905   2.777
13908W        W86168  11.733   2.885  12.553
13909W        W86169  12.105   1.232  14.831
13910W        W86170  34.359   5.790  11.277
13911W        W86171  36.699  27.777   2.646
13912W        W86172  43.477  31.558  10.522
13913W        W86173  43.427  20.040  11.597
13914W        W86174  26.370  14.158   1.383
13915W        W86175  29.091  42.417   1.824
13916W        W86176  22.103  28.658  10.954
13917W        W86177  42.213   4.520   3.282
13918W        W86178  12.726  12.056   1.930
13919W        W86179   7.407  10.288   0.289
13920W        W86180  42.770  34.917  12.453
13921W        W86181  40.049  20.638  11.184
13922W        W86182   7.382   7.341  13.107
13923W        W86183  37.483  25.716  11.722
13924W        W86184  29.543   9.795   0.799
13925W        W86185  22.211   4.703  11.656
13926W        W86186   9.737  35.968   4.401
13927W        W86187  42.115  14.879  11.620
13928W        W86188  22.994  34.809   2.815
13929W        W86189  18.044   2.763   3.093
13930W        W86190  26.123  26.753   0.332
13931W        W86191   2.375   2.221  12.652
13932W        W86192  30.010  19.119   0.992
13933W        W86193  35.885   3.737  12.955
13934W        W86194   9.382  22.064  10.662
13935W        W86195  21.650  24.071  12.428
13936W        W86196  20.555  25.096  11.496
13937W        W86197  31.363  16.145  10.648
13938W        W86198  40.431  24.110  14.291
13939W        W86199  13.788   0.439   1.393
13940W        W86200  17.097  40.389   3.757
13941W        W86201  20.676  32.897  10.933
13942W        W86202   7.695  24.220  11.544
13943W        W86203  24.736  13.618  11.103
13944W        W86204  44.954  30.547  13.336
13945W        W86205  27.174   4.747  12.927
13946W        W86206   3.100  24.151   3.085
13947W        W86207  20.849   5.079   0.769
13948W        W86208  21.067   5.895  10.030
13949W        W86209  27.115  32.482  11.235
13950W        W86210  12.041  40.617  11.112
13951W        W86211  21.113  33.878  14.582
13952W        W86212  33.857  38.309   0.855
13953W        W86213  17.272  15.059   4.169
13954W        W86214   2.009  42.862   4.123
13955W        W86215  29.412  13.756  11.545
13956W        W86216   4.806   9.689   3.399
13957W        W86217  44.348   8.322   1.255
13958W        W86218  15.524  20.826  14.421
13959W        W86219   5.935   0.016  12.506
13960W        W86220  43.939   1.772  12.889
13961W        W86221  37.588  24.008  11.509
13962W        W86222  16.096  26.533  14.878
13963W        W86223  25.042  26.407  12.071
13964W        W86224  41.271  36.037   1.286
13965W        W86225  25.110  41.161  14.696
13966W        W86226  34.413   5.918  14.314
13967W        W86227  26.677  22.443   4.081
13968W        W86228  19.771  21.694   2.040
13969W        W86229   8.408   3.786   4.745
13970W        W86230  36.932  15.796  14.771
13971W        W86231  18.938  24.666  13.039
13972W        W86232  12.849  38.447  13.537
13973W        W86233  10.385  39.834   3.182
13974W        W86234   5.659   8.232   1.313
13975W        W86235  16.387   5.247  14.874
13976W        W86236  33.440  27.621  14.381
13977W        W86237  17.155  16.444   0.890
13978W        W86238  36.826  13.897   2.150
13979W        W86239  26.523   2.788  11.950
13980W        W86240   4.402   8.227   3.817
13981W        W86241  36.322   9.166   5.084
13982W        W86242  32.032  22.744  11.573
13983W        W86243   0.933  43.879   3.159
13984W        W86244  37.856  38.445   1.153
13985W        W86245  31.219  29.861  10.565
13986W        W86246  36.543   5.100   0.914
13987W        W86247  26.322   7.695  12.307
13988W        W86248   5.232  33.498   4.488
13989W        W86249  25.674  37.760  13.970
13990W        W86250  10.165   7.220   1.427
13991W        W86251  22.956   5.902  12.962
13992W        W86252  11.197  22.085  14.196
13993W        W86253  14.798  21.189  11.082
13994W        W86254  32.517  14.795   0.253
13995W        W86255  30.014  35.068   4.079
13996W        W86256   4.396  15.731  13.466
13997W        W86257  19.981  13.059   2.312
13998W        W86258  18.178  15.524  12.019
13999W        W86259  34.860  39.889   0.057
14000W        W86260  16.028  37.063   2.823
14001W        W86261  19.646   2.109   3.523
14002W        W86262   7.672  23.152   3.857
14003W        W86263   6.705  38.467   3.326
14004W        W86264  23.004  37.341  13.992
14005W        W86265  20.202  36.986  14.525
14006W        W86266  32.609  34.106   1.892
14007W        W86267  14.070  43.910  14.068
14008W        W86268  38.338  21.370  10.711
14009W        W86269  37.838   2.879  12.337
14010W        W86270   5.976  30.285  11.125
14011W        W86271  36.934  36.801  12.296
14012W        W86272  22.708   4.313  14.093
14013W        W86273  30.125  11.012   3.311
14014W        W86274  35.678  30.633  13.977
14015W        W86275  43.865  26.325  11.108
14016W        W86276  20.285  31.873   4.942
14017W        W86277  34.584  22.967   1.777
14018W        W86278  41.814  41.893  11.702
14019W        W86279  37.652  28.013  11.088
14020W        W86280   6.747  36.130   2.646
14021W        W86281  24.140  29.157   0.441
14022W        W86282  44.279   7.121   4.513
14023W        W86283  20.569  35.013  14.289
14024W        W86284  34.953  37.304   0.454
14025W        W86285  25.960  38.460  12.155
14026W        W86286  12.280  39.057  14.840
14027W        W86287   9.275  38.841  11.404
14028W        W86288  24.792  24.021   0.770
14029W        W86289  43.396  17.032   0.766
14030W        W86290  16.218  32.536  13.984
14031W        W86291  13.909   7.307  11.009
14032W        W86292  14.123   4.734   4.186
14033W        W86293  11.899  36.884   2.652
14034W        W86294  32.694  37.576   4.677
14035W        W86295  28.958  34.657  12.938
14036W        W86296  37.103   7.736   2.645
14037W        W86297  30.391  20.749   0.294
14038W        W86298  16.827  40.330  12.022
14039W        W86299   2.913  34.909  13.352
14040W        W86300  27.077  33.335   3.535
14041W        W86301  37.508   8.152   4.076
14042W        W86302  34.930   0.682  10.495
14043W        W86303   0.893  40.403  11.472
14044W        W86304   4.877  12.983  13.257
14045W        W86305   1.858   0.967   4.214
14046W        W86306  30.637  25.997  10.777
14047W        W86307  27.517  20.763   3.087
14048W        W86308  32.404  42.517   1.751
14049W        W86309  33.702  11.794   1.379
14050W        W86310  10.369  43.577  14.840
14051W        W86311   0.189  40.831   0.844
14052W        W86312  10.866  31.741  12.476
14053W        W86313   6.245  21.509  12.463
14054W        W86314  26.762   2.377  13.438
14055W        W86315  15.192  34.957  12.846
14056W        W86316  40.806   6.555   3.353
14057W        W86317  34.619   6.633   2.497
14058W        W86318  31.047  41.941   2.268
14059W        W86319   4.890  28.730   1.186
14060W        W86320  26.998  42.281   0.517
14061W        W86321   2.026  17.052   1.374
14062W        W86322  20.256  13.062  12.045
14063W        W86323  39.856  43.137  12.423
14064W        W86324  14.178  32.291  10.646
14065W        W86325  16.031  22.510   1.879
14066W        W86326  25.478   7.315   2.516
14067W        W86327  15.790  43.338  10.753
14068W        W86328  11.776  35.434   0.835
14069W        W86329  37.051  12.490  12.923
14070W        W86330  39.579  19.627  13.264
14071W        W86331  10.684  14.100   4.711
14072W        W86332  26.520   8.459  13.437
14073W        W86333  36.242  39.468  12.760
14074W        W86334   3.069  44.405   1.350
14075W        W86335  27.488  34.107   0.845
14076W        W86336  17.694   6.872  12.476
14077W        W86337  39.364   8.806   3.779
14078W        W86338  33.120  44.097  13.419
14079W        W86339   4.768  21.504   2.213
14080W        W86340  34.568   7.140   0.011
14081W        W86341   5.867  10.609   1.295
14082W        W86342  26.875  39.995  14.907
14083W        W86343  15.725   3.129  14.781
14084W        W86344  32.183  38.941  13.394
14085W        W86345  27.908  20.716  12.408
14086W        W86346  16.078  30.493  14.727
14087W        W86347  28.552  34.592  10.484
14088W        W86348  22.150  21.356  11.011
14089W        W86349  17.059  12.669   3.692
14090W        W86350   3.241   1.560   3.653
14091W        W86351  25.026  40.648   3.699
14092W        W86352  16.338   5.308   4.073
14093W        W86353  29.092  27.118  10.588
14094W        W86354  16.846  30.580  13.336
14095W        W86355   8.946  24.216  12.006
14096W        W86356  39.024  33.402  10.956
14097W        W86357  12.148  38.748  11.508
14098W        W86358  37.578  23.958  13.542
14099W        W86359  19.162   3.321  10.715
14100W        W86360  20.804  18.590   3.851
14101W        W86361   9.104  31.498  13.847
14102W        W86362  28.559  25.255   4.881
14103W        W86363  19.155   9.546   5.000
14104W        W86364  40.122   3.303  11.666
14105W        W86365   3.616  26.379   2.650
14106W        W86366  40.978  41.451   3.938
14107W        W86367  35.279   0.770  13.405
14108W        W86368  29.424  39.943   4.081
14109W        W86369  18.576  23.748   3.747
14110W        W86370  20.331  20.214   4.958
14111W        W86371  32.083  10.246  10.696
14112W        W86372  16.238  27.534   0.161
14113W        W86373  10.375   0.504   1.480
14114W        W86374  39.500  26.466   2.391
14115W        W86375   4.357  15.654   1.750
14116W        W86376  16.831  29.222   2.744
14117W        W86377  10.100  25.047  10.720
14118W        W86378  10.876  30.570   2.674
14119W        W86379  22.754  25.894  10.626
14120W        W86380  26.017  43.287   2.712
14121W        W86381  22.524   2.277   0.296
14122W        W86382   2.321  16.067  10.553
14123W        W86383  32.276  19.017   2.857
14124W        W86384  39.953  27.549  12.438
14125W        W86385  15.948  30.598   4.059
14126W        W86386  14.304  37.597  11.149
14127W        W86387  17.721  14.198  12.096
14128W        W86388   5.369  18.891   1.235
14129W        W86389  17.673  33.473  12.600
14130W        W86390   4.411  43.434   0.189
14131W        W86391  38.661  43.711   1.681
14132W        W86392   1.431   4.753  12.691
14133W        W86393  35.079  22.063   0.122
14134W        W86394   5.865  39.590   3.842
14135W        W86395  37.317  44.865  13.739
14136W        W86396  26.122  42.324   4.770
14137W        W86397   4.743  19.054  11.391
14138W        W86398  13.285  41.873  12.480
14139W        W86399   1.251   5.997  12.544
14140W        W86400   7.212  41.799  12.998
14141W        W86401  30.841  22.487  13.554
14142W        W86402  35.895  39.471   3.287
14143W        W86403  38.315  14.254   3.143
14144W        W86404   2.074   2.054  11.040
14145W        W86405  44.735  23.394   0.223
14146W        W86406  28.730  28.088  12.042
14147W        W86407  14.180  37.439  10.675
14148W        W86408  32.634  26.990  11.443
14149W        W86409   5.775  20.647  10.526
14150W        W86410  30.452  10.734  14.590
14151W        W86411  39.902  39.123  12.861
14152W        W86412  26.958  12.291  11.026
14153W        W86413  22.514  21.606  13.563
14154W        W86414  33.087   5.248  14.576
14155W        W86415  11.395  13.273   2.806
14156W        W86416  38.317  31.619  13.366
14157W        W86417  31.194   3.978  13.471
14158W        W86418   0.429  40.611  13.378
14159W        W86419  27.171  37.543  10.061
14160W        W86420  21.536  40.411   3.762
14161W        W86421  32.469  21.143  11.640
14162W        W86422  19.621  30.182   1.487
14163W        W86423  31.216  42.804  14.000
14164W        W86424   8.666   6.937   2.424
14165W        W86425  30.716  17.502  10.745
14166W        W86426   0.890  22.480  13.398
14167W        W86427  21.451  32.039  13.874
14168W        W86428   2.895  22.157   0.197
14169W        W86429   9.711   1.222  12.962
14170W        W86430  31.673  20.868   0.020
14171W        W86431  41.066  14.266   2.633
14172W        W86432  39.102   6.231  12.433
14173W        W86433  28.403   5.728   4.560
14174W        W86434  13.748   6.731  12.115
14175W        W86435  19.091   4.352  11.042
14176W        W86436  21.715  43.933   1.466
14177W        W86437  36.430   8.789   4.238
14178W        W86438  27.726  40.282   1.871
14179W        W86439  33.945   2.593  11.098
14180W        W86440  20.271  27.577   4.416
14181W        W86441  21.126   5.004   4.480
14182W        W86442   3.444  38.874  10.820
14183W        W86443  41.296  33.665  12.505
14184W        W86444   2.991   5.785  11.912
14185W        W86445  21.017  12.252   2.276
14186W        W86446  40.815  24.421  11.537
14187W        W86447  25.570  36.935   1.328
14188W        W86448  31.402   5.765  10.631
14189W        W86449   4.907  31.892   3.157
14190W        W86450  43.949  42.795   4.128
14191W        W86451  16.604  13.663  13.243
14192W        W86452  43.912  28.503  12.897
14193W        W86453  42.712  12.692  12.410
14194W        W86454   1.498  44.750   3.128
14195W        W86455  43.462  40.854   2.376
14196W        W86456  34.657  32.898   0.844
14197W        W86457   6.775  30.238   2.280
14198W        W86458   0.813  37.126  10.668
14199W        W86459   9.361  42.044  11.117
14200W        W86460  29.682   5.450  10.916
14201W        W86461  38.849  23.622  11.838
14202W        W86462  26.187  41.773  11.162
14203W        W86463  20.100  29.481   3.734
14204W        W86464  19.261  32.417  14.438
14205W        W86465   9.175  31.474   3.415
14206W        W86466  22.818  20.820   5.314
14207W        W86467  38.336  16.609   4.161
14208W        W86468   2.725   3.714  10.631
14209W        W86469  25.555  19.209  12.394
14210W        W86470  33.814  15.114  11.990
14211W        W86471   0.811  44.715   4.692
14212W        W86472  34.805   2.148   1.582
14213W        W86473  29.103  29.040   1.831
14214W        W86474   1.700  16.745  11.182
14215W        W86475  34.172  38.309  12.961
14216W        W86476  24.151   0.996  12.580
14217W        W86477  39.964   2.773   3.940
14218W        W86478  23.777  17.077  14.281
14219W        W86479   2.894   8.024  13.544
14220W        W86480   3.682  40.913   2.144
14221W        W86481  41.003   8.708   1.813
14222W        W86482  39.544  11.649  10.668
14223W        W86483   9.754   6.347  10.420
14224W        W86484  40.242  32.109   2.304
14225W        W86485  20.619   7.379  13.737
14226W        W86486  34.037  33.451   1.360
14227W        W86487  15.305  28.556   0.813
14228W        W86488   4.207  25.113   0.811
14229W        W86489  42.998  42.870   1.632
14230W        W86490  16.906  41.419   1.338
14231W        W86491  34.347  22.020   3.190
14232W        W86492  19.778  19.990  12.076
14233W        W86493  40.470  22.672   0.939
14234W        W86494  10.642  21.352  11.479
14235W        W86495  21.616   7.629   4.671
14236W        W86496  44.771   0.440   1.426
14237W        W86497   5.119   4.696   1.740
14238W        W86498  18.525  37.464   2.326
14239W        W86499  31.060  25.975   3.583
14240W        W86500  36.628  44.621  14.994
14241W        W86501  28.856  41.746  14.022
14242W        W86502   7.002  22.290  13.907
14243W        W86503  42.836  26.128  13.931
14244W        W86504  37.910  16.253  10.210
14245W        W86505  44.289  14.996  13.974
14246W        W86506  26.193  41.254  11.024
14247W        W86507  23.755  37.114  13.049
14248W        W86508   5.214  13.609  14.030
14249W        W86509  34.864  38.763   3.090
14250W        W86510  30.728  22.158   4.124
14251W        W86511  19.231   0.241   0.806
14252W        W86512  33.141  30.593   3.925
14253W        W86513   2.323  24.473  14.468
14254W        W86514  39.014  40.617  13.343
14255W        W86515  36.961   4.626  10.511
14256W        W86516   2.604  42.590  11.972
14257W        W86517   5.283  41.157   2.795
14258W        W86518   5.782  13.747  14.880
14259W        W86519  38.520  30.531   0.319
14260W        W86520   5.235   2.136  10.845
14261W        W86521   2.433   3.659  13.224
14262W        W86522  11.163  28.679   4.511
14263W        W86523  11.142  41.979  11.184
14264W        W86524  22.270  43.355   2.810
14265W        W86525  41.217  27.825  11.921
14266W        W86526  33.374  23.105   3.195
14267W        W86527   3.450  17.374   1.975
14268W        W86528  33.994  43.462  14.037
14269W        W86529  28.238  40.333   1.780
14270W        W86530  34.979   3.792   0.998
14271W        W86531   1.498  11.368   2.181
14272W        W86532  24.924  41.459  13.897
14273W        W86533  17.229   1.903   3.799
14274W        W86534  29.116  39.296   2.645
14275W        W86535  44.276  15.741  12.459
14276W        W86536  42.296  38.000  14.692
14277W        W86537  26.161  42.409  12.874
14278W        W86538  14.754  35.392   2.005
14279W        W86539  42.438  41.397   2.842
14280W        W86540  15.852   5.363  14.899
14281W        W86541  12.557   5.428  11.506
14282W        W86542  23.049  32.456   1.318
14283W        W86543  42.996  36.966  12.030
14284W        W86544  22.301   3.366   4.160
14285W        W86545   3.941   1.908   2.915
14286W        W86546  27.657  22.822  13.389
14287W        W86547  10.796   7.482  14.846
14288W        W86548  27.692  19.034   1.311
14289W        W86549  32.094   0.396  13.539
14290W        W86550   9.432  37.970   2.662
14291W        W86551  36.442  38.130   0.442
14292W        W86552   5.158  36.831   1.453
14293W        W86553  27.617  12.566   0.377
14294W        W86554  22.711  22.813   0.781
14295W        W86555   0.897  21.736  12.481
14296W        W86556  31.688  14.617   2.249
14297W        W86557  26.506  33.331   2.240
14298W        W86558  19.271  40.993   2.683
14299W        W86559  26.165  33.610  12.451
14300W        W86560  44.635  12.991  13.245
14301W        W86561  33.636  26.622  10.582
14302W        W86562  18.539  42.567  13.234
14303W        W86563  16.786  39.358  14.547
14304W        W86564  23.974  18.800   4.761
14305W        W86565  21.885   3.921   2.793
14306W        W86566  28.581  27.698  11.414
14307W        W86567  14.961   1.533   0.242
14308W        W86568  22.309   4.193  14.918
14309W        W86569  27.134  19.198   0.234
14310W        W86570  34.590   2.915   1.270
14311W        W86571  27.868  28.063   0.236
14312W        W86572  10.500  24.191   4.535
14313W        W86573  25.498  42.088   3.712
14314W        W86574  12.452  37.230   0.286
14315W        W86575  15.565   0.475   0.986
14316W        W86576  42.253  43.780  12.559
14317W        W86577   1.225  41.000   4.523
14318W        W86578   4.773  44.201   5.012
14319W        W86579  25.960   4.982   4.749
14320W        W86580   5.174  18.714  14.446
14321W        W86581  14.697  41.058   1.356
14322W        W86582  21.445  27.045  14.043
14323W        W86583  23.631  13.058   3.637
14324W        W86584  32.052  37.883  13.956
14325W        W86585   7.456   5.390  13.765
14326W        W86586  15.176   4.175  12.635
14327W        W86587  32.896  38.543  14.412
14328W        W86588  40.981  40.550  13.464
14329W        W86589  18.287  18.617  14.364
14330W        W86590  35.971  39.602  14.498
14331W        W86591   0.486  30.093  10.763
14332W        W86592   8.651   4.950  14.539
14333W        W86593  23.536  24.928  13.526
14334W        W86594  26.645  43.167  13.936
14335W        W86595  20.100   5.351   3.214
14336W        W86596  39.824  28.195   0.410
14337W        W86597  42.852  27.373  12.836
14338W        W86598  38.821  14.216  13.414
14339W        W86599  24.628  32.130   4.244
14340W        W86600   4.954   8.896   0.431
14341W        W86601  41.804  24.480  12.103
14342W        W86602  13.375  41.043  12.006
14343W        W86603   3.222  32.831   3.693
14344W        W86604  41.631  28.624  10.671
14345W        W86605  43.034  35.490   0.961
14346W        W86606  24.628  41.883   2.722
14347W        W86607   8.239  30.434   4.581
14348W        W86608  44.463  32.475   0.830
14349W        W86609  12.781   7.912  11.617
14350W        W86610  37.890   7.830   4.163
14351W        W86611  13.844   7.729   1.426
14352W        W86612  32.563   1.942  14.721
14353W        W86613  42.275   2.608   0.936
14354W        W86614  29.083  15.131  10.750
14355W        W86615   5.022  27.513  11.205
14356W        W86616   5.225  27.077   5.070
14357W        W86617   5.244   2.332  11.763
14358W        W86618  43.162  24.114   4.118
14359W        W86619  20.229  39.452   2.225
14360W        W86620  11.411  16.596  14.491
14361W        W86621  22.699  36.567  13.791
14362W        W86622   7.170  25.487   2.792
14363W        W86623   8.650   2.399  13.924
14364W        W86624  10.703  12.364  12.051
14365W        W86625  40.513   9.634   3.739
14366W        W86626  21.071  30.642  14.765
14367W        W86627  43.820   3.888   2.357
14368W        W86628  13.314  19.698  10.583
14369W        W86629  36.801  15.686  11.124
14370W        W86630  22.828  27.987  11.644
14371W        W86631  19.502  29.024  10.639
14372W        W86632  32.065  44.347   3.090
14373W        W86633   2.592  14.160  14.878
14374W        W86634  22.540  20.561  10.727
14375W        W86635  14.038  20.228   1.103
14376W        W86636  15.754  27.242   0.828
14377W        W86637  29.687   7.457  11.251
14378W        W86638  36.369  21.625   2.374
14379W        W86639  26.049  11.186   4.655
14380W        W86640   1.798  30.647   1.152
14381W        W86641  35.480  29.065   3.652
14382W        W86642  14.220   5.723   4.598
14383W        W86643   9.623   7.579  14.278
14384W        W86644  15.840   5.372   4.184
14385W        W86645  32.392   0.937  10.599
14386W        W86646  25.537  20.335  14.073
14387W        W86647  14.717  32.304  12.469
14388W        W86648  22.640  35.598   3.362
14389W        W86649   0.807  10.152  11.517
14390W        W86650  17.156  16.808   3.851
14391W        W86651  10.161  22.085  14.150
14392W        W86652  22.491   2.867   4.083
14393W        W86653  32.493  12.235   3.073
14394W        W86654  16.521  13.251  12.953
14395W        W86655  19.340  23.078  11.946
14396W        W86656  10.553  24.616   1.458
14397W        W86657  14.856  42.477   4.592
14398W        W86658  21.691  31.138  14.133
14399W        W86659  23.526  20.258   2.803
14400W        W86660  44.927  10.337   1.732
14401W        W86661   8.191   6.226  10.638
14402W        W86662  20.750  40.812   1.327
14403W        W86663  36.318  10.590   2.703
14404W        W86664  39.036   1.891  11.495
14405W        W86665  13.680  23.164   4.077
14406W        W86666  33.478  18.946  14.216
14407W        W86667   0.056  13.459  11.174
14408W        W86668  24.951  23.958  12.924
14409W        W86669  19.929   5.108  10.390
14410W        W86670  14.564  38.065  12.621
14411W        W86671  15.626   8.650  10.564
14412W        W86672  13.746  39.260   2.220
14413W        W86673  22.003  13.629   0.166
14414W        W86674  23.976  10.682   2.450
14415W        W86675   8.156  40.753  14.762
14416W        W86676  23.097  12.607  13.976
14417W        W86677   0.255  37.086   4.151
14418W        W86678  31.572  33.006  10.509
14419W        W86679  21.538   7.939   3.317
14420W        W86680  15.081  40.470  11.743
14421W        W86681  21.717  17.588  11.063
14422W        W86682   3.769  35.359  12.065
14423W        W86683  32.070  28.476   4.412
14424W        W86684  32.582   7.333  13.518
14425W        W86685  41.033   4.206   4.278
14426W        W86686  12.787  17.078   5.526
14427W        W86687  35.508  26.446   3.122
14428W        W86688  38.789  18.596  13.841
14429W        W86689  29.470  44.889  12.176
14430W        W86690  27.116  35.439  14.625
14431W        W86691   0.446   5.347   2.700
14432W        W86692  27.416  12.746   3.588
14433W        W86693  14.984  33.523  13.071
14434W        W86694   0.509  28.405  13.902
14435W        W86695  38.911  12.399   3.169
14436W        W86696  37.848  38.942   2.594
14437W        W86697   0.965   8.375  13.610
14438W        W86698  29.486  11.808   1.493
14439W        W86699  44.470  30.077   4.289
14440W        W86700  43.318  16.997   2.362
14441W        W86701  41.268  19.257   0.275
14442W        W86702  17.246   8.881  13.388
14443W        W86703  14.243  41.593   0.684
14444W        W86704   4.804  40.096  12.808
14445W        W86705  36.915  20.069   3.145
14446W        W86706   4.462  18.099  12.108
14447W        W86707  17.781  39.100   3.247
14448W        W86708  13.164  17.010   0.923
14449W        W86709  26.794  15.363   4.611
14450W        W86710  24.022  30.715  13.722
14451W        W86711  37.442   7.541   9.695
14452W        W86712  33.918  44.824   2.728
14453W        W86713  18.722  19.681   4.055
14454W        W86714  12.040   0.324  10.917
14455W        W86715  41.915  28.528   4.411
14456W        W86716  30.969  25.424   5.240
14457W        W86717   9.850  20.810   0.118
14458W        W86718  37.121  12.795  14.759
14459W        W86719  35.307  23.551  14.558
14460W        W86720  40.179  32.594   1.132
14461W        W86721  39.394   3.320   4.625
14462W        W86722  30.614  41.024  14.336
14463W        W86723  43.822  34.490  14.118
14464W        W86724  11.406  11.646  12.003
14465W        W86725  44.896   0.426  10.656
14466W        W86726  16.051   5.793   3.914
14467W        W86727   5.955  12.025  11.125
14468W        W86728  23.229  41.022   3.633
14469W        W86729   2.961  14.414  11.142
14470W        W86730   0.925  36.969   0.717
14471W        W86731  36.754  40.917  11.748
14472W        W86732   8.420  22.680  11.595
14473W        W86733  39.399  41.097   0.935
14474W        W86734  37.245   2.188   2.805
14475W        W86735   6.420  40.083  11.807
14476W        W86736  10.243   1.801  12.434
14477W        W86737  13.212   5.419   1.644
14478W        W86738  43.880  44.444   1.707
14479W        W86739  20.968   4.925  12.571
14480W        W86740  35.935   6.435   2.770
14481W        W86741  13.681   5.274   1.843
14482W        W86742  13.060  17.665   4.438
14483W        W86743  28.401  11.708   2.835
14484W        W86744  40.247   9.912   0.300
14485W        W86745   7.870  30.214  11.633
14486W        W86746  32.176   3.558   9.879
14487W        W86747  28.040  33.533   3.878
14488W        W86748  12.894  17.728   2.195
14489W        W86749  24.280  27.725   0.318
14490W        W86750  32.057  29.933   1.489
14491W        W86751   1.792  44.428   1.725
14492W        W86752  10.710  43.971  14.752
14493W        W86753   6.870  15.063   1.319
14494W        W86754   1.457   8.792  11.984
14495W        W86755  35.588   3.694  13.385
14496W        W86756   8.390  40.508  10.843
14497W        W86757  18.296  38.599  12.335
14498W        W86758  10.166  18.522   4.356
14499W        W86759  11.692  15.509   5.172
14500W        W86760  27.456  36.496   1.895
14501W        W86761  37.214  26.647  11.262
14502W        W86762  37.002  20.099   9.788
14503W        W86763  10.100  29.162  12.042
14504W        W86764  34.049  33.467   4.510
14505W        W86765   5.962  31.090  14.654
14506W        W86766  35.414  10.201  12.643
14507W        W86767  20.665  36.726   1.300
14508W        W86768  23.500  20.029  12.865
14509W        W86769  22.611  44.316  13.849
14510W        W86770  40.077  15.532   4.088
14511W        W86771  17.747   8.651   2.144
14512W        W86772  30.552  33.701  14.017
14513W        W86773  22.067  28.109  11.994
14514W        W86774   3.254  15.345  13.518
14515W        W86775  23.665  42.838   0.547
14516W        W86776  20.702   7.094  11.633
14517W        W86777  30.105  43.683  10.717
14518W        W86778  23.507  19.322   2.612
14519W        W86779  32.480  14.550   2.925
14520W        W86780  28.344  12.594  12.044
14521W        W86781  27.046  44.010  11.068
14522W        W86782  41.348  41.866   2.807
14523W        W86783  40.582  44.016   4.952
14524W        W86784  15.232   1.728   0.734
14525W        W86785  38.937  11.605   1.482
14526W        W86786  25.082  40.482   4.618
14527W        W86787   6.227  26.519   4.682
14528W        W86788  26.120  43.764  10.972
14529W        W86789  37.915  37.367  13.981
14530W        W86790  24.960  18.507   2.279
14531W        W86791  22.233  24.351  11.678
14532W        W86792  41.298  38.993  14.740
14533W        W86793  21.516  12.690  13.947
14534W        W86794  44.687  27.583   2.214
14535W        W86795  43.959  20.801  11.627
14536W        W86796   5.767  43.995   0.712
14537W        W86797  18.624  38.851  13.045
14538W        W86798  33.176  42.736   4.186
14539W        W86799   4.451  37.477   4.541
14540W        W86800  31.892  10.100  11.585
14541W        W86801   8.752  19.817  11.178
14542W        W86802  15.820  41.776  10.712
14543W        W86803   2.711  43.739   3.133
14544W        W86804  40.994  27.019   4.800
14545W        W86805  41.888  28.049   1.306
14546W        W86806  19.141  39.928  14.947
14547W        W86807  15.586  11.155   1.932
14548W        W86808   4.551  24.788   1.571
14549W        W86809  24.732   8.334  13.321
14550W        W86810  43.321  20.535   3.173
14551W        W86811  12.911  18.699  14.369
14552W        W86812  40.992   4.140  13.891
14553W        W86813  28.225  32.143   4.621
14554W        W86814  38.520  34.365  12.067
14555W        W86815  27.625  41.783   1.838
14556W        W86816   0.771  19.399  12.240
14557W        W86817  10.318  15.879   0.351
14558W        W86818  20.535  27.515  10.721
14559W        W86819   4.496  34.073   4.132
14560W        W86820  20.995  26.214   1.894
14561W        W86821   7.597  42.569  13.317
14562W        W86822  38.880  32.574   2.089
14563W        W86823  32.090  34.840   2.409
14564W        W86824  40.384  17.139  13.129
14565W        W86825  44.320   0.200  14.743
14566W        W86826  17.199  38.642  13.548
14567W        W86827  27.967  15.020   2.511
14568W        W86828  39.435  33.307  14.436
14569W        W86829  14.194  23.824   4.500
14570W        W86830  24.240  43.755  11.854
14571W        W86831  29.855  26.933  12.051
14572W        W86832  37.652  30.947  13.387
14573W        W86833   3.345   8.326   4.907
14574W        W86834  33.470  32.109   2.729
14575W        W86835  42.859  42.121  12.058
14576W        W86836   5.574  39.376  13.566
14577W        W86837  28.652  11.430   1.402
14578W        W86838  33.815   3.394  10.711
14579W        W86839  43.554   8.153  10.390
14580W        W86840   3.976  31.986  12.128
14581W        W86841   7.222  32.766   0.956
14582W        W86842  19.561  10.165  12.085
14583W        W86843  25.548  15.306  12.928
14584W        W86844  16.225   8.860  14.725
14585W        W86845  15.162  41.978  14.433
14586W        W86846   3.205   3.022  14.952
14587W        W86847  23.154  12.052  12.352
14588W        W86848  41.972  40.106  11.214
14589W        W86849  38.415  44.490   1.511
14590W        W86850  28.373   2.868  12.731
14591W        W86851  29.270  18.758  10.562
14592W        W86852  23.792  15.535  14.501
14593W        W86853   6.533  43.350  12.929
14594W        W86854  22.255  44.258   4.136
14595W        W86855  39.421  34.231   0.327
14596W        W86856  12.279  18.729  12.446
14597W        W86857  28.000  41.806  13.417
14598W        W86858  22.075   3.153   1.432
14599W        W86859  27.581  18.560  12.142
14600W        W86860  36.457  33.944  12.855
14601W        W86861  25.347  32.498   0.967
14602W        W86862  41.506  31.145   4.674
14603W        W86863  30.466  39.835  11.090
14604W        W86864  42.390  36.199  14.712
14605W        W86865  36.027  30.657  10.615
14606W        W86866   4.063  33.507   0.115
14607W        W86867   8.616  36.596   4.424
14608W        W86868   6.600  38.869   3.638
14609W        W86869  19.178  24.231   3.116
14610W        W86870  42.539  25.170  10.525
14611W        W86871  10.309  16.808   0.401
14612W        W86872  21.616  15.212  13.757
14613W        W86873   4.221  38.932   1.393
14614W        W86874  10.322  23.422   4.350
14615W        W86875  36.503  11.453  11.909
14616W        W86876   9.571  31.004   0.329
14617W        W86877  39.326  43.891   0.474
14618W        W86878  11.221  10.122   2.336
14619W        W86879   3.622   8.958   1.838
14620W        W86880  44.169  27.476  13.943
14621W        W86881  28.530  11.308   3.627
14622W        W86882  18.669  24.514   1.439
14623W        W86883  34.297  41.807  12.815
14624W        W86884  28.138   6.865   1.864
14625W        W86885  40.377  17.143  12.268
14626W        W86886   1.472  14.582  12.071
14627W        W86887  39.296   6.265  14.330
14628W        W86888  11.596   2.256  13.930
14629W        W86889   1.437  22.802   2.225
14630W        W86890  27.857  42.830  11.004
14631W        W86891  33.636  42.554   1.809
14632W        W86892  11.425   6.862   0.347
14633W        W86893  32.995  38.012  10.885
14634W        W86894  14.166  12.926   3.687
14635W        W86895   4.740   3.508   0.140
14636W        W86896  22.257   5.201  13.271
14637W        W86897  17.017  18.685   1.798
14638W        W86898  12.540  31.130   4.152
14639W        W86899   1.791  38.471   4.485
14640W        W86900  14.544   6.895  13.579
14641W        W86901  17.820  31.486  14.310
14642W        W86902  35.544  39.755   1.909
14643W        W86903  21.176  24.525   4.197
14644W        W86904   0.726  40.331   2.178
14645W        W86905   2.584  43.468  13.230
14646W        W86906  43.189   4.231  13.781
14647W        W86907  34.852  35.101   2.783
14648W        W86908  21.324  32.948  10.851
14649W        W86909  24.368   7.455   4.067
14650W        W86910  12.247   8.201  11.541
14651W        W86911  35.494  12.923  11.648
14652W        W86912  36.818  19.704   4.616
14653W        W86913  27.158  38.784  13.451
14654W        W86914  40.793  25.856  10.856
14655W        W86915  20.541  15.887  12.298
14656W        W86916  23.004  13.286  12.977
14657W        W86917  17.897  30.476   5.187
14658W        W86918  37.569   9.456   0.943
14659W        W86919   9.680  18.149   3.719
14660W        W86920  27.943  29.465  14.487
14661W        W86921  33.053  13.324   0.871
14662W        W86922  21.006  12.341  14.422
14663W        W86923  41.646  25.644   2.174
14664W        W86924  14.032   1.436   0.794
14665W        W86925  31.236  16.624  11.637
14666W        W86926  37.817  41.023  11.599
14667W        W86927  21.148  20.982  13.522
14668W        W86928  27.313   1.002   3.225
14669W        W86929  17.024  22.903  12.934
14670W        W86930  14.108  14.172  11.491
14671W        W86931  35.300  40.464   1.186
14672W        W86932  18.586   9.971   1.110
14673W        W86933  32.861  15.412  14.875
14674W        W86934  22.247  31.967  12.790
14675W        W86935   7.628  43.446  14.454
14676W        W86936  12.745  15.889  10.189
14677W        W86937  39.203  14.044   2.351
14678W        W86938   6.695  14.840   3.130
14679W        W86939   2.882  22.747  12.525
14680W        W86940  13.765  35.054  12.772
14681W        W86941   1.367  14.852   4.696
14682W        W86942  15.245  13.790   1.399
14683W        W86943  43.681  27.558   1.258
14684W        W86944  21.123  15.792  14.587
14685W        W86945   6.680  29.496   4.662
14686W        W86946  27.730  10.250  12.481
14687W        W86947  36.541  43.367  10.528
14688W        W86948  21.687  34.411   4.066
14689W        W86949   4.519  36.852  14.057
14690W        W86950  23.040  34.077   4.964
14691W        W86951  25.760  21.185  14.497
14692W        W86952   6.560  32.128  12.851
14693W        W86953  16.372  14.672  14.907
14694W        W86954   4.193  36.021  12.839
14695W        W86955  12.167  39.954   0.202
14696W        W86956  12.811  24.938  11.934
14697W        W86957  11.208  21.516  10.851
14698W        W86958  13.662  15.781  11.249
14699W        W86959   2.130  42.672  14.615
14700W        W86960  17.585  32.309  13.959
14701W        W86961  18.795  41.370  14.554
14702W        W86962   8.520   4.326   4.049
14703W        W86963  33.341  23.433   3.634
14704W        W86964  32.858  18.053  11.157
14705W        W86965   0.888   5.654  12.631
14706W        W86966  13.438  43.743   0.166
14707W        W86967  33.343  44.989  11.149
14708W        W86968  13.534  27.552   3.779
14709W        W86969  35.941  42.337  11.698
14710W        W86970   2.380  22.443   1.953
14711W        W86971  17.370  35.676  10.290
14712W        W86972  19.367  41.362   4.288
14713W        W86973  17.726  44.813  10.752
14714W        W86974   6.399  28.959   5.041
14715W        W86975   7.027  42.265   2.840
14716W        W86976  27.868   3.838   3.395
14717W        W86977  26.094   4.444  11.545
14718W        W86978   1.312   8.569   5.001
14719W        W86979  21.513  44.862   0.961
14720W        W86980  14.731  42.056   2.296
14721W        W86981  27.953   2.987  12.409
14722W        W86982  37.871  21.229  13.349
14723W        W86983   7.845  18.195   0.971
14724W        W86984   4.349   8.344  13.051
14725W        W86985  40.568  43.477   1.198
14726W        W86986  27.395  34.610  11.978
14727W        W86987   0.380  42.180   3.186
14728W        W86988  16.067  36.434  13.520
14729W        W86989  31.018  33.809  13.796
14730W        W86990  32.293  38.762   0.857
14731W        W86991  43.003   7.000  11.470
14732W        W86992  13.683  20.632  14.453
14733W        W86993  10.291  30.138   4.773
14734W        W86994  11.127  10.311   3.180
14735W        W86995  22.009  27.032   4.667
14736W        W86996  39.413   4.721  14.886
14737W        W86997   7.513   2.264  11.985
14738W        W86998  10.512  16.267   0.924
14739W        W86999  35.638  43.459   0.023
14740W        W87000   7.915   8.476   4.102
14741W        W87001   1.316  12.423  12.646
14742W        W87002  10.693  17.186   0.235
14743W        W87003  29.853   3.274  10.671
14744W        W87004  13.150  13.291   4.418
14745W        W87005  44.201  12.202  10.818
14746W        W87006  37.095  34.175   0.794
14747W        W87007   8.023   9.798   0.496
14748W        W87008   3.824  35.868   5.191
14749W        W87009  18.451  22.820   5.213
14750W        W87010  17.977  30.674  14.860
14751W        W87011  34.431  29.667  13.883
14752W        W87012  23.956   5.300  14.838
14753W        W87013  38.578  25.244  12.998
14754W        W87014  21.357  28.957   0.358
14755W        W87015   9.640  38.250  14.503
14756W        W87016  12.633  27.692   3.934
14757W        W87017   2.738   0.017  11.445
14758W        W87018   0.535  38.544   4.095
14759W        W87019  37.827   4.141   0.442
14760W        W87020   9.426  35.631   2.744
14761W        W87021  18.556  43.981  10.926
14762W        W87022  13.068   7.873   0.750
14763W        W87023  33.189  18.159  14.378
14764W        W87024  44.077  34.361  13.055
14765W        W87025  23.399  30.103  11.006
14766W        W87026  15.156   4.935  13.295
14767W        W87027  21.801  10.802  11.587
14768W        W87028  23.636  36.077   3.259
14769W        W87029  11.565  24.277  14.514
14770W        W87030  37.877  23.569   2.880
14771W        W87031   8.716  16.629   3.721
14772W        W87032  29.937   3.895  14.014
14773W        W87033  16.554  31.816   0.289
14774W        W87034  42.575  10.810   4.396
14775W        W87035  17.966  22.709   4.998
14776W        W87036  38.018  42.966  12.421
14777W        W87037  42.858  15.326   2.916
14778W        W87038   7.145  41.381  12.357
14779W        W87039  34.448  16.646  12.963
14780W        W87040  25.980  11.104  12.413
14781W        W87041  34.884   3.183  12.875
14782W        W87042  32.833  40.317  12.939
14783W        W87043  20.585   9.311   3.693
14784W        W87044  44.854  14.938  13.617
14785W        W87045   7.738  41.870   4.661
14786W        W87046  39.854  22.438   1.113
14787W        W87047  20.506  23.763  13.454
14788W        W87048  12.248   8.691  14.845
14789W        W87049  12.708  37.500   1.623
14790W        W87050  30.040  27.908   3.651
14791W        W87051  25.784  42.416  12.499
14792W        W87052  16.306  37.424   4.841
14793W        W87053  17.164  28.599   0.446
14794W        W87054  22.607  25.397  14.511
14795W        W87055  37.086  29.487  10.728
14796W        W87056  32.619  37.885   0.289
14797W        W87057  16.057  29.313  10.681
14798W        W87058   4.408  29.182   0.412
14799W        W87059  31.380  32.219  12.952
14800W        W87060  44.821  30.331   5.087
14801W        W87061  25.900  24.674  13.395
14802W        W87062  21.114  24.969  12.636
14803W        W87063  33.324  31.885   4.474
14804W        W87064  27.430  38.473   3.215
14805W        W87065  18.124   1.241  13.359
14806W        W87066  39.935  15.813  11.591
14807W        W87067  18.963  37.000  10.653
14808W        W87068  38.796   4.351   3.853
14809W        W87069  24.496   8.636   3.320
14810W        W87070  27.108  43.017  13.065
14811W        W87071  39.765   7.169   1.430
14812W        W87072  31.296  37.095  11.187
14813W        W87073  10.603  17.469  12.034
14814W        W87074  13.540  28.485  13.580
14815W        W87075  40.561  31.712  11.116
14816W        W87076  24.682   0.406  10.679
14817W        W87077   5.098  26.067  10.256
14818W        W87078  19.341   0.244   3.237
14819W        W87079  11.962  29.573   3.699
14820W        W87080  29.754  29.881   5.518
14821W        W87081  24.156  41.255   0.113
14822W        W87082   3.288  23.175   0.357
14823W        W87083   0.719  20.325   2.361
14824W        W87084  22.331  29.929  14.041
14825W        W87085  43.031  34.968  10.931
14826W        W87086   8.408  33.416   4.027
14827W        W87087  20.292   5.988   1.466
14828W        W87088  11.164  19.691   2.700
14829W        W87089  34.604  10.772   2.801
14830W        W87090   1.062  26.131  13.239
14831W        W87091  19.726   7.986   0.651
14832W        W87092  33.699  25.122  11.922
14833W        W87093  33.109  27.114  12.162
14834W        W87094  42.950  14.328   0.750
14835W        W87095  14.528  28.960   1.944
14836W        W87096  20.292  32.619   2.732
14837W        W87097  33.231  16.571   4.173
14838W        W87098   1.683  33.758  11.631
14839W        W87099  27.656   4.436  12.958
14840W        W87100  31.404  10.057  14.367
14841W        W87101  12.282  28.581  13.384
14842W        W87102  36.975  19.278  10.108
14843W        W87103  34.898   6.564  10.717
14844W        W87104  41.917  17.797   3.738
14845W        W87105   9.801  21.305   1.689
14846W        W87106  42.975  12.396   1.505
14847W        W87107  37.440  25.799   3.212
14848W        W87108   5.199  17.704   0.358
14849W        W87109  33.774   8.396  12.466
14850W        W87110  23.034  19.028  10.207
14851W        W87111  23.685  19.059  14.395
14852W        W87112  41.403  15.507   3.417
14853W        W87113  23.019  33.537  11.953
14854W        W87114  44.287   0.293   2.318
14855W        W87115  27.053   7.094  11.709
14856W        W87116  30.949  27.070  14.370
14857W        W87117  32.155  34.998  12.034
14858W        W87118  41.060  20.041  14.540
14859W        W87119   5.408  19.173  14.305
14860W        W87120  37.458  33.571  10.925
14861W        W87121  29.242  20.808  12.028
14862W        W87122  40.314  27.983   3.692
14863W        W87123  40.904  40.329   0.822
14864W        W87124  26.571  25.123   1.777
14865W        W87125  20.540  35.571   4.711
14866W        W87126  24.492  24.521  12.541
14867W        W87127  21.649  38.006   4.179
14868W        W87128  27.943  33.892   2.403
14869W        W87129  23.898  37.063   2.315
14870W        W87130  14.187  23.260  12.998
14871W        W87131  34.019  35.638  12.422
14872W        W87132  37.835  28.021   3.100
14873W        W87133   9.730  43.750   1.259
14874W        W87134  34.173  27.406   2.720
14875W        W87135  25.563   1.926   4.103
14876W        W87136  28.885  18.570   0.878
14877W        W87137  38.456   9.806  13.437
14878W        W87138   7.562  27.261   2.375
14879W        W87139  11.403  23.217  13.662
14880W        W87140   5.971  14.267   3.091
14881W        W87141   2.184  17.278   4.048
14882W        W87142   7.104  29.349  11.177
14883W        W87143  12.094  28.600   5.008
14884W        W87144  17.993  27.974  14.045
14885W        W87145  24.578  13.546   4.177
14886W        W87146  10.181  31.077  11.608
14887W        W87147  40.858   8.476   2.853
14888W        W87148  36.698  39.194   1.874
14889W        W87149   4.233   2.654   2.398
14890W        W87150  44.436  17.876   3.173
14891W        W87151  17.477   8.634   2.770
14892W        W87152  28.767  13.419  14.814
14893W        W87153  15.106  37.830   2.803
14894W        W87154  23.645  30.399  12.073
14895W        W87155  16.843  32.774   3.370
14896W        W87156  30.960  24.674  13.997
14897W        W87157   7.134  26.525   1.846
14898W        W87158  21.041  22.598  11.038
14899W        W87159  17.238  16.097   5.152
14900W        W87160  44.085  17.613  12.388
14901W        W87161  11.765   1.206  13.003
14902W        W87162  10.285  11.769   3.243
14903W        W87163   4.995  30.905   3.625
14904W        W87164   2.378  38.539   0.285
14905W        W87165   9.319  23.873  11.954
14906W        W87166  14.635  18.718  11.659
14907W        W87167   4.944   2.663  12.634
14908W        W87168   4.394   1.266   0.453
14909W        W87169  39.273  22.289  12.479
14910W        W87170  31.860  12.869   2.122
14911W        W87171  15.519  27.849  13.142
14912W        W87172  25.166  24.072  13.574
14913W        W87173  36.043  11.154   4.526
14914W        W87174  18.020  26.705  13.071
14915W        W87175  37.990  15.508  12.093
14916W        W87176  21.051   3.791  10.456
14917W        W87177  27.492   6.381  11.754
14918W        W87178  36.602  42.536  14.497
14919W        W87179  21.700  14.390   0.328
14920W        W87180  18.632  28.739  14.374
14921W        W87181   2.411  10.714  10.681
14922W        W87182  20.837  27.112   3.666
14923W        W87183  24.513  28.034   4.595
14924W        W87184  22.747  20.734  10.300
14925W        W87185  39.713  40.328   3.355
14926W        W87186  23.988  35.752   0.362
14927W        W87187  15.776   6.184  12.408
14928W        W87188  11.755  36.063  14.914
14929W        W87189  21.813  20.965   0.774
14930W        W87190  11.941  10.298  11.213
14931W        W87191  20.280  18.855  13.419
14932W        W87192  34.328  34.304   3.573
14933W        W87193   1.281  29.962   0.781
14934W        W87194  35.827   7.772  11.590
14935W        W87195   3.263  40.961   4.067
14936W        W87196  28.199  41.465   2.320
14937W        W87197  41.747  12.550  12.520
14938W        W87198  14.271   2.272  12.219
14939W        W87199  35.727  18.265  12.998
14940W        W87200   3.024  22.246   2.740
14941W        W87201  40.830  18.001   3.945
14942W        W87202  14.055  30.707   2.655
14943W        W87203  35.394  37.411   0.200
14944W        W87204  32.009   5.116  14.439
14945W        W87205  33.512  22.199   3.226
14946W        W87206  34.035  42.205  10.714
14947W        W87207  27.561   1.854  14.070
14948W        W87208  35.407   7.274  12.403
14949W        W87209  13.746  36.533   0.343
14950W        W87210  13.213   5.928   0.278
14951W        W87211  29.663  27.937   3.202
14952W        W87212  27.168   1.782  14.421
14953W        W87213  39.410  10.701  14.694
14954W        W87214  29.451  24.981  10.586
14955W        W87215  28.887  17.786   2.307
14956W        W87216  13.226   1.443  11.603
14957W        W87217   1.922  39.146   1.842
14958W        W87218  15.130  17.404   5.060
14959W        W87219  28.881   4.098   1.622
14960W        W87220   6.897  43.169  13.963
14961W        W87221  32.519  29.462   2.795
14962W        W87222  44.751  28.670   3.130
14963W        W87223  15.653  24.982   3.401
14964W        W87224  25.428  27.553  14.018
14965W        W87225  40.086  22.607  11.875
14966W        W87226  28.168  41.221   4.593
14967W        W87227  10.786   5.894   4.358
14968W        W87228  15.349  44.649  12.879
14969W        W87229  32.089  36.884  14.952
14970W        W87230  21.233  17.714   1.930
14971W        W87231  29.856  26.931   3.656
14972W        W87232  15.867  24.504   3.613
14973W        W87233   7.848  21.821   0.031
14974W        W87234  33.571  14.390   1.343
14975W        W87235  14.295  25.689  12.736
14976W        W87236  35.140  16.114  14.784
14977W        W87237  34.047  28.427  10.760
14978W        W87238  15.673  14.735   4.596
14979W        W87239  14.625  31.793  12.617
14980W        W87240   2.189  31.931  11.441
14981W        W87241  18.630  37.071   3.622
14982W        W87242  10.249   4.490  13.907
14983W        W87243  27.094   3.464  14.893
14984W        W87244  23.703   6.240   2.051
14985W        W87245  32.556  10.641   4.755
14986W        W87246  24.784  27.974   5.069
14987W        W87247  30.424  26.114  13.445
14988W        W87248  18.557   6.352   2.608
14989W        W87249  34.722   3.182  10.256
14990W        W87250   3.161  30.461   1.666
14991W        W87251   4.305  35.863   2.911
14992W        W87252  36.577   6.823  10.702
14993W        W87253  34.810  44.880  13.736
14994W        W87254  18.089   1.768   3.241
14995W        W87255  29.115  22.818   2.505
14996W        W87256  43.910  42.907  13.419
14997W        W87257  22.909  42.356  12.568
14998W        W87258  30.115   3.573   2.427
14999W        W87259   7.778   6.313   1.792
15000W        W87260  37.285  34.000  13.885
15001W        W87261  10.891  35.305  13.438
15002W        W87262   0.479  13.789   3.934
15003W        W87263  36.530  11.771  11.510
15004W        W87264  16.965   9.348  12.175
15005W        W87265   6.115  24.711  14.036
15006W        W87266  35.865   9.296  12.418
15007W        W87267  41.623  23.167  12.628
15008W        W87268  30.442  38.303   3.547
15009W        W87269  42.739  21.484   0.902
15010W        W87270   8.350  15.178  13.408
15011W        W87271  28.881  30.236  10.241
15012W        W87272  14.344  25.997   4.830
15013W        W87273  12.802   2.414  13.844
15014W        W87274  22.154   0.955  14.003
15015W        W87275  32.343  19.541   4.394
15016W        W87276  38.105  25.024  12.739
15017W        W87277  27.405  30.985  12.933
15018W        W87278  16.566  32.073  12.525
15019W        W87279  32.966  16.312   4.533
15020W        W87280  38.875  38.356  10.723
15021W        W87281  15.207  23.545   3.763
15022W        W87282  14.208   0.631  12.926
15023W        W87283  24.243   0.851  14.019
15024W        W87284   5.396  27.922   1.309
15025W        W87285  33.139  17.346   0.997
15026W        W87286  14.017  32.650  12.854
15027W        W87287  16.575  25.137  13.028
15028W        W87288  19.075  25.469   1.746
15029W        W87289   1.718  44.276  10.609
15030W        W87290   7.836   8.273   0.892
15031W        W87291  38.801   8.433  11.104
15032W        W87292  39.381  17.575   1.742
15033W        W87293   1.309  13.865   0.997
15034W        W87294  24.688  27.407  14.382
15035W        W87295  10.178  19.056   1.283
15036W        W87296  40.512  21.019  10.670
15037W        W87297  17.061  12.221   0.459
15038W        W87298  18.499  11.834  10.137
15039W        W87299  34.325   6.497  13.104
15040W        W87300   4.312  20.258   2.725
15041W        W87301  44.301   1.958  14.387
15042W        W87302  12.180   0.209   1.861
15043W        W87303  36.409  43.264   4.966
15044W        W87304   6.946  37.612  14.471
15045W        W87305  32.188   6.713   1.185
15046W        W87306  24.549  28.093   2.344
15047W        W87307   9.873  11.687  14.848
15048W        W87308  40.376   5.609  10.758
15049W        W87309  29.746   1.228   4.237
15050W        W87310  10.927   1.300  14.518
15051W        W87311  43.574  16.686  10.717
15052W        W87312  10.891   3.728  12.437
15053W        W87313  26.998  29.157   1.418
15054W        W87314  37.822  44.534   4.767
15055W        W87315   1.412  14.592  13.113
15056W        W87316  23.610  40.909   4.600
15057W        W87317  18.824   5.891  12.209
15058W        W87318  18.743  22.239   1.457
15059W        W87319  21.663  22.596  10.330
15060W        W87320  44.747  29.647  13.146
15061W        W87321  17.547  16.649   2.571
15062W        W87322  26.447  11.324  12.479
15063W        W87323   6.797  11.723   2.667
15064W        W87324  27.124  11.642   4.857
15065W        W87325  23.819  23.822   2.811
15066W        W87326  32.334  32.290   0.237
15067W        W87327  31.153  19.939   1.138
15068W        W87328  16.804  12.342  10.512
15069W        W87329  40.313  41.414   0.833
15070W        W87330   5.476  37.390  12.567
15071W        W87331   0.416  35.511  13.768
15072W        W87332  42.446  36.522  12.591
15073W        W87333   1.159  38.792   0.787
15074W        W87334  36.573  33.095  14.284
15075W        W87335  22.679   3.323   2.110
15076W        W87336  22.434  34.939  10.529
15077W        W87337  27.694  12.682  10.445
15078W        W87338  33.943  30.009   1.298
15079W        W87339  15.798   3.968   0.872
15080W        W87340  43.002  31.574   2.661
15081W        W87341  20.771  32.888  12.842
15082W        W87342  26.405  15.843  12.454
15083W        W87343  20.696  27.619  13.780
15084W        W87344  21.056  43.992  13.094
15085W        W87345  23.618  38.191  14.647
15086W        W87346   8.657  26.230   5.010
15087W        W87347  25.025  25.969   2.826
15088W        W87348   4.685   3.941  13.959
15089W        W87349  11.595  15.666  12.031
15090W        W87350  27.610  10.911   0.896
15091W        W87351  34.501  12.625   2.779
15092W        W87352  30.702  14.241  11.943
15093W        W87353  39.335   0.469  10.549
15094W        W87354  29.968  29.924   3.857
15095W        W87355   6.823  12.500  12.956
15096W        W87356  19.513  12.791  12.619
15097W        W87357  24.454   2.254   3.706
15098W        W87358  10.875  36.116  11.768
15099W        W87359  32.861  15.865   1.945
15100W        W87360  18.496   5.102   4.614
15101W        W87361   4.801   0.376   3.917
15102W        W87362  34.787  31.950   1.800
15103W        W87363  37.771  28.097   0.795
15104W        W87364  35.796   4.967   4.130
15105W        W87365   6.138  13.507  11.915
15106W        W87366  13.933  35.366  11.984
15107W        W87367  30.187   9.817   1.956
15108W        W87368  21.564  27.468  13.115
15109W        W87369  40.192   9.769   4.944
15110W        W87370   1.778  22.719   1.747
15111W        W87371  19.798  24.643  13.542
15112W        W87372  11.125  34.873   1.697
15113W        W87373  11.128  24.928  11.102
15114W        W87374  31.140   4.690   0.919
15115W        W87375  28.845  33.109  12.142
15116W        W87376  28.647   4.007   4.751
15117W        W87377  10.279  40.710   3.226
15118W        W87378  44.737  16.310  12.077
15119W        W87379   2.410  24.722  11.322
15120W        W87380  22.485  35.605  10.980
15121W        W87381   2.342  20.629   2.436
15122W        W87382  14.122  21.157   2.764
15123W        W87383  17.136  19.727   4.021
15124W        W87384  26.413  21.015   0.235
15125W        W87385  32.798   5.937  13.644
15126W        W87386  14.597  30.599  14.856
15127W        W87387  36.436  30.894   4.089
15128W        W87388   6.960  35.576  13.049
15129W        W87389  22.716  31.724   2.237
15130W        W87390   3.899  21.674  11.624
15131W        W87391   8.346  14.535  12.819
15132W        W87392  25.748  42.900   2.986
15133W        W87393  39.084  35.635   1.464
15134W        W87394  24.486   7.195  13.093
15135W        W87395  29.678   1.709  12.940
15136W        W87396  17.668  12.677   2.312
15137W        W87397  18.846  18.152   0.231
15138W        W87398  34.774  17.278  12.530
15139W        W87399  27.764  12.928   2.651
15140W        W87400   4.200  36.004  10.716
15141W        W87401   0.964  22.237   1.916
15142W        W87402   0.003   8.132  14.973
15143W        W87403  15.728  12.316  12.950
15144W        W87404   1.829  10.135  13.269
15145W        W87405  30.107  17.889  11.433
15146W        W87406  37.785  20.945   1.213
15147W        W87407  41.876  31.270  11.832
15148W        W87408  21.722   9.362  14.380
15149W        W87409  16.982  10.657   3.756
15150W        W87410  19.180  26.713  12.556
15151W        W87411  22.548  15.513  10.199
15152W        W87412  39.156  10.182   0.627
15153W        W87413  17.689   1.377  12.502
15154W        W87414  41.008   0.919   3.803
15155W        W87415  30.174  25.929  11.592
15156W        W87416   7.201  17.981   4.209
15157W        W87417  31.414  34.923   3.626
15158W        W87418  15.884   0.870  13.348
15159W        W87419  35.873  11.656  14.301
15160W        W87420  12.050  16.278  13.882
15161W        W87421   9.284  28.098   4.861
15162W        W87422   7.845  27.763  12.875
15163W        W87423  18.533  24.643   0.452
15164W        W87424   6.472  34.067  12.396
15165W        W87425   5.016   7.204  14.615
15166W        W87426   8.829  42.257   4.709
15167W        W87427   7.057  18.556   1.022
15168W        W87428  29.312  11.919  11.073
15169W        W87429   7.844  10.303   2.790
15170W        W87430  31.081   4.119   0.956
15171W        W87431  32.460   1.248   3.300
15172W        W87432   9.250  15.674  11.400
15173W        W87433  30.578  27.438   2.172
15174W        W87434   2.232  25.582  13.403
15175W        W87435  25.623  11.398  10.214
15176W        W87436   0.340   3.974  13.471
15177W        W87437   7.326  40.532   2.284
15178W        W87438  35.552  25.735  13.470
15179W        W87439   3.331  22.202  12.879
15180W        W87440  24.035  12.743   3.672
15181W        W87441   9.262   4.845   3.848
15182W        W87442  36.937  26.068   3.282
15183W        W87443  14.633   2.779   3.280
15184W        W87444  14.352  19.718   5.065
15185W        W87445  31.529  26.494  10.487
15186W        W87446  40.530  34.843  14.973
15187W        W87447   0.696  10.704  13.331
15188W        W87448  32.614  27.110  11.937
15189W        W87449  39.933  34.485   2.635
15190W        W87450  42.414   2.959   4.188
15191W        W87451   7.962   7.433   2.193
15192W        W87452  20.499  11.336  12.506
15193W        W87453  33.409  12.065   3.739
15194W        W87454  23.071  27.549  10.304
15195W        W87455  35.538  44.250  10.565
15196W        W87456  33.899  11.965  12.453
15197W        W87457  33.868   5.714  12.604
15198W        W87458  25.756   6.377  11.376
15199W        W87459   3.796  30.933   4.189
15200W        W87460  22.467   9.826   2.699
15201W        W87461  15.515   4.816   2.758
15202W        W87462  28.703   2.769  12.309
15203W        W87463  14.104  18.642  11.909
15204W        W87464   6.808  25.265   0.337
15205W        W87465  23.040  22.177  13.874
15206W        W87466   0.816  37.917  14.826
15207W        W87467  23.858   5.688   1.094
15208W        W87468  15.780   8.163  10.472
15209W        W87469  14.778  34.119   1.769
15210W        W87470   9.755   3.096  12.585
15211W        W87471  29.146  31.440   3.232
15212W        W87472  41.714  20.779  14.001
15213W        W87473  43.034  38.119   2.342
15214W        W87474  43.506  13.303  12.415
15215W        W87475  34.068   8.085  12.123
15216W        W87476  32.934   2.386  14.629
15217W        W87477  39.517   0.420  12.368
15218W        W87478  33.586  10.307  10.703
15219W        W87479   9.225   6.663  14.907
15220W        W87480  34.074   8.649   4.203
15221W        W87481  33.874  31.555  12.819
15222W        W87482  33.646   9.777  13.965
15223W        W87483   3.320  11.999   5.062
15224W        W87484   1.562  17.040   5.211
15225W        W87485  43.655   3.525   0.007
15226W        W87486  29.981  28.507  11.006
15227W        W87487   7.728  12.104  14.733
15228W        W87488   2.206  18.118  10.711
15229W        W87489  41.144   2.515   0.552
15230W        W87490  18.535  18.609   1.451
15231W        W87491  10.154   8.832   9.916
15232W        W87492  39.498  20.979  13.420
15233W        W87493  41.823  25.636  13.986
15234W        W87494  30.531  16.870  13.099
15235W        W87495  42.443   6.460  11.035
15236W        W87496   1.304  27.936   3.245
15237W        W87497  39.136  10.378  10.558
15238W        W87498  16.786  40.074  13.347
15239W        W87499   0.305  21.539  13.067
15240W        W87500  24.962  40.110  12.567
15241W        W87501  28.921  29.877   9.712
15242W        W87502  34.360  31.663  14.909
15243W        W87503  41.272   6.380   4.877
15244W        W87504  43.936  20.971  10.242
15245W        W87505  35.463   4.967  10.978
15246W        W87506  33.401  39.073   0.941
15247W        W87507  22.485  34.441   2.269
15248W        W87508  19.591   3.986   3.084
15249W        W87509  28.275  40.875  14.104
15250W        W87510  41.875  42.928   9.856
15251W        W87511  23.480  10.737  13.873
15252W        W87512  15.629   3.794  11.129
15253W        W87513  40.596  12.646   0.536
15254W        W87514  30.098   9.873  12.908
15255W        W87515  34.311  33.874  11.434
15256W        W87516  35.412  12.595  13.439
15257W        W87517   8.143  10.678  10.729
15258W        W87518  22.689  31.162  11.185
15259W        W87519  28.893   2.337  14.654
15260W        W87520  14.110  21.774  14.213
15261W        W87521  44.329   4.011  13.831
15262W        W87522  39.010   8.410  14.406
15263W        W87523  36.847  42.952   2.345
15264W        W87524  29.473  29.920   2.271
15265W        W87525  20.759  28.749  12.449
15266W        W87526  24.253  17.146   2.340
15267W        W87527  36.036  35.043  14.892
15268W        W87528   9.424  37.884  12.856
15269W        W87529   7.364  13.167  10.637
15270W        W87530  34.605  17.435  13.055
15271W        W87531  33.561  34.503   3.162
15272W        W87532  23.072  40.409   1.282
15273W        W87533  30.821  19.572   4.714
15274W        W87534   0.110  13.124   3.259
15275W        W87535  43.969  27.484   2.645
15276W        W87536  11.724   3.781  12.982
15277W        W87537  13.316   8.837   1.719
15278W        W87538  10.132  31.059  12.578
15279W        W87539  20.056  14.874   4.288
15280W        W87540   6.999  20.103  13.524
15281W        W87541  40.995  33.677  11.414
15282W        W87542   1.389  28.927  12.601
15283W        W87543  31.351   0.134  14.880
15284W        W87544  34.160  42.749   0.737
15285W        W87545  17.133  31.504  13.806
15286W        W87546  32.517   3.425  10.420
15287W        W87547  29.614  32.625  14.283
15288W        W87548  37.290  22.192   3.129
15289W        W87549  10.676  33.592  13.886
15290W        W87550  12.218   5.404  11.921
15291W        W87551  19.094  36.664  12.251
15292W        W87552  42.826  27.181   1.274
15293W        W87553  33.597  40.876   3.813
15294W        W87554   1.117   7.666  14.294
15295W        W87555   4.675   3.459   2.608
15296W        W87556  32.700  22.498   2.168
15297W        W87557  29.087  27.964   4.862
15298W        W87558  12.151  13.746  13.396
15299W        W87559   3.653   4.784   0.338
15300W        W87560  19.633  10.186   1.142
15301W        W87561  10.621  37.545   3.343
15302W        W87562   2.219   4.492   2.246
15303W        W87563  25.396  38.063   0.002
15304W        W87564  44.569  31.309  10.238
15305W        W87565  31.120  31.969   4.087
15306W        W87566  37.315  12.047  11.123
15307W        W87567   6.483   3.099   1.249
15308W        W87568  44.718  34.090   1.272
15309W        W87569   1.670  44.820   2.083
15310W        W87570   1.862  22.017  10.558
15311W        W87571  20.515   7.120  10.292
15312W        W87572  34.166   9.260   0.415
15313W        W87573   7.115  23.770  12.057
15314W        W87574  29.208  13.878  12.480
15315W        W87575  42.947  27.398  10.972
15316W        W87576  11.104  35.543   4.239
15317W        W87577  34.903  39.417  13.377
15318W        W87578  24.534  43.262  11.106
15319W        W87579  28.816   8.426   2.992
15320W        W87580  16.323  32.991   0.732
15321W        W87581  36.246   8.434  11.137
15322W        W87582   3.776   9.632  11.993
15323W        W87583  43.653   7.826   1.125
15324W        W87584   2.678  17.134  14.598
15325W        W87585  32.624  38.073  12.060
15326W        W87586  18.230   3.256   3.155
15327W        W87587  44.892  43.801  13.019
15328W        W87588  35.789  42.880   4.626
15329W        W87589  18.982  29.025  14.908
15330W        W87590  21.552  17.294  11.662
15331W        W87591  15.214  31.642  10.989
15332W        W87592   2.228  43.732  14.345
15333W        W87593  38.496  11.838  13.767
15334W        W87594  44.258  17.386   0.907
15335W        W87595  12.174  35.681   4.872
15336W        W87596  35.390  10.395   2.272
15337W        W87597   5.719  10.080  12.861
15338W        W87598  28.888  33.808   2.122
15339W        W87599   7.992  44.898  11.621
15340W        W87600   3.450  40.506  11.613
15341W        W87601  43.697   4.318   2.593
15342W        W87602  12.022  28.376   1.872
15343W        W87603  44.844   6.648  14.861
15344W        W87604  21.165  28.183   2.842
15345W        W87605  28.478  44.099  10.267
15346W        W87606  20.660  22.399  14.366
15347W        W87607  40.109  23.752  14.109
15348W        W87608   0.019  20.259  13.051
15349W        W87609   9.591   6.852  10.267
15350W        W87610  13.691  23.987   3.021
15351W        W87611  23.742   7.648   1.511
15352W        W87612  18.066  34.029  14.125
15353W        W87613  39.735  28.992   2.346
15354W        W87614  18.521  39.022  12.566
15355W        W87615   0.538  24.665  12.622
15356W        W87616  41.935  38.483   2.714
15357W        W87617  36.226  37.288   9.635
15358W        W87618  20.959  43.800  12.111
15359W        W87619  29.974  39.058  12.134
15360W        W87620  19.229   6.317   2.006
15361W        W87621  41.096  22.135   0.832
15362W        W87622  23.968  14.027  14.853
15363W        W87623  31.048  42.765  12.068
15364W        W87624  44.336  22.634   1.386
15365W        W87625  37.846  19.045  14.058
15366W        W87626  42.792  18.527   0.946
15367W        W87627  42.117  24.600  11.287
15368W        W87628  17.058  30.580  12.466
15369W        W87629  22.555  41.548  14.873
15370W        W87630  13.233  23.748   1.696
15371W        W87631   7.740  41.888   3.659
15372W        W87632  17.651   1.707   3.543
15373W        W87633  22.536  19.694   4.549
15374W        W87634  18.716  32.151   4.857
15375W        W87635  18.315  13.218  14.290
15376W        W87636  19.189  28.666   0.816
15377W        W87637  19.262   6.753   1.724
15378W        W87638  36.390  23.170   0.666
15379W        W87639  28.788  16.196   2.207
15380W        W87640  36.415  22.989   4.600
15381W        W87641  23.202  17.888   2.627
15382W        W87642  10.268  13.280   2.089
15383W        W87643   0.440  15.558  13.038
15384W        W87644  37.144  35.597  14.610
15385W        W87645  29.054  13.837  14.900
15386W        W87646  39.402  26.689  11.902
15387W        W87647  10.396  17.960  14.853
15388W        W87648  28.631  30.906   3.590
15389W        W87649   7.921  38.616   2.841
15390W        W87650  39.374   1.230   4.285
15391W        W87651   6.943  11.122   0.549
15392W        W87652  25.523  11.845  14.209
15393W        W87653  13.397  28.516  11.597
15394W        W87654   1.327   4.264   4.493
15395W        W87655  20.783   7.073   2.952
15396W        W87656  43.939  14.668  13.360
15397W        W87657   3.137  23.491   2.301
15398W        W87658  32.640  41.630   4.533
15399W        W87659  15.691   9.161   1.679
15400W        W87660  14.046  16.737  12.653
15401W        W87661  31.050  27.558   4.640
15402W        W87662  41.551  35.366   2.956
15403W        W87663  43.148  32.088  13.862
15404W        W87664  15.245  22.339   1.003
15405W        W87665   9.917  27.194   1.315
15406W        W87666   2.483  40.875  11.170
15407W        W87667  17.176  20.051  13.382
15408W        W87668  24.139  27.383   1.277
15409W        W87669  23.972  37.324  10.270
15410W        W87670  44.170  37.069   2.385
15411W        W87671  29.022  38.067   4.501
15412W        W87672  13.437  32.960  11.473
15413W        W87673  26.458   1.548   3.250
15414W        W87674  42.381  32.802  10.757
15415W        W87675  14.862  36.081  13.790
15416W        W87676  10.819  25.711   2.236
15417W        W87677  31.507  21.703   2.778
15418W        W87678  15.897  44.296  10.617
15419W        W87679  25.022   5.349   4.323
15420W        W87680  18.691  19.616   3.525
15421W        W87681  11.141  34.838  10.885
15422W        W87682  36.620  33.119   0.263
15423W        W87683  12.925  33.698  13.022
15424W        W87684  12.940  24.931  13.510
15425W        W87685  16.117  17.790  14.172
15426W        W87686   1.285   1.434   2.287
15427W        W87687   7.197  35.563   2.267
15428W        W87688   1.467  12.770  13.494
15429W        W87689  30.913  33.780  10.323
15430W        W87690  10.698  13.130  11.147
15431W        W87691   1.939  20.571   0.838
15432W        W87692  13.749  29.683   2.393
15433W        W87693  10.065   3.868   0.853
15434W        W87694  39.569  14.257  13.777
15435W        W87695  34.197  41.471   3.427
15436W        W87696  31.632   5.730   3.201
15437W        W87697  28.065  36.258  13.818
15438W        W87698  29.694  29.531  14.344
15439W        W87699  22.054  35.368  11.168
15440W        W87700  26.110  17.219   1.709
15441W        W87701   2.738  10.284   0.528
15442W        W87702  22.526  38.486  14.552
15443W        W87703   2.631  23.559   2.298
15444W        W87704   8.339   8.094  10.674
15445W        W87705   2.415  18.665  14.943
15446W        W87706  22.645  20.809   3.693
15447W        W87707  10.658  32.500  13.883
15448W        W87708   0.363  11.086  11.597
15449W        W87709  24.553  36.780  14.902
15450W        W87710  21.253  21.681   0.372
15451W        W87711   0.392  19.947   2.230
15452W        W87712  17.983  24.832  10.767
15453W        W87713  42.842  35.547   4.198
15454W        W87714  30.786  32.213  13.905
15455W        W87715   4.311  42.094   0.022
15456W        W87716   4.355  30.699  11.004
15457W        W87717  23.744   9.338   2.176
15458W        W87718  27.202  31.703  12.007
15459W        W87719  33.548  25.188  10.028
15460W        W87720   8.753  44.725  10.730
15461W        W87721  26.972   4.341  11.670
15462W        W87722  25.723  25.131  14.854
15463W        W87723   4.708  37.748  14.544
15464W        W87724  32.089  43.648   0.165
15465W        W87725  34.302  18.110   1.117
15466W        W87726  12.878  33.747  11.336
15467W        W87727  36.667  35.629  13.784
15468W        W87728  35.064  18.556   1.703
15469W        W87729   2.362  12.439   2.754
15470W        W87730   3.331   8.309  12.084
15471W        W87731  10.381   4.673   4.132
15472W        W87732  28.871  32.901  13.165
15473W        W87733  33.259  33.996   4.603
15474W        W87734  34.558   5.516  13.981
15475W        W87735  16.734  17.259   1.379
15476W        W87736  44.371  10.052  11.262
15477W        W87737  20.023  33.806   1.989
15478W        W87738  31.681  27.081  11.114
15479W        W87739  32.143  23.152   1.766
15480W        W87740   3.396  15.741  14.416
15481W        W87741  28.576   2.272   3.772
15482W        W87742  31.823  36.237   2.360
15483W        W87743  22.527   9.916   3.778
15484W        W87744   9.695  18.353   2.713
15485W        W87745  33.023   4.885  13.610
15486W        W87746  19.908  33.678   0.268
15487W        W87747  35.854   3.704  13.845
15488W        W87748  30.512  37.325  14.375
15489W        W87749  39.591  20.641   4.796
15490W        W87750  26.375   1.694   0.431
15491W        W87751  17.466  37.393   0.179
15492W        W87752  37.571  10.758  14.609
15493W        W87753  43.900  36.148   4.646
15494W        W87754  31.009  22.717   1.476
15495W        W87755   3.456  34.814  12.491
15496W        W87756  42.015  32.641  13.461
15497W        W87757  22.298  34.674   1.827
15498W        W87758  15.297  33.637   1.197
15499W        W87759   9.896  32.096   3.868
15500W        W87760  17.239   3.645   2.499
15501W        W87761  10.265  34.595  13.863
15502W        W87762   2.417   7.363   0.783
15503W        W87763  27.462  24.140   3.229
15504W        W87764  10.717  44.275   3.373
15505W        W87765  43.928  35.520   4.267
15506W        W87766   8.757  27.052   4.597
15507W        W87767  29.026   6.902  13.739
15508W        W87768  19.685  31.856  11.973
15509W        W87769  18.326  33.650   3.200
15510W        W87770  38.841   5.992   3.434
15511W        W87771  36.886   9.640  13.876
15512W        W87772  19.079  41.859   3.830
15513W        W87773   7.828   7.217  13.908
15514W        W87774  15.146  15.205  10.654
15515W        W87775  42.229  20.526  13.831
15516W        W87776  35.527  15.272  10.863
15517W        W87777   2.893  15.740   0.526
15518W        W87778  31.454  24.505  13.904
15519W        W87779  43.450  34.382  13.450
15520W        W87780  39.838  44.928  11.951
15521W        W87781  39.545  15.048  10.742
15522W        W87782  14.297   9.343  11.687
15523W        W87783  27.130  29.556   4.751
15524W        W87784  14.182  14.344   3.341
15525W        W87785  42.794  16.166  12.342
15526W        W87786  29.843  40.057   0.714
15527W        W87787  24.436  42.400  12.774
15528W        W87788  12.096  41.812   4.342
15529W        W87789   6.803  29.025  12.836
15530W        W87790  40.685  14.657   3.195
15531W        W87791  23.618   8.116  14.479
15532W        W87792  28.544  14.859   1.643
15533W        W87793  11.090  36.553   4.157
15534W        W87794  29.414  30.264   1.014
15535W        W87795   6.936  18.296  11.518
15536W        W87796  22.218  33.146  14.788
15537W        W87797  39.361  37.570  11.537
15538W        W87798  19.362  28.329   2.262
15539W        W87799   6.288  20.451  14.675
15540W        W87800  33.371   2.372   1.013
15541W        W87801  18.360   9.142  11.179
15542W        W87802  31.576  29.439  10.611
15543W        W87803   2.354  22.379   3.951
15544W        W87804  27.587  18.553  10.657
15545W        W87805  36.298   4.800   4.824
15546W        W87806  20.013   6.941  14.362
15547W        W87807   7.215  18.375   3.301
15548W        W87808   4.834  11.593  13.134
15549W        W87809  24.524  22.983   3.708
15550W        W87810  23.528   5.036  11.508
15551W        W87811  14.393   0.215   2.134
15552W        W87812   4.724  15.796  10.452
15553W        W87813  42.893   2.927  13.885
15554W        W87814  32.227  43.143   4.346
15555W        W87815  28.173  18.969   2.632
15556W        W87816  33.591  18.034   3.339
15557W        W87817  24.083  40.685  13.154
15558W        W87818   9.420  42.529  13.556
15559W        W87819  25.635  28.304  10.384
15560W        W87820  10.879  35.495  11.993
15561W        W87821  18.991  34.889  12.085
15562W        W87822  29.049  12.194  12.428
15563W        W87823  10.650   2.751   2.855
15564W        W87824  43.430  41.085   1.080
15565W        W87825  33.810  17.834  12.848
15566W        W87826  10.671   3.657   2.788
15567W        W87827  35.518  12.259   0.468
15568W        W87828  32.023  35.963   4.232
15569W        W87829  38.531   7.853   4.877
15570W        W87830  18.598  16.062  13.490
15571W        W87831  38.523  15.724   0.861
15572W        W87832   1.776  43.139   4.512
15573W        W87833  43.946  29.672   2.120
15574W        W87834   7.173  26.971   2.192
15575W        W87835  28.170  27.831   5.127
15576W        W87836   0.521  22.256  11.936
15577W        W87837  14.350   0.513   4.312
15578W        W87838   3.719  15.129  13.619
15579W        W87839  15.028   9.881  12.434
15580W        W87840  15.867   9.682  10.925
15581W        W87841  38.385  27.287   2.800
15582W        W87842  37.349  15.231  12.988
15583W        W87843  43.328   5.899  11.079
15584W        W87844  41.553   8.695  12.455
15585W        W87845   5.592  14.852   1.774
15586W        W87846   5.700  29.556  14.446
15587W        W87847   3.459  17.173   3.782
15588W        W87848  31.422  38.342  13.359
15589W        W87849  27.882  39.998  10.604
15590W        W87850  27.229   3.766   4.453
15591W        W87851  12.266   7.865  11.940
15592W        W87852  14.542  35.453   3.682
15593W        W87853  15.324  19.607   3.074
15594W        W87854  25.959   2.167   3.869
15595W        W87855  26.212   9.324  11.233
15596W        W87856  41.028  41.738   3.182
15597W        W87857   1.483  15.340   1.962
15598W        W87858  37.211   3.795   1.709
15599W        W87859   8.133  35.334   1.870
15600W        W87860  32.786  42.672   0.834
15601W        W87861  43.467   4.456   3.951
15602W        W87862  26.339  28.319   3.350
15603W        W87863  12.195   8.201  12.522
15604W        W87864   7.433  40.087  14.416
15605W        W87865  16.845  19.580  10.712
15606W        W87866  42.315  40.343  13.842
15607W        W87867  30.355  23.180   1.136
15608W        W87868  36.545  34.650  11.579
15609W        W87869  13.586  31.850   3.531
15610W        W87870  34.518  39.061   2.843
15611W        W87871  41.503  33.968   3.306
15612W        W87872  20.544  34.133   3.992
15613W        W87873  18.776  20.833  12.378
15614W        W87874  13.764  12.643   0.477
15615W        W87875  16.347  15.893  11.704
15616W        W87876  26.534  30.401   1.382
15617W        W87877  21.306  41.214   1.852
15618W        W87878  32.993  17.881  11.621
15619W        W87879   2.325  41.349   4.867
15620W        W87880   9.733  41.973   0.856
15621W        W87881  12.863   6.682   2.658
15622W        W87882  39.378  43.883   1.496
15623W        W87883  10.940  42.512  14.372
15624W        W87884  25.576   6.843   2.814
15625W        W87885  42.398  37.494   1.227
15626W        W87886  17.108  41.683   2.560
15627W        W87887  11.048  11.830   4.464
15628W        W87888  13.249  29.146  12.124
15629W        W87889   9.234  24.540   1.724
15630W        W87890  20.225  16.270  10.393
15631W        W87891  43.736  10.386  11.815
15632W        W87892  20.199  30.050   2.188
15633W        W87893  26.003  37.366  14.731
15634W        W87894  12.580   6.981  14.344
15635W        W87895  44.862  12.805  14.325
15636W        W87896  21.075   1.408  14.808
15637W        W87897  37.151  27.128   2.284
15638W        W87898  15.246  36.619  12.927
15639W        W87899  17.980   7.636   4.938
15640W        W87900  44.447   8.837  10.035
15641W        W87901  34.022  10.362  13.378
15642W        W87902  26.025  36.109   0.912
15643W        W87903   2.932  21.388  14.218
15644W        W87904   3.545  30.056  10.759
15645W        W87905  28.996  32.419   4.333
15646W        W87906  19.500  34.017   3.176
15647W        W87907  12.321  17.943  10.698
15648W        W87908  25.061  24.686   3.240
15649W        W87909  39.572  18.334  13.954
15650W        W87910  16.815  33.367  11.643
15651W        W87911  29.381  20.634   2.638
15652W        W87912  21.321  36.014  12.952
15653W        W87913   1.804   7.409   2.924
15654W        W87914  21.500   7.914  14.772
15655W        W87915   0.850   9.947  14.403
15656W        W87916  42.246  35.001  14.529
15657W        W87917  21.775   2.379  14.253
15658W        W87918  27.666  27.428  10.949
15659W        W87919  28.414   9.153   4.099
15660W        W87920  40.783  28.470   1.655
15661W        W87921  21.556  19.353   1.635
15662W        W87922  37.843  29.358   3.192
15663W        W87923   4.458  12.136   2.522
15664W        W87924  22.611  21.155  12.079
15665W        W87925   9.246  36.453  11.977
15666W        W87926  17.783  21.146   1.511
15667W        W87927   0.229  11.672   3.416
15668W        W87928  33.483   9.279  13.918
15669W        W87929  41.439   7.877  10.715
15670W        W87930   6.643  21.064  13.507
15671W        W87931  22.662  24.618  11.593
15672W        W87932   1.298   6.278   3.809
15673W        W87933  39.837  35.891   4.395
15674W        W87934   2.302  12.214  11.686
15675W        W87935  39.870  25.699  12.006
15676W        W87936  37.398  21.969  12.593
15677W        W87937  28.906  27.624   4.509
15678W        W87938   8.911  41.834  14.453
15679W        W87939   6.516  28.676   0.437
15680W        W87940  31.434   2.415  13.942
15681W        W87941   1.972   0.479  12.556
15682W        W87942  19.498  36.343  11.479
15683W        W87943  13.417  18.657  14.325
15684W        W87944  11.470  30.037   0.822
15685W        W87945  13.195  16.597   0.183
15686W        W87946  10.667  13.225  13.708
15687W        W87947   8.548  28.539  11.453
15688W        W87948  44.612  31.128   3.282
15689W        W87949  23.188  14.193  11.628
15690W        W87950  22.153  41.193  11.990
15691W        W87951  28.075  37.233   4.219
15692W        W87952  31.983  22.641   1.666
15693W        W87953  13.182   6.362   3.393
15694W        W87954  27.393  39.579   1.333
15695W        W87955   9.922   9.562   0.293
15696W        W87956  24.084   8.398  13.991
15697W        W87957  44.540   5.820  12.994
15698W        W87958   4.443  43.956   3.439
15699W        W87959  33.574  11.437  14.047
15700W        W87960  37.362   0.795   1.166
15701W        W87961  36.015  40.025   4.285
15702W        W87962  40.795  24.431  14.527
15703W        W87963  12.399  44.535  12.477
15704W        W87964  36.903  22.101  11.412
15705W        W87965  44.756  44.185   9.806
15706W        W87966   9.374  43.034  11.678
15707W        W87967  42.478  23.727   0.421
15708W        W87968  27.387  28.133  14.485
15709W        W87969  36.156  38.795  13.433
15710W        W87970  40.697  19.552   2.864
15711W        W87971   3.525   5.325  11.606
15712W        W87972  30.150  15.908  13.264
15713W        W87973  11.350  15.694  10.977
15714W        W87974  27.263  24.683  11.079
15715W        W87975  29.695  36.029   0.243
15716W        W87976   2.208  27.851   3.196
15717W        W87977  14.230  20.571   1.455
15718W        W87978  44.714   3.185   3.574
15719W        W87979  32.120   6.608  13.507
15720W        W87980   4.313  35.926  14.284
15721W        W87981   7.859  18.181  10.319
15722W        W87982  32.609  36.962   2.790
15723W        W87983  32.163  39.476   1.664
15724W        W87984   8.776   6.264  14.808
15725W        W87985   5.878  12.228   2.211
15726W        W87986  21.860  24.669   2.388
15727W        W87987  29.702  27.747   0.226
15728W        W87988  43.120  20.628   0.239
15729W        W87989  24.138  23.713   2.402
15730W        W87990  35.594  43.042   0.851
15731W        W87991  18.730  12.887   0.442
15732W        W87992  20.774  26.105   3.627
15733W        W87993  30.734   1.886   0.571
15734W        W87994  29.158  14.224  14.232
15735W        W87995  13.780  30.379   3.822
15736W        W87996  17.461  44.025  13.450
15737W        W87997   2.710  22.014  11.223
15738W        W87998  42.410  36.784   1.838
15739W        W87999  39.245   0.564  14.289
15740W        W88000  10.487  10.286  10.187
15741W        W88001  44.347   5.615   1.515
15742W        W88002  23.859  32.407  13.348
15743W        W88003   4.819  20.939  13.064
15744W        W88004  39.376  33.074   0.279
15745W        W88005   0.497   3.031  14.864
15746W        W88006   9.614   8.386  13.050
15747W        W88007   6.699  40.431  11.434
15748W        W88008  18.234   1.746  11.446
15749W        W88009   1.174   5.772   1.723
15750W        W88010  25.709  12.746   1.921
15751W        W88011  12.211  20.560  12.152
15752W        W88012  16.610  44.133  13.418
15753W        W88013  21.614  39.025   0.458
15754W        W88014  24.712  35.329   1.354
15755W        W88015  37.917  20.021   2.777
15756W        W88016   8.072   2.024  11.313
15757W        W88017  33.138  39.077   2.270
15758W        W88018  32.568   2.225   4.231
15759W        W88019  11.961  13.767   1.503
15760W        W88020  35.131  44.591   0.217
15761W        W88021  26.604  34.956   0.781
15762W        W88022  44.218   3.717  10.342
15763W        W88023  39.260  27.120  11.611
15764W        W88024  36.482  26.535   4.581
15765W        W88025  31.042  23.587   4.508
15766W        W88026  43.966  44.828   1.346
15767W        W88027  42.560  44.006   3.744
15768W        W88028  16.848  35.839   2.332
15769W        W88029  38.254  24.929   1.926
15770W        W88030  29.807   8.362   1.382
15771W        W88031  39.884  19.733   0.044
15772W        W88032  29.036  32.387  13.852
15773W        W88033  44.547  14.678   1.177
15774W        W88034  41.283  16.649   1.428
15775W        W88035  28.433  28.177  12.638
15776W        W88036  27.946   9.335  10.316
15777W        W88037   1.794  24.693   1.209
15778W        W88038   1.798  26.473   2.743
15779W        W88039  26.916  20.111   4.982
15780W        W88040  17.699  23.765   3.672
15781W        W88041  19.219  29.688  14.222
15782W        W88042  27.357  37.214   0.933
15783W        W88043  43.049  41.215  13.876
15784W        W88044  10.559  11.831   4.674
15785W        W88045  19.017  22.687  11.011
15786W        W88046  25.158  42.666  11.632
15787W        W88047  35.122   0.929   3.389
15788W        W88048  28.184  41.855   4.120
15789W        W88049   5.947   5.542  10.616
15790W        W88050  41.049  13.046  10.618
15791W        W88051  32.268  35.935   4.694
15792W        W88052   2.677  38.975   1.166
15793W        W88053  34.515  44.498  12.440
15794W        W88054  38.359  16.853  12.858
15795W        W88055  24.550  27.023   0.621
15796W        W88056  41.456  16.105  12.872
15797W        W88057  30.900  10.197   3.283
15798W        W88058  17.131  12.175   3.879
15799W        W88059  18.239  39.541  11.673
15800W        W88060  28.594  37.228   2.186
15801W        W88061   3.903  17.071  14.902
15802W        W88062   2.674  15.235  14.272
15803W        W88063  37.874   6.720   0.632
15804W        W88064   6.951  11.098  11.217
15805W        W88065  25.603  44.072   4.692
15806W        W88066  20.478   0.761   0.918
15807W        W88067  43.118  17.420  13.973
15808W        W88068  30.079  23.812   2.328
15809W        W88069  20.179  19.155   5.047
15810W        W88070  27.956  27.991   0.767
15811W        W88071  19.061  10.900  10.854
15812W        W88072  25.414  23.920  13.142
15813W        W88073  26.231  13.735   3.761
15814W        W88074  22.606  10.219   2.328
15815W        W88075  40.302  20.985   3.208
15816W        W88076  32.819   4.345  12.369
15817W        W88077  19.671  19.751   4.543
15818W        W88078   0.703  29.060  13.904
15819W        W88079  28.459  42.962  13.150
15820W        W88080   4.553  22.777  11.907
15821W        W88081  26.934  13.350   3.151
15822W        W88082   9.303  20.463   3.092
15823W        W88083  35.060  14.694  14.224
15824W        W88084  26.769  42.787   4.455
15825W        W88085   9.758  29.143  10.690
15826W        W88086   0.784  31.165  11.397
15827W        W88087  10.455  35.025  14.114
15828W        W88088  44.449  10.539   1.926
15829W        W88089  26.903  17.031  11.203
15830W        W88090  40.427  39.501   1.809
15831W        W88091   7.879  21.729  14.126
15832W        W88092  42.372  34.026  14.284
15833W        W88093   4.574  22.990   4.150
15834W        W88094  10.950  14.567   4.599
15835W        W88095  25.973  35.083   2.916
15836W        W88096  11.743  17.512   4.736
15837W        W88097  28.630  17.110  12.961
15838W        W88098  12.654   2.964  14.570
15839W        W88099  35.747  22.730  13.079
15840W        W88100  30.253  34.345  10.807
15841W        W88101  42.280  30.448  10.935
15842W        W88102  25.321  39.842  13.805
15843W        W88103  22.612   8.179  13.993
15844W        W88104  10.061  34.401   4.255
15845W        W88105  32.622  11.133   2.588
15846W        W88106   3.726  15.147   0.067
15847W        W88107  32.678  14.821  12.481
15848W        W88108   6.667   1.333  11.379
15849W        W88109  38.058  14.792  13.319
15850W        W88110  35.563  44.869  12.025
15851W        W88111  20.722  37.582  13.095
15852W        W88112  31.615  31.775   0.772
15853W        W88113  13.323   3.713  13.878
15854W        W88114  23.074  41.017   3.102
15855W        W88115   7.330   1.257   3.340
15856W        W88116  27.635  18.068   4.527
15857W        W88117  24.876  23.472   4.567
15858W        W88118  26.202  13.279  12.838
15859W        W88119  11.103  27.914   1.870
15860W        W88120  10.315   7.460   2.252
15861W        W88121  27.862  11.792  14.397
15862W        W88122  37.685  20.591   3.521
15863W        W88123   4.820  18.624   1.891
15864W        W88124   6.404  38.127   1.273
15865W        W88125  19.963  19.933   5.418
15866W        W88126  28.403  28.715   1.230
15867W        W88127   5.837   6.900  13.478
15868W        W88128   7.780  11.760  14.266
15869W        W88129  12.401  19.519  13.983
15870W        W88130  26.700  30.644   3.075
15871W        W88131  21.883  41.602  11.872
15872W        W88132  31.782  39.246  12.480
15873W        W88133  29.083  27.537   0.997
15874W        W88134  32.638  29.915   4.146
15875W        W88135  27.650  20.104  14.540
15876W        W88136  33.332  18.328   1.129
15877W        W88137  30.090   5.753   0.276
15878W        W88138  29.657  21.438   0.976
15879W        W88139  42.522  27.726   1.800
15880W        W88140  43.998  31.134  13.292
15881W        W88141  38.992  29.356   0.508
15882W        W88142  29.677  31.988   1.311
15883W        W88143  43.994  15.266   0.315
15884W        W88144  23.525  22.717   3.600
15885W        W88145  36.784  12.111  11.180
15886W        W88146  42.005  10.323   3.462
15887W        W88147  42.864  13.086  12.050
15888W        W88148  20.853  34.203   4.411
15889W        W88149   8.323   0.239  13.617
15890W        W88150  36.022  19.569   5.090
15891W        W88151  15.356  30.218  14.433
15892W        W88152   5.862   7.886   0.711
15893W        W88153   2.046   7.717   0.826
15894W        W88154   6.180   6.404  12.345
15895W        W88155  34.859  10.423  14.909
15896W        W88156  25.915  23.629   0.531
15897W        W88157  41.628   3.334   4.633
15898W        W88158  13.229  42.450  10.920
15899W        W88159   8.836  12.545  11.156
15900W        W88160  20.062   6.282   0.372
15901W        W88161   8.331  33.892   3.859
15902W        W88162  34.981  34.863   1.230
15903W        W88163  15.221  11.877  14.408
15904W        W88164  12.823  29.721  13.821
15905W        W88165   9.141  17.601  10.710
15906W        W88166   8.625  41.049  10.316
15907W        W88167  20.090   8.828  12.855
15908W        W88168  19.100  28.649   4.026
15909W        W88169  40.252   0.817  13.911
15910W        W88170  13.786  21.737  11.475
15911W        W88171  24.166   2.296  12.130
15912W        W88172  25.147   9.283   4.301
15913W        W88173  36.296  11.907  13.393
15914W        W88174  22.803  37.868   3.631
15915W        W88175  29.051  39.532  12.160
15916W        W88176  37.885  15.531   1.646
15917W        W88177  21.310   4.723  12.247
15918W        W88178   7.640   3.092   4.686
15919W        W88179  43.573   8.277   0.878
15920W        W88180   0.600  31.656  11.309
15921W        W88181  11.994  24.780   1.793
15922W        W88182  32.938  39.312   2.721
15923W        W88183  21.180  30.069  12.486
15924W        W88184  26.287   3.729  12.455
15925W        W88185   8.193  40.576  10.367
15926W        W88186  33.383  13.203  14.370
15927W        W88187   2.448   4.806  11.095
15928W        W88188  20.493  17.671  13.713
15929W        W88189  35.852   9.770   3.263
15930W        W88190   2.869   2.986   1.716
15931W        W88191  22.140  33.455  13.340
15932W        W88192  12.710  25.103   3.734
15933W        W88193  36.103   0.918  10.991
15934W        W88194  39.506  20.524  13.162
15935W        W88195   7.570  13.678  11.504
15936W        W88196   3.815  39.068  13.089
15937W        W88197  43.695  36.817   4.553
15938W        W88198  20.202  34.643   4.686
15939W        W88199   0.260  31.841  13.876
15940W        W88200  27.090   5.856   2.654
15941W        W88201  12.089  33.609   1.951
15942W        W88202  37.013  30.356   3.667
15943W        W88203  27.608  33.851  11.000
15944W        W88204   0.272  33.167  14.498
15945W        W88205  42.278  33.179   2.748
15946W        W88206  12.802  41.806   1.676
15947W        W88207   4.527   9.848  11.539
15948W        W88208  33.330   5.550  12.472
15949W        W88209  44.794  21.211  12.705
15950W        W88210  13.770  10.831  13.786
15951W        W88211  38.304  23.725  11.074
15952W        W88212   2.697   9.265  10.751
15953W        W88213  37.451  10.330  13.823
15954W        W88214  24.098  29.412   2.946
15955W        W88215  17.856   3.256  14.336
15956W        W88216  33.552  25.709   2.009
15957W        W88217   5.834  32.990   1.351
15958W        W88218  19.156   0.048  10.740
15959W        W88219  11.879  24.745   2.300
15960W        W88220  14.784  16.381  13.885
15961W        W88221  11.281   9.549   0.496
15962W        W88222  31.101  28.080   4.623
15963W        W88223  26.047  37.307   2.127
15964W        W88224  36.608  24.450  11.525
15965W        W88225  33.014  28.241  11.460
15966W        W88226  43.941  31.595  10.995
15967W        W88227  21.140  31.909  14.358
15968W        W88228  19.472  32.527   0.034
15969W        W88229  29.908  12.322   4.278
15970W        W88230  35.403  31.308  12.359
15971W        W88231  10.762  25.647   3.157
15972W        W88232  15.177  33.596  12.037
15973W        W88233   6.928   1.535   0.245
15974W        W88234  42.973  13.048   0.892
15975W        W88235  13.237  44.537  13.022
15976W        W88236  42.808  27.656  11.391
15977W        W88237  40.816   9.186   0.961
15978W        W88238  44.383  25.425  13.987
15979W        W88239  37.332   1.947   1.017
15980W        W88240  33.961  28.653   4.153
15981W        W88241  17.254   0.214  12.355
15982W        W88242   3.870  36.561   3.172
15983W        W88243   5.797  41.532   2.817
15984W        W88244   7.787  35.375   1.482
15985W        W88245  36.862  44.301   2.724
15986W        W88246  13.129   8.680  12.506
15987W        W88247  13.802   8.706   2.300
15988W        W88248  21.380  26.444   0.656
15989W        W88249  15.401  14.516  11.087
15990W        W88250  34.982  15.840  13.425
15991W        W88251   6.081  24.116  14.497
15992W        W88252  24.984   9.624   0.714
15993W        W88253  11.088  43.227   0.883
15994W        W88254  11.299  24.789  12.419
15995W        W88255  41.495   0.269   1.903
15996W        W88256  29.079  40.376  11.593
15997W        W88257  41.580  17.403  11.872
15998W        W88258  22.206   6.864   0.184
15999W        W88259  23.406  13.303   4.023
16000W        W88260  24.716  16.458  13.203
16001W        W88261   1.419  44.501  14.354
16002W        W88262  42.244  16.350   0.184
16003W        W88263   9.850  18.308  10.753
16004W        W88264   8.627  11.230  11.725
16005W        W88265  12.238  36.852   4.683
16006W        W88266  19.823  29.591  12.508
16007W        W88267   7.878   2.001   3.795
16008W        W88268   3.821  14.810   3.886
16009W        W88269   2.782  11.316   0.339
16010W        W88270  34.929  35.573  14.536
16011W        W88271   2.388  25.063  12.060
16012W        W88272  23.967  24.638  11.589
16013W        W88273  35.019  32.535   2.633
16014W        W88274  10.575  12.589   2.880
16015W        W88275  43.841  21.313   4.126
16016W        W88276  23.613  20.014  10.832
16017W        W88277  16.266  24.250  12.017
16018W        W88278   3.530   6.777   4.363
16019W        W88279  43.675  26.177   3.805
16020W        W88280  12.884  39.080  11.495
16021W        W88281  18.497  41.584  11.183
16022W        W88282   4.244   2.286   0.451
16023W        W88283   7.036   2.918   0.428
16024W        W88284  35.441   1.701  13.553
16025W        W88285  35.280  37.106   0.815
16026W        W88286  30.464  19.291  11.954
16027W        W88287  26.561  20.212  13.965
16028W        W88288   5.250   9.137  13.585
16029W        W88289   8.454  26.675   3.967
16030W        W88290  26.658  28.028   2.438
16031W        W88291  21.263  41.765  14.673
16032W        W88292   7.982  35.319  10.946
16033W        W88293  28.062  32.281  10.795
16034W        W88294  27.096  22.001  13.875
16035W        W88295  42.339  44.920  12.602
16036W        W88296  10.277  44.142   5.136
16037W        W88297  16.226  17.979  12.339
16038W        W88298   9.231  17.553  11.625
16039W        W88299  10.911  43.945  13.447
16040W        W88300  29.047  30.151   3.521
16041W        W88301  40.372   1.311   4.370
16042W        W88302  33.496  38.379  14.982
16043W        W88303   9.182  23.191   2.445
16044W        W88304   1.965  33.427  12.529
16045W        W88305  10.271   6.610   1.731
16046W        W88306  21.150  15.262   3.311
16047W        W88307  40.973  14.320  11.872
16048W        W88308  34.900  33.888  13.807
16049W        W88309   9.693  37.002  12.336
16050W        W88310   4.291  11.587   0.469
16051W        W88311  12.099  41.575  11.980
16052W        W88312  29.973  33.022  11.013
16053W        W88313  11.585   7.591   0.930
16054W        W88314   9.279  30.608   2.910
16055W        W88315  44.536  30.537  14.770
16056W        W88316  26.112  28.934  12.017
16057W        W88317  35.482  33.154  13.390
16058W        W88318  21.637  19.439   0.398
16059W        W88319  20.102  20.632   1.381
16060W        W88320  35.199  38.952   4.173
16061W        W88321  17.066  32.106  11.084
16062W        W88322  29.196   9.328   0.678
16063W        W88323   1.253  36.771  14.483
16064W        W88324  22.144  24.141   4.098
16065W        W88325  10.823  12.580   3.731
16066W        W88326   9.209  31.725  12.062
16067W        W88327  34.472   8.621  11.213
16068W        W88328  35.289   3.808   4.668
16069W        W88329  28.415  36.643   3.052
16070W        W88330  28.189  13.611  12.600
16071W        W88331  15.561  16.292  11.456
16072W        W88332  32.378   8.282   2.764
16073W        W88333  34.483  15.156  10.632
16074W        W88334  16.641  34.561  14.442
16075W        W88335  16.180  33.984   4.819
16076W        W88336  32.101  10.190  12.984
16077W        W88337   6.186  20.026   3.154
16078W        W88338  29.976  44.906  11.998
16079W        W88339  29.470  34.939   0.607
16080W        W88340  21.223  27.201   2.711
16081W        W88341  17.140  34.301   0.314
16082W        W88342  12.439  41.078   1.781
16083W        W88343   9.978  13.407  14.944
16084W        W88344   2.050  15.830  13.089
16085W        W88345  24.566  27.870  10.477
16086W        W88346  13.618  31.811   4.420
16087W        W88347  28.644  37.065   4.554
16088W        W88348  26.791  28.114   4.230
16089W        W88349  25.727  24.262   3.632
16090W        W88350  38.449  31.350  10.610
16091W        W88351  23.526  20.816   2.024
16092W        W88352   6.443  25.170   3.757
16093W        W88353  20.986  10.348   0.474
16094W        W88354  32.427  12.361  12.599
16095W        W88355  17.736   4.314   2.330
16096W        W88356   5.310  35.351  14.985
16097W        W88357  16.205   4.458   0.296
16098W        W88358  36.592  29.430   2.616
16099W        W88359  10.591  39.001  13.726
16100W        W88360  27.594  44.802   0.402
16101W        W88361   6.708  32.172  11.200
16102W        W88362  21.049  12.766   1.749
16103W        W88363   4.272   1.513   1.821
16104W        W88364  25.121  43.920  14.030
16105W        W88365  39.316  14.653   2.707
16106W        W88366   3.782  37.625   3.670
16107W        W88367  15.544  41.967  11.101
16108W        W88368  21.258   1.724   0.184
16109W        W88369  23.290  11.879  13.638
16110W        W88370   9.049  15.696  14.914
16111W        W88371  14.365  37.752  13.056
16112W        W88372   4.645  37.922   2.351
16113W        W88373   7.259  41.819  12.038
16114W        W88374  27.542  14.150   3.662
16115W        W88375  23.234  35.516   0.776
16116W        W88376  18.006  26.951   1.704
16117W        W88377  25.387  18.863  13.006
16118W        W88378   9.970  30.024  13.088
16119W        W88379  27.991  39.083  14.008
16120W        W88380  15.671  10.195  13.487
16121W        W88381  21.198  43.827  14.024
16122W        W88382   1.765   5.166  12.464
16123W        W88383  30.723  29.546  10.950
16124W        W88384  38.559  21.997  13.257
16125W        W88385  43.736  35.959   3.020
16126W        W88386  11.334  33.084   1.796
16127W        W88387   4.283  23.537   0.375
16128W        W88388   9.860  34.407  10.595
16129W        W88389  43.803  11.151  13.831
16130W        W88390  10.153  13.309   1.074
16131W        W88391   4.217  23.016  11.115
16132W        W88392  35.920  28.590  12.990
16133W        W88393  10.214   0.903  10.694
16134W        W88394  29.261  30.647  12.993
16135W        W88395  19.517  16.151   3.612
16136W        W88396   3.924  16.223   1.276
16137W        W88397  26.119  43.514  13.050
16138W        W88398  27.216  27.114   2.908
16139W        W88399  42.236  11.188   3.274
16140W        W88400  42.389  35.744   1.667
16141W        W88401  37.129   8.945  13.406
16142W        W88402   7.707  36.134  14.946
16143W        W88403  39.068  36.532   0.343
16144W        W88404  34.988  32.975   1.906
16145W        W88405   9.845   3.889  13.119
16146W        W88406  43.436   5.600  10.669
16147W        W88407  42.342   2.419  11.847
16148W        W88408  17.598  25.582   3.958
16149W        W88409  35.763  31.419  12.701
16150W        W88410  39.570  24.042   3.105
16151W        W88411  42.834   0.971  13.353
16152W        W88412   0.995  16.403   3.883
16153W        W88413   5.248  24.777   1.004
16154W        W88414  43.388  42.371   0.453
16155W        W88415  30.640   3.197  13.074
16156W        W88416   8.196  27.357   9.761
16157W        W88417  15.041  19.623   2.651
16158W        W88418  31.533  25.257   3.842
16159W        W88419  33.855  18.810   2.986
16160W        W88420   5.387   0.422   2.659
16161W        W88421   7.743  17.155   1.942
16162W        W88422  40.109   7.540   1.311
16163W        W88423   5.161  34.912  14.760
16164W        W88424  38.491  25.469  13.470
16165W        W88425  31.029  24.728   2.692
16166W        W88426   2.155  44.249   1.364
16167W        W88427  12.213   3.207  14.542
16168W        W88428  10.751  36.647   4.971
16169W        W88429  14.007  18.224  14.833
16170W        W88430  28.771   6.545   3.231
16171W        W88431  36.039  12.600   0.653
16172W        W88432  43.196  18.623  13.457
16173W        W88433   5.921  13.169   2.367
16174W        W88434   1.375  38.752   1.261
16175W        W88435  14.340  35.859  13.420
16176W        W88436   9.437  12.101  12.453
16177W        W88437  18.001  28.619   2.641
16178W        W88438  15.716  28.058  14.676
16179W        W88439   9.867  10.855   4.110
16180W        W88440  16.010  21.596  14.487
16181W        W88441  25.727   7.131   4.143
16182W        W88442  24.126  35.868  11.361
16183W        W88443   4.394  27.675   0.786
16184W        W88444  16.354   3.500  12.393
16185W        W88445  17.047  15.589  12.891
16186W        W88446  20.145  30.108   0.746
16187W        W88447  29.986  35.504   2.742
16188W        W88448  28.321  34.545  12.056
16189W        W88449  43.898   2.725  11.355
16190W        W88450   3.437  40.247  13.015
16191W        W88451   9.762  38.959  11.468
16192W        W88452  15.551  16.557   2.372
16193W        W88453   0.753  15.593  11.428
16194W        W88454  36.071  13.535   0.827
16195W        W88455  28.007   0.809   1.443
16196W        W88456  26.032   2.236   0.381
16197W        W88457  21.188  26.399   5.380
16198W        W88458  37.999   7.178  11.069
16199W        W88459  23.754  29.845  13.711
16200W        W88460  37.580  16.063   0.798
16201W        W88461   1.028  14.354  10.976
16202W        W88462  12.159  12.887  10.484
16203W        W88463  15.179  17.338   3.859
16204W        W88464  44.280  19.575  12.090
16205W        W88465  29.554  28.248   4.107
16206W        W88466   7.696   1.770  11.832
16207W        W88467  20.651  13.256   4.117
16208W        W88468  11.243  25.080   4.946
16209W        W88469  21.945  36.712  13.399
16210W        W88470  40.831  33.439   2.289
16211W        W88471  12.257  12.276  14.900
16212W        W88472   4.473   6.662   0.280
16213W        W88473  26.463   1.681  11.891
16214W        W88474  31.669  24.658  12.425
16215W        W88475   6.492  34.138   2.784
16216W        W88476   8.992  16.140  14.168
16217W        W88477  15.681  16.619  11.857
16218W        W88478  19.535   3.994  13.019
16219W        W88479   5.352  29.199  13.831
16220W        W88480  42.287   6.971   1.377
16221W        W88481  15.879   2.562   0.874
16222W        W88482  23.916  20.588   1.762
16223W        W88483  43.900  27.173   4.097
16224W        W88484  27.993  26.937  11.413
16225W        W88485  25.136  41.387   4.778
16226W        W88486  38.951  33.435   2.240
16227W        W88487   2.459  26.559  13.441
16228W        W88488   0.812  27.170   1.655
16229W        W88489   2.820   0.693  12.480
16230W        W88490  24.645  16.246  11.413
16231W        W88491  41.861  43.549  13.917
16232W        W88492  44.535  24.284  13.238
16233W        W88493   2.705  31.134   4.656
16234W        W88494  29.159   0.166  14.904
16235W        W88495  35.517  41.592   3.243
16236W        W88496  18.481  35.433   0.926
16237W        W88497  18.086  26.208  10.367
16238W        W88498   1.680  40.541   4.714
16239W        W88499   5.142  41.031  13.290
16240W        W88500  15.377  20.783  13.519
16241W        W88501  41.522   6.155   0.449
16242W        W88502  35.604   4.948   1.160
16243W        W88503  10.800  12.868  13.359
16244W        W88504  38.909  39.595  14.723
16245W        W88505   3.129  23.668  13.498
16246W        W88506   3.859  25.882  12.063
16247W        W88507  18.120   0.993  10.625
16248W        W88508  28.579   8.102  11.461
16249W        W88509  29.595  33.023  12.435
16250W        W88510  11.485  33.098  11.960
16251W        W88511   2.643  44.678   4.270
16252W        W88512  27.684  20.741   4.086
16253W        W88513   2.996  42.503  10.724
16254W        W88514  43.797  10.532  10.962
16255W        W88515  24.408  16.656   2.248
16256W        W88516  37.757  13.523  12.633
16257W        W88517  34.125  16.032   2.284
16258W        W88518  25.807   5.749  11.970
16259W        W88519  12.746  30.191  14.811
16260W        W88520  15.181  25.842   2.696
16261W        W88521  34.339   9.264   2.864
16262W        W88522   3.114  16.585   0.383
16263W        W88523  18.586  37.109   1.939
16264W        W88524  13.266   6.659  10.978
16265W        W88525   8.311   6.364   1.697
16266W        W88526  36.309  11.330  14.406
16267W        W88527  18.983  20.363   1.210
16268W        W88528  20.181  23.188   3.773
16269W        W88529  41.912  30.668   2.660
16270W        W88530  10.206  20.731   3.647
16271W        W88531  20.480   4.355   4.940
16272W        W88532  30.689  12.464   3.489
16273W        W88533  41.564  36.812   3.362
16274W        W88534  34.470  14.257   2.697
16275W        W88535  40.428  16.510   1.914
16276W        W88536  18.278  27.390   1.703
16277W        W88537  15.093  10.451   1.166
16278W        W88538   8.118  35.025  11.330
16279W        W88539   4.911   1.719  10.592
16280W        W88540  35.001  17.883  10.806
16281W        W88541  12.806  13.905  12.392
16282W        W88542  16.801  10.059   0.744
16283W        W88543  15.946  17.324   5.014
16284W        W88544  41.561  15.201  14.316
16285W        W88545  11.330  23.008   3.573
16286W        W88546  18.511  28.217   5.048
16287W        W88547  44.135  27.160  12.799
16288W        W88548  16.142  39.167  12.502
16289W        W88549  27.729   1.728  12.145
16290W        W88550  11.762  20.217  11.020
16291W        W88551  11.186  16.384   1.903
16292W        W88552  29.664  27.762  11.755
16293W        W88553  23.509  11.709  14.921
16294W        W88554   2.504  19.031  11.907
16295W        W88555  27.394   1.356  13.077
16296W        W88556  27.084  15.107   2.767
16297W        W88557  43.856  32.823  12.407
16298W        W88558   9.678   8.677   3.836
16299W        W88559  42.181  32.205  14.945
16300W        W88560  18.771   5.845  10.331
16301W        W88561  31.140  40.218   1.318
16302W        W88562   3.808  18.657   0.403
16303W        W88563  39.309  18.174  14.397
16304W        W88564  18.069   8.156   4.989
16305W        W88565   3.319  21.518   4.885
16306W        W88566  13.207  31.478  13.739
16307W        W88567  36.316  13.185   0.047
16308W        W88568   2.197  31.460  13.049
16309W        W88569  22.534  11.697   1.203
16310W        W88570  27.075   5.675  11.630
16311W        W88571   9.466  14.613   2.736
16312W        W88572  40.750  38.755  13.758
16313W        W88573  21.241  37.081  13.865
16314W        W88574  35.514  33.355   2.615
16315W        W88575  21.766  22.940  13.184
16316W        W88576   8.266  14.146  14.471
16317W        W88577  28.581  43.988  13.782
16318W        W88578  35.112  35.280   1.899
16319W        W88579  28.765   1.481   0.306
16320W        W88580  38.872   0.917  10.671
16321W        W88581  39.080  20.683   4.798
16322W        W88582  42.065  13.297   1.738
16323W        W88583   8.675  44.620  13.948
16324W        W88584  19.603  22.138  11.887
16325W        W88585  32.423  16.766  12.670
16326W        W88586  21.635  15.035  14.771
16327W        W88587   3.263  23.541  11.978
16328W        W88588  35.620   3.880  12.520
16329W        W88589  32.772  13.637  11.505
16330W        W88590   5.335  43.841   0.962
16331W        W88591  22.053  27.557  14.226
16332W        W88592  11.397  44.373   2.775
16333W        W88593  11.401  14.111   2.316
16334W        W88594  36.195  10.159   4.195
16335W        W88595  25.553  15.207  12.016
16336W        W88596  10.779  17.312   2.917
16337W        W88597  11.712  41.265   1.257
16338W        W88598  21.238   3.285   1.911
16339W        W88599  22.841  38.863   1.898
16340W        W88600  27.312   5.866  12.969
16341W        W88601  34.468  17.317  13.842
16342W        W88602   6.857  27.819  12.899
16343W        W88603   4.981  28.990  10.763
16344W        W88604   8.178  23.193   3.682
16345W        W88605  15.172  33.958  12.640
16346W        W88606   6.027  39.383   4.285
16347W        W88607  39.770  18.841  13.981
16348W        W88608  32.320   6.212  11.611
16349W        W88609  38.959   1.803   4.075
16350W        W88610  26.928  26.154   4.559
16351W        W88611  10.566  36.926   2.116
16352W        W88612  44.006  36.429  11.526
16353W        W88613  43.110   9.919  12.002
16354W        W88614  13.674  19.437   4.620
16355W        W88615  11.705  16.258  14.793
16356W        W88616  16.755   8.639  13.333
16357W        W88617  28.300   4.869   1.729
16358W        W88618  36.649  26.673  11.487
16359W        W88619   6.356  12.350  11.119
16360W        W88620  28.892   0.342   2.267
16361W        W88621   6.330   7.527  12.054
16362W        W88622  11.865   5.289   1.878
16363W        W88623  26.722  32.906  13.468
16364W        W88624  26.660  12.800   4.709
16365W        W88625   4.833  17.449   2.796
16366W        W88626  43.429  42.769   2.348
16367W        W88627   4.168   2.319   3.205
16368W        W88628  31.349  22.633   3.804
16369W        W88629  26.019  12.291   1.447
16370W        W88630  35.453  28.012  12.908
16371W        W88631   2.229   8.141   2.059
16372W        W88632   8.738  27.272   4.119
16373W        W88633  25.720  42.989  11.187
16374W        W88634  39.064  42.485  11.503
16375W        W88635  35.320  33.440   3.137
16376W        W88636  20.627  17.268   2.480
16377W        W88637  16.731  25.591   3.173
16378W        W88638  39.799  40.274  12.094
16379W        W88639  40.865  28.083  13.195
16380W        W88640   2.516  35.403   1.674
16381W        W88641   0.218  39.930   2.664
16382W        W88642   8.192  10.352  13.394
16383W        W88643  27.596  37.345   4.092
16384W        W88644  43.835  28.492  12.346
16385W        W88645  44.776   8.907  10.511
16386W        W88646   9.446  42.046  13.390
16387W        W88647  36.882  24.724   2.574
16388W        W88648  43.632  30.040   4.069
16389W        W88649  11.224  36.229  13.593
16390W        W88650  37.378   1.877  14.612
16391W        W88651  24.755  14.483   1.877
16392W        W88652  44.509   2.664  12.477
16393W        W88653  31.073  10.250  13.222
16394W        W88654  26.138  32.547   1.721
16395W        W88655  31.363  39.819  13.049
16396W        W88656   7.781   5.640   2.299
16397W        W88657  22.537  21.489   3.077
16398W        W88658  42.060  28.605   2.498
16399W        W88659  35.459  30.438  14.409
16400W        W88660   4.712  35.022   4.934
16401W        W88661  15.587  42.273  10.693
16402W        W88662  29.688   5.901   2.300
16403W        W88663   0.955  26.437  12.524
16404W        W88664   5.281  23.927   3.587
16405W        W88665  34.923  23.318  13.327
16406W        W88666  13.733  30.626   3.351
16407W        W88667  14.310  35.778   4.015
16408W        W88668  21.803  13.383  11.155
16409W        W88669   8.609  35.305  14.476
16410W        W88670  42.202   2.558  10.563
16411W        W88671  27.370  19.234  14.365
16412W        W88672  29.370   3.832  13.151
16413W        W88673  19.174  21.527   4.460
16414W        W88674   5.833   7.600   1.766
16415W        W88675   8.239  20.644  10.736
16416W        W88676   3.783   9.742   0.994
16417W        W88677  20.118  27.124   4.114
16418W        W88678  13.510  33.510  13.317
16419W        W88679   7.208  38.879   1.257
16420W        W88680  10.003  33.721   0.630
16421W        W88681   4.420   0.318  14.404
16422W        W88682  10.847  39.862  11.556
16423W        W88683  33.451  10.918   1.809
16424W        W88684   2.341   3.884   4.368
16425W        W88685  44.324  18.467  13.106
16426W        W88686  22.737  19.527  12.642
16427W        W88687  24.702   6.608  11.883
16428W        W88688   7.952  39.304   1.370
16429W        W88689  43.815  38.431  13.481
16430W        W88690  32.421  28.255  12.679
16431W        W88691  37.051  23.467   4.068
16432W        W88692  43.995  20.904   0.766
16433W        W88693  39.108  30.808  12.568
16434W        W88694  39.528  29.052  14.996
16435W        W88695  13.961   7.194  12.775
16436W        W88696  37.740  42.858  13.982
16437W        W88697  35.888  25.721   4.669
16438W        W88698   4.278  42.110  10.947
16439W        W88699  10.914   2.899  12.499
16440W        W88700  34.550  38.300   1.349
16441W        W88701  21.968  15.149   1.424
16442W        W88702  21.506  39.840   4.651
16443W        W88703  11.883  25.662   0.816
16444W        W88704   7.762  22.404  12.857
16445W        W88705  25.957  40.290   0.376
16446W        W88706   6.462  22.258  12.046
16447W        W88707  31.536   3.280   4.138
16448W        W88708  22.774  41.211  11.189
16449W        W88709  44.701  21.679   4.939
16450W        W88710   1.199  28.487   1.814
16451W        W88711  13.320  13.115  10.595
16452W        W88712  14.797  37.817   3.236
16453W        W88713   7.407   9.825   0.515
16454W        W88714  30.659  27.218   3.789
16455W        W88715  15.436  40.680  14.891
16456W        W88716  38.168   2.277   1.872
16457W        W88717  33.451  10.189  12.558
16458W        W88718  32.087   3.756   4.480
16459W        W88719  32.595   7.419   0.812
16460W        W88720   6.930  22.289   3.408
16461W        W88721  42.142  16.252  11.447
16462W        W88722   8.253  44.875  10.687
16463W        W88723   4.405   8.166  14.939
16464W        W88724  39.884  43.755   0.464
16465W        W88725  12.709  33.466  14.405
16466W        W88726  29.434  44.166  12.737
16467W        W88727  15.355  16.086   2.416
16468W        W88728  17.531  32.425   1.284
16469W        W88729  18.163   3.543  10.676
16470W        W88730  15.410  33.136  13.092
16471W        W88731  16.607   7.834  10.251
16472W        W88732   0.872  32.087  11.434
16473W        W88733  40.747   4.409   1.909
16474W        W88734  23.147  18.040   1.324
16475W        W88735  42.991  34.454  13.217
16476W        W88736   1.368  33.315   0.856
16477W        W88737  14.848  11.661   2.481
16478W        W88738   4.275   1.953   3.981
16479W        W88739  18.191  12.396  14.953
16480W        W88740  13.786  29.610   3.313
16481W        W88741  21.903  21.655  13.574
16482W        W88742  11.611  26.213   4.121
16483W        W88743   5.308  40.926   3.272
16484W        W88744  27.043   6.391   2.593
16485W        W88745  15.749  24.866  13.335
16486W        W88746  36.993  15.567   1.291
16487W        W88747  33.116  14.134   1.289
16488W        W88748  29.250  33.189  11.396
16489W        W88749   7.391  29.284  14.200
16490W        W88750   8.769   3.390   4.801
16491W        W88751  42.744   6.859  10.616
16492W        W88752  34.162   9.303   3.868
16493W        W88753  18.511   5.859  13.363
16494W        W88754  15.537  36.914   2.809
16495W        W88755   5.454   8.269   3.730
16496W        W88756  14.970  12.321  14.428
16497W        W88757  43.504  29.324   2.902
16498W        W88758   9.625  18.788   1.747
16499W        W88759  36.457  28.925   2.704
16500W        W88760  26.344  14.821   3.794
16501W        W88761  31.020  14.732  13.755
16502W        W88762  15.200  28.672  13.584
16503W        W88763  41.863  16.267  10.762
16504W        W88764  34.395  12.139   1.985
16505W        W88765  10.073  21.073   4.050
16506W        W88766   4.299  11.582   3.630
16507W        W88767  40.745   2.463   4.290
16508W        W88768  33.195  25.817   1.554
16509W        W88769  43.672  16.654   3.679
16510W        W88770  20.203  37.297  12.383
16511W        W88771   2.068  36.414  10.702
16512W        W88772  27.667   5.407  11.655
16513W        W88773  13.783  44.532   2.386
16514W        W88774   1.151  22.001   3.754
16515W        W88775  38.897   4.741   5.016
16516W        W88776   6.622  14.886  10.751
16517W        W88777   1.408  38.708  11.000
16518W        W88778   8.667  37.893   4.109
16519W        W88779  13.101   8.802  10.469
16520W        W88780  28.631  30.656   1.320
16521W        W88781   6.745  11.587  13.274
16522W        W88782  38.556  44.456   2.810
16523W        W88783  22.091  27.085  10.692
16524W        W88784  28.081  35.197  13.725
16525W        W88785  21.991  44.477  13.962
16526W        W88786  37.977  29.090   0.345
16527W        W88787   8.253  42.088   2.138
16528W        W88788  40.808  42.643   1.486
16529W        W88789  21.272  17.827  11.240
16530W        W88790  16.575  32.429   3.676
16531W        W88791  11.467  34.844  11.279
16532W        W88792   2.704  34.075   2.826
16533W        W88793   2.426   2.287   2.347
16534W        W88794  21.863  26.947  12.872
16535W        W88795  18.826   7.747   2.426
16536W        W88796  13.266  17.810  12.452
16537W        W88797  35.481  32.465  10.907
16538W        W88798  11.161  17.382   3.329
16539W        W88799   5.287  31.639  10.625
16540W        W88800   4.510  27.049  14.238
16541W        W88801  19.980  41.005   4.660
16542W        W88802  18.258   6.755  11.040
16543W        W88803   0.809   1.145  13.908
16544W        W88804  21.520  15.097  11.101
16545W        W88805  40.778  13.247   3.228
16546W        W88806  39.944  17.004   2.300
16547W        W88807  15.712  20.722  12.954
16548W        W88808   7.387  22.141   1.043
16549W        W88809   3.349  24.130  13.758
16550W        W88810  14.081  18.427  12.579
16551W        W88811  23.127   5.958   2.324
16552W        W88812  11.809  21.749   3.627
16553W        W88813  18.487  36.163  12.666
16554W        W88814   1.241  40.295  13.711
16555W        W88815  11.797  13.768  10.403
16556W        W88816  28.678  36.193   3.107
16557W        W88817  35.522  15.150  11.356
16558W        W88818  21.179  44.390   1.785
16559W        W88819  16.131  40.770  10.715
16560W        W88820  15.735  37.978  12.665
16561W        W88821  26.654   8.102   2.669
16562W        W88822   3.092  36.920   2.236
16563W        W88823  34.850   0.721   4.180
16564W        W88824  34.079   0.349   1.363
16565W        W88825  39.585  11.806   3.432
16566W        W88826  44.891  14.043  12.371
16567W        W88827  30.376   3.849   0.240
16568W        W88828  35.865  29.083  10.831
16569W        W88829  11.150  43.334   1.827
16570W        W88830  29.272  25.937  10.446
16571W        W88831  39.632   0.740   0.285
16572W        W88832  21.174  33.868  10.670
16573W        W88833  10.545  44.954  12.276
16574W        W88834  18.216   1.241   4.118
16575W        W88835  25.990  17.319  10.720
16576W        W88836  27.287  23.316  10.978
16577W        W88837  41.050  42.454   4.044
16578W        W88838   0.688   1.189  12.448
16579W        W88839  25.286  30.685  13.961
16580W        W88840  39.904   8.603  11.577
16581W        W88841  11.678  16.352  10.805
16582W        W88842  40.540  18.519  12.864
16583W        W88843  20.313  23.435   4.191
16584W        W88844  14.335  18.248  12.978
16585W        W88845  16.032   6.349   3.837
16586W        W88846  13.130  38.491   0.399
16587W        W88847   8.356   1.859  14.315
16588W        W88848  10.667  31.862   0.309
16589W        W88849  18.450   9.888  11.510
16590W        W88850  29.927  32.660  11.505
16591W        W88851  40.351  22.649  14.558
16592W        W88852  16.384  22.118   1.971
16593W        W88853  20.793  13.799  13.400
16594W        W88854  19.262  38.056  13.839
16595W        W88855  20.788  21.029  12.306
16596W        W88856   6.714  19.076   4.715
16597W        W88857  20.622  16.026  10.634
16598W        W88858  20.727   7.862  12.422
16599W        W88859   6.879  25.864   1.425
16600W        W88860  14.102  17.071  11.730
16601W        W88861  24.376  34.543   0.352
16602W        W88862  19.243  22.470  13.977
16603W        W88863  22.392  39.877  11.447
16604W        W88864  10.112   0.473  12.877
16605W        W88865  42.981  32.879  11.435
16606W        W88866   9.119  12.994  11.134
16607W        W88867  26.594  21.661  13.448
16608W        W88868   5.780  39.920  12.486
16609W        W88869  21.817  38.547   0.374
16610W        W88870  15.798  10.731   4.562
16611W        W88871  27.075  41.052  10.432
16612W        W88872  11.428  43.912  11.844
16613W        W88873  30.155  43.333   1.246
16614W        W88874  24.989  15.143  11.995
16615W        W88875  14.565   0.879  14.504
16616W        W88876   9.374   1.461   2.197
16617W        W88877  43.022  18.783   5.411
16618W        W88878  39.491  23.672   1.888
16619W        W88879  33.225   4.929  14.988
16620W        W88880  12.268  38.626   3.267
16621W        W88881  40.622  31.014   4.651
16622W        W88882  39.321  43.003   5.138
16623W        W88883   7.792  37.406  13.989
16624W        W88884  36.412  36.201   3.248
16625W        W88885  33.140   2.252   2.863
16626W        W88886   8.170   4.675   3.293
16627W        W88887  43.492  42.765  14.498
16628W        W88888  22.049  40.721  10.640
16629W        W88889  26.365   8.241   3.588
16630W        W88890  26.381  31.562  11.396
16631W        W88891  11.612  13.372  13.490
16632W        W88892  22.540  23.303  13.112
16633W        W88893  36.480  11.630   3.612
16634W        W88894   9.810  18.541  14.942
16635W        W88895  36.503  17.521   3.725
16636W        W88896   2.732   9.009  11.191
16637W        W88897   4.602  18.828   0.862
16638W        W88898  10.162  31.588   1.857
16639W        W88899  38.473  42.358  14.000
16640W        W88900  20.284  22.516  10.721
16641W        W88901   8.497  11.652  13.149
16642W        W88902   5.795  14.276  12.721
16643W        W88903   6.619   8.413   2.199
16644W        W88904  29.546   3.084  11.612
16645W        W88905  18.132  32.818   1.414
16646W        W88906  16.075  12.205   0.387
16647W        W88907  20.195   8.765   2.632
16648W        W88908  35.512  15.621   1.801
16649W        W88909   0.284  11.173   1.712
16650W        W88910  33.930   3.482  11.505
16651W        W88911  27.756  19.884  13.818
16652W        W88912  21.805  14.986  13.318
16653W        W88913   0.241  17.274  14.776
16654W        W88914  10.629  12.589   1.640
16655W        W88915  23.045  16.662  11.855
16656W        W88916  28.221  35.151   0.261
16657W        W88917  32.565  43.442  13.897
16658W        W88918  32.339  35.781  12.093
16659W        W88919  36.351  25.510   4.572
16660W        W88920  44.058  16.382   1.038
16661W        W88921  29.533  21.548  12.993
16662W        W88922  20.625  23.341  13.075
16663W        W88923  33.919  36.817   0.326
16664W        W88924  36.950  10.942  12.537
16665W        W88925  17.124  28.084   1.918
16666W        W88926  39.035  37.869   1.012
16667W        W88927  37.031  21.250  11.976
16668W        W88928  27.177  26.771   4.224
16669W        W88929  22.154  12.491  13.349
16670W        W88930  44.514  26.228   0.342
16671W        W88931  35.662  21.387  12.014
16672W        W88932  15.024   9.655  11.107
16673W        W88933  32.819  32.132   0.433
16674W        W88934   3.173  12.789  11.663
16675W        W88935  36.675  22.731   3.753
16676W        W88936  17.137  26.732  13.360
16677W        W88937  43.248  44.866  11.064
16678W        W88938  34.915  12.090   4.877
16679W        W88939  36.688   7.863   5.436
16680W        W88940  30.656  14.128  14.915
16681W        W88941   9.214   9.572   2.802
16682W        W88942  21.822  11.834   2.220
16683W        W88943  18.397  24.140   0.215
16684W        W88944  21.574  20.806  11.480
16685W        W88945  17.979   5.385   3.747
16686W        W88946  37.896   4.832   2.917
16687W        W88947  42.079  38.472  13.151
16688W        W88948  11.295  16.118  12.073
16689W        W88949  16.693   5.537   3.153
16690W        W88950   4.958  40.657   3.613
16691W        W88951  32.168  28.243   3.206
16692W        W88952  17.759  17.101   2.711
16693W        W88953  39.337   7.608  10.218
16694W        W88954   9.709  10.445   0.249
16695W        W88955  39.084  22.384   0.627
16696W        W88956  18.038  18.253  10.929
16697W        W88957  21.203  11.946  11.043
16698W        W88958  12.179  21.487  14.956
16699W        W88959   0.312  31.908   2.724
16700W        W88960  32.875   2.407   2.444
16701W        W88961  41.976  24.114  11.178
16702W        W88962   8.353  21.755   4.653
16703W        W88963   2.976  15.836   0.017
16704W        W88964  36.134   2.976   3.050
16705W        W88965  43.322  28.067  13.411
16706W        W88966  36.375  42.902   3.623
16707W        W88967   7.415  12.124   2.721
16708W        W88968  18.037  10.580   3.787
16709W        W88969  28.255  42.286   2.096
16710W        W88970  43.044   8.396  13.016
16711W        W88971  33.687  31.057  12.804
16712W        W88972  16.775  33.906   0.210
16713W        W88973  41.783  44.063   1.327
16714W        W88974  23.001  17.157   3.878
16715W        W88975   7.336  20.725  10.814
16716W        W88976  20.030   1.359   1.364
16717W        W88977  40.598   1.849  11.794
16718W        W88978  21.128   3.555   2.363
16719W        W88979  16.922  43.037  10.734
16720W        W88980  29.488  38.122   2.284
16721W        W88981  19.522  41.541  10.389
16722W        W88982  30.830  37.782  12.350
16723W        W88983  38.902  27.548   3.676
16724W        W88984  44.681   0.686   1.882
16725W        W88985  39.304  38.487  12.801
16726W        W88986  13.228   1.633   1.859
16727W        W88987   5.918  28.030   4.595
16728W        W88988  35.141   0.060   3.257
16729W        W88989  35.270  15.153  14.410
16730W        W88990  15.818  43.004  11.151
16731W        W88991  15.083   3.840  13.910
16732W        W88992  25.420   4.190  14.207
16733W        W88993  22.638   2.246  13.903
16734W        W88994  35.535  41.912   1.374
16735W        W88995  25.778  14.144   3.185
16736W        W88996  32.333  33.445  13.347
16737W        W88997  16.872   1.267   4.197
16738W        W88998  29.669  23.498   1.889
16739W        W88999  21.571  19.493  13.566
16740W        W89000   8.524  10.586  13.049
16741W        W89001  37.373  31.884  13.570
16742W        W89002  43.863   1.733  11.593
16743W        W89003  28.126  41.443   5.053
16744W        W89004  19.790   7.774  13.318
16745W        W89005  14.079   7.599  12.427
16746W        W89006  26.114  30.682   1.241
16747W        W89007  33.462  17.461   1.393
16748W        W89008  28.208  20.695   3.376
16749W        W89009   4.898  32.372  13.435
16750W        W89010  28.583  39.558   4.941
16751W        W89011  18.660  30.532  10.705
16752W        W89012  41.068  27.391  13.845
16753W        W89013  38.933  43.232  10.287
16754W        W89014   7.473  26.102   3.659
16755W        W89015  10.388   4.191  12.997
16756W        W89016  36.111  13.341  12.428
16757W        W89017  13.342  11.153  14.907
16758W        W89018  19.299  17.777   2.881
16759W        W89019   8.870  35.481  12.134
16760W        W89020  20.616  10.871  12.292
16761W        W89021  14.401  44.413  10.531
16762W        W89022  14.063   7.604  11.910
16763W        W89023  30.561  16.216   2.195
16764W        W89024  34.611  21.493  11.215
16765W        W89025  15.724  26.481  11.638
16766W        W89026   9.941  22.565   2.166
16767W        W89027  15.311  19.567  14.851
16768W        W89028  29.869  38.610  11.035
16769W        W89029  21.948   0.244  11.882
16770W        W89030  21.016   7.904  11.708
16771W        W89031   2.373  41.347  12.184
16772W        W89032  39.044  41.531  14.027
16773W        W89033  42.357  25.518   0.722
16774W        W89034  10.797  38.812   2.090
16775W        W89035  16.509   1.823   0.857
16776W        W89036  42.352  34.402   2.411
16777W        W89037  24.030  25.388   0.028
16778W        W89038  28.569   9.039   1.390
16779W        W89039  37.419  14.293   0.316
16780W        W89040  26.456  28.211  10.698
16781W        W89041   0.970  43.766  11.893
16782W        W89042  12.816  34.041  12.624
16783W        W89043  28.605  14.271  12.961
16784W        W89044  26.896  30.666  11.562
16785W        W89045  21.564  38.451  13.540
16786W        W89046  25.981  32.830  13.933
16787W        W89047  30.109  42.277   4.595
16788W        W89048   5.196   5.818  10.454
16789W        W89049  10.577  43.367   4.604
16790W        W89050  29.590  31.142   3.265
16791W        W89051  41.468   7.935   4.639
16792W        W89052  24.035   3.370   2.754
16793W        W89053  23.053  29.212   2.632
16794W        W89054  34.755  38.059  14.449
16795W        W89055  13.493  10.413   0.439
16796W        W89056  21.205  10.639   1.042
16797W        W89057   5.785  24.079   3.701
16798W        W89058  31.987  22.007   4.815
16799W        W89059  22.983  16.279   3.763
16800W        W89060  23.626  40.030   2.203
16801W        W89061   6.861  22.441   4.748
16802W        W89062  37.259   2.209  12.103
16803W        W89063   2.382  23.490  13.088
16804W        W89064  37.739   3.385  12.032
16805W        W89065  12.318   4.230   1.097
16806W        W89066   5.397  23.797  11.593
16807W        W89067  34.392  17.983   0.317
16808W        W89068  32.371  34.630   3.647
16809W        W89069   9.195  14.512   0.953
16810W        W89070  14.923   8.778   1.664
16811W        W89071  31.518  14.873   3.250
16812W        W89072  30.724  37.824   0.198
16813W        W89073  29.664   9.658  13.151
16814W        W89074   4.779  31.373   3.137
16815W        W89075  19.349  34.994   3.543
16816W        W89076  26.446  37.174  14.959
16817W        W89077  18.249  24.517   4.742
16818W        W89078  41.798   2.910   4.906
16819W        W89079  15.059  14.180   1.061
16820W        W89080  39.535   9.429   1.319
16821W        W89081  30.929  23.570   4.013
16822W        W89082  30.733  22.865   1.893
16823W        W89083   2.807  13.037  13.013
16824W        W89084  27.714  33.408  12.537
16825W        W89085  10.709  11.906   2.264
16826W        W89086  13.903  21.822   3.763
16827W        W89087  21.558  26.225  13.535
16828W        W89088  16.008  17.012   3.303
16829W        W89089  43.961  40.453  14.328
16830W        W89090  40.348  13.206   3.602
16831W        W89091  19.689  26.738   9.998
16832W        W89092  44.529  42.407   2.494
16833W        W89093  32.061  23.803  12.187
16834W        W89094  40.796  13.640   2.818
16835W        W89095  13.708  27.637   1.267
16836W        W89096   8.287  34.671   2.866
16837W        W89097  28.414   8.681   4.326
16838W        W89098  17.562  12.105  13.342
16839W        W89099  11.152  26.516  11.840
16840W        W89100  35.994  37.369  11.162
16841W        W89101  15.336  30.033  12.850
16842W        W89102  41.279  42.209  13.892
16843W        W89103  35.962  38.601  12.567
16844W        W89104   2.506  43.338   0.082
16845W        W89105  32.657  28.029  10.284
16846W        W89106   1.757  31.941   2.802
16847W        W89107  42.017  40.398   4.077
16848W        W89108  17.803  31.349   3.277
16849W        W89109  31.076  40.908  10.809
16850W        W89110   1.438  17.708   0.976
16851W        W89111  17.314  27.209  14.856
16852W        W89112  26.505   3.254  13.993
16853W        W89113  20.556  14.947   4.480
16854W        W89114  32.434  42.676   0.432
16855W        W89115  40.778  43.452  10.616
16856W        W89116  32.022  38.674  14.408
16857W        W89117   9.353  34.220  12.573
16858W        W89118  23.196  22.576   1.804
16859W        W89119  41.300  35.937   4.663
16860W        W89120  28.719  27.664   3.643
16861W        W89121   4.445  12.775  14.871
16862W        W89122   0.701  40.924  13.072
16863W        W89123  21.797  18.990   5.403
16864W        W89124  22.453   1.996   3.792
16865W        W89125   0.458  34.679   1.259
16866W        W89126  36.893  38.043   3.208
16867W        W89127  23.913  25.986  11.897
16868W        W89128  41.738   6.917  10.702
16869W        W89129  17.159  21.184  10.619
16870W        W89130  40.676  31.331   4.240
16871W        W89131  13.153  15.592   0.004
16872W        W89132  27.952  16.272  13.614
16873W        W89133   4.851  32.154   1.904
16874W        W89134  41.427  26.430   0.768
16875W        W89135   5.718   4.034   1.838
16876W        W89136  27.158  29.684  14.876
16877W        W89137  28.449   9.871  14.512
16878W        W89138  15.188  30.870  10.552
16879W        W89139  21.297  23.167  12.876
16880W        W89140  17.404  27.971   3.158
16881W        W89141  13.054   5.315   1.157
16882W        W89142  33.846  32.448  12.833
16883W        W89143   0.947  44.083   0.838
16884W        W89144   6.259  23.188   2.638
16885W        W89145  26.239  26.610   4.039
16886W        W89146  42.984  33.884   4.577
16887W        W89147   6.773   2.240  10.737
16888W        W89148  25.211  37.641   4.623
16889W        W89149  40.308  23.491   2.295
16890W        W89150  43.490  35.161   0.927
16891W        W89151   5.811  44.051  12.962
16892W        W89152  29.158  18.625   0.451
16893W        W89153  11.239  10.836  13.903
16894W        W89154  26.049  23.872  12.012
16895W        W89155  31.159   0.280  13.450
16896W        W89156  18.250  21.694  14.847
16897W        W89157  23.073  23.536  14.317
16898W        W89158  22.443   0.923   1.532
16899W        W89159  10.873   7.401  10.758
16900W        W89160  24.145  10.706   0.509
16901W        W89161  34.448  20.308   3.151
16902W        W89162   8.377  10.900   2.228
16903W        W89163  15.325  39.718   1.277
16904W        W89164   6.156  32.903  14.044
16905W        W89165  28.499  32.241   4.168
16906W        W89166  10.673  30.726  13.104
16907W        W89167  37.606  21.143  11.173
16908W        W89168  32.178  10.296   4.619
16909W        W89169  16.282  11.169   0.823
16910W        W89170  27.901   9.618   4.693
16911W        W89171   8.230  23.883   0.843
16912W        W89172  12.146  24.545  14.124
16913W        W89173   1.477  36.562  14.047
16914W        W89174  21.970   9.703   2.694
16915W        W89175  43.861  21.949   2.460
16916W        W89176   6.502   5.336  13.908
16917W        W89177  21.154  28.254  11.930
16918W        W89178  31.910  41.287  11.137
16919W        W89179  25.173  43.313   2.196
16920W        W89180  25.433  34.623   0.197
16921W        W89181  20.191   3.272  11.892
16922W        W89182  16.025  13.222  12.833
16923W        W89183  28.655  42.276   3.754
16924W        W89184   4.393  44.894  14.055
16925W        W89185  32.943  10.331   1.419
16926W        W89186  36.170  34.080   1.764
16927W        W89187   8.837   5.283  13.608
16928W        W89188  35.635  22.887  13.795
16929W        W89189   0.060  15.651   4.193
16930W        W89190  31.927  35.469  12.048
16931W        W89191  35.529  12.322  10.754
16932W        W89192  25.222  26.244   4.195
16933W        W89193  21.912  42.766   2.084
16934W        W89194  18.565  16.743   4.641
16935W        W89195  40.503   6.274   0.895
16936W        W89196   4.648  29.585  12.830
16937W        W89197  39.934   1.344  11.232
16938W        W89198  30.948  34.740   9.787
16939W        W89199  25.186  27.106   4.173
16940W        W89200   7.276  14.185   4.724
16941W        W89201  32.473  35.445  12.910
16942W        W89202  24.200  43.324  13.300
16943W        W89203  44.364  11.670   3.765
16944W        W89204  38.436  34.627   1.357
16945W        W89205  32.776  35.338   3.811
16946W        W89206  28.038   3.806  14.571
16947W        W89207  40.357  35.522  12.549
16948W        W89208  24.880  41.918   0.728
16949W        W89209   8.935  29.877  13.045
16950W        W89210  15.058  42.760  13.086
16951W        W89211  16.520  39.908  12.911
16952W        W89212   6.263   1.789   1.759
16953W        W89213  26.959  10.418   1.340
16954W        W89214  14.345  22.028   3.939
16955W        W89215   1.377   6.375   1.839
16956W        W89216  24.178  32.558  12.390
16957W        W89217  26.420  23.760   1.293
16958W        W89218  29.966  22.198   4.495
16959W        W89219  12.729  12.967   0.441
16960W        W89220  18.579  13.785  14.446
16961W        W89221  18.883   1.420   2.216
16962W        W89222  17.632   7.982   5.178
16963W        W89223  29.232  16.852  13.843
16964W        W89224  39.923  24.705   4.758
16965W        W89225  18.292   5.309   0.979
16966W        W89226   6.730  24.231   2.659
16967W        W89227  29.139  13.589   1.390
16968W        W89228   0.880  37.546  11.648
16969W        W89229  24.184   8.878   2.987
16970W        W89230   1.799  43.454   3.203
16971W        W89231  33.594   6.606   0.861
16972W        W89232  38.341  29.614  12.147
16973W        W89233   1.580   0.080   0.380
16974W        W89234  26.861   4.823   9.891
16975W        W89235  39.485   9.400  12.526
16976W        W89236  17.513  35.605   3.967
16977W        W89237  28.699  29.435  11.313
16978W        W89238   0.377  28.659  12.861
16979W        W89239  40.879  14.281  10.667
16980W        W89240  34.637   7.664   2.396
16981W        W89241   4.609   6.334   1.588
16982W        W89242  17.494  27.106  12.596
16983W        W89243  23.701  13.998   2.538
16984W        W89244  20.732  22.456  12.619
16985W        W89245  39.702  10.140   2.284
16986W        W89246   1.563   6.769   2.207
16987W        W89247  20.816  42.609   1.740
16988W        W89248  42.054  16.099   2.312
16989W        W89249  20.283  20.310   2.226
16990W        W89250   1.271  36.094   0.146
16991W        W89251  37.955   0.506  12.066
16992W        W89252  40.323  29.561  11.539
16993W        W89253  19.219  36.481  14.303
16994W        W89254  28.692  36.396  14.260
16995W        W89255  16.299  40.061  12.454
16996W        W89256  43.691   4.280  13.042
16997W        W89257  31.008   3.951   2.089
16998W        W89258  26.390  44.439   0.432
16999W        W89259  42.217  41.121  14.311
17000W        W89260  24.597  43.510   0.840
17001W        W89261  32.225  44.718  12.274
17002W        W89262  14.196  39.984   3.092
17003W        W89263  27.065  38.258   1.382
17004W        W89264   6.679  26.385   1.221
17005W        W89265   6.254  43.723  11.127
17006W        W89266   6.146  19.946   4.197
17007W        W89267  17.840  41.326  11.854
17008W        W89268  19.301  25.134  14.759
17009W        W89269  33.688  18.566  11.636
17010W        W89270   5.773  27.693  14.361
17011W        W89271  23.411  34.392  13.755
17012W        W89272   2.347  15.279   4.268
17013W        W89273  26.572   7.981   3.178
17014W        W89274  39.453  25.401   4.558
17015W        W89275   8.189   8.372   4.547
17016W        W89276  32.962  30.675  10.763
17017W        W89277  37.520  38.116  14.463
17018W        W89278  44.067  19.128   0.775
17019W        W89279  31.806  11.098   1.250
17020W        W89280  19.910  15.568   2.809
17021W        W89281  20.036  30.419   1.833
17022W        W89282  37.567  29.012  13.507
17023W        W89283  39.774  39.768   4.260
17024W        W89284  19.658  16.082   4.611
17025W        W89285  27.408  13.588  13.019
17026W        W89286  31.059  25.990   4.149
17027W        W89287   9.288  43.944   1.002
17028W        W89288  44.745  10.902  10.448
17029W        W89289  15.341  27.184   0.033
17030W        W89290  40.260  33.362   3.944
17031W        W89291  13.785  42.595   4.131
17032W        W89292   0.314  16.395   2.552
17033W        W89293  30.070  14.658  10.952
17034W        W89294  44.658  21.292  12.229
17035W        W89295   0.031  41.234  11.980
17036W        W89296  35.967  42.204   2.838
17037W        W89297  44.917  18.092  12.613
17038W        W89298   5.074   4.662  12.332
17039W        W89299  41.790  31.365   0.780
17040W        W89300  16.247  42.745   4.704
17041W        W89301  30.414  12.258  11.108
17042W        W89302  23.797  44.009   2.392
17043W        W89303   1.891   3.074  13.129
17044W        W89304   1.728  21.645  11.545
17045W        W89305  25.056  20.541  14.051
17046W        W89306  43.164   7.963   0.979
17047W        W89307  32.311  11.244   4.099
17048W        W89308  38.039  24.257  11.543
17049W        W89309  18.110  29.022  10.957
17050W        W89310   6.446  39.945   1.937
17051W        W89311  17.137  30.743   4.341
17052W        W89312   6.175  33.527   3.628
17053W        W89313  44.705  23.076   1.321
17054W        W89314  13.272   2.415   0.256
17055W        W89315  38.405  35.109   1.584
17056W        W89316  17.473  32.616   2.194
17057W        W89317   9.973   7.221   3.663
17058W        W89318  26.949  42.110   2.388
17059W        W89319  14.123  12.952  11.906
17060W        W89320  12.261  11.835  10.981
17061W        W89321  40.421  18.358   1.179
17062W        W89322  34.493  17.050   0.675
17063W        W89323  23.208  17.868  12.754
17064W        W89324  15.090  41.757  13.231
17065W        W89325   2.664  22.236  14.249
17066W        W89326  40.558  30.842   1.704
17067W        W89327  36.339  39.011   1.482
17068W        W89328   4.361  37.043   3.627
17069W        W89329  22.080  35.746   0.516
17070W        W89330  44.056  20.658  12.569
17071W        W89331  35.508  35.949  14.359
17072W        W89332  18.087   6.020  12.589
17073W        W89333  22.616  20.448   9.893
17074W        W89334   4.434  43.568   3.788
17075W        W89335  35.015  15.611  11.560
17076W        W89336  26.571  20.077   0.237
17077W        W89337  43.614  15.134   2.453
17078W        W89338  10.580  22.981   4.102
17079W        W89339  44.543  36.887  13.217
17080W        W89340  42.029  28.216  12.348
17081W        W89341   5.388  31.903   2.823
17082W        W89342  15.754  33.173   4.717
17083W        W89343  26.581   7.274  14.978
17084W        W89344   4.012  35.809  12.006
17085W        W89345  17.174  44.409   1.392
17086W        W89346  26.459  44.066   4.189
17087W        W89347  19.176  22.316   1.169
17088W        W89348   8.325   5.264  14.282
17089W        W89349  18.139   3.832  12.065
17090W        W89350  33.693  30.215  14.460
17091W        W89351  23.016   0.744   4.621
17092W        W89352  12.699   4.761   2.180
17093W        W89353  37.961  38.848  14.357
17094W        W89354  12.287  14.827  11.202
17095W        W89355  36.264  16.138   1.723
17096W        W89356   2.491  12.219   2.311
17097W        W89357  24.403  40.908   3.302
17098W        W89358  37.021  14.819  12.798
17099W        W89359  42.439  18.158   0.944
17100W        W89360  39.372  42.976   0.400
17101W        W89361  38.344  41.896   0.372
17102W        W89362   6.263  10.804  14.989
17103W        W89363  43.860  19.697  14.364
17104W        W89364  10.261  43.500  13.897
17105W        W89365  18.859  28.007  12.603
17106W        W89366   5.945   2.871   0.826
17107W        W89367  15.729   6.341  11.549
17108W        W89368  10.176  42.212  13.156
17109W        W89369  33.393   1.489  13.329
17110W        W89370  21.367  29.009  14.047
17111W        W89371  24.450  23.816   4.645
17112W        W89372  40.385  38.067  14.967
17113W        W89373  11.174  23.070  12.168
17114W        W89374  33.066   2.521  11.160
17115W        W89375  36.071  26.047  10.510
17116W        W89376  24.275   7.168   1.045
17117W        W89377  13.234   2.685   0.767
17118W        W89378  10.853  31.674  14.288
17119W        W89379  24.719  15.201   0.764
17120W        W89380  20.029  10.429   3.262
17121W        W89381   5.378  36.426   2.325
17122W        W89382  39.606  26.568   1.264
17123W        W89383  11.801  34.018  13.473
17124W        W89384  41.393  21.743  12.046
17125W        W89385   1.333  15.927   1.166
17126W        W89386  20.162  43.697  12.472
17127W        W89387  28.477  44.393  12.030
17128W        W89388  22.168  42.357  14.389
17129W        W89389   9.768  25.243  11.075
17130W        W89390   3.254  34.332   4.557
17131W        W89391  16.568  24.551   3.086
17132W        W89392  27.837  23.724   4.718
17133W        W89393  20.008  18.608   4.288
17134W        W89394  23.791  26.039   5.470
17135W        W89395  36.954   2.743   4.596
17136W        W89396  12.250  26.473   3.769
17137W        W89397   3.026  22.741   0.514
17138W        W89398   5.827  23.006  13.051
17139W        W89399  41.294  20.922   0.317
17140W        W89400  44.870  17.672   4.899
17141W        W89401  35.453  40.270   1.906
17142W        W89402   7.335  25.896  13.821
17143W        W89403  41.098  26.272  10.888
17144W        W89404   9.677  25.624  12.933
17145W        W89405  42.185  36.600   4.002
17146W        W89406   1.451  19.581  11.104
17147W        W89407   4.361  44.981  13.541
17148W        W89408   4.501  34.881   1.676
17149W        W89409  19.678  33.270   0.483
17150W        W89410  39.996  12.336  11.055
17151W        W89411  19.752  15.419  12.853
17152W        W89412  18.224  44.864   1.401
17153W        W89413  29.591  38.909   2.659
17154W        W89414   8.914   8.766   0.387
17155W        W89415   7.058  43.888  13.508
17156W        W89416  23.714   3.486   4.191
17157W        W89417  18.724  26.145   0.210
17158W        W89418  13.327  27.979  11.503
17159W        W89419   5.939  38.384   4.640
17160W        W89420  37.420  41.962   3.705
17161W        W89421   5.560  18.019  12.092
17162W        W89422  17.239  36.906   4.579
17163W        W89423   3.254   2.281  12.075
17164W        W89424  24.592  37.973   4.364
17165W        W89425  14.278  21.259   4.562
17166W        W89426  30.730  42.369   2.371
17167W        W89427  23.351  18.234  13.696
17168W        W89428  23.543  23.607   4.949
17169W        W89429  37.402  10.692  12.572
17170W        W89430  40.077  26.721  12.629
17171W        W89431   6.115  10.812   1.759
17172W        W89432  41.864   7.259   2.075
17173W        W89433  31.420  40.279   4.055
17174W        W89434  30.460  36.468   2.902
17175W        W89435  11.761  25.676  13.418
17176W        W89436   5.689   3.678  14.288
17177W        W89437  16.924  30.018   0.889
17178W        W89438  29.451  32.502   1.323
17179W        W89439  40.517  40.355   2.355
17180W        W89440  38.680  42.632   4.191
17181W        W89441  15.127  16.500  14.803
17182W        W89442  17.545  27.362  11.424
17183W        W89443   8.360  18.895   0.394
17184W        W89444  20.870   6.874  13.663
17185W        W89445  27.392  42.960   3.330
17186W        W89446   1.958   3.477  14.380
17187W        W89447   7.653  36.562   2.974
17188W        W89448   9.771  27.934  11.938
17189W        W89449  18.999   9.071  12.869
17190W        W89450  42.528  42.787   4.539
17191W        W89451   3.640  25.174   3.656
17192W        W89452  27.096  35.375   1.378
17193W        W89453  37.568   7.726   2.431
17194W        W89454   5.380  32.592   1.126
17195W        W89455  19.153   1.526  12.016
17196W        W89456  34.790   8.635   3.320
17197W        W89457  17.540  27.089   1.939
17198W        W89458   2.485  23.799  14.995
17199W        W89459   5.729  44.048  11.516
17200W        W89460  33.595  44.017  11.544
17201W        W89461  31.998  25.261  10.819
17202W        W89462  28.145  30.431  12.011
17203W        W89463  16.020  36.876  11.261
17204W        W89464   0.004  27.857   1.877
17205W        W89465   6.928  25.330   1.556
17206W        W89466  24.118  42.546   3.195
17207W        W89467  30.184  37.530   1.844
17208W        W89468  24.403  37.086   3.644
17209W        W89469  28.922  31.900  13.400
17210W        W89470  37.463  27.616   1.395
17211W        W89471  17.618  24.426   2.949
17212W        W89472  13.937  38.534   1.382
17213W        W89473  36.996  41.247   4.693
17214W        W89474  39.098  27.137   4.965
17215W        W89475  21.745  23.641  12.063
17216W        W89476  28.709  39.552   2.891
17217W        W89477   8.752  17.740  11.566
17218W        W89478  11.228  24.389  11.095
17219W        W89479  42.483  28.305   0.745
17220W        W89480   7.703   6.556  14.098
17221W        W89481   1.451  33.662  14.912
17222W        W89482  43.048   6.859   4.755
17223W        W89483  31.918  16.213   4.400
17224W        W89484  26.979  19.044   1.782
17225W        W89485  40.634  41.905   4.844
17226W        W89486   0.749  17.985  14.426
17227W        W89487  33.731   5.270   3.552
17228W        W89488  38.583   4.944  11.591
17229W        W89489   2.516   9.699   1.414
17230W        W89490   9.655   8.801  13.451
17231W        W89491  33.550  13.364   2.212
17232W        W89492  34.010  33.703  12.392
17233W        W89493  26.627   7.122  10.644
17234W        W89494  34.775  14.424   0.773
17235W        W89495  30.013  44.260   1.687
17236W        W89496  11.991  34.344  11.576
17237W        W89497  33.046  27.951   3.250
17238W        W89498  43.143  17.971   1.819
17239W        W89499  15.207  41.544  11.065
17240W        W89500  15.265  36.169  10.304
17241W        W89501  17.562  25.821  11.347
17242W        W89502  14.024  44.734  13.101
17243W        W89503  32.839  38.954  10.449
17244W        W89504  28.899  15.447  11.104
17245W        W89505  31.603  44.733  11.548
17246W        W89506  28.021  32.173  14.394
17247W        W89507  26.242   7.053  11.847
17248W        W89508  10.672  19.140   1.205
17249W        W89509  31.769   1.547   2.301
17250W        W89510   4.904  27.943  13.902
17251W        W89511   0.868  21.671   3.447
17252W        W89512   5.119  41.722  10.771
17253W        W89513  10.401   4.996  13.834
17254W        W89514   5.936  12.259  11.603
17255W        W89515  29.427   8.909   4.164
17256W        W89516  31.731  26.022  11.548
17257W        W89517  36.497  38.389  13.336
17258W        W89518  18.082  31.671   4.231
17259W        W89519  19.301  36.043   1.957
17260W        W89520   7.452  10.633   4.465
17261W        W89521  14.320  26.501  11.079
17262W        W89522  26.609   6.642   2.792
17263W        W89523   8.095  44.224  12.317
17264W        W89524  12.216  30.119   4.599
17265W        W89525  28.943  44.278   0.889
17266W        W89526  35.505  36.955   2.858
17267W        W89527   5.369  38.009  14.460
17268W        W89528   3.705   6.258   3.214
17269W        W89529  19.009  28.191  11.756
17270W        W89530  21.762   2.388   3.206
17271W        W89531  20.234  11.324  13.915
17272W        W89532  20.257  28.019   1.191
17273W        W89533  12.200  13.156  11.417
17274W        W89534  13.217  11.750   0.306
17275W        W89535  23.969   5.416   2.454
17276W        W89536  22.051  15.692   1.279
17277W        W89537  11.763  28.904   1.420
17278W        W89538   1.687  35.175   3.179
17279W        W89539  13.603  41.342   2.116
17280W        W89540  39.482  41.548   4.966
17281W        W89541  10.821   5.915   1.237
17282W        W89542  40.950  41.620   0.220
17283W        W89543  17.675  23.706   4.765
17284W        W89544  16.169  12.576   2.315
17285W        W89545  16.622   9.881   3.197
17286W        W89546   7.171  23.508   1.349
17287W        W89547  38.409  27.375   0.025
17288W        W89548  14.070  34.830   1.841
17289W        W89549  20.932  36.477  11.613
17290W        W89550  33.684  37.513  12.646
17291W        W89551  15.618   6.842   3.076
17292W        W89552   8.292  22.526  13.861
17293W        W89553  27.382   9.153   0.415
17294W        W89554   4.413  41.285   0.476
17295W        W89555  17.090  20.743   1.636
17296W        W89556   3.152  26.628   2.654
17297W        W89557   8.847  19.965   1.207
17298W        W89558  15.795   3.981  14.960
17299W        W89559  24.596  20.782  13.887
17300W        W89560  25.150  34.981  12.679
17301W        W89561  22.235  11.725  14.319
17302W        W89562  17.254  31.891  10.633
17303W        W89563  17.973  20.247   4.440
17304W        W89564  40.539  19.631   4.064
17305W        W89565  24.992   2.150  14.709
17306W        W89566  32.835   2.746  14.990
17307W        W89567  17.294  12.235   1.425
17308W        W89568   3.279  26.561   3.562
17309W        W89569   4.997  41.301   2.388
17310W        W89570  25.765  38.231  13.065
17311W        W89571  32.896  31.327  14.907
17312W        W89572  29.126  38.810   2.873
17313W        W89573  29.553  40.011   4.612
17314W        W89574  16.329  18.679  11.079
17315W        W89575  27.620  13.192  11.220
17316W        W89576  29.157  38.690   4.515
17317W        W89577  35.993  20.389  14.556
17318W        W89578  18.705  42.945   0.170
17319W        W89579  14.122   1.909  11.418
17320W        W89580   1.841   9.129  11.184
17321W        W89581  28.032  21.228  13.123
17322W        W89582  21.067  41.918   0.814
17323W        W89583  21.230  33.031  14.868
17324W        W89584   1.812  25.187  13.057
17325W        W89585  16.073   6.343  11.132
17326W        W89586  14.821  34.403  14.311
17327W        W89587  32.497  43.944  13.803
17328W        W89588  38.996  22.636  11.571
17329W        W89589  25.783  16.773   0.161
17330W        W89590  28.250  21.785   2.113
17331W        W89591  12.267  39.328   1.874
17332W        W89592   6.894   3.703   3.787
17333W        W89593  25.029  33.975  14.435
17334W        W89594  24.517  27.480  10.105
17335W        W89595  13.732  41.980  11.571
17336W        W89596  27.173  22.993   0.314
17337W        W89597  28.018  30.635  14.972
17338W        W89598   2.954  32.483  12.463
17339W        W89599  11.184  21.275   1.877
17340W        W89600  22.805  36.019   4.914
17341W        W89601  34.394  11.259   2.603
17342W        W89602   3.877   6.486   3.642
17343W        W89603  17.511  34.531  10.611
17344W        W89604  29.146   1.297  13.505
17345W        W89605   7.917  36.569  14.596
17346W        W89606  21.745  24.473   1.289
17347W        W89607  19.647   0.014  11.443
17348W        W89608  24.217  34.609   3.521
17349W        W89609   9.750  15.551  12.951
17350W        W89610  37.676  42.069   1.461
17351W        W89611  18.973   6.109   1.208
17352W        W89612  26.346  39.247  13.011
17353W        W89613  41.370  35.743  11.825
17354W        W89614  20.130  43.909   2.215
17355W        W89615  41.563   4.845   3.765
17356W        W89616  32.124  13.019   4.040
17357W        W89617  34.380  31.809  11.047
17358W        W89618  34.486  31.151   2.831
17359W        W89619   1.958  16.264   1.924
17360W        W89620  23.455  38.466  12.450
17361W        W89621  33.393  19.864  11.996
17362W        W89622   2.550  28.506   1.538
17363W        W89623   9.434  30.365   4.216
17364W        W89624  17.101  27.037   4.173
17365W        W89625  31.134  25.063  12.046
17366W        W89626  40.412  10.847   4.175
17367W        W89627  10.921  44.922   2.255
17368W        W89628   5.231  35.485  10.523
17369W        W89629   0.385  16.112   1.211
17370W        W89630  23.689   8.977  12.315
17371W        W89631  10.105  42.269   3.124
17372W        W89632  26.324  30.707  14.897
17373W        W89633  25.233  23.098  13.421
17374W        W89634   8.404  34.878  12.812
17375W        W89635  33.754  20.131  14.999
17376W        W89636  32.450  13.273  12.055
17377W        W89637  22.647   7.366   3.147
17378W        W89638   9.909  41.910  12.848
17379W        W89639   5.835   2.996   1.700
17380W        W89640   1.307  36.929  13.017
17381W        W89641  35.620  39.878  14.813
17382W        W89642  39.116  42.399  13.683
17383W        W89643   6.178  40.563   4.229
17384W        W89644  10.609   8.340  12.865
17385W        W89645  44.150  28.249   5.211
17386W        W89646  24.533  13.036  10.495
17387W        W89647  24.639  24.774  12.018
17388W        W89648  43.238  24.984  13.431
17389W        W89649  26.204   3.425   4.565
17390W        W89650   0.149  30.041   0.815
17391W        W89651  38.046  15.676   2.136
17392W        W89652   1.041  31.608  11.641
17393W        W89653   8.970  42.794   2.418
17394W        W89654  25.164  43.405   1.664
17395W        W89655   3.730  10.296   0.213
17396W        W89656  30.189  38.070   1.943
17397W        W89657  39.664  25.432   0.929
17398W        W89658  21.326  42.408   4.129
17399W        W89659  42.413  17.970  12.012
17400W        W89660  31.196  43.320   0.233
17401W        W89661  30.055  40.518  14.818
17402W        W89662  38.380  33.033   1.016
17403W        W89663  20.085  39.410   2.749
17404W        W89664  20.483  16.419  11.551
17405W        W89665  14.127   3.852   4.559
17406W        W89666  17.292  14.183   4.036
17407W        W89667  25.182   0.465   2.526
17408W        W89668  21.209  41.171  10.710
17409W        W89669   7.652  10.089   3.237
17410W        W89670  40.317  36.061  11.030
17411W        W89671  33.667  38.117   0.405
17412W        W89672  43.284  25.605  10.849
17413W        W89673   3.031   1.812  12.062
17414W        W89674  26.128  44.199  14.999
17415W        W89675  44.364  37.376   0.209
17416W        W89676  12.906  31.746  11.273
17417W        W89677  13.120   3.616  10.270
17418W        W89678  32.465  40.772  10.813
17419W        W89679  28.923   1.874   3.707
17420W        W89680  21.720  15.585  10.992
17421W        W89681  20.368  20.721   5.077
17422W        W89682  40.915   6.768  10.663
17423W        W89683  14.712   1.966   3.684
17424W        W89684  11.718  14.902  14.948
17425W        W89685  23.633  14.657  12.990
17426W        W89686  24.195   2.242   1.914
17427W        W89687   1.725  22.971   1.256
17428W        W89688  26.593  24.437   4.347
17429W        W89689  43.891  41.046   1.352
17430W        W89690  24.987   5.296   4.867
17431W        W89691  39.001  28.033   2.290
17432W        W89692  37.431  43.951   0.366
17433W        W89693  37.568  10.682   1.993
17434W        W89694  29.479  31.534   1.472
17435W        W89695  18.235  39.204  13.034
17436W        W89696  22.193  30.520  10.755
17437W        W89697   4.156   6.857  14.293
17438W        W89698  18.247  11.796  11.487
17439W        W89699  42.994   0.781   2.634
17440W        W89700  24.137   1.245  11.658
17441W        W89701  28.234  27.193  10.252
17442W        W89702  15.565  35.524   2.633
17443W        W89703   2.466  41.318   0.699
17444W        W89704  41.875  13.049   0.954
17445W        W89705  31.660  22.039   0.338
17446W        W89706   7.322  19.314   1.648
17447W        W89707  14.171   7.765   4.928
17448W        W89708  44.701  18.327   0.140
17449W        W89709   4.367  19.062  14.338
17450W        W89710  34.369   2.519   0.781
17451W        W89711  21.746  14.227  10.979
17452W        W89712   6.413  43.963  14.303
17453W        W89713  19.057  36.121  10.912
17454W        W89714  24.725  10.276  13.616
17455W        W89715  24.341  23.698   2.878
17456W        W89716  43.364  14.070   2.721
17457W        W89717  16.701  11.061  14.990
17458W        W89718  27.061  10.916   0.427
17459W        W89719   5.976  11.138  14.319
17460W        W89720   2.785   9.248   1.271
17461W        W89721  10.935   9.620   3.212
17462W        W89722   6.967  39.321  10.832
17463W        W89723   9.795   5.981  10.807
17464W        W89724   7.256  19.071  10.511
17465W        W89725   4.796  29.816  12.404
17466W        W89726  13.847  16.149  13.032
17467W        W89727  43.525  29.932  14.515
17468W        W89728  10.248  28.139   0.955
17469W        W89729  15.282  32.404  13.861
17470W        W89730  24.469   4.746   2.822
17471W        W89731  40.492  37.616   4.552
17472W        W89732  34.625  23.265  11.593
17473W        W89733   2.676  10.333   1.048
17474W        W89734  38.616   8.469   3.206
17475W        W89735  19.113   9.259  11.505
17476W        W89736  17.560  35.359   2.558
17477W        W89737  11.650  14.265  13.939
17478W        W89738  11.470  44.612  11.600
17479W        W89739  13.178  25.232   0.085
17480W        W89740  21.544  28.503   0.640
17481W        W89741  33.028  34.466   4.653
17482W        W89742  27.940  31.713   1.206
17483W        W89743   7.109   1.517  11.209
17484W        W89744  21.367  24.442   3.331
17485W        W89745  40.329  17.014  11.783
17486W        W89746  10.397  38.398  14.802
17487W        W89747  30.966  28.885   2.939
17488W        W89748  14.363  40.277   4.142
17489W        W89749  12.722   5.004  11.120
17490W        W89750  42.024  34.877   3.110
17491W        W89751  41.883  43.960   1.860
17492W        W89752  34.207   7.813  14.318
17493W        W89753  35.842  42.431  13.142
17494W        W89754   1.708   8.709  13.510
17495W        W89755  33.988  12.793   2.734
17496W        W89756  16.597  26.596   1.247
17497W        W89757  31.028  32.937   1.597
17498W        W89758  33.130  29.168   3.477
17499W        W89759   7.390   2.479  12.903
17500W        W89760  24.591  23.683   0.235
17501W        W89761  20.234   1.336  13.410
17502W        W89762  26.801  42.705  11.265
17503W        W89763  31.492  14.445  10.495
17504W        W89764   3.397  18.543   2.811
17505W        W89765  15.305  11.858  11.565
17506W        W89766  15.614  26.718   4.131
17507W        W89767  27.040   7.228   4.919
17508W        W89768  32.491   7.663   3.867
17509W        W89769  22.782  38.900   4.565
17510W        W89770  14.223  21.521   1.511
17511W        W89771   3.242  10.105  12.427
17512W        W89772  34.412  12.297   1.435
17513W        W89773  11.904  21.248   0.917
17514W        W89774  25.614   7.639   1.232
17515W        W89775  31.600  21.101  11.352
17516W        W89776  29.985  37.583   4.742
17517W        W89777  11.693  18.767   3.906
17518W        W89778  35.244   5.187   0.886
17519W        W89779  40.485   9.530   0.013
17520W        W89780  41.791  25.489   0.780
17521W        W89781   2.304  37.486  12.100
17522W        W89782  28.226   1.709  11.570
17523W        W89783  38.391   4.443  13.341
17524W        W89784  10.590  34.447   4.258
17525W        W89785  15.801  42.364  13.171
17526W        W89786  23.718  38.484  11.996
17527W        W89787  26.907  44.809  13.868
17528W        W89788  34.061   0.262   1.910
17529W        W89789  11.572   6.926   3.286
17530W        W89790   1.241  33.536  11.470
17531W        W89791  44.618  27.425  10.360
17532W        W89792   4.014   6.370  13.167
17533W        W89793  12.452   0.414   1.465
17534W        W89794   3.868  40.729  11.409
17535W        W89795  36.110  24.983  14.106
17536W        W89796  39.095  27.829   1.809
17537W        W89797   2.387  13.313   0.983
17538W        W89798  34.661   3.627   1.760
17539W        W89799  34.383  43.088   1.805
17540W        W89800  34.957  42.582   1.373
17541W        W89801  41.771  28.003  12.743
17542W        W89802  38.401  39.639  14.561
17543W        W89803  25.031  13.219   1.442
17544W        W89804  36.043  12.550  11.744
17545W        W89805  24.166  32.443  14.800
17546W        W89806  25.904  41.493   0.745
17547W        W89807  34.202  17.955  10.279
17548W        W89808   1.382  19.884   4.575
17549W        W89809  44.875  34.986  11.145
17550W        W89810  11.651  44.655   4.960
17551W        W89811  21.206  23.780  13.974
17552W        W89812   2.272   1.470  14.730
17553W        W89813  29.538   4.260   2.790
17554W        W89814   2.162  14.738   3.636
17555W        W89815   0.365  33.368  11.454
17556W        W89816  27.090  37.111   1.363
17557W        W89817  23.196   8.315   3.435
17558W        W89818  25.139  10.747   1.472
17559W        W89819  15.663  17.222  12.414
17560W        W89820  24.441  15.815  11.639
17561W        W89821   9.309  23.770  12.861
17562W        W89822   5.216  23.678   0.953
17563W        W89823  36.632  24.516   0.367
17564W        W89824   8.987  15.790  10.618
17565W        W89825  21.080  23.015   0.077
17566W        W89826   1.875  44.007  13.339
17567W        W89827  40.384  30.588   3.664
17568W        W89828  34.963  28.083   0.794
17569W        W89829  38.890   5.211   1.202
17570W        W89830   5.378   8.687   1.327
17571W        W89831  11.632  22.608   0.661
17572W        W89832  29.660   6.257   2.769
17573W        W89833   9.683  26.110  11.895
17574W        W89834  27.595  17.247   0.475
17575W        W89835  20.573  18.796   3.429
17576W        W89836  15.710   2.753  13.571
17577W        W89837  27.057   4.025   1.721
17578W        W89838   2.956  39.502  13.509
17579W        W89839  32.587   8.330  14.021
17580W        W89840  20.595  40.800   3.445
17581W        W89841  25.163  17.718  13.058
17582W        W89842  40.486   9.410   3.293
17583W        W89843  24.982  21.613   2.736
17584W        W89844   7.258  10.391  12.539
17585W        W89845  41.703   2.539   0.613
17586W        W89846  33.076  37.775   2.788
17587W        W89847  12.401   3.386   5.060
17588W        W89848  23.769  20.624  12.074
17589W        W89849  13.819  42.841   1.846
17590W        W89850  11.817   8.157   1.311
17591W        W89851  22.893  32.712   2.818
17592W        W89852   3.400   0.439   0.764
17593W        W89853  18.855  36.141  14.446
17594W        W89854  38.411  11.076   2.325
17595W        W89855  29.112  32.166  14.865
17596W        W89856  39.905  43.632  12.436
17597W        W89857  35.405  23.053  13.327
17598W        W89858   2.808  30.055  14.034
17599W        W89859  39.007  14.289  10.556
17600W        W89860  31.588   3.820   0.854
17601W        W89861  41.686  31.999   4.614
17602W        W89862  22.567   3.161   1.117
17603W        W89863   6.789   1.383   4.179
17604W        W89864  35.030  23.916   1.821
17605W        W89865  35.920  13.418   0.286
17606W        W89866  19.333  28.640  14.928
17607W        W89867  16.183  43.249  13.512
17608W        W89868  44.945  26.973  13.835
17609W        W89869  41.862  21.251   2.869
17610W        W89870  28.417  20.116   2.213
17611W        W89871  32.069  37.169  11.675
17612W        W89872   4.535   5.224  10.617
17613W        W89873  18.543   2.123  14.331
17614W        W89874  31.868  43.468   3.299
17615W        W89875   0.893  21.057   3.187
17616W        W89876  42.482  39.609  14.470
17617W        W89877  12.493  27.881   5.497
17618W        W89878   4.713  25.368  14.766
17619W        W89879   2.508   6.061  10.218
17620W        W89880  31.422  25.022  11.620
17621W        W89881  30.417  22.562  13.803
17622W        W89882  44.866  36.004   4.592
17623W        W89883  42.046  12.140   3.320
17624W        W89884  17.242  29.546   2.903
17625W        W89885  34.044  26.441   0.864
17626W        W89886   4.536  40.696   1.071
17627W        W89887  12.831  42.319  13.086
17628W        W89888  29.089  32.037   3.307
17629W        W89889  40.752  28.919  10.743
17630W        W89890  29.816  12.752  13.908
17631W        W89891   9.414  11.675   0.053
17632W        W89892   7.227  44.333  14.743
17633W        W89893  35.067  20.575   0.491
17634W        W89894  41.448  13.759  10.996
17635W        W89895  26.226  13.828   4.702
17636W        W89896  22.039   3.829  14.382
17637W        W89897   8.148   8.047  14.973
17638W        W89898  26.398  43.604  11.645
17639W        W89899  21.219   7.466  12.968
17640W        W89900  28.304  12.193   3.634
17641W        W89901  32.432  13.671   2.916
17642W        W89902  26.905  19.479  14.253
17643W        W89903  26.497  13.963  14.725
17644W        W89904  29.067   3.355  13.080
17645W        W89905  13.892  10.730  13.291
17646W        W89906  35.853  38.467   4.596
17647W        W89907  29.054  34.153  12.875
17648W        W89908   0.217  14.576  11.143
17649W        W89909  18.137  38.133  12.062
17650W        W89910  31.098  19.052  13.279
17651W        W89911  33.316  24.009  14.245
17652W        W89912   4.200   5.794  14.855
17653W        W89913  12.748  33.786  13.505
17654W        W89914  23.653  18.041   2.843
17655W        W89915   9.597   1.598  14.408
17656W        W89916  28.198  29.944  10.704
17657W        W89917  23.733   3.031   1.873
17658W        W89918   4.616  38.443   0.772
17659W        W89919  33.073  43.258   1.885
17660W        W89920  22.078   4.795  14.576
17661W        W89921  33.124  28.644   0.812
17662W        W89922  43.754   0.780  14.339
17663W        W89923  21.001  26.412   1.412
17664W        W89924  20.323  38.352  12.986
17665W        W89925  38.846   2.045  10.274
17666W        W89926  15.711  23.460   3.661
17667W        W89927  28.689  18.630  12.526
17668W        W89928   4.269   8.377  11.986
17669W        W89929  35.883  34.921   3.224
17670W        W89930  11.766  14.076   2.728
17671W        W89931  37.038  13.509  11.077
17672W        W89932  17.519  13.590  12.693
17673W        W89933  32.564  27.422  13.028
17674W        W89934  19.050  18.791  11.757
17675W        W89935  23.005  28.231   2.373
17676W        W89936  12.634   8.395  14.232
17677W        W89937  21.270  20.475  14.495
17678W        W89938  14.528   4.893  12.199
17679W        W89939  34.132  26.857   2.617
17680W        W89940  33.572   0.355  14.852
17681W        W89941  18.304  30.596  14.461
17682W        W89942  10.701  40.728  14.841
17683W        W89943  34.793  17.363   1.420
17684W        W89944  13.580   6.241  14.015
17685W        W89945   6.166   1.329  11.355
17686W        W89946  33.188  44.322  11.451
17687W        W89947  10.218  23.492  10.764
17688W        W89948  17.510   4.374  14.794
17689W        W89949  13.310  14.655   0.425
17690W        W89950  44.062  24.673  11.589
17691W        W89951  27.120  16.180  10.608
17692W        W89952  32.588  34.044   0.858
17693W        W89953  34.637  32.697   0.358
17694W        W89954  26.635   4.203  13.948
17695W        W89955   6.341  25.934   0.249
17696W        W89956  12.337  21.007  14.217
17697W        W89957  40.397  34.033  12.060
17698W        W89958   9.441  23.151  13.041
17699W        W89959  33.899  38.779  10.604
17700W        W89960  23.063  30.671   4.680
17701W        W89961  27.508  14.258   4.167
17702W        W89962  28.202  16.947  13.904
17703W        W89963  22.195  17.027   2.174
17704W        W89964  23.159   8.767   4.719
17705W        W89965  23.099  41.474  14.717
17706W        W89966  16.746  39.289   4.259
17707W        W89967   7.718  24.852  13.107
17708W        W89968  29.208   7.330  13.532
17709W        W89969  28.067  21.795   4.595
17710W        W89970   9.333   3.171  14.586
17711W        W89971  44.835   1.715  14.720
17712W        W89972  25.101  19.522  14.039
17713W        W89973  11.649  32.093   4.160
17714W        W89974  37.738  43.553   0.584
17715W        W89975  33.938  38.548   3.934
17716W        W89976  26.783  42.552   3.843
17717W        W89977   4.724  16.593   1.247
17718W        W89978  36.168  36.963  10.848
17719W        W89979   9.783  24.479  14.893
17720W        W89980  13.859  29.441  13.457
17721W        W89981  11.061  26.293  11.089
17722W        W89982  19.768  35.770  14.453
17723W        W89983  30.666  36.932   4.293
17724W        W89984  22.690  12.394  13.077
17725W        W89985  23.161  24.072   1.800
17726W        W89986  36.828   8.262  14.864
17727W        W89987  26.056  38.710   0.381
17728W        W89988  29.231  22.107   2.680
17729W        W89989   7.278  19.961   2.234
17730W        W89990  29.716   1.517   3.797
17731W        W89991  33.807  41.362  10.583
17732W        W89992  20.737  32.531  14.513
17733W        W89993  12.173  16.359   2.696
17734W        W89994  20.759  20.556  14.551
17735W        W89995  42.270  15.232  13.505
17736W        W89996  10.565  17.562   1.241
17737W        W89997   8.765  16.137  14.954
17738W        W89998  34.303  18.445   0.065
17739W        W89999  40.511  24.038   0.838
17740W        W90000  39.875  43.981   1.409
17741W        W90001  41.892   8.602   4.280
17742W        W90002  19.054  34.516   2.502
17743W        W90003  22.108  36.021  12.396
17744W        W90004  42.923  16.629   2.255
17745W        W90005   1.584  17.222  12.873
17746W        W90006  21.098   5.792  11.404
17747W        W90007  25.576  31.732   3.103
17748W        W90008  26.320   8.508  11.945
17749W        W90009   9.974  16.335  12.660
17750W        W90010  14.372  44.710  14.067
17751W        W90011  40.384  40.636   3.697
17752W        W90012  32.414  41.247   0.831
17753W        W90013  37.896  23.840   2.405
17754W        W90014  23.911  40.237  14.351
17755W        W90015   7.360  10.127   3.695
17756W        W90016  21.451   3.191  11.201
17757W        W90017  24.601  15.731  13.828
17758W        W90018  33.911   8.855  11.516
17759W        W90019  14.263  38.030  11.409
17760W        W90020   5.215   1.904   3.569
17761W        W90021  13.986   3.420   3.161
17762W        W90022  24.264   7.510   1.441
17763W        W90023  32.865  38.516   3.992
17764W        W90024  16.751   2.415  14.916
17765W        W90025   3.401  14.552   3.751
17766W        W90026   6.817  41.669  13.856
17767W        W90027  36.124  33.612   3.831
17768W        W90028  42.492   5.290  11.382
17769W        W90029  37.295   2.459  14.823
17770W        W90030  23.064   3.606   1.883
17771W        W90031  41.587  10.126  12.529
17772W        W90032   6.425  15.637   3.533
17773W        W90033  38.646  31.515  14.361
17774W        W90034  39.659  35.240  14.384
17775W        W90035  22.775   0.269  13.353
17776W        W90036  31.144   2.862   4.293
17777W        W90037  30.523   6.804   3.759
17778W        W90038  40.934  20.507   1.854
17779W        W90039   0.399  33.412  12.614
17780W        W90040   7.931   1.815  10.874
17781W        W90041  23.971  31.995  14.039
17782W        W90042  23.081  26.376   0.456
17783W        W90043  44.739  16.178  14.976
17784W        W90044  22.007   2.906  12.588
17785W        W90045  23.985  32.495  10.511
17786W        W90046   3.361  10.549   0.471
17787W        W90047  41.541  22.252  14.874
17788W        W90048   5.268  34.912   1.157
17789W        W90049  17.295  18.232   3.662
17790W        W90050  14.580   3.980   3.760
17791W        W90051   9.701   8.916   4.920
17792W        W90052   1.260  21.200  14.482
17793W        W90053   7.272   5.067   3.158
17794W        W90054  23.009  34.445   3.184
17795W        W90055   6.208   4.088   4.258
17796W        W90056  30.101  44.325  12.972
17797W        W90057  42.522  44.375  13.938
17798W        W90058  23.312  37.892   3.774
17799W        W90059  42.439  13.215  10.748
17800W        W90060  27.096  31.373  11.173
17801W        W90061  36.543  36.706   4.894
17802W        W90062  44.772  24.237  12.372
17803W        W90063  30.530  10.455   0.021
17804W        W90064   5.603  28.168   4.159
17805W        W90065   5.123   7.195   1.580
17806W        W90066  24.611  28.543   0.366
17807W        W90067  35.332  23.971   1.406
17808W        W90068  44.914  40.028  14.789
17809W        W90069  21.324  39.896   3.862
17810W        W90070   4.971   4.426  11.128
17811W        W90071  38.812   9.622   4.567
17812W        W90072   8.461  37.772   2.721
17813W        W90073  15.817  35.435   1.311
17814W        W90074  40.827  13.720  12.643
17815W        W90075  17.944  39.573   3.358
17816W        W90076  11.380  43.412  14.510
17817W        W90077  43.693  16.011  13.251
17818W        W90078  16.478  20.589   1.203
17819W        W90079  10.427  36.293   1.315
17820W        W90080  14.255  39.416  11.447
17821W        W90081  27.847   8.369   3.270
17822W        W90082  39.179  38.810   5.019
17823W        W90083   5.122  39.304  12.453
17824W        W90084  41.484  33.869   4.545
17825W        W90085  22.793  43.296  13.790
17826W        W90086   0.573  14.228   1.724
17827W        W90087  25.201  18.736  12.471
17828W        W90088  21.924  39.880  12.413
17829W        W90089  36.154  26.066   3.666
17830W        W90090  39.710  23.126   2.831
17831W        W90091   3.838  34.623  11.360
17832W        W90092  32.890  31.935  11.082
17833W        W90093  18.557   9.857  10.196
17834W        W90094  21.183  36.678   3.742
17835W        W90095  16.154   5.465  11.102
17836W        W90096  25.205  40.888   1.819
17837W        W90097  41.585  17.775  10.561
17838W        W90098  14.248  28.354  13.250
17839W        W90099  15.988  11.429  10.611
17840W        W90100  32.364  14.990   2.651
17841W        W90101   7.198  43.980   2.595
17842W        W90102  20.738  20.331  13.122
17843W        W90103  17.129   1.003   1.892
17844W        W90104  17.505  39.831  14.102
17845W        W90105  12.799  38.853   2.286
17846W        W90106  37.694  10.080   4.222
17847W        W90107  12.270  31.135  13.851
17848W        W90108  19.175  44.349   1.980
17849W        W90109  25.619  19.733  13.290
17850W        W90110  18.248  37.743   4.083
17851W        W90111  12.254  23.754   4.913
17852W        W90112  44.366  38.486   0.345
17853W        W90113  39.092  40.078   4.579
17854W        W90114  30.420  20.526  11.519
17855W        W90115  44.349   3.737   1.181
17856W        W90116  17.169  41.622  11.602
17857W        W90117  32.894  39.975  10.745
17858W        W90118  33.944   7.278   1.041
17859W        W90119  21.025   3.341  13.916
17860W        W90120  21.258  28.871   1.236
17861W        W90121   7.599  16.259  12.489
17862W        W90122  20.541   7.857   0.687
17863W        W90123  41.454  12.579  12.951
17864W        W90124  28.477  13.725  13.016
17865W        W90125  30.762  37.606   3.176
17866W        W90126  34.415  19.883   4.941
17867W        W90127   4.424  28.656   0.316
17868W        W90128  44.850  14.291   4.960
17869W        W90129  12.439  35.985   4.113
17870W        W90130  32.531  27.875   3.125
17871W        W90131  25.034  21.052  14.031
17872W        W90132  13.173  29.660   0.422
17873W        W90133  33.174  21.652   0.286
17874W        W90134   5.750  22.982   1.788
17875W        W90135  12.594  22.834  14.817
17876W        W90136  35.313  26.952   1.383
17877W        W90137  43.762  28.549  10.561
17878W        W90138  16.836  11.623   1.738
17879W        W90139   8.351  14.227  10.717
17880W        W90140  13.379  31.382  13.242
17881W        W90141  27.429  36.600   3.796
17882W        W90142  32.911  30.067  13.334
17883W        W90143   1.276  11.094  13.911
17884W        W90144  38.022  31.496   2.486
17885W        W90145  37.263  11.642   4.083
17886W        W90146  17.181   7.752   5.357
17887W        W90147  23.717  32.735  12.534
17888W        W90148   1.781  43.407   4.059
17889W        W90149   9.835   5.463  14.889
17890W        W90150   6.163  34.521  12.531
17891W        W90151  21.699  34.581  12.000
17892W        W90152  24.996  37.610   1.303
17893W        W90153  17.632  27.517  11.931
17894W        W90154   6.249  27.476   0.437
17895W        W90155  34.347  34.007  12.803
17896W        W90156   5.703   9.363   2.121
17897W        W90157  43.293  31.387   3.056
17898W        W90158  35.108  20.271  11.041
17899W        W90159   6.250  30.965   1.500
17900W        W90160  43.043  30.857   1.350
17901W        W90161   0.979  34.150  10.707
17902W        W90162  14.074  43.553   0.949
17903W        W90163  26.291  22.433  13.666
17904W        W90164  16.141  30.410   4.525
17905W        W90165  31.149  12.390   2.974
17906W        W90166  19.156  26.149   4.206
17907W        W90167  17.010  38.019   1.823
17908W        W90168  33.245  42.837   3.304
17909W        W90169  41.952   5.958  12.521
17910W        W90170  21.240  22.593   0.780
17911W        W90171   7.702   9.635   1.820
17912W        W90172  38.996  37.924  14.986
17913W        W90173   5.407   3.978   2.255
17914W        W90174  24.220   3.196  12.186
17915W        W90175  39.060   6.356  13.330
17916W        W90176  33.679   7.883  10.891
17917W        W90177  30.187  13.675  14.112
17918W        W90178  27.627  24.151  14.506
17919W        W90179  34.338  27.731   1.801
17920W        W90180   5.396  36.306  11.138
17921W        W90181  40.550  38.028  11.219
17922W        W90182  35.491  28.908   1.675
17923W        W90183   0.787  26.623   3.846
17924W        W90184   3.696  11.334  10.787
17925W        W90185  39.954   4.982   0.778
17926W        W90186  43.310  44.777  13.425
17927W        W90187  42.553  24.939  12.046
17928W        W90188  17.924   8.373  12.430
17929W        W90189  31.924  43.452  13.452
17930W        W90190  12.922  21.978   3.789
17931W        W90191  34.413  30.520  12.401
17932W        W90192   6.811  40.365   0.251
17933W        W90193  15.401  40.979   4.534
17934W        W90194   0.771  44.753   2.306
17935W        W90195  26.129  40.999   9.747
17936W        W90196   2.016  42.177  12.972
17937W        W90197  21.330   1.414  14.353
17938W        W90198  41.913  10.080   4.421
17939W        W90199  32.402  20.775  13.891
17940W        W90200   1.290  13.764  10.723
17941W        W90201  19.766  13.638  11.654
17942W        W90202  36.984  31.579  13.001
17943W        W90203  40.266  28.301   1.777
17944W        W90204  17.411  26.402   2.307
17945W        W90205  24.166  17.700   4.690
17946W        W90206  34.840  39.374  14.875
17947W        W90207  35.847  28.866   2.547
17948W        W90208  37.815  16.119  12.932
17949W        W90209   9.197  17.994  13.858
17950W        W90210   3.489  37.709   4.137
17951W        W90211  20.408  40.494  12.146
17952W        W90212  24.919  40.784   0.025
17953W        W90213  21.998  18.055   1.380
17954W        W90214  38.754  22.300  11.956
17955W        W90215   2.717  32.563  10.964
17956W        W90216  39.782  39.330  10.945
17957W        W90217   3.356  15.330   4.459
17958W        W90218  28.880  33.534   4.876
17959W        W90219  25.813  18.254   2.261
17960W        W90220   6.929   7.439   3.185
17961W        W90221  16.607  11.151   1.754
17962W        W90222  30.967   5.350   2.097
17963W        W90223  30.416  21.371   5.038
17964W        W90224  17.211  16.384   4.699
17965W        W90225  27.588  36.648  12.119
17966W        W90226  31.606   1.973   3.693
17967W        W90227  23.991   8.417   2.137
17968W        W90228  39.858  15.419   2.127
17969W        W90229  21.591  10.156   4.384
17970W        W90230  12.980   3.032  13.112
17971W        W90231   9.720  42.405   3.808
17972W        W90232  32.004  20.849  11.152
17973W        W90233  26.938  33.502  14.900
17974W        W90234  21.183  16.066  13.813
17975W        W90235  34.184  34.090   0.564
17976W        W90236  31.754  19.202  11.196
17977W        W90237  37.804  41.709   4.654
17978W        W90238  35.898  19.406  11.883
17979W        W90239  30.643  14.864  14.643
17980W        W90240  24.028  16.561   1.857
17981W        W90241  29.652  31.047  10.199
17982W        W90242   2.164  35.319  14.810
17983W        W90243  39.787  27.051  11.617
17984W        W90244  21.130   1.943  14.282
17985W        W90245   5.141   7.374   0.604
17986W        W90246  17.525   3.290  12.987
17987W        W90247   1.932   3.440  11.617
17988W        W90248  34.161  21.668   1.337
17989W        W90249  28.658   5.220   3.297
17990W        W90250  29.899   5.319   2.813
17991W        W90251  35.104  15.117  11.645
17992W        W90252  10.669  39.780  14.158
17993W        W90253   3.532   3.680  12.593
17994W        W90254  12.835  37.846   2.396
17995W        W90255  12.547  23.824  13.804
17996W        W90256  26.601  33.902  14.676
17997W        W90257  43.871  11.647  12.205
17998W        W90258   3.894  36.431   2.245
17999W        W90259   3.989   6.203  11.061
18000W        W90260   5.998  34.474  14.666
18001W        W90261   1.975  36.039  13.348
18002W        W90262  25.858  25.149   4.498
18003W        W90263  21.131  33.641  13.220
18004W        W90264  12.784   7.118   4.648
18005W        W90265   6.388  26.606  13.589
18006W        W90266  32.363  38.974   4.151
18007W        W90267  30.142   7.646  14.838
18008W        W90268  30.981  11.786   5.165
18009W        W90269  13.772  43.566   4.138
18010W        W90270  19.105  10.360  13.405
18011W        W90271  28.894  39.052  14.870
18012W        W90272  24.616  32.438   3.668
18013W        W90273  23.542  32.881  11.660
18014W        W90274  38.962   2.225   5.005
18015W        W90275  42.452  12.857   1.739
18016W        W90276   5.599  35.785  14.843
18017W        W90277  18.103  13.139   4.842
18018W        W90278   4.946   1.387   2.443
18019W        W90279   3.902  44.980   2.438
18020W        W90280   5.158  27.531   2.865
18021W        W90281  29.628  26.671   2.840
18022W        W90282  10.823  10.805  12.445
18023W        W90283  37.098  44.766   2.616
18024W        W90284  34.534   1.483  12.770
18025W        W90285   6.677  17.651   2.826
18026W        W90286  15.861  19.293   1.951
18027W        W90287  25.036  44.773   4.272
18028W        W90288  43.246  38.441  13.918
18029W        W90289  44.549   8.363  14.879
18030W        W90290  38.341  37.606   3.617
18031W        W90291  22.507  44.061   1.807
18032W        W90292  19.832  12.221  12.180
18033W        W90293  43.886  41.912  13.363
18034W        W90294  12.572  15.269  12.946
18035W        W90295  11.723  31.135   2.820
18036W        W90296  21.988  34.575   1.418
18037W        W90297   0.790  29.954   2.780
18038W        W90298  39.312  24.647  11.513
18039W        W90299  32.504   3.030  10.833
18040W        W90300   8.376  10.777   1.220
18041W        W90301  39.260   0.969   1.212
18042W        W90302  43.020  43.363   2.450
18043W        W90303  28.993  15.309   4.178
18044W        W90304  25.556  32.452   2.435
18045W        W90305   2.418   3.306  10.658
18046W        W90306  24.568  29.024   2.314
18047W        W90307   4.224  22.173  12.108
18048W        W90308   4.319  34.561  12.344
18049W        W90309   2.430  13.534   0.490
18050W        W90310   5.691  14.047   0.294
18051W        W90311   9.237  31.853   0.320
18052W        W90312  13.712  16.047   2.865
18053W        W90313  40.497  43.869   4.422
18054W        W90314  24.136   8.354   3.094
18055W        W90315  31.439   4.424  11.854
18056W        W90316   7.390   8.734  13.344
18057W        W90317  33.993   2.541  12.932
18058W        W90318  25.727  43.865  12.365
18059W        W90319  26.271  29.078  13.754
18060W        W90320  34.010   9.762   4.769
18061W        W90321  14.244  13.841   1.165
18062W        W90322  17.623  20.279  13.080
18063W        W90323   3.256  23.124   2.632
18064W        W90324  44.527  19.703   2.408
18065W        W90325  18.185   5.674  12.973
18066W        W90326   9.414  37.338   4.117
18067W        W90327  37.338  26.168  11.503
18068W        W90328  28.072  37.409   1.348
18069W        W90329  20.579  34.478   2.936
18070W        W90330  29.949   3.675  10.967
18071W        W90331  30.275  26.441   3.616
18072W        W90332  31.987   7.874  12.188
18073W        W90333  25.569  25.918   1.155
18074W        W90334  30.523   5.947   1.759
18075W        W90335  22.972  29.165  10.194
18076W        W90336   8.238  14.158   2.787
18077W        W90337  13.634  38.067  10.583
18078W        W90338  35.023  19.067  10.048
18079W        W90339  31.945   2.868  13.529
18080W        W90340  38.635  11.099   0.701
18081W        W90341  24.249  29.062  10.529
18082W        W90342  40.665  15.654  14.921
18083W        W90343  33.500   8.340  11.052
18084W        W90344  23.129  37.334   4.622
18085W        W90345  39.593  36.314   3.198
18086W        W90346  22.459  25.207  12.122
18087W        W90347  16.267  11.112  12.027
18088W        W90348  20.687  21.110   4.591
18089W        W90349  31.847  38.890   3.793
18090W        W90350  16.334  44.499   1.670
18091W        W90351  19.306  34.965  14.864
18092W        W90352  27.918   8.225  12.625
18093W        W90353  26.257  36.092  13.391
18094W        W90354  26.182  21.598  10.681
18095W        W90355  42.084   8.347  11.945
18096W        W90356  28.375   5.676  12.908
18097W        W90357   1.005   7.138  14.455
18098W        W90358   8.126  43.280   3.324
18099W        W90359  34.819  42.980  13.947
18100W        W90360  17.114  29.714   4.153
18101W        W90361  26.565  42.421   1.255
18102W        W90362   3.941  40.066   2.284
18103W        W90363  29.105   8.894  12.592
18104W        W90364  15.453  42.635  13.451
18105W        W90365  16.015  41.946  13.357
18106W        W90366  26.665  33.095   2.908
18107W        W90367  26.827   5.648  12.117
18108W        W90368  28.782  29.463   0.826
18109W        W90369  30.998  33.233  12.920
18110W        W90370  21.936  11.267  14.474
18111W        W90371   0.945  26.638  14.898
18112W        W90372   4.801  23.053   4.611
18113W        W90373  19.728  12.987   1.281
18114W        W90374  20.152  32.135   3.601
18115W        W90375  29.555  40.918  13.436
18116W        W90376  36.305  40.390   1.046
18117W        W90377  27.110   9.323  12.355
18118W        W90378  25.111   3.711   3.181
18119W        W90379  27.135  32.783  14.508
18120W        W90380  16.642  15.673   2.510
18121W        W90381  21.765  16.998   2.813
18122W        W90382  15.355  28.030   0.084
18123W        W90383   5.045  28.708  11.656
18124W        W90384  14.517  36.898   4.018
18125W        W90385   2.413  33.168   0.515
18126W        W90386   0.114  11.583   1.401
18127W        W90387  42.847  17.725  14.287
18128W        W90388  29.504  23.421   3.208
18129W        W90389  44.317  25.853  13.045
18130W        W90390  43.995  24.947  12.991
18131W        W90391  25.183   1.859   2.847
18132W        W90392  14.793  32.589  11.588
18133W        W90393  39.505   4.689   3.694
18134W        W90394  27.162   8.778  14.198
18135W        W90395   0.268  12.821  11.139
18136W        W90396  44.124   2.884   0.281
18137W        W90397  33.374   7.417  13.020
18138W        W90398  10.054  21.027   2.937
18139W        W90399  30.042  43.415  11.148
18140W        W90400  32.820  34.088  10.355
18141W        W90401  10.661  28.068   3.740
18142W        W90402   8.809   5.687   2.114
18143W        W90403  16.343  33.445  11.479
18144W        W90404   0.458   9.147  11.095
18145W        W90405   3.436  39.279   5.127
18146W        W90406  16.665  40.948   3.159
18147W        W90407  31.066   6.255   4.122
18148W        W90408  21.138  29.045   2.268
18149W        W90409  33.629  43.088   4.799
18150W        W90410  33.945  12.915  11.125
18151W        W90411  16.953  41.111  10.438
18152W        W90412   6.962  34.039  12.181
18153W        W90413   3.201  14.178   0.964
18154W        W90414  14.568  26.157  14.750
18155W        W90415   3.460   5.357   3.693
18156W        W90416   1.893  25.657   4.176
18157W        W90417   1.707   5.605  13.783
18158W        W90418  12.311  40.929  12.804
18159W        W90419  43.354  38.036  12.444
18160W        W90420  18.707   9.135  13.978
18161W        W90421  34.943  12.357   2.781
18162W        W90422  12.465  42.136   4.164
18163W        W90423   9.602  12.419  13.733
18164W        W90424  37.761   3.063   0.329
18165W        W90425   8.680  26.380  13.543
18166W        W90426  36.800  17.702  11.521
18167W        W90427  12.890  24.959   0.411
18168W        W90428  12.613  19.261  10.747
18169W        W90429  10.657  24.181   3.167
18170W        W90430  26.654  31.888   0.869
18171W        W90431  44.813  31.815   1.405
18172W        W90432  22.515  36.989   1.908
18173W        W90433  39.906  43.266   3.352
18174W        W90434  16.001   5.293   3.683
18175W        W90435  21.519  14.289   3.962
18176W        W90436  27.735  21.769  14.945
18177W        W90437  18.192   6.963  12.371
18178W        W90438  36.441  23.017   2.360
18179W        W90439  34.502   1.557   0.897
18180W        W90440  41.901  29.108   0.440
18181W        W90441   6.675  14.730   0.947
18182W        W90442   2.607  42.429   1.591
18183W        W90443  20.528  41.651   1.433
18184W        W90444  24.719  13.571   1.714
18185W        W90445  13.842   9.828   1.621
18186W        W90446  41.532  36.570  10.757
18187W        W90447   8.893  41.351  13.427
18188W        W90448  42.891  15.671   3.288
18189W        W90449  28.121  15.673   1.453
18190W        W90450  15.370   6.270   2.424
18191W        W90451   4.179  10.887   1.809
18192W        W90452  11.153  17.313   4.710
18193W        W90453  37.328   8.098  11.986
18194W        W90454  30.202  19.959   3.309
18195W        W90455   9.644  30.470  13.680
18196W        W90456   0.262   1.312   0.703
18197W        W90457  23.961  44.432  10.561
18198W        W90458  34.726  18.362   1.349
18199W        W90459   8.701  34.415   3.278
18200W        W90460   4.476  13.831  13.040
18201W        W90461  28.945   7.227   4.394
18202W        W90462  24.098  19.013  11.886
18203W        W90463  26.071  17.825   2.395
18204W        W90464  37.371   0.374  12.071
18205W        W90465   3.323  22.864  10.887
18206W        W90466  32.908  29.349   4.720
18207W        W90467  27.255  41.540  12.910
18208W        W90468  18.312  44.022  12.889
18209W        W90469  33.721  24.432   0.377
18210W        W90470  35.598  31.993   2.267
18211W        W90471  23.733   3.356  12.281
18212W        W90472  41.504   7.360   2.448
18213W        W90473  13.762  21.991   4.673
18214W        W90474  34.905   4.720  14.507
18215W        W90475   9.311   5.938   1.340
18216W        W90476  14.395  39.984  13.692
18217W        W90477  43.189  19.639  12.437
18218W        W90478  37.397  17.097   0.836
18219W        W90479   8.396  38.804   2.782
18220W        W90480  44.241  10.605  14.443
18221W        W90481  40.848  13.320   1.367
18222W        W90482  11.536  43.519   4.562
18223W        W90483  27.939  16.241   2.751
18224W        W90484  13.295  12.073   3.120
18225W        W90485  17.539  14.337  11.642
18226W        W90486  18.032   2.947   1.689
18227W        W90487  31.622   0.963  14.385
18228W        W90488  15.639  40.736  11.559
18229W        W90489  38.649  24.935   2.566
18230W        W90490  23.671  13.337  12.656
18231W        W90491  36.250  21.456   0.451
18232W        W90492  33.322  41.731  12.024
18233W        W90493  10.639  42.388  14.792
18234W        W90494   8.655   6.279   5.195
18235W        W90495  43.657  21.884  13.968
18236W        W90496  37.994  11.386   3.651
18237W        W90497  33.487  15.414   1.304
18238W        W90498  24.194  32.914  14.490
18239W        W90499  11.858  37.472   1.437
18240W        W90500  31.721  10.807  13.429
18241W        W90501  39.805  20.612  13.613
18242W        W90502  38.189  11.154   0.445
18243W        W90503  18.555   6.497  11.524
18244W        W90504   0.943   3.434  12.980
18245W        W90505   9.905  40.791   0.260
18246W        W90506  30.010  43.168  10.704
18247W        W90507   5.594  25.190   1.190
18248W        W90508  24.957   8.308   0.022
18249W        W90509   0.493  33.297   2.729
18250W        W90510  22.316  18.855   5.449
18251W        W90511  39.003  32.894   4.288
18252W        W90512  10.898  17.620   3.748
18253W        W90513  44.454  24.828  13.180
18254W        W90514  33.913  22.198  12.915
18255W        W90515  42.096  37.386   3.367
18256W        W90516  42.288  21.147   0.395
18257W        W90517  32.593  37.033  10.634
18258W        W90518   2.384  38.293  14.803
18259W        W90519   6.460  27.076  10.146
18260W        W90520  23.749   1.880   3.934
18261W        W90521  13.730  30.158  10.700
18262W        W90522   8.927  32.947  12.100
18263W        W90523  33.334  12.708   1.944
18264W        W90524  34.319  34.589  11.154
18265W        W90525   0.794  44.236   2.246
18266W        W90526  23.581  21.580   0.064
18267W        W90527  44.017  11.980  14.885
18268W        W90528  27.416   8.311   1.417
18269W        W90529  28.958  44.259   1.411
18270W        W90530   1.437  30.077  10.571
18271W        W90531  32.758   4.727  13.175
18272W        W90532  28.426  14.870   0.753
18273W        W90533  29.320  17.183   1.490
18274W        W90534  32.949  15.082   3.410
18275W        W90535  21.300  10.691  13.415
18276W        W90536  26.697  38.618   4.064
18277W        W90537   1.393   9.634  12.479
18278W        W90538  13.355  39.433  12.366
18279W        W90539  43.463  29.162   3.392
18280W        W90540  42.430  29.031  13.840
18281W        W90541   1.170  20.586   0.259
18282W        W90542   5.290  16.592   2.376
18283W        W90543   0.056  19.191   0.586
18284W        W90544  13.842  20.101  13.449
18285W        W90545   9.738  30.975  10.794
18286W        W90546  34.903  12.367  11.189
18287W        W90547  34.188   3.313  13.449
18288W        W90548  44.900  41.353   0.430
18289W        W90549  44.974   0.553   0.979
18290W        W90550   6.975   0.925  11.376
18291W        W90551  28.407  19.066  12.683
18292W        W90552  33.952  29.158   4.307
18293W        W90553  36.931  29.780  11.119
18294W        W90554   4.529  35.385   2.824
18295W        W90555  37.467  39.634   4.637
18296W        W90556   7.738  22.291   0.213
18297W        W90557  12.372  42.500  13.338
18298W        W90558  33.201   9.337  14.504
18299W        W90559  16.314  43.948   2.299
18300W        W90560   1.174   6.907   1.893
18301W        W90561   9.014   0.824   2.617
18302W        W90562  36.115  27.500   1.830
18303W        W90563  27.488  18.629  11.652
18304W        W90564  35.964  28.109  12.523
18305W        W90565   9.244  34.512   2.569
18306W        W90566  18.295  37.404   0.694
18307W        W90567  14.027  36.004  14.443
18308W        W90568  12.211  10.771  11.427
18309W        W90569   6.985  24.188  14.697
18310W        W90570  24.694  36.984   0.422
18311W        W90571  31.797   5.411  13.999
18312W        W90572  11.680  10.873   0.345
18313W        W90573  29.461  30.444  12.511
18314W        W90574  24.051  44.427   0.216
18315W        W90575  23.804  33.788  11.541
18316W        W90576  19.281  16.558   1.508
18317W        W90577  15.349  24.793   2.722
18318W        W90578   3.241   5.706   1.948
18319W        W90579   4.721  26.267  14.671
18320W        W90580   7.797  20.613   0.234
18321W        W90581  28.050  32.978   2.632
18322W        W90582   0.303  22.625   0.521
18323W        W90583  13.111  36.240  12.995
18324W        W90584  23.137  29.679   1.901
18325W        W90585  15.146  42.931  12.592
18326W        W90586   7.876  23.244  14.088
18327W        W90587   2.371   5.472  14.973
18328W        W90588   5.501  20.178   3.662
18329W        W90589  29.351   3.854  14.023
18330W        W90590  40.705  37.916  11.679
18331W        W90591  44.737  24.329  10.161
18332W        W90592  26.444  17.054   2.463
18333W        W90593  39.803  10.104  12.983
18334W        W90594  37.238   1.362  10.662
18335W        W90595   3.078  34.317   0.085
18336W        W90596   2.044  23.585  14.784
18337W        W90597  28.854   0.818  12.375
18338W        W90598  44.297  36.844   5.123
18339W        W90599   0.521  19.594  13.067
18340W        W90600  24.094  28.474  11.182
18341W        W90601  39.502  11.849   3.947
18342W        W90602  18.776  35.621  14.436
18343W        W90603  18.920   7.642  12.023
18344W        W90604  34.886  18.551   0.760
18345W        W90605  13.259   7.203   0.717
18346W        W90606  24.981  41.037   2.753
18347W        W90607  25.732  30.321  10.189
18348W        W90608   8.889  13.347  13.374
18349W        W90609  39.564  21.930  10.865
18350W        W90610   8.230   7.135   3.264
18351W        W90611  17.081  10.705  11.827
18352W        W90612  31.126  30.410  13.806
18353W        W90613  44.924  40.321   4.402
18354W        W90614   9.841   0.703   1.457
18355W        W90615  18.800  43.934   1.222
18356W        W90616  21.474  26.824   4.195
18357W        W90617  34.944  24.589   1.010
18358W        W90618  41.195  39.332   2.841
18359W        W90619  40.313   9.615   2.870
18360W        W90620  13.673  21.566   1.475
18361W        W90621  35.326  18.497   3.452
18362W        W90622  22.134  16.586   0.904
18363W        W90623  29.096   4.747   1.434
18364W        W90624  20.132  19.735  11.471
18365W        W90625  38.600   4.232  10.585
18366W        W90626  27.080  40.600  10.658
18367W        W90627  29.071  11.435  11.863
18368W        W90628  19.197  44.792  13.513
18369W        W90629   1.968   8.907  14.408
18370W        W90630  26.298   5.723  12.101
18371W        W90631  37.169  35.147   2.338
18372W        W90632   2.233  41.933  11.540
18373W        W90633  25.331  11.216  13.278
18374W        W90634   4.174  19.718  12.480
18375W        W90635  11.145  25.073  14.950
18376W        W90636   0.826  40.006  11.130
18377W        W90637  15.755  24.367   2.667
18378W        W90638  14.465   2.856  14.599
18379W        W90639  42.787  42.795   5.031
18380W        W90640  26.945  20.584  13.860
18381W        W90641  11.451  18.150   2.904
18382W        W90642  28.657  30.884  12.521
18383W        W90643  29.935  43.249   3.406
18384W        W90644   4.686  36.967  10.743
18385W        W90645  14.578  28.680   4.675
18386W        W90646  40.066  17.779   2.828
18387W        W90647   2.423   4.656   1.781
18388W        W90648   0.058  35.563   2.285
18389W        W90649  28.595   3.195  10.443
18390W        W90650  39.828   0.333   3.132
18391W        W90651  24.527  37.592   2.704
18392W        W90652  18.161  17.091   4.615
18393W        W90653  20.242  20.433  12.462
18394W        W90654  16.837  39.790  14.257
18395W        W90655  38.083  44.962   2.060
18396W        W90656  33.974  25.994  11.533
18397W        W90657   0.238  39.273  14.946
18398W        W90658  39.742   4.898   2.664
18399W        W90659   4.912   4.357  11.671
18400W        W90660  19.449  29.904  11.206
18401W        W90661   7.712  29.013   4.644
18402W        W90662  26.712   9.132   0.926
18403W        W90663  38.313  11.315   4.753
18404W        W90664  18.797  15.757   3.773
18405W        W90665  20.009  22.894  12.440
18406W        W90666  19.116   6.148  13.583
18407W        W90667  44.700  43.781   0.498
18408W        W90668  21.066  11.564   2.698
18409W        W90669  34.114  40.861  11.519
18410W        W90670  23.576  39.810   3.120
18411W        W90671  17.611  22.702  14.910
18412W        W90672   0.198   7.995  13.331
18413W        W90673  15.163  11.781  11.025
18414W        W90674   7.588  35.319   2.533
18415W        W90675  17.260  20.824  12.318
18416W        W90676  19.606   3.455  12.074
18417W        W90677  39.038  29.151   0.045
18418W        W90678  25.097  18.341   0.796
18419W        W90679  21.107  22.302  14.984
18420W        W90680  23.535  19.248  13.458
18421W        W90681  15.296  29.175   1.466
18422W        W90682   6.210  30.665   5.077
18423W        W90683   9.870   1.003   0.463
18424W        W90684   1.972   5.955   4.224
18425W        W90685  27.483  23.726  13.018
18426W        W90686  16.900  31.292  12.888
18427W        W90687  39.539   3.919  10.941
18428W        W90688  29.452  18.876   4.036
18429W        W90689  10.555   6.826  11.372
18430W        W90690  35.947  43.019   5.143
18431W        W90691   3.684  13.682  14.067
18432W        W90692  10.467  44.536  14.218
18433W        W90693   4.234  37.047   1.405
18434W        W90694  44.852   4.456   1.490
18435W        W90695  29.649  30.669   3.066
18436W        W90696  23.529  42.110  11.646
18437W        W90697  12.794  13.782  10.699
18438W        W90698  13.526  25.666  11.581
18439W        W90699  27.051   2.037   3.680
18440W        W90700  37.444  19.133   1.922
18441W        W90701  27.485   0.279   4.183
18442W        W90702  13.178  34.783  11.540
18443W        W90703  38.732   7.285   4.130
18444W        W90704  18.191  22.913  12.194
18445W        W90705  27.707  16.781  13.850
18446W        W90706  22.317  37.538   0.926
18447W        W90707  36.493  14.284   5.053
18448W        W90708  38.414  40.541   4.072
18449W        W90709   2.913  18.067  13.848
18450W        W90710  30.408   3.702  13.012
18451W        W90711  20.114  18.582  12.946
18452W        W90712  34.605  38.789  12.159
18453W        W90713   4.911  10.800   0.342
18454W        W90714  22.059   5.646   0.196
18455W        W90715   9.095  44.423   3.695
18456W        W90716  36.668   5.095  11.391
18457W        W90717  21.058  18.353  10.686
18458W        W90718  30.996  16.632   3.704
18459W        W90719  23.347  36.597  14.600
18460W        W90720  34.059   3.928   3.711
18461W        W90721  39.600  37.373   1.374
18462W        W90722  11.036  28.414  13.006
18463W        W90723   7.404  27.196  12.080
18464W        W90724  27.039   2.429   2.300
18465W        W90725   8.787  20.022  14.750
18466W        W90726  17.464  20.626   1.277
18467W        W90727   2.448  39.279   0.785
18468W        W90728  34.152  38.037  11.122
18469W        W90729  23.060  25.746  10.225
18470W        W90730  29.244   3.387  14.231
18471W        W90731  19.346  15.185   4.172
18472W        W90732   0.316  38.593   3.236
18473W        W90733   0.050  12.157   4.097
18474W        W90734   9.855  35.341  10.718
18475W        W90735  21.010   3.826   0.387
18476W        W90736  37.899  42.681   3.667
18477W        W90737  22.796  40.704  11.160
18478W        W90738  32.118  34.587  13.989
18479W        W90739  22.510  24.930   2.690
18480W        W90740  44.747  28.153   3.209
18481W        W90741   7.938  18.775   1.381
18482W        W90742  13.612  21.234   4.207
18483W        W90743  44.809  32.394  12.347
18484W        W90744  37.517  10.102  10.247
18485W        W90745  27.438   4.113   4.141
18486W        W90746  23.126  27.532   3.367
18487W        W90747   5.369   3.431  12.033
18488W        W90748  13.170  15.857  13.448
18489W        W90749  37.957  29.050  12.595
18490W        W90750  41.718  33.358   4.619
18491W        W90751   3.375  11.804   2.614
18492W        W90752  11.398  30.396  14.969
18493W        W90753  11.870  12.615  14.472
18494W        W90754   3.799  30.460  10.542
18495W        W90755  35.390  26.487   2.226
18496W        W90756   1.093   6.428  11.479
18497W        W90757  44.976  38.141  11.184
18498W        W90758  26.546   8.299  14.760
18499W        W90759   7.109  35.925   0.851
18500W        W90760   8.678  35.077  12.410
18501W        W90761  10.652  17.072   2.453
18502W        W90762  23.510  10.116  11.821
18503W        W90763  24.035  25.143   5.022
18504W        W90764  11.791   1.517   2.262
18505W        W90765  21.548  44.838  13.585
18506W        W90766  23.302  34.480   1.927
18507W        W90767  35.283  25.613   3.695
18508W        W90768  30.831  39.488   3.215
18509W        W90769  17.340  21.061   3.590
18510W        W90770  39.282  30.958   0.715
18511W        W90771  11.806   2.851   1.890
18512W        W90772   3.259  13.248  12.891
18513W        W90773  23.946  22.156  13.784
18514W        W90774   2.507   3.461   4.647
18515W        W90775   7.016  28.971   3.426
18516W        W90776  36.553  10.421   0.804
18517W        W90777  20.815   9.278   4.150
18518W        W90778  20.712  33.707  11.017
18519W        W90779  15.594  41.831   1.251
18520W        W90780  40.426  20.704  12.978
18521W        W90781  20.804  38.043   3.703
18522W        W90782  32.108   1.464   4.425
18523W        W90783  17.195   4.741   3.154
18524W        W90784  43.937  22.729  13.564
18525W        W90785  13.055  34.544  10.745
18526W        W90786  33.444  30.189  10.005
18527W        W90787  33.409   9.815  12.120
18528W        W90788   8.250  39.736  14.750
18529W        W90789  33.194  31.078   4.921
18530W        W90790  15.241  38.017  12.841
18531W        W90791  11.231   3.116   3.925
18532W        W90792   1.255  11.297  11.521
18533W        W90793  31.757  33.420  10.766
18534W        W90794  39.994  14.572  13.407
18535W        W90795  42.573  29.112  14.946
18536W        W90796  36.985  43.226   1.926
18537W        W90797  10.858  37.265  13.451
18538W        W90798  38.923  20.727   1.383
18539W        W90799  37.589  23.435  10.378
18540W        W90800  43.409  43.777  14.327
18541W        W90801   0.743   1.462  11.562
18542W        W90802  10.905  11.921  13.870
18543W        W90803  13.377  26.118  12.440
18544W        W90804  36.075   3.028   0.491
18545W        W90805  12.190  44.828  13.449
18546W        W90806   9.087  29.910  10.407
18547W        W90807  20.181  32.052   2.469
18548W        W90808   3.289  17.346  11.520
18549W        W90809  11.103  40.896   4.867
18550W        W90810  17.561   2.271   3.670
18551W        W90811   4.332  15.048  10.490
18552W        W90812  43.218  35.556   3.455
18553W        W90813   0.489  22.129  10.398
18554W        W90814  24.827  32.405   0.889
18555W        W90815  30.681  30.476  14.063
18556W        W90816  40.647   0.577   2.349
18557W        W90817  34.384   1.380   1.388
18558W        W90818  25.735  21.324  10.618
18559W        W90819   9.650  41.356  11.624
18560W        W90820  17.283  32.388  13.510
18561W        W90821  23.792  41.102  14.468
18562W        W90822  15.626  25.926   4.599
18563W        W90823  21.564  25.436  12.936
18564W        W90824   5.482  20.661   4.525
18565W        W90825  42.097  41.016  14.873
18566W        W90826  30.845  19.502  13.885
18567W        W90827  31.109  18.493   4.185
18568W        W90828  15.386  40.776  12.023
18569W        W90829  21.371  16.068  11.529
18570W        W90830  31.045  39.422   3.683
18571W        W90831   9.124   5.460   0.358
18572W        W90832  18.241  30.165   4.102
18573W        W90833  23.065  27.701  11.221
18574W        W90834  44.192  26.455   3.643
18575W        W90835   1.726  41.463  11.414
18576W        W90836   8.140  31.899   4.136
18577W        W90837  41.206  29.392  11.917
18578W        W90838  17.805  18.164  11.479
18579W        W90839  23.542  30.622   4.132
18580W        W90840  27.627  15.248   4.424
18581W        W90841  44.475  10.493  14.886
18582W        W90842   1.499  10.968   1.854
18583W        W90843  32.292  39.913   1.361
18584W        W90844  20.948  42.865   0.498
18585W        W90845  23.699  37.318   0.229
18586W        W90846  29.140  30.563   1.352
18587W        W90847  20.245   5.369  14.372
18588W        W90848  25.488  14.793  11.482
18589W        W90849  37.812   0.721   4.639
18590W        W90850  16.597  43.004   1.921
18591W        W90851  27.992  31.147   3.680
18592W        W90852  24.706   8.694   4.845
18593W        W90853  14.261  37.278   2.590
18594W        W90854  17.650  15.254  10.703
18595W        W90855   4.386  43.887   1.319
18596W        W90856   9.196  16.149  11.582
18597W        W90857   5.621   5.740   3.288
18598W        W90858  41.399  25.554   2.659
18599W        W90859  40.977  19.147   1.298
18600W        W90860  12.238  12.204   2.637
18601W        W90861  10.334   6.000  14.118
18602W        W90862  30.636  10.256   3.724
18603W        W90863  18.211  24.823  14.392
18604W        W90864  26.455  43.257   0.777
18605W        W90865  24.907  27.147   2.791
18606W        W90866   3.526  25.387  11.610
18607W        W90867  44.905  16.996  14.459
18608W        W90868  24.111  25.127  10.919
18609W        W90869  26.575  19.577   1.291
18610W        W90870  28.194  20.265   0.728
18611W        W90871   6.630  10.813  10.921
18612W        W90872   6.213  32.745  11.134
18613W        W90873  22.238   2.483  13.510
18614W        W90874  26.630  32.406  13.386
18615W        W90875   1.969  42.008   2.671
18616W        W90876  20.579   4.478   3.640
18617W        W90877   6.615  28.185   5.495
18618W        W90878  30.479  26.615  11.405
18619W        W90879  10.712  12.243  14.846
18620W        W90880  19.638   0.654   0.906
18621W        W90881  36.607  40.042   0.805
18622W        W90882  20.818  43.425  13.564
18623W        W90883  38.515  42.870   0.832
18624W        W90884   2.230  18.201  11.603
18625W        W90885  37.346  17.687  10.651
18626W        W90886  43.972  15.619  14.468
18627W        W90887   7.808   3.307   3.715
18628W        W90888   1.477  22.507  12.873
18629W        W90889  10.680  40.422   3.391
18630W        W90890  22.351  25.953  14.897
18631W        W90891  31.581  12.213  11.931
18632W        W90892  22.476  33.592  11.000
18633W        W90893  20.200  21.520   4.315
18634W        W90894  18.930  13.769  13.432
18635W        W90895   2.200  16.277  13.636
18636W        W90896  18.545  20.595  14.414
18637W        W90897  13.539   6.295   2.750
18638W        W90898  10.414  44.968  11.628
18639W        W90899   4.667  25.157  10.613
18640W        W90900  35.540  17.640   4.995
18641W        W90901  36.196   6.569   0.795
18642W        W90902  43.409  40.291   2.414
18643W        W90903   8.571   4.783   0.406
18644W        W90904  19.898  12.937   3.746
18645W        W90905  39.956  23.276   0.520
18646W        W90906  28.456  38.996   0.969
18647W        W90907  26.953  36.525  13.878
18648W        W90908  24.194  14.580   0.985
18649W        W90909  15.793  24.482  12.993
18650W        W90910   8.246  23.865   3.128
18651W        W90911  25.640  31.210  14.970
18652W        W90912  25.381  21.320  14.963
18653W        W90913  30.540  17.971   3.764
18654W        W90914  13.392  39.083  13.048
18655W        W90915   2.905  34.941   0.701
18656W        W90916  27.736   6.941   4.949
18657W        W90917  29.515   5.241   1.679
18658W        W90918  24.629  21.203  12.969
18659W        W90919  18.251  42.539   4.618
18660W        W90920   4.145  11.714  11.680
18661W        W90921   7.838   0.520   3.290
18662W        W90922   1.091  38.152  14.455
18663W        W90923  27.494   0.977  12.577
18664W        W90924  20.111   5.349  10.905
18665W        W90925  44.120  15.184   3.229
18666W        W90926  31.654  13.130   2.548
18667W        W90927  22.775   1.378   1.825
18668W        W90928  15.795  21.083   2.720
18669W        W90929   9.681   5.206   2.384
18670W        W90930  36.178  15.905   3.214
18671W        W90931  21.345  31.948  14.967
18672W        W90932  37.851  12.131   0.071
18673W        W90933  39.731  36.769  13.945
18674W        W90934  11.817   5.862  13.456
18675W        W90935  18.105  37.418   4.459
18676W        W90936  19.571   1.702   4.317
18677W        W90937  13.253  14.204   0.900
18678W        W90938  35.517   5.857  10.483
18679W        W90939   9.178   9.884   0.686
18680W        W90940  19.128  42.262  11.540
18681W        W90941  26.553   4.334   4.551
18682W        W90942   3.246  32.907  12.626
18683W        W90943  19.577   7.232   1.752
18684W        W90944   1.345   8.435  12.959
18685W        W90945  29.455  38.411  14.413
18686W        W90946   8.386   6.890   0.908
18687W        W90947  23.200  24.456   4.697
18688W        W90948  26.238  17.297   0.786
18689W        W90949  41.137  36.035   1.850
18690W        W90950  14.810   8.853  13.288
18691W        W90951   7.921  25.316   2.592
18692W        W90952  14.719  20.431   2.957
18693W        W90953  44.978  17.810  12.153
18694W        W90954  20.029  29.507   2.845
18695W        W90955  35.482   6.907  13.345
18696W        W90956  20.534   3.423  14.848
18697W        W90957  28.150  39.820  11.000
18698W        W90958  19.840   6.426   0.807
18699W        W90959  14.244  33.513   3.743
18700W        W90960  21.416  27.990   5.157
18701W        W90961   0.187  20.932   1.147
18702W        W90962  34.373  23.422   1.512
18703W        W90963  29.460  12.730   1.317
18704W        W90964  13.898  14.990  14.032
18705W        W90965  27.830  28.863   5.052
18706W        W90966  23.800  15.995  13.474
18707W        W90967   9.468   3.903  12.753
18708W        W90968   8.881  14.873  11.914
18709W        W90969  39.625  28.132   1.117
18710W        W90970  18.736  27.574   2.468
18711W        W90971  35.067  23.172   4.391
18712W        W90972   4.698  17.021  11.488
18713W        W90973   4.586  41.094  13.913
18714W        W90974  15.099  40.777  13.520
18715W        W90975  18.057  33.426   3.586
18716W        W90976  25.424  22.899   0.043
18717W        W90977   0.446  14.753   3.775
18718W        W90978  36.409  17.305  13.401
18719W        W90979  33.560  38.837   5.390
18720W        W90980   7.825  28.954   2.033
18721W        W90981  13.728  17.811  11.123
18722W        W90982  36.652  26.795   1.166
18723W        W90983   1.510   2.158  13.193
18724W        W90984  42.323  39.856  11.503
18725W        W90985  20.252  29.650   4.807
18726W        W90986  10.809   2.193   0.028
18727W        W90987  31.596  20.729   3.689
18728W        W90988  11.718  14.142   4.544
18729W        W90989  40.596  39.864  10.857
18730W        W90990   1.563  26.463   3.463
18731W        W90991  32.494  36.995  13.431
18732W        W90992  42.822  39.804   4.668
18733W        W90993   2.435   3.643   0.535
18734W        W90994   7.316  43.246   3.103
18735W        W90995   1.450  43.740   0.974
18736W        W90996  31.874  11.100  13.810
18737W        W90997  26.353  19.702  10.165
18738W        W90998   0.459  14.332  12.471
18739W        W90999   9.944  32.384  14.942
18740W        W91000  12.823  40.268  11.935
18741W        W91001  14.634  33.094  10.412
18742W        W91002   3.899   7.913   0.710
18743W        W91003  22.579  16.179  10.801
18744W        W91004   3.367  10.673   3.541
18745W        W91005  15.966   6.821  14.364
18746W        W91006  22.995  16.618   0.787
18747W        W91007  12.767  19.158  13.341
18748W        W91008  37.873  41.252  10.250
18749W        W91009  27.430   9.919   4.752
18750W        W91010  24.480  21.705   1.460
18751W        W91011  41.744  34.451   3.287
18752W        W91012  14.232   6.607  11.972
18753W        W91013  12.127  35.581   1.365
18754W        W91014  10.157  36.057   3.727
18755W        W91015  17.704   6.352  10.783
18756W        W91016  25.776  33.175   4.162
18757W        W91017   5.723   4.174   2.667
18758W        W91018  35.309  32.951   4.709
18759W        W91019   8.129  15.394  12.260
18760W        W91020  39.150  11.533   4.193
18761W        W91021   4.290   1.605   2.672
18762W        W91022  18.684  29.905   3.307
18763W        W91023  39.382  17.329   1.282
18764W        W91024  14.314  38.838   5.026
18765W        W91025  41.544  26.034   2.852
18766W        W91026  13.327  32.270   4.265
18767W        W91027  23.181   2.163  13.391
18768W        W91028  26.818  15.685   1.804
18769W        W91029  22.255  44.378  11.023
18770W        W91030  22.516  12.706   2.693
18771W        W91031  32.905  12.700  12.636
18772W        W91032  34.615  43.587   0.885
18773W        W91033  26.032  18.594  10.663
18774W        W91034  26.444  19.000   4.057
18775W        W91035  41.461  15.190   0.266
18776W        W91036   3.230  40.718  13.911
18777W        W91037  19.139   5.363  14.346
18778W        W91038   1.413  26.541  13.320
18779W        W91039   1.256   6.916  14.045
18780W        W91040  26.546  29.504  13.594
18781W        W91041  30.579  12.411   4.673
18782W        W91042  24.977   3.912   3.624
18783W        W91043  12.744  26.470  13.480
18784W        W91044  44.336  24.921   1.703
18785W        W91045  30.635  25.478  10.784
18786W        W91046  22.256  19.874  11.139
18787W        W91047  30.110  16.723   1.020
18788W        W91048  27.446  36.656   0.982
18789W        W91049   1.201  12.283   1.829
18790W        W91050   7.205   7.721  13.420
18791W        W91051  43.908  13.385  10.729
18792W        W91052  27.976   9.902  14.228
18793W        W91053  26.259  14.356  10.772
18794W        W91054  41.853  39.068   1.872
18795W        W91055   8.335  44.655  11.141
18796W        W91056  24.123  34.827   0.937
18797W        W91057  34.985   5.130   5.104
18798W        W91058  22.622  11.767   3.625
18799W        W91059  21.280  19.005   9.788
18800W        W91060   5.893   4.287  14.770
18801W        W91061  30.474  18.711   2.917
18802W        W91062  13.734  15.399  12.502
18803W        W91063  20.251  41.489   3.755
18804W        W91064  31.617  44.723   3.769
18805W        W91065  43.552  27.936  11.786
18806W        W91066  18.363   4.106   2.872
18807W        W91067  15.027   6.198  14.621
18808W        W91068  14.255   2.445   2.545
18809W        W91069  14.238  30.400   5.488
18810W        W91070   8.858  36.508   3.456
18811W        W91071   4.005  34.547  11.849
18812W        W91072  24.461  11.227  10.737
18813W        W91073  24.224  23.329   0.194
18814W        W91074  41.980  36.010   1.828
18815W        W91075  40.757   4.738  11.524
18816W        W91076   8.960  44.989  13.080
18817W        W91077   3.870  42.200  11.206
18818W        W91078  26.966  16.371   2.088
18819W        W91079  10.760  24.923  13.612
18820W        W91080  31.188  16.316   3.149
18821W        W91081  20.742  25.511  12.140
18822W        W91082   9.605  30.133   0.418
18823W        W91083  31.122  27.441   3.206
18824W        W91084  27.655  18.742   0.373
18825W        W91085  25.407   0.775  14.287
18826W        W91086  24.107  28.445   1.207
18827W        W91087  35.203   5.641   0.643
18828W        W91088  33.815  10.390  11.148
18829W        W91089   9.439   8.290   0.772
18830W        W91090   6.971   6.299   2.277
18831W        W91091  36.829  21.508   2.778
18832W        W91092   9.693   0.853   4.170
18833W        W91093  14.251  14.569  14.050
18834W        W91094  41.155  21.552  13.355
18835W        W91095  27.618   8.788  13.467
18836W        W91096  42.352   0.105   0.056
18837W        W91097  22.667  14.381  14.347
18838W        W91098  16.307  32.738  11.942
18839W        W91099  25.603  37.507  12.384
18840W        W91100   1.410  32.445  10.691
18841W        W91101  23.429  28.602   0.434
18842W        W91102  15.180  36.789   0.113
18843W        W91103  26.115  33.488   3.051
18844W        W91104  26.098  40.070   0.828
18845W        W91105  44.362  33.893  13.169
18846W        W91106  24.077   5.165  13.010
18847W        W91107  24.856  40.314   3.361
18848W        W91108  33.498  39.284  12.429
18849W        W91109  13.646  25.460  12.979
18850W        W91110  16.713  27.972   4.353
18851W        W91111  42.403  36.237   3.180
18852W        W91112   0.438  15.619  14.515
18853W        W91113  10.563  23.296  14.718
18854W        W91114  16.320   4.553  11.542
18855W        W91115  32.711  33.118  13.451
18856W        W91116  23.223  32.455  12.530
18857W        W91117   7.660  43.481  13.499
18858W        W91118  24.917  11.707   1.629
18859W        W91119  38.832  34.589   1.737
18860W        W91120  10.840  26.962   4.702
18861W        W91121  36.409  40.348   5.057
18862W        W91122   4.241  40.609  14.747
18863W        W91123   3.501  27.730  14.061
18864W        W91124   3.750   9.387   0.576
18865W        W91125  19.728  17.614  14.929
18866W        W91126  12.263   4.859   2.912
18867W        W91127  16.702  15.671   3.038
18868W        W91128  36.534  13.357   4.667
18869W        W91129  32.563  21.196   2.377
18870W        W91130  37.812  31.640  14.333
18871W        W91131  39.373  16.130  10.649
18872W        W91132   9.230  19.247   2.387
18873W        W91133  13.428  35.626   4.297
18874W        W91134  17.932  11.785   2.627
18875W        W91135  43.472  29.405  14.473
18876W        W91136   1.730  17.185   0.116
18877W        W91137   1.430  30.925   0.311
18878W        W91138  21.622  20.030   0.171
18879W        W91139  25.626   2.971  11.468
18880W        W91140   3.468  19.002  11.055
18881W        W91141   0.790  26.979  13.738
18882W        W91142  13.846   9.980  13.775
18883W        W91143  23.613   7.632   2.069
18884W        W91144  23.695   0.051   3.152
18885W        W91145  36.883  42.787  10.805
18886W        W91146   5.498  23.795  14.561
18887W        W91147  18.109  33.221   4.716
18888W        W91148  23.537  22.173   1.727
18889W        W91149  33.707  23.747  10.170
18890W        W91150   2.367  43.885  13.441
18891W        W91151  28.157  43.017   0.332
18892W        W91152  30.032  16.559   3.005
18893W        W91153   0.409  12.258  11.097
18894W        W91154  29.089  44.456  12.427
18895W        W91155   0.260  16.144  12.383
18896W        W91156  20.946  42.836   1.046
18897W        W91157   2.386  18.962   1.313
18898W        W91158  12.296   0.256   0.999
18899W        W91159  43.419  40.716  13.371
18900W        W91160  10.071  25.671   1.302
18901W        W91161  39.927  38.303   0.007
18902W        W91162   5.825  44.990   4.619
18903W        W91163  36.892  19.106   0.255
18904W        W91164  11.836  40.873   3.203
18905W        W91165   6.754  32.973   0.778
18906W        W91166  23.649  23.389   2.512
18907W        W91167  20.211   7.788   5.030
18908W        W91168   5.424   0.362   0.016
18909W        W91169   1.941  17.495  10.495
18910W        W91170  36.830   0.491   4.697
18911W        W91171   7.861  12.076  11.586
18912W        W91172  41.261  16.595  12.941
18913W        W91173  19.689  31.662  14.260
18914W        W91174   6.515  18.028   0.335
18915W        W91175  30.749  42.404   2.890
18916W        W91176  17.199  44.490   4.373
18917W        W91177  37.147  10.227   2.810
18918W        W91178  12.395  25.073   1.289
18919W        W91179  33.060   5.783  14.938
18920W        W91180   8.539  13.755  13.436
18921W        W91181  26.163  40.050   3.586
18922W        W91182  22.250  28.236  12.582
18923W        W91183  28.950  12.130  10.363
18924W        W91184  10.878  26.557   3.103
18925W        W91185   7.220  31.633   0.367
18926W        W91186   1.863  37.902   3.291
18927W        W91187  10.421  42.986   4.002
18928W        W91188  20.069  11.817  13.820
18929W        W91189  33.653  21.663  11.166
18930W        W91190  27.516   3.918  12.905
18931W        W91191  14.718   1.916   4.605
18932W        W91192  15.784   3.605  14.601
18933W        W91193  27.092  25.084  10.746
18934W        W91194  31.224   2.866  12.729
18935W        W91195  36.422  22.482   4.746
18936W        W91196  14.465  13.109   5.225
18937W        W91197  33.517  37.855  14.903
18938W        W91198   2.051   0.844   0.767
18939W        W91199  31.529   5.390  14.430
18940W        W91200  42.991  33.501   1.154
18941W        W91201  25.110  32.744  14.221
18942W        W91202  32.648  18.611  12.201
18943W        W91203  26.752   5.218   4.547
18944W        W91204  22.683  17.113   2.745
18945W        W91205  14.039  14.530   4.669
18946W        W91206   3.889  27.052  10.318
18947W        W91207  30.875  14.483  13.331
18948W        W91208   5.431  17.734  14.896
18949W        W91209  21.991  13.768  14.676
18950W        W91210  36.566   4.805   5.277
18951W        W91211  26.989  42.162   3.312
18952W        W91212  38.004  33.152  14.223
18953W        W91213  21.582   2.214  14.869
18954W        W91214  14.613  22.412  12.431
18955W        W91215  27.460  27.086   2.456
18956W        W91216  14.821  24.527  12.045
18957W        W91217  35.152   6.916   2.579
18958W        W91218  42.056  23.363   2.379
18959W        W91219  30.826  43.931  13.857
18960W        W91220  22.993  18.779   0.881
18961W        W91221  15.282  34.117   1.423
18962W        W91222  16.331  24.136  10.710
18963W        W91223  12.332  16.376   1.397
18964W        W91224   9.643  30.244  11.753
18965W        W91225  20.285   3.157   1.949
18966W        W91226  33.992  30.888   2.904
18967W        W91227  16.719  26.728   1.744
18968W        W91228  37.353  38.872  10.975
18969W        W91229  19.515  13.647   3.662
18970W        W91230  38.291   8.788   4.791
18971W        W91231  38.264   2.265   2.703
18972W        W91232  38.503  38.668   2.219
18973W        W91233  17.791  20.486  10.721
18974W        W91234  21.676   5.992   0.030
18975W        W91235  10.875  43.390  12.059
18976W        W91236  25.170  37.824  10.715
18977W        W91237  13.630  18.292   1.003
18978W        W91238   4.530  34.376   1.394
18979W        W91239  30.392   1.195  12.982
18980W        W91240  35.516  22.681   0.379
18981W        W91241  21.902  23.438  10.767
18982W        W91242   0.986  22.591   4.515
18983W        W91243   7.284  44.335   2.233
18984W        W91244  43.442  17.569   4.113
18985W        W91245  29.117  29.474   1.474
18986W        W91246   7.689  18.146   4.181
18987W        W91247  11.386  24.098  13.842
18988W        W91248  24.595  20.515   0.422
18989W        W91249  10.264  12.144   2.877
18990W        W91250  13.755   0.405   3.149
18991W        W91251   4.382  41.368  12.702
18992W        W91252  27.225  40.934   9.862
18993W        W91253  42.008  33.145   3.187
18994W        W91254  17.559  16.572  14.905
18995W        W91255   4.796  26.771  11.567
18996W        W91256  38.499  16.863  11.094
18997W        W91257   8.249  32.707   4.588
18998W        W91258  17.188  22.685  13.383
18999W        W91259  36.534   4.370  11.725
19000W        W91260  14.814   0.070   0.431
19001W        W91261   9.267  13.395  13.742
19002W        W91262  23.024  15.811   4.667
19003W        W91263  28.921  18.455  11.647
19004W        W91264  13.080   5.137  14.867
19005W        W91265  27.411  25.690   3.760
19006W        W91266   7.221  34.596   2.483
19007W        W91267  43.916  32.539   1.534
19008W        W91268  31.241  44.535  11.049
19009W        W91269  17.218  41.892   3.062
19010W        W91270  19.836  22.993  11.959
19011W        W91271   9.729  34.860  12.558
19012W        W91272   2.707  32.147  13.009
19013W        W91273  11.910   3.810   0.535
19014W        W91274  41.423   9.889   3.298
19015W        W91275  34.213  24.207   0.500
19016W        W91276   4.160  40.000  14.348
19017W        W91277  24.486  38.131  10.999
19018W        W91278  36.348  44.987  14.772
19019W        W91279  29.478   2.378   2.310
19020W        W91280   9.620  29.626   1.333
19021W        W91281   3.833  11.028  11.191
19022W        W91282   4.241  31.619  13.688
19023W        W91283  21.207  19.269  13.299
19024W        W91284  19.490   6.182   1.091
19025W        W91285   9.360   5.332   3.726
19026W        W91286   0.817  10.742   2.144
19027W        W91287   2.797  33.709   5.053
19028W        W91288  12.507  39.534   2.889
19029W        W91289  33.866  19.133   5.131
19030W        W91290  36.561   9.866   3.976
19031W        W91291  38.360  23.555   3.606
19032W        W91292  36.561   1.157   0.785
19033W        W91293  36.456  21.099   0.756
19034W        W91294  37.963   4.343  12.558
19035W        W91295  10.217  14.814  14.429
19036W        W91296   3.484   9.323   3.619
19037W        W91297  32.640  13.094  11.607
19038W        W91298  12.789  18.064   3.358
19039W        W91299  19.235   1.602   2.592
19040W        W91300  33.573  41.583  13.940
19041W        W91301  20.716  14.589   1.520
19042W        W91302  17.280  11.563  11.452
19043W        W91303  39.917  24.429   2.639
19044W        W91304  40.706   7.383   3.116
19045W        W91305  26.731  28.713   0.579
19046W        W91306  38.839  13.093  10.668
19047W        W91307   2.873  32.994  11.187
19048W        W91308   1.156  41.291  14.712
19049W        W91309  39.501   1.719   1.696
19050W        W91310  26.756  21.063  13.804
19051W        W91311  30.736  35.118   0.443
19052W        W91312   2.397  28.130   2.328
19053W        W91313  29.878  40.435   2.382
19054W        W91314  43.731   4.003  11.615
19055W        W91315  27.608  17.978   1.199
19056W        W91316   2.847  32.028   4.380
19057W        W91317  23.042  19.412  14.898
19058W        W91318  22.330  43.292   4.511
19059W        W91319   1.812  13.178   1.596
19060W        W91320   9.661  10.596  11.132
19061W        W91321   0.419  32.238  13.538
19062W        W91322  30.650  39.080   2.140
19063W        W91323  20.819   6.634  11.856
19064W        W91324   2.968  40.028  10.774
19065W        W91325  19.903   5.120  14.096
19066W        W91326  41.884  43.052  13.963
19067W        W91327   2.150  36.834   4.118
19068W        W91328  39.506  32.293   4.031
19069W        W91329  11.164  30.481  13.977
19070W        W91330  26.926  35.840   2.701
19071W        W91331   1.796  33.253  10.383
19072W        W91332  22.989  20.787   2.828
19073W        W91333   1.620   5.764   0.834
19074W        W91334  19.202  21.034   3.690
19075W        W91335  17.707  25.609  13.292
19076W        W91336  20.265   3.350  14.431
19077W        W91337  11.122  16.798   4.809
19078W        W91338  20.930  43.792  11.236
19079W        W91339  18.574  23.057   3.227
19080W        W91340   8.417  20.459   2.369
19081W        W91341  38.073  26.704   3.697
19082W        W91342  29.969  44.766   4.329
19083W        W91343  30.922  31.483   5.377
19084W        W91344  19.468  25.145  14.242
19085W        W91345   4.088  12.273   2.192
19086W        W91346  24.269  43.218   1.130
19087W        W91347  26.415  24.454  11.996
19088W        W91348  38.559  39.845  11.918
19089W        W91349  21.340  43.036  14.402
19090W        W91350   5.775  26.536   3.350
19091W        W91351  29.353  31.399   4.549
19092W        W91352  11.781  37.964   3.722
19093W        W91353  36.307  20.303   1.406
19094W        W91354   9.826  32.540   3.110
19095W        W91355   1.992  13.017  10.725
19096W        W91356  43.487   7.467   2.361
19097W        W91357   6.891  38.673   2.657
19098W        W91358   4.241  10.148  14.728
19099W        W91359  32.806   7.711  11.063
19100W        W91360  11.883  38.275   1.941
19101W        W91361  42.509   4.023  14.616
19102W        W91362  10.034  14.379   3.895
19103W        W91363  41.804  17.262  13.122
19104W        W91364   7.667  39.839   4.653
19105W        W91365  27.689  29.086   0.307
19106W        W91366  32.194  22.624   1.196
19107W        W91367  32.490  36.855   4.551
19108W        W91368   2.898  20.856  14.909
19109W        W91369   0.427  25.311  14.951
19110W        W91370  24.287  17.769  14.422
19111W        W91371  42.006  20.557  11.624
19112W        W91372   2.449  16.595   0.036
19113W        W91373   9.207  16.252   2.160
19114W        W91374   7.424  32.481  12.111
19115W        W91375   4.668  38.035   3.670
19116W        W91376  44.514  11.305  13.730
19117W        W91377  42.766   2.209  14.391
19118W        W91378  18.673  29.901   4.195
19119W        W91379  23.470   7.759  12.053
19120W        W91380   5.981   5.615  11.967
19121W        W91381  32.638  10.439  13.435
19122W        W91382  31.038  28.969   2.425
19123W        W91383  37.471   0.180   3.299
19124W        W91384  24.005  30.599  11.006
19125W        W91385   0.914   5.349   1.270
19126W        W91386  30.935   0.336   2.016
19127W        W91387   2.916  32.990   1.785
19128W        W91388  26.724  43.388   3.694
19129W        W91389  28.862  34.547  12.101
19130W        W91390  18.606  40.336   3.093
19131W        W91391  14.813  23.104   1.702
19132W        W91392  28.551   4.802   2.611
19133W        W91393  37.761  38.970   1.366
19134W        W91394  13.613  27.607  13.249
19135W        W91395  14.281  43.082   0.895
19136W        W91396  20.574  41.256   1.094
19137W        W91397   3.448   5.293  13.875
19138W        W91398  27.638   4.245  10.649
19139W        W91399  20.750  18.957  11.703
19140W        W91400  36.505   3.219  11.692
19141W        W91401  13.534  29.057  11.222
19142W        W91402  37.429   8.630   4.323
19143W        W91403  29.714  33.629  14.527
19144W        W91404   1.057   8.704  11.693
19145W        W91405  29.101  29.700  11.549
19146W        W91406  12.814  37.972   1.876
19147W        W91407   3.875  34.980   0.352
19148W        W91408  42.978   5.408  10.404
19149W        W91409  32.586  17.254  12.674
19150W        W91410   2.887  11.370  11.038
19151W        W91411  27.110  16.571   1.616
19152W        W91412   7.640  34.577  12.550
19153W        W91413  12.906   7.671   2.159
19154W        W91414   9.750  19.953  11.204
19155W        W91415  15.747   1.405   1.234
19156W        W91416   0.904  26.966  12.401
19157W        W91417   7.733   7.492   1.015
19158W        W91418  20.106  35.685  13.583
19159W        W91419  18.901  18.455   2.320
19160W        W91420  18.290  40.548   1.721
19161W        W91421  18.694  30.959   3.285
19162W        W91422  10.081   0.897  14.170
19163W        W91423   5.937   8.741  13.786
19164W        W91424  34.992   3.347  14.752
19165W        W91425  26.185  10.110  14.958
19166W        W91426  44.939  39.378  13.332
19167W        W91427  17.715  23.983  12.838
19168W        W91428  36.510  18.121  14.654
19169W        W91429   7.439  38.095   2.742
19170W        W91430   9.842   5.466   3.671
19171W        W91431  21.186  18.504  12.917
19172W        W91432  23.559  38.079   0.153
19173W        W91433  10.688  10.615  11.281
19174W        W91434  23.975  30.638  14.254
19175W        W91435  36.744  21.570   3.684
19176W        W91436  44.672   5.373   2.058
19177W        W91437  15.580  39.233  13.244
19178W        W91438  33.012   8.855   4.638
19179W        W91439   4.130  29.130  14.934
19180W        W91440   0.209  14.854  11.577
19181W        W91441   6.717  43.830  10.656
19182W        W91442  15.119  35.779  14.553
19183W        W91443   8.344  39.559   3.321
19184W        W91444  15.288  42.942   0.774
19185W        W91445  15.367  19.067  13.099
19186W        W91446  11.689  12.381   3.284
19187W        W91447  27.575   8.672   0.489
19188W        W91448  26.754   4.519  12.640
19189W        W91449  26.676   0.012  11.478
19190W        W91450   3.348  31.975   3.610
19191W        W91451  22.073  32.126   4.946
19192W        W91452  19.003  35.523   2.285
19193W        W91453  39.707   8.479  12.413
19194W        W91454  37.668   3.750   1.933
19195W        W91455  36.765  20.801  12.114
19196W        W91456  16.251  42.228   4.751
19197W        W91457  37.524  16.077  11.618
19198W        W91458  29.629  14.801  13.640
19199W        W91459  18.598  31.631   1.843
19200W        W91460  13.613  42.332   4.584
19201W        W91461   4.322  14.222   1.837
19202W        W91462  30.711   3.456  14.003
19203W        W91463  18.100  15.204  13.777
19204W        W91464   4.709   1.846  13.926
19205W        W91465  22.084  25.807   0.344
19206W        W91466  18.797   5.627   0.526
19207W        W91467  32.782  10.936  13.381
19208W        W91468  26.695  39.016  13.300
19209W        W91469   8.915  21.917   3.977
19210W        W91470  37.771  27.513  11.505
19211W        W91471   7.711  27.628  11.978
19212W        W91472  13.820  44.445  11.903
19213W        W91473  42.021  37.459  10.740
19214W        W91474  37.490  29.189  12.404
19215W        W91475  29.800  19.710   0.777
19216W        W91476   3.329  42.421   4.326
19217W        W91477  39.928   9.291   4.929
19218W        W91478  41.383  17.886  11.037
19219W        W91479  32.662  27.700   2.305
19220W        W91480  26.156  27.776  13.657
19221W        W91481  27.005  40.398   0.302
19222W        W91482   4.806  26.730  10.225
19223W        W91483   2.149   6.299   1.411
19224W        W91484   9.838  32.042   3.353
19225W        W91485  20.264  41.849  11.191
19226W        W91486  13.005  20.615   0.766
19227W        W91487   0.927   4.820   3.717
19228W        W91488  39.076  28.085   4.207
19229W        W91489  25.332  10.489   5.009
19230W        W91490  25.582  12.826  12.432
19231W        W91491   7.238  30.394   2.478
19232W        W91492  29.342  26.187   0.195
19233W        W91493  15.805   6.753   1.195
19234W        W91494   6.762  38.058  13.336
19235W        W91495  17.957  12.763  10.916
19236W        W91496   9.199   9.678  13.328
19237W        W91497   7.684  19.006   0.611
19238W        W91498   6.272  26.395  14.591
19239W        W91499  16.558  28.083   3.824
19240W        W91500  26.140  14.100   0.928
19241W        W91501  40.390  37.583  14.790
19242W        W91502  17.826   0.439  11.148
19243W        W91503  19.441  25.442   4.105
19244W        W91504   6.748   6.316  12.334
19245W        W91505  21.104  23.217   4.569
19246W        W91506   9.225  33.391   5.104
19247W        W91507  41.592  24.093  10.825
19248W        W91508  10.661  10.281  14.010
19249W        W91509  15.397  43.512  11.070
19250W        W91510  14.825  17.732   2.705
19251W        W91511   3.458   0.596  11.965
19252W        W91512  10.230  32.686   2.820
19253W        W91513   7.532   5.502   3.280
19254W        W91514   2.891  10.425   2.413
19255W        W91515  39.011  23.659  12.309
19256W        W91516  28.927  41.410  10.693
19257W        W91517  30.162  32.121   2.312
19258W        W91518  39.018  36.932  14.748
19259W        W91519  20.768  42.069  11.593
19260W        W91520  29.401  18.746   0.914
19261W        W91521  26.874  44.877   4.292
19262W        W91522  36.575  22.277   0.173
19263W        W91523  28.773  22.608  12.012
19264W        W91524  40.492  22.046  13.264
19265W        W91525  34.364   0.271   2.355
19266W        W91526  40.008  30.042   4.535
19267W        W91527  29.626  42.417   0.486
19268W        W91528  24.699  15.184  13.363
19269W        W91529   0.017  22.427  12.034
19270W        W91530   9.587   2.967   3.740
19271W        W91531  32.182  36.370   0.995
19272W        W91532  38.891  18.331   3.667
19273W        W91533  11.945   3.477   1.362
19274W        W91534  28.926  14.363  13.806
19275W        W91535   0.826  29.533   1.854
19276W        W91536   1.549   6.196   0.458
19277W        W91537  24.175   3.403   0.498
19278W        W91538   0.753  35.873   1.812
19279W        W91539  15.615  16.695  10.506
19280W        W91540  10.347  23.674  10.292
19281W        W91541  11.358  33.409  14.948
19282W        W91542  21.065  34.461   2.643
19283W        W91543  22.324  25.624   5.037
19284W        W91544   7.452  24.198  14.980
19285W        W91545  20.798  15.242   1.795
19286W        W91546   3.793  19.813  14.232
19287W        W91547   1.342  12.530  13.974
19288W        W91548  39.874  22.491   1.696
19289W        W91549  20.430  30.881   4.106
19290W        W91550  43.980  21.304  11.554
19291W        W91551  17.190   2.946  11.447
19292W        W91552  14.646   7.353   2.677
19293W        W91553  10.532   1.603  12.020
19294W        W91554   5.208  12.677  14.110
19295W        W91555  38.915  31.587  13.022
19296W        W91556  24.547  36.437   2.161
19297W        W91557  18.435  13.840  13.566
19298W        W91558   0.721  21.775  11.593
19299W        W91559  10.088  35.689   4.154
19300W        W91560   3.839  15.206  11.335
19301W        W91561   4.881  40.339   4.739
19302W        W91562  10.718  32.392   4.643
19303W        W91563  32.082  18.469  10.281
19304W        W91564  28.124  19.664   4.113
19305W        W91565  21.123  19.750  10.717
19306W        W91566  18.242  35.681  12.701
19307W        W91567  44.163  29.103  12.067
19308W        W91568  34.303  11.775   2.649
19309W        W91569  36.092  39.382   1.211
19310W        W91570  29.591   4.433  11.942
19311W        W91571  27.759  28.074   3.233
19312W        W91572  32.837  16.786   2.380
19313W        W91573  17.296  36.829   2.201
19314W        W91574  31.425   3.904  14.813
19315W        W91575  15.972  14.131  13.514
19316W        W91576  12.326   4.909  10.801
19317W        W91577  17.802  31.077  12.521
19318W        W91578  27.180  10.672  14.461
19319W        W91579  27.037  21.760  11.060
19320W        W91580  25.483  42.597   4.656
19321W        W91581  17.578   1.216  13.900
19322W        W91582  40.363   1.846  14.003
19323W        W91583  38.331  30.510   0.822
19324W        W91584  20.121  30.008   2.701
19325W        W91585  34.056  32.931  12.846
19326W        W91586  40.032  26.219   1.364
19327W        W91587   3.714  35.103   2.701
19328W        W91588  32.553  27.597   4.576
19329W        W91589  27.132  26.950  12.282
19330W        W91590  19.563   1.704  11.110
19331W        W91591  22.216  23.038  10.922
19332W        W91592  15.154  37.914  13.345
19333W        W91593  29.019   2.951  14.053
19334W        W91594   0.427  35.977   4.596
19335W        W91595  40.679  34.070   2.821
19336W        W91596  26.741   9.864   4.079
19337W        W91597   6.884   3.040   0.917
19338W        W91598  26.863  27.870  13.708
19339W        W91599  36.469  43.768   4.211
19340W        W91600   2.480  17.169  13.299
19341W        W91601  16.245   2.472  14.839
19342W        W91602  27.393   8.169  12.828
19343W        W91603   3.449  36.446  13.177
19344W        W91604  20.299  43.366  12.020
19345W        W91605  35.042  25.901   0.204
19346W        W91606   8.163  16.350   2.663
19347W        W91607   8.718  23.276  11.616
19348W        W91608  43.812  29.163   3.844
19349W        W91609   4.496  28.575   3.184
19350W        W91610  43.365  16.190   3.829
19351W        W91611   7.831  21.677  13.632
19352W        W91612  19.877  10.117  12.496
19353W        W91613   7.379  36.379   4.660
19354W        W91614  31.395  21.570  13.527
19355W        W91615  10.859  41.070  11.607
19356W        W91616  10.067   1.297  13.802
19357W        W91617  43.895  11.550   4.564
19358W        W91618  25.908  39.387  10.801
19359W        W91619  18.641  37.964  12.043
19360W        W91620  17.359   1.775   1.241
19361W        W91621  29.937  16.191  12.902
19362W        W91622  24.979  29.420   0.263
19363W        W91623   2.738  13.982   4.125
19364W        W91624  30.035  29.383   1.495
19365W        W91625  44.960  41.716   2.689
19366W        W91626  24.598   0.860  13.638
19367W        W91627  22.472   0.265   2.450
19368W        W91628  41.485  34.880   3.166
19369W        W91629  40.503  27.492   0.230
19370W        W91630  29.187  20.178  14.034
19371W        W91631  38.410  32.898  10.742
19372W        W91632  26.482  22.302  11.551
19373W        W91633  22.602  36.528  11.184
19374W        W91634  24.865  27.644  10.902
19375W        W91635  38.151  14.005   3.568
19376W        W91636  20.993  39.599   0.399
19377W        W91637  41.980  14.808   0.781
19378W        W91638   3.721   1.440   2.846
19379W        W91639   3.733  19.319  11.661
19380W        W91640  29.690  30.481  10.229
19381W        W91641  35.528   7.517  13.893
19382W        W91642  42.898  15.628  10.658
19383W        W91643  12.840  11.567   2.017
19384W        W91644  13.824  38.758   2.384
19385W        W91645  44.742  18.725   1.960
19386W        W91646  14.716  33.314   3.864
19387W        W91647  35.497  18.719   1.958
19388W        W91648  25.625  10.448   4.539
19389W        W91649  19.453   0.289   1.842
19390W        W91650  19.204   0.802  11.181
19391W        W91651  25.651   6.902  12.453
19392W        W91652   1.736   8.762   0.448
19393W        W91653  19.716  34.625  12.870
19394W        W91654  35.054  32.527   4.531
19395W        W91655  44.035   1.003  10.868
19396W        W91656  21.998  28.666   3.149
19397W        W91657  22.359  30.613  13.107
19398W        W91658  21.301  12.117  12.084
19399W        W91659   4.290   7.394   0.651
19400W        W91660  41.109  27.578  13.118
19401W        W91661  40.555  26.674   1.666
19402W        W91662   5.004  37.312   1.322
19403W        W91663  13.176  33.976   1.666
19404W        W91664  10.157  31.920   0.352
19405W        W91665  23.183   2.512  13.030
19406W        W91666  25.641  26.563   0.364
19407W        W91667  11.093  25.098  10.626
19408W        W91668  32.904  26.863   2.270
19409W        W91669  38.866  39.688   1.322
19410W        W91670  41.294  13.730  12.441
19411W        W91671   3.483   5.801  12.086
19412W        W91672   9.460  21.445  14.445
19413W        W91673  43.301  39.488   3.349
19414W        W91674   5.910  26.815   2.927
19415W        W91675  39.831  44.451  11.136
19416W        W91676  16.264  44.838   0.477
19417W        W91677   8.435   5.568   3.787
19418W        W91678  12.152  27.664   4.689
19419W        W91679  14.161  17.797   2.380
19420W        W91680  29.058   1.230   0.671
19421W        W91681  12.326   7.303  11.875
19422W        W91682  28.556   8.722   0.487
19423W        W91683   4.341  15.853   0.691
19424W        W91684  21.011  26.531   4.240
19425W        W91685  31.153  44.331  13.010
19426W        W91686  36.482  19.040   9.805
19427W        W91687  21.735  33.027   2.676
19428W        W91688  25.538   4.547   3.263
19429W        W91689   4.105  19.694  11.018
19430W        W91690   9.340  18.343  12.008
19431W        W91691   0.918   0.982  11.721
19432W        W91692  19.618  25.181  13.390
19433W        W91693  32.987  39.305   3.656
19434W        W91694  36.953  13.731   4.513
19435W        W91695  40.793  31.953   0.529
19436W        W91696  14.861   6.349   2.457
19437W        W91697  10.836  24.234  12.395
19438W        W91698  21.740  32.459   0.972
19439W        W91699  41.069  30.119   3.208
19440W        W91700  43.925   1.235   4.131
19441W        W91701  39.709  13.909   4.680
19442W        W91702  39.907   3.215   1.451
19443W        W91703  40.033  34.644   2.151
19444W        W91704  41.547  33.403  12.887
19445W        W91705  15.446   4.047   4.201
19446W        W91706   6.356  29.533   1.752
19447W        W91707  11.650  13.205   2.312
19448W        W91708  31.954  28.036   0.843
19449W        W91709  25.316  43.363   0.310
19450W        W91710   7.432  16.607  10.897
19451W        W91711  11.596  37.793   1.866
19452W        W91712  28.668  20.938  14.902
19453W        W91713   5.953  14.040   2.203
19454W        W91714  13.686  42.394   1.521
19455W        W91715  28.627  32.478  12.605
19456W        W91716  14.391  15.310   3.663
19457W        W91717  29.629  17.268   3.652
19458W        W91718  23.086  34.042   2.321
19459W        W91719  13.688  34.860  14.983
19460W        W91720   3.449   9.664   1.424
19461W        W91721  24.125  40.647  10.255
19462W        W91722   4.413  41.084  11.608
19463W        W91723  40.031   9.382  10.218
19464W        W91724  20.377  19.184  12.479
19465W        W91725  10.315  12.293   3.377
19466W        W91726  16.584   3.612  11.615
19467W        W91727  17.955  40.604   1.324
19468W        W91728   5.451  38.072   1.953
19469W        W91729  22.494  24.490   3.814
19470W        W91730  20.114  21.630   1.159
19471W        W91731  25.180  29.397  13.844
19472W        W91732  23.309   9.117   2.331
19473W        W91733  21.980  18.117   0.482
19474W        W91734  12.696  42.307   1.496
19475W        W91735  41.542  16.377  13.321
19476W        W91736  36.111  31.573  10.780
19477W        W91737  39.265   5.667   1.955
19478W        W91738  13.793   2.027  14.440
19479W        W91739  44.151  26.767   2.235
19480W        W91740   5.344   7.871   4.574
19481W        W91741   7.214  27.174   4.074
19482W        W91742  13.799  36.995  14.445
19483W        W91743  44.798  39.529  14.796
19484W        W91744   8.807   0.503   0.891
19485W        W91745  36.843  14.812  14.810
19486W        W91746  34.379   9.516  13.372
19487W        W91747  33.916  32.179   1.932
19488W        W91748  40.516   1.144   3.904
19489W        W91749  12.574  34.345  10.730
19490W        W91750  31.329  23.967  10.647
19491W        W91751  34.164  44.043  12.786
19492W        W91752  15.435  43.273   1.429
19493W        W91753   3.797   2.523   0.309
19494W        W91754  31.602  35.596   2.977
19495W        W91755   6.770  19.530   1.846
19496W        W91756  31.520  35.678   1.129
19497W        W91757  34.611  23.294  10.748
19498W        W91758  39.286   8.638  10.253
19499W        W91759  27.190  41.349  13.400
19500W        W91760  31.189  10.821   4.125
19501W        W91761  23.761  12.234   1.424
19502W        W91762  15.577  27.602  14.446
19503W        W91763  18.592  40.436  12.359
19504W        W91764  24.391   6.410   1.167
19505W        W91765  32.351  10.777   3.909
19506W        W91766  32.730  36.514  10.679
19507W        W91767  11.791  20.077  14.338
19508W        W91768  41.052  38.836   2.898
19509W        W91769  24.015  26.448  14.919
19510W        W91770  42.521   7.200  11.546
19511W        W91771  21.988  35.097   1.812
19512W        W91772  44.228  35.530   1.867
19513W        W91773   0.831  36.142  10.771
19514W        W91774  13.352  44.567  14.039
19515W        W91775  23.752  17.293   1.641
19516W        W91776  30.494  16.693  14.095
19517W        W91777   8.300  24.633   3.615
19518W        W91778   9.178  29.975  12.576
19519W        W91779   4.832  29.670  14.781
19520W        W91780   4.925  43.009   2.168
19521W        W91781  42.811  16.138  10.540
19522W        W91782  22.461  33.419  13.763
19523W        W91783  12.137  40.364  14.041
19524W        W91784   7.116  28.411  10.969
19525W        W91785  42.471  31.885   3.030
19526W        W91786  10.760   2.198  13.549
19527W        W91787  24.611  32.637   3.101
19528W        W91788   8.978  20.115  14.227
19529W        W91789  26.475  42.762   0.871
19530W        W91790  29.394  34.911  12.490
19531W        W91791  27.695  24.579  12.934
19532W        W91792  19.310  22.562   3.672
19533W        W91793  19.979  20.608   4.755
19534W        W91794  30.115  36.523  12.443
19535W        W91795  12.310  10.388   3.753
19536W        W91796   7.447  39.045  13.338
19537W        W91797  37.425  33.650  10.413
19538W        W91798  21.292  12.365   3.763
19539W        W91799  30.385  39.273   3.357
19540W        W91800  36.901   1.877  10.728
19541W        W91801  26.222   3.971  14.773
19542W        W91802  30.084  25.262  13.010
19543W        W91803   3.338  28.689  11.468
19544W        W91804  11.684  28.202  10.735
19545W        W91805  18.732  30.546   0.450
19546W        W91806  42.431   3.171   2.168
19547W        W91807  40.030  14.129   1.713
19548W        W91808  15.165  29.585  10.130
19549W        W91809   8.331   5.056   1.265
19550W        W91810   7.271  31.584   3.206
19551W        W91811   4.273  41.526  13.655
19552W        W91812  20.399  30.474   4.442
19553W        W91813  11.620  22.229  11.998
19554W        W91814  12.621  26.954  13.599
19555W        W91815   1.193  19.272  10.741
19556W        W91816   4.328  44.405   3.157
19557W        W91817  17.394  29.767   3.708
19558W        W91818   2.967  26.064  13.531
19559W        W91819  28.716  31.840  10.233
19560W        W91820  15.399  40.309   3.249
19561W        W91821  44.139  18.044   1.914
19562W        W91822  31.428  18.549  11.617
19563W        W91823  31.878  23.565   1.292
19564W        W91824  44.038  21.977   0.311
19565W        W91825   6.156  44.570   1.320
19566W        W91826  40.315  32.422  13.396
19567W        W91827  28.466  30.650   4.927
19568W        W91828  28.633  31.169  11.142
19569W        W91829  40.816  17.323   4.662
19570W        W91830   0.586  13.227  11.141
19571W        W91831  27.994   1.166   1.822
19572W        W91832  27.071  24.623   0.455
19573W        W91833  31.847  34.166  14.448
19574W        W91834  38.924  37.966   4.654
19575W        W91835  19.491   1.813   1.669
19576W        W91836  14.678   3.622  11.532
19577W        W91837  32.521   7.859  12.782
19578W        W91838  34.033  42.999  14.890
19579W        W91839   8.420  19.794   0.057
19580W        W91840  34.950  25.944   2.616
19581W        W91841   6.356  30.645   3.346
19582W        W91842  33.113  38.311  13.998
19583W        W91843   0.254  33.686  14.433
19584W        W91844  29.621   0.380  14.841
19585W        W91845   8.169   1.535  13.891
19586W        W91846  37.606  29.062   9.923
19587W        W91847  18.878  43.262   2.513
19588W        W91848   4.875  22.920  13.065
19589W        W91849  23.954  13.577   2.391
19590W        W91850  30.498  27.689   1.654
19591W        W91851  10.977  40.378   2.529
19592W        W91852  15.313  23.550  12.003
19593W        W91853  15.238  24.719  13.399
19594W        W91854  43.527  10.244  13.596
19595W        W91855  21.694  30.906  11.591
19596W        W91856  44.588   7.955  11.561
19597W        W91857   6.412  39.452   0.341
19598W        W91858  41.917  10.225  12.924
19599W        W91859  30.802   7.032   2.584
19600W        W91860   3.352  11.968  14.936
19601W        W91861  40.472  17.987   5.047
19602W        W91862  41.979  38.402  14.716
19603W        W91863  32.451  33.693  10.451
19604W        W91864  22.738   5.378  14.364
19605W        W91865  25.437   1.555  13.936
19606W        W91866  43.966  38.614   2.323
19607W        W91867  20.602  29.555  13.966
19608W        W91868  38.042   1.241   3.789
19609W        W91869  14.767  42.810   0.809
19610W        W91870   2.248  12.843  12.487
19611W        W91871  21.166  34.446   9.701
19612W        W91872  21.173  13.169   4.083
19613W        W91873  37.488  42.272  12.049
19614W        W91874  18.986   7.123   2.656
19615W        W91875  26.394  11.294  14.255
19616W        W91876  16.027  38.365   0.340
19617W        W91877   6.114   8.929   1.699
19618W        W91878  17.735  26.545   4.066
19619W        W91879  23.981   4.934   2.667
19620W        W91880  26.731  26.023  14.270
19621W        W91881  18.985  11.697   2.840
19622W        W91882  44.311   2.897   3.728
19623W        W91883  32.374  14.618  10.694
19624W        W91884  42.339  18.333  14.063
19625W        W91885  11.100  36.591  11.674
19626W        W91886  25.459  25.416  14.444
19627W        W91887  34.661  21.942  13.329
19628W        W91888   0.875   9.528  12.315
19629W        W91889  40.855  34.776   1.289
19630W        W91890   4.322  18.479  13.472
19631W        W91891  29.809  19.019   3.306
19632W        W91892  27.430  17.132  11.397
19633W        W91893   0.001   2.682   0.862
19634W        W91894   5.573   4.952  10.664
19635W        W91895  27.119  25.065   1.380
19636W        W91896  32.875  16.142  13.434
19637W        W91897  19.279  19.085  14.788
19638W        W91898   5.952   0.354   2.811
19639W        W91899  39.922   1.980   1.794
19640W        W91900   8.941   6.741  11.832
19641W        W91901  16.045  37.712  11.549
19642W        W91902  36.997   0.931  14.437
19643W        W91903  35.215  27.771  13.484
19644W        W91904  36.388  29.308   3.085
19645W        W91905  44.416  33.491   4.225
19646W        W91906   5.638  25.584  13.619
19647W        W91907  22.058  10.925   4.562
19648W        W91908  13.620  15.929  14.407
19649W        W91909  29.487  39.357  13.805
19650W        W91910  28.900  34.489   3.697
19651W        W91911  12.284  44.431  10.896
19652W        W91912   6.757  32.971  12.593
19653W        W91913  11.423  32.559   4.214
19654W        W91914   9.198  22.180  13.956
19655W        W91915  11.560   1.751  14.093
19656W        W91916  29.996  35.101  11.064
19657W        W91917  36.122  25.339  14.479
19658W        W91918   4.331  23.594  13.230
19659W        W91919  36.176   4.510  12.660
19660W        W91920  17.059  14.132  10.572
19661W        W91921  39.348  25.047   0.623
19662W        W91922  40.994  29.625  14.289
19663W        W91923   4.439  17.556   1.009
19664W        W91924  42.625   2.323   2.293
19665W        W91925   5.996  19.620  12.125
19666W        W91926  25.097  17.580   4.672
19667W        W91927   6.756  10.335   1.385
19668W        W91928  34.389   8.779   0.297
19669W        W91929  35.990  23.310  12.043
19670W        W91930  27.046  22.326  12.467
19671W        W91931  37.467  36.369  12.917
19672W        W91932  15.597  14.686  13.086
19673W        W91933   1.203  13.874   3.152
19674W        W91934  22.697   8.324   2.674
19675W        W91935  27.041  13.307   2.235
19676W        W91936  17.084  25.358   4.552
19677W        W91937  30.422  10.895  13.825
19678W        W91938  21.766  34.066   1.835
19679W        W91939  16.131  42.797  13.796
19680W        W91940  17.598   9.140   1.939
19681W        W91941  44.665  44.758   4.620
19682W        W91942  34.253   3.284  11.873
19683W        W91943  25.663  29.638  10.348
19684W        W91944   3.360   7.781  14.039
19685W        W91945  29.210  31.161  10.446
19686W        W91946   2.167  43.973   0.192
19687W        W91947  15.888  19.730  12.894
19688W        W91948  43.208   7.882  14.647
19689W        W91949  37.456  24.148  14.011
19690W        W91950   4.561  41.277   4.836
19691W        W91951  19.546  32.229  11.060
19692W        W91952  39.912  39.732   3.761
19693W        W91953  43.581  18.731   2.751
19694W        W91954  33.534  14.252  11.954
19695W        W91955  32.913  25.858   4.607
19696W        W91956  36.408  39.504  14.937
19697W        W91957  11.599   0.796   4.573
19698W        W91958  31.962  11.268   4.492
19699W        W91959  22.964  44.909  14.424
19700W        W91960  33.789  36.357  14.400
19701W        W91961  28.982  22.713  13.332
19702W        W91962  28.425  31.050   1.616
19703W        W91963  29.893   1.320  14.444
19704W        W91964  30.601  10.711   1.829
19705W        W91965  44.952  11.268   3.577
19706W        W91966  42.880  26.975   2.206
19707W        W91967  32.665  16.853  13.531
19708W        W91968   8.905  14.323  12.006
19709W        W91969  25.112  30.925  12.608
19710W        W91970  30.325  31.708   2.631
19711W        W91971  23.116   2.873   0.751
19712W        W91972   7.022  15.161  12.966
19713W        W91973  27.107  21.770   1.677
19714W        W91974  25.641  38.116   2.869
19715W        W91975   1.798  25.207   1.389
19716W        W91976  37.954  31.180  13.835
19717W        W91977   7.502  26.110   4.553
19718W        W91978  31.134  38.401   2.763
19719W        W91979  37.275  32.687  11.136
19720W        W91980  14.682  42.524   0.207
19721W        W91981  35.608   6.921   4.885
19722W        W91982  25.734  11.060  13.005
19723W        W91983  22.499   6.142  13.079
19724W        W91984  20.224  41.314   3.254
19725W        W91985  41.228  33.109  12.583
19726W        W91986   3.938  31.103   0.956
19727W        W91987   8.881  29.091  13.816
19728W        W91988  29.422  22.124  12.113
19729W        W91989   6.284  39.549  11.909
19730W        W91990  27.925  41.808   3.296
19731W        W91991   8.193  36.343  14.981
19732W        W91992  21.657  38.563  11.387
19733W        W91993  17.451   7.396   4.077
19734W        W91994  12.522  41.264   4.664
19735W        W91995  24.136  14.038   2.232
19736W        W91996  27.888  15.757  13.472
19737W        W91997  20.366   4.763   4.144
19738W        W91998  41.719  26.641  11.512
19739W        W91999  37.668  26.718   1.174
19740W        W92000  19.996  12.115  14.358
19741W        W92001   1.439   5.618  11.573
19742W        W92002   2.739  43.319   1.433
19743W        W92003   1.401   4.012  13.872
19744W        W92004  42.912   0.547   3.627
19745W        W92005  36.946  44.498  11.172
19746W        W92006  30.520  13.065  10.636
19747W        W92007   1.425  18.157   1.316
19748W        W92008   9.793  24.134   1.383
19749W        W92009   7.766   0.587  13.887
19750W        W92010  27.486  27.491  11.855
19751W        W92011  41.923  20.909   1.431
19752W        W92012  25.098   6.727  14.085
19753W        W92013  43.877   9.908   2.853
19754W        W92014   5.398   6.346   1.391
19755W        W92015  22.928  29.283   5.029
19756W        W92016  24.011  37.972   1.454
19757W        W92017   3.175  36.312   0.942
19758W        W92018  37.217  23.150  13.945
19759W        W92019  36.129   3.087   4.029
19760W        W92020  30.904  22.319   1.120
19761W        W92021  11.659   2.820  11.585
19762W        W92022  19.272   0.936  12.924
19763W        W92023  35.562  18.860  10.982
19764W        W92024   8.339  13.358   0.352
19765W        W92025   6.394   6.890   4.001
19766W        W92026   5.247  15.365  11.182
19767W        W92027  21.636  18.994  13.426
19768W        W92028  26.213  28.089  11.910
19769W        W92029  26.245   6.798  12.865
19770W        W92030   4.796  22.985  11.478
19771W        W92031  22.924  36.028   3.368
19772W        W92032  43.181   5.256  12.552
19773W        W92033  15.103  23.578  12.456
19774W        W92034  25.987   1.389   3.350
19775W        W92035  36.910  39.813   4.138
19776W        W92036  17.058  32.940  10.856
19777W        W92037  44.750  21.170   4.275
19778W        W92038  31.656  23.126  10.636
19779W        W92039  15.813  23.905   9.803
19780W        W92040  10.033  20.559   2.070
19781W        W92041  13.618  37.784   0.930
19782W        W92042  28.521  22.417  14.847
19783W        W92043  39.434  32.904   0.801
19784W        W92044  15.320  42.882  10.269
19785W        W92045  22.337  17.244   0.684
19786W        W92046   9.706  34.540  14.306
19787W        W92047  29.495   4.442   1.265
19788W        W92048  16.353  44.069  11.612
19789W        W92049  31.157   6.164  13.126
19790W        W92050  32.887  39.888   4.968
19791W        W92051  11.865  25.038   1.319
19792W        W92052  31.475  19.687   1.447
19793W        W92053  37.300   1.479   1.977
19794W        W92054  36.389  21.887   3.430
19795W        W92055  43.830  35.584   0.062
19796W        W92056  28.121  41.621  12.960
19797W        W92057  27.287  41.617   9.638
19798W        W92058   3.943  37.915  11.208
19799W        W92059  28.628  35.937   2.238
19800W        W92060  22.592  22.065  11.539
19801W        W92061  40.772   9.668   1.151
19802W        W92062  37.077  35.356   0.071
19803W        W92063  32.188  29.501   1.751
19804W        W92064  23.778  40.945  13.553
19805W        W92065   5.297  39.186  10.489
19806W        W92066  27.710   6.002  12.075
19807W        W92067   0.715   5.856   1.377
19808W        W92068   6.388   0.194  14.885
19809W        W92069   6.711   3.007  12.995
19810W        W92070   1.220  21.056  13.922
19811W        W92071  42.188  33.978   2.650
19812W        W92072  25.548  36.056  13.336
19813W        W92073  34.022  26.235  14.002
19814W        W92074   1.233  23.250  13.569
19815W        W92075  28.865  13.554  11.518
19816W        W92076  13.176  37.819  10.613
19817W        W92077  28.999   4.685  12.478
19818W        W92078  13.332   4.873  11.457
19819W        W92079  13.278  28.134   4.452
19820W        W92080  20.542   7.822  11.924
19821W        W92081  18.981  11.359   3.281
19822W        W92082   2.259  28.118  11.195
19823W        W92083  40.322  18.587  12.397
19824W        W92084  15.755  16.640   1.915
19825W        W92085  37.630  37.598  11.063
19826W        W92086  36.939  44.253  14.798
19827W        W92087  15.306  30.563  14.046
19828W        W92088  43.278  27.250   0.362
19829W        W92089  26.462  40.228  11.936
19830W        W92090   8.073   4.651   0.317
19831W        W92091   7.216  40.797   0.917
19832W        W92092  37.450  27.100  11.466
19833W        W92093  38.557   6.435   3.510
19834W        W92094  34.844  12.635   0.462
19835W        W92095  34.542  26.011   0.111
19836W        W92096  32.534  27.502  11.543
19837W        W92097  34.567  40.773  13.561
19838W        W92098  38.865   1.930   3.558
19839W        W92099  26.078  32.878   0.535
19840W        W92100  44.656  15.275   3.526
19841W        W92101   8.786  36.977  11.816
19842W        W92102  17.008  27.166   1.890
19843W        W92103   6.232  11.584  10.747
19844W        W92104   6.268  26.415   0.404
19845W        W92105  27.302  34.668  14.572
19846W        W92106  20.118  41.355   1.880
19847W        W92107  19.093  24.248   1.243
19848W        W92108  26.164  11.034   0.714
19849W        W92109  44.085  20.570   4.518
19850W        W92110  16.586   5.586   2.246
19851W        W92111  43.349  40.438  12.769
19852W        W92112   5.113  38.484  14.477
19853W        W92113   0.443  39.957   4.895
19854W        W92114   6.428   4.979  11.047
19855W        W92115  26.560   2.270   2.621
19856W        W92116  23.799   7.116   0.845
19857W        W92117  12.387   0.272  13.568
19858W        W92118  17.544  10.171   4.390
19859W        W92119   8.138  32.543   3.155
19860W        W92120  37.855   0.233  13.089
19861W        W92121   2.885   2.342  14.381
19862W        W92122   4.374  44.541  12.906
19863W        W92123  41.775  28.623   2.914
19864W        W92124  28.900  43.843   4.261
19865W        W92125  21.223  37.863  11.512
19866W        W92126  42.900  39.806  10.442
19867W        W92127  26.517  10.210  13.103
19868W        W92128  28.134  10.522   5.132
19869W        W92129  39.480   3.369  14.357
19870W        W92130   4.576   7.528   1.467
19871W        W92131  11.053  16.833   2.728
19872W        W92132   1.818   8.774   4.561
19873W        W92133  36.541   9.838  10.073
19874W        W92134   6.076   2.731   1.303
19875W        W92135   3.788  25.441   0.860
19876W        W92136   7.430  27.164   4.559
19877W        W92137   2.736  18.218   1.836
19878W        W92138  27.132   9.925  10.044
19879W        W92139  22.723  12.620   1.191
19880W        W92140  31.331  24.594  14.887
19881W        W92141  19.462  10.759   2.783
19882W        W92142  25.113  27.119  13.417
19883W        W92143   2.358  24.157  13.642
19884W        W92144  19.282  41.564   4.764
19885W        W92145  33.638  19.615  12.394
19886W        W92146  35.476  12.158   4.551
19887W        W92147   7.287  21.498  13.022
19888W        W92148   8.450  32.009   1.933
19889W        W92149  19.709  36.521  13.067
19890W        W92150  30.631  29.807  11.500
19891W        W92151  33.904  19.774  10.987
19892W        W92152   1.496  16.148   2.181
19893W        W92153   8.393  29.904  11.956
19894W        W92154  20.770  14.161   4.671
19895W        W92155  37.658   2.278  13.588
19896W        W92156   5.164  41.609  13.499
19897W        W92157  15.152  23.776   1.735
19898W        W92158  33.686   6.763  11.976
19899W        W92159  18.123  11.653   2.175
19900W        W92160  21.598   3.003  10.740
19901W        W92161  22.643  30.112   1.980
19902W        W92162  10.253  19.478  14.920
19903W        W92163  24.968  30.574   1.819
19904W        W92164  20.608   5.098   1.940
19905W        W92165   1.831   1.485   1.521
19906W        W92166  43.047  23.666   3.330
19907W        W92167  13.613  11.206   1.835
19908W        W92168  10.745   3.846  14.813
19909W        W92169  29.959  33.131  12.896
19910W        W92170   0.413  41.622  13.601
19911W        W92171  22.947   4.560  11.084
19912W        W92172  43.063   0.934   3.125
19913W        W92173   1.617   7.745   4.620
19914W        W92174  42.823   9.061   4.521
19915W        W92175  44.329  32.065   2.784
19916W        W92176  26.537   6.243   1.698
19917W        W92177  12.095   4.034   4.435
19918W        W92178   6.876  23.385   2.687
19919W        W92179  33.660   6.811   4.315
19920W        W92180  15.716  34.535   3.657
19921W        W92181  15.641  25.369   3.869
19922W        W92182   4.322  28.704   2.700
19923W        W92183   6.148  42.263   2.266
19924W        W92184  16.191  33.807   1.075
19925W        W92185  34.814  11.086  11.585
19926W        W92186  15.746  29.252  13.161
19927W        W92187  12.701   4.931   2.679
19928W        W92188  28.698  44.389  14.537
19929W        W92189  29.166  34.144   3.324
19930W        W92190  36.285  19.507  12.257
19931W        W92191  35.567  12.809   2.821
19932W        W92192  13.699   0.912  12.156
19933W        W92193  16.780   1.264  13.769
19934W        W92194  43.597  13.720  11.022
19935W        W92195  27.597  35.038   1.733
19936W        W92196   3.219  44.531  14.033
19937W        W92197  21.228  30.407  13.940
19938W        W92198  12.263  24.645  12.866
19939W        W92199  31.601  27.597  12.557
19940W        W92200  34.627  16.126   3.256
19941W        W92201  13.852  15.464   3.635
19942W        W92202  42.550  26.268   2.839
19943W        W92203  34.041  30.151  12.398
19944W        W92204  10.328  10.699   1.097
19945W        W92205  15.810  33.857  13.250
19946W        W92206  30.244  17.062   2.212
19947W        W92207  15.207  39.833  13.934
19948W        W92208  12.238   3.861  12.915
19949W        W92209  26.492   9.760  10.872
19950W        W92210  11.590  17.806  13.946
19951W        W92211   3.501  26.809  13.462
19952W        W92212  12.721  24.688  14.960
19953W        W92213  38.256   9.620  14.266
19954W        W92214  20.896  19.810   5.039
19955W        W92215  35.979  43.784   2.749
19956W        W92216   3.192  16.315   0.873
19957W        W92217   4.157   6.197  11.714
19958W        W92218  10.676  26.252  14.034
19959W        W92219  33.036  25.799  14.380
19960W        W92220  17.990  18.686   2.129
19961W        W92221  14.671  34.572   0.232
19962W        W92222   9.400  35.397  10.482
19963W        W92223  38.923  29.864  12.362
19964W        W92224  25.194   3.217  11.977
19965W        W92225  27.038   2.776   4.702
19966W        W92226  30.404  24.448  10.723
19967W        W92227   2.183  43.322   1.466
19968W        W92228  42.686  11.758  13.469
19969W        W92229  30.665  15.658   3.702
19970W        W92230   7.696  30.530   4.069
19971W        W92231  42.553  17.870   1.370
19972W        W92232  20.310  30.580   2.289
19973W        W92233   7.682  41.894  10.955
19974W        W92234  18.230  30.159  12.514
19975W        W92235  30.713   0.048  13.535
19976W        W92236  30.008  16.321   4.080
19977W        W92237   5.487  40.027   4.053
19978W        W92238  39.955  31.625   3.724
19979W        W92239  41.483  41.107   3.201
19980W        W92240  14.568  26.211  13.857
19981W        W92241  19.754  24.397   2.819
19982W        W92242  19.534   8.303  13.519
19983W        W92243  17.256  35.358   0.400
19984W        W92244   3.573   0.975  12.314
19985W        W92245  24.970  42.744   4.697
19986W        W92246  21.150   6.201   1.466
19987W        W92247  17.294  26.679  10.657
19988W        W92248   2.690  18.603  11.158
19989W        W92249  31.411  44.713   0.320
19990W        W92250  10.864  16.938   4.277
19991W        W92251  37.058  36.937   1.748
19992W        W92252  27.204  41.083   0.989
19993W        W92253  39.762  30.059   1.842
19994W        W92254  34.417  44.578   4.464
19995W        W92255  39.867  25.121  10.637
19996W        W92256  30.596  43.428  14.420
19997W        W92257  14.346  19.118   2.809
19998W        W92258  34.185  12.313   2.521
19999W        W92259  44.327  34.114   2.901
20000W        W92260   1.000  24.015   3.307
20001W        W92261  14.785   9.861   4.599
20002W        W92262   2.876  21.054  11.443
20003W        W92263  32.996  34.942   2.432
20004W        W92264  36.889  31.049   0.268
20005W        W92265  39.140  41.759   4.334
20006W        W92266  38.057   9.169  14.428
20007W        W92267  12.821  15.670   4.519
20008W        W92268  37.018  30.638   1.364
20009W        W92269  10.757  25.956   2.693
20010W        W92270   6.389  39.770   2.420
20011W        W92271  28.739  32.357  10.154
20012W        W92272  30.915   1.308  14.335
20013W        W92273  13.612  21.274   2.922
20014W        W92274  19.776  41.214   2.641
20015W        W92275  10.738   4.882   1.366
20016W        W92276  35.411  11.609  11.432
20017W        W92277   6.184  32.288  10.199
20018W        W92278  33.547   2.451  11.931
20019W        W92279   9.290  20.057  14.901
20020W        W92280  17.941  15.719   0.864
20021W        W92281   5.646   4.562   1.799
20022W        W92282  26.486  28.673   2.651
20023W        W92283   8.260  43.760   4.080
20024W        W92284   6.122  44.837   2.847
20025W        W92285  38.862  43.011   2.452
20026W        W92286  14.371   4.834  11.505
20027W        W92287  11.717  44.727   1.624
20028W        W92288  34.617  34.064  11.793
20029W        W92289  28.496  37.957  11.103
20030W        W92290  38.373   1.376  13.226
20031W        W92291  23.211  31.453   4.148
20032W        W92292  36.034  24.673   2.136
20033W        W92293  40.003  11.100   4.442
20034W        W92294   2.734   6.976  11.916
20035W        W92295  20.218  25.381  12.288
20036W        W92296   5.249   1.752  13.976
20037W        W92297  20.478  15.649   1.841
20038W        W92298   9.329  27.218   1.866
20039W        W92299  23.603  43.964   1.789
20040W        W92300  37.331  34.765   5.058
20041W        W92301  32.880  14.796  14.010
20042W        W92302  22.035  29.114   0.910
20043W        W92303  25.250   6.415  11.169
20044W        W92304  14.898   5.384   2.624
20045W        W92305   0.017  34.120   3.152
20046W        W92306  30.924  18.380   5.123
20047W        W92307  14.603  17.056   3.181
20048W        W92308  34.073  44.324   2.102
20049W        W92309  22.743  15.648   5.099
20050W        W92310  32.698  32.298  13.809
20051W        W92311  44.054  43.314  12.615
20052W        W92312  35.386  21.035   2.138
20053W        W92313   3.157  29.640   1.500
20054W        W92314   7.342  22.619   3.511
20055W        W92315  20.987  43.746   5.018
20056W        W92316  25.462  35.511   3.406
20057W        W92317  23.113  31.697  11.951
20058W        W92318  33.635   0.793   3.876
20059W        W92319  23.481  44.540   3.092
20060W        W92320  42.866   3.695  12.946
20061W        W92321  44.082  14.247   4.783
20062W        W92322  18.194   7.887   3.654
20063W        W92323   6.652  43.008  12.536
20064W        W92324  29.297  39.923  11.520
20065W        W92325   6.433   9.296  14.418
20066W        W92326  13.777   6.910   1.821
20067W        W92327  12.401  39.129   3.178
20068W        W92328   0.970   1.013   3.172
20069W        W92329  29.358   1.312  13.042
20070W        W92330  15.180  20.926  13.978
20071W        W92331  22.880  13.821   0.187
20072W        W92332  15.178  10.222  13.676
20073W        W92333   5.545   8.040   3.195
20074W        W92334  35.470  22.016   4.258
20075W        W92335  21.353  43.030   0.803
20076W        W92336  21.526  16.575   4.496
20077W        W92337  37.062  26.976  11.953
20078W        W92338  40.383  23.674  11.691
20079W        W92339  27.579   3.721  10.410
20080W        W92340  32.870   8.339   0.865
20081W        W92341  40.551  20.760  14.352
20082W        W92342  27.684  17.746   0.308
20083W        W92343  31.436  15.886   3.278
20084W        W92344   0.331  28.796  10.481
20085W        W92345  30.937   4.793  10.411
20086W        W92346   6.508  43.300  11.991
20087W        W92347  17.661  12.820   4.581
20088W        W92348  37.400  40.742   2.075
20089W        W92349   8.688  40.311   2.351
20090W        W92350   1.249  11.499   0.763
20091W        W92351  35.255  13.290  14.676
20092W        W92352  15.609  39.334   0.482
20093W        W92353  40.595  39.132   3.793
20094W        W92354   5.534  12.889   4.065
20095W        W92355  14.690  35.281   2.497
20096W        W92356  20.634  35.408  10.681
20097W        W92357  40.048   7.327   4.724
20098W        W92358  15.564   2.732  12.710
20099W        W92359  32.465  23.500  13.731
20100W        W92360  18.186  24.365  10.749
20101W        W92361  29.539  27.892   3.730
20102W        W92362   1.448  10.267   4.056
20103W        W92363  18.687  17.569   2.257
20104W        W92364  30.935  12.126   0.808
20105W        W92365  12.527  15.292  11.218
20106W        W92366  41.060   0.329   4.646
20107W        W92367  23.001  22.077   1.795
20108W        W92368  44.313  28.559   0.435
20109W        W92369  36.772  23.990   2.369
20110W        W92370  23.690   5.857  14.341
20111W        W92371   8.953  33.493   0.273
20112W        W92372  16.587  28.785  10.430
20113W        W92373  28.234  28.162  14.861
20114W        W92374  16.547   7.687   4.681
20115W        W92375  34.922  38.215  11.942
20116W        W92376   2.956  20.338  14.982
20117W        W92377  12.892  37.060  14.309
20118W        W92378  21.066  29.169   0.764
20119W        W92379  25.683   5.552   2.393
20120W        W92380   6.593  32.610  13.925
20121W        W92381   1.458   2.829  11.157
20122W        W92382  13.250  36.600  11.108
20123W        W92383  26.929  37.806   2.743
20124W        W92384   9.614  29.161  11.183
20125W        W92385   2.024  37.838   4.164
20126W        W92386   4.045  42.671   2.424
20127W        W92387  40.963  23.065   2.372
20128W        W92388  28.149  39.563  10.556
20129W        W92389  19.698  42.585  13.728
20130W        W92390   6.156  31.613   2.329
20131W        W92391  17.641  22.226  11.130
20132W        W92392   8.266   8.395  11.466
20133W        W92393  31.715  43.814   1.868
20134W        W92394  31.375  23.985  12.938
20135W        W92395  12.794  23.753  12.917
20136W        W92396   0.875  32.607   4.157
20137W        W92397   0.359  25.197  10.447
20138W        W92398  18.253  27.537  10.843
20139W        W92399   7.340  16.205   0.696
20140W        W92400  33.848  26.032   4.445
20141W        W92401  35.570  40.422  14.456
20142W        W92402  23.955  44.443   3.303
20143W        W92403  31.630  19.722   0.943
20144W        W92404  44.799  39.938  11.156
20145W        W92405  20.060  12.322  11.550
20146W        W92406  27.703  20.314   2.908
20147W        W92407  30.797  19.253  11.117
20148W        W92408  24.474  34.254  14.946
20149W        W92409  37.400  10.846   0.965
20150W        W92410   4.777  28.040  12.794
20151W        W92411  19.837   9.133   2.220
20152W        W92412   4.510  18.119   1.392
20153W        W92413  25.307  38.250  14.518
20154W        W92414  37.505  39.765   0.800
20155W        W92415  41.319   1.497   4.646
20156W        W92416  42.877   4.344   3.195
20157W        W92417  36.353  40.098   0.355
20158W        W92418  28.558  37.371   4.134
20159W        W92419  20.614  18.092  11.992
20160W        W92420  36.578  32.051   1.321
20161W        W92421   4.981  43.400  11.932
20162W        W92422   8.899  18.655   3.327
20163W        W92423  28.932  29.689   0.370
20164W        W92424  41.522  35.054   0.960
20165W        W92425   3.228   8.683   0.576
20166W        W92426  30.610  36.908   2.625
20167W        W92427  10.958  30.121   4.325
20168W        W92428   6.758  26.199   0.463
20169W        W92429  13.088  19.666   2.618
20170W        W92430  38.602  12.258  11.443
20171W        W92431   3.022  26.731  10.972
20172W        W92432   5.800  27.556  10.744
20173W        W92433  10.420  29.335   4.184
20174W        W92434  14.073  29.389  10.691
20175W        W92435  15.059   2.919  12.926
20176W        W92436  25.112   8.227   3.392
20177W        W92437  38.322  37.050  14.193
20178W        W92438  43.363  13.561  11.445
20179W        W92439  32.916  29.543   0.536
20180W        W92440   4.687   1.925  12.779
20181W        W92441  25.970  44.307  12.474
20182W        W92442  20.392  24.466  14.096
20183W        W92443   0.938  12.638  10.163
20184W        W92444  12.576  22.990   1.506
20185W        W92445   6.721  33.127   3.144
20186W        W92446   1.637  32.189  12.831
20187W        W92447  33.473   6.250  13.449
20188W        W92448  33.597  15.267  12.856
20189W        W92449  36.878  14.324  12.905
20190W        W92450   0.462   2.796  13.391
20191W        W92451   1.537   2.741  14.005
20192W        W92452  41.643  32.483  11.109
20193W        W92453  12.358   8.867   4.461
20194W        W92454  23.601  32.391  12.882
20195W        W92455  33.585  13.806  11.096
20196W        W92456  31.116  21.133  13.521
20197W        W92457   4.398   6.359   0.727
20198W        W92458  41.004  18.097  13.748
20199W        W92459  13.254  34.703  14.239
20200W        W92460  38.590   3.255  14.406
20201W        W92461  23.529  39.297  13.130
20202W        W92462  22.802  38.609   3.227
20203W        W92463  15.701  16.536   5.076
20204W        W92464  20.300  39.947  11.539
20205W        W92465  19.535  26.721  11.161
20206W        W92466  32.665  10.521  14.713
20207W        W92467  42.299   6.251  10.596
20208W        W92468   1.829  43.732   3.637
20209W        W92469  21.648   9.360  12.481
20210W        W92470  24.253  34.187   3.805
20211W        W92471  27.142  17.391   4.169
20212W        W92472  41.926  31.898  13.079
20213W        W92473  40.525  13.271   1.803
20214W        W92474  28.690  16.873  11.137
20215W        W92475  35.097  27.962   0.282
20216W        W92476  17.617   6.136   4.626
20217W        W92477  26.709   5.737   4.586
20218W        W92478  12.394  31.863  11.212
20219W        W92479  12.207  31.881  14.249
20220W        W92480  33.865  20.037   1.846
20221W        W92481  26.718   0.313  13.768
20222W        W92482  25.174   4.490   1.747
20223W        W92483  32.660  15.898   4.566
20224W        W92484  18.572   8.293  13.027
20225W        W92485  14.125  37.171   3.101
20226W        W92486  23.695   2.010   2.009
20227W        W92487  32.534  38.334  12.496
20228W        W92488   8.232  27.136   4.219
20229W        W92489  39.276  38.766   1.439
20230W        W92490  20.600  32.035   3.870
20231W        W92491   6.812  15.739   0.707
20232W        W92492  28.322  41.279  12.634
20233W        W92493  29.468  37.448   2.624
20234W        W92494  17.600   2.765  12.292
20235W        W92495   5.853  33.387  11.940
20236W        W92496  25.238  29.894  13.526
20237W        W92497  38.405  16.166   4.431
20238W        W92498  29.081   6.449   1.740
20239W        W92499   6.950   8.276   3.987
20240W        W92500   5.438  28.412  12.535
20241W        W92501   5.838  44.098   1.219
20242W        W92502   3.688  16.169   0.801
20243W        W92503  38.504  17.081   4.419
20244W        W92504  36.326  26.163  13.012
20245W        W92505  15.688  11.550  11.168
20246W        W92506  11.074  42.720  13.921
20247W        W92507  43.336  20.077   0.276
20248W        W92508  20.330  19.223   1.260
20249W        W92509  44.533  30.806  11.118
20250W        W92510  16.438  15.032  11.576
20251W        W92511  44.943  37.671  11.038
20252W        W92512  39.923   5.385   4.685
20253W        W92513  18.561  13.584  10.677
20254W        W92514  18.656  44.313   2.860
20255W        W92515  14.352  18.261   2.204
20256W        W92516  12.161  32.751   1.182
20257W        W92517  14.243   2.041   4.422
20258W        W92518  31.879  18.639  10.738
20259W        W92519  25.878   6.276  10.288
20260W        W92520  22.660   9.579  11.556
20261W        W92521  36.472  40.942  12.612
20262W        W92522  17.173   2.831   4.974
20263W        W92523   5.391  24.752  12.938
20264W        W92524  24.647  28.243  12.096
20265W        W92525  39.944  41.520   2.790
20266W        W92526   5.164  20.223   4.473
20267W        W92527   3.995   8.666  11.028
20268W        W92528  20.374   2.271  11.405
20269W        W92529   6.169  33.087   2.258
20270W        W92530  23.050  12.633   4.565
20271W        W92531  18.270   8.492   1.468
20272W        W92532  19.972   1.466  12.363
20273W        W92533   9.336   6.743   0.840
20274W        W92534  14.314  21.783   0.075
20275W        W92535  42.320  32.128   0.747
20276W        W92536  37.410   7.755  10.160
20277W        W92537  11.867  33.505  11.226
20278W        W92538   8.634  32.625  10.857
20279W        W92539   8.685  30.334  13.150
20280W        W92540  41.824  24.045   1.395
20281W        W92541  16.754   1.066   1.412
20282W        W92542  12.792  37.590   4.772
20283W        W92543  12.349  38.436  12.786
20284W        W92544  43.858   2.421  10.483
20285W        W92545  17.783  18.077   0.704
20286W        W92546  40.807  12.652   4.091
20287W        W92547  19.567  17.454   3.219
20288W        W92548  29.651  43.807   0.742
20289W        W92549  34.161  16.543  11.465
20290W        W92550  15.448  13.786   5.523
20291W        W92551   1.313  39.198  11.065
20292W        W92552  44.735  30.637   2.262
20293W        W92553  21.695  23.398   3.179
20294W        W92554   1.563   0.842  12.078
20295W        W92555   6.867  14.182  14.675
20296W        W92556  37.464  13.894   3.816
20297W        W92557  20.612  13.665   4.439
20298W        W92558   4.731   3.705   3.382
20299W        W92559   9.253  33.602  13.411
20300W        W92560  42.916  43.539   0.972
20301W        W92561   7.343  20.502  13.799
20302W        W92562  42.481  30.246  13.434
20303W        W92563  33.178  31.903   0.736
20304W        W92564  38.978  44.204  11.514
20305W        W92565   9.468   6.885  11.815
20306W        W92566   8.391   5.657   4.542
20307W        W92567  35.565   0.038   3.966
20308W        W92568  29.467  28.649   1.717
20309W        W92569   6.311   2.563  14.853
20310W        W92570  22.232  21.637   4.767
20311W        W92571  34.745   7.479   1.258
20312W        W92572  19.538  34.510   3.663
20313W        W92573  35.581  26.545  13.102
20314W        W92574  42.453  15.273  13.023
20315W        W92575  35.754  42.121   0.509
20316W        W92576   4.613  39.887   4.646
20317W        W92577  26.348   0.559  14.048
20318W        W92578  28.386   4.912  14.353
20319W        W92579  10.140   8.355  14.322
20320W        W92580  23.657  11.746  11.408
20321W        W92581  10.282  27.008   0.964
20322W        W92582  38.829  30.591  11.180
20323W        W92583  31.063  32.523  12.150
20324W        W92584   4.328   2.822  13.245
20325W        W92585  43.271  31.745  14.738
20326W        W92586  44.258   7.293   1.911
20327W        W92587  13.660  18.800  13.895
20328W        W92588  38.781  24.083   0.272
20329W        W92589   3.011  41.939  11.141
20330W        W92590  28.168  44.231  13.504
20331W        W92591   5.854  31.688   4.083
20332W        W92592  21.826  35.849   4.604
20333W        W92593  34.349  21.806  11.612
20334W        W92594  22.502  15.808   4.628
20335W        W92595  15.825  18.448  13.622
20336W        W92596  22.953  31.616   3.742
20337W        W92597  30.929   4.822   4.984
20338W        W92598  16.595  17.770   4.784
20339W        W92599  10.703  21.838  11.647
20340W        W92600  19.980  33.740   2.529
20341W        W92601  21.348   5.325   0.905
20342W        W92602  32.059  40.306  11.872
20343W        W92603  16.153  14.592   2.580
20344W        W92604  12.053  23.564  12.507
20345W        W92605  35.085  21.325  13.873
20346W        W92606  34.385  30.065  12.002
20347W        W92607  14.197  38.825   0.379
20348W        W92608  28.912  28.118  11.528
20349W        W92609  26.370  42.809   4.793
20350W        W92610   1.903  16.704   0.242
20351W        W92611  36.865  44.075   3.411
20352W        W92612   6.497  10.899  11.412
20353W        W92613  36.498  44.579  11.419
20354W        W92614  30.709  16.875  11.671
20355W        W92615  22.886  19.442  14.000
20356W        W92616  13.775  42.940  13.807
20357W        W92617  17.772  27.182  13.016
20358W        W92618  17.023  28.399   2.320
20359W        W92619  20.088  18.031  12.460
20360W        W92620  30.662  25.377   1.746
20361W        W92621   9.466  36.897  13.770
20362W        W92622   5.903  10.365   1.876
20363W        W92623   5.032  39.455   3.781
20364W        W92624   6.682  23.941  12.259
20365W        W92625  31.241  26.278  13.079
20366W        W92626  34.998  21.425   0.727
20367W        W92627   5.660   0.693   2.188
20368W        W92628  35.131   4.887  13.662
20369W        W92629  23.033  41.352   4.057
20370W        W92630  38.141  43.994   2.450
20371W        W92631  39.458  30.894   0.222
20372W        W92632  27.433  32.512   4.547
20373W        W92633  25.859  20.518  13.704
20374W        W92634  37.897  37.378   3.702
20375W        W92635  35.943  19.946   1.337
20376W        W92636   8.765  19.285   2.672
20377W        W92637  31.554  44.906   0.772
20378W        W92638  14.461   8.894  14.226
20379W        W92639  22.357  38.431   4.513
20380W        W92640  43.270  29.924   2.767
20381W        W92641   6.510  15.221  12.917
20382W        W92642  25.514  17.152  10.524
20383W        W92643  32.298  32.216  10.041
20384W        W92644  20.479  30.556  12.800
20385W        W92645  18.291  26.524   4.048
20386W        W92646  22.087  20.563  13.385
20387W        W92647  28.861  40.814  12.872
20388W        W92648  12.343  15.554  14.849
20389W        W92649  35.973  42.013  14.453
20390W        W92650  17.732   6.178   1.717
20391W        W92651  29.515  19.268   0.884
20392W        W92652  35.810  11.632   4.712
20393W        W92653  12.693  40.270   0.823
20394W        W92654  37.617  40.150  13.508
20395W        W92655  18.180   1.296   1.531
20396W        W92656  38.024   7.873   1.656
20397W        W92657  29.420  11.608  12.932
20398W        W92658  28.666  11.537   2.420
20399W        W92659   7.929   4.228  13.543
20400W        W92660  21.563  35.082  12.838
20401W        W92661  14.782  11.710   1.467
20402W        W92662  33.067  21.156   4.548
20403W        W92663  16.657  37.334  14.550
20404W        W92664  41.059   9.845   4.402
20405W        W92665  11.884  24.291   1.748
20406W        W92666  33.330  15.416   3.484
20407W        W92667  14.158  17.318   3.084
20408W        W92668  30.870  29.555  13.742
20409W        W92669  14.664  31.277   5.803
20410W        W92670  44.439  39.593   4.110
20411W        W92671  19.822   1.762  10.660
20412W        W92672   6.015   2.429   2.721
20413W        W92673  25.243  31.955   4.918
20414W        W92674  43.284   8.367   1.304
20415W        W92675  22.178  21.279   2.460
20416W        W92676  40.574  15.542   0.904
20417W        W92677  34.291  25.565  11.578
20418W        W92678  29.674  19.036  14.352
20419W        W92679  20.237   5.703  13.445
20420W        W92680   7.162  32.960  12.944
20421W        W92681  34.799  20.526   2.296
20422W        W92682   2.354  13.692   1.821
20423W        W92683  30.184  13.605   4.179
20424W        W92684  44.420  23.641   4.697
20425W        W92685  21.712  11.913   4.074
20426W        W92686  12.206  40.529  12.491
20427W        W92687  42.033  40.692  10.032
20428W        W92688  22.546   2.904  13.469
20429W        W92689  38.300  39.802   4.230
20430W        W92690  34.470   9.105  14.898
20431W        W92691   5.439  17.369   3.171
20432W        W92692  32.707   9.710  10.610
20433W        W92693  22.677  11.830  13.010
20434W        W92694   0.756  28.894  13.413
20435W        W92695  16.072  30.342  10.682
20436W        W92696  34.433  23.778   1.889
20437W        W92697  28.161  10.475   1.451
20438W        W92698  14.945  26.928   0.261
20439W        W92699  19.558  36.850   4.930
20440W        W92700  43.955  31.239  12.365
20441W        W92701  12.380  10.288   2.914
20442W        W92702   6.917  13.717   3.813
20443W        W92703  17.193  39.328  12.980
20444W        W92704   7.313  33.046  14.745
20445W        W92705  33.704  12.214   4.552
20446W        W92706   9.265  39.428   2.376
20447W        W92707  22.998  18.120  11.437
20448W        W92708  19.116   1.273  14.946
20449W        W92709   0.864   6.192   1.776
20450W        W92710  33.643  33.963  12.059
20451W        W92711  17.579   5.358   3.420
20452W        W92712  20.532  17.076  10.745
20453W        W92713  27.591  43.252  11.115
20454W        W92714  16.157  22.276  10.934
20455W        W92715  29.035  17.795  12.531
20456W        W92716  20.148   4.685   0.257
20457W        W92717  12.219  23.856   3.872
20458W        W92718  37.434   5.322  11.854
20459W        W92719  10.833   8.193  13.742
20460W        W92720  41.769  44.422   2.128
20461W        W92721  40.694   9.294  13.465
20462W        W92722   5.910   1.827   1.311
20463W        W92723  41.960  29.388   0.016
20464W        W92724  11.944   6.382  12.798
20465W        W92725  32.909  22.763  11.569
20466W        W92726  26.170  35.374  10.741
20467W        W92727  11.692   7.410  14.728
20468W        W92728  17.089  37.099   2.838
20469W        W92729  41.335  23.412   2.967
20470W        W92730  20.875  17.416   1.523
20471W        W92731   7.359  26.899  13.880
20472W        W92732  40.290  20.580  13.477
20473W        W92733  11.945   6.698   1.288
20474W        W92734  44.230  39.816   3.655
20475W        W92735  24.234   2.202  14.232
20476W        W92736   0.470  32.334   1.723
20477W        W92737  10.095  37.646  12.664
20478W        W92738  31.094   1.224  10.818
20479W        W92739  38.401  42.322   0.935
20480W        W92740  14.992  16.541   4.471
20481W        W92741  14.815  26.402   1.343
20482W        W92742  42.878  43.425   0.440
20483W        W92743  10.388  18.689  13.103
20484W        W92744  35.410  24.703   3.828
20485W        W92745  23.094   6.593   0.299
20486W        W92746  17.058   9.099   4.327
20487W        W92747   8.655  28.678   4.387
20488W        W92748  10.070  32.005  11.047
20489W        W92749   8.326  35.399  14.919
20490W        W92750  19.908  20.310  13.300
20491W        W92751  42.889  29.938   4.578
20492W        W92752  33.525   2.453  11.399
20493W        W92753  43.218   2.730  12.074
20494W        W92754  16.035  31.909   4.687
20495W        W92755  20.061  42.933  11.185
20496W        W92756   9.782   0.218   4.675
20497W        W92757  36.885   7.111   4.980
20498W        W92758  33.088  16.994  11.996
20499W        W92759  32.026   9.022  12.507
20500W        W92760   6.718  18.323  14.928
20501W        W92761  17.672  27.855  11.550
20502W        W92762  44.264   6.324   3.869
20503W        W92763  24.829  21.890   2.243
20504W        W92764  33.350   1.928  11.209
20505W        W92765  28.764  43.088   2.723
20506W        W92766   9.973  39.668   1.762
20507W        W92767  15.059  16.633   2.174
20508W        W92768   2.835  41.447  10.739
20509W        W92769   2.636  10.109   3.747
20510W        W92770  44.728  41.754   3.598
20511W        W92771  25.644  17.135  12.480
20512W        W92772  17.373  22.702   3.026
20513W        W92773   2.935  13.869  11.134
20514W        W92774  36.356  43.219  11.516
20515W        W92775  28.206  40.784  12.031
20516W        W92776  22.617  21.169  13.009
20517W        W92777  31.569   4.696  13.976
20518W        W92778  17.777   2.742  13.936
20519W        W92779  29.254   0.105  11.202
20520W        W92780  35.464   5.936  11.871
20521W        W92781  23.677  27.951  10.229
20522W        W92782  10.851  19.998  14.355
20523W        W92783  22.533  42.371  10.763
20524W        W92784  30.751  23.428   1.826
20525W        W92785  22.399  26.523   1.621
20526W        W92786  15.417  25.033  10.768
20527W        W92787  26.626   8.016   4.056
20528W        W92788   8.242  41.455   2.441
20529W        W92789  33.348  12.903   0.363
20530W        W92790   9.461  34.006   2.736
20531W        W92791  25.475   1.748  11.082
20532W        W92792  36.124  40.818   2.356
20533W        W92793  32.373  20.047   0.335
20534W        W92794   7.764  39.911  11.912
20535W        W92795  39.604  31.529  11.629
20536W        W92796   1.909  29.350   3.377
20537W        W92797  44.063   2.392   0.859
20538W        W92798  30.877  16.727   3.220
20539W        W92799  20.347  43.289  13.407
20540W        W92800  23.568  39.330  12.084
20541W        W92801  15.535  12.888   3.823
20542W        W92802  22.356   3.902  12.607
20543W        W92803  13.727  12.356  10.674
20544W        W92804   6.409  12.102   1.822
20545W        W92805   8.146  21.701   1.350
20546W        W92806   7.361  15.737  14.231
20547W        W92807  19.561   1.321  13.141
20548W        W92808  11.059  37.543   2.272
20549W        W92809  37.596  25.660  12.997
20550W        W92810  15.213  32.651  14.344
20551W        W92811   7.812   5.219   1.981
20552W        W92812  26.580  38.532  14.635
20553W        W92813  16.056  27.689   1.213
20554W        W92814  43.498  39.881  10.988
20555W        W92815  37.564  25.455   2.290
20556W        W92816  29.409  21.300  12.147
20557W        W92817   7.407   7.715   4.524
20558W        W92818   7.780  15.545   2.669
20559W        W92819  25.034  27.792  14.316
20560W        W92820  36.068  39.915  10.698
20561W        W92821   3.199  28.355   5.270
20562W        W92822   5.514  34.419  14.825
20563W        W92823  18.775  21.775  11.953
20564W        W92824   9.945  10.397   5.113
20565W        W92825  39.439   4.235   4.504
20566W        W92826   5.911  14.998  13.350
20567W        W92827  25.982   7.855   2.241
20568W        W92828  18.931   0.762  12.516
20569W        W92829  34.183  26.553  10.646
20570W        W92830  32.634  39.513   1.888
20571W        W92831  17.503   7.491   5.041
20572W        W92832  42.411  40.044   3.233
20573W        W92833  32.038  25.010  13.721
20574W        W92834   9.651  38.518  11.676
20575W        W92835   4.944  38.887   0.729
20576W        W92836   2.535  14.945  13.378
20577W        W92837  11.274  32.848  12.361
20578W        W92838  15.913  17.918  12.906
20579W        W92839  13.774   3.610  11.335
20580W        W92840  22.834   3.273  13.227
20581W        W92841  21.280  25.163  11.133
20582W        W92842  18.872  28.099   1.127
20583W        W92843  38.503  24.482  14.704
20584W        W92844  44.587  11.721  12.945
20585W        W92845  41.774   4.419  11.542
20586W        W92846   5.250  34.868  12.622
20587W        W92847  42.465  16.438   4.844
20588W        W92848  28.061  39.440   4.902
20589W        W92849  20.092  25.319   0.377
20590W        W92850  15.167  32.655   2.901
20591W        W92851   1.694  18.618   1.321
20592W        W92852  27.481  35.439   3.389
20593W        W92853   0.207  27.424  13.925
20594W        W92854  13.069  19.326  11.663
20595W        W92855  32.589   9.439  13.391
20596W        W92856  33.629  34.353  11.502
20597W        W92857  13.780  14.864   0.434
20598W        W92858   6.960   4.021  13.907
20599W        W92859   1.348  34.428   2.697
20600W        W92860  31.591  31.584   3.266
20601W        W92861  26.971  12.369   1.290
20602W        W92862  23.339   8.535   5.193
20603W        W92863  31.393   8.168   2.894
20604W        W92864  31.155  38.492  12.948
20605W        W92865  25.061  12.919  13.937
20606W        W92866  18.834  33.636  14.416
20607W        W92867  14.173   6.787  14.001
20608W        W92868  44.312  24.943  14.943
20609W        W92869  20.229  11.722   0.681
20610W        W92870  17.831  31.674  12.985
20611W        W92871  31.694  36.115  11.067
20612W        W92872  30.245   9.673  10.926
20613W        W92873  33.685  35.961   4.534
20614W        W92874  38.627  33.887  12.242
20615W        W92875  26.362  26.978   0.768
20616W        W92876  22.075  41.236  13.545
20617W        W92877  28.244   5.776  14.261
20618W        W92878  19.328  27.197   4.505
20619W        W92879  32.178  29.670   4.150
20620W        W92880   6.851  23.314   3.234
20621W        W92881  12.390  42.574  11.062
20622W        W92882  13.841   1.037  14.170
20623W        W92883  28.873   9.338  13.193
20624W        W92884  23.057   4.870  11.472
20625W        W92885  42.677  44.010   1.159
20626W        W92886  28.601   2.782  10.794
20627W        W92887  13.167  30.472  14.790
20628W        W92888   4.771  16.028  14.565
20629W        W92889   9.216   9.187   4.951
20630W        W92890  26.885  39.942   4.086
20631W        W92891  16.848  39.459  12.006
20632W        W92892  32.120  30.051   3.301
20633W        W92893  39.840  16.278  10.372
20634W        W92894  14.200   5.943   0.236
20635W        W92895  43.513  21.290  12.944
20636W        W92896  21.965  43.344  14.865
20637W        W92897  25.744  11.610   0.389
20638W        W92898  21.200  29.392   1.411
20639W        W92899  32.322  16.227   0.861
20640W        W92900   8.937  38.879  13.481
20641W        W92901  38.836   9.066  14.778
20642W        W92902   6.238  33.640  12.188
20643W        W92903  27.512  38.677  12.917
20644W        W92904  38.977  22.650  14.881
20645W        W92905  36.418  14.454   3.189
20646W        W92906   5.685  12.339  10.795
20647W        W92907  22.626  13.181  10.709
20648W        W92908  25.188   9.811  10.722
20649W        W92909  12.388  32.467  11.450
20650W        W92910   0.967  31.159   0.348
20651W        W92911  10.419  28.470  10.921
20652W        W92912  43.375  27.032   2.343
20653W        W92913  40.283  19.712  14.725
20654W        W92914  37.352  33.170  14.838
20655W        W92915   0.409  28.211  12.580
20656W        W92916  20.708   2.711   4.244
20657W        W92917   6.605   8.670   1.733
20658W        W92918  10.198  42.737  11.983
20659W        W92919  22.660  24.182  11.912
20660W        W92920  34.689  18.092  10.431
20661W        W92921  21.154  20.321   0.223
20662W        W92922   6.228   0.215  11.612
20663W        W92923  26.938  14.333  14.809
20664W        W92924   9.808  13.842  13.128
20665W        W92925  27.693   2.900   0.785
20666W        W92926  32.373  18.142   4.691
20667W        W92927  37.052   8.260   0.381
20668W        W92928  41.585  11.068   1.372
20669W        W92929  17.175   8.368  13.380
20670W        W92930  19.609  19.124  11.139
20671W        W92931  24.016  20.053  14.194
20672W        W92932  44.377  13.618  14.255
20673W        W92933  41.889   7.609   3.332
20674W        W92934  39.048   5.283   0.266
20675W        W92935  29.356  24.977   1.840
20676W        W92936  39.065   8.686   0.729
20677W        W92937  11.960  30.549  11.911
20678W        W92938   6.880  42.514   2.414
20679W        W92939  22.654  24.469  11.107
20680W        W92940  27.255   4.366   2.807
20681W        W92941  31.313   7.261   3.425
20682W        W92942  19.618  34.891  13.963
20683W        W92943   6.402   8.670   1.237
20684W        W92944   9.727  42.542   2.299
20685W        W92945  34.334  11.300   1.238
20686W        W92946  27.236  30.467  12.969
20687W        W92947   4.912  18.532   1.348
20688W        W92948  30.742  41.956  12.512
20689W        W92949  15.783  26.514  11.133
20690W        W92950  41.760  21.134   1.880
20691W        W92951  18.183   9.261   0.752
20692W        W92952  15.944  22.269   9.944
20693W        W92953   1.942  23.342  12.434
20694W        W92954  42.978  21.039   1.051
20695W        W92955  35.912  41.863  11.871
20696W        W92956  21.687  16.478  11.295
20697W        W92957  30.738  29.983  10.674
20698W        W92958  43.516  25.798   0.239
20699W        W92959  35.874   6.725   3.981
20700W        W92960  15.564  37.040  13.002
20701W        W92961  31.112  43.888   3.464
20702W        W92962  22.888  10.145  10.830
20703W        W92963   7.964  14.417   3.589
20704W        W92964  16.975  36.450   3.670
20705W        W92965  26.421  38.388  13.658
20706W        W92966   1.729  28.627   3.638
20707W        W92967   4.185  18.559  12.108
20708W        W92968  19.017  40.537  13.101
20709W        W92969  23.491  36.429   1.428
20710W        W92970  27.437  24.951   1.834
20711W        W92971   4.671  24.752  11.213
20712W        W92972  31.663  16.724  14.791
20713W        W92973  15.321   7.685   0.377
20714W        W92974  37.887  11.197  12.099
20715W        W92975  41.156  41.974  13.384
20716W        W92976  33.207  28.184   0.524
20717W        W92977  14.198  10.354  12.069
20718W        W92978  15.203   9.098   4.557
20719W        W92979  11.151   8.126  14.533
20720W        W92980  18.725  15.708  10.939
20721W        W92981   9.881   0.311  13.326
20722W        W92982  14.565  29.891   1.505
20723W        W92983   7.293   3.673  12.015
20724W        W92984  35.398  20.967   3.299
20725W        W92985  23.301  44.929  12.977
20726W        W92986  13.802  10.862   0.078
20727W        W92987  18.501  20.248   0.225
20728W        W92988  32.835   7.690   3.482
20729W        W92989  35.521  44.371   2.338
20730W        W92990  22.445   7.299  11.041
20731W        W92991  44.825   6.363   3.699
20732W        W92992  42.296  38.135  13.510
20733W        W92993  19.233  29.182   0.851
20734W        W92994  11.284  40.298  10.742
20735W        W92995   5.906  29.750  12.084
20736W        W92996  38.277  30.307  12.888
20737W        W92997   9.563  42.279  13.986
20738W        W92998  13.862  17.371  13.964
20739W        W92999  39.888  25.144   4.409
20740W        W93000   0.402  22.115  13.944
20741W        W93001  29.056  22.065  14.384
20742W        W93002  19.597  27.168  11.874
20743W        W93003  23.799  31.071  10.879
20744W        W93004  19.668  39.372  13.880
20745W        W93005  13.182  18.361  11.614
20746W        W93006  30.722   8.339  14.984
20747W        W93007   2.728  20.638   0.370
20748W        W93008  15.721  37.001  14.247
20749W        W93009  13.132  28.749  13.432
20750W        W93010  12.120   6.003   2.432
20751W        W93011  27.686  26.740   2.778
20752W        W93012  10.193  41.907   4.515
20753W        W93013   6.201   6.431   2.769
20754W        W93014  21.459  28.129  14.289
20755W        W93015  37.626  35.957  10.626
20756W        W93016  25.799  27.436  11.413
20757W        W93017  38.891  34.942  12.667
20758W        W93018   5.194  41.198  10.628
20759W        W93019  17.544  15.525  12.958
20760W        W93020   1.708  37.538  13.391
20761W        W93021  42.291   6.936   1.944
20762W        W93022  32.489   5.259   0.882
20763W        W93023  36.337  19.561  10.517
20764W        W93024   2.368  18.858  14.053
20765W        W93025   4.934  19.031   1.538
20766W        W93026  33.563  14.093  13.905
20767W        W93027  18.189  17.559   4.423
20768W        W93028  39.832  28.588  13.825
20769W        W93029   3.896  20.536   4.510
20770W        W93030  21.060  32.549  14.929
20771W        W93031   2.003  33.512  13.436
20772W        W93032  29.788  41.305   3.294
20773W        W93033  25.193  37.115   0.405
20774W        W93034  17.602  29.389   3.272
20775W        W93035  20.365  16.500   4.562
20776W        W93036  11.759  15.586   1.703
20777W        W93037  38.898  19.355  10.851
20778W        W93038  42.637  25.456   1.203
20779W        W93039   9.906  33.108   4.211
20780W        W93040   6.894  21.363   1.620
20781W        W93041  14.925   9.947  10.119
20782W        W93042  16.273  18.808  12.039
20783W        W93043  43.766   9.309  13.621
20784W        W93044  11.272  16.887  14.908
20785W        W93045   0.428  15.109   1.460
20786W        W93046  38.226  10.218  14.422
20787W        W93047  42.723  19.353  12.479
20788W        W93048  11.425  28.522  11.074
20789W        W93049  19.450  38.937   2.351
20790W        W93050  24.747  17.961  10.620
20791W        W93051   6.238  33.619  11.666
20792W        W93052  15.582   0.826   4.554
20793W        W93053   4.809  20.783  13.555
20794W        W93054  25.954  43.771  11.456
20795W        W93055  18.596  29.428   0.924
20796W        W93056  27.790  33.077  10.670
20797W        W93057   4.480  18.747  11.712
20798W        W93058  10.779  24.735  12.244
20799W        W93059  38.030  26.199   3.847
20800W        W93060  27.580   1.391   4.668
20801W        W93061   3.144  24.091   0.776
20802W        W93062  38.141  16.381   1.308
20803W        W93063  41.243  35.331   1.545
20804W        W93064  39.527   6.934   9.761
20805W        W93065  37.232  14.739   0.553
20806W        W93066  31.810  28.224  14.079
20807W        W93067  20.253  24.286   0.240
20808W        W93068  16.305  19.108  13.109
20809W        W93069  22.173  28.590   3.643
20810W        W93070  39.372  25.555   0.481
20811W        W93071  40.375   9.753  10.432
20812W        W93072  18.410  13.533   5.059
20813W        W93073  32.012  34.608   4.874
20814W        W93074  20.100   9.399   3.842
20815W        W93075   4.142  17.044  10.599
20816W        W93076   9.384  23.132   4.728
20817W        W93077  18.761  42.701   9.972
20818W        W93078  43.333   7.740   4.280
20819W        W93079  26.516  15.495  12.107
20820W        W93080   8.024  23.583   1.732
20821W        W93081  43.268   0.857  14.808
20822W        W93082  15.030  19.696  11.194
20823W        W93083   1.540  28.548   1.415
20824W        W93084  31.818   8.349  14.772
20825W        W93085  11.938  31.661  14.996
20826W        W93086  19.998   9.452   3.300
20827W        W93087  24.091  28.546   4.646
20828W        W93088  19.803   0.933   3.631
20829W        W93089  33.521  16.985   1.183
20830W        W93090  44.844  23.424   4.532
20831W        W93091   0.657  29.030  12.117
20832W        W93092  29.518  29.984  11.522
20833W        W93093   4.332  26.205  12.065
20834W        W93094  11.280  26.695   2.798
20835W        W93095   4.788   9.042  10.394
20836W        W93096  19.159  42.090   4.719
20837W        W93097  15.624  40.458   1.966
20838W        W93098   7.889   4.791   2.879
20839W        W93099  16.182  25.360  14.437
20840W        W93100  36.581  32.354  11.706
20841W        W93101  12.830  10.859  10.536
20842W        W93102   3.290   2.801   1.464
20843W        W93103  22.839   5.825  14.040
20844W        W93104  27.064  34.107   2.107
20845W        W93105  11.736  15.185   1.353
20846W        W93106  38.946  21.339   1.715
20847W        W93107  28.634  12.219   3.194
20848W        W93108  42.942   5.352   4.195
20849W        W93109  23.556  15.153  13.246
20850W        W93110  34.551  34.620   1.394
20851W        W93111  15.948  23.347   4.973
20852W        W93112  18.093   2.906  12.209
20853W        W93113  13.214   4.679   4.112
20854W        W93114  20.820  17.202  13.038
20855W        W93115  40.934   6.007   0.904
20856W        W93116  36.425  34.583   2.378
20857W        W93117   7.877   4.670  14.830
20858W        W93118  24.560  15.140  14.799
20859W        W93119   3.412  16.897   1.710
20860W        W93120  12.796   3.799  11.506
20861W        W93121   5.195   2.420  12.262
20862W        W93122  20.464   7.814  14.746
20863W        W93123  42.435  40.914   0.682
20864W        W93124  14.531  14.345   9.833
20865W        W93125  16.602  17.203   2.804
20866W        W93126  36.801  44.519  12.057
20867W        W93127  12.340  27.719   9.837
20868W        W93128   5.613  28.944   0.689
20869W        W93129  31.013  23.854  11.049
20870W        W93130  22.625  20.679  13.928
20871W        W93131  44.403  21.704  13.209
20872W        W93132  19.543  22.565   0.384
20873W        W93133  33.386  35.641   0.350
20874W        W93134  32.931   1.282  14.734
20875W        W93135  12.292  38.275   1.569
20876W        W93136  16.225  20.770   3.816
20877W        W93137  36.765  35.508  10.684
20878W        W93138  38.854  21.506   0.820
20879W        W93139   1.429  28.817  14.018
20880W        W93140  21.107  27.454  11.526
20881W        W93141   9.900  28.881   3.158
20882W        W93142  16.297  17.058   2.406
20883W        W93143  22.150  25.746   1.809
20884W        W93144   4.337  39.013   2.885
20885W        W93145  26.226  40.337  14.934
20886W        W93146  32.593   9.952   3.304
20887W        W93147   7.309  11.916  14.983
20888W        W93148  11.479  18.993  11.166
20889W        W93149  43.018  44.814  11.991
20890W        W93150  38.581   2.042  10.720
20891W        W93151  11.355   3.465   4.272
20892W        W93152  32.242  20.387  11.164
20893W        W93153  29.239  19.342   4.056
20894W        W93154  40.927   1.531  10.699
20895W        W93155  41.550  31.432  14.382
20896W        W93156  16.786   2.579   2.617
20897W        W93157  35.123  16.594   1.037
20898W        W93158   9.413  44.585  13.516
20899W        W93159  12.685  41.826   1.166
20900W        W93160   4.629   6.997   1.481
20901W        W93161   4.365  43.326   2.908
20902W        W93162  42.470   1.952   4.189
20903W        W93163  22.466  42.034   2.526
20904W        W93164  11.201  24.957  13.371
20905W        W93165  12.031  34.599  14.691
20906W        W93166   4.326  20.219   4.568
20907W        W93167  19.172  25.403  13.870
20908W        W93168  41.503  39.820  14.475
20909W        W93169   7.625  13.911   0.707
20910W        W93170  12.218  15.562   0.931
20911W        W93171   6.437  26.440  11.537
20912W        W93172  15.623  22.525   3.236
20913W        W93173  40.526  37.988  12.148
20914W        W93174  42.947   6.595  12.299
20915W        W93175  40.897   3.040  11.582
20916W        W93176   2.854  27.061   1.852
20917W        W93177  20.183   6.576   4.550
20918W        W93178  36.052  10.453   1.059
20919W        W93179  28.350  27.612   4.482
20920W        W93180  44.009  28.611  11.453
20921W        W93181   0.877  42.342  10.587
20922W        W93182  43.410  43.223   2.139
20923W        W93183  43.718  11.820   3.122
20924W        W93184  34.058  30.881   0.469
20925W        W93185   3.951  10.785  10.757
20926W        W93186   5.302  21.792  10.582
20927W        W93187   9.377  27.586   4.673
20928W        W93188  41.976  11.799  14.046
20929W        W93189  43.896   5.182   3.770
20930W        W93190  22.305   6.569  13.431
20931W        W93191  23.189  42.205   4.132
20932W        W93192  32.013  16.772  12.971
20933W        W93193  43.485   5.932   4.514
20934W        W93194  35.062   0.665  14.768
20935W        W93195  44.367  12.494   5.038
20936W        W93196   2.212   9.045   3.107
20937W        W93197  29.360   8.350   4.160
20938W        W93198  42.195  18.166   2.693
20939W        W93199  24.036  35.554   2.440
20940W        W93200  23.253   1.013   3.269
20941W        W93201   5.875  14.312  14.885
20942W        W93202  29.916  17.775   2.876
20943W        W93203  25.446  14.758   2.328
20944W        W93204  44.517  38.961  10.436
20945W        W93205  37.443  36.574   1.440
20946W        W93206  15.707   6.403   0.780
20947W        W93207  21.365  20.465  10.121
20948W        W93208  38.364  27.933   3.531
20949W        W93209   0.508  39.773  12.126
20950W        W93210   1.951   9.242   0.710
20951W        W93211   2.060  17.521  12.549
20952W        W93212  43.448  31.435  11.014
20953W        W93213   5.919  36.251   4.489
20954W        W93214  21.195  16.892   4.244
20955W        W93215   7.373  24.930   4.723
20956W        W93216   7.426  36.388  14.560
20957W        W93217   6.678  33.556  10.910
20958W        W93218  21.204  18.868   2.756
20959W        W93219  26.399  27.750   3.655
20960W        W93220   7.200  19.803   1.724
20961W        W93221  10.939  33.698  12.576
20962W        W93222  32.386   6.815  12.452
20963W        W93223   7.765  26.912   3.664
20964W        W93224  12.348  27.041  10.554
20965W        W93225  15.666  18.432   4.210
20966W        W93226  14.815  32.584  11.078
20967W        W93227  31.697  31.331  14.456
20968W        W93228  35.492  28.141  14.946
20969W        W93229  29.687   8.695   2.808
20970W        W93230  12.844  25.601  12.352
20971W        W93231  32.070   0.774   0.820
20972W        W93232   8.446  17.269   0.572
20973W        W93233  44.762  10.225   3.620
20974W        W93234  27.736  29.512   2.443
20975W        W93235  36.372  12.757   2.183
20976W        W93236  31.131  24.178  14.166
20977W        W93237  31.432  36.558  12.893
20978W        W93238  43.728  19.952  11.181
20979W        W93239  22.224  14.624   0.274
20980W        W93240  27.012  28.031   0.282
20981W        W93241  25.440   2.765   2.275
20982W        W93242  43.689  32.956   3.360
20983W        W93243  32.914   8.628  12.396
20984W        W93244  32.030  13.314   1.796
20985W        W93245  26.209  32.749  13.455
20986W        W93246  42.938   6.616  12.837
20987W        W93247  42.984  23.493  12.313
20988W        W93248   2.340  39.610  12.981
20989W        W93249  21.170   0.519  11.655
20990W        W93250  23.605  12.734   2.759
20991W        W93251   8.626  31.694   4.047
20992W        W93252  34.369  17.598  12.637
20993W        W93253  22.614  18.446  13.942
20994W        W93254  12.419  16.132   3.141
20995W        W93255  30.476  17.248   0.271
20996W        W93256  25.395  24.665  13.503
20997W        W93257  31.854  34.107   4.637
20998W        W93258  27.241  16.656   2.865
20999W        W93259  40.479  30.885  10.424
21000W        W93260  21.190  21.016   4.622
21001W        W93261  11.568  43.080  12.512
21002W        W93262  14.127  23.616   0.187
21003W        W93263  26.656  27.709  11.573
21004W        W93264  37.367  29.942   0.245
21005W        W93265  44.788  31.075  14.447
21006W        W93266  21.678  18.343  10.178
21007W        W93267  22.932  44.564  12.834
21008W        W93268  10.336  41.377  13.465
21009W        W93269  10.013  44.560  10.756
21010W        W93270  17.963  39.359  10.808
21011W        W93271   0.397   4.040   4.108
21012W        W93272  33.852  26.141  10.631
21013W        W93273  22.212  29.379   4.278
21014W        W93274  22.454  40.427   2.138
21015W        W93275  44.882  19.605   0.850
21016W        W93276  32.369   9.210  10.757
21017W        W93277   9.468  21.486   4.576
21018W        W93278  16.236  30.661   1.930
21019W        W93279  35.835  12.104   1.779
21020W        W93280   6.136  23.228   0.734
21021W        W93281  23.333   0.920   4.262
21022W        W93282  19.553  30.048  14.324
21023W        W93283  13.401   8.422  12.122
21024W        W93284  26.916  17.461  11.987
21025W        W93285  36.354   6.684  13.404
21026W        W93286   9.440  11.511  11.134
21027W        W93287  24.046  16.771   0.989
21028W        W93288  27.478  22.223  14.886
21029W        W93289  31.594  43.768  13.737
21030W        W93290  36.499   3.951  10.986
21031W        W93291  44.319   2.772   2.740
21032W        W93292  30.617  23.257  11.406
21033W        W93293  20.084  41.925   0.819
21034W        W93294  19.561  30.357  12.973
21035W        W93295  12.720   3.711  10.607
21036W        W93296  24.127  25.852   1.152
21037W        W93297  34.717  43.874   1.398
21038W        W93298  28.490  10.877   4.586
21039W        W93299  41.814  29.995   0.657
21040W        W93300  44.470  28.296  11.530
21041W        W93301  32.043   4.755  11.036
21042W        W93302   5.189   3.476   4.011
21043W        W93303   7.939   6.330   3.971
21044W        W93304   7.517   7.903  12.999
21045W        W93305  31.552  42.836  10.439
21046W        W93306  41.016  19.233  13.318
21047W        W93307   4.674  41.379  14.364
21048W        W93308  41.458  30.869  10.759
21049W        W93309  31.312   2.388  12.947
21050W        W93310   9.881   4.391  12.111
21051W        W93311  39.552  43.144  14.420
21052W        W93312   8.401   1.377   0.273
21053W        W93313  15.642  12.293   1.248
21054W        W93314   4.973  43.882   3.360
21055W        W93315  28.563  15.331   2.234
21056W        W93316  31.038  39.090   0.358
21057W        W93317  34.059  37.894  13.960
21058W        W93318  40.149  32.127  11.479
21059W        W93319   4.899  20.175  10.523
21060W        W93320   5.517  41.413   2.393
21061W        W93321  29.183  36.288   3.010
21062W        W93322  26.958  22.485  11.478
21063W        W93323  24.567  22.547   4.893
21064W        W93324  13.053  32.057   1.987
21065W        W93325   3.891  41.572   4.208
21066W        W93326   2.833   2.665  14.794
21067W        W93327  26.665  41.039  10.992
21068W        W93328  34.999  35.875   0.397
21069W        W93329   4.324  16.872   1.026
21070W        W93330  35.952  27.196   0.306
21071W        W93331  37.146   0.351  13.627
21072W        W93332   8.329  28.026   5.184
21073W        W93333  13.754  27.643   2.489
21074W        W93334   9.840  28.704  14.548
21075W        W93335   5.308  38.466   4.026
21076W        W93336   4.472  10.596   2.138
21077W        W93337  29.140  36.466   0.824
21078W        W93338  32.615   4.031   4.952
21079W        W93339   4.343  11.843  11.216
21080W        W93340  23.184  43.207   4.164
21081W        W93341  30.021   3.392   1.270
21082W        W93342  25.726  28.504   0.921
21083W        W93343  31.926  30.837   1.072
21084W        W93344  41.518  19.329  13.464
21085W        W93345   9.674   2.801  11.772
21086W        W93346   1.354  39.516  10.664
21087W        W93347  17.034  15.339  14.452
21088W        W93348  28.893  17.054   2.071
21089W        W93349   5.133  39.827   4.674
21090W        W93350  31.702  24.159  11.940
21091W        W93351  16.619  28.020  13.768
21092W        W93352   0.868  39.870   3.158
21093W        W93353   1.456   4.303   1.461
21094W        W93354  10.227  39.784  10.046
21095W        W93355  17.656  23.522   3.205
21096W        W93356  33.631  28.087   5.108
21097W        W93357  12.729  27.207   4.083
21098W        W93358   5.276  38.453   1.653
21099W        W93359  31.868  10.216  13.894
21100W        W93360  26.581  39.832  13.738
21101W        W93361  32.595   9.195   2.268
21102W        W93362  19.658   9.899   4.148
21103W        W93363  30.638  22.168   0.325
21104W        W93364   9.023  38.611   1.902
21105W        W93365  32.450  32.575  10.455
21106W        W93366  14.337  40.487  12.094
21107W        W93367  17.845  16.818   4.325
21108W        W93368  11.095  12.584  13.045
21109W        W93369  14.877   9.788  10.632
21110W        W93370   4.033  15.221   1.703
21111W        W93371   9.346  10.247  12.064
21112W        W93372  28.018  28.948  11.631
21113W        W93373  23.329   9.145   0.125
21114W        W93374   5.230  11.609   2.691
21115W        W93375   6.332   7.483   4.672
21116W        W93376  23.013  31.394  12.331
21117W        W93377   7.907  33.896   4.160
21118W        W93378  44.421  19.311   3.692
21119W        W93379   3.699  35.145   4.567
21120W        W93380  26.663  36.572   2.006
21121W        W93381  43.605   8.751  14.217
21122W        W93382  38.931  33.669  14.179
21123W        W93383  22.029  19.737   4.360
21124W        W93384  24.192  33.075  13.985
21125W        W93385  30.582  13.552   0.720
21126W        W93386  11.241  13.674  13.779
21127W        W93387   9.951  21.564  12.051
21128W        W93388  39.495  22.670   2.050
21129W        W93389   3.172   4.839  13.751
21130W        W93390  13.243  32.753   0.290
21131W        W93391   5.302  29.962   1.456
21132W        W93392  14.161   3.695  14.386
21133W        W93393   4.822  27.271  11.617
21134W        W93394  10.851  22.154   1.937
21135W        W93395  25.757   8.706   2.119
21136W        W93396  18.962   9.227   9.760
21137W        W93397  11.486   4.726   5.166
21138W        W93398  39.897  30.545  14.266
21139W        W93399  10.900  34.755  11.350
21140W        W93400  27.960  40.506  10.686
21141W        W93401  17.994  28.310  13.318
21142W        W93402  27.099  25.785   1.928
21143W        W93403  22.623  29.567   4.034
21144W        W93404  14.600  43.591  11.589
21145W        W93405   8.860  26.017   2.273
21146W        W93406   8.705   7.425   2.635
21147W        W93407  35.447  37.395   3.225
21148W        W93408   4.994  39.363   1.317
21149W        W93409  19.743  26.693   2.818
21150W        W93410  30.103  20.478   3.273
21151W        W93411  30.524   6.798  14.981
21152W        W93412  16.073  36.077   1.891
21153W        W93413  12.435  28.080   1.898
21154W        W93414  12.144  42.926  14.422
21155W        W93415  40.902  12.068   4.871
21156W        W93416  28.935  26.595  10.700
21157W        W93417  27.530  27.159   4.179
21158W        W93418  38.922   0.860  13.453
21159W        W93419  11.843  14.622   4.337
21160W        W93420  36.083  40.632   1.467
21161W        W93421  34.704   5.475  12.552
21162W        W93422  42.392  42.474  12.627
21163W        W93423  10.751  38.295  14.455
21164W        W93424  25.364  37.611  14.770
21165W        W93425  38.055  35.515   3.263
21166W        W93426  15.122  38.756  12.968
21167W        W93427  37.579  25.505  11.231
21168W        W93428  19.084  43.677   3.324
21169W        W93429  24.652  37.702  10.762
21170W        W93430  42.890  32.513  14.023
21171W        W93431   3.209  42.177  13.244
21172W        W93432   3.279  31.987   3.097
21173W        W93433   2.354  22.796   4.321
21174W        W93434  20.103   8.725   0.724
21175W        W93435  40.331  14.657  14.059
21176W        W93436  38.940  10.111   4.556
21177W        W93437   8.723   4.072  11.699
21178W        W93438   5.290  16.278  14.410
21179W        W93439  40.081   2.517   0.937
21180W        W93440  42.401   3.451  12.043
21181W        W93441  32.421  35.938   1.735
21182W        W93442  18.107  25.070   4.617
21183W        W93443   6.892   0.161  11.129
21184W        W93444  39.809   8.710  10.294
21185W        W93445  11.118   6.341   2.676
21186W        W93446  31.445  31.550  12.676
21187W        W93447  37.857   1.311  13.019
21188W        W93448  24.760  27.117  12.809
21189W        W93449  13.340  42.979   0.939
21190W        W93450   7.485  43.047  14.756
21191W        W93451   8.698  21.289  14.037
21192W        W93452   0.553  17.650  12.407
21193W        W93453  10.840  29.192  12.567
21194W        W93454  13.824  23.753  13.579
21195W        W93455   3.841  29.968  14.339
21196W        W93456  14.181  36.692   2.886
21197W        W93457   5.907  26.519  11.416
21198W        W93458   8.204   7.194  10.440
21199W        W93459  21.065  40.079  11.094
21200W        W93460  37.899  23.253   1.209
21201W        W93461   2.901  10.477  14.230
21202W        W93462   4.820   5.912   4.574
21203W        W93463  20.409  35.105  10.297
21204W        W93464  30.327  39.676  14.847
21205W        W93465  14.591  19.559   3.689
21206W        W93466  23.365  40.029  11.656
21207W        W93467   9.205  24.594  13.549
21208W        W93468   6.468  27.229   5.011
21209W        W93469   2.736  29.954   3.959
21210W        W93470   3.837  25.539   2.207
21211W        W93471   5.454  13.018   1.382
21212W        W93472  24.011  27.131  13.915
21213W        W93473  12.112  41.585   1.257
21214W        W93474  18.886  15.274   0.271
21215W        W93475   6.669  20.232  10.717
21216W        W93476  18.517   5.251  10.107
21217W        W93477  22.603  21.743   1.642
21218W        W93478   9.091  20.535   0.744
21219W        W93479  42.139   5.668  12.109
21220W        W93480   6.383  18.988  11.128
21221W        W93481  26.183   7.694  14.348
21222W        W93482  10.546  42.107   4.158
21223W        W93483  41.409  38.961   2.126
21224W        W93484  34.879  19.328   3.173
21225W        W93485  16.971  40.869   3.658
21226W        W93486  32.491   3.731  12.986
21227W        W93487  43.059  22.369  11.613
21228W        W93488  35.108  12.229   2.304
21229W        W93489   1.236  10.086  12.198
21230W        W93490   7.564   2.672  11.603
21231W        W93491   1.610   3.720   0.750
21232W        W93492   1.251   0.344  13.912
21233W        W93493  39.859  22.264  13.084
21234W        W93494  35.178  25.029   1.840
21235W        W93495  37.425  25.471   0.760
21236W        W93496   2.548  30.391   0.294
21237W        W93497  13.640  26.484  13.031
21238W        W93498  24.666  12.459  13.194
21239W        W93499  14.810  33.859   1.321
21240W        W93500   8.913  23.139  13.107
21241W        W93501  18.649  11.173   1.392
21242W        W93502  27.061   9.848   1.475
21243W        W93503   7.966  19.604  11.499
21244W        W93504  11.913   8.861   4.746
21245W        W93505  20.257  20.254  14.921
21246W        W93506  32.927  43.797   0.499
21247W        W93507  16.235   5.886  12.446
21248W        W93508  37.093  24.200  14.994
21249W        W93509  20.668   7.879   3.592
21250W        W93510  27.222  37.620  11.390
21251W        W93511  30.663  32.836   3.681
21252W        W93512  18.587  29.227  11.061
21253W        W93513  37.237  11.735   2.576
21254W        W93514  13.412   5.328  11.185
21255W        W93515  28.860  31.117   1.318
21256W        W93516  41.435  14.735  14.534
21257W        W93517  35.489  31.648  11.479
21258W        W93518  17.204  35.157  11.116
21259W        W93519  34.279   4.858   4.100
21260W        W93520   2.257  11.791   1.473
21261W        W93521  23.769  31.054  14.025
21262W        W93522  29.000  27.832  11.099
21263W        W93523  18.328  12.112   2.437
21264W        W93524  41.017  16.378   0.960
21265W        W93525  43.300  42.557   1.342
21266W        W93526  34.337   5.424   0.928
21267W        W93527   6.278  21.792   2.031
21268W        W93528  21.554  30.369  10.408
21269W        W93529   4.128  39.007   3.795
21270W        W93530  19.588  30.603   0.042
21271W        W93531   0.014  13.244   1.435
21272W        W93532  44.230  25.584   1.694
21273W        W93533  15.071  29.136  12.958
21274W        W93534  33.068  25.332   1.402
21275W        W93535  39.640  40.077  14.881
21276W        W93536  36.112  20.768   9.995
21277W        W93537  22.250  32.747  11.220
21278W        W93538  11.400  35.994  14.033
21279W        W93539   4.030   0.755  10.629
21280W        W93540  33.558  44.963  14.519
21281W        W93541  42.403  19.794   0.990
21282W        W93542   2.790  41.981  10.687
21283W        W93543  27.118  29.075  14.890
21284W        W93544  44.710  17.510  11.593
21285W        W93545  13.378  21.017  14.296
21286W        W93546  36.837  35.454  12.374
21287W        W93547  34.061  39.555  14.019
21288W        W93548   7.321   6.712  12.279
21289W        W93549  19.743   5.389  14.505
21290W        W93550   4.954  12.656  14.690
21291W        W93551  25.291  11.894   4.567
21292W        W93552   9.775  22.099  11.497
21293W        W93553   4.267  32.844   2.863
21294W        W93554  35.577  38.517   3.310
21295W        W93555   5.018  27.175  14.286
21296W        W93556  39.646  42.431  13.637
21297W        W93557  13.136  14.053  11.594
21298W        W93558  25.126   5.867   4.183
21299W        W93559  14.346  23.984   1.012
21300W        W93560  28.556   2.950  14.300
21301W        W93561  15.136  11.797   4.660
21302W        W93562  24.715  40.036  13.054
21303W        W93563  38.950  14.971   5.086
21304W        W93564  12.299  28.340   4.103
21305W        W93565  33.881   5.289  13.350
21306W        W93566  34.450  40.585   1.918
21307W        W93567  11.762  24.019  13.476
21308W        W93568  40.307  24.906   1.366
21309W        W93569  32.652  39.113  13.871
21310W        W93570  40.606  43.297  12.892
21311W        W93571  31.475  29.942  14.209
21312W        W93572  28.360  43.770   3.363
21313W        W93573  30.210  18.644   4.535
21314W        W93574  21.208  20.473  13.396
21315W        W93575   0.671  17.189  10.247
21316W        W93576  22.685  24.994  11.179
21317W        W93577   8.652  14.262   4.704
21318W        W93578  40.523  13.129  10.800
21319W        W93579  21.650  21.086  12.122
21320W        W93580  22.061  34.437   0.024
21321W        W93581  23.866  44.951  12.178
21322W        W93582  41.673  11.140  11.067
21323W        W93583  39.528  44.912   4.694
21324W        W93584  23.025   3.998   3.280
21325W        W93585  33.097  23.605  14.971
21326W        W93586  31.650   9.287   0.458
21327W        W93587  32.019  11.323  10.264
21328W        W93588  43.433  43.205   3.223
21329W        W93589  20.677  40.161   4.284
21330W        W93590  36.402  32.532   1.350
21331W        W93591  21.136  35.921   1.277
21332W        W93592  38.134  43.615   2.093
21333W        W93593  22.338  43.526  13.655
21334W        W93594  15.945  15.687  10.471
21335W        W93595  10.336   2.879   0.611
21336W        W93596  28.944  29.043   2.720
21337W        W93597  33.439  21.613  11.694
21338W        W93598  31.712   1.404  13.331
21339W        W93599  42.377  26.425   1.205
21340W        W93600  31.181  44.454   2.200
21341W        W93601  44.711  31.051  14.959
21342W        W93602  44.768  10.932   2.810
21343W        W93603  18.737   4.932  12.095
21344W        W93604  16.655  16.099  14.869
21345W        W93605  12.596  31.659  10.368
21346W        W93606   0.012  35.610  11.871
21347W        W93607  21.789  37.321   0.850
21348W        W93608  35.577  20.917   9.896
21349W        W93609  25.540   1.477  11.518
21350W        W93610   3.426  39.284  13.385
21351W        W93611   4.898   4.695   4.769
21352W        W93612   6.925  42.516  14.891
21353W        W93613   6.890  27.472  13.301
21354W        W93614  29.605  17.024  11.542
21355W        W93615  31.103  42.502   4.824
21356W        W93616  24.744  19.008   0.920
21357W        W93617   9.294  36.537  14.544
21358W        W93618   4.308  12.607   0.364
21359W        W93619  30.875   9.265  13.003
21360W        W93620  32.400  40.557   3.280
21361W        W93621  37.041  32.047   5.162
21362W        W93622  19.522  27.025  10.404
21363W        W93623  27.975  22.842  12.268
21364W        W93624  23.047  11.360   3.289
21365W        W93625  38.317  22.029  14.296
21366W        W93626   1.980  23.734   2.893
21367W        W93627  10.350  35.330   1.408
21368W        W93628  35.881  38.901  10.676
21369W        W93629  25.567  29.510  13.474
21370W        W93630  37.554  35.827  12.791
21371W        W93631   4.729   7.778  14.826
21372W        W93632  29.670  10.655  12.446
21373W        W93633   4.943  42.264   3.754
21374W        W93634  13.513  21.587  11.065
21375W        W93635  17.700  26.692  14.427
21376W        W93636  40.785  10.319  11.935
21377W        W93637   3.666  16.974  13.852
21378W        W93638  34.522  29.891  11.521
21379W        W93639   7.822   1.525   4.480
21380W        W93640  17.311  23.368   3.657
21381W        W93641  24.077  12.912  11.586
21382W        W93642   3.657  25.140   1.270
21383W        W93643  10.175   6.408  13.774
21384W        W93644   3.735  29.872  11.849
21385W        W93645  39.355  17.721  14.031
21386W        W93646  44.404  14.411  13.403
21387W        W93647  20.641  13.176  14.570
21388W        W93648  32.482   6.917  12.973
21389W        W93649  27.833  26.636  13.103
21390W        W93650  10.775  21.031   4.267
21391W        W93651  11.326  14.731   4.229
21392W        W93652  19.778  37.534   1.864
21393W        W93653  39.952  24.051   0.741
21394W        W93654   2.322   1.457   4.743
21395W        W93655  34.645  31.629   4.577
21396W        W93656  13.108   4.141  13.003
21397W        W93657  29.616  10.927   3.281
21398W        W93658  28.278  32.160   2.365
21399W        W93659   3.874  31.521  11.911
21400W        W93660  37.378  26.646   2.193
21401W        W93661   5.734  10.724   3.886
21402W        W93662  42.216  18.606  13.237
21403W        W93663  26.703  40.839   3.176
21404W        W93664   0.142  32.880  14.072
21405W        W93665  33.006  39.572   2.268
21406W        W93666  18.755  27.433  13.971
21407W        W93667  33.287  16.215   0.581
21408W        W93668  31.491   4.632   4.198
21409W        W93669  32.700  42.844  13.630
21410W        W93670   3.686  26.891   2.682
21411W        W93671  16.961  12.229   0.995
21412W        W93672  31.186   1.032  14.691
21413W        W93673  16.755   0.875  12.326
21414W        W93674   6.591   4.827  11.730
21415W        W93675   4.754  10.793  13.960
21416W        W93676   8.573  15.160   4.553
21417W        W93677   0.865  30.942   2.651
21418W        W93678  18.271   2.810  14.923
21419W        W93679  35.042  24.801   3.041
21420W        W93680   7.187  34.630  11.235
21421W        W93681  31.514  25.705   3.572
21422W        W93682  30.337  19.561  13.938
21423W        W93683  31.740  41.656  12.953
21424W        W93684  25.768  37.150  12.025
21425W        W93685  22.772   5.479  12.000
21426W        W93686  35.072  33.108  11.984
21427W        W93687  42.561  40.350   4.096
21428W        W93688  15.391   0.776  13.453
21429W        W93689  20.740  35.474   4.241
21430W        W93690   2.733  29.053  11.114
21431W        W93691  26.667  34.076  11.525
21432W        W93692  39.762  19.733  12.030
21433W        W93693  26.663   0.889  13.762
21434W        W93694  38.917  25.538  12.139
21435W        W93695  27.423  27.923  14.956
21436W        W93696  29.100  25.486   0.519
21437W        W93697  13.267   2.813  13.937
21438W        W93698   9.355  13.155   4.566
21439W        W93699  36.122  26.670  14.013
21440W        W93700  16.564  30.288  13.655
21441W        W93701  17.503  44.800  14.706
21442W        W93702  11.620  39.759  11.189
21443W        W93703   6.653  20.156  14.959
21444W        W93704  15.059  10.396  12.463
21445W        W93705  27.950   9.370   4.219
21446W        W93706  40.954  20.609   2.825
21447W        W93707  25.531   8.601  12.878
21448W        W93708  37.872  41.978   2.486
21449W        W93709  38.925   8.169   1.324
21450W        W93710  13.358  26.702  11.209
21451W        W93711  44.405  18.027  12.819
21452W        W93712   3.590  16.074   3.776
21453W        W93713  17.627  41.009  13.103
21454W        W93714   6.730  10.698  11.833
21455W        W93715  38.424  18.061   4.444
21456W        W93716  30.657  32.509  14.348
21457W        W93717  18.529  28.212   1.873
21458W        W93718  43.818   4.603  10.937
21459W        W93719  37.076  31.923   0.233
21460W        W93720  30.662  25.941  14.488
21461W        W93721  36.511   4.468   2.634
21462W        W93722  28.658   7.698   4.593
21463W        W93723  21.257  14.328   4.864
21464W        W93724  16.743   6.758   2.899
21465W        W93725  13.147  11.206   2.994
21466W        W93726  39.901  18.817  12.594
21467W        W93727  26.199  17.298  14.400
21468W        W93728  27.908   0.663   1.928
21469W        W93729  31.909  12.035   0.433
21470W        W93730  36.711  28.354   3.426
21471W        W93731  19.266  27.942   0.289
21472W        W93732  18.139  44.972  12.952
21473W        W93733  39.234  29.531   3.253
21474W        W93734  13.252  42.889  10.639
21475W        W93735  14.708  17.740   5.081
21476W        W93736  14.800   0.997   2.818
21477W        W93737  12.634  36.421  14.057
21478W        W93738  30.384  23.119   1.642
21479W        W93739  18.807  24.549   3.305
21480W        W93740  29.911   7.891  11.533
21481W        W93741   3.996  18.039   1.678
21482W        W93742   1.953  14.717  14.958
21483W        W93743  14.630  34.764  11.442
21484W        W93744  35.854  17.600   2.190
21485W        W93745   5.211   2.155   0.941
21486W        W93746   1.117   9.481   1.713
21487W        W93747  19.370  35.836  11.922
21488W        W93748  20.744  10.228  13.937
21489W        W93749  42.962   2.488   0.316
21490W        W93750  29.639  22.736   0.263
21491W        W93751  37.168  21.736  12.183
21492W        W93752  39.427  44.902   3.703
21493W        W93753   6.260  21.026   0.390
21494W        W93754  14.712  33.099  13.932
21495W        W93755  22.630   5.176   4.036
21496W        W93756  31.460  44.529   1.721
21497W        W93757   6.332  12.363  12.951
21498W        W93758   9.901  26.563  12.031
21499W        W93759  22.671  26.994  11.473
21500W        W93760   0.050  24.712  12.437
21501W        W93761  39.417  13.157   3.611
21502W        W93762  14.273  34.972  12.710
21503W        W93763  42.536   4.742   1.629
21504W        W93764   3.931  16.868   4.573
21505W        W93765  30.591   4.606  11.528
21506W        W93766  12.148  17.746   4.425
21507W        W93767   2.750  14.154  10.749
21508W        W93768  34.072  26.649   4.080
21509W        W93769  26.767  28.686   2.227
21510W        W93770   1.799   9.072  11.685
21511W        W93771  14.085  18.187   3.684
21512W        W93772   1.017  21.974  12.015
21513W        W93773  25.208   5.713   4.659
21514W        W93774  25.495   7.701   2.139
21515W        W93775  14.676  19.971  10.660
21516W        W93776   6.137  39.336  14.316
21517W        W93777  41.330   5.988  13.047
21518W        W93778  13.812   6.767  10.251
21519W        W93779  18.550  22.728  11.816
21520W        W93780  25.015  32.285   3.966
21521W        W93781  38.484  40.204  11.524
21522W        W93782  43.235  37.894   0.050
21523W        W93783   2.256  23.651  11.656
21524W        W93784  11.381  21.826   0.555
21525W        W93785   2.451   9.157  14.336
21526W        W93786  42.973   2.025   4.417
21527W        W93787   1.449  41.555  11.934
21528W        W93788  37.961   1.769   0.231
21529W        W93789  28.226  25.270   3.684
21530W        W93790  25.697  35.817   2.324
21531W        W93791   2.176  34.431   2.312
21532W        W93792  32.354  19.656  12.819
21533W        W93793  17.371  18.671  10.889
21534W        W93794  31.411   7.812   0.269
21535W        W93795   2.255  32.508  10.708
21536W        W93796  35.573  30.800  12.318
21537W        W93797  18.163  36.935   3.751
21538W        W93798  15.588   2.201  12.044
21539W        W93799  25.272  26.957   3.189
21540W        W93800  44.964  11.513  13.930
21541W        W93801  43.792  35.598   3.765
21542W        W93802  34.096  36.768  12.809
21543W        W93803   2.235  35.509  12.881
21544W        W93804  29.499  31.121  13.030
21545W        W93805  34.325  44.762   2.268
21546W        W93806  43.687  20.524   0.950
21547W        W93807   6.751  40.490   5.067
21548W        W93808  37.972  43.341  14.195
21549W        W93809   2.387   3.191  12.957
21550W        W93810  25.874  40.503  14.141
21551W        W93811  42.968  34.031  14.947
21552W        W93812   4.035  24.783   4.461
21553W        W93813  15.587  38.385   4.168
21554W        W93814  40.192   8.854  11.223
21555W        W93815  31.581  28.433  12.139
21556W        W93816  43.304   1.030  14.314
21557W        W93817  42.903   9.987   3.596
21558W        W93818  33.195  34.029  14.409
21559W        W93819  31.094  28.702  12.911
21560W        W93820  24.561  18.615  14.364
21561W        W93821  38.940  12.463  12.264
21562W        W93822   2.560  23.274  10.840
21563W        W93823  30.390   4.398   2.223
21564W        W93824  37.376  16.137   4.738
21565W        W93825   6.217  16.668   4.508
21566W        W93826   2.768  26.991   0.937
21567W        W93827  32.259  25.183   1.776
21568W        W93828   6.462  19.091  13.457
21569W        W93829  27.893  32.049  13.016
21570W        W93830   7.735  11.599  14.817
21571W        W93831  13.736  21.815  13.841
21572W        W93832  16.286  36.995   3.284
21573W        W93833   0.822  29.436   2.784
21574W        W93834  25.291  19.179  13.712
21575W        W93835  43.283  39.488   4.716
21576W        W93836  44.405  40.020   0.489
21577W        W93837  20.544  14.720  14.798
21578W        W93838   7.638  15.219  12.124
21579W        W93839  29.529   9.799  10.706
21580W        W93840  12.108  21.601  10.657
21581W        W93841  18.669  37.740  12.882
21582W        W93842  35.009  20.067   2.158
21583W        W93843  31.666   7.856   1.648
21584W        W93844  38.032  30.942   0.961
21585W        W93845  40.094  43.291  12.891
21586W        W93846  25.727  11.352   2.119
21587W        W93847   0.993   1.217  12.889
21588W        W93848  44.919   5.865   4.372
21589W        W93849  30.554  21.827   3.212
21590W        W93850  17.236   5.468  12.935
21591W        W93851  20.637  41.698   4.424
21592W        W93852  41.136   6.153   1.406
21593W        W93853  24.052  39.505  11.316
21594W        W93854  42.479  17.503   2.292
21595W        W93855  36.386  17.656   0.254
21596W        W93856   0.288  35.031  14.107
21597W        W93857  15.145  20.295  11.995
21598W        W93858  29.790  34.575   4.683
21599W        W93859  11.251  20.982   2.354
21600W        W93860   7.775  43.086   1.147
21601W        W93861  21.522  22.029   0.030
21602W        W93862   2.952  39.380   2.936
21603W        W93863   7.381  42.321  11.090
21604W        W93864  15.437  28.011  12.542
21605W        W93865  23.153   9.948  10.436
21606W        W93866  20.815   1.537  14.341
21607W        W93867  17.810  15.881  12.109
21608W        W93868  22.612  39.912   1.875
21609W        W93869  23.041  15.907  14.788
21610W        W93870   7.711  42.301  10.636
21611W        W93871   5.122  18.076   2.305
21612W        W93872   8.882  27.421  12.618
21613W        W93873  34.337  11.819  10.747
21614W        W93874  24.695  25.444  13.380
21615W        W93875  10.126   5.873  13.683
21616W        W93876  38.443  32.208   2.191
21617W        W93877  23.255  38.324   2.737
21618W        W93878  14.801  37.099  14.920
21619W        W93879   2.786   6.704  14.356
21620W        W93880  32.032  27.932   2.223
21621W        W93881   0.928  32.398   3.019
21622W        W93882  29.859  25.054   4.671
21623W        W93883  37.028  29.159   2.718
21624W        W93884  25.508  21.322  12.567
21625W        W93885  16.236  41.447   3.791
21626W        W93886  20.810  36.155  11.129
21627W        W93887  22.606   0.793   1.059
21628W        W93888  25.130  24.633  12.716
21629W        W93889  41.957  42.099   1.391
21630W        W93890  16.092  24.726   0.389
21631W        W93891  30.365  35.484  12.146
21632W        W93892   9.366   8.548  12.428
21633W        W93893  43.302   1.834   5.010
21634W        W93894   0.835  30.424  10.194
21635W        W93895   3.495  32.090  11.970
21636W        W93896  11.669  35.935   3.031
21637W        W93897  23.240   6.943  14.844
21638W        W93898  38.846  26.071  13.362
21639W        W93899   0.920  17.649   0.990
21640W        W93900   7.264  31.204   4.505
21641W        W93901   4.749  20.900  11.658
21642W        W93902  31.063  26.749  10.567
21643W        W93903  30.513  39.677  12.734
21644W        W93904  32.793  10.913  11.887
21645W        W93905  36.327  41.875   1.672
21646W        W93906  32.167  11.374   3.497
21647W        W93907  22.102  22.634   0.382
21648W        W93908   6.879   5.316  11.727
21649W        W93909  41.783  20.107   0.498
21650W        W93910   9.814  40.937   3.284
21651W        W93911  22.128  30.630  11.712
21652W        W93912  41.903  39.772   2.361
21653W        W93913  18.740  13.836   2.282
21654W        W93914   2.402  41.426  11.671
21655W        W93915  39.951  33.651  12.893
21656W        W93916  13.316  15.610  10.872
21657W        W93917  13.243   9.739  12.623
21658W        W93918  13.220   1.977  12.839
21659W        W93919  17.295  29.597   0.778
21660W        W93920   9.440   3.548  13.115
21661W        W93921  38.919  39.986  13.935
21662W        W93922  40.023  32.113   0.951
21663W        W93923  12.581  20.190  11.733
21664W        W93924   8.305  19.955   2.292
21665W        W93925   6.396  30.958  12.961
21666W        W93926  34.984  24.700  10.611
21667W        W93927  26.510   9.731   3.240
21668W        W93928  11.724  18.024   4.643
21669W        W93929  28.281  13.156   3.325
21670W        W93930  22.180  23.427  11.270
21671W        W93931  43.603  43.461  10.720
21672W        W93932  12.594  29.269  13.112
21673W        W93933  11.993  33.961  11.907
21674W        W93934  17.286  31.781   4.535
21675W        W93935  14.324  29.466   0.767
21676W        W93936   3.948  22.247   1.844
21677W        W93937   3.791  34.870   0.843
21678W        W93938  17.622  41.923   4.437
21679W        W93939  38.149   7.503   4.980
21680W        W93940  24.495  30.732   3.363
21681W        W93941   0.992  11.662   1.242
21682W        W93942   7.816  27.677   2.190
21683W        W93943  27.065  17.653  10.614
21684W        W93944  40.705  40.759  11.300
21685W        W93945  37.277  14.155   3.360
21686W        W93946   4.918  15.158  12.150
21687W        W93947  38.381  20.593   1.353
21688W        W93948  37.893  36.522   4.730
21689W        W93949   4.010  24.304   0.255
21690W        W93950  37.956  29.589   2.695
21691W        W93951  15.364  23.218   0.478
21692W        W93952  42.355   4.843   4.549
21693W        W93953  40.889   0.190   1.695
21694W        W93954   9.362  12.350   4.138
21695W        W93955   8.232  15.656  14.475
21696W        W93956  37.136   7.486  12.596
21697W        W93957  17.028  34.978  12.422
21698W        W93958  38.521  35.341  12.036
21699W        W93959  28.902  34.847   1.360
21700W        W93960  38.947  29.633  14.349
21701W        W93961  35.049  10.439   0.822
21702W        W93962  23.935  39.341  10.321
21703W        W93963  16.374  10.879  12.959
21704W        W93964  28.068  42.365  10.888
21705W        W93965  35.457  10.378   0.493
21706W        W93966  24.958  42.946  14.316
21707W        W93967   8.832   5.646  13.237
21708W        W93968   6.463   8.197  13.590
21709W        W93969   7.840   8.297  12.254
21710W        W93970  20.997  31.435  14.229
21711W        W93971  38.313  29.772  12.985
21712W        W93972   1.960  23.262  13.286
21713W        W93973  36.093  16.237   1.230
21714W        W93974  38.448  16.735  12.359
21715W        W93975  18.313  31.080  12.348
21716W        W93976   6.392  23.548  12.514
21717W        W93977  34.831  12.135   1.172
21718W        W93978  39.906  24.308   3.825
21719W        W93979  12.893  16.870   0.492
21720W        W93980   8.698  14.596   0.829
21721W        W93981   6.938  23.816   0.533
21722W        W93982  14.520  41.958   0.374
21723W        W93983  14.128  44.906  12.628
21724W        W93984  10.443  14.030  11.234
21725W        W93985   0.868  41.915  10.857
21726W        W93986   4.801  42.006   1.270
21727W        W93987   0.173  35.896  13.436
21728W        W93988  14.106   3.918   1.877
21729W        W93989   3.738  44.793  14.752
21730W        W93990  36.427  44.336  10.130
21731W        W93991  19.016  43.372   1.897
21732W        W93992   7.748  20.538   0.748
21733W        W93993  42.892  14.607   3.344
21734W        W93994  37.364  27.998  10.674
21735W        W93995  11.717   2.862   0.728
21736W        W93996  40.099  36.310  12.399
21737W        W93997   7.163  37.474   4.794
21738W        W93998  42.950  29.560   1.937
21739W        W93999  30.469  29.437   0.680
21740W        W94000  36.007  13.507   4.576
21741W        W94001   2.030  42.924   3.203
21742W        W94002  20.583   7.097   0.268
21743W        W94003  17.862  37.871  14.987
21744W        W94004  41.334  27.031   1.443
21745W        W94005  44.836  36.548   1.659
21746W        W94006  34.072  34.428   0.148
21747W        W94007  27.893  43.017  14.466
21748W        W94008   1.335  10.440   0.973
21749W        W94009   0.696  21.330   2.360
21750W        W94010  18.088  38.869   1.873
21751W        W94011  25.639   6.376   3.646
21752W        W94012  31.310  32.094  10.162
21753W        W94013   5.235   8.298   4.232
21754W        W94014  19.309  33.092  12.003
21755W        W94015   6.935  36.644   4.532
21756W        W94016  14.468  37.244   1.702
21757W        W94017  20.334  10.005  10.058
21758W        W94018  22.583  17.351  14.148
21759W        W94019  17.775   3.094   4.742
21760W        W94020  12.652  26.126  10.521
21761W        W94021  23.434  40.005   1.259
21762W        W94022  32.878  43.063  10.781
21763W        W94023  24.569  24.236   1.231
21764W        W94024  15.313  14.228  11.923
21765W        W94025   5.740  10.531  11.087
21766W        W94026  10.174  16.799   9.737
21767W        W94027  31.674  15.764  13.235
21768W        W94028  22.676  26.149   4.606
21769W        W94029  26.445  14.604   3.307
21770W        W94030  28.748  23.628  12.851
21771W        W94031  41.352  39.858  12.086
21772W        W94032   5.732  29.683   1.205
21773W        W94033  20.023   7.141  11.009
21774W        W94034  23.274  12.769  10.604
21775W        W94035  43.189  43.424  11.001
21776W        W94036  19.222  22.888   1.174
21777W        W94037   7.731  16.051  13.392
21778W        W94038   6.758  41.091   3.847
21779W        W94039  12.764  23.919  10.497
21780W        W94040  20.486  35.125  11.956
21781W        W94041  10.319  33.536  10.383
21782W        W94042  24.652   1.933   4.059
21783W        W94043  21.174  19.081  11.983
21784W        W94044  28.617   8.820  14.437
21785W        W94045  32.580  23.039   1.548
21786W        W94046   0.909   4.741   2.341
21787W        W94047  15.373   1.418  13.891
21788W        W94048   9.139  40.162  12.506
21789W        W94049  13.638  18.642   4.279
21790W        W94050  39.077  33.884  14.968
21791W        W94051  37.398  42.485   3.817
21792W        W94052  24.952  32.189  10.714
21793W        W94053  33.950  12.445  13.392
21794W        W94054  25.832  24.941   1.357
21795W        W94055  10.741  28.721   2.100
21796W        W94056  22.988  32.973   1.205
21797W        W94057   2.081  44.697  12.888
21798W        W94058  18.539  28.451  11.727
21799W        W94059  11.756  41.144   3.627
21800W        W94060  44.756  31.417  11.851
21801W        W94061  13.198   8.572  11.666
21802W        W94062  16.712  17.721  12.128
21803W        W94063  35.409  21.738  14.915
21804W        W94064  37.433  21.960  10.599
21805W        W94065  20.206  44.202  14.995
21806W        W94066  30.946  26.541   0.300
21807W        W94067  24.669  26.324  13.907
21808W        W94068  28.694  24.730  14.904
21809W        W94069  27.078   9.773  12.671
21810W        W94070  40.397  28.138  11.945
21811W        W94071  35.630  17.137   1.260
21812W        W94072   0.777  10.676   3.631
21813W        W94073   6.673   6.517  10.692
21814W        W94074  36.163  23.962  12.562
21815W        W94075  22.356  24.313  10.054
21816W        W94076   0.104  30.381  12.447
21817W        W94077  21.214   0.831  12.068
21818W        W94078  33.575   1.383  13.814
21819W        W94079  19.824  25.286  13.850
21820W        W94080  41.743  10.289   1.789
21821W        W94081  30.960   9.353  11.862
21822W        W94082  44.818  27.533   3.816
21823W        W94083  20.110   2.263  13.830
21824W        W94084  23.513  29.507  11.573
21825W        W94085  34.469  35.671  14.777
21826W        W94086  41.532  44.311   1.689
21827W        W94087  13.125  34.430   2.817
21828W        W94088  11.778   5.621  11.080
21829W        W94089  26.044  26.164  12.992
21830W        W94090  21.477  27.990  10.629
21831W        W94091  35.309  15.222   3.148
21832W        W94092  21.784  26.595   4.566
21833W        W94093  30.502  18.822  11.093
21834W        W94094  13.286   6.384   2.312
21835W        W94095   1.659  21.179  12.506
21836W        W94096  20.521  12.184   2.252
21837W        W94097  15.759   0.375  11.067
21838W        W94098  35.995  11.015   2.707
21839W        W94099  38.892  23.278  13.108
21840W        W94100  29.104  21.246   3.288
21841W        W94101  26.682  13.285   4.523
21842W        W94102   0.666  31.457   4.425
21843W        W94103   3.542   3.368  11.971
21844W        W94104  31.031  20.520   1.750
21845W        W94105  12.592   3.852  11.968
21846W        W94106  41.819  40.073   3.672
21847W        W94107  14.693  38.896   0.540
21848W        W94108  39.099  43.145  11.710
21849W        W94109   3.331  33.598   5.056
21850W        W94110  30.666  28.066  13.454
21851W        W94111  38.313  29.578   3.043
21852W        W94112  22.701  42.356   0.459
21853W        W94113   0.264  13.633   3.253
21854W        W94114  26.379   5.333   1.923
21855W        W94115  23.778  40.021   5.062
21856W        W94116  43.316  44.589  14.727
21857W        W94117  36.877   8.480   4.763
21858W        W94118   6.899  23.793   3.048
21859W        W94119   7.419  29.646   0.732
21860W        W94120  30.045  13.355  11.197
21861W        W94121   6.769  24.966  13.045
21862W        W94122   5.430   3.397  14.928
21863W        W94123  26.971  33.032   2.137
21864W        W94124  19.155  33.387   1.683
21865W        W94125  14.712  17.583   3.718
21866W        W94126  28.154  22.673   0.982
21867W        W94127   5.665  10.274   2.333
21868W        W94128  20.264  12.641   2.216
21869W        W94129  28.262  33.447  11.509
21870W        W94130  35.338  34.859   2.860
21871W        W94131  43.936   9.574   1.986
21872W        W94132  26.398  10.888  14.671
21873W        W94133  31.175  40.852   2.439
21874W        W94134   7.066  44.722  14.002
21875W        W94135  18.273  34.101   2.780
21876W        W94136  30.432  29.117   4.091
21877W        W94137  33.023   6.625  14.395
21878W        W94138  41.765  29.443   1.955
21879W        W94139   0.249   1.652  13.969
21880W        W94140  31.077   4.669   3.696
21881W        W94141  33.471  41.405   2.884
21882W        W94142  38.237  19.558   3.259
21883W        W94143  22.035  38.406   1.749
21884W        W94144  18.452  30.126   0.354
21885W        W94145  11.427  34.417  10.711
21886W        W94146  29.370  11.011  11.541
21887W        W94147  40.605  44.885  13.421
21888W        W94148  17.727  22.302   3.794
21889W        W94149  10.079  10.952  12.030
21890W        W94150   2.150   7.670  13.983
21891W        W94151  32.709  16.360  12.554
21892W        W94152   0.468  20.700   3.371
21893W        W94153  39.953  26.701   2.312
21894W        W94154  26.515  35.489   3.416
21895W        W94155  18.955   3.767  14.326
21896W        W94156  23.165  42.554  13.846
21897W        W94157   2.848  22.854  11.993
21898W        W94158  36.919  10.829   3.150
21899W        W94159  17.621   7.829   1.084
21900W        W94160   7.565  30.044   2.708
21901W        W94161  25.845  32.897   2.964
21902W        W94162  37.779  14.165  13.265
21903W        W94163  23.158  12.673   1.961
21904W        W94164  12.724  14.038  12.948
21905W        W94165  31.552   4.878  11.122
21906W        W94166  37.001   8.944   1.636
21907W        W94167  36.324  26.653  12.331
21908W        W94168  31.709  28.021  11.190
21909W        W94169  14.607  35.959  11.231
21910W        W94170  23.735  14.638  12.047
21911W        W94171   4.845  21.974   3.884
21912W        W94172  35.373  17.910   4.590
21913W        W94173   5.061  21.911  12.921
21914W        W94174  17.991   4.180   0.724
21915W        W94175  31.576   2.859  13.130
21916W        W94176  23.817  38.553   1.372
21917W        W94177  29.499   3.431   4.622
21918W        W94178   9.425  28.418  11.658
21919W        W94179  32.805  31.858   4.528
21920W        W94180  20.845  17.188   5.058
21921W        W94181  14.568  22.603   0.837
21922W        W94182   4.442  13.600  11.694
21923W        W94183  26.962  40.651  13.888
21924W        W94184   4.927  37.886  14.993
21925W        W94185  39.418  43.454  11.404
21926W        W94186  31.537  28.151  12.601
21927W        W94187  27.651  37.117   3.610
21928W        W94188  33.960  27.203  14.323
21929W        W94189   9.994   6.848  12.751
21930W        W94190  29.241  32.999   1.309
21931W        W94191  24.588  30.140  12.543
21932W        W94192  40.361   0.974   2.537
21933W        W94193  19.108  23.134   2.400
21934W        W94194  36.920  41.616   0.457
21935W        W94195  38.841  43.537   4.580
21936W        W94196   0.934  28.053  13.874
21937W        W94197   2.686  16.149  13.768
21938W        W94198   5.189  38.866   4.318
21939W        W94199  39.364  12.310   2.308
21940W        W94200  18.674  18.058   4.072
21941W        W94201   5.322  15.059  12.666
21942W        W94202  36.615  34.045  12.135
21943W        W94203  23.421   5.973   4.191
21944W        W94204  22.498   0.902  10.243
21945W        W94205  33.904   6.935  14.556
21946W        W94206  30.590  17.089  10.432
21947W        W94207  23.647   3.649  14.780
21948W        W94208   5.751  33.957  12.924
21949W        W94209  24.671  13.343  12.366
21950W        W94210  29.028   9.632   3.395
21951W        W94211  21.185   7.148   1.455
21952W        W94212  35.437  43.012   3.771
21953W        W94213  21.757  42.957  12.688
21954W        W94214  30.370   4.359  13.372
21955W        W94215  23.020  17.214   3.184
21956W        W94216  42.127   3.158   4.565
21957W        W94217   5.489   5.761   1.835
21958W        W94218  35.169  32.043  13.883
21959W        W94219   2.845  12.370  14.248
21960W        W94220  28.665  22.130   4.237
21961W        W94221  28.622  24.734   4.296
21962W        W94222  36.117  11.673   1.630
21963W        W94223   4.371  39.084  14.476
21964W        W94224  39.988  45.000   1.173
21965W        W94225  40.083  14.779  11.537
21966W        W94226  18.285  26.176  11.736
21967W        W94227  34.113   5.748   1.271
21968W        W94228  29.673   3.429  13.954
21969W        W94229  35.391   1.175   2.213
21970W        W94230   3.874  17.458  13.840
21971W        W94231  30.296  11.366  14.969
21972W        W94232  12.861   8.750   3.764
21973W        W94233  12.929  13.672  11.942
21974W        W94234   2.762  22.440  13.378
21975W        W94235  14.787  35.504   4.116
21976W        W94236  13.142   4.886   2.440
21977W        W94237  44.195   4.107  10.720
21978W        W94238  18.809  20.041  11.984
21979W        W94239  30.970   0.777   2.930
21980W        W94240  41.770  16.545  12.852
21981W        W94241  25.507   4.965   0.860
21982W        W94242  24.090  43.183   4.992
21983W        W94243  17.276  31.397   0.887
21984W        W94244   9.749  22.086   4.583
21985W        W94245  40.825  32.417   4.680
21986W        W94246   8.998  18.011  10.388
21987W        W94247   7.602  41.521   4.293
21988W        W94248  40.571  11.654  12.097
21989W        W94249  40.427  35.403   3.376
21990W        W94250  13.654  35.536   3.248
21991W        W94251   1.331  13.835  11.592
21992W        W94252  40.011   1.824   2.277
21993W        W94253  21.662  21.158   4.740
21994W        W94254   1.903  30.756  11.030
21995W        W94255  14.068  29.054   1.002
21996W        W94256  27.047  10.292  10.399
21997W        W94257   2.009   1.671  13.782
21998W        W94258  18.118  23.725   4.492
21999W        W94259  34.319  12.880   3.195
22000W        W94260  23.539   8.270  12.400
22001W        W94261  38.021   3.891   2.867
22002W        W94262  36.031  13.736  11.198
22003W        W94263   7.757  18.595   1.929
22004W        W94264  31.511  41.619  10.975
22005W        W94265  34.149  22.026   2.679
22006W        W94266  13.902  26.801   1.216
22007W        W94267  40.915  39.578  12.078
22008W        W94268  13.220  34.406  11.893
22009W        W94269  10.311  21.889  12.220
22010W        W94270  22.790  21.505   9.763
22011W        W94271   4.725  27.301   5.025
22012W        W94272  31.113   0.396  11.701
22013W        W94273  20.146  44.765   4.213
22014W        W94274  41.783  39.924  14.887
22015W        W94275   4.843  25.213  10.101
22016W        W94276  37.139  37.083  13.527
22017W        W94277   3.400   0.366  11.265
22018W        W94278  13.841   2.555  12.445
22019W        W94279   7.930  41.091   3.576
22020W        W94280  25.213  15.130  14.261
22021W        W94281  27.941  34.384   2.694
22022W        W94282  15.547   4.431   0.855
22023W        W94283   6.594   8.866   3.226
22024W        W94284  30.387  32.534   3.347
22025W        W94285  17.240  11.703  12.372
22026W        W94286  21.148  29.567  12.654
22027W        W94287   6.153  35.432  12.593
22028W        W94288   0.922  44.458  14.493
22029W        W94289  43.728   3.886  14.321
22030W        W94290  12.645   7.414  12.498
22031W        W94291  35.038  37.559  12.879
22032W        W94292   4.525  21.346  13.881
22033W        W94293  16.929  31.244   0.119
22034W        W94294  27.022  24.334   0.901
22035W        W94295  43.758  31.052   0.766
22036W        W94296   7.933   8.891  12.594
22037W        W94297  14.845   1.427  11.146
22038W        W94298  11.405  30.925  13.967
22039W        W94299   7.422  42.485   2.560
22040W        W94300  11.620  24.174   0.907
22041W        W94301  23.953  32.592  11.929
22042W        W94302  42.047  22.204   4.612
22043W        W94303  16.330   0.270  12.042
22044W        W94304  18.896  21.400   4.873
22045W        W94305   8.178  20.213   4.463
22046W        W94306   2.788  41.937   3.721
22047W        W94307  13.308  33.169   3.240
22048W        W94308  41.917  32.688  11.527
22049W        W94309   2.979  44.867   1.872
22050W        W94310  26.677  38.854  11.680
22051W        W94311  15.529  22.832  13.811
22052W        W94312   8.899  30.663  12.432
22053W        W94313  42.236  30.325  14.359
22054W        W94314  23.336  20.125   4.610
22055W        W94315   5.678  44.857  14.910
22056W        W94316   3.422   5.714   1.486
22057W        W94317  41.499  20.276  13.479
22058W        W94318  36.625  41.556  12.489
22059W        W94319   0.214  28.081  13.419
22060W        W94320  12.156  15.863   3.694
22061W        W94321  31.281  38.033   3.826
22062W        W94322  38.541   1.022  12.420
22063W        W94323  41.452  32.484  12.616
22064W        W94324  11.573  17.793   1.154
22065W        W94325  32.130  37.590   1.896
22066W        W94326  19.671  39.303   3.863
22067W        W94327  13.627  32.670   4.033
22068W        W94328  40.879  29.198   2.804
22069W        W94329  26.510   3.935   3.152
22070W        W94330  39.439   3.307  14.859
22071W        W94331   9.622  43.787   4.138
22072W        W94332  15.769  27.574  13.948
22073W        W94333  24.776   7.551  11.528
22074W        W94334  12.717  43.353   3.207
22075W        W94335  34.366   9.756  12.094
22076W        W94336  21.788  34.578   1.884
22077W        W94337  24.709  24.708   0.312
22078W        W94338  28.676  12.248   1.257
22079W        W94339  19.601  26.724  13.413
22080W        W94340   2.460  42.075  13.818
22081W        W94341  43.121  39.332   4.247
22082W        W94342  38.559  12.621   0.752
22083W        W94343  30.924  37.957   4.809
22084W        W94344   0.738   0.224  13.906
22085W        W94345  31.647  15.832  11.089
22086W        W94346  12.322   1.786  13.434
22087W        W94347  11.395  33.560   4.233
22088W        W94348  37.810  22.534   2.774
22089W        W94349  42.347  42.848  13.830
22090W        W94350   3.258   3.817  13.028
22091W        W94351   9.122  14.261  14.113
22092W        W94352  18.123  24.112  12.487
22093W        W94353   5.945   7.201  14.501
22094W        W94354   5.755  17.869   3.844
22095W        W94355   6.044  15.755  11.339
22096W        W94356  13.750   3.701   3.688
22097W        W94357  16.875  20.313  10.672
22098W        W94358  23.684  33.875   0.209
22099W        W94359  37.587  26.019   3.646
22100W        W94360  44.473  38.480   4.066
22101W        W94361  27.511  29.781  14.504
22102W        W94362  22.232  39.049   2.412
22103W        W94363  18.204   3.161   0.804
22104W        W94364  20.264  34.839   1.507
22105W        W94365  26.406  18.581   0.579
22106W        W94366   8.164   3.173  14.805
22107W        W94367  34.602  38.610   0.386
22108W        W94368  34.683   8.883   4.545
22109W        W94369  16.042  36.872  12.291
22110W        W94370  34.124   2.223  12.501
22111W        W94371  17.763  14.303  13.590
22112W        W94372  22.676  17.492   4.176
22113W        W94373   8.800   6.549   1.549
22114W        W94374  29.881  37.739   9.854
22115W        W94375   7.788  14.215   4.047
22116W        W94376   3.708  41.423  10.970
22117W        W94377   8.702   6.460  12.882
22118W        W94378  18.501  13.476   2.913
22119W        W94379  39.037  16.020   0.590
22120W        W94380  38.595   1.847   2.728
22121W        W94381  19.656   3.632  12.654
22122W        W94382   2.464  40.721  13.558
22123W        W94383  21.452  27.717   2.686
22124W        W94384  15.367  43.849   0.125
22125W        W94385  26.206   8.836  11.464
22126W        W94386  33.915   2.375   1.004
22127W        W94387  37.033   1.402   4.545
22128W        W94388  35.103  29.370   3.825
22129W        W94389  41.109  44.383   2.833
22130W        W94390  37.803   5.810   0.029
22131W        W94391   0.280  10.208  11.370
22132W        W94392  12.713  30.721  14.811
22133W        W94393  20.078  40.984  10.689
22134W        W94394  16.988  24.947   0.349
22135W        W94395  26.265   5.796   3.219
22136W        W94396  41.740  29.368  12.864
22137W        W94397  19.244  14.889  11.585
22138W        W94398   6.286  37.836  14.013
22139W        W94399  10.290  41.943   2.264
22140W        W94400  18.581  22.544   3.231
22141W        W94401  17.415  32.933  13.441
22142W        W94402  43.215  19.018   4.051
22143W        W94403  41.337  35.271   3.472
22144W        W94404   9.377  15.217  11.177
22145W        W94405   9.109  29.543   1.421
22146W        W94406  31.155  40.032   4.427
22147W        W94407  17.721  32.957  11.871
22148W        W94408  13.454  22.571   2.344
22149W        W94409   7.788  43.626  13.976
22150W        W94410   6.462  35.378  11.682
22151W        W94411  42.355  13.212  13.918
22152W        W94412  41.372  18.115   2.594
22153W        W94413  42.975  36.912   3.086
22154W        W94414  33.346  23.441   2.788
22155W        W94415  31.191  37.360  13.625
22156W        W94416  30.006  23.044   0.487
22157W        W94417  30.445  35.733   3.619
22158W        W94418  16.610  42.372   2.654
22159W        W94419  31.542  22.787   2.830
22160W        W94420   4.366  11.726   4.141
22161W        W94421  16.577   9.359  13.854
22162W        W94422  10.094  20.636  13.083
22163W        W94423   7.894   3.818   4.597
22164W        W94424  27.125  20.088  13.217
22165W        W94425  22.730   2.414  13.373
22166W        W94426   7.162  19.269   4.521
22167W        W94427   6.837  31.019   0.957
22168W        W94428  29.906   0.818  11.949
22169W        W94429   5.823  11.110   3.174
22170W        W94430  15.878   1.516  12.390
22171W        W94431  30.429  38.825   3.102
22172W        W94432   7.598  30.864   0.350
22173W        W94433  32.386   0.649   1.203
22174W        W94434   5.186  34.333   0.378
22175W        W94435   4.943   2.323   3.693
22176W        W94436  12.333  42.860   3.167
22177W        W94437  20.633  23.933   0.310
22178W        W94438  15.781  24.686   1.246
22179W        W94439  15.111  33.513  10.965
22180W        W94440  31.644  41.998   4.102
22181W        W94441  14.121   1.736   1.780
22182W        W94442   7.874   3.478  11.705
22183W        W94443  12.998  43.731  11.223
22184W        W94444  18.566  30.965  11.395
22185W        W94445  10.405  36.037   0.794
22186W        W94446  41.907  34.614  11.563
22187W        W94447   8.382  22.522  14.385
22188W        W94448   8.231  25.466  10.540
22189W        W94449  34.401   7.942   2.014
22190W        W94450   5.810  31.178   1.333
22191W        W94451  11.208  22.817   0.912
22192W        W94452  42.578  37.611   3.382
22193W        W94453  44.436   9.293   3.097
22194W        W94454  42.061  24.952   1.745
22195W        W94455  23.692   9.743   4.635
22196W        W94456   7.068   9.355  11.555
22197W        W94457  21.281   2.213  12.897
22198W        W94458  33.793   8.757   5.014
22199W        W94459  15.815  16.365  12.343
22200W        W94460  29.881   6.380  10.737
22201W        W94461  40.852  26.656   2.118
22202W        W94462  15.851  44.837   0.816
22203W        W94463   9.918  28.576   4.136
22204W        W94464   9.260   3.448  11.223
22205W        W94465  15.599  44.875  14.331
22206W        W94466  31.372  27.393   1.728
22207W        W94467   5.917  38.329  12.493
22208W        W94468  38.879  11.101   1.387
22209W        W94469  21.799   3.423  13.446
22210W        W94470  18.611   9.348  14.967
22211W        W94471  28.845  24.650  12.628
22212W        W94472  24.675   4.142   0.551
22213W        W94473  28.734  16.780   0.817
22214W        W94474  41.765  34.081   1.736
22215W        W94475  40.919  10.090  11.468
22216W        W94476  20.615   9.404  11.904
22217W        W94477   2.374  27.738   2.713
22218W        W94478  37.757   9.188  10.220
22219W        W94479  40.925  29.082   2.301
22220W        W94480  16.628  35.351   2.286
22221W        W94481  35.796  14.874   2.318
22222W        W94482  30.860  17.850  12.911
22223W        W94483  35.633  25.203   1.091
22224W        W94484  25.989  34.580  11.218
22225W        W94485  18.563  30.747  12.898
22226W        W94486  19.712   7.710  11.080
22227W        W94487   7.233  27.877   0.407
22228W        W94488  33.157  13.732   3.669
22229W        W94489  38.332  41.320  13.402
22230W        W94490  43.984  36.122   0.254
22231W        W94491  43.022  19.809   4.035
22232W        W94492  18.629  25.489   3.229
22233W        W94493   4.376  33.466  13.021
22234W        W94494   7.538   2.916   2.201
22235W        W94495  37.899  17.663  13.966
22236W        W94496  37.580  40.653  13.414
22237W        W94497  23.189   0.892  10.735
22238W        W94498  26.456  37.041   2.282
22239W        W94499  44.519  31.106   1.432
22240W        W94500  25.504  31.489   2.643
22241W        W94501   9.969  27.041   2.447
22242W        W94502  30.374  36.427  11.989
22243W        W94503  35.927  43.398  13.116
22244W        W94504  25.083   4.221   3.185
22245W        W94505  10.446  18.139   4.127
22246W        W94506  15.317   3.604  13.470
22247W        W94507  22.746  12.815   2.236
22248W        W94508  31.275  39.282  14.801
22249W        W94509  34.881  40.853   3.258
22250W        W94510   2.028  28.438   3.224
22251W        W94511  25.037   1.442  14.685
22252W        W94512  10.068   1.354   0.865
22253W        W94513  34.730  15.059  14.361
22254W        W94514  41.817  17.285   0.971
22255W        W94515   3.996  18.751  10.846
22256W        W94516  21.592   9.228   2.696
22257W        W94517  44.352  41.799   1.404
22258W        W94518  37.576  42.312   2.196
22259W        W94519  20.267  32.557  12.236
22260W        W94520  19.954  20.348   1.816
22261W        W94521  12.543  28.580   1.816
22262W        W94522  44.330   2.106  12.839
22263W        W94523   6.171  44.236  11.292
22264W        W94524   2.005  43.781  13.867
22265W        W94525  30.626   8.682  10.696
22266W        W94526  14.027  10.471   5.131
22267W        W94527  42.039  19.683   0.399
22268W        W94528  27.479  11.593   0.146
22269W        W94529  35.579  21.037   1.183
22270W        W94530  42.560  12.426   3.669
22271W        W94531   3.151   7.718   2.324
22272W        W94532  21.742  12.159   3.574
22273W        W94533   5.762  10.638   3.382
22274W        W94534  22.915  40.595   2.231
22275W        W94535  15.825  11.919   4.066
22276W        W94536   6.477  25.778  10.214
22277W        W94537   2.370  28.123  12.564
22278W        W94538  12.101  30.403  12.592
22279W        W94539  13.995  23.639   1.201
22280W        W94540  41.132  39.272   4.190
22281W        W94541  31.804   0.989   1.835
22282W        W94542  36.613  43.925   1.156
22283W        W94543   5.813  41.465  12.933
22284W        W94544  10.491  29.561  14.785
22285W        W94545  19.902  31.669   3.665
22286W        W94546   1.069  20.248   3.724
22287W        W94547   2.337   0.697  11.153
22288W        W94548  30.734  24.636  12.702
22289W        W94549  23.650   1.796   1.550
22290W        W94550   3.216  33.838  12.456
22291W        W94551   4.838  43.866   3.829
22292W        W94552  16.801  14.895   4.087
22293W        W94553  30.839  25.901  13.078
22294W        W94554  13.754  34.678  13.136
22295W        W94555  20.460   3.349   4.579
22296W        W94556   6.794  36.510   3.245
22297W        W94557  18.738  27.662  13.505
22298W        W94558  14.594  17.836  11.194
22299W        W94559  27.360  35.112  12.148
22300W        W94560  15.056  43.661   1.288
22301W        W94561  28.053   0.066   2.737
22302W        W94562  37.551  17.333   3.949
22303W        W94563  28.253  11.062  12.572
22304W        W94564  35.965  43.271  12.607
22305W        W94565  40.029  10.376  13.373
22306W        W94566   3.251   5.468  14.913
22307W        W94567  39.757  28.509  13.315
22308W        W94568  32.260  38.513  12.986
22309W        W94569  31.557   8.178  13.993
22310W        W94570  38.616  30.953  12.555
22311W        W94571  35.701   2.450   1.897
22312W        W94572  28.872  36.565   2.711
22313W        W94573  28.406  33.636  13.432
22314W        W94574  11.906  38.457  10.265
22315W        W94575  34.955  30.356   0.500
22316W        W94576   0.837  24.993   1.181
22317W        W94577   4.732  21.734  13.257
22318W        W94578  11.752  19.672   3.811
22319W        W94579  17.788  22.831  10.524
22320W        W94580   4.842   0.885  11.926
22321W        W94581  34.028  38.304   4.408
22322W        W94582  20.149   2.216   4.744
22323W        W94583   2.562  19.766   2.369
22324W        W94584  31.021  24.973   9.935
22325W        W94585   6.817  31.143  13.815
22326W        W94586  13.726   3.494   4.540
22327W        W94587   0.979  35.597   2.327
22328W        W94588  14.131  13.376  12.786
22329W        W94589  44.297   7.413  14.894
22330W        W94590  33.729   8.680  10.672
22331W        W94591  20.845   4.254  11.180
22332W        W94592  36.575  44.027  14.363
22333W        W94593  23.377  23.154   4.765
22334W        W94594   5.946  25.119   3.720
22335W        W94595   1.713  42.458   4.273
22336W        W94596  33.492  14.392   3.159
22337W        W94597  22.276   0.603   4.940
22338W        W94598  31.138  25.095  14.824
22339W        W94599  34.879  33.934  12.613
22340W        W94600   8.607   2.816  13.307
22341W        W94601  12.063   6.914  14.039
22342W        W94602  32.513  16.559  13.116
22343W        W94603  24.098  15.565   0.455
22344W        W94604  11.324   2.272   1.219
22345W        W94605  13.068   3.584  13.063
22346W        W94606  15.667  18.002  13.389
22347W        W94607  28.018  10.262   2.783
22348W        W94608   8.306  15.850  12.085
22349W        W94609   0.457  40.258   3.732
22350W        W94610  17.118  42.554   4.513
22351W        W94611   7.849  30.627   2.360
22352W        W94612   5.304   9.748   9.978
22353W        W94613  32.034  43.655   4.287
22354W        W94614   1.128   2.912   2.243
22355W        W94615  12.038   0.272  13.960
22356W        W94616  24.114  18.557  13.555
22357W        W94617   9.821   7.753   0.329
22358W        W94618  10.702  27.951   2.622
22359W        W94619  39.407  36.355  11.720
22360W        W94620  15.502  30.550  12.335
22361W        W94621  29.517  20.632   3.588
22362W        W94622  10.815   3.481   1.174
22363W        W94623  22.162  11.905   0.032
22364W        W94624  36.611  36.605   2.433
22365W        W94625  27.235   1.574   3.806
22366W        W94626  21.650  39.451  11.384
22367W        W94627  32.335  42.053   4.570
22368W        W94628  22.476  38.611  12.210
22369W        W94629  20.264  29.077   1.157
22370W        W94630  32.969  25.033   4.547
22371W        W94631  38.268  37.350   4.065
22372W        W94632  26.452  19.274  11.909
22373W        W94633  26.508   7.958  13.558
22374W        W94634  26.682  16.905   0.038
22375W        W94635   3.016  40.214  11.532
22376W        W94636  38.061  31.354  12.497
22377W        W94637  40.818  13.669   4.177
22378W        W94638   7.782  15.050  13.527
22379W        W94639  35.982   8.203   3.132
22380W        W94640  40.087  15.742   0.795
22381W        W94641  31.682  22.510   4.358
22382W        W94642  38.434   2.137  13.841
22383W        W94643  27.624  21.576   3.675
22384W        W94644  22.624  34.012  14.424
22385W        W94645  41.325   1.747  12.933
22386W        W94646  17.292  13.576   4.281
22387W        W94647  18.859  27.061  13.031
22388W        W94648  11.817  19.272  13.865
22389W        W94649  29.456  22.202  14.715
22390W        W94650  40.990  39.606  13.905
22391W        W94651  15.352   0.407  13.790
22392W        W94652   4.336  21.740  11.325
22393W        W94653  34.452  13.791   4.581
22394W        W94654  25.667  35.382  10.643
22395W        W94655  42.847  33.654   0.275
22396W        W94656   1.973  11.147   4.391
22397W        W94657  30.914   4.888   2.301
22398W        W94658  30.605  24.065   2.929
22399W        W94659  34.021   4.411   1.784
22400W        W94660  15.087  14.123   0.559
22401W        W94661  10.423   0.905  11.589
22402W        W94662  30.894  34.854  11.137
22403W        W94663  15.758  36.754   3.261
22404W        W94664  35.379  21.124  13.472
22405W        W94665  29.179  16.232   3.976
22406W        W94666  35.127   4.998   2.789
22407W        W94667   4.349  24.215   3.729
22408W        W94668  16.817  11.707   0.860
22409W        W94669  31.524  12.135   3.662
22410W        W94670   0.201  38.763   0.815
22411W        W94671  30.336   9.719   1.269
22412W        W94672  29.493   9.665   3.665
22413W        W94673  20.286   6.724   3.604
22414W        W94674  35.524   2.452  13.953
22415W        W94675  15.924  22.502   2.659
22416W        W94676  42.972  27.496   1.688
22417W        W94677  15.724  42.393  14.751
22418W        W94678   3.786  29.609  12.285
22419W        W94679   7.865  40.896  13.464
22420W        W94680  14.596  39.805  11.150
22421W        W94681  28.061   9.189  14.900
22422W        W94682   9.106  44.345  12.581
22423W        W94683  20.510  31.578  14.145
22424W        W94684   5.157  32.990  12.874
22425W        W94685  41.486  25.993   4.834
22426W        W94686  21.613  14.147   5.211
22427W        W94687  30.211  11.408   2.964
22428W        W94688  31.120  33.890  10.786
22429W        W94689  15.078  40.511   3.677
22430W        W94690  22.693   0.430  14.742
22431W        W94691  10.678  20.066  12.927
22432W        W94692  28.375  31.690   4.909
22433W        W94693  36.017  30.996  14.852
22434W        W94694  30.597  34.775   3.322
22435W        W94695  33.014   7.556   1.640
22436W        W94696  33.461  15.132   4.330
22437W        W94697  24.885  30.905  11.203
22438W        W94698  20.117  21.556   2.645
22439W        W94699  42.481  41.330   1.420
22440W        W94700  44.615  25.300   3.165
22441W        W94701   4.800  37.951   0.766
22442W        W94702  24.704  16.029   1.995
22443W        W94703  19.778   4.442  12.144
22444W        W94704  39.404   8.915   3.268
22445W        W94705   0.415  26.080   0.688
22446W        W94706   6.197   4.986   3.793
22447W        W94707   7.201  17.625   2.830
22448W        W94708  37.061  25.452  14.341
22449W        W94709  21.788  13.321  12.654
22450W        W94710  29.927  16.948  11.126
22451W        W94711  26.843   1.670   1.910
22452W        W94712  19.979  25.815  13.826
22453W        W94713  18.834  28.529  14.821
22454W        W94714  41.229   8.185  13.849
22455W        W94715   5.460  42.936  13.998
22456W        W94716   7.782  36.865  13.281
22457W        W94717   8.660  24.171   4.323
22458W        W94718   9.825  39.575  10.353
22459W        W94719  24.503   0.878   1.367
22460W        W94720  24.968  17.171  11.193
22461W        W94721  41.354  40.944  12.544
22462W        W94722   3.634   1.712   1.932
22463W        W94723  31.421  30.393  11.451
22464W        W94724  13.812  23.080   3.136
22465W        W94725  21.983  42.323  14.866
22466W        W94726  42.567   8.501  11.952
22467W        W94727  24.945   8.293  14.497
22468W        W94728  39.260   9.386   1.760
22469W        W94729   5.797  21.923   2.941
22470W        W94730   3.030  22.591  14.430
22471W        W94731  35.518  26.794   2.724
22472W        W94732   4.242   9.383   0.396
22473W        W94733  32.789  20.390  11.237
22474W        W94734  39.662  34.103   2.849
22475W        W94735   3.294  36.720   1.741
22476W        W94736  41.611  19.562  11.753
22477W        W94737   5.636   2.407  12.531
22478W        W94738  16.789  16.679  11.968
22479W        W94739  37.535  18.002  14.128
22480W        W94740  12.140   3.638   2.706
22481W        W94741  41.406  13.206   0.073
22482W        W94742  11.146   1.476  13.862
22483W        W94743  21.125  13.269  12.806
22484W        W94744  20.181  28.919  13.807
22485W        W94745   7.318  37.677   4.232
22486W        W94746  37.380  34.060  10.748
22487W        W94747   8.487  42.975   2.479
22488W        W94748  44.834  17.185  10.927
22489W        W94749   0.798  34.574   1.887
22490W        W94750  44.490  24.006  12.741
22491W        W94751  38.961  35.406  11.085
22492W        W94752  35.669  30.364  12.083
22493W        W94753   4.535   0.363   3.018
22494W        W94754  11.091  26.055  12.890
22495W        W94755  25.539   5.574  11.097
22496W        W94756  22.533  43.525  12.810
22497W        W94757  42.981  22.707   1.786
22498W        W94758  19.553  25.529   3.614
22499W        W94759   6.119  39.917   0.514
22500W        W94760  15.926  39.916  14.722
22501W        W94761  44.275  32.991   0.817
22502W        W94762  39.422  16.521   3.785
22503W        W94763   2.979  37.479   2.115
22504W        W94764  24.027  34.744  12.890
22505W        W94765   9.629  40.117   3.614
22506W        W94766  44.044  15.849  11.137
22507W        W94767  33.717  18.588   2.207
22508W        W94768   2.506  33.244   1.598
22509W        W94769  22.893   0.027   2.647
22510W        W94770  30.436   4.185  12.484
22511W        W94771  18.232  33.344   1.439
22512W        W94772  36.831  35.996   3.453
22513W        W94773  11.669   6.186  12.419
22514W        W94774   6.668  21.966  10.929
22515W        W94775  43.528  22.514   0.957
22516W        W94776  44.532  29.956  11.034
22517W        W94777  37.846  10.305   1.789
22518W        W94778  37.863  36.857   1.389
22519W        W94779  10.288  35.906   2.747
22520W        W94780  35.064  18.158  11.243
22521W        W94781  24.795  11.806   4.144
22522W        W94782  16.041  18.096  11.478
22523W        W94783  44.877  40.478  10.464
22524W        W94784  23.903  27.528   0.837
22525W        W94785  37.077  43.077   0.835
22526W        W94786  28.025  25.713  13.964
22527W        W94787  43.064  39.425  10.748
22528W        W94788  10.593  29.175  12.104
22529W        W94789   3.844   1.156  14.491
22530W        W94790  26.571  10.291  10.687
22531W        W94791  34.799   9.195  13.307
22532W        W94792  29.656  12.448  13.057
22533W        W94793   5.569   7.354  13.388
22534W        W94794  40.699  16.307  12.442
22535W        W94795  13.192  10.488   2.282
22536W        W94796   5.660  23.718   0.407
22537W        W94797  33.118  13.673   2.142
22538W        W94798  10.732  27.220   0.820
22539W        W94799  17.103  39.132  13.448
22540W        W94800  23.273  21.465   4.179
22541W        W94801  12.391  19.012  14.911
22542W        W94802   8.705  10.888  14.914
22543W        W94803  12.432   2.794  11.032
22544W        W94804  31.991  23.063  14.299
22545W        W94805  37.465  27.622   2.944
22546W        W94806  44.105  39.630  13.110
22547W        W94807  40.243  19.357   3.707
22548W        W94808  42.815  31.404   4.536
22549W        W94809  13.801  37.434  11.945
22550W        W94810  12.120  28.908  11.395
22551W        W94811  35.859   3.346   0.845
22552W        W94812  42.847  33.893   4.074
22553W        W94813  18.508  20.497  12.019
22554W        W94814  21.719  44.375   1.739
22555W        W94815   0.794   4.592   1.838
22556W        W94816  10.675  15.539  14.414
22557W        W94817  16.266  16.650  11.685
22558W        W94818   4.826  34.002   3.701
22559W        W94819  18.136  19.278  13.868
22560W        W94820  31.195  36.171  11.079
22561W        W94821  44.991  12.188  12.421
22562W        W94822   5.788  25.736  12.215
22563W        W94823  27.725   4.577   4.162
22564W        W94824  22.286  34.477  14.468
22565W        W94825  43.690  30.509  12.826
22566W        W94826   2.387   5.782  12.902
22567W        W94827  12.804  25.364  10.991
22568W        W94828  30.315  15.074   1.831
22569W        W94829  38.066  25.435   4.270
22570W        W94830  26.526  42.916   3.521
22571W        W94831   3.830   7.772  14.280
22572W        W94832  11.610  14.149  10.713
22573W        W94833  13.678   1.363   3.202
22574W        W94834  38.031  22.246   3.623
22575W        W94835  43.584  11.117  11.618
22576W        W94836  33.083  14.652   4.192
22577W        W94837  34.481  10.674  10.718
22578W        W94838  22.075  14.280  12.843
22579W        W94839   9.215  43.935   3.850
22580W        W94840  36.954  22.258  10.560
22581W        W94841  10.897  16.645  11.593
22582W        W94842  42.721   8.243   4.761
22583W        W94843  30.977   7.962   1.851
22584W        W94844  17.106   7.303   3.675
22585W        W94845  12.000   1.958  13.826
22586W        W94846  38.586  34.042  12.723
22587W        W94847  29.482  32.145   4.250
22588W        W94848  28.734   3.386   4.149
22589W        W94849  12.656  41.537   2.129
22590W        W94850   9.172  33.350  14.296
22591W        W94851  22.895  14.692  14.686
22592W        W94852  14.296  20.322   3.302
22593W        W94853  26.493  32.260   4.936
22594W        W94854   0.867  30.525  10.698
22595W        W94855  36.377  31.620  13.466
22596W        W94856  27.558  13.741   4.351
22597W        W94857  29.936  41.400  10.727
22598W        W94858  23.737  19.150  10.728
22599W        W94859  23.732  33.003   1.933
22600W        W94860  17.686  32.147  10.448
22601W        W94861  42.473   6.363  12.895
22602W        W94862   8.619  38.644   0.999
22603W        W94863  27.709  38.001  13.478
22604W        W94864  26.429  20.718  14.018
22605W        W94865  23.609  12.720   2.227
22606W        W94866  11.510  20.559  14.351
22607W        W94867  15.129   5.938  13.248
22608W        W94868   7.901  30.565  14.797
22609W        W94869  22.471  42.352   0.950
22610W        W94870   6.368  14.346   4.020
22611W        W94871  35.614  25.207   3.726
22612W        W94872  17.665   3.286  10.578
22613W        W94873  41.888  23.964   4.110
22614W        W94874  20.824  20.144  10.608
22615W        W94875  40.726   8.274   4.566
22616W        W94876  26.914  38.318   3.709
22617W        W94877   3.805  20.700  10.594
22618W        W94878   2.005  34.846  14.537
22619W        W94879  15.475  21.663   1.411
22620W        W94880  38.928  32.025   0.836
22621W        W94881  14.306  27.131   1.288
22622W        W94882  39.818  25.421   1.842
22623W        W94883  39.523  26.484  10.520
22624W        W94884  31.483   1.461   4.233
22625W        W94885  44.147  22.063  13.944
22626W        W94886  34.037  20.146  11.924
22627W        W94887  31.396  13.215   0.850
22628W        W94888  34.480   6.954  12.801
22629W        W94889   5.213  39.605   2.706
22630W        W94890  14.583  37.803  12.147
22631W        W94891   3.345  37.047   0.351
22632W        W94892  31.077  15.022   0.860
22633W        W94893   4.437  21.164  13.370
22634W        W94894  29.496  44.275   1.901
22635W        W94895  24.681  11.948  13.170
22636W        W94896  26.106  30.453   1.737
22637W        W94897  40.980   3.318   3.705
22638W        W94898  40.916   9.498   4.029
22639W        W94899  34.132  31.927  11.925
22640W        W94900  13.193  44.071   4.515
22641W        W94901  39.138  12.908  14.991
22642W        W94902  33.687  24.580  10.749
22643W        W94903   3.335  19.153  14.368
22644W        W94904  40.994  32.436   0.531
22645W        W94905   1.688  44.265  11.977
22646W        W94906  39.342  44.855   1.336
22647W        W94907  18.138  42.346   1.709
22648W        W94908   7.672   7.774   1.896
22649W        W94909  40.461  29.010  13.286
22650W        W94910  23.022   1.147  13.487
22651W        W94911   5.270  34.855   2.361
22652W        W94912  25.133  16.635  12.944
22653W        W94913  22.510  34.903   2.694
22654W        W94914  22.545  29.449  14.713
22655W        W94915   9.394  31.424   0.630
22656W        W94916  23.289  28.160   3.293
22657W        W94917  25.419  31.656  14.782
22658W        W94918   9.113   2.825   3.592
22659W        W94919   5.822  24.152  13.785
22660W        W94920  18.746  18.570  12.302
22661W        W94921  12.112  12.311  11.095
22662W        W94922  17.186  33.726  11.536
22663W        W94923  25.788  13.243   3.245
22664W        W94924  32.640  19.789   3.419
22665W        W94925  15.038  26.454  13.929
22666W        W94926   8.174  34.410   3.306
22667W        W94927  12.271  25.137  11.548
22668W        W94928  14.518   1.979  12.621
22669W        W94929  15.822  32.867  12.113
22670W        W94930   6.104  36.992   4.093
22671W        W94931  35.095  20.787  11.052
22672W        W94932  42.060   7.226  13.844
22673W        W94933  14.097  36.447   1.352
22674W        W94934  40.894  10.804   4.399
22675W        W94935  35.731   4.748  12.788
22676W        W94936  28.723  41.497   2.215
22677W        W94937  23.966   1.430   1.329
22678W        W94938  23.949  32.092  11.079
22679W        W94939  22.090  28.700  12.726
22680W        W94940  15.556  43.798   1.352
22681W        W94941   4.239  31.873  14.986
22682W        W94942  23.205  30.388  14.338
22683W        W94943   6.908  31.683  13.704
22684W        W94944   5.703  39.115   0.040
22685W        W94945   5.991  31.184  10.237
22686W        W94946   8.592  25.527   1.404
22687W        W94947   0.914   0.340  11.634
22688W        W94948   4.195   4.753   1.329
22689W        W94949  28.836  33.043   3.735
22690W        W94950  11.657  12.074   3.710
22691W        W94951  21.033  20.571  12.316
22692W        W94952  27.411   0.436  14.999
22693W        W94953  22.102  38.213   4.079
22694W        W94954  35.507  29.608  13.838
22695W        W94955  21.713  38.557  13.048
22696W        W94956  21.099   3.010  10.706
22697W        W94957  28.219  13.208   2.761
22698W        W94958  26.349  25.188   2.271
22699W        W94959  24.290  29.809  13.616
22700W        W94960  28.759  18.696   1.788
22701W        W94961  20.665  22.741   3.170
22702W        W94962  12.980  32.055  13.738
22703W        W94963  34.508  25.946   1.443
22704W        W94964   6.246  23.809   3.955
22705W        W94965  33.837  43.012   0.384
22706W        W94966  13.741  34.158  13.107
22707W        W94967  23.585  37.996   4.210
22708W        W94968   9.320  31.590   1.141
22709W        W94969  28.448  20.035   1.302
22710W        W94970  35.068  28.413   1.300
22711W        W94971  40.975  20.086   0.939
22712W        W94972  44.849   4.191   4.627
22713W        W94973  44.984  13.344  13.434
22714W        W94974   8.846  29.415   2.436
22715W        W94975   8.872  33.607   1.770
22716W        W94976  11.711  10.353  13.550
22717W        W94977  18.122  20.661  11.072
22718W        W94978  16.197  12.264   3.820
22719W        W94979  13.709  16.011   2.342
22720W        W94980   8.845  39.082   4.908
22721W        W94981  34.516  32.517  11.583
22722W        W94982  15.162   8.103   1.251
22723W        W94983  18.686  39.180   0.754
22724W        W94984  26.230  10.532   0.834
22725W        W94985  31.035  19.963   1.657
22726W        W94986  39.293   9.889  12.777
22727W        W94987  42.060  17.014   4.021
22728W        W94988   0.475  22.206  11.423
22729W        W94989  28.919   9.377  13.813
22730W        W94990  43.000  41.925  14.930
22731W        W94991   0.549  30.679  12.504
22732W        W94992  21.652   4.302   4.481
22733W        W94993  28.071  34.949  11.082
22734W        W94994  17.116  20.539  13.221
22735W        W94995  25.959  27.634   3.938
22736W        W94996  19.926   2.532   0.729
22737W        W94997  25.246   9.263   1.840
22738W        W94998  33.513  40.492  11.590
22739W        W94999   7.294   8.211   0.947
22740W        W95000  11.416  43.335  11.170
22741W        W95001  23.432   8.634  11.959
22742W        W95002  24.738   5.647   1.463
22743W        W95003  25.417  35.918   0.801
22744W        W95004  40.970   5.517   3.292
22745W        W95005  22.228  41.989  11.992
22746W        W95006  20.535  38.424  14.967
22747W        W95007  34.296  10.217   4.670
22748W        W95008  22.622   9.755   1.189
22749W        W95009  35.456   6.217   1.162
22750W        W95010  28.361  15.954  13.486
22751W        W95011  37.139  34.793   3.651
22752W        W95012  36.934  20.491  13.092
22753W        W95013   0.902  25.600  14.407
22754W        W95014  17.331  11.834   4.533
22755W        W95015  17.611  18.713   2.929
22756W        W95016   5.804  43.252   0.186
22757W        W95017   9.272   3.855  10.912
22758W        W95018  25.444  26.160  12.272
22759W        W95019  26.467  11.594   1.440
22760W        W95020   2.989  23.702   2.747
22761W        W95021   8.474   1.120  13.878
22762W        W95022  15.635  31.392  11.135
22763W        W95023  34.623  41.822  14.764
22764W        W95024  40.309  40.481   0.394
22765W        W95025   6.257  18.984   1.295
22766W        W95026  40.022  26.618  10.615
22767W        W95027  22.150   9.958   1.260
22768W        W95028  32.487  25.483  14.954
22769W        W95029  43.325  41.384   4.089
22770W        W95030  22.730  41.292   0.395
22771W        W95031  20.727  27.048   2.690
22772W        W95032   2.449  33.906   4.198
22773W        W95033   1.286  35.512   3.189
22774W        W95034   6.912  29.647  14.964
22775W        W95035  43.421  23.422   3.623
22776W        W95036  23.231  36.215  13.372
22777W        W95037  32.130  37.552   3.612
22778W        W95038  18.199  42.535   2.206
22779W        W95039   3.886  14.780  10.516
22780W        W95040   4.805  29.977  10.671
22781W        W95041  35.538  13.640   4.371
22782W        W95042  31.691  23.262   0.886
22783W        W95043  12.824  27.856   2.153
22784W        W95044  34.875  27.054   4.229
22785W        W95045  36.591  24.584  14.480
22786W        W95046  28.029  24.582   4.505
22787W        W95047   5.157  36.925  10.562
22788W        W95048  40.985  31.091   1.889
22789W        W95049  35.430   8.767   0.616
22790W        W95050  37.535   8.369   0.734
22791W        W95051   6.729  30.673  12.016
22792W        W95052  18.608  25.252   1.813
22793W        W95053   4.355  31.497   1.720
22794W        W95054  36.555   1.270  13.642
22795W        W95055  35.381  22.269   3.804
22796W        W95056  31.421  32.451   9.788
22797W        W95057  39.830  20.677  11.648
22798W        W95058  37.927  41.033  14.318
22799W        W95059  20.464  17.552  13.220
22800W        W95060   7.591  26.333   0.093
22801W        W95061  10.089   2.810   2.046
22802W        W95062  29.053  19.753   2.718
22803W        W95063   2.383  28.338   4.681
22804W        W95064   9.590  27.102   0.459
22805W        W95065  39.105  29.189   0.983
22806W        W95066  32.537   2.292   3.342
22807W        W95067  25.289   6.849   0.497
22808W        W95068  18.563   7.891   0.921
22809W        W95069  37.632  44.399   3.600
22810W        W95070  25.980   0.583  12.955
22811W        W95071  26.675  25.873   3.427
22812W        W95072  20.521   9.796   4.596
22813W        W95073  20.638  29.965  13.536
22814W        W95074  32.957   5.380  11.584
22815W        W95075  38.797  25.026  13.426
22816W        W95076  25.544  27.101   0.518
22817W        W95077  17.693  17.293   4.453
22818W        W95078  41.861  12.876  12.010
22819W        W95079  33.781  21.573   5.706
22820W        W95080   5.017  28.129   2.281
22821W        W95081  10.329  38.080   4.687
22822W        W95082  44.603  11.282   0.464
22823W        W95083  35.279  34.638   3.649
22824W        W95084   3.810  33.631   4.866
22825W        W95085  25.623  22.380  12.566
22826W        W95086  39.420  18.108   1.787
22827W        W95087  22.364  28.548  10.533
22828W        W95088  17.282   9.905  13.543
22829W        W95089  13.993  26.300   1.006
22830W        W95090  42.215  30.567   0.331
22831W        W95091  18.785  19.509   0.914
22832W        W95092  11.429  29.457   0.032
22833W        W95093  16.559  35.616   2.728
22834W        W95094  17.783   6.368   2.225
22835W        W95095  19.265  22.166  14.426
22836W        W95096  37.904  32.803   0.995
22837W        W95097  17.345  34.546  12.285
22838W        W95098  43.774  44.398   2.263
22839W        W95099  19.986  42.008  14.220
22840W        W95100  43.955   8.001  10.706
22841W        W95101  19.752  26.073  13.379
22842W        W95102  30.835  23.190   1.376
22843W        W95103  24.087  27.479   9.807
22844W        W95104  44.962  29.485  11.870
22845W        W95105  18.969  12.687  11.101
22846W        W95106  28.907   8.458  12.394
22847W        W95107   1.578  40.464   3.342
22848W        W95108  34.897  23.751  14.811
22849W        W95109  22.019  19.822   2.750
22850W        W95110  30.480  43.073   5.259
22851W        W95111  37.948  40.442   2.864
22852W        W95112  12.565  41.411   1.426
22853W        W95113  43.881   2.509   2.640
22854W        W95114  10.605  21.699  14.024
22855W        W95115  19.448  14.698  12.449
22856W        W95116  11.700   3.256  11.866
22857W        W95117   9.191  18.958   1.483
22858W        W95118   3.809  40.383  12.304
22859W        W95119  38.430  20.306  11.740
22860W        W95120   3.029  42.868   4.178
22861W        W95121  13.031  33.373  13.435
22862W        W95122  23.743  21.677   4.368
22863W        W95123   1.456  23.154  12.080
22864W        W95124  18.835   2.574  12.358
22865W        W95125  23.141  18.311   3.876
22866W        W95126   7.882   6.467   2.928
22867W        W95127  41.920  38.555  14.216
22868W        W95128  11.891  36.024  12.452
22869W        W95129  32.020  22.824  14.764
22870W        W95130  10.341  20.926  11.520
22871W        W95131  25.879  23.663  10.486
22872W        W95132  33.562  37.907   4.458
22873W        W95133  25.129  42.287  10.225
22874W        W95134   5.729  30.578   2.797
22875W        W95135  23.239  38.600   0.883
22876W        W95136  21.974  25.563   2.269
22877W        W95137  27.811  14.782  10.504
22878W        W95138  18.559  11.319  12.514
22879W        W95139   9.357  23.630   4.489
22880W        W95140   4.236   2.580  12.023
22881W        W95141  11.184  28.004  13.537
22882W        W95142  21.736  17.683   2.257
22883W        W95143  11.157   9.185   4.112
22884W        W95144   5.762  22.707  13.832
22885W        W95145  32.023  24.747  10.691
22886W        W95146  41.360   9.637   3.766
22887W        W95147  10.582  23.158   2.419
22888W        W95148   0.462  12.660   0.974
22889W        W95149  35.419  32.311  10.420
22890W        W95150  21.992  35.553   2.723
22891W        W95151  10.848   0.470  13.465
22892W        W95152   6.847  25.984   5.038
22893W        W95153  42.806  19.295  11.247
22894W        W95154  27.604  11.133  14.350
22895W        W95155  44.163  19.841   3.342
22896W        W95156  41.559  19.137  14.866
22897W        W95157   1.406  38.944  12.480
22898W        W95158  31.959  18.194   3.347
22899W        W95159  22.744  21.125  14.473
22900W        W95160  29.555   6.604   4.361
22901W        W95161  28.943  41.950  13.099
22902W        W95162  31.997  18.147   2.376
22903W        W95163  41.786  17.251   2.608
22904W        W95164  23.219  42.542   2.242
22905W        W95165  21.075  10.781   4.596
22906W        W95166   3.720  10.125  12.004
22907W        W95167  32.143  27.013   1.992
22908W        W95168  17.597  29.580   1.266
22909W        W95169  14.718  24.060   1.849
22910W        W95170  28.384  12.232   2.733
22911W        W95171   0.433  20.053  13.329
22912W        W95172  15.077   1.397   2.489
22913W        W95173  36.637  24.473  10.633
22914W        W95174  21.510  21.290  14.487
22915W        W95175  34.114  19.890  11.471
22916W        W95176  32.847   5.209   2.811
22917W        W95177  33.055  14.460   1.964
22918W        W95178  18.491  21.096  14.851
22919W        W95179  12.104  29.037  14.482
22920W        W95180  24.628   7.641   0.438
22921W        W95181  27.552  31.545  10.614
22922W        W95182   5.826  22.733   3.248
22923W        W95183   2.413  10.736  11.200
22924W        W95184  33.616  19.420  14.060
22925W        W95185   6.825  28.178   5.028
22926W        W95186  40.388  13.992  13.458
22927W        W95187  13.715  35.571  14.324
22928W        W95188  16.773  25.325   3.649
22929W        W95189  35.402  15.645   1.237
22930W        W95190  23.379  44.942   2.764
22931W        W95191  25.528  27.915   3.862
22932W        W95192  11.863  11.875   4.146
22933W        W95193  12.416  32.097  13.795
22934W        W95194   2.327  35.487   2.664
22935W        W95195  27.957  34.490  14.995
22936W        W95196  39.761  28.411  11.446
22937W        W95197  31.595  12.090  10.615
22938W        W95198  34.346  24.660  12.430
22939W        W95199  26.079  43.215   2.211
22940W        W95200   1.997  21.987   3.105
22941W        W95201   6.395  43.848  12.070
22942W        W95202  34.256  32.999   4.659
22943W        W95203  40.947   6.312  14.016
22944W        W95204   0.774  43.547  13.103
22945W        W95205  12.155  20.669  11.122
22946W        W95206   3.376  19.120   1.419
22947W        W95207   3.049  43.912   2.767
22948W        W95208   7.365   3.130   2.660
22949W        W95209   8.698  39.027   1.834
22950W        W95210  34.093  35.066  11.062
22951W        W95211  37.596  28.007   2.628
22952W        W95212  36.969  14.132  12.429
22953W        W95213  38.428  12.733   4.597
22954W        W95214  27.388  43.767   4.203
22955W        W95215  26.451   7.873   0.823
22956W        W95216  13.105  10.750   4.557
22957W        W95217  15.546   9.082  13.152
22958W        W95218   6.970  14.808  12.565
22959W        W95219  11.386  16.184   3.225
22960W        W95220  39.355  35.331  11.405
22961W        W95221   0.848  28.875  10.356
22962W        W95222  17.533  28.115  13.872
22963W        W95223  14.483  10.271  11.644
22964W        W95224   2.809   4.747  14.661
22965W        W95225  33.368  27.183   4.310
22966W        W95226   2.257  37.842  13.942
22967W        W95227  36.639  39.990  11.555
22968W        W95228  18.100  36.435  13.421
22969W        W95229  19.134   5.991   0.738
22970W        W95230  16.107  21.671  12.572
22971W        W95231  33.576  28.788  12.583
22972W        W95232  16.656  10.388   3.092
22973W        W95233  24.805  13.369   2.208
22974W        W95234  30.239  43.976   4.540
22975W        W95235  15.833  12.783   3.086
22976W        W95236  10.432   3.270   3.804
22977W        W95237   9.201   2.054  11.587
22978W        W95238  44.760  32.545  12.879
22979W        W95239   9.153  29.228  14.744
22980W        W95240  35.526  29.075  13.791
22981W        W95241  18.071  43.310  13.359
22982W        W95242  34.997  14.448  10.902
22983W        W95243  29.001   8.166   3.838
22984W        W95244  12.588  25.566   1.392
22985W        W95245  33.167   2.101  13.303
22986W        W95246   3.842   7.426  10.331
22987W        W95247  27.242   1.878   2.236
22988W        W95248   3.334   1.502   0.768
22989W        W95249  33.788  44.492  14.547
22990W        W95250  27.501  30.460   3.298
22991W        W95251  38.994  14.771  10.723
22992W        W95252   5.421  19.018   2.373
22993W        W95253  14.364  34.418  13.801
22994W        W95254  14.261  29.914   4.591
22995W        W95255  41.270   3.340  12.483
22996W        W95256  15.625   2.283  13.351
22997W        W95257  13.611  41.326  14.733
22998W        W95258   6.457  31.098  11.944
22999W        W95259  22.390   3.827   3.665
23000W        W95260  22.135  16.541   3.641
23001W        W95261  31.032  21.604   1.004
23002W        W95262  42.811  44.601  11.153
23003W        W95263  17.775  44.988   2.807
23004W        W95264  29.190  25.363   2.395
23005W        W95265  35.407  21.827  10.309
23006W        W95266  14.234  14.277  14.490
23007W        W95267  18.366  14.093   4.160
23008W        W95268  17.788  39.785   1.656
23009W        W95269  13.846  35.113   1.478
23010W        W95270  31.685  29.193  12.015
23011W        W95271  18.120  25.893  12.796
23012W        W95272  34.897  42.520  13.060
23013W        W95273  31.213   9.907  10.595
23014W        W95274  15.872  12.327  14.762
23015W        W95275   2.319  42.341  14.267
23016W        W95276  31.519  17.016   0.333
23017W        W95277   8.437   0.653   3.783
23018W        W95278  14.780  42.303  13.006
23019W        W95279  21.582  36.777  14.726
23020W        W95280  39.284  39.925  12.683
23021W        W95281   7.875   2.277  13.522
23022W        W95282  17.265  36.001  13.526
23023W        W95283  20.066  39.885  14.385
23024W        W95284  13.245   1.027  13.063
23025W        W95285  22.698   1.040  10.708
23026W        W95286   1.309  38.968  13.010
23027W        W95287  38.599  30.975  10.915
23028W        W95288  20.188   3.437   3.419
23029W        W95289   9.459  22.788  10.981
23030W        W95290  38.438  44.951   1.217
23031W        W95291   0.299  20.777  11.926
23032W        W95292  41.930   7.091   3.258
23033W        W95293  26.506   0.022  14.732
23034W        W95294  44.418  36.146  11.455
23035W        W95295  39.176  11.166   3.242
23036W        W95296   5.978  24.228  12.251
23037W        W95297  29.237  23.002   3.093
23038W        W95298  28.349  30.018   1.791
23039W        W95299  27.148  44.643  11.178
23040W        W95300   4.818   2.759  12.159
23041W        W95301  16.246  26.106   4.265
23042W        W95302  15.676  12.638   0.835
23043W        W95303  27.680  22.947   0.308
23044W        W95304  19.565  19.787  12.495
23045W        W95305  18.131   1.499   2.766
23046W        W95306  36.176  32.082  10.937
23047W        W95307  16.824  36.941  14.924
23048W        W95308  27.748  16.309  14.467
23049W        W95309  43.907  31.533   3.297
23050W        W95310  43.167   2.799   1.313
23051W        W95311  26.383  23.817   0.410
23052W        W95312  34.197  17.714   3.660
23053W        W95313  44.203   4.910  11.087
23054W        W95314  10.226  16.828  14.527
23055W        W95315  43.701   8.319  13.605
23056W        W95316  44.246   0.395  13.723
23057W        W95317   2.396  25.317   0.695
23058W        W95318  43.414  10.236   4.783
23059W        W95319  36.471   7.345   4.340
23060W        W95320   3.681  35.388  13.749
23061W        W95321  31.938  19.623   2.206
23062W        W95322  36.017   1.198  14.060
23063W        W95323  13.581  31.081  11.858
23064W        W95324   5.452  29.134  10.951
23065W        W95325  37.347  11.973  14.937
23066W        W95326  15.820  41.198  11.664
23067W        W95327  34.443  26.283   0.541
23068W        W95328   4.899  10.188  14.512
23069W        W95329   5.401   5.951  14.327
23070W        W95330  10.774  29.942   4.776
23071W        W95331  38.478   3.199  12.410
23072W        W95332  32.412   3.239   2.217
23073W        W95333  30.697   0.421  12.018
23074W        W95334  40.604   3.799  13.780
23075W        W95335  12.836  21.405   4.617
23076W        W95336  19.619   2.188   4.058
23077W        W95337  43.895  22.090   4.642
23078W        W95338  27.041  44.542   2.687
23079W        W95339  36.614   8.927  14.421
23080W        W95340  28.181  35.396   1.292
23081W        W95341  10.714  35.128  11.653
23082W        W95342  21.572   3.232   2.352
23083W        W95343   9.414  40.943   0.172
23084W        W95344  36.884  31.149   4.076
23085W        W95345  19.206  32.169  10.665
23086W        W95346  31.796  33.405  12.352
23087W        W95347   7.200  11.436  11.518
23088W        W95348  35.145   1.689  14.271
23089W        W95349  30.071  19.658  13.222
23090W        W95350  35.840   4.792   5.103
23091W        W95351  17.876  28.009  12.472
23092W        W95352  32.995  21.190  13.996
23093W        W95353  17.659   1.521  13.493
23094W        W95354  31.444  33.642  12.031
23095W        W95355   4.240  16.275  12.490
23096W        W95356  40.040  35.640  11.106
23097W        W95357  29.051   1.928   0.550
23098W        W95358  14.144  44.213   2.213
23099W        W95359  16.203  18.587  14.749
23100W        W95360  22.079  16.075  14.811
23101W        W95361  43.938  34.910   4.584
23102W        W95362  35.567  19.032   3.682
23103W        W95363  29.223  32.983   3.324
23104W        W95364   6.540  40.782   2.672
23105W        W95365   4.979  14.948   2.653
23106W        W95366  38.035  42.492  11.613
23107W        W95367  41.487   0.052   4.660
23108W        W95368  27.004  34.495   3.667
23109W        W95369  27.154  12.727   4.848
23110W        W95370  34.545   7.851  12.373
23111W        W95371  21.353  32.826  10.327
23112W        W95372  42.537  20.300   0.855
23113W        W95373  13.881  31.728  11.202
23114W        W95374  36.819  18.584  14.396
23115W        W95375  23.888  21.224  13.283
23116W        W95376  28.111  20.550   3.875
23117W        W95377  20.905  32.753   0.391
23118W        W95378   3.374  21.769  13.441
23119W        W95379  33.584  23.490  12.034
23120W        W95380  34.493  33.938  12.289
23121W        W95381  30.844  44.551  11.365
23122W        W95382  43.803  21.078  13.325
23123W        W95383  20.382  26.189   0.590
23124W        W95384  14.272   3.913   1.379
23125W        W95385   8.036  14.939  13.070
23126W        W95386  10.626  15.573   3.410
23127W        W95387  17.234   8.248  14.492
23128W        W95388   5.836  39.848  10.729
23129W        W95389  38.880  32.313  12.417
23130W        W95390   0.856  35.813  14.025
23131W        W95391   0.686   0.843  14.313
23132W        W95392  27.045  39.100  14.948
23133W        W95393  28.172  34.709  13.575
23134W        W95394  42.036  12.706   3.748
23135W        W95395  32.085  17.683   2.612
23136W        W95396  16.727   9.881  12.921
23137W        W95397  22.846  33.466   1.321
23138W        W95398   5.308  16.020   3.217
23139W        W95399  28.194  21.508  12.405
23140W        W95400   6.694   3.561   0.985
23141W        W95401  21.615   2.698  11.176
23142W        W95402  29.649  29.201  11.970
23143W        W95403  30.626  43.861   1.694
23144W        W95404   6.993  44.371  10.218
23145W        W95405  33.979   6.776   1.205
23146W        W95406   0.789  42.910  14.346
23147W        W95407   3.332  28.410   1.076
23148W        W95408  44.925  41.345  14.226
23149W        W95409   3.815  12.151   1.165
23150W        W95410  31.943  22.455  12.487
23151W        W95411   8.913  33.158   2.034
23152W        W95412  16.104  17.289   2.871
23153W        W95413   6.380   1.848  10.154
23154W        W95414   3.303  22.650   2.422
23155W        W95415   9.928  18.114   0.807
23156W        W95416   6.976  42.409   3.803
23157W        W95417  24.429   6.861   1.417
23158W        W95418  13.718   0.021  12.359
23159W        W95419  18.854   3.033  13.318
23160W        W95420   6.727  32.451  12.483
23161W        W95421  33.919  29.869  11.961
23162W        W95422  27.648  12.737  10.956
23163W        W95423  34.101  38.594   1.285
23164W        W95424  40.053  28.163  13.632
23165W        W95425   8.909  43.848   4.682
23166W        W95426   2.454  31.015  13.528
23167W        W95427  44.993  26.094   1.069
23168W        W95428  14.395  15.683   0.811
23169W        W95429  35.962  22.600   5.035
23170W        W95430  40.213   6.657  14.069
23171W        W95431  25.100  22.585  13.436
23172W        W95432   1.502   3.133  11.574
23173W        W95433   2.292   1.517   0.251
23174W        W95434  31.981   6.921   4.068
23175W        W95435  23.423   2.355   0.457
23176W        W95436  11.892  30.865  14.076
23177W        W95437  11.918  28.582  11.031
23178W        W95438  13.361  18.662  12.966
23179W        W95439  25.285  36.095   4.690
23180W        W95440  22.176  14.833   1.811
23181W        W95441  13.183  15.154  13.887
23182W        W95442  15.849  13.964  14.460
23183W        W95443  34.001   3.333   0.906
23184W        W95444  39.872   7.577  10.786
23185W        W95445  28.030   3.504  12.384
23186W        W95446   3.730  13.563   2.066
23187W        W95447  24.588  14.283   2.846
23188W        W95448  39.830  19.374   2.661
23189W        W95449  42.934   7.160  14.056
23190W        W95450  10.883  20.302  10.529
23191W        W95451  44.902   7.173  11.602
23192W        W95452   3.683  22.705   4.250
23193W        W95453  31.647  20.629   2.773
23194W        W95454  18.034  29.901   2.836
23195W        W95455  11.044  42.717   5.429
23196W        W95456  10.690   3.642   2.245
23197W        W95457  31.059  13.242   3.276
23198W        W95458   7.923  11.250  12.436
23199W        W95459   0.878  28.147   4.022
23200W        W95460  42.750  42.054   0.358
23201W        W95461   1.506   0.267   4.619
23202W        W95462  42.552  10.206  12.697
23203W        W95463  24.306   7.597  12.819
23204W        W95464  35.894   3.945   4.221
23205W        W95465  19.241  44.760  11.180
23206W        W95466   3.748  12.270  14.264
23207W        W95467  42.798  19.625   3.609
23208W        W95468  42.827   4.889  13.444
23209W        W95469  41.393  17.314  14.262
23210W        W95470  40.980  23.409  14.411
23211W        W95471   3.281   4.829  10.396
23212W        W95472  36.291  37.437  10.556
23213W        W95473   0.963   2.407   2.332
23214W        W95474  44.750  37.381   0.631
23215W        W95475   3.131  29.180   4.205
23216W        W95476  30.342  35.910   1.626
23217W        W95477  32.353  15.836   2.238
23218W        W95478  31.262   6.242   0.934
23219W        W95479  27.519  11.255  12.502
23220W        W95480  43.452  33.784   3.285
23221W        W95481  27.061   4.495  14.981
23222W        W95482  41.928  35.495   3.284
23223W        W95483  20.531  44.510  11.601
23224W        W95484  15.748  14.854   1.340
23225W        W95485  27.989  18.315   1.848
23226W        W95486  19.727  24.305  13.948
23227W        W95487   3.025  21.682   0.933
23228W        W95488  34.717  20.783  12.864
23229W        W95489  15.105  28.160   9.813
23230W        W95490  14.480  24.914  13.750
23231W        W95491  14.772  18.206   4.649
23232W        W95492  29.446  20.446  12.882
23233W        W95493  13.512  33.666   3.191
23234W        W95494   4.957  25.718   0.975
23235W        W95495   4.771  36.898  12.132
23236W        W95496  32.949  15.184   1.382
23237W        W95497   3.440  22.133   1.766
23238W        W95498  11.978  41.867  11.112
23239W        W95499  16.394  15.377  13.936
23240W        W95500  42.282   9.833   3.483
23241W        W95501   0.908  32.360  10.647
23242W        W95502  29.532   3.784   4.245
23243W        W95503  35.668  35.810   4.691
23244W        W95504  17.549  15.878  12.551
23245W        W95505   4.488  31.123  11.339
23246W        W95506  37.737  15.368   0.104
23247W        W95507  18.733  34.512  10.478
23248W        W95508  20.943  22.594   0.349
23249W        W95509  36.556  37.534   2.357
23250W        W95510   6.118  22.984  14.359
23251W        W95511  15.220   7.268   4.696
23252W        W95512   4.691   8.394   0.317
23253W        W95513  23.991  30.329  10.563
23254W        W95514  35.573  32.470   3.467
23255W        W95515  24.069  34.990  14.070
23256W        W95516  38.364   1.694   4.945
23257W        W95517   9.219  18.738   5.231
23258W        W95518  32.133  10.975   0.304
23259W        W95519  17.123  14.711  13.188
23260W        W95520  13.842  14.997  14.554
23261W        W95521   1.019  42.330  12.909
23262W        W95522  40.493   8.906   3.286
23263W        W95523  26.446   5.116   3.655
23264W        W95524  12.297  42.015  14.243
23265W        W95525  18.233  12.945   1.485
23266W        W95526  24.996   1.273   4.100
23267W        W95527  34.423  38.991   4.642
23268W        W95528  36.975   0.668  14.877
23269W        W95529  14.115  10.717   3.722
23270W        W95530  32.929   4.694   1.296
23271W        W95531  36.635  39.830   2.872
23272W        W95532   8.154  44.954   2.151
23273W        W95533  25.274  29.532  10.670
23274W        W95534   6.496  17.683   0.765
23275W        W95535   7.451   4.940   2.484
23276W        W95536  30.102  21.057   1.046
23277W        W95537  17.603   1.726  14.958
23278W        W95538  39.716  30.237   3.544
23279W        W95539   8.352  20.838  12.128
23280W        W95540  33.200  18.346   2.290
23281W        W95541  15.158  27.094   0.928
23282W        W95542   4.914  15.501   4.054
23283W        W95543  37.800   9.733  10.044
23284W        W95544  12.432  41.549  11.141
23285W        W95545  24.017  10.616   3.797
23286W        W95546  14.685   6.102   2.008
23287W        W95547  39.746  20.580  12.681
23288W        W95548  24.399  41.098   4.632
23289W        W95549  29.559   7.055   3.593
23290W        W95550   3.005  13.195  13.832
23291W        W95551  26.784  26.091  10.619
23292W        W95552   8.989   2.990  12.399
23293W        W95553  31.308  30.197   3.774
23294W        W95554  21.655  34.132  12.926
23295W        W95555   0.770  10.862  14.117
23296W        W95556   1.056  28.530   4.793
23297W        W95557  35.874  28.692  13.855
23298W        W95558  17.610   1.262  10.587
23299W        W95559  25.818  22.716  12.909
23300W        W95560  33.972  22.370  14.323
23301W        W95561  12.105   3.521  12.069
23302W        W95562   9.721  22.449   0.788
23303W        W95563  40.059  14.258   2.581
23304W        W95564   5.264  28.353   2.702
23305W        W95565  21.837  42.430   4.162
23306W        W95566  37.385  37.387  10.674
23307W        W95567  21.714   0.954   3.900
23308W        W95568  25.176  31.446   0.861
23309W        W95569  29.751  40.320   4.223
23310W        W95570  28.462  35.580  12.823
23311W        W95571  39.928  31.170  12.533
23312W        W95572  28.118  44.530   3.618
23313W        W95573  10.920  13.169  11.635
23314W        W95574  43.727  35.255  12.522
23315W        W95575   4.040  44.870   4.821
23316W        W95576  38.398  32.464   1.308
23317W        W95577  27.484  19.579  14.779
23318W        W95578   9.870  21.561   2.184
23319W        W95579  19.071  33.571   3.618
23320W        W95580  42.058  31.307  12.619
23321W        W95581  25.338  18.000   2.430
23322W        W95582  28.488  13.344  10.685
23323W        W95583  44.944  36.035   0.417
23324W        W95584  21.925  32.257  10.055
23325W        W95585   6.770  38.329   4.437
23326W        W95586  23.622  18.863  11.725
23327W        W95587  39.324  27.371  10.660
23328W        W95588   7.723  16.146  11.053
23329W        W95589   2.816  37.782   0.843
23330W        W95590  37.473  12.717   3.176
23331W        W95591   0.897  40.935  11.392
23332W        W95592  36.233  30.788   3.616
23333W        W95593  10.339   9.207   3.933
23334W        W95594   2.329  22.166   3.455
23335W        W95595  23.755  20.526  10.924
23336W        W95596  35.138  17.113  14.001
23337W        W95597  14.161  19.467   4.084
23338W        W95598   8.783   4.757  12.783
23339W        W95599  29.689  31.184  14.126
23340W        W95600  23.909  34.932   4.918
23341W        W95601  10.206  26.621   1.706
23342W        W95602  25.106  32.650   4.330
23343W        W95603  12.531  26.370  11.137
23344W        W95604  35.428   6.586  14.782
23345W        W95605  17.936  23.152   0.795
23346W        W95606   1.293   1.995  12.595
23347W        W95607  22.590  21.285   5.244
23348W        W95608  28.947   1.901  13.803
23349W        W95609   2.096   8.764   2.650
23350W        W95610  23.198   0.251  14.789
23351W        W95611  28.600  14.304  10.450
23352W        W95612  39.464  31.741  12.104
23353W        W95613  29.641  36.872  14.356
23354W        W95614  10.684  18.751  11.521
23355W        W95615  26.775   0.567  11.463
23356W        W95616  17.148  44.479  14.930
23357W        W95617   8.646   2.400  14.992
23358W        W95618   2.001  20.151  13.618
23359W        W95619  43.214  32.358  12.471
23360W        W95620  17.289  25.070  14.046
23361W        W95621  13.209   5.134   0.702
23362W        W95622  10.457   4.881   2.839
23363W        W95623   6.269  27.855  11.887
23364W        W95624  20.990  19.083   3.647
23365W        W95625  10.213  19.164   3.282
23366W        W95626  33.900   5.413   1.744
23367W        W95627  32.392  30.289   2.338
23368W        W95628  12.242  28.665   4.510
23369W        W95629  21.052  31.488  11.896
23370W        W95630   8.835   7.698  12.309
23371W        W95631   9.737  32.136  11.409
23372W        W95632  23.761  16.212   4.614
23373W        W95633   7.413  13.603   3.890
23374W        W95634  30.365  41.354  13.403
23375W        W95635  36.854  21.209   2.340
23376W        W95636  31.629  20.978   2.272
23377W        W95637   9.509  43.539  12.074
23378W        W95638  13.119  29.758   5.074
23379W        W95639   3.392  25.777  14.260
23380W        W95640  34.961  37.808   4.838
23381W        W95641   5.975  28.507  13.070
23382W        W95642  41.928   5.119   4.529
23383W        W95643  30.517   9.935   4.103
23384W        W95644  27.968  18.506  10.105
23385W        W95645   6.050  18.390  11.376
23386W        W95646   8.214   7.280   1.739
23387W        W95647   8.820  39.102   2.773
23388W        W95648  16.129   4.978  10.919
23389W        W95649   9.576  35.960   0.374
23390W        W95650  43.862  13.863   2.852
23391W        W95651  17.652  28.350   3.417
23392W        W95652  30.339   2.792  12.913
23393W        W95653  34.499  37.908  10.759
23394W        W95654  17.178  31.345  13.305
23395W        W95655  43.889  36.416   1.818
23396W        W95656  41.953  43.790   4.536
23397W        W95657  35.988  29.642  14.042
23398W        W95658   7.388  14.220  14.747
23399W        W95659  38.518  17.183   4.933
23400W        W95660  38.434  43.624  11.106
23401W        W95661  25.556  12.000  11.025
23402W        W95662  34.043  12.517   4.815
23403W        W95663   6.663  31.688   2.279
23404W        W95664  10.287  19.825  12.384
23405W        W95665  23.715  18.623   3.448
23406W        W95666  21.515  26.472   3.230
23407W        W95667   1.645  11.728   5.033
23408W        W95668  40.972   5.379  13.398
23409W        W95669  42.002  21.021  14.912
23410W        W95670  43.687  38.887   3.687
23411W        W95671  35.202  15.287   5.049
23412W        W95672   3.794  17.401  12.858
23413W        W95673  25.978  20.721   0.247
23414W        W95674   6.647   7.946  11.894
23415W        W95675  26.088  19.649   1.490
23416W        W95676   6.187  24.129   1.757
23417W        W95677  32.201   4.243  14.613
23418W        W95678   6.473  22.236  14.823
23419W        W95679  34.420   3.731  11.160
23420W        W95680  20.012  21.432  12.590
23421W        W95681  19.985   7.291  13.496
23422W        W95682  33.813   8.883   3.125
23423W        W95683  23.311  30.101   2.446
23424W        W95684  11.536  34.488   4.125
23425W        W95685  33.551  17.373  12.960
23426W        W95686  42.934   3.236   1.212
23427W        W95687  15.348  26.192   0.759
23428W        W95688  44.831   8.355  13.101
23429W        W95689  37.143   1.745   4.150
23430W        W95690  35.881   7.690   0.500
23431W        W95691  23.450  24.106   3.781
23432W        W95692  20.521  35.341   1.020
23433W        W95693  24.225   4.438  13.317
23434W        W95694  28.311  25.254   0.691
23435W        W95695  18.015  21.766   3.181
23436W        W95696   2.394   3.863   3.293
23437W        W95697  28.301  31.950  11.147
23438W        W95698   9.221  39.310  11.045
23439W        W95699  27.108   5.937  11.092
23440W        W95700  36.445  26.953  13.726
23441W        W95701  16.777  41.953   3.834
23442W        W95702  17.136  13.634   1.387
23443W        W95703  33.613  19.053   1.992
23444W        W95704  24.191  20.909   3.319
23445W        W95705  20.997  16.571   4.648
23446W        W95706  13.529   3.941  12.165
23447W        W95707  25.854  19.801   0.203
23448W        W95708  23.622  28.349   2.948
23449W        W95709  19.545   3.248  11.585
23450W        W95710  27.479   6.033   1.857
23451W        W95711  29.589  33.496  13.114
23452W        W95712  34.000  34.856  10.617
23453W        W95713  32.362  13.246  13.140
23454W        W95714  25.673  18.967  11.016
23455W        W95715  37.200  18.851  10.254
23456W        W95716  15.415  39.249   0.987
23457W        W95717   0.654  33.448   3.376
23458W        W95718   9.571  38.157   0.040
23459W        W95719  36.046  32.560   3.727
23460W        W95720  41.937  39.792   3.244
23461W        W95721  16.525  42.464  11.538
23462W        W95722   5.902  25.082   0.281
23463W        W95723   6.632   3.162   4.375
23464W        W95724   7.785  12.601   3.250
23465W        W95725  40.369  26.915   4.098
23466W        W95726  28.904  12.737  13.655
23467W        W95727  30.684   4.008   0.647
23468W        W95728  20.308   5.759   0.487
23469W        W95729  16.312  43.110  11.248
23470W        W95730  33.295  44.606   2.240
23471W        W95731   7.420  38.359   0.511
23472W        W95732   9.799  25.590  13.833
23473W        W95733   6.302  36.050  10.631
23474W        W95734  18.636  26.679   0.193
23475W        W95735  14.216  40.734   2.205
23476W        W95736  29.002  37.992   2.188
23477W        W95737  30.791  31.499  14.408
23478W        W95738  12.269  21.553  12.188
23479W        W95739  44.612  10.366   4.111
23480W        W95740  24.558  44.849  12.768
23481W        W95741  22.683  42.274  13.786
23482W        W95742  10.872  18.257   0.953
23483W        W95743  40.720   6.164  14.502
23484W        W95744  18.932   5.388  11.983
23485W        W95745   7.682  26.726  12.094
23486W        W95746   3.837  26.570  10.472
23487W        W95747   9.625   8.976  10.677
23488W        W95748  12.984  44.949  13.952
23489W        W95749  35.626  29.561   3.711
23490W        W95750  39.849  29.385   0.849
23491W        W95751  42.568  38.481   4.456
23492W        W95752   8.142  16.596   1.192
23493W        W95753  23.511  25.917  14.193
23494W        W95754  30.472  30.435  10.497
23495W        W95755  36.406   3.439   0.475
23496W        W95756  23.694   4.738  14.892
23497W        W95757  36.475  19.001  14.479
23498W        W95758   0.213  21.272  13.679
23499W        W95759  33.467  12.320   3.258
23500W        W95760  18.273  38.918   3.682
23501W        W95761   0.936   1.670  11.129
23502W        W95762  39.431  33.582  14.012
23503W        W95763   0.468  18.939  13.861
23504W        W95764  21.751   8.326   2.739
23505W        W95765  22.826   5.782  10.092
23506W        W95766  44.257  37.566   1.709
23507W        W95767  33.091  32.345   1.981
23508W        W95768  34.481  19.530   4.050
23509W        W95769  41.071  39.840   1.207
23510W        W95770  44.298   3.751  13.390
23511W        W95771  14.282  12.635   2.649
23512W        W95772  21.074  26.120   0.909
23513W        W95773  39.421  27.633  13.359
23514W        W95774  38.055   1.078  12.148
23515W        W95775  17.157  18.857   2.735
23516W        W95776   6.078  12.441  13.863
23517W        W95777  44.929  31.972   0.408
23518W        W95778   0.956   8.827  10.747
23519W        W95779  23.033   1.734  11.097
23520W        W95780  25.272  16.571   1.319
23521W        W95781  18.059  22.604  11.757
23522W        W95782  23.724   9.315  10.898
23523W        W95783  20.219  11.768   1.206
23524W        W95784   9.389  41.435   4.196
23525W        W95785  44.105   6.327   5.222
23526W        W95786  13.340  44.207   9.940
23527W        W95787  38.866  30.472  12.077
23528W        W95788  26.510  27.417   3.268
23529W        W95789  37.188   7.938   4.863
23530W        W95790  31.177  18.215   1.877
23531W        W95791  30.236  44.309  14.453
23532W        W95792  30.525  31.647   1.745
23533W        W95793   8.513  15.659  14.972
23534W        W95794   5.625   1.258  13.959
23535W        W95795  33.005  17.576  10.997
23536W        W95796  12.950   3.421  13.553
23537W        W95797  27.619  31.404  13.385
23538W        W95798   6.654  35.557  12.596
23539W        W95799  15.003  38.508   3.320
23540W        W95800   7.770   5.122   0.008
23541W        W95801  36.485  29.759   1.167
23542W        W95802   1.210  40.005  10.751
23543W        W95803   8.444  20.103  14.293
23544W        W95804   0.835  40.892  14.584
23545W        W95805   5.736  31.141   2.737
23546W        W95806  20.795  15.233  13.429
23547W        W95807  31.482  33.582  13.219
23548W        W95808   9.347  27.979   0.433
23549W        W95809  28.211  14.537   0.399
23550W        W95810  31.518  21.086  10.840
23551W        W95811  19.123  25.240   3.668
23552W        W95812   5.522   1.785   3.158
23553W        W95813  29.000  20.013  12.585
23554W        W95814  34.225  38.049  14.459
23555W        W95815   6.425  26.228  12.822
23556W        W95816  10.530   1.182   4.505
23557W        W95817  44.326  29.654  14.465
23558W        W95818  10.301  38.893  14.920
23559W        W95819   3.891  36.651  14.824
23560W        W95820  15.285  28.085   0.997
23561W        W95821  35.928  14.401   0.582
23562W        W95822  24.800  44.527  10.271
23563W        W95823  15.785  12.848  14.805
23564W        W95824  10.726  34.511   1.682
23565W        W95825  34.368  34.597   2.702
23566W        W95826  18.660  34.544   2.181
23567W        W95827  37.118  35.532  12.824
23568W        W95828   7.024  31.160  12.877
23569W        W95829   9.522   5.647   3.266
23570W        W95830  39.098  36.913   1.653
23571W        W95831  13.493  41.769   4.146
23572W        W95832  16.129  15.439   4.480
23573W        W95833  23.151  40.722   2.664
23574W        W95834  36.538  13.163  10.406
23575W        W95835   8.569  24.621   0.364
23576W        W95836  27.353   8.705  10.518
23577W        W95837  37.997  25.193  11.228
23578W        W95838  16.328  31.515   1.645
23579W        W95839   3.747  28.166  12.686
23580W        W95840  30.975  13.188  14.959
23581W        W95841  30.196  24.720  12.857
23582W        W95842  26.175   8.591   1.274
23583W        W95843  33.925  18.735  14.038
23584W        W95844  38.001   6.391   3.250
23585W        W95845  17.143  43.291   3.425
23586W        W95846  26.501  12.689  12.938
23587W        W95847   5.792  41.006   3.508
23588W        W95848  21.732   9.488  14.903
23589W        W95849  41.933  32.905   1.116
23590W        W95850  13.045  14.421   2.715
23591W        W95851   1.378  42.839   0.930
23592W        W95852  37.784  35.879   1.853
23593W        W95853  40.740  10.919  11.201
23594W        W95854  37.385   0.857  12.899
23595W        W95855  29.496  21.520   1.467
23596W        W95856  23.600  18.802   1.489
23597W        W95857  43.892  35.829  10.839
23598W        W95858  24.594  24.993   3.598
23599W        W95859  21.415   1.309   3.221
23600W        W95860  11.564   0.733   1.835
23601W        W95861  34.105   3.904  12.454
23602W        W95862   5.984  26.999   4.847
23603W        W95863   0.043  19.214  14.669
23604W        W95864   1.447  19.432   2.776
23605W        W95865  18.172  33.482  12.757
23606W        W95866  17.173  35.546  14.924
23607W        W95867  36.883  22.413   4.105
23608W        W95868  28.213  27.000  13.212
23609W        W95869  39.433  13.739  11.233
23610W        W95870   6.910  23.191   2.194
23611W        W95871  36.060  37.849   2.800
23612W        W95872  42.820  35.914   3.298
23613W        W95873  34.361  40.356   0.788
23614W        W95874  26.940  17.099   4.585
23615W        W95875  12.803   3.925  12.663
23616W        W95876   1.949  33.895  11.171
23617W        W95877   6.880  27.108  13.796
23618W        W95878  40.266   8.731  11.989
23619W        W95879   7.212  25.563   0.477
23620W        W95880   7.806  10.794   1.907
23621W        W95881   3.958  10.084  11.532
23622W        W95882   0.140  13.665  12.002
23623W        W95883  23.987  43.496  14.793
23624W        W95884  22.659  14.829   4.572
23625W        W95885  33.887  10.279   2.429
23626W        W95886  41.739  26.166  11.893
23627W        W95887  13.365  16.270  13.193
23628W        W95888  16.187  27.083   4.670
23629W        W95889  10.669  23.980  12.847
23630W        W95890  43.707  35.375   3.297
23631W        W95891  21.596  40.017  12.007
23632W        W95892  42.794   0.380   0.506
23633W        W95893   3.881  28.167  11.251
23634W        W95894  16.830  32.252   3.259
23635W        W95895   0.408  33.051  11.900
23636W        W95896  20.816  26.893  13.272
23637W        W95897   0.052  35.780   0.872
23638W        W95898  25.515  16.817   0.939
23639W        W95899  27.206  19.614  12.960
23640W        W95900  16.013   6.272  11.980
23641W        W95901  38.230  19.521  12.377
23642W        W95902  38.839   9.862  13.054
23643W        W95903  37.573  24.510  11.629
23644W        W95904  29.116  13.750  13.406
23645W        W95905  22.963  10.436  13.036
23646W        W95906   9.642  19.667   2.864
23647W        W95907  17.319  33.736  12.955
23648W        W95908  30.475  30.139  13.298
23649W        W95909  42.847  30.650   3.302
23650W        W95910   2.698   3.410  10.209
23651W        W95911  36.041  37.049   4.149
23652W        W95912  23.448  36.421  11.054
23653W        W95913   9.711  42.748  11.422
23654W        W95914  20.768   9.579   2.281
23655W        W95915  35.137  17.972   5.143
23656W        W95916  36.047  16.707   3.636
23657W        W95917  26.630   1.944  14.262
23658W        W95918  25.309  36.127   3.836
23659W        W95919  43.018  25.042   4.660
23660W        W95920  16.336   0.863  10.110
23661W        W95921  26.468  44.816   0.771
23662W        W95922  41.858   3.323  11.102
23663W        W95923   7.060  14.135   0.176
23664W        W95924   0.519  15.743   0.906
23665W        W95925  31.731  22.445   4.887
23666W        W95926   2.435   9.620  12.586
23667W        W95927  25.182   5.910  14.436
23668W        W95928  20.734  16.777  11.817
23669W        W95929  43.898  24.950   0.402
23670W        W95930  36.046  14.559   5.117
23671W        W95931  15.139  23.016   0.075
23672W        W95932   1.819  21.667   0.053
23673W        W95933  23.998  18.086   1.447
23674W        W95934  15.015  39.931   4.557
23675W        W95935  39.967  37.807   2.152
23676W        W95936  27.377  23.446  14.065
23677W        W95937  41.765  22.939   4.140
23678W        W95938   0.527  25.359   3.400
23679W        W95939  21.183  33.225   4.611
23680W        W95940  30.336  20.558   2.164
23681W        W95941  31.740  41.251   3.177
23682W        W95942  32.878  25.203   2.691
23683W        W95943  27.417   0.293   4.690
23684W        W95944  37.550  39.021   0.037
23685W        W95945  10.188  30.895  13.057
23686W        W95946   4.338  43.800  12.862
23687W        W95947  39.881  30.189   0.458
23688W        W95948  35.000  19.096  14.841
23689W        W95949  26.535  39.081  14.718
23690W        W95950  17.622  17.727  12.691
23691W        W95951   5.400   9.904   4.177
23692W        W95952  13.262  38.984   3.237
23693W        W95953  26.141  30.079  13.905
23694W        W95954  39.774  23.646   2.318
23695W        W95955  21.108  36.525  13.102
23696W        W95956  42.777  40.043  14.716
23697W        W95957   7.331  36.731  12.072
23698W        W95958  10.132  38.903  13.960
23699W        W95959   4.688  18.684   3.240
23700W        W95960   0.309  40.786  14.830
23701W        W95961  25.764   3.170   4.663
23702W        W95962  20.469  19.752   1.301
23703W        W95963  34.543  29.020  10.543
23704W        W95964  36.065   5.480  11.452
23705W        W95965  23.095  13.845  10.410
23706W        W95966  16.318  20.226   0.870
23707W        W95967  28.538   8.556  13.279
23708W        W95968   1.872  31.040   4.102
23709W        W95969  33.002   5.691   2.874
23710W        W95970  22.188  37.006  14.311
23711W        W95971  39.273  28.505   0.386
23712W        W95972  35.288  40.528  11.062
23713W        W95973   7.683  28.526  10.188
23714W        W95974  21.912   5.897  10.451
23715W        W95975  44.724  41.931  10.965
23716W        W95976   8.654  42.778  14.105
23717W        W95977  38.394  20.783  11.934
23718W        W95978   4.830  35.038  12.334
23719W        W95979  17.109  39.907  12.042
23720W        W95980  11.365  38.403  14.819
23721W        W95981   5.923  33.533   4.573
23722W        W95982   7.110  16.736   1.363
23723W        W95983  24.506   3.840  14.460
23724W        W95984  25.060  44.150   4.237
23725W        W95985  13.914  27.242  11.650
23726W        W95986  10.893   9.245  14.429
23727W        W95987  11.709  37.758  13.061
23728W        W95988  29.090   2.714  13.337
23729W        W95989  32.951   6.121  14.550
23730W        W95990   9.868  15.729   2.276
23731W        W95991   6.475   4.199  13.053
23732W        W95992  11.299  39.803  12.884
23733W        W95993  26.217   9.356   1.694
23734W        W95994  10.978  31.322  10.771
23735W        W95995  42.488  14.335  14.085
23736W        W95996  18.476   0.406  12.908
23737W        W95997  21.647  27.000   1.401
23738W        W95998   1.955  28.369   4.408
23739W        W95999  28.903   3.849  12.922
23740W        W96000  36.766  29.048   2.267
23741W        W96001  25.672  31.008  14.011
23742W        W96002  36.945   7.775   1.736
23743W        W96003  21.533  25.718   0.313
23744W        W96004  21.488  21.900   4.694
23745W        W96005  42.751  40.948   1.780
23746W        W96006  19.270  13.105  12.007
23747W        W96007  19.913  34.426  14.199
23748W        W96008  38.909  12.499   4.585
23749W        W96009  35.595  42.040  13.431
23750W        W96010   5.787  27.065   3.891
23751W        W96011  38.974   7.139  14.841
23752W        W96012   7.130  39.977   0.295
23753W        W96013  31.884  15.508   0.434
23754W        W96014  38.350  14.540  14.481
23755W        W96015  36.040  33.803   2.691
23756W        W96016  36.630  34.857   3.640
23757W        W96017  40.947  21.015  11.336
23758W        W96018  30.627  11.942  13.963
23759W        W96019  33.738  27.555  10.738
23760W        W96020  26.096  18.032  11.444
23761W        W96021  24.769   1.027  11.477
23762W        W96022  37.670  38.380  10.166
23763W        W96023  27.036  21.000   1.415
23764W        W96024  40.376   8.614  13.814
23765W        W96025  28.557  28.149  11.154
23766W        W96026  23.214  27.173  12.832
23767W        W96027   8.708   9.916  10.846
23768W        W96028  37.936  44.956   2.560
23769W        W96029  25.022  10.420   0.438
23770W        W96030   5.271  34.605  13.936
23771W        W96031  32.171  19.705   3.598
23772W        W96032  28.467   0.417   3.562
23773W        W96033  26.340  36.790  14.559
23774W        W96034  24.931   9.410   2.861
23775W        W96035  10.019   2.643   0.262
23776W        W96036  23.546  14.065  13.936
23777W        W96037  35.970  40.420  10.701
23778W        W96038  34.612  37.055   4.164
23779W        W96039   6.348  21.593   2.866
23780W        W96040  34.531  10.663   0.508
23781W        W96041  21.636   7.484   5.198
23782W        W96042  30.949   6.771  13.881
23783W        W96043  36.783  14.869   0.779
23784W        W96044   2.786  41.932  13.419
23785W        W96045  43.829  38.770   2.817
23786W        W96046  39.279   1.207  11.788
23787W        W96047  11.203  41.742  13.655
23788W        W96048  21.245  22.612  13.792
23789W        W96049  12.275  37.561  11.050
23790W        W96050  18.274  22.677  12.655
23791W        W96051   8.780  14.168  13.062
23792W        W96052   5.734  18.171  14.841
23793W        W96053  39.149  12.975  12.150
23794W        W96054  31.673  33.911   1.879
23795W        W96055  13.789  43.290  11.911
23796W        W96056  39.186  29.700  12.935
23797W        W96057  12.256  23.057  11.680
23798W        W96058  10.339   9.635   0.019
23799W        W96059  44.527   2.229   3.801
23800W        W96060  12.824  36.852   4.116
23801W        W96061  13.044  31.856   2.860
23802W        W96062  19.677  23.929  11.631
23803W        W96063  32.998  17.333   4.640
23804W        W96064  22.756  26.224   5.535
23805W        W96065  26.632   7.634   0.375
23806W        W96066  18.830   0.765   1.452
23807W        W96067  16.091  31.507  12.503
23808W        W96068  38.778   6.628  12.922
23809W        W96069  33.009  39.384   0.050
23810W        W96070  33.790   5.773   4.135
23811W        W96071   8.762  10.542   0.323
23812W        W96072  42.157  13.373   0.642
23813W        W96073  34.517  37.603   4.253
23814W        W96074  26.120  26.093   4.119
23815W        W96075  21.184  19.550  12.822
23816W        W96076   0.254  38.390  14.505
23817W        W96077  17.783  30.583  13.440
23818W        W96078  33.016  31.923  14.281
23819W        W96079  16.027  28.581   1.340
23820W        W96080  16.787   7.298   1.337
23821W        W96081  21.225   4.571   2.187
23822W        W96082   7.632  31.555   2.402
23823W        W96083  31.080   4.008   2.616
23824W        W96084  22.188   9.357  12.532
23825W        W96085  40.361  30.081  10.899
23826W        W96086  36.428  30.703   4.779
23827W        W96087  39.243   2.763  13.863
23828W        W96088  38.799   0.607   4.977
23829W        W96089  13.359  33.466  13.843
23830W        W96090   9.325  36.515  11.117
23831W        W96091  23.819  27.579   1.665
23832W        W96092  24.085  35.969  13.720
23833W        W96093   1.437  41.753   2.844
23834W        W96094   2.467  17.026   2.211
23835W        W96095  39.189  31.312   0.360
23836W        W96096  32.505   1.713  11.222
23837W        W96097  13.662   6.894  14.087
23838W        W96098  31.437   2.853  13.631
23839W        W96099   0.308  41.039   0.364
23840W        W96100  11.442   6.665  10.259
23841W        W96101  44.843  17.324  12.102
23842W        W96102   8.151  32.854  10.699
23843W        W96103  31.756  31.002   0.210
23844W        W96104   3.598  11.245  14.325
23845W        W96105  40.797  39.874  14.813
23846W        W96106  17.664  21.198  11.579
23847W        W96107  10.899   3.128  11.995
23848W        W96108  33.132  11.441  11.043
23849W        W96109  23.627  40.545   2.696
23850W        W96110  18.483  14.601   4.080
23851W        W96111  23.492  29.517  14.011
23852W        W96112   6.886  41.535   2.244
23853W        W96113   5.172  14.259   1.989
23854W        W96114  33.612  20.184   1.323
23855W        W96115   8.427  30.400  12.301
23856W        W96116  14.711  44.105  11.551
23857W        W96117  20.557   5.732  14.536
23858W        W96118  27.993  26.662   1.251
23859W        W96119  31.030  28.119  10.274
23860W        W96120  41.840  24.254  13.345
23861W        W96121   5.744  30.827   2.340
23862W        W96122  41.756  30.900  12.635
23863W        W96123   9.426  40.983  14.232
23864W        W96124  13.456  36.797  11.608
23865W        W96125  21.801  19.101   3.131
23866W        W96126  15.086  28.403  12.503
23867W        W96127   1.869  21.079   0.912
23868W        W96128  27.494  44.009   2.425
23869W        W96129  17.707   8.769   3.895
23870W        W96130  28.196  30.509  11.115
23871W        W96131  25.031  40.598  13.980
23872W        W96132  11.570   1.824   1.852
23873W        W96133  11.153   1.257  11.195
23874W        W96134  20.050  44.482   0.484
23875W        W96135  27.617  14.912   2.918
23876W        W96136   3.874  19.247  12.516
23877W        W96137   1.862   2.712   3.720
23878W        W96138  16.158  26.566  10.194
23879W        W96139  43.402   9.092   2.762
23880W        W96140   0.347   6.750  10.364
23881W        W96141  39.535   2.335  13.712
23882W        W96142  29.004  32.404  11.731
23883W        W96143  30.139  27.124  13.791
23884W        W96144  35.980   3.733  12.182
23885W        W96145  37.444   6.861   0.866
23886W        W96146  25.023  13.732  12.049
23887W        W96147  19.507  12.660  11.001
23888W        W96148  29.703  23.122  13.523
23889W        W96149   2.401  27.474   4.055
23890W        W96150  39.964  20.104  13.761
23891W        W96151   2.241  43.851   2.331
23892W        W96152  22.234   9.222   2.397
23893W        W96153  20.697   9.840  10.404
23894W        W96154  33.181  44.783   1.770
23895W        W96155  17.132   6.088  11.169
23896W        W96156  20.528  14.137   1.640
23897W        W96157  39.021  37.297   0.519
23898W        W96158  12.664  16.886   2.214
23899W        W96159  16.768   7.964   3.604
23900W        W96160  25.181  21.747   0.712
23901W        W96161  28.106   5.156  11.428
23902W        W96162  11.431  33.936  11.014
23903W        W96163  38.567  20.453   3.685
23904W        W96164  43.851  29.684   1.243
23905W        W96165   6.075   6.767  11.067
23906W        W96166  38.857  44.761   1.533
23907W        W96167  12.345  17.456  10.946
23908W        W96168  25.975   0.566   2.547
23909W        W96169  44.236   2.296   2.953
23910W        W96170  20.481  16.686   3.763
23911W        W96171  10.257  43.797  14.368
23912W        W96172  25.709   4.395   2.797
23913W        W96173   8.591  41.371   1.756
23914W        W96174  29.203  30.551  11.122
23915W        W96175  26.118  25.556   1.958
23916W        W96176  18.267  30.440  12.074
23917W        W96177  20.059  28.687  14.384
23918W        W96178  29.918   5.899   3.123
23919W        W96179   8.645  43.703  12.077
23920W        W96180   9.402  15.658  10.908
23921W        W96181  30.719  30.499   1.340
23922W        W96182   7.292  22.783  14.849
23923W        W96183  20.473  40.613   1.759
23924W        W96184   9.860  43.258  14.094
23925W        W96185   6.889  22.032  11.887
23926W        W96186   2.786  17.203   1.831
23927W        W96187  14.137   6.650   4.694
23928W        W96188  22.656   5.386   1.379
23929W        W96189  12.266  29.415  11.508
23930W        W96190  20.806  44.256   0.635
23931W        W96191  17.607  41.456   4.207
23932W        W96192  10.215  21.598  11.613
23933W        W96193   1.330  37.348   3.732
23934W        W96194  42.836  33.314   0.668
23935W        W96195  15.192  22.077   1.446
23936W        W96196   5.326  12.328  12.758
23937W        W96197  21.860   3.957   3.634
23938W        W96198  33.886   9.870  11.170
23939W        W96199  28.909  23.568  14.391
23940W        W96200  21.568  14.143  12.874
23941W        W96201   3.976  27.372   0.266
23942W        W96202   4.884   4.895   2.806
23943W        W96203  33.609   0.874  14.556
23944W        W96204   5.954   0.470  14.305
23945W        W96205   4.268  29.945  12.835
23946W        W96206   9.289  40.908   2.095
23947W        W96207  37.361   9.677   3.933
23948W        W96208   1.225  11.157  10.518
23949W        W96209   1.294  36.148  12.544
23950W        W96210  22.596  17.180  11.700
23951W        W96211  32.392  30.133  14.607
23952W        W96212   8.513  29.039   3.325
23953W        W96213  28.154  21.184   3.077
23954W        W96214   6.228  15.657   3.058
23955W        W96215   6.202   7.158   3.139
23956W        W96216  36.941  43.565   0.970
23957W        W96217  43.139  40.428   0.562
23958W        W96218   1.314  43.294   4.873
23959W        W96219  21.703  16.591  12.204
23960W        W96220  30.697   7.912  13.542
23961W        W96221  21.063  26.616  10.217
23962W        W96222  14.816  13.179  10.535
23963W        W96223  27.910  11.303  11.216
23964W        W96224   7.751  39.608  14.016
23965W        W96225  42.369  37.286   0.752
23966W        W96226  34.990  25.481  12.652
23967W        W96227  33.517  10.921  14.537
23968W        W96228  32.554   9.574   4.263
23969W        W96229  43.800  41.462   2.415
23970W        W96230  44.068  38.652  11.106
23971W        W96231  42.399  15.308  11.631
23972W        W96232  37.588  24.013  14.946
23973W        W96233  44.862   0.425  13.026
23974W        W96234   8.209   5.210   0.802
23975W        W96235   0.162  18.273  14.927
23976W        W96236  38.310   8.358  11.172
23977W        W96237  40.394   4.897  12.310
23978W        W96238  32.520  25.682  14.455
23979W        W96239  30.994  42.277  11.954
23980W        W96240  21.861  11.060   1.789
23981W        W96241  36.958   2.653  12.072
23982W        W96242  38.117  32.064  12.075
23983W        W96243   8.511  32.522  13.988
23984W        W96244  34.856   5.615   4.058
23985W        W96245  25.720  36.889   0.387
23986W        W96246  12.397  10.843  12.337
23987W        W96247  13.203  43.924  10.787
23988W        W96248  15.308  39.889  10.652
23989W        W96249  34.292  19.623  13.593
23990W        W96250  42.858  30.809   3.846
23991W        W96251  15.779  17.736  12.445
23992W        W96252  36.579   9.740   1.763
23993W        W96253  21.083  34.452  13.314
23994W        W96254  10.360  13.819  14.266
23995W        W96255  17.308  27.971   4.502
23996W        W96256  39.514  28.173  10.962
23997W        W96257   6.481  30.937   3.742
23998W        W96258  21.895  14.778  12.233
23999W        W96259  40.619  33.929  14.920
24000W        W96260  41.883   4.293   2.956
24001W        W96261  18.263  39.967   2.589
24002W        W96262  21.659  29.880  10.717
24003W        W96263  22.212   3.198   2.359
24004W        W96264  35.648  11.914  11.760
24005W        W96265  21.949  44.314  13.071
24006W        W96266   5.763  38.024   3.247
24007W        W96267  35.276   5.913  11.358
24008W        W96268  31.745  30.894  10.300
24009W        W96269  24.443  25.227   4.616
24010W        W96270  13.380   1.188   2.799
24011W        W96271  23.511  16.867  11.932
24012W        W96272  10.028  39.822   3.746
24013W        W96273  10.484  40.195  13.049
24014W        W96274   6.727  43.979   2.787
24015W        W96275   8.423  31.818  14.981
24016W        W96276  37.874  39.932  12.454
24017W        W96277   7.837  18.282   1.494
24018W        W96278  40.447   1.445  12.434
24019W        W96279  18.560  16.662  10.742
24020W        W96280  32.171  42.979  12.359
24021W        W96281  21.163  37.602  11.943
24022W        W96282  10.610   9.755  10.886
24023W        W96283   3.130   9.263   3.232
24024W        W96284  27.919  19.030  11.017
24025W        W96285  44.381  27.036  10.869
24026W        W96286  34.512  42.362   1.214
24027W        W96287  39.914  15.942   2.338
24028W        W96288  11.383  36.773   2.690
24029W        W96289   7.350  31.139   2.184
24030W        W96290  33.032  28.164   1.016
24031W        W96291   5.295  31.401   3.908
24032W        W96292  18.557  31.185   3.720
24033W        W96293  26.404  25.648  14.474
24034W        W96294  34.887   0.756  13.819
24035W        W96295   9.603  28.678  12.573
24036W        W96296  42.102   9.806  12.048
24037W        W96297  43.270  14.846  14.727
24038W        W96298   1.385  16.672   4.073
24039W        W96299  26.027  23.219  10.744
24040W        W96300   1.507  33.266   2.952
24041W        W96301  31.750  38.496  12.913
24042W        W96302  43.563  20.642   4.571
24043W        W96303  13.632  25.005  11.135
24044W        W96304  14.392  13.395  11.845
24045W        W96305  10.293  15.040   4.578
24046W        W96306  38.311  38.075   0.406
24047W        W96307  18.628   3.248  10.691
24048W        W96308  38.437  44.645   4.794
24049W        W96309  17.254  25.430  14.457
24050W        W96310  41.493  29.122  11.578
24051W        W96311   9.703  22.309  14.375
24052W        W96312   9.639  22.474   4.241
24053W        W96313  24.994  28.619  13.230
24054W        W96314  41.346  19.502  13.921
24055W        W96315  20.973  14.312  11.515
24056W        W96316   0.541  36.540   0.076
24057W        W96317  15.737  19.503   4.933
24058W        W96318  10.725  31.121  13.451
24059W        W96319  30.089  24.754  13.368
24060W        W96320  37.871  13.644   0.523
24061W        W96321   4.378  38.098  14.318
24062W        W96322  41.390   5.420  12.123
24063W        W96323  42.702  16.237   0.954
24064W        W96324  19.660  36.823   1.381
24065W        W96325   6.294  35.554   4.499
24066W        W96326  22.968  40.932   1.330
24067W        W96327  36.268  36.352   3.733
24068W        W96328  26.077   5.872   1.169
24069W        W96329  23.528   6.363   4.502
24070W        W96330  15.247  21.179   2.742
24071W        W96331  31.496  38.465  14.219
24072W        W96332  18.338  16.781  12.060
24073W        W96333  17.104  29.817  12.886
24074W        W96334  30.513  28.134   5.001
24075W        W96335  43.451  12.045  11.573
24076W        W96336  28.604  14.511  13.427
24077W        W96337   2.478  29.483  11.113
24078W        W96338   1.781  20.311   1.748
24079W        W96339  10.506  28.576   0.795
24080W        W96340  17.318  30.368  13.429
24081W        W96341  28.774  39.514  12.632
24082W        W96342  18.298  31.096  14.995
24083W        W96343   8.449  22.115   1.140
24084W        W96344   3.463  42.285  11.535
24085W        W96345   5.155  40.164  11.638
24086W        W96346  20.808   0.862  14.981
24087W        W96347  18.085  39.072   2.853
24088W        W96348   8.198  22.992   4.163
24089W        W96349  30.448  42.022   2.661
24090W        W96350  10.367  36.083  14.804
24091W        W96351  37.336  39.180  11.528
24092W        W96352  30.567  15.336  14.342
24093W        W96353  28.183  13.186  14.457
24094W        W96354  27.250  26.959   0.009
24095W        W96355  25.439  19.985  11.097
24096W        W96356  41.864  40.515  14.084
24097W        W96357  27.002  38.569  14.909
24098W        W96358   3.086  13.633   1.376
24099W        W96359  13.994  39.496   1.305
24100W        W96360  43.681  24.300  11.588
24101W        W96361  44.664  13.975  10.433
24102W        W96362   6.709  31.523   0.752
24103W        W96363  14.096  21.006   4.161
24104W        W96364  21.600  42.561  14.347
24105W        W96365  19.726  28.403   3.258
24106W        W96366  34.801  27.673  14.951
24107W        W96367   6.671  33.935   0.251
24108W        W96368  36.603  31.890  13.870
24109W        W96369   6.699   9.626   2.742
24110W        W96370  40.119  44.794  14.770
24111W        W96371  42.121  11.854  11.306
24112W        W96372  34.145  37.559   1.260
24113W        W96373   5.686  29.169   1.135
24114W        W96374  14.136  20.761   1.927
24115W        W96375  11.645  26.022   3.234
24116W        W96376   5.300  42.253   0.824
24117W        W96377  20.679   7.683   2.217
24118W        W96378  24.653  11.765  14.566
24119W        W96379  17.708  44.462  14.330
24120W        W96380  37.803  43.863   3.333
24121W        W96381  32.212  32.402  10.890
24122W        W96382   0.441   2.730   3.940
24123W        W96383  32.719  38.404   3.509
24124W        W96384  37.003  10.201   1.368
24125W        W96385  40.375  18.832   2.913
24126W        W96386  37.772  42.511   1.744
24127W        W96387  21.287  15.723   3.149
24128W        W96388   1.054  42.093   2.776
24129W        W96389  31.553   0.940  13.115
24130W        W96390  31.395  23.529   3.260
24131W        W96391  42.430  28.185  13.297
24132W        W96392  21.822  43.598   2.309
24133W        W96393  37.466  31.628   0.006
24134W        W96394  34.352   5.837  12.733
24135W        W96395  34.815  21.756  13.791
24136W        W96396  29.700   6.251  12.869
24137W        W96397  23.534  42.454   0.873
24138W        W96398  29.569  20.775  10.749
24139W        W96399   6.299   4.439  13.468
24140W        W96400  26.518   5.293  11.864
24141W        W96401  36.986   7.404  11.234
24142W        W96402  20.185  29.936   1.677
24143W        W96403  34.532   3.975   4.529
24144W        W96404  10.074  44.118   1.115
24145W        W96405  26.789  26.082   0.773
24146W        W96406  39.819  12.210   3.194
24147W        W96407  13.157  40.302  12.544
24148W        W96408  27.256  32.062   2.356
24149W        W96409   8.254   7.387   0.753
24150W        W96410  25.008  29.870  12.675
24151W        W96411  32.011   7.956   2.616
24152W        W96412   4.775   4.628   3.739
24153W        W96413  16.890  35.818  10.513
24154W        W96414   5.355  22.252  13.176
24155W        W96415  28.055  11.953   4.021
24156W        W96416  36.906  28.552   2.112
24157W        W96417  22.015  33.702   1.573
24158W        W96418  33.048  44.939  14.431
24159W        W96419  29.308  33.060   0.414
24160W        W96420  11.583  42.628  13.935
24161W        W96421   5.523  27.168  11.936
24162W        W96422  34.564  27.050   2.850
24163W        W96423   4.492  42.999  11.391
24164W        W96424  33.743  32.349  10.936
24165W        W96425  38.020  36.322  12.536
24166W        W96426  18.271  30.951   1.498
24167W        W96427  40.258  44.702   3.610
24168W        W96428  10.661  43.775   3.593
24169W        W96429   8.818  24.417  13.280
24170W        W96430  15.539   7.013   5.010
24171W        W96431  41.439  41.964   1.390
24172W        W96432  34.769  36.034  11.518
24173W        W96433  37.429  25.355  12.105
24174W        W96434  43.293  26.806  14.377
24175W        W96435  32.151  12.880   4.883
24176W        W96436  14.139  29.893   0.071
24177W        W96437  21.107  35.136   1.769
24178W        W96438  16.545  32.945   3.758
24179W        W96439  40.439   3.818  14.284
24180W        W96440   6.793  27.754  12.275
24181W        W96441  24.057  34.379  11.049
24182W        W96442  14.126  12.074  13.950
24183W        W96443   2.294  28.033  14.796
24184W        W96444  27.119  11.788   3.816
24185W        W96445  42.819  40.306   4.537
24186W        W96446   5.187  36.150  13.055
24187W        W96447  44.172  42.523  11.121
24188W        W96448  41.505  40.919   2.599
24189W        W96449  14.852  17.651   0.036
24190W        W96450  39.760  27.069  10.722
24191W        W96451   8.755  32.571   4.157
24192W        W96452   3.214   8.642   1.821
24193W        W96453   3.013  27.293  11.572
24194W        W96454  19.979  17.596   3.567
24195W        W96455  24.782  39.714  12.188
24196W        W96456   7.108  42.644  13.056
24197W        W96457  30.028  22.839   1.412
24198W        W96458  12.019  28.062   5.002
24199W        W96459  28.923  44.777   0.194
24200W        W96460  15.131   3.830  11.310
24201W        W96461  21.830  40.793   0.723
24202W        W96462  40.902  42.588  14.034
24203W        W96463  44.790  38.166  12.591
24204W        W96464  44.054   9.687  11.465
24205W        W96465  26.101   9.519   2.997
24206W        W96466  21.603  16.572  14.547
24207W        W96467  30.085  13.208   3.211
24208W        W96468  44.936  12.197   0.663
24209W        W96469  12.222  20.984   3.219
24210W        W96470  42.299  15.318   1.894
24211W        W96471  22.393  14.971   2.882
24212W        W96472   4.738  37.055  13.610
24213W        W96473  16.241  44.475   3.863
24214W        W96474   7.993  28.991   3.299
24215W        W96475   4.104   3.292  11.287
24216W        W96476  14.749  35.016   3.891
24217W        W96477   1.913  39.416  13.727
24218W        W96478  42.310   0.036   4.345
24219W        W96479  36.415  17.080   4.798
24220W        W96480   6.987   5.471  14.009
24221W        W96481  14.258  32.210  12.708
24222W        W96482  17.890  44.592  10.075
24223W        W96483  32.075  15.803   1.396
24224W        W96484  35.422  20.568  10.641
24225W        W96485   4.559  11.602  13.582
24226W        W96486  31.769  17.635   4.953
24227W        W96487   6.944  21.109   0.729
24228W        W96488  36.849   2.062   0.882
24229W        W96489  35.746  17.403  11.092
24230W        W96490  39.811  39.369  14.187
24231W        W96491  40.506  40.707  13.379
24232W        W96492   1.012  39.831  12.145
24233W        W96493   1.399  19.224  13.514
24234W        W96494   1.237  20.184   2.973
24235W        W96495  36.409  27.075   2.820
24236W        W96496  18.057  12.188   4.345
24237W        W96497  32.152  15.728  14.076
24238W        W96498  26.393  44.622  12.432
24239W        W96499  34.397  27.464  14.497
24240W        W96500  22.641  16.699  12.993
24241W        W96501   4.467   9.918   3.738
24242W        W96502  40.482  27.659  12.522
24243W        W96503  30.984  30.783   3.209
24244W        W96504  39.539  30.552   1.712
24245W        W96505  15.473   0.934  12.083
24246W        W96506   3.258  34.324  12.284
24247W        W96507  19.178  22.134  12.186
24248W        W96508   6.827  34.012  11.185
24249W        W96509   9.932  30.579   3.578
24250W        W96510  35.785  25.758  11.570
24251W        W96511  22.598  28.839  10.177
24252W        W96512   3.593  32.341  11.499
24253W        W96513   4.870  20.087   1.791
24254W        W96514  32.433  43.467   4.012
24255W        W96515  21.209   9.256   2.339
24256W        W96516  12.234   3.184   3.665
24257W        W96517  34.449  43.575   4.773
24258W        W96518  14.169  15.508   4.660
24259W        W96519  17.729  24.448  12.510
24260W        W96520   1.350  44.166  12.836
24261W        W96521   8.672  44.448   3.967
24262W        W96522  38.489  12.277   4.902
24263W        W96523   0.018  14.025   4.418
24264W        W96524  23.255  26.039   5.530
24265W        W96525  39.501  12.166   0.813
24266W        W96526  30.212  18.402   2.585
24267W        W96527  21.094   6.675   1.297
24268W        W96528   4.801   6.727   1.875
24269W        W96529  34.007   3.743  11.963
24270W        W96530  31.073  26.746  13.965
24271W        W96531  34.335  30.378  11.191
24272W        W96532   0.914  38.933  10.166
24273W        W96533   4.189  40.970   3.241
24274W        W96534  42.028  37.853  13.856
24275W        W96535   4.993  19.576  12.031
24276W        W96536  23.558  31.430   4.526
24277W        W96537  21.616  12.284  12.565
24278W        W96538   5.835  38.356  13.393
24279W        W96539  12.449  36.011   0.651
24280W        W96540  27.875   6.110   2.272
24281W        W96541  36.824  13.148  14.996
24282W        W96542  41.025   9.783  13.747
24283W        W96543  11.626  23.109   2.304
24284W        W96544  24.950  35.848   0.563
24285W        W96545  26.074  16.135   2.680
24286W        W96546  35.940   6.920  13.584
24287W        W96547  17.968   0.342   3.719
24288W        W96548   0.673  33.335  13.091
24289W        W96549   1.008  43.347   0.319
24290W        W96550  11.222  17.158  11.547
24291W        W96551  19.155  10.961   2.393
24292W        W96552  36.303  29.138  13.299
24293W        W96553   6.860  18.651  11.142
24294W        W96554  20.618  20.587  11.486
24295W        W96555   0.192  13.511   0.282
24296W        W96556  15.712  33.607   0.420
24297W        W96557  10.595  43.438  11.629
24298W        W96558  29.905  30.739  11.512
24299W        W96559  40.361   5.591   2.760
24300W        W96560  16.478  16.605   0.832
24301W        W96561  41.302  29.926   0.539
24302W        W96562  24.495  40.074   4.567
24303W        W96563   3.653  44.553   2.275
24304W        W96564  24.000   5.395   2.982
24305W        W96565  14.563  10.489   2.441
24306W        W96566  11.715  37.344  13.438
24307W        W96567  29.068   7.211   3.453
24308W        W96568  23.267  11.945  11.074
24309W        W96569  23.661   6.680   2.454
24310W        W96570  11.790  29.397   0.412
24311W        W96571  42.590  24.046  12.245
24312W        W96572  12.064   3.644   4.092
24313W        W96573  31.081  33.952   2.686
24314W        W96574   0.058   4.241  12.483
24315W        W96575  12.879  40.835  12.021
24316W        W96576  36.524  33.032   1.401
24317W        W96577  11.581   4.866  12.036
24318W        W96578  10.663  10.159  13.477
24319W        W96579  43.295  16.651  11.144
24320W        W96580  20.167   8.007  10.211
24321W        W96581   0.221  26.499  11.338
24322W        W96582  12.590  36.539  13.532
24323W        W96583   7.141  34.590  12.691
24324W        W96584  20.780  20.148  14.874
24325W        W96585  43.813  42.144   0.297
24326W        W96586   2.502  15.174  11.961
24327W        W96587  13.771  36.919  12.042
24328W        W96588   3.782  42.273   1.326
24329W        W96589   5.956  31.368  13.869
24330W        W96590  39.057  10.219   3.138
24331W        W96591   6.814  14.862   0.168
24332W        W96592  18.258  29.440  10.682
24333W        W96593   9.728  25.477  14.959
24334W        W96594  38.896   7.680  10.914
24335W        W96595  29.249  12.817  10.984
24336W        W96596  41.592  42.544   4.091
24337W        W96597  37.476  34.338  13.340
24338W        W96598  41.956   3.380  14.356
24339W        W96599  16.344   8.182  13.977
24340W        W96600  26.271  11.638   4.804
24341W        W96601  29.646  29.698  12.858
24342W        W96602   1.516  20.038   1.375
24343W        W96603  39.479  41.971   1.458
24344W        W96604   1.496  16.636  12.122
24345W        W96605   0.030  15.754   0.731
24346W        W96606  23.578  36.913  10.959
24347W        W96607   0.314  14.173  14.302
24348W        W96608   6.372  23.038   1.220
24349W        W96609   1.876  44.248   2.232
24350W        W96610  37.947  27.139   1.880
24351W        W96611  15.523  10.663   1.315
24352W        W96612   7.793  14.403   0.746
24353W        W96613  10.152  16.793   3.773
24354W        W96614  25.057  13.335   0.330
24355W        W96615  44.271  16.217  12.642
24356W        W96616  36.965  12.384  12.425
24357W        W96617  28.186   7.041  14.010
24358W        W96618  35.963   6.280  10.926
24359W        W96619  39.957  10.460   3.737
24360W        W96620   9.050  41.239  12.173
24361W        W96621  31.830  24.523  14.993
24362W        W96622  26.235  37.370   3.776
24363W        W96623  33.537  38.438  12.719
24364W        W96624  15.044  29.362   0.239
24365W        W96625   5.130   6.726   2.260
24366W        W96626  10.285  34.926  14.923
24367W        W96627  12.195  27.475   3.791
24368W        W96628   7.143  10.734  12.138
24369W        W96629  44.883  11.382   3.088
24370W        W96630  38.467  16.159  11.636
24371W        W96631  32.164   8.145  13.497
24372W        W96632  28.693  21.250  12.567
24373W        W96633  20.468  32.956   0.648
24374W        W96634   3.869  44.382  11.792
24375W        W96635  39.989   0.508   1.360
24376W        W96636  27.686  26.129  14.021
24377W        W96637  10.463  12.841  10.754
24378W        W96638  19.172  33.649   3.100
24379W        W96639  25.896  28.478  12.025
24380W        W96640  41.106   3.362   4.598
24381W        W96641   9.178   1.431  12.155
24382W        W96642  35.373  41.741  14.042
24383W        W96643  37.571  24.868  12.012
24384W        W96644  34.412   7.868   4.560
24385W        W96645  44.894  42.434   4.200
24386W        W96646  38.306  41.373   1.796
24387W        W96647  34.447  22.614  14.473
24388W        W96648  35.750   0.205  14.250
24389W        W96649  40.932  15.598   3.646
24390W        W96650  33.576  26.651  13.361
24391W        W96651  38.017  31.926   2.201
24392W        W96652   3.698  19.114  13.977
24393W        W96653   3.474  15.966  14.912
24394W        W96654  40.821  30.480  12.026
24395W        W96655  10.269  30.584  12.424
24396W        W96656  44.159   6.258  14.298
24397W        W96657  20.756  11.391   4.579
24398W        W96658   3.368  22.700   2.920
24399W        W96659  18.230  28.046  11.040
24400W        W96660  36.117   3.613   3.884
24401W        W96661   8.803  18.795  13.019
24402W        W96662  36.325  36.511   2.832
24403W        W96663  28.517  31.984  14.389
24404W        W96664  17.634  30.172  14.755
24405W        W96665   0.906  13.575   4.166
24406W        W96666   4.226  10.947  14.305
24407W        W96667  18.109   3.774   0.371
24408W        W96668   1.042  33.677   3.671
24409W        W96669   1.310  43.461  10.774
24410W        W96670  33.027   2.510   3.328
24411W        W96671  40.551  39.457  13.101
24412W        W96672  23.276  37.406   1.692
24413W        W96673  19.130  27.231   3.189
24414W        W96674  34.099  20.896  14.027
24415W        W96675  41.393  27.877   4.400
24416W        W96676  20.846  27.398  11.089
24417W        W96677  28.543  17.752   3.725
24418W        W96678   7.212   4.704   3.729
24419W        W96679   7.649   0.066   1.270
24420W        W96680  34.169  15.698   1.858
24421W        W96681  41.909  14.804  14.306
24422W        W96682  42.912   0.910  13.882
24423W        W96683  24.913  17.712   3.341
24424W        W96684  18.254  30.413   3.652
24425W        W96685  23.629  36.043   1.758
24426W        W96686  11.741  42.325   0.861
24427W        W96687  24.583   1.327  11.884
24428W        W96688  43.156  32.380  11.296
24429W        W96689   5.827  25.973   5.681
24430W        W96690  12.771  26.945   1.362
24431W        W96691  41.462  32.455   0.951
24432W        W96692   6.212  16.163  12.474
24433W        W96693  23.588  25.442  11.435
24434W        W96694  33.835  34.467   0.589
24435W        W96695  29.137  13.367   2.815
24436W        W96696  10.157  34.466  11.002
24437W        W96697  43.393  25.632  14.314
24438W        W96698  42.893  22.061   4.747
24439W        W96699   5.618  10.852  12.519
24440W        W96700  38.938  16.155  14.577
24441W        W96701  34.484   6.268   2.831
24442W        W96702  24.080   6.815  11.605
24443W        W96703  15.332   8.896   3.679
24444W        W96704  36.708  42.021  12.831
24445W        W96705  13.207   6.024   3.779
24446W        W96706  31.956  34.013   4.142
24447W        W96707  35.999   9.238  13.929
24448W        W96708  18.320  42.260   4.143
24449W        W96709  44.909   5.218   1.054
24450W        W96710  37.587   9.260   4.657
24451W        W96711  19.338   2.967  13.473
24452W        W96712   4.832  24.452  13.812
24453W        W96713  38.603  42.778  14.904
24454W        W96714  11.589  27.407   1.588
24455W        W96715  17.373   6.640   2.127
24456W        W96716  20.299  38.923   2.811
24457W        W96717  40.720   0.409  13.390
24458W        W96718  38.512  14.829   2.276
24459W        W96719  44.500  41.337  14.585
24460W        W96720  43.520  32.737  14.623
24461W        W96721  35.189  11.754   1.068
24462W        W96722  24.552  25.826   2.939
24463W        W96723  32.521  38.107  13.904
24464W        W96724  22.210  35.491   1.517
24465W        W96725   8.360  20.602   4.158
24466W        W96726  11.166   2.194  12.126
24467W        W96727  31.358  40.854   4.723
24468W        W96728  28.579  42.571   4.700
24469W        W96729  22.331  18.247   4.103
24470W        W96730  28.967  25.604   4.544
24471W        W96731   1.493  30.511  12.364
24472W        W96732   9.123  37.312  13.878
24473W        W96733  26.396  30.596   4.287
24474W        W96734   6.786   3.447  10.743
24475W        W96735  14.128  27.965  13.977
24476W        W96736  13.469  30.048   4.187
24477W        W96737   7.272  32.626   0.445
24478W        W96738  32.817   7.260   3.156
24479W        W96739   8.383  18.155   0.921
24480W        W96740  18.452  23.270  13.494
24481W        W96741   9.441   8.128   2.807
24482W        W96742  23.290   9.657   2.309
24483W        W96743  25.931   2.453  11.526
24484W        W96744  44.243  18.720   0.480
24485W        W96745   1.832   9.340   2.379
24486W        W96746  38.158  17.702   0.779
24487W        W96747  41.700  25.247  12.318
24488W        W96748  36.122  44.296  14.265
24489W        W96749  10.601  36.900   3.794
24490W        W96750  37.970  38.326  14.318
24491W        W96751  18.173  44.014   3.321
24492W        W96752  44.068   0.517   1.042
24493W        W96753  29.500  41.262   4.944
24494W        W96754   8.554  33.678   2.826
24495W        W96755  23.245  42.025  12.360
24496W        W96756  31.791  31.564  12.251
24497W        W96757   8.188  31.454  11.081
24498W        W96758  17.038  33.991  12.556
24499W        W96759  30.870  31.326  12.093
24500W        W96760  36.873  17.144  13.648
24501W        W96761  43.970   6.527  11.572
24502W        W96762  28.481  17.103  11.529
24503W        W96763  23.522   3.852  14.316
24504W        W96764  32.886  32.541   3.781
24505W        W96765  17.986   2.244  12.880
24506W        W96766  27.524   6.484   3.711
24507W        W96767   5.907  34.418   4.941
24508W        W96768  13.686  14.250  12.791
24509W        W96769  15.081  21.480   2.330
24510W        W96770  36.534  31.385  13.919
24511W        W96771  18.111  39.102   4.501
24512W        W96772   9.650  11.373   4.042
24513W        W96773  28.591  11.718  13.595
24514W        W96774  43.521   7.295   4.097
24515W        W96775  44.819   2.405  10.684
24516W        W96776  22.801   2.808   3.643
24517W        W96777  42.835  31.600  11.642
24518W        W96778  33.491  20.977   3.350
24519W        W96779  25.951  12.587   4.918
24520W        W96780  19.743   6.800  12.266
24521W        W96781  21.675  24.084   2.404
24522W        W96782  10.459  27.408  13.997
24523W        W96783  12.225  41.324   4.239
24524W        W96784  43.535  42.555  12.089
24525W        W96785  15.892  40.601   5.164
24526W        W96786  18.293  12.445  13.734
24527W        W96787  30.812  34.728  13.798
24528W        W96788  13.359  10.308   2.752
24529W        W96789  12.383  28.262   9.741
24530W        W96790  32.616  39.218   2.313
24531W        W96791  24.465  26.670   3.138
24532W        W96792  11.579  20.557   0.203
24533W        W96793   0.748  39.385   0.031
24534W        W96794  20.295   1.771  12.601
24535W        W96795   5.236  13.188   0.928
24536W        W96796  44.984  22.615   4.677
24537W        W96797  17.095  22.704  10.712
24538W        W96798  40.416  13.201  13.942
24539W        W96799   5.688   5.268   2.992
24540W        W96800  12.123   8.696   2.002
24541W        W96801   1.122  41.329   1.894
24542W        W96802  38.878  20.685  12.055
24543W        W96803  34.297  15.303  12.023
24544W        W96804   1.736  31.729  13.030
24545W        W96805  28.735  20.589  11.006
24546W        W96806  35.971  43.264  13.613
24547W        W96807   5.928  20.583  11.014
24548W        W96808  19.140   3.732  12.056
24549W        W96809  18.768  18.054   3.193
24550W        W96810  41.200  31.574  12.983
24551W        W96811  14.644  11.405  13.048
24552W        W96812  23.753  12.233   2.402
24553W        W96813   9.397  17.046   0.502
24554W        W96814  41.797  21.599   2.393
24555W        W96815   8.964   8.064   2.606
24556W        W96816  44.265  31.462   0.043
24557W        W96817  39.242  10.590  11.855
24558W        W96818   9.427  18.542  11.522
24559W        W96819  25.928  22.799   3.751
24560W        W96820   5.412  40.386  12.056
24561W        W96821  11.682  33.987  10.537
24562W        W96822  12.628  32.266  12.163
24563W        W96823   1.255  23.766   2.473
24564W        W96824  30.764  44.804   4.808
24565W        W96825   0.476  44.391  11.025
24566W        W96826  42.361  11.075  12.979
24567W        W96827  23.420   5.467   1.810
24568W        W96828  38.930  28.591   1.390
24569W        W96829  42.225  36.930  14.004
24570W        W96830  21.510  28.653  12.072
24571W        W96831  40.886  13.852  12.139
24572W        W96832  39.524   6.844   4.560
24573W        W96833   5.309   4.987   4.663
24574W        W96834  44.227  43.579   1.189
24575W        W96835   8.045   9.592   2.197
24576W        W96836  44.767  29.190  13.928
24577W        W96837  23.672   5.156   3.296
24578W        W96838  21.019  24.104  14.338
24579W        W96839   3.997  17.878  12.870
24580W        W96840  21.790  23.931  12.927
24581W        W96841  18.268  24.314  14.388
24582W        W96842  13.533  20.632   3.362
24583W        W96843  26.534  11.359  10.684
24584W        W96844  43.550  25.990  13.437
24585W        W96845  26.945   6.732  14.458
24586W        W96846  23.685  20.799   0.592
24587W        W96847   6.840  20.619   0.894
24588W        W96848   1.046  35.724   0.449
24589W        W96849   2.690  41.369   2.262
24590W        W96850  27.666  15.819   2.884
24591W        W96851  30.013  39.852  12.774
24592W        W96852  14.134  33.686   3.246
24593W        W96853  40.853  26.563  11.639
24594W        W96854  32.981  14.627   3.112
24595W        W96855  19.505  42.080   3.665
24596W        W96856  36.047  42.709   2.783
24597W        W96857   3.029  43.948   1.898
24598W        W96858  27.951  33.025   3.990
24599W        W96859  15.618  30.980  14.904
24600W        W96860  12.696  33.848   0.332
24601W        W96861  42.026  31.041   3.398
24602W        W96862  28.510  43.392   4.035
24603W        W96863  10.727  38.841  11.489
24604W        W96864  13.439  42.745   0.059
24605W        W96865  19.585  37.291  12.510
24606W        W96866  31.222  25.966  11.651
24607W        W96867   5.737  14.738   2.247
24608W        W96868  12.224  35.926  14.684
24609W        W96869  15.660  29.430   1.071
24610W        W96870  25.880  22.829   0.245
24611W        W96871  35.956  12.097   0.680
24612W        W96872  33.005  12.842   2.757
24613W        W96873   5.717  26.078  13.482
24614W        W96874  14.034  23.250  12.124
24615W        W96875  13.325  14.074   1.424
24616W        W96876  20.502  12.773   3.080
24617W        W96877  17.296  37.430  11.063
24618W        W96878   8.884   5.809   0.040
24619W        W96879   5.897   1.710   2.207
24620W        W96880  36.303  42.811   4.543
24621W        W96881  32.128  18.115  11.581
24622W        W96882  43.883   5.823   1.728
24623W        W96883  19.673  31.035   1.918
24624W        W96884  34.483  32.016   3.165
24625W        W96885   2.982  35.823   0.814
24626W        W96886  27.472  43.397  12.432
24627W        W96887  20.270   8.484   3.361
24628W        W96888   0.769  19.569   9.574
24629W        W96889  30.147  17.746  13.270
24630W        W96890  33.193  19.153  13.313
24631W        W96891  36.006  14.623  12.950
24632W        W96892  16.308  30.112   0.038
24633W        W96893  17.046  23.767   0.758
24634W        W96894  37.409  27.554   2.445
24635W        W96895   2.203  27.663   1.308
24636W        W96896   2.819  37.245   2.677
24637W        W96897  28.560  21.619   2.486
24638W        W96898  28.381  11.147   1.741
24639W        W96899  32.204  28.191  10.531
24640W        W96900  30.939  21.330   1.408
24641W        W96901  25.245  14.225  10.663
24642W        W96902  27.428  15.908  14.380
24643W        W96903  36.495  44.433   1.308
24644W        W96904  25.290  33.156  12.656
24645W        W96905  23.004  11.705  14.877
24646W        W96906  23.491  20.805   2.808
24647W        W96907  12.706  14.200  14.883
24648W        W96908  32.464   5.997  14.012
24649W        W96909  43.868   3.462   2.633
24650W        W96910  22.959   4.727  10.100
24651W        W96911  37.424  23.017   1.161
24652W        W96912  29.114  36.872   0.407
24653W        W96913  13.614  14.808   4.613
24654W        W96914   4.385  32.441   0.774
24655W        W96915   9.856  19.983   0.431
24656W        W96916  33.355  23.494  14.105
24657W        W96917   8.213  43.937   2.296
24658W        W96918  24.542  39.855  10.731
24659W        W96919  27.467  33.120   3.815
24660W        W96920  41.844  44.040  13.803
24661W        W96921  26.997  28.636   1.448
24662W        W96922   6.632  11.608   4.573
24663W        W96923  39.694  10.398  12.025
24664W        W96924  28.640  35.929  14.511
24665W        W96925  13.599  12.179   1.329
24666W        W96926  22.109  35.671   1.029
24667W        W96927  15.187  10.926  11.569
24668W        W96928  35.360  14.481  11.955
24669W        W96929  28.179  26.444   5.031
24670W        W96930  23.103  22.049  11.506
24671W        W96931  12.142  36.446  11.572
24672W        W96932  15.432  26.987   0.501
24673W        W96933  13.343  40.608   2.251
24674W        W96934  38.467   1.898   3.213
24675W        W96935   9.963  38.040  13.424
24676W        W96936  19.632  44.869   4.128
24677W        W96937  25.067  30.486  11.470
24678W        W96938  35.037  35.484  13.932
24679W        W96939   8.628  37.889   3.194
24680W        W96940  37.305  24.750   1.834
24681W        W96941  37.967  34.365   0.021
24682W        W96942   6.478  25.535   1.461
24683W        W96943  12.027   6.003  10.792
24684W        W96944  18.556  44.295   9.996
24685W        W96945  27.118   1.671   4.610
24686W        W96946   3.886  18.608  13.872
24687W        W96947  32.737  39.768   3.642
24688W        W96948  42.451  16.164   4.144
24689W        W96949  25.055  39.521  11.196
24690W        W96950  34.262   3.390  10.446
24691W        W96951   9.298  11.786  14.026
24692W        W96952   5.260  13.621  14.904
24693W        W96953   0.934  37.486   1.580
24694W        W96954   5.739  17.688   0.390
24695W        W96955  18.280  21.974  14.401
24696W        W96956  15.574   1.397   2.590
24697W        W96957  33.354   9.299  12.271
24698W        W96958  34.800  16.110   1.140
24699W        W96959  41.476  34.877   0.461
24700W        W96960  43.277  18.808  10.277
24701W        W96961   7.867   9.226  11.230
24702W        W96962  20.078  27.666  10.995
24703W        W96963  41.863   8.079   0.036
24704W        W96964  31.110  15.233  11.585
24705W        W96965  13.525  12.315   3.974
24706W        W96966  18.322  34.562   4.608
24707W        W96967  18.950  24.484  10.805
24708W        W96968  42.987  25.956  14.395
24709W        W96969   3.829   3.708   4.149
24710W        W96970  31.571  15.492   1.983
24711W        W96971  19.789  20.484   2.334
24712W        W96972  22.754  33.482  11.514
24713W        W96973  19.339  18.711  10.789
24714W        W96974  15.707  22.528   3.771
24715W        W96975  44.207  42.868   2.780
24716W        W96976  24.611  27.532   1.389
24717W        W96977   5.759   4.458  10.657
24718W        W96978  19.008  22.669   2.210
24719W        W96979  44.731   2.798   4.634
24720W        W96980  33.644  17.428   0.856
24721W        W96981  32.910  44.286   4.133
24722W        W96982   6.365  18.485  11.005
24723W        W96983   9.745  30.870  13.364
24724W        W96984  34.096  25.435  12.419
24725W        W96985  40.176  40.765   4.165
24726W        W96986  31.081   6.823   3.591
24727W        W96987  30.417   2.542   3.871
24728W        W96988  17.416  27.441   0.948
24729W        W96989  18.027   7.173  11.239
24730W        W96990  33.506   5.698   3.706
24731W        W96991  28.938  21.277   2.461
24732W        W96992  22.958  23.490   3.510
24733W        W96993  20.840  39.348   3.411
24734W        W96994   7.034   2.316   1.818
24735W        W96995  29.523  18.672   2.510
24736W        W96996  24.939  24.467  12.284
24737W        W96997   0.964  22.268  11.577
24738W        W96998  24.827  19.194   1.470
24739W        W96999  40.032  27.024   5.063
24740W        W97000  34.159  10.819   1.306
24741W        W97001  37.761  23.039   2.902
24742W        W97002   4.357  34.871   2.332
24743W        W97003  27.705  38.900  10.886
24744W        W97004  13.609   8.282   0.218
24745W        W97005  32.612   2.437  14.230
24746W        W97006   8.256  42.438  14.453
24747W        W97007  26.197   8.996   3.020
24748W        W97008   4.208  27.994   9.995
24749W        W97009  37.648  15.660  11.364
24750W        W97010  43.176   9.083  10.707
24751W        W97011   5.753  13.186  12.054
24752W        W97012  18.633   5.860   2.915
24753W        W97013  44.015  36.558   2.301
24754W        W97014  19.616  38.348  14.537
24755W        W97015   8.231   7.925  14.474
24756W        W97016   9.446  35.078   0.373
24757W        W97017  32.104   9.325   3.715
24758W        W97018  31.081   8.387   3.271
24759W        W97019  43.265  39.005  12.524
24760W        W97020  37.894   7.721  14.641
24761W        W97021   7.843  31.614  13.433
24762W        W97022  21.185   0.095  14.260
24763W        W97023  44.861  20.739  10.590
24764W        W97024  14.206  26.931  10.848
24765W        W97025  20.582  25.642  12.625
24766W        W97026   0.884  12.179  10.892
24767W        W97027  17.772  25.823   2.929
24768W        W97028  24.042  29.754  14.162
24769W        W97029  27.983   5.418  13.991
24770W        W97030  21.518  20.010   0.674
24771W        W97031  41.132   1.566  11.600
24772W        W97032  17.279  44.200  14.496
24773W        W97033  19.765   0.026  13.068
24774W        W97034  23.478  31.461   3.658
24775W        W97035  26.229  10.915   4.185
24776W        W97036  15.635  13.890   2.171
24777W        W97037  39.538  29.427   3.997
24778W        W97038  28.565  44.508   1.652
24779W        W97039  13.455  25.777   3.651
24780W        W97040  28.916  22.319  12.981
24781W        W97041   1.024   8.114  14.973
24782W        W97042  21.085  28.001   3.829
24783W        W97043  39.366   3.173   0.758
24784W        W97044  14.426   3.787  10.572
24785W        W97045  16.147  44.525  11.570
24786W        W97046  41.179   1.841   0.206
24787W        W97047   1.493   5.734   1.333
24788W        W97048  16.276  10.236   3.387
24789W        W97049  13.876  12.681  11.080
24790W        W97050   5.687  17.832   2.836
24791W        W97051  31.056   9.998  11.097
24792W        W97052  30.882  21.626  14.684
24793W        W97053  16.134  14.922   4.489
24794W        W97054   3.933  19.966   0.183
24795W        W97055   7.260  44.848  10.939
24796W        W97056  26.127   6.942  11.335
24797W        W97057  42.274  40.338   2.803
24798W        W97058  21.273  21.029  12.521
24799W        W97059  34.139  14.647   1.016
24800W        W97060  20.509  15.373   1.387
24801W        W97061   4.760  12.796  11.592
24802W        W97062   4.901  31.158   2.656
24803W        W97063  36.435  33.503   1.640
24804W        W97064   1.908  17.966   0.407
24805W        W97065   1.985   3.246   0.756
24806W        W97066  35.122  16.715   1.867
24807W        W97067   1.172  33.095  13.368
24808W        W97068   9.019  36.590   2.876
24809W        W97069  29.083  41.783   0.119
24810W        W97070   0.210  11.630  12.137
24811W        W97071  37.101  19.635  14.468
24812W        W97072  35.912   1.091   0.482
24813W        W97073   3.199  17.665  11.106
24814W        W97074  26.137   9.994  11.188
24815W        W97075  11.743  14.322   0.292
24816W        W97076  30.684   3.824  14.355
24817W        W97077  36.870   8.665  13.037
24818W        W97078   6.895  21.652   2.805
24819W        W97079  13.304  35.169   3.278
24820W        W97080  29.641   2.393  11.593
24821W        W97081  39.016  18.747   0.245
24822W        W97082  23.696  43.759  13.910
24823W        W97083   4.174  25.146   2.851
24824W        W97084   0.181  25.839   2.592
24825W        W97085  22.589  42.216  11.247
24826W        W97086  14.802   7.871  11.237
24827W        W97087  17.691  43.457  12.782
24828W        W97088  14.381  23.484  13.921
24829W        W97089  38.797   7.924  13.934
24830W        W97090   9.947  38.779   0.533
24831W        W97091   0.406  16.008   2.243
24832W        W97092  22.949   3.801  10.705
24833W        W97093  29.580  12.212   0.137
24834W        W97094  30.004  16.201   0.898
24835W        W97095  20.122  18.354  14.879
24836W        W97096   9.181   5.954   0.463
24837W        W97097  42.987  36.631  14.724
24838W        W97098  21.787  25.212  11.110
24839W        W97099  30.344  22.556  10.697
24840W        W97100  39.525  26.057   1.278
24841W        W97101  31.004  15.133   4.582
24842W        W97102   9.776  17.040  11.826
24843W        W97103  42.299   2.042  10.624
24844W        W97104  16.601  36.385   1.083
24845W        W97105   4.923  11.513   0.781
24846W        W97106   2.986   9.877   1.253
24847W        W97107  26.218  33.475  12.960
24848W        W97108  38.840  19.322   0.767
24849W        W97109  27.747  15.395   1.668
24850W        W97110   4.704  19.523   2.874
24851W        W97111  12.556  29.732  12.860
24852W        W97112   0.681   3.376   5.063
24853W        W97113  25.005  17.690  13.848
24854W        W97114  13.742  29.396   2.828
24855W        W97115  36.438  14.640   2.309
24856W        W97116   2.860  15.791   2.567
24857W        W97117  10.683  13.350  13.175
24858W        W97118  30.809  37.435   4.784
24859W        W97119  38.697  35.424   0.760
24860W        W97120  33.168   6.784  11.381
24861W        W97121  26.527  42.929  14.910
24862W        W97122   2.956  41.892  13.939
24863W        W97123  31.074  31.802  12.960
24864W        W97124   9.899  40.347  12.017
24865W        W97125  24.598  32.883  11.027
24866W        W97126  26.812  34.311  11.005
24867W        W97127  42.763  34.671  13.618
24868W        W97128  11.208  42.462   3.708
24869W        W97129  43.683   8.898   2.370
24870W        W97130  17.929  32.546   4.160
24871W        W97131  42.098  30.959  12.185
24872W        W97132  43.300  40.528   4.633
24873W        W97133  20.128  35.866   3.589
24874W        W97134  14.730  44.534   4.519
24875W        W97135  19.100   7.183  11.893
24876W        W97136  13.863  34.016  10.739
24877W        W97137  33.348   3.351  11.489
24878W        W97138  38.958  39.177   4.408
24879W        W97139  11.760   5.679   2.680
24880W        W97140  23.164  43.400   4.645
24881W        W97141  35.467  28.256  12.445
24882W        W97142  16.187  24.213   3.196
24883W        W97143  32.382  13.237   3.225
24884W        W97144  35.661   1.794  11.183
24885W        W97145  34.009  24.064  10.475
24886W        W97146  41.115  28.936   0.878
24887W        W97147   8.279  27.120   4.800
24888W        W97148  12.128  21.786   4.053
24889W        W97149   2.943  34.941   4.121
24890W        W97150   9.210   5.380  14.482
24891W        W97151  11.245  41.041   4.264
24892W        W97152  13.124  37.547   1.928
24893W        W97153  42.806   9.915   4.142
24894W        W97154   0.552   6.249  13.785
24895W        W97155  36.236  37.106   3.296
24896W        W97156  38.090  35.031   4.609
24897W        W97157   3.711  34.541   4.126
24898W        W97158  13.584   7.787  11.939
24899W        W97159  39.796  36.041   1.453
24900W        W97160  27.107  39.993   5.362
24901W        W97161  22.497  33.538   1.742
24902W        W97162   9.679  42.521   1.745
24903W        W97163  23.440   0.056   4.155
24904W        W97164  14.869   3.120   0.290
24905W        W97165  42.802  19.088   4.379
24906W        W97166   4.546  28.528  12.941
24907W        W97167  28.914  27.137  13.433
24908W        W97168  32.336  30.911   1.406
24909W        W97169  23.050  21.719  13.569
24910W        W97170  36.428   1.714  10.810
24911W        W97171   2.942  21.559  11.578
24912W        W97172  37.773  31.992   1.744
24913W        W97173  19.243  25.360  11.048
24914W        W97174  10.404  32.596  12.515
24915W        W97175  13.133  29.495   0.904
24916W        W97176  27.618  37.170  12.152
24917W        W97177  36.394   8.588   3.751
24918W        W97178  44.947  18.932   1.541
24919W        W97179   9.233  15.424   2.417
24920W        W97180  40.449   7.985  10.639
24921W        W97181  34.556  28.415   4.284
24922W        W97182  26.532  14.453  12.550
24923W        W97183   8.704  29.493  14.557
24924W        W97184  10.766  29.531   3.190
24925W        W97185   2.036  44.236   2.753
24926W        W97186  44.708  26.620  12.370
24927W        W97187  25.105  37.449  13.516
24928W        W97188  20.822  24.615  13.815
24929W        W97189  14.913  11.080   4.881
24930W        W97190  42.804  35.445  11.737
24931W        W97191  44.327  43.736  12.462
24932W        W97192   3.733  24.729   0.321
24933W        W97193  31.830  22.441  10.090
24934W        W97194  20.807   6.898   1.706
24935W        W97195  35.956  31.105   1.956
24936W        W97196  31.061  21.450   2.757
24937W        W97197  14.500  24.804   5.400
24938W        W97198  22.658  25.483   4.085
24939W        W97199   6.302  15.275  12.438
24940W        W97200   0.822   3.735  12.013
24941W        W97201  40.377  32.954   3.650
24942W        W97202  42.820  25.282   4.268
24943W        W97203  37.661  24.171   1.306
24944W        W97204  26.654  16.015   4.072
24945W        W97205  33.577  34.807   1.436
24946W        W97206  18.102   1.536   0.040
24947W        W97207  13.963  26.784  14.427
24948W        W97208  13.759  28.140   2.325
24949W        W97209  29.752  18.803   5.067
24950W        W97210  12.678  27.690  13.776
24951W        W97211  22.144   8.326   4.433
24952W        W97212  41.954   1.676  10.757
24953W        W97213  35.951  12.917  11.396
24954W        W97214   2.327   2.882   3.582
24955W        W97215  24.158  16.317  14.271
24956W        W97216  10.285  11.401   0.034
24957W        W97217  22.216  14.801  13.635
24958W        W97218  43.279  41.920   2.839
24959W        W97219   1.015  15.251   2.156
24960W        W97220  15.107   5.435   0.439
24961W        W97221  21.698  35.510  11.917
24962W        W97222  16.198  32.506   1.409
24963W        W97223  43.765   4.418   1.330
24964W        W97224  35.122  24.433   1.817
24965W        W97225  39.528  19.591  12.735
24966W        W97226  33.003   8.673  13.305
24967W        W97227   4.989  33.557  11.593
24968W        W97228  38.984  14.247   2.778
24969W        W97229   0.835  21.475  11.147
24970W        W97230   7.958   0.738   2.291
24971W        W97231  26.472   9.010   1.374
24972W        W97232  30.355  10.403  13.721
24973W        W97233  13.567  36.352  13.236
24974W        W97234  20.200  39.479   4.633
24975W        W97235  21.702  36.435   4.433
24976W        W97236  28.070   8.886   1.328
24977W        W97237   9.370  10.519  14.471
24978W        W97238  20.937  29.072  13.079
24979W        W97239   8.407  31.741  12.517
24980W        W97240  27.147  13.740   1.793
24981W        W97241  24.386   2.756  11.955
24982W        W97242  39.321   2.950  10.686
24983W        W97243  38.406   0.864  13.359
24984W        W97244  30.925  38.870   2.847
24985W        W97245  33.449  42.627   4.643
24986W        W97246  38.605   9.456   1.158
24987W        W97247  26.092  29.084  14.243
24988W        W97248  20.617  23.345  10.806
24989W        W97249  33.307   8.222   4.115
24990W        W97250  42.859  15.276   0.851
24991W        W97251  43.382  41.785  13.253
24992W        W97252   1.007  10.620   3.156
24993W        W97253  24.256  23.041  13.387
24994W        W97254  11.649  40.264  11.126
24995W        W97255  13.100   6.423   1.825
24996W        W97256  33.083  32.719  12.006
24997W        W97257  29.227   1.438   4.492
24998W        W97258  38.927  10.973   2.790
24999W        W97259   7.733  24.060   0.855
25000W        W97260  20.530  44.413  10.701
25001W        W97261   4.182  38.154   2.321
25002W        W97262  43.850  19.341  11.904
25003W        W97263  32.590  29.186  14.491
25004W        W97264  17.258  24.477   3.769
25005W        W97265   1.301  14.891   0.986
25006W        W97266  11.243  44.285   2.279
25007W        W97267   5.683  19.798   4.019
25008W        W97268  31.112  40.810  14.520
25009W        W97269  25.525  24.432   4.049
25010W        W97270  29.618  39.906  11.113
25011W        W97271  29.652  19.260   3.750
25012W        W97272   9.441  29.491   1.810
25013W        W97273   4.547  13.733   1.760
25014W        W97274  16.457  37.514  10.789
25015W        W97275  31.007  18.865   0.998
25016W        W97276   9.125   3.818  10.415
25017W        W97277  31.547  12.139   2.721
25018W        W97278  42.048   4.741   1.765
25019W        W97279  21.112  16.814  14.308
25020W        W97280   4.531  13.662  11.190
25021W        W97281  39.631   3.160  11.624
25022W        W97282  27.967  12.919  14.886
25023W        W97283   9.720   7.486  14.819
25024W        W97284  39.414  14.067  12.463
25025W        W97285   1.924  24.755  12.032
25026W        W97286  42.764   4.921   0.690
25027W        W97287  11.956  15.076  14.279
25028W        W97288  42.330  41.933  10.467
25029W        W97289   7.421  35.785  13.343
25030W        W97290  31.604   7.833   1.125
25031W        W97291  20.003  39.571  11.654
25032W        W97292  39.874  25.202   1.363
25033W        W97293  37.130   5.207  14.551
25034W        W97294  14.128  36.457  11.035
25035W        W97295  44.333  17.547   1.868
25036W        W97296  43.570   1.383   3.732
25037W        W97297   2.675   3.173  13.393
25038W        W97298  42.529  27.037   3.317
25039W        W97299   1.837  30.215  12.740
25040W        W97300  31.492  22.838  14.714
25041W        W97301  43.846  17.047   2.269
25042W        W97302   3.334   2.325   1.284
25043W        W97303  22.536  19.350   2.294
25044W        W97304  30.465  26.579  12.584
25045W        W97305  39.956   3.840  12.124
25046W        W97306  32.110  33.073  12.588
25047W        W97307  43.756  17.593  11.510
25048W        W97308  14.608  22.201   2.139
25049W        W97309  32.962   0.108  13.530
25050W        W97310   4.349  35.764   2.239
25051W        W97311  24.536  20.251  10.699
25052W        W97312  12.091  26.429  11.951
25053W        W97313  17.838  35.795  12.023
25054W        W97314  44.275   2.767   1.172
25055W        W97315  14.346  20.701   0.082
25056W        W97316   9.773  27.191  12.921
25057W        W97317  38.504  21.049   1.711
25058W        W97318  11.243  41.735   3.187
25059W        W97319  14.678  41.431   4.554
25060W        W97320   7.676  36.308   1.119
25061W        W97321   8.764  22.148   2.640
25062W        W97322   9.155  33.028   3.633
25063W        W97323  40.942   9.590  10.585
25064W        W97324  13.818   3.354   4.066
25065W        W97325  33.236  36.297  14.263
25066W        W97326  39.945  16.641  14.832
25067W        W97327  23.765  10.893  12.874
25068W        W97328  18.522  36.773  11.445
25069W        W97329   7.210  13.361   1.272
25070W        W97330   3.524  10.379  11.559
25071W        W97331  15.399  42.018  14.913
25072W        W97332  22.205  33.877   2.084
25073W        W97333  38.836  20.235   1.257
25074W        W97334  36.648  18.134   2.177
25075W        W97335   2.947  18.823   2.794
25076W        W97336  15.444  40.043  14.848
25077W        W97337  30.106  35.049  14.277
25078W        W97338   1.717  24.637   4.412
25079W        W97339  10.300   4.045   4.736
25080W        W97340   4.885  34.559  10.698
25081W        W97341  40.283  18.126  13.080
25082W        W97342  27.935  42.052  12.387
25083W        W97343  15.521   9.655  11.294
25084W        W97344   0.536   4.361  14.225
25085W        W97345  23.034   4.010   2.206
25086W        W97346  40.392  43.810  10.703
25087W        W97347  19.594  20.856  10.580
25088W        W97348  12.026  17.302   0.408
25089W        W97349  15.020  37.076   4.109
25090W        W97350  11.651  35.378   0.354
25091W        W97351   8.704  36.968   3.635
25092W        W97352   4.725  35.242  14.250
25093W        W97353  24.955   7.738   3.263
25094W        W97354   2.755  20.118   1.827
25095W        W97355   8.576  29.059  13.427
25096W        W97356   1.886  15.331  12.394
25097W        W97357  28.381  14.634  14.463
25098W        W97358  44.348  33.516   3.258
25099W        W97359  18.066  33.618   2.769
25100W        W97360   7.918  40.370  11.737
25101W        W97361  25.520  33.514  12.373
25102W        W97362  27.593  32.558  14.303
25103W        W97363  38.049   7.610   0.164
25104W        W97364  40.870  28.049  10.751
25105W        W97365  10.755  23.557   1.531
25106W        W97366  19.708  24.587   0.658
25107W        W97367   9.193   6.826  14.389
25108W        W97368   2.335  33.108   4.683
25109W        W97369   8.658  11.772   2.293
25110W        W97370  10.067  35.814  12.893
25111W        W97371   1.239  23.550   3.409
25112W        W97372  19.082  44.430   0.087
25113W        W97373  24.717  12.583   4.472
25114W        W97374  33.136  25.566  12.420
25115W        W97375  30.393   2.681  11.856
25116W        W97376  33.649   3.443   3.547
25117W        W97377  25.027  22.956  14.690
25118W        W97378  28.426  20.940   1.220
25119W        W97379  23.727  34.105   0.699
25120W        W97380   4.014  22.108   1.004
25121W        W97381  22.179   3.472   1.916
25122W        W97382  22.300  20.464   2.163
25123W        W97383  36.753   7.620   4.954
25124W        W97384   7.105  21.699   0.888
25125W        W97385  44.526  35.351  12.890
25126W        W97386  33.054  11.841  13.480
25127W        W97387  26.272   9.880  12.726
25128W        W97388  38.817  14.655   0.384
25129W        W97389   5.861   8.095  10.769
25130W        W97390  18.789   4.876  10.309
25131W        W97391   3.158   4.869   1.357
25132W        W97392  21.275  14.607  14.059
25133W        W97393  42.446  23.264  14.124
25134W        W97394  11.354  21.168  13.176
25135W        W97395  22.262  14.069  12.407
25136W        W97396   6.822  12.585  10.384
25137W        W97397  21.479  42.399  13.520
25138W        W97398  40.752  14.418   0.403
25139W        W97399   2.822  34.344  11.274
25140W        W97400  11.569  32.978  13.919
25141W        W97401  37.343  23.930  12.903
25142W        W97402  33.065  20.106   3.380
25143W        W97403  20.965  40.939  11.237
25144W        W97404  31.424  29.075   2.773
25145W        W97405  37.034  28.570   0.237
25146W        W97406  22.372  39.586   4.271
25147W        W97407  17.025  13.305   0.022
25148W        W97408  42.957   4.807   1.931
25149W        W97409  14.391  19.516   0.708
25150W        W97410  17.222   6.764  12.293
25151W        W97411  44.418   6.086   1.308
25152W        W97412   7.021  43.179  12.072
25153W        W97413  40.380   5.901   4.147
25154W        W97414  17.615  30.494   0.251
25155W        W97415  14.347  29.915   9.990
25156W        W97416   5.212  23.465   4.610
25157W        W97417  42.469  29.863  10.675
25158W        W97418  34.466  20.196  12.478
25159W        W97419  44.959  20.447   1.011
25160W        W97420   2.557   0.818   0.634
25161W        W97421  37.908  32.993  12.888
25162W        W97422  44.972  36.496   2.669
25163W        W97423  33.025  27.802  13.812
25164W        W97424  11.679   7.707  11.109
25165W        W97425  34.317  35.553   3.685
25166W        W97426  12.853  28.307   4.734
25167W        W97427  14.832  35.077  13.699
25168W        W97428   7.641  34.064  10.760
25169W        W97429   9.673  44.855   0.760
25170W        W97430   3.037  37.338   4.151
25171W        W97431  39.302  13.817   4.398
25172W        W97432  15.588  39.916  14.313
25173W        W97433  39.327   1.887   1.245
25174W        W97434  26.138  23.444   0.965
25175W        W97435  15.357  16.059   3.263
25176W        W97436  11.016  35.854  12.508
25177W        W97437  42.333  28.312  11.052
25178W        W97438  26.028  42.330   5.533
25179W        W97439   0.985   1.419   2.754
25180W        W97440  29.608  20.655   1.670
25181W        W97441  43.995  39.893   4.275
25182W        W97442  10.699   8.419   1.318
25183W        W97443  38.445  15.368  11.112
25184W        W97444  43.049  34.993   5.013
25185W        W97445  35.662  41.076   2.358
25186W        W97446  41.455  40.967   2.063
25187W        W97447  41.762  22.679   5.130
25188W        W97448  26.489  23.033   0.862
25189W        W97449  29.731  16.643  12.967
25190W        W97450  14.979  41.971  13.902
25191W        W97451  36.964   1.121  12.770
25192W        W97452   1.941   8.253  13.555
25193W        W97453  28.681  13.979  13.576
25194W        W97454   0.754  36.418  12.828
25195W        W97455  37.866   4.819  11.220
25196W        W97456  34.195   6.772   2.243
25197W        W97457  13.644  15.537   5.084
25198W        W97458  34.030  31.109   4.368
25199W        W97459  33.607  42.477   1.216
25200W        W97460   5.264  19.177   3.730
25201W        W97461   9.809  26.143   4.622
25202W        W97462  12.736  36.317   0.359
25203W        W97463  11.622  24.580   1.414
25204W        W97464  39.294   2.193   4.068
25205W        W97465  12.191  13.231  11.935
25206W        W97466  12.353  14.680  11.685
25207W        W97467  25.615  31.260  13.525
25208W        W97468  43.256  39.889   3.688
25209W        W97469   5.156  12.810   2.357
25210W        W97470  30.336  20.147   1.339
25211W        W97471  27.419  41.318   0.256
25212W        W97472  39.522  33.901  11.191
25213W        W97473  30.159   3.888  13.464
25214W        W97474   7.215   6.220   2.737
25215W        W97475  33.006   9.350   4.428
25216W        W97476  42.472  14.557  11.470
25217W        W97477  12.291  42.439   1.810
25218W        W97478  24.464  36.397  11.127
25219W        W97479  19.878  32.591   3.789
25220W        W97480  27.750   1.892   2.199
25221W        W97481  39.308   8.309   3.618
25222W        W97482  11.641  30.642   2.738
25223W        W97483  27.474  44.276  11.036
25224W        W97484  21.436  14.362   1.844
25225W        W97485  14.334  17.054   0.712
25226W        W97486  12.886  29.148   3.657
25227W        W97487  42.339  14.586  14.509
25228W        W97488  41.987  24.000   3.186
25229W        W97489   8.963   8.956   1.238
25230W        W97490  34.873  30.834   0.732
25231W        W97491   0.888  22.346  10.678
25232W        W97492  20.602  16.719   4.966
25233W        W97493   6.653   9.391   1.416
25234W        W97494  39.955  40.930  12.518
25235W        W97495  14.481   1.227  13.534
25236W        W97496  28.680   7.419   1.829
25237W        W97497  18.694   8.287  14.066
25238W        W97498  38.866  26.674   5.133
25239W        W97499   1.363  31.912   3.168
25240W        W97500  33.244  28.965   1.253
25241W        W97501  28.640  23.455   1.484
25242W        W97502  31.073  22.652   2.983
25243W        W97503  21.506  41.816   4.913
25244W        W97504  43.219  22.281  10.533
25245W        W97505   8.936   0.173   2.277
25246W        W97506  43.788   5.093  13.364
25247W        W97507  36.575  37.899  14.882
25248W        W97508  31.558   5.514  11.420
25249W        W97509  44.236   3.901  14.332
25250W        W97510  20.927   0.546   0.990
25251W        W97511  41.802  21.994  12.871
25252W        W97512  16.522   3.888  11.193
25253W        W97513  10.035  14.129  13.978
25254W        W97514  28.438  33.450   1.457
25255W        W97515  25.273  15.858  14.772
25256W        W97516  27.909  31.914  10.463
25257W        W97517  41.563  31.359   2.749
25258W        W97518   7.994  21.056  14.396
25259W        W97519  14.750  16.145  14.756
25260W        W97520   3.238   9.372  14.957
25261W        W97521  42.864  31.979  12.591
25262W        W97522  39.840   2.999   3.489
25263W        W97523  14.307  22.126   0.518
25264W        W97524  10.710  11.370   2.378
25265W        W97525  35.868  38.963   1.018
25266W        W97526  25.995  36.626   0.773
25267W        W97527  39.026  30.896   1.956
25268W        W97528  23.740  21.481  12.395
25269W        W97529  31.452   0.727  13.958
25270W        W97530  41.960  16.059  12.914
25271W        W97531  30.591   3.147   1.173
25272W        W97532   6.365  38.090   4.658
25273W        W97533  32.525  16.681   0.685
25274W        W97534  33.081   8.957  11.158
25275W        W97535  30.140  36.833   4.268
25276W        W97536  17.275  34.083   3.587
25277W        W97537   1.223  39.417  14.769
25278W        W97538  40.288  44.346  14.964
25279W        W97539  16.014   7.673   4.639
25280W        W97540  42.751  35.439  13.130
25281W        W97541  18.827  28.347  11.303
25282W        W97542   2.109   6.969  11.684
25283W        W97543  25.708  23.974  14.282
25284W        W97544   8.816  19.188  14.246
25285W        W97545  44.888   9.337   1.867
25286W        W97546  35.584  20.485  14.870
25287W        W97547  30.614  17.517   3.505
25288W        W97548  11.527  10.563  14.928
25289W        W97549   5.935  12.123   0.832
25290W        W97550  25.474  35.880  11.542
25291W        W97551  34.132   9.165  11.944
25292W        W97552  38.330  37.496  11.530
25293W        W97553  18.290  34.813  14.866
25294W        W97554   5.464  44.859  12.382
25295W        W97555  44.848  25.335  12.824
25296W        W97556  26.658  37.434   1.475
25297W        W97557  36.720   9.199  10.219
25298W        W97558  37.001  26.720  14.934
25299W        W97559  43.878  37.603  12.982
25300W        W97560  12.100  16.090  10.635
25301W        W97561   1.456  34.532  11.528
25302W        W97562  14.411   6.948   1.215
25303W        W97563  25.441  39.485   2.159
25304W        W97564  37.794   1.322   2.749
25305W        W97565   7.187  40.932  12.045
25306W        W97566  32.234   5.079   1.711
25307W        W97567  24.972   0.626   1.507
25308W        W97568  36.327  32.035  12.541
25309W        W97569  40.994  40.778   1.201
25310W        W97570  13.282  27.585   0.920
25311W        W97571  30.054  13.025  14.488
25312W        W97572  28.272  18.042  10.190
25313W        W97573  25.436   7.646  11.636
25314W        W97574  44.782   8.953   0.324
25315W        W97575  17.983  21.973  12.221
25316W        W97576  28.613   2.133   3.240
25317W        W97577   5.091  32.657   2.767
25318W        W97578  28.920  25.610   2.824
25319W        W97579  39.352   5.919   1.044
25320W        W97580  12.628   9.424  11.534
25321W        W97581  17.609   2.265  11.454
25322W        W97582  19.549  17.109   2.373
25323W        W97583  31.263  22.519   4.716
25324W        W97584   6.419  11.661   3.667
25325W        W97585   7.199  26.343  10.102
25326W        W97586  10.426  41.459   2.090
25327W        W97587  42.752  26.898  13.546
25328W        W97588  36.353  23.339  12.637
25329W        W97589  22.193   0.849  10.688
25330W        W97590  41.846   2.445  10.926
25331W        W97591  35.513  43.512   3.791
25332W        W97592  30.612  26.959  13.886
25333W        W97593  41.412  33.677  10.710
25334W        W97594  21.133  38.036   1.226
25335W        W97595  21.235  15.876   2.235
25336W        W97596  15.581  23.495   0.831
25337W        W97597  10.376  22.934   4.570
25338W        W97598  36.999  35.043  12.651
25339W        W97599  41.212  43.851   3.323
25340W        W97600  35.155  11.217  12.119
25341W        W97601  39.508  29.604   1.741
25342W        W97602  18.186  29.635   4.127
25343W        W97603  19.852   0.729  13.887
25344W        W97604  36.570   7.635  11.488
25345W        W97605  36.631  27.669   1.727
25346W        W97606  42.722  29.701   3.224
25347W        W97607   2.537   7.330  13.138
25348W        W97608  32.047  23.528  14.559
25349W        W97609  25.170  30.993  11.655
25350W        W97610  25.500  28.510  13.268
25351W        W97611   9.778  32.901   1.121
25352W        W97612   6.639  11.252   0.156
25353W        W97613  26.628  18.817  12.913
25354W        W97614  24.749  21.889  11.158
25355W        W97615  32.080  39.499  13.684
25356W        W97616  15.141  40.360  13.171
25357W        W97617  42.881   4.310   2.115
25358W        W97618  15.813   5.602  10.214
25359W        W97619  42.875  13.440   5.179
25360W        W97620   1.153  21.231  12.486
25361W        W97621  11.266  15.829   2.824
25362W        W97622   0.973  19.224   2.718
25363W        W97623  38.762  40.055   4.172
25364W        W97624  39.862  13.571   2.828
25365W        W97625  43.846  13.590   0.403
25366W        W97626   0.846  31.172  13.843
25367W        W97627  25.154  19.318   0.947
25368W        W97628  13.736  28.573  11.208
25369W        W97629  17.688  43.278   2.083
25370W        W97630   5.334  41.977   3.128
25371W        W97631  16.988  20.546  14.388
25372W        W97632  15.149   0.693   1.279
25373W        W97633  16.794  29.371  14.924
25374W        W97634   9.343  43.032  13.528
25375W        W97635  10.378  41.739  12.127
25376W        W97636  12.799  19.307   1.265
25377W        W97637  25.762  38.233   0.736
25378W        W97638   0.417  36.989  14.533
25379W        W97639  12.192  34.869  13.684
25380W        W97640   6.453  28.931  10.664
25381W        W97641  13.245  15.591  12.521
25382W        W97642   0.030  41.288  11.024
25383W        W97643   7.783  11.073   1.156
25384W        W97644   2.010  20.615  13.947
25385W        W97645  36.429  34.418   4.558
25386W        W97646  42.017  32.746   2.839
25387W        W97647  18.156  25.526  13.987
25388W        W97648  23.529  18.207  12.401
25389W        W97649   2.201  44.298  13.728
25390W        W97650  33.591   3.953  12.192
25391W        W97651  22.645  19.352   1.454
25392W        W97652  26.188  29.162   0.329
25393W        W97653  29.444  23.813  14.020
25394W        W97654   7.303  11.554   0.962
25395W        W97655  33.667  30.913  10.604
25396W        W97656   4.735  34.485   0.933
25397W        W97657  26.971  13.053   2.713
25398W        W97658  12.586  18.293  14.174
25399W        W97659   2.424  25.466   3.024
25400W        W97660  19.999  15.276   1.345
25401W        W97661  23.773  23.695   3.774
25402W        W97662  31.885  28.164   3.640
25403W        W97663  27.026  20.998  10.587
25404W        W97664  16.188  10.002  11.194
25405W        W97665  44.921  44.552   0.687
25406W        W97666   7.021  27.654  11.436
25407W        W97667  42.711   5.234   3.325
25408W        W97668  32.145  15.023  13.037
25409W        W97669  40.725  25.682   1.926
25410W        W97670  13.120  42.563   2.324
25411W        W97671  23.160  42.470  11.542
25412W        W97672  16.163  36.623  10.522
25413W        W97673  44.469   2.415   1.971
25414W        W97674  25.142  27.189  10.879
25415W        W97675  41.785   5.815   1.791
25416W        W97676  28.144  23.255  13.648
25417W        W97677  16.590   3.881   3.714
25418W        W97678  25.560  16.501   4.388
25419W        W97679  34.412  29.706  14.810
25420W        W97680  14.185  28.420  14.253
25421W        W97681  11.274  30.424   3.007
25422W        W97682  39.463  23.252   0.249
25423W        W97683   9.227  34.031   0.945
25424W        W97684  43.852   0.975  10.390
25425W        W97685  18.008  38.912  12.634
25426W        W97686  26.033  20.456   4.486
25427W        W97687  41.585   6.865   0.317
25428W        W97688   5.406  24.010  11.130
25429W        W97689  39.311  14.333  13.354
25430W        W97690  29.484   7.303   3.121
25431W        W97691  36.875  34.642  12.968
25432W        W97692  19.092  27.659   1.682
25433W        W97693  17.697  30.043   1.471
25434W        W97694  13.133  42.866  12.532
25435W        W97695  25.969  10.404  11.500
25436W        W97696  37.986  19.588   0.980
25437W        W97697  21.287  36.992   4.579
25438W        W97698  16.243  31.468  14.419
25439W        W97699  10.958  42.575   2.831
25440W        W97700  11.142  31.355  14.020
25441W        W97701  33.929  34.837  11.526
25442W        W97702  34.580   4.213  13.457
25443W        W97703  25.479  44.327  13.857
25444W        W97704  37.474  11.300   4.555
25445W        W97705  10.587   9.321  11.485
25446W        W97706  36.555  25.670  13.079
25447W        W97707  21.355  32.182  10.392
25448W        W97708   9.654  17.714   0.976
25449W        W97709  13.123   4.267   3.815
25450W        W97710  43.912   0.767  12.352
25451W        W97711  21.040   4.940  14.470
25452W        W97712  25.203  26.421   0.612
25453W        W97713  16.814  27.505   4.153
25454W        W97714   4.233   8.029   1.456
25455W        W97715  20.901  40.641  11.945
25456W        W97716  38.763  12.369   0.325
25457W        W97717   4.754   7.326   1.911
25458W        W97718  11.246  31.183  13.535
25459W        W97719  37.429  38.348   4.543
25460W        W97720   0.736  33.424  14.469
25461W        W97721  30.149  30.961   0.090
25462W        W97722  31.194  15.876   3.722
25463W        W97723   1.921  27.612   0.767
25464W        W97724  42.091   1.951  11.162
25465W        W97725  30.481  17.524  14.172
25466W        W97726  25.370  41.911   0.879
25467W        W97727  20.631  17.591  14.737
25468W        W97728  17.385  39.494   0.897
25469W        W97729   4.870  18.162   9.862
25470W        W97730  37.428   1.668  14.111
25471W        W97731  12.147   7.950  11.107
25472W        W97732   1.670  27.563   0.282
25473W        W97733  38.531  27.971   4.641
25474W        W97734  42.440  26.122   2.194
25475W        W97735  20.802  35.894  11.565
25476W        W97736  38.059  12.470   4.170
25477W        W97737  36.084  17.845  13.092
25478W        W97738  31.153  43.822   4.495
25479W        W97739  16.673  19.986   3.978
25480W        W97740   3.992  31.725   2.752
25481W        W97741  34.960   6.703   0.789
25482W        W97742   7.137   3.210  12.204
25483W        W97743  12.264   2.187   0.973
25484W        W97744   0.500   1.321  14.295
25485W        W97745  18.238  11.736  12.456
25486W        W97746  24.978  36.593   1.896
25487W        W97747  12.866   9.330  14.317
25488W        W97748  40.395  31.112  14.819
25489W        W97749  30.536  13.630  12.865
25490W        W97750  16.348   3.146  11.706
25491W        W97751  41.126  32.097  12.412
25492W        W97752  13.837   2.636   2.834
25493W        W97753  42.363   1.147   0.184
25494W        W97754  25.917   8.651  10.528
25495W        W97755  30.161  32.813  14.306
25496W        W97756  10.654  13.263   0.983
25497W        W97757  17.669  25.269  12.911
25498W        W97758   4.545  28.796  10.119
25499W        W97759  41.460  34.091   2.178
25500W        W97760   6.413  33.295  12.942
25501W        W97761  13.584   4.476   0.733
25502W        W97762  20.762  23.001   1.543
25503W        W97763  13.233  36.432   1.984
25504W        W97764  26.957  12.849   1.984
25505W        W97765   5.386  10.314   1.882
25506W        W97766  26.164   2.782  14.346
25507W        W97767  34.050  38.501   3.272
25508W        W97768  38.898  27.687  10.682
25509W        W97769   6.247  40.065  10.496
25510W        W97770   4.547   0.835  12.728
25511W        W97771  28.909  21.182  12.085
25512W        W97772  43.188  42.478  11.248
25513W        W97773   2.979  33.953  12.013
25514W        W97774  22.059  15.994   3.761
25515W        W97775  11.681  30.482   4.645
25516W        W97776  26.007  22.554   1.975
25517W        W97777   0.740  27.190   4.138
25518W        W97778  35.321  26.876   3.379
25519W        W97779  43.556  36.076   0.519
25520W        W97780  13.140  28.128  11.050
25521W        W97781  16.057  43.401  14.528
25522W        W97782   2.960  33.950   3.250
25523W        W97783   1.984  20.222   1.235
25524W        W97784  44.942  20.744  12.873
25525W        W97785  13.831  37.840  13.119
25526W        W97786  18.283   5.867  12.134
25527W        W97787  39.416  11.873   4.457
25528W        W97788  32.733  26.501  13.460
25529W        W97789  19.421   8.214  12.588
25530W        W97790  41.799   3.181   4.151
25531W        W97791  35.064  17.607   1.773
25532W        W97792  29.484  16.161  14.823
25533W        W97793  15.665  36.929   0.732
25534W        W97794  11.190   6.819  14.260
25535W        W97795  41.460  43.889  13.000
25536W        W97796  38.836  21.082  14.301
25537W        W97797   1.308  35.500  10.414
25538W        W97798  22.000  15.631   4.604
25539W        W97799  31.505  16.855  12.950
25540W        W97800   3.249   1.968   1.661
25541W        W97801  37.969  42.949   2.838
25542W        W97802   3.239  39.256  13.865
25543W        W97803   5.204   2.734  13.776
25544W        W97804   1.807  17.564   4.438
25545W        W97805   9.882   2.694  13.982
25546W        W97806  38.314  19.008   4.524
25547W        W97807  39.229   7.206  11.972
25548W        W97808  24.221  16.224  10.689
25549W        W97809  22.975  14.629   0.582
25550W        W97810   1.841  20.143  14.102
25551W        W97811  22.467  23.287   0.748
25552W        W97812  40.476  28.644  11.991
25553W        W97813  15.811  28.101   4.418
25554W        W97814  24.486   5.627  12.974
25555W        W97815  20.009   9.577  13.430
25556W        W97816  22.773  21.659   5.540
25557W        W97817  43.727  41.039  12.965
25558W        W97818  13.688  36.885   3.009
25559W        W97819  35.064  15.296   3.656
25560W        W97820  19.689  44.978   3.608
25561W        W97821  15.717  34.574  13.904
25562W        W97822  35.806  11.373   1.319
25563W        W97823  19.962  13.545  11.092
25564W        W97824  31.017  15.171   1.338
25565W        W97825   4.472   9.952  14.317
25566W        W97826  12.593  36.048   2.276
25567W        W97827  37.673  31.737   0.861
25568W        W97828   4.017  19.025   2.393
25569W        W97829  36.904  16.173   2.882
25570W        W97830   5.511  18.490   4.538
25571W        W97831  22.462  41.045   0.017
25572W        W97832  22.026  18.431  11.511
25573W        W97833   8.854  21.252   2.126
25574W        W97834  13.304  24.254   1.788
25575W        W97835  15.207  23.308   1.968
25576W        W97836  20.730  43.331   1.911
25577W        W97837  36.457  41.385  11.203
25578W        W97838  44.097  16.739   4.487
25579W        W97839  34.597  28.339   0.521
25580W        W97840  16.725  39.562   2.368
25581W        W97841  38.162  33.152  11.119
25582W        W97842  15.148  34.888   0.911
25583W        W97843   3.932  24.633  12.970
25584W        W97844   2.094  17.213  12.956
25585W        W97845  43.897  24.952  14.487
25586W        W97846  34.444  13.130   2.710
25587W        W97847  17.622  11.278   2.682
25588W        W97848  43.308  25.139  11.511
25589W        W97849  42.080  19.604  11.537
25590W        W97850  12.886   2.568   3.185
25591W        W97851   2.899  35.936  13.960
25592W        W97852  26.652  41.815   1.602
25593W        W97853  39.055  13.435   3.387
25594W        W97854  37.395  44.714  14.236
25595W        W97855  21.156  41.442  12.999
25596W        W97856  13.444  28.003  10.641
25597W        W97857  29.158  30.595   2.176
25598W        W97858  24.255  30.137   4.600
25599W        W97859   1.809   5.310   1.378
25600W        W97860  44.919  31.668  11.043
25601W        W97861  29.655  10.153  12.987
25602W        W97862  35.184  33.410  11.369
25603W        W97863  17.279  33.824  11.031
25604W        W97864   3.670  44.776   2.881
25605W        W97865  36.841  12.674   1.774
25606W        W97866  23.106   4.706  12.508
25607W        W97867  32.798  11.307   1.351
25608W        W97868  41.099  15.216   2.690
25609W        W97869  16.782  34.532  11.141
25610W        W97870  44.851  31.398  13.310
25611W        W97871   7.250  34.408  10.753
25612W        W97872  25.509   1.410   4.145
25613W        W97873  34.640   8.304   0.679
25614W        W97874  13.635  12.211   3.484
25615W        W97875  42.409   1.422  11.965
25616W        W97876  10.362  14.996  13.740
25617W        W97877  34.296  13.621  14.477
25618W        W97878   1.265  31.049   0.793
25619W        W97879  17.592  43.869  10.549
25620W        W97880  30.051  20.783  10.593
25621W        W97881  15.681  14.206   4.631
25622W        W97882  38.263   9.947  11.989
25623W        W97883   7.348  21.771  13.440
25624W        W97884  31.109   6.908   3.075
25625W        W97885  14.083  29.919  13.384
25626W        W97886  44.903  41.841  11.863
25627W        W97887  39.839  42.838  12.846
25628W        W97888  39.839   7.561   2.198
25629W        W97889  13.351  20.199  14.515
25630W        W97890   0.015   2.783  14.926
25631W        W97891  41.304  42.437   4.502
25632W        W97892  43.767  31.775  14.625
25633W        W97893  18.658  14.830  10.863
25634W        W97894  34.865  26.608  14.429
25635W        W97895   5.375  26.004  12.047
25636W        W97896  10.616  14.318  12.835
25637W        W97897   8.646   0.145  14.015
25638W        W97898  29.398  25.189   2.825
25639W        W97899  26.147  44.809  14.417
25640W        W97900   3.718  28.931   3.438
25641W        W97901  42.383  14.069  12.527
25642W        W97902   3.732  35.473   4.185
25643W        W97903  11.634   2.654   1.452
25644W        W97904  14.234  24.045  14.265
25645W        W97905   6.681  16.953  13.451
25646W        W97906  19.856  40.547  10.489
25647W        W97907  35.940  15.711   4.377
25648W        W97908  34.778  34.539   3.666
25649W        W97909   4.467  36.525   3.616
25650W        W97910  19.266  26.263  13.479
25651W        W97911  29.473   7.775   2.815
25652W        W97912   4.281  21.753   1.490
25653W        W97913   0.882  22.385  13.905
25654W        W97914  36.459  33.178  13.344
25655W        W97915  28.207   5.875   3.664
25656W        W97916  32.637  10.243  12.939
25657W        W97917   4.480  42.497  13.350
25658W        W97918  24.253   4.666  11.003
25659W        W97919   6.962  22.791  13.991
25660W        W97920  37.841   8.942   5.037
25661W        W97921   2.154  37.021   2.843
25662W        W97922  41.295  25.129   1.341
25663W        W97923  40.088  31.011   1.823
25664W        W97924   7.455  19.769  14.760
25665W        W97925  36.917  15.773   2.568
25666W        W97926  17.610  44.212   0.824
25667W        W97927  10.710  24.791  14.999
25668W        W97928  32.545  23.997  10.611
25669W        W97929   8.111  34.975  11.815
25670W        W97930  16.816  21.097   3.577
25671W        W97931  17.021  33.998   4.035
25672W        W97932  42.446  21.805  10.581
25673W        W97933  26.611  22.181  13.306
25674W        W97934   5.329  35.853   3.245
25675W        W97935  23.564  37.067   4.356
25676W        W97936  35.909  27.973   5.441
25677W        W97937  23.764  39.332   3.159
25678W        W97938  10.753  27.825  13.904
25679W        W97939  35.273  30.185   3.229
25680W        W97940  14.182  22.487  14.046
25681W        W97941   6.771   4.242  14.348
25682W        W97942   3.038  12.344  11.909
25683W        W97943  18.380  37.094   1.473
25684W        W97944  28.111  13.115   2.250
25685W        W97945  16.197  34.537  11.859
25686W        W97946  25.616  36.134  12.031
25687W        W97947  24.127   0.610  14.787
25688W        W97948   9.375  22.574  14.776
25689W        W97949   0.421  44.522  14.336
25690W        W97950  10.669   1.195   0.970
25691W        W97951  18.294   0.811   1.412
25692W        W97952  12.387  25.580   0.886
25693W        W97953  18.197   3.250   4.474
25694W        W97954  31.904   7.757  11.208
25695W        W97955  43.436   9.180   1.494
25696W        W97956  13.694  32.512  11.887
25697W        W97957   8.785  32.642   1.947
25698W        W97958   5.259  43.255   1.843
25699W        W97959  26.733  31.296  13.306
25700W        W97960  19.295  37.143  12.104
25701W        W97961  10.077  27.976  13.008
25702W        W97962  26.544  27.944   0.054
25703W        W97963  12.240   6.164   3.288
25704W        W97964  27.645   2.666  13.311
25705W        W97965  30.030   9.344  12.680
25706W        W97966  18.219  41.843  12.897
25707W        W97967  25.219  39.464  14.839
25708W        W97968  41.696  40.950  10.862
25709W        W97969  24.444  13.887  13.073
25710W        W97970   2.590  29.613  12.472
25711W        W97971  16.668  13.558  13.759
25712W        W97972  29.376  20.583   1.185
25713W        W97973   1.815  12.815   0.278
25714W        W97974   4.845  24.326   0.411
25715W        W97975   4.837  17.392  12.870
25716W        W97976  26.144  34.132   2.738
25717W        W97977  20.679  34.405   4.861
25718W        W97978  41.853  23.088   1.338
25719W        W97979  25.715  39.457  14.947
25720W        W97980  18.994  22.259  10.692
25721W        W97981  38.339  37.741   1.159
25722W        W97982  43.956   6.118  14.841
25723W        W97983  31.157  30.636  14.316
25724W        W97984  33.676  24.717   2.413
25725W        W97985  22.575  14.101   0.818
25726W        W97986   5.314   6.918   3.581
25727W        W97987  19.532  14.320  14.120
25728W        W97988  23.578  33.638  10.658
25729W        W97989  29.941  23.549   0.390
25730W        W97990  17.690  37.023  14.478
25731W        W97991  16.824   3.806  12.441
25732W        W97992   7.276   4.508   2.213
25733W        W97993  44.554  43.397   0.830
25734W        W97994  33.990  22.166  13.834
25735W        W97995   1.402  19.039   4.035
25736W        W97996  11.340  28.200  11.540
25737W        W97997   2.220  31.228  12.121
25738W        W97998  42.993  35.998   0.886
25739W        W97999  10.260  28.254  12.225
25740W        W98000  24.610  42.728   5.173
25741W        W98001  40.339  13.728  13.896
25742W        W98002  38.922   5.282   4.135
25743W        W98003   6.866  32.903  14.273
25744W        W98004  26.220   0.005   1.711
25745W        W98005  43.279  42.930   0.362
25746W        W98006  39.289   7.791   4.550
25747W        W98007   1.375  43.619  13.950
25748W        W98008  39.488   9.061   5.465
25749W        W98009  34.376  33.064   1.329
25750W        W98010  24.875  11.840   0.453
25751W        W98011  16.404  38.980   3.240
25752W        W98012  21.105  42.751   3.817
25753W        W98013  24.029  17.259  11.659
25754W        W98014  31.054  36.309  11.531
25755W        W98015  14.108  40.754  12.456
25756W        W98016  18.048  42.082  10.597
25757W        W98017  31.027  30.388   4.194
25758W        W98018  38.265   3.223   0.339
25759W        W98019  24.724  44.843   3.565
25760W        W98020  40.504  14.853   4.711
25761W        W98021  30.182  24.206  14.382
25762W        W98022  39.837  31.284   1.089
25763W        W98023  18.516  26.810   1.789
25764W        W98024   5.342  22.745  12.963
25765W        W98025  20.491  28.322  12.492
25766W        W98026  30.926  15.158   0.019
25767W        W98027  15.821  35.573  10.912
25768W        W98028   2.505   2.678  12.884
25769W        W98029  20.377  39.034   0.857
25770W        W98030   8.131  42.499   1.849
25771W        W98031  33.634  13.868   2.182
25772W        W98032   4.906  38.078   1.932
25773W        W98033   9.275  23.505  10.330
25774W        W98034  39.152  41.030  14.865
25775W        W98035  23.941   0.388   2.253
25776W        W98036  37.986   8.362   1.436
25777W        W98037  13.804  13.380  14.824
25778W        W98038  27.492  29.913  10.222
25779W        W98039  19.338  28.689   3.031
25780W        W98040  24.898   3.193   2.446
25781W        W98041   4.476  24.013  13.477
25782W        W98042  29.298  32.136   3.771
25783W        W98043  34.615   7.761   0.854
25784W        W98044  28.004  20.394   4.641
25785W        W98045  39.330  39.300   4.071
25786W        W98046  13.703  14.109   3.457
25787W        W98047  11.233  36.263   3.317
25788W        W98048  18.635  34.540  11.908
25789W        W98049  15.743  13.321  13.282
25790W        W98050  23.724  20.550   2.422
25791W        W98051  23.562   5.625   3.184
25792W        W98052  22.207  13.027  11.941
25793W        W98053  16.592  34.998   0.442
25794W        W98054   7.256  18.251  13.340
25795W        W98055  15.047  24.342  12.476
25796W        W98056  14.213  39.530   2.864
25797W        W98057  33.360  32.446   0.985
25798W        W98058   9.443  21.641  12.148
25799W        W98059  39.908  41.511  11.681
25800W        W98060  16.721  23.457  12.170
25801W        W98061   1.997  37.397   3.175
25802W        W98062   2.987  33.359  12.485
25803W        W98063  39.852  33.732  14.291
25804W        W98064  33.636   2.407   3.755
25805W        W98065   7.733  28.547  12.029
25806W        W98066  11.930  17.202  10.210
25807W        W98067  29.397  17.315  13.636
25808W        W98068  38.365  37.610  12.393
25809W        W98069  38.730  39.843   5.010
25810W        W98070   4.384  29.572   0.084
25811W        W98071   5.545  43.122   4.692
25812W        W98072   7.476  25.418   2.369
25813W        W98073  27.286  12.046   1.613
25814W        W98074  32.498   7.392   1.799
25815W        W98075  38.624   8.947   1.269
25816W        W98076  24.546  39.615   1.837
25817W        W98077  30.392   2.250   2.419
25818W        W98078  11.754   6.943   2.788
25819W        W98079  29.626   3.447   2.228
25820W        W98080  25.685  32.094  14.955
25821W        W98081  34.599  38.069   0.359
25822W        W98082  24.642   4.489   2.395
25823W        W98083  34.862  38.286   2.831
25824W        W98084   6.846  44.172  13.920
25825W        W98085  29.951  36.153   1.897
25826W        W98086  31.446  14.061  11.426
25827W        W98087  42.983  28.378  12.490
25828W        W98088  23.244  15.518   1.627
25829W        W98089  44.345  21.457  10.111
25830W        W98090  34.852  12.369  14.416
25831W        W98091  31.437  10.167   2.232
25832W        W98092  37.069  18.121  14.511
25833W        W98093   7.999  36.551  12.624
25834W        W98094  19.921  13.756  10.606
25835W        W98095  15.121  28.142  13.503
25836W        W98096   0.783  14.812  10.989
25837W        W98097  11.826  39.593  13.774
25838W        W98098  10.027   1.590  11.942
25839W        W98099  42.321  42.221   4.498
25840W        W98100  27.625  40.795   1.004
25841W        W98101  21.308   3.349   4.217
25842W        W98102   5.227  35.615   0.418
25843W        W98103  27.651  42.026  14.868
25844W        W98104  23.000  23.258  12.312
25845W        W98105   6.268   0.462  13.881
25846W        W98106  13.262  25.553  10.802
25847W        W98107  28.270   1.912   2.172
25848W        W98108   0.761   1.482   1.793
25849W        W98109  37.818   5.872   3.828
25850W        W98110  32.143  13.338  13.738
25851W        W98111  42.872  29.404   4.702
25852W        W98112  15.144  38.294  14.807
25853W        W98113  19.769   4.449  13.572
25854W        W98114   6.457  10.091   2.795
25855W        W98115  17.637  13.860   4.606
25856W        W98116  30.110   3.037   2.477
25857W        W98117  22.153  21.095   2.995
25858W        W98118   9.758  43.500   2.120
25859W        W98119   8.870  33.992  11.813
25860W        W98120  20.014  35.529  12.614
25861W        W98121  26.403  24.532  13.267
25862W        W98122   4.484  22.124  13.613
25863W        W98123  26.727  44.286   3.706
25864W        W98124  31.400  13.794   4.707
25865W        W98125   5.222   9.385   3.329
25866W        W98126  40.304  12.491  12.280
25867W        W98127  12.234   6.846   0.864
25868W        W98128  43.565  16.499   0.885
25869W        W98129  24.790   2.957   1.217
25870W        W98130   5.246  29.440  13.383
25871W        W98131  20.615  21.794  11.999
25872W        W98132   6.455   8.890   0.317
25873W        W98133   4.442  26.165   0.626
25874W        W98134  36.674  18.196  12.422
25875W        W98135  41.444  43.973   4.641
25876W        W98136  11.668  43.958  12.283
25877W        W98137  44.455   6.744   9.997
25878W        W98138  35.189   4.254  10.831
25879W        W98139  37.788  22.887   1.607
25880W        W98140  29.909  37.301   4.316
25881W        W98141  33.159   4.843  11.069
25882W        W98142   0.427   7.580  13.559
25883W        W98143   8.916  33.376  10.281
25884W        W98144   2.494  31.387   2.749
25885W        W98145   3.393  11.736   3.639
25886W        W98146  24.592  25.751   0.889
25887W        W98147  21.486  29.954   4.289
25888W        W98148  14.770  29.210  10.193
25889W        W98149  11.300  21.495   1.407
25890W        W98150  21.816  20.195  13.757
25891W        W98151  21.018  30.087   4.504
25892W        W98152  13.599  33.906   1.969
25893W        W98153  44.537  17.690   1.295
25894W        W98154   4.464  31.605   1.208
25895W        W98155  27.082  25.160  13.099
25896W        W98156  40.723  32.031  10.248
25897W        W98157  38.078   4.107  10.672
25898W        W98158  15.509  28.662   1.268
25899W        W98159  43.327  25.148   1.417
25900W        W98160  24.144  43.238  11.905
25901W        W98161   5.750  31.420   3.664
25902W        W98162  40.543   4.871  10.179
25903W        W98163  17.831  39.187   0.804
25904W        W98164  31.412  31.141   2.207
25905W        W98165  13.499  36.500  12.743
25906W        W98166  17.039  17.066   1.832
25907W        W98167  16.070   0.308  10.662
25908W        W98168   1.091  41.575   0.717
25909W        W98169  28.844  16.171  13.481
25910W        W98170  44.225  38.656  13.756
25911W        W98171  35.627  44.362  14.047
25912W        W98172  16.826  34.184   0.746
25913W        W98173  30.130  21.344  12.442
25914W        W98174  40.351  25.581  10.674
25915W        W98175  17.183  25.599   0.884
25916W        W98176  20.187  36.189  13.743
25917W        W98177  25.397  41.847   4.950
25918W        W98178  17.571  10.961   1.762
25919W        W98179  28.620   6.267   2.805
25920W        W98180  39.401  42.985  12.595
25921W        W98181  39.845  29.470  14.914
25922W        W98182  34.896  29.873   2.421
25923W        W98183  29.236  16.807   0.727
25924W        W98184  17.341  43.755  14.250
25925W        W98185  25.681  14.284   2.296
25926W        W98186   1.749  18.400  13.501
25927W        W98187  40.228  32.548   1.650
25928W        W98188  24.944  14.468  11.063
25929W        W98189   6.470  29.723  12.381
25930W        W98190  20.488  38.510   0.853
25931W        W98191  11.898  21.211   3.735
25932W        W98192  10.547   5.169   4.174
25933W        W98193  10.299  37.084  13.488
25934W        W98194  44.878   7.800   1.775
25935W        W98195  43.301  32.402   4.089
25936W        W98196  17.110  40.006   0.120
25937W        W98197  26.137   3.240  13.578
25938W        W98198   9.096  36.502   0.888
25939W        W98199  25.432  37.532  11.899
25940W        W98200   0.869  12.136  10.348
25941W        W98201  34.453  44.076   4.631
25942W        W98202   1.450  28.136  10.767
25943W        W98203   7.239  24.548   4.402
25944W        W98204   2.933  43.362   0.381
25945W        W98205  26.034  19.312   3.747
25946W        W98206  21.234  31.418   0.239
25947W        W98207  14.285  13.363   1.964
25948W        W98208  14.723  41.445  13.529
25949W        W98209  28.581  39.354  14.009
25950W        W98210  33.230   5.202   3.637
25951W        W98211  28.763  27.064   2.869
25952W        W98212   5.701  42.387  14.853
25953W        W98213  19.332   0.247  12.576
25954W        W98214  44.508  10.173  14.472
25955W        W98215  36.066  21.736  13.376
25956W        W98216  25.267   5.833  10.692
25957W        W98217  13.259  32.678  14.525
25958W        W98218  27.338   6.266  13.384
25959W        W98219  38.130  36.361   4.284
25960W        W98220  44.440  37.790   0.523
25961W        W98221   1.791  19.694   1.086
25962W        W98222  21.956  14.394   1.606
25963W        W98223   8.992  43.445   0.823
25964W        W98224  12.567  23.630  11.617
25965W        W98225  43.406  25.572  12.877
25966W        W98226  11.881   1.418  14.356
25967W        W98227   5.357  10.368   0.751
25968W        W98228   9.112   9.781  14.815
25969W        W98229   7.346   4.759  11.555
25970W        W98230   9.438   0.402   2.233
25971W        W98231  22.661  40.868   2.730
25972W        W98232  41.468  43.575   1.178
25973W        W98233  27.903  29.212  13.134
25974W        W98234  20.643   0.855  10.416
25975W        W98235  23.639  16.867  11.026
25976W        W98236  24.337  12.737   4.076
25977W        W98237   9.242   1.192  11.303
25978W        W98238  18.127  40.446  13.150
25979W        W98239  30.625  25.083  12.009
25980W        W98240  16.501  36.838  12.536
25981W        W98241   1.670  34.282   2.328
25982W        W98242  31.881   2.335  10.800
25983W        W98243  19.120   8.562  12.945
25984W        W98244  24.137   4.181   3.929
25985W        W98245  28.814  39.082   4.895
25986W        W98246  21.695  28.011   5.632
25987W        W98247  20.761  16.072  11.133
25988W        W98248  16.840  16.684   0.463
25989W        W98249   7.686   1.237   0.947
25990W        W98250  13.769  43.730   2.835
25991W        W98251  18.155  15.652  11.515
25992W        W98252  36.519  31.686   4.622
25993W        W98253  26.209  23.228   3.582
25994W        W98254  13.495  10.944   4.303
25995W        W98255   8.575  39.543   1.899
25996W        W98256  43.072  43.277  12.508
25997W        W98257  22.563  31.695  12.489
25998W        W98258   7.972  24.863  14.397
25999W        W98259  30.799   6.459  10.502
26000W        W98260  32.538  19.269  13.164
26001W        W98261   7.403  39.614  11.643
26002W        W98262  44.187   1.032  14.358
26003W        W98263  37.845  40.393  12.142
26004W        W98264  13.872   3.159  11.108
26005W        W98265  28.264   5.251   4.777
26006W        W98266  31.045   3.794  11.438
26007W        W98267   3.932  21.735   1.921
26008W        W98268   3.749  35.398   0.722
26009W        W98269  12.372  18.091   3.054
26010W        W98270   5.491  19.646  12.135
26011W        W98271  10.865   7.745  12.451
26012W        W98272  44.760  40.563  13.109
26013W        W98273  38.746  11.321  11.730
26014W        W98274  32.009   6.335  13.048
26015W        W98275  27.981  23.500   3.665
26016W        W98276   5.358   1.768   1.286
26017W        W98277  38.332  23.716   0.765
26018W        W98278   4.879  10.699   2.899
26019W        W98279  25.917  43.980   1.041
26020W        W98280  10.366  23.792  11.156
26021W        W98281   3.657  16.162  11.485
26022W        W98282  18.945   2.832  10.690
26023W        W98283  12.392   0.841  11.365
26024W        W98284  34.941  13.096   1.376
26025W        W98285   5.636  21.923  11.962
26026W        W98286  20.769  37.450  11.586
26027W        W98287  30.190   9.539   4.228
26028W        W98288   6.165  27.971   3.065
26029W        W98289  35.148  33.570  10.866
26030W        W98290  40.322  12.653   2.749
26031W        W98291   6.544  31.459  14.698
26032W        W98292   6.788  17.545   0.341
26033W        W98293  22.187  34.034  14.725
26034W        W98294  25.922  30.762  11.288
26035W        W98295  16.251  20.834   2.602
26036W        W98296  39.750  37.886  11.637
26037W        W98297  27.207  15.234  10.944
26038W        W98298  24.207   6.258   5.203
26039W        W98299  17.119  18.231  10.689
26040W        W98300   8.067  13.678   2.765
26041W        W98301  42.063   3.214  14.828
26042W        W98302  43.362   8.706   1.689
26043W        W98303  22.075  41.320   2.243
26044W        W98304  10.587  10.728  14.824
26045W        W98305  42.425  37.365  10.417
26046W        W98306   8.908  35.315  11.642
26047W        W98307  26.585  17.868   4.776
26048W        W98308   7.242  29.234  13.454
26049W        W98309   0.878  38.021  13.024
26050W        W98310  38.311  15.764  13.001
26051W        W98311  35.868   9.616   2.736
26052W        W98312  20.773  15.007   0.469
26053W        W98313  43.628  19.140   3.759
26054W        W98314   2.592  11.568   0.773
26055W        W98315  43.910   3.690  10.750
26056W        W98316   6.956  39.506   2.941
26057W        W98317  14.561  27.586   0.149
26058W        W98318  21.573  14.669   4.574
26059W        W98319   0.759  16.667  13.780
26060W        W98320  44.964  31.632   3.310
26061W        W98321  28.505  21.177   2.152
26062W        W98322  43.943   4.130  11.160
26063W        W98323  19.597  42.941  10.391
26064W        W98324  14.142   2.859  11.475
26065W        W98325  41.910  37.503   2.667
26066W        W98326   6.278  26.516   1.876
26067W        W98327  44.037  32.646   4.088
26068W        W98328  10.535  24.643  14.546
26069W        W98329   7.962  20.248   2.573
26070W        W98330  28.181  12.536  10.276
26071W        W98331  41.948  14.123   4.575
26072W        W98332   9.057   4.928   4.662
26073W        W98333  27.464  30.998   0.918
26074W        W98334   2.760  23.070   1.346
26075W        W98335  27.894   4.855   1.259
26076W        W98336  34.001   4.290   0.373
26077W        W98337  10.662   4.281   2.062
26078W        W98338  27.490  32.947  12.402
26079W        W98339  40.740  32.009   3.774
26080W        W98340  19.667  22.574  12.703
26081W        W98341  29.669  25.479   4.224
26082W        W98342  26.388   2.546  12.411
26083W        W98343   3.160  13.680  12.570
26084W        W98344  34.780  12.615   2.280
26085W        W98345  40.801  29.441  10.593
26086W        W98346   4.904   8.238   2.437
26087W        W98347  13.249  23.190   3.164
26088W        W98348  11.679   0.972   3.149
26089W        W98349  22.152  12.071   1.843
26090W        W98350  19.845  32.998  10.634
26091W        W98351  35.871   7.704   4.801
26092W        W98352  29.949  27.368  14.960
26093W        W98353  33.138  34.030   2.757
26094W        W98354  42.834  34.055  12.913
26095W        W98355  11.314   7.989   4.721
26096W        W98356  44.330   3.262  10.134
26097W        W98357  25.779  15.636  10.213
26098W        W98358  36.123  31.746   3.573
26099W        W98359  34.149   0.283   2.846
26100W        W98360  21.494  31.976   0.973
26101W        W98361  20.071   5.713   5.021
26102W        W98362  35.851   5.712   1.849
26103W        W98363  41.319   8.732  13.812
26104W        W98364   8.923  37.048   2.637
26105W        W98365  29.929   6.404  11.522
26106W        W98366  22.061  21.460   0.725
26107W        W98367  24.099  25.699   3.119
26108W        W98368  11.627  31.124   4.326
26109W        W98369  25.000   8.464  10.728
26110W        W98370  42.099  17.068  14.548
26111W        W98371  27.572  40.654  10.989
26112W        W98372   3.352  31.200   1.828
26113W        W98373  29.364  15.667   3.368
26114W        W98374  44.940   4.007   0.530
26115W        W98375   7.262  37.896  14.911
26116W        W98376  43.756  15.799   4.512
26117W        W98377  43.968  23.799  10.665
26118W        W98378   8.651  22.584  11.137
26119W        W98379   0.233  11.368  11.126
26120W        W98380  44.550  19.726  11.460
26121W        W98381  10.280  20.282  12.602
26122W        W98382  16.734  10.870   1.300
26123W        W98383  34.401   4.015  13.025
26124W        W98384  15.979  38.684  10.195
26125W        W98385   3.955  25.341   4.063
26126W        W98386  20.355   6.490  13.052
26127W        W98387  34.411  28.502  14.344
26128W        W98388   9.274   2.992   3.131
26129W        W98389   9.281  17.208   0.969
26130W        W98390  12.239  13.186   0.395
26131W        W98391  10.737  30.452   4.691
26132W        W98392  14.491  12.153  14.444
26133W        W98393  21.197  32.349   2.662
26134W        W98394   9.213   3.939   3.323
26135W        W98395  21.640  17.174   2.344
26136W        W98396   6.675  37.313   0.841
26137W        W98397  36.911  30.118  13.046
26138W        W98398  40.112  17.084  13.569
26139W        W98399  28.666  23.167   0.334
26140W        W98400  43.206  16.815  12.001
26141W        W98401  40.576  42.709   0.784
26142W        W98402  44.410  22.499   2.678
26143W        W98403  20.153  40.573   1.357
26144W        W98404  28.430  39.850   1.246
26145W        W98405   3.356  40.036   3.825
26146W        W98406  37.941  44.028   0.530
26147W        W98407  20.150  12.691   4.537
26148W        W98408  30.417  22.472   3.773
26149W        W98409  15.769  36.649   1.830
26150W        W98410  36.508  21.281   4.060
26151W        W98411  33.926   2.250   2.393
26152W        W98412  16.712   7.633   3.178
26153W        W98413  43.682  23.186   4.129
26154W        W98414  10.168  32.516   2.323
26155W        W98415  15.510  10.716   4.114
26156W        W98416  21.734  25.632  12.452
26157W        W98417  14.655   6.164  13.216
26158W        W98418  22.959  18.442   3.354
26159W        W98419   2.784  37.071  12.924
26160W        W98420  18.803  24.481   2.367
26161W        W98421   2.012   7.334  14.377
26162W        W98422   7.212  35.862  10.695
26163W        W98423   5.405  20.270  11.582
26164W        W98424  16.850  36.900   1.289
26165W        W98425  27.633  24.218   4.625
26166W        W98426  10.545  16.249  11.463
26167W        W98427  13.160  43.077   1.437
26168W        W98428  29.551  27.287  11.641
26169W        W98429  29.605   2.415   1.782
26170W        W98430  44.895  42.295  12.172
26171W        W98431  23.753   7.675  11.620
26172W        W98432  41.032  44.525  14.908
26173W        W98433  26.584   2.160  11.881
26174W        W98434  29.720  39.980   3.622
26175W        W98435  34.428   3.982   3.158
26176W        W98436   4.449  22.695  12.879
26177W        W98437   5.279  11.432   4.140
26178W        W98438  26.012  30.196   1.148
26179W        W98439  42.204  10.752  14.331
26180W        W98440  11.821   2.713  13.850
26181W        W98441  31.048  41.789  12.114
26182W        W98442   3.820  17.216  14.396
26183W        W98443  16.899  26.099   3.202
26184W        W98444  22.112   0.917   0.360
26185W        W98445  27.568  12.195   2.412
26186W        W98446  29.387  28.554   4.501
26187W        W98447  31.460  42.098  13.051
26188W        W98448  36.117  43.842  14.536
26189W        W98449  21.845  19.695   1.869
26190W        W98450  22.785  39.764   3.563
26191W        W98451  19.014  26.034  14.787
26192W        W98452  23.465  33.048   2.370
26193W        W98453  23.959   7.972   1.844
26194W        W98454  19.063  32.902  14.416
26195W        W98455  21.763  17.197   4.632
26196W        W98456   9.397  32.858   3.115
26197W        W98457  35.484  14.736   1.433
26198W        W98458  29.840   7.453   1.357
26199W        W98459   7.442   7.414   2.206
26200W        W98460  27.580  29.239   4.098
26201W        W98461  24.858  36.334   3.148
26202W        W98462  15.245  42.868   1.793
26203W        W98463  15.363  39.702   0.767
26204W        W98464   8.850   4.401   3.241
26205W        W98465   3.961  11.328   1.023
26206W        W98466  41.955  13.189  10.570
26207W        W98467   2.920   3.448   2.642
26208W        W98468   4.387  25.178  14.090
26209W        W98469  38.977  27.118   0.844
26210W        W98470  15.208  25.702   3.187
26211W        W98471  32.151  43.911  11.640
26212W        W98472  21.278  25.977   1.437
26213W        W98473  39.834  38.005  14.462
26214W        W98474  35.272  42.791   1.737
26215W        W98475  11.651  37.327  14.496
26216W        W98476  25.405  11.427   2.890
26217W        W98477  23.447   9.353  13.811
26218W        W98478  24.643  35.900   3.341
26219W        W98479   9.665   2.220  13.852
26220W        W98480  40.355   7.502   0.470
26221W        W98481  34.614   7.863  10.490
26222W        W98482  44.269   2.423  13.535
26223W        W98483  26.520   2.190  10.716
26224W        W98484  43.473  26.146   2.171
26225W        W98485  35.954  43.080  10.716
26226W        W98486  34.076  22.236   0.252
26227W        W98487  44.381  42.790   1.686
26228W        W98488  35.070   8.700   1.945
26229W        W98489  28.521  12.267  10.660
26230W        W98490   4.665   1.402   1.447
26231W        W98491  26.782  18.115  10.641
26232W        W98492  38.440  14.165   4.225
26233W        W98493  39.329  32.473   2.293
26234W        W98494   5.727  11.146   1.285
26235W        W98495  41.953  30.616  10.565
26236W        W98496  11.704  25.485  11.741
26237W        W98497  43.873  40.084   2.393
26238W        W98498  19.301  13.610  12.999
26239W        W98499  26.598  23.256   2.305
26240W        W98500  10.501  16.340   3.731
26241W        W98501  35.595  26.910   3.841
26242W        W98502  32.987  19.272  11.503
26243W        W98503  43.029  15.606  12.035
26244W        W98504  43.047  20.648   3.697
26245W        W98505  36.627   5.640  11.254
26246W        W98506   9.915  23.135  11.945
26247W        W98507  32.601  34.618  13.818
26248W        W98508  42.560  30.067  11.584
26249W        W98509  38.409  21.627   2.920
26250W        W98510  11.708  19.027   2.580
26251W        W98511  42.352  12.571   4.136
26252W        W98512   0.595   3.409   1.133
26253W        W98513   8.618  27.441  12.133
26254W        W98514  44.042  35.225   2.396
26255W        W98515  13.272   9.293   4.607
26256W        W98516  11.402  36.610   1.347
26257W        W98517  25.277   7.700   2.840
26258W        W98518  22.451   4.782   0.712
26259W        W98519   6.290   8.256  11.655
26260W        W98520  15.160  25.221  11.170
26261W        W98521  21.776  20.502  11.047
26262W        W98522   7.582  29.977   0.307
26263W        W98523  44.053  41.311  11.265
26264W        W98524  21.600  21.220  13.573
26265W        W98525  30.656  22.246   2.744
26266W        W98526   9.277  33.176  11.042
26267W        W98527   9.102  16.643   0.412
26268W        W98528   0.950   0.647  12.130
26269W        W98529   5.368  10.498   1.401
26270W        W98530  18.771  27.574  10.684
26271W        W98531  21.465  42.911  13.487
26272W        W98532  26.633  39.450   9.581
26273W        W98533   8.963  15.632   1.762
26274W        W98534   2.480  34.903  11.872
26275W        W98535  32.442  27.713  12.595
26276W        W98536  13.651  38.916   2.889
26277W        W98537  14.784  39.317   4.618
26278W        W98538  22.874  20.594   4.095
26279W        W98539   2.281  31.938  10.651
26280W        W98540   8.249  37.936  10.738
26281W        W98541  14.754  27.415   9.967
26282W        W98542  29.636  44.972   1.328
26283W        W98543  23.018  32.415  13.011
26284W        W98544   1.068   2.588   0.386
26285W        W98545  36.139  41.360  12.533
26286W        W98546  27.937   2.635   1.352
26287W        W98547  39.310  39.521  10.720
26288W        W98548  35.394   9.912   1.314
26289W        W98549  32.413  16.637  13.926
26290W        W98550   1.740  25.646  13.622
26291W        W98551  17.859  20.125   2.382
26292W        W98552  24.921  29.835  13.922
26293W        W98553   2.516  43.281   3.870
26294W        W98554  30.228  22.042   3.558
26295W        W98555  40.334   3.457  13.412
26296W        W98556  22.119  36.431  11.007
26297W        W98557  19.834  32.384  11.470
26298W        W98558  23.591  26.615   0.378
26299W        W98559  30.151  12.145  11.586
26300W        W98560  33.465  26.929  12.937
26301W        W98561  25.414  36.213  12.869
26302W        W98562  16.228  15.608   3.301
26303W        W98563   0.035  23.782   1.605
26304W        W98564  30.677   6.294  12.023
26305W        W98565  19.710  44.394   1.971
26306W        W98566  32.529  20.396   4.607
26307W        W98567  36.947  41.091  11.276
26308W        W98568  26.775   7.677  12.091
26309W        W98569  27.145   0.304   1.322
26310W        W98570  16.828  17.340  13.962
26311W        W98571  41.244  28.862   2.653
26312W        W98572  32.836  10.895   2.152
26313W        W98573  13.516   4.002   2.431
26314W        W98574  15.341  18.716  12.008
26315W        W98575  42.903  33.384  11.639
26316W        W98576  27.051  31.631  10.726
26317W        W98577  26.649  39.237  12.024
26318W        W98578   3.105  37.873  11.494
26319W        W98579  25.685  41.905   5.391
26320W        W98580  35.299  30.214   2.358
26321W        W98581  42.090  20.838  11.207
26322W        W98582   5.205  40.230  12.521
26323W        W98583   0.530  41.340   4.503
26324W        W98584  33.857  19.617  14.548
26325W        W98585  40.281  43.905  14.486
26326W        W98586  34.770  10.978  12.441
26327W        W98587  43.848   4.918  10.514
26328W        W98588  24.544  31.894  10.421
26329W        W98589   1.660  33.632   4.173
26330W        W98590   5.771  11.036  12.014
26331W        W98591  24.059  10.267   1.814
26332W        W98592  34.574   0.239  11.202
26333W        W98593  30.657  30.022   4.222
26334W        W98594  14.659  33.975   0.005
26335W        W98595  19.070   8.136   4.193
26336W        W98596   2.220  34.364  11.191
26337W        W98597   5.001   2.084  14.328
26338W        W98598   7.216  43.969  10.466
26339W        W98599  28.439   2.501  13.099
26340W        W98600  38.146   2.711   0.218
26341W        W98601   8.719  12.721  14.571
26342W        W98602  21.046  16.582  10.711
26343W        W98603  22.195  38.992  12.450
26344W        W98604  22.818  41.722  12.505
26345W        W98605  32.198   4.217   2.973
26346W        W98606  17.603  27.018   4.323
26347W        W98607  42.095   3.622  13.935
26348W        W98608  38.806  18.993   4.352
26349W        W98609   7.861  32.014  13.760
26350W        W98610  33.519  35.215   5.028
26351W        W98611  31.957  34.885   3.424
26352W        W98612  41.483   3.846   0.450
26353W        W98613  38.776  21.311  13.826
26354W        W98614  40.829  13.539  13.968
26355W        W98615   0.019  34.235   4.124
26356W        W98616   8.436  29.950   4.514
26357W        W98617   7.263   1.845  11.565
26358W        W98618  26.096  15.111  12.035
26359W        W98619  13.258  38.299  11.460
26360W        W98620  10.889  30.071   2.818
26361W        W98621   1.169   4.470   0.510
26362W        W98622  22.724   4.866   4.481
26363W        W98623   9.351   4.692   4.318
26364W        W98624  28.959  30.417  12.621
26365W        W98625   5.508   1.944  14.400
26366W        W98626   8.620   8.115  12.066
26367W        W98627   2.400  44.830  13.879
26368W        W98628  38.428  10.473  11.132
26369W        W98629  34.511   3.991  14.715
26370W        W98630   7.521  34.833  13.010
26371W        W98631  10.330  31.420   0.415
26372W        W98632  35.761  10.150   1.968
26373W        W98633   3.531   5.245  12.543
26374W        W98634  30.707  42.828  10.726
26375W        W98635  23.784   2.513   2.729
26376W        W98636  11.781  12.081   2.865
26377W        W98637  16.564  25.990  13.377
26378W        W98638  20.686   3.407   1.175
26379W        W98639  43.781  28.478   1.179
26380W        W98640  28.491  10.260   3.485
26381W        W98641  32.498   2.462  10.773
26382W        W98642  10.401  35.082   2.220
26383W        W98643  27.731  24.505  11.001
26384W        W98644  42.479  21.456   3.532
26385W        W98645  12.261  29.182  11.983
26386W        W98646  33.123   2.737   4.803
26387W        W98647  35.848  41.938  13.926
26388W        W98648  16.103  12.682  10.961
26389W        W98649  11.344  20.125   0.079
26390W        W98650  24.137  30.863  10.555
26391W        W98651  26.506  35.529   3.967
26392W        W98652  23.207  27.554  13.673
26393W        W98653   3.375  44.410  14.827
26394W        W98654   3.356  11.632  14.041
26395W        W98655   0.053  31.429   2.670
26396W        W98656  33.576  32.701   4.429
26397W        W98657   0.284   2.295  11.128
26398W        W98658  17.590  38.343   3.606
26399W        W98659   6.204   5.909  10.342
26400W        W98660  20.210  14.205  12.382
26401W        W98661   4.372  38.770  11.245
26402W        W98662   6.172  12.727   2.211
26403W        W98663  44.258  32.083  11.552
26404W        W98664  44.800  12.259  12.901
26405W        W98665  19.494   5.362  13.940
26406W        W98666   3.924  39.810   2.743
26407W        W98667  27.330   1.837  11.583
26408W        W98668  27.402  39.776  10.736
26409W        W98669  20.797   7.751   1.725
26410W        W98670  15.080  26.466   2.101
26411W        W98671  36.052   1.964   4.954
26412W        W98672  37.467  10.778  14.099
26413W        W98673  44.093   9.283  10.767
26414W        W98674  44.103  42.357   0.670
26415W        W98675  23.167  13.806   2.210
26416W        W98676  25.760  13.559   4.720
26417W        W98677   2.363  13.231   0.078
26418W        W98678  20.662  16.997   1.991
26419W        W98679   5.525  14.623  12.461
26420W        W98680  32.469  34.981   4.502
26421W        W98681  36.760  10.110  11.834
26422W        W98682  29.243  43.234  11.077
26423W        W98683  32.682  44.076   1.785
26424W        W98684   6.339  20.765  10.725
26425W        W98685  24.814  44.778  14.239
26426W        W98686  37.981  38.018  13.423
26427W        W98687  10.567   4.954  12.105
26428W        W98688  42.997  34.378   1.587
26429W        W98689  42.627  37.216   2.172
26430W        W98690  12.600  25.387  11.872
26431W        W98691  15.512  13.155  12.838
26432W        W98692  23.216  40.103   4.310
26433W        W98693  16.477  23.093  12.467
26434W        W98694  29.250  29.823   5.396
26435W        W98695   7.385   3.983  12.441
26436W        W98696  37.874  24.026  11.091
26437W        W98697  23.151  27.940   0.495
26438W        W98698  22.056  36.267   0.479
26439W        W98699  39.305  44.433   1.646
26440W        W98700  22.469  21.547  14.420
26441W        W98701  13.897   5.184   2.692
26442W        W98702  40.921  21.792   1.986
26443W        W98703  41.624  25.371  14.925
26444W        W98704  23.544   4.189   1.448
26445W        W98705  25.634  41.848  12.036
26446W        W98706  14.652  26.789  13.034
26447W        W98707  27.957   4.253   2.207
26448W        W98708  24.278  22.025  13.379
26449W        W98709  38.883  35.429  14.304
26450W        W98710  40.816  12.647   3.174
26451W        W98711  39.112  28.117  13.257
26452W        W98712  38.030   1.754   3.757
26453W        W98713  29.817  23.293   4.389
26454W        W98714  18.242  20.997   3.700
26455W        W98715  17.125   6.850   4.613
26456W        W98716  36.300  38.314   2.778
26457W        W98717   7.332   9.372  13.793
26458W        W98718  18.776  40.299   0.000
26459W        W98719  37.904  31.151  12.956
26460W        W98720  10.604  10.355   1.358
26461W        W98721  44.826  25.812   4.878
26462W        W98722  33.385  13.671   2.637
26463W        W98723  22.116  31.582  12.109
26464W        W98724  34.456  20.568  14.738
26465W        W98725  31.913  21.720  10.560
26466W        W98726  10.278   7.105  10.595
26467W        W98727  13.821  41.989  14.876
26468W        W98728  41.539  34.310   1.328
26469W        W98729  36.651  43.468   2.382
26470W        W98730  13.554  18.185  13.432
26471W        W98731  25.489  33.575   4.306
26472W        W98732  36.096   7.468   0.992
26473W        W98733  40.963  18.544   2.121
26474W        W98734   5.818   5.776   4.712
26475W        W98735   3.407  26.308  13.396
26476W        W98736  11.296  12.412  10.716
26477W        W98737  20.596  29.907   2.490
26478W        W98738   8.283  19.325  12.496
26479W        W98739  23.491  15.243   1.230
26480W        W98740  35.947  32.836   4.187
26481W        W98741   5.969   5.511   4.285
26482W        W98742  43.901  28.126   4.572
26483W        W98743  34.640  44.001  12.582
26484W        W98744  44.841  33.413   0.777
26485W        W98745  28.192  23.255  14.494
26486W        W98746  30.936  37.015   3.842
26487W        W98747  31.133  44.488   0.753
26488W        W98748  38.554   6.278   2.639
26489W        W98749  23.616   5.307   3.780
26490W        W98750  38.880   4.286   1.396
26491W        W98751  19.187  42.856   0.376
26492W        W98752  38.940  13.649  11.322
26493W        W98753  42.980  19.324   2.681
26494W        W98754   5.188   7.241  10.990
26495W        W98755   3.464  20.190  14.508
26496W        W98756   7.893  30.049  11.150
26497W        W98757   8.754  29.122  10.708
26498W        W98758   3.975   0.031   4.322
26499W        W98759   1.252  38.958  13.529
26500W        W98760  12.377  34.057   1.732
26501W        W98761  44.345   4.921  12.034
26502W        W98762   5.837   5.726   2.803
26503W        W98763  42.595  44.004   2.912
26504W        W98764  36.615  33.073   3.192
26505W        W98765  26.722  35.889   3.672
26506W        W98766  23.253  30.168  12.881
26507W        W98767  12.614  10.354  13.474
26508W        W98768   8.198  28.492  13.866
26509W        W98769  42.489  43.324   1.679
26510W        W98770  38.325  37.495   2.817
26511W        W98771   9.214  40.317  11.240
26512W        W98772   2.224  12.353   1.878
26513W        W98773  36.968  26.205  13.622
26514W        W98774  21.974  30.625   1.806
26515W        W98775  17.242  29.315  10.712
26516W        W98776  26.466  12.848   2.622
26517W        W98777  44.248  19.529   1.534
26518W        W98778   1.180  20.249   0.675
26519W        W98779  31.844  26.729  11.440
26520W        W98780  33.236  26.748   4.515
26521W        W98781  16.923  25.702   1.325
26522W        W98782  33.546  13.330   3.167
26523W        W98783   1.367  42.083  13.381
26524W        W98784   4.977  19.314   2.418
26525W        W98785  26.689  10.640  12.821
26526W        W98786   3.598  33.643  11.564
26527W        W98787  36.643   1.907   4.141
26528W        W98788  21.487  44.180  12.874
26529W        W98789  18.067  35.819   1.846
26530W        W98790   9.836  29.549   0.862
26531W        W98791  20.089  25.774   0.583
26532W        W98792  12.107  24.285  13.189
26533W        W98793  16.957  32.693   2.144
26534W        W98794  24.027  38.027  14.939
26535W        W98795   6.989  33.007   1.789
26536W        W98796  15.153  34.010  14.038
26537W        W98797  28.518  44.003  13.050
26538W        W98798  44.492  20.961  13.084
26539W        W98799  29.023   4.429  11.963
26540W        W98800  31.454  37.509   1.266
26541W        W98801  17.962  14.633   1.183
26542W        W98802  32.900   4.766  12.696
26543W        W98803  44.737  34.422  14.269
26544W        W98804   1.799   7.734  10.751
26545W        W98805   3.140  31.304  10.747
26546W        W98806  10.546  20.735   5.098
26547W        W98807  13.827  27.195   1.553
26548W        W98808  25.950  19.696  14.356
26549W        W98809  18.607  29.926  12.259
26550W        W98810  11.642  40.920  13.350
26551W        W98811  22.594  30.962   4.487
26552W        W98812  37.424  13.766   0.286
26553W        W98813  36.950  20.588   2.935
26554W        W98814  20.223  17.146   3.772
26555W        W98815  38.059  29.549  12.589
26556W        W98816  21.146  42.319  10.406
26557W        W98817  24.386  30.833  12.185
26558W        W98818   7.266  11.384   4.082
26559W        W98819  14.368   9.779  10.568
26560W        W98820  41.056  20.729  12.914
26561W        W98821  14.371  14.773   1.274
26562W        W98822   1.313  17.463   4.253
26563W        W98823   5.890  42.563   3.450
26564W        W98824  16.148  33.373  14.802
26565W        W98825  22.584  28.173  12.104
26566W        W98826   8.904  10.930   4.021
26567W        W98827  32.189  23.190   2.913
26568W        W98828   6.229  44.279  11.812
26569W        W98829  33.791  36.749   0.820
26570W        W98830  43.953  25.509  13.318
26571W        W98831  14.731  42.204   4.144
26572W        W98832   2.934  39.012  12.777
26573W        W98833  22.016  34.932  14.491
26574W        W98834  37.816   1.323   0.432
26575W        W98835  29.614  26.220  12.430
26576W        W98836  35.083  27.993  10.331
26577W        W98837  36.802  21.621  11.227
26578W        W98838  25.006  24.183   5.130
26579W        W98839   2.870   4.261  14.826
26580W        W98840  13.786   1.164  12.580
26581W        W98841   6.011  43.791   3.281
26582W        W98842  18.807  17.388  10.119
26583W        W98843  29.853  23.142  14.987
26584W        W98844  14.414  29.886   5.473
26585W        W98845   7.692  31.986   4.441
26586W        W98846  17.013   3.907  10.909
26587W        W98847  27.343  24.172   1.472
26588W        W98848  20.501  11.158  11.590
26589W        W98849  22.626  23.818   3.221
26590W        W98850   7.344   8.321   3.153
26591W        W98851  22.327   8.726   1.779
26592W        W98852   3.964   2.730   0.760
26593W        W98853   5.196  23.467   0.314
26594W        W98854  15.126  20.609   1.717
26595W        W98855  30.247   1.577  12.048
26596W        W98856   8.411  26.052  14.171
26597W        W98857  42.112   2.159   0.715
26598W        W98858  22.047  30.552  12.689
26599W        W98859  36.279   2.059  11.147
26600W        W98860   4.899  12.203  14.954
26601W        W98861  23.173   5.589  10.923
26602W        W98862  40.032  16.713   0.745
26603W        W98863   4.767   2.713  13.492
26604W        W98864  43.130  29.496  11.990
26605W        W98865  12.907   9.443   1.160
26606W        W98866  15.965  36.568   3.726
26607W        W98867  14.497  15.661   3.222
26608W        W98868  38.541  15.094   0.412
26609W        W98869  10.412  29.634  11.953
26610W        W98870  35.031  44.136  12.927
26611W        W98871  44.938  42.333  11.647
26612W        W98872  42.392  11.408   1.835
26613W        W98873  14.608  14.105   0.739
26614W        W98874  31.069  44.327  10.593
26615W        W98875  12.527   4.988   3.705
26616W        W98876  23.959  41.848   3.730
26617W        W98877   8.197   3.709   0.716
26618W        W98878   3.812   6.436  13.639
26619W        W98879  17.085  18.619   1.265
26620W        W98880  41.836  34.386   2.375
26621W        W98881  24.912  30.991  12.112
26622W        W98882  19.210  10.200   4.520
26623W        W98883  25.283  10.721  10.752
26624W        W98884  30.986  24.547  14.510
26625W        W98885  15.668  13.347   2.190
26626W        W98886   8.947   3.072  11.043
26627W        W98887  38.038   0.745  11.210
26628W        W98888  15.046  35.389   0.757
26629W        W98889  19.584  13.591   4.589
26630W        W98890   4.681  43.829   2.122
26631W        W98891  37.890   3.598   0.462
26632W        W98892  14.803  11.471  13.763
26633W        W98893   3.294  28.792   4.512
26634W        W98894  36.268  30.157   1.417
26635W        W98895  43.124   4.143  10.627
26636W        W98896  39.609  23.549  12.922
26637W        W98897  36.114  37.830   3.671
26638W        W98898  11.742  39.089  13.824
26639W        W98899  15.575  21.832   4.341
26640W        W98900  12.301  17.691  11.428
26641W        W98901  41.338  13.369   2.362
26642W        W98902  42.955  25.984   2.628
26643W        W98903   7.765  26.661  13.595
26644W        W98904  24.553  14.759  13.096
26645W        W98905  27.058   4.721  11.346
26646W        W98906  43.866  15.401  14.003
26647W        W98907  13.788   6.441   3.188
26648W        W98908  24.148  28.054   0.804
26649W        W98909  37.425  24.278   1.756
26650W        W98910   2.283   0.275  14.947
26651W        W98911  23.942   5.741  13.792
26652W        W98912   9.657   7.169  13.466
26653W        W98913  39.493  41.760   2.890
26654W        W98914  41.428   7.259  13.303
26655W        W98915   6.864  33.149  11.202
26656W        W98916   6.093   7.339  13.340
26657W        W98917  20.060   3.715   2.206
26658W        W98918  44.190   1.430  11.903
26659W        W98919  20.477   2.808  11.370
26660W        W98920  21.344  25.762  13.684
26661W        W98921  44.570   8.240   1.735
26662W        W98922  41.078  24.597   0.427
26663W        W98923  23.676  38.338  10.756
26664W        W98924  28.343   0.502  11.197
26665W        W98925   3.301  40.554   3.682
26666W        W98926  30.244  30.997  13.456
26667W        W98927  14.083   2.931   4.167
26668W        W98928  10.137   9.571   3.621
26669W        W98929  19.980   6.365   1.313
26670W        W98930  33.143  38.736  11.530
26671W        W98931  28.160  13.269   3.796
26672W        W98932  23.134  28.487   2.812
26673W        W98933  14.227  29.899   3.174
26674W        W98934  40.073  12.806   2.311
26675W        W98935   3.104  22.030  10.873
26676W        W98936  19.414  29.209  14.074
26677W        W98937  28.901  11.637   3.021
26678W        W98938  14.385  36.376  14.526
26679W        W98939   8.412  25.380   3.115
26680W        W98940  16.750   1.824  10.911
26681W        W98941  17.994  36.080   1.391
26682W        W98942  16.059  15.203  11.284
26683W        W98943  41.925  31.115  10.767
26684W        W98944   0.383  31.109  12.124
26685W        W98945  22.472  38.186  12.489
26686W        W98946   6.487  18.327  14.456
26687W        W98947   7.482   6.188   3.700
26688W        W98948  41.781   1.957  12.509
26689W        W98949   5.613  23.445  14.947
26690W        W98950  22.914   5.161   1.828
26691W        W98951  30.130   6.308  14.988
26692W        W98952  44.056  15.183   1.652
26693W        W98953  40.526  41.874   0.770
26694W        W98954  39.558   0.949  12.580
26695W        W98955  24.334  10.882   4.146
26696W        W98956  26.455   2.504  11.534
26697W        W98957  30.198  40.042  11.902
26698W        W98958  40.297  14.301   3.031
26699W        W98959  36.502  10.377   1.376
26700W        W98960  12.134  42.665  11.905
26701W        W98961  10.401  29.219  14.358
26702W        W98962  37.933   6.962  13.964
26703W        W98963   8.351  44.080   4.498
26704W        W98964  32.145  41.766   4.940
26705W        W98965  31.552  10.010  12.008
26706W        W98966  32.650  43.381  14.405
26707W        W98967  41.972  23.221   3.729
26708W        W98968  16.741   8.258  13.672
26709W        W98969  20.000   7.320   2.789
26710W        W98970  15.340  25.346   1.769
26711W        W98971   9.692  40.801  14.742
26712W        W98972  30.707   1.028  13.349
26713W        W98973   0.961  31.586   3.393
26714W        W98974  10.348  17.927   1.592
26715W        W98975  36.014  32.412  13.367
26716W        W98976  35.399   8.452  13.789
26717W        W98977  19.691  44.506  11.303
26718W        W98978   3.157  17.740   0.261
26719W        W98979   2.947  11.553   3.824
26720W        W98980  29.912  32.412   0.620
26721W        W98981  24.737  23.107  11.591
26722W        W98982   3.990  15.207   2.216
26723W        W98983   1.587   9.547  11.566
26724W        W98984  21.979  15.259   2.927
26725W        W98985  10.274  23.711   1.289
26726W        W98986  23.644  34.190  14.206
26727W        W98987  23.702  16.759   0.576
26728W        W98988  29.672  25.209   0.902
26729W        W98989  15.998  32.343  12.047
26730W        W98990  18.818  13.329  14.217
26731W        W98991  29.070   1.826  11.289
26732W        W98992  21.104   6.101   3.732
26733W        W98993   5.394  26.875  13.398
26734W        W98994  25.413  40.915   0.010
26735W        W98995  41.424  37.466   1.331
26736W        W98996  30.578  29.068  14.063
26737W        W98997  38.493   7.650   2.830
26738W        W98998   0.954   9.145   3.381
26739W        W98999  15.099   3.733   4.452
26740W        W99000  16.162   2.987   1.084
26741W        W99001   8.225   2.402  10.664
26742W        W99002  34.938  39.984   0.560
26743W        W99003   0.449  40.996  13.721
26744W        W99004  21.612  32.029  13.360
26745W        W99005   6.250   2.368   3.167
26746W        W99006  20.514  31.813  12.927
26747W        W99007   6.776  22.685   0.501
26748W        W99008  24.494  39.260   5.024
26749W        W99009  36.366  12.547   4.967
26750W        W99010  43.621  15.846  10.225
26751W        W99011  40.083  33.845   4.031
26752W        W99012  22.985  23.662   4.924
26753W        W99013   6.505  17.681  14.904
26754W        W99014  39.442  22.901  14.862
26755W        W99015  21.095  41.024  12.657
26756W        W99016  25.486  15.204   3.799
26757W        W99017  10.745  21.984  12.508
26758W        W99018   6.740   9.343  10.588
26759W        W99019  32.336  20.819   4.287
26760W        W99020  11.640   3.279  12.894
26761W        W99021  41.752  35.149  14.538
26762W        W99022  42.074  10.327   2.775
26763W        W99023  15.217   5.943   0.447
26764W        W99024  16.295  25.587  14.890
26765W        W99025  37.344  37.397   1.823
26766W        W99026  30.414  42.887   0.152
26767W        W99027  31.534  17.320   3.678
26768W        W99028  31.905   1.362  11.580
26769W        W99029  21.826  36.053  12.826
26770W        W99030  38.891  39.036  13.393
26771W        W99031  32.039  37.956  12.930
26772W        W99032  23.159   6.747  14.363
26773W        W99033  24.545  29.084  12.662
26774W        W99034  42.947  37.359  12.541
26775W        W99035  21.635  10.267  13.245
26776W        W99036  44.695  14.544  11.205
26777W        W99037  17.536  24.682   4.177
26778W        W99038  15.259  34.763  12.311
26779W        W99039  18.153   2.204   1.038
26780W        W99040  36.082  25.156   3.435
26781W        W99041  38.431   1.170  14.149
26782W        W99042  44.572  26.651  10.584
26783W        W99043  10.576  34.519  14.239
26784W        W99044   6.253   6.682  14.912
26785W        W99045  43.005  39.491   2.331
26786W        W99046   5.846  30.405  14.863
26787W        W99047  15.115  21.563   0.508
26788W        W99048  27.162  29.078   0.428
26789W        W99049  41.098  34.318  12.063
26790W        W99050  13.529  43.830  13.034
26791W        W99051  30.279  42.504   2.156
26792W        W99052   7.346  43.840   4.538
26793W        W99053   9.119  43.450  12.379
26794W        W99054   2.753  43.926   2.336
26795W        W99055  44.276  28.982   2.319
26796W        W99056  40.534  27.696  14.417
26797W        W99057  29.687  29.927   0.704
26798W        W99058  33.948  12.275   3.475
26799W        W99059  27.893  27.627  14.947
26800W        W99060  28.353  13.184   1.189
26801W        W99061   9.790  17.310   0.708
26802W        W99062   2.687  37.164  14.439
26803W        W99063  44.489   1.090   3.401
26804W        W99064   2.795  27.781  12.517
26805W        W99065  44.204  32.580  11.610
26806W        W99066   5.875  14.187   3.943
26807W        W99067  44.964  33.283   2.707
26808W        W99068   1.890  10.893   0.621
26809W        W99069  43.720  12.251   4.032
26810W        W99070  34.521  17.583   1.861
26811W        W99071  19.667  12.295   4.152
26812W        W99072   5.208  40.028   0.004
26813W        W99073   7.188  21.532   0.364
26814W        W99074  27.135  21.578  13.541
26815W        W99075  34.538  14.555  12.463
26816W        W99076  13.731  42.078  12.593
26817W        W99077  42.787  43.126  10.814
26818W        W99078  27.509  23.794  10.783
26819W        W99079  40.186   7.876  11.075
26820W        W99080  18.534  13.778  12.067
26821W        W99081  41.513  38.452   1.212
26822W        W99082  37.121  37.466  11.137
26823W        W99083  21.017  31.136   1.848
26824W        W99084  36.941  35.842   2.903
26825W        W99085  13.013  29.566  12.987
26826W        W99086  14.439  21.112   0.742
26827W        W99087   7.473   8.421   0.514
26828W        W99088   1.373   3.909   2.335
26829W        W99089  18.175   7.863  12.436
26830W        W99090  25.428  31.044   1.884
26831W        W99091  23.677  38.391   3.569
26832W        W99092  37.812   0.738   0.054
26833W        W99093  41.938  16.075  11.976
26834W        W99094  17.822  40.307  11.781
26835W        W99095   8.657  13.195   4.174
26836W        W99096  14.070  38.522   4.647
26837W        W99097   3.305  30.460  13.032
26838W        W99098  11.282  28.384   3.266
26839W        W99099  13.408   9.359   1.042
26840W        W99100  17.071  31.829   0.258
26841W        W99101  25.695  12.234   3.179
26842W        W99102  43.328   3.325  10.684
26843W        W99103   3.935  44.696   3.328
26844W        W99104  31.587  26.623   4.657
26845W        W99105  17.512  12.390   1.896
26846W        W99106  44.299  15.419  13.140
26847W        W99107  19.556  32.383  12.973
26848W        W99108   6.216   3.014  14.549
26849W        W99109  32.564  43.760   2.224
26850W        W99110  28.922  37.440  12.359
26851W        W99111  27.950  23.918   3.282
26852W        W99112   1.908   9.859   2.334
26853W        W99113   8.601   7.838   2.911
26854W        W99114  12.811  39.821  10.350
26855W        W99115   0.043  15.199   2.167
26856W        W99116  19.010   7.663   3.343
26857W        W99117   9.905  13.139  11.543
26858W        W99118  38.827  29.795  11.486
26859W        W99119  17.105  12.075  12.063
26860W        W99120   8.958  15.684  13.918
26861W        W99121  28.191  44.911  12.872
26862W        W99122   1.656   7.545   1.294
26863W        W99123   8.740  32.986  14.645
26864W        W99124  28.070  33.364   4.371
26865W        W99125   3.544  11.717  13.577
26866W        W99126   2.296  19.330   2.373
26867W        W99127   0.783  31.485   1.265
26868W        W99128   3.961  32.105  11.112
26869W        W99129   9.714  22.889  13.508
26870W        W99130   7.283  15.918  11.591
26871W        W99131  37.891   5.038   4.718
26872W        W99132  16.620  28.068   2.173
26873W        W99133  44.350  12.738  14.439
26874W        W99134  19.491  33.408  12.919
26875W        W99135   5.174   4.047   0.986
26876W        W99136  40.752  40.734   4.319
26877W        W99137  31.996  18.034  13.277
26878W        W99138  38.522  12.732   3.249
26879W        W99139  20.854  24.800   2.557
26880W        W99140  34.016  14.303  10.672
26881W        W99141  17.632   3.607   0.142
26882W        W99142   4.265  37.531  12.489
26883W        W99143  34.483  30.020   2.134
26884W        W99144  23.231   4.390  11.520
26885W        W99145  22.241  27.691  14.677
26886W        W99146  34.545  14.887  14.830
26887W        W99147   4.476   3.850  14.429
26888W        W99148  23.445  22.213   3.724
26889W        W99149  30.416  42.491   3.328
26890W        W99150   3.673  35.142  14.904
26891W        W99151  32.890   9.240   0.900
26892W        W99152  32.551  43.713  11.408
26893W        W99153  17.832  39.900   3.750
26894W        W99154  16.252  33.367   3.675
26895W        W99155  10.344  43.853   1.675
26896W        W99156  19.717  44.221  12.755
26897W        W99157  23.782  28.290  14.709
26898W        W99158   8.504   9.813   1.403
26899W        W99159  23.255   4.374  10.717
26900W        W99160  28.891  43.788   2.230
26901W        W99161  38.814  23.549   3.254
26902W        W99162  30.699  25.232   0.835
26903W        W99163  37.099  42.019   4.173
26904W        W99164  29.616  24.806   3.078
26905W        W99165  15.185  20.553  10.835
26906W        W99166  36.440  23.195  14.151
26907W        W99167  14.751  37.942   4.752
26908W        W99168  34.645  32.767  11.118
26909W        W99169  13.202   2.269   4.334
26910W        W99170  24.219  14.455   1.913
26911W        W99171  16.048  39.169   0.742
26912W        W99172  40.306   9.271   0.898
26913W        W99173  31.361  11.395   4.127
26914W        W99174  22.772  30.499   0.781
26915W        W99175   4.410  43.361   0.716
26916W        W99176  33.139   6.391  12.475
26917W        W99177   3.963  31.508   1.376
26918W        W99178  17.873  28.626  14.705
26919W        W99179  27.969  18.183  13.067
26920W        W99180  15.549  27.716  10.331
26921W        W99181  38.155  15.399  12.645
26922W        W99182  13.391  14.614   3.884
26923W        W99183  39.662   8.870  11.189
26924W        W99184  14.580  12.319   0.403
26925W        W99185  35.068  15.594   0.347
26926W        W99186  29.002  42.622  13.742
26927W        W99187  39.028  23.633  13.442
26928W        W99188  21.775  31.027   3.712
26929W        W99189  25.630  12.316  10.634
26930W        W99190   4.308  31.587   3.143
26931W        W99191  34.662  28.054  12.094
26932W        W99192  23.409  27.060   3.254
26933W        W99193   0.155  42.940  11.084
26934W        W99194  31.376  23.256  11.499
26935W        W99195  41.948  35.112   0.543
26936W        W99196  33.476  39.201   3.500
26937W        W99197   4.902  43.740  14.918
26938W        W99198  43.224  10.215   3.950
26939W        W99199  18.274   9.465  10.400
26940W        W99200   6.379  12.617   1.743
26941W        W99201  15.507  19.669  14.244
26942W        W99202   8.077  44.387  11.502
26943W        W99203   2.703   1.637  14.941
26944W        W99204   4.312  17.295   2.864
26945W        W99205  30.485  24.150  13.955
26946W        W99206  12.090  35.523   4.372
26947W        W99207  26.339   4.624   3.602
26948W        W99208  42.443  37.569   2.493
26949W        W99209   2.868   0.429  10.632
26950W        W99210  27.941   0.105  13.875
26951W        W99211   5.618  34.500   3.101
26952W        W99212  43.197  12.762   2.302
26953W        W99213  36.071  32.470   2.589
26954W        W99214  35.644  10.055   3.714
26955W        W99215  10.461  16.584   2.399
26956W        W99216  22.756  39.971  11.991
26957W        W99217  26.258  11.801  11.651
26958W        W99218   4.979  13.803   4.706
26959W        W99219  44.263   9.930   4.148
26960W        W99220   5.930  38.356  10.970
26961W        W99221  29.396  25.820   2.174
26962W        W99222  26.120  41.963   0.693
26963W        W99223  24.471  42.371   1.913
26964W        W99224  12.260  26.713  14.882
26965W        W99225  26.915  22.107  12.018
26966W        W99226   1.175  13.111   3.661
26967W        W99227  19.146  41.253   3.132
26968W        W99228  41.531  34.853  12.856
26969W        W99229  40.086  19.033   1.203
26970W        W99230   3.693  27.138  14.852
26971W        W99231   7.475  32.547  12.937
26972W        W99232  21.182  10.230  13.644
26973W        W99233  10.388   5.857   2.987
26974W        W99234  41.978   3.282   1.971
26975W        W99235  19.234  31.140  10.747
26976W        W99236  31.824   6.369  11.586
26977W        W99237  22.521  11.380  11.269
26978W        W99238  41.415  15.359   4.459
26979W        W99239  34.027   2.900   2.931
26980W        W99240   2.699  28.464   2.023
26981W        W99241   0.909  44.223  14.965
26982W        W99242  34.058   7.915   2.376
26983W        W99243   3.485  31.609   2.759
26984W        W99244  30.990  37.374  13.135
26985W        W99245  42.837  44.797  14.697
26986W        W99246  21.677  37.513   4.254
26987W        W99247   0.194   0.876  14.473
26988W        W99248  24.624  36.936   4.138
26989W        W99249  26.460   1.520   4.110
26990W        W99250  32.319  24.284   3.890
26991W        W99251  43.493  34.721   2.845
26992W        W99252   3.359  41.007  14.335
26993W        W99253  27.987  21.956  14.295
26994W        W99254  43.529   8.676  11.120
26995W        W99255  14.555  19.895   1.732
26996W        W99256  36.904  10.168   0.029
26997W        W99257  24.939  37.424  10.430
26998W        W99258  19.706  32.175  14.363
26999W        W99259  35.088  34.889   0.692
27000W        W99260  21.604  28.631  12.569
27001W        W99261   1.253  11.138  12.939
27002W        W99262  13.260  34.661   2.362
27003W        W99263  32.480  27.459  14.532
27004W        W99264  44.179  34.402   0.333
27005W        W99265  33.491  31.473  11.328
27006W        W99266  21.196  44.551  14.336
27007W        W99267   6.858   8.297  10.954
27008W        W99268  30.910   7.755  12.162
27009W        W99269   9.290  38.244  11.466
27010W        W99270   3.474   4.781  12.772
27011W        W99271  23.366  32.573  14.298
27012W        W99272  22.957   3.879   4.544
27013W        W99273   8.713  20.674   2.752
27014W        W99274  26.459  23.436  11.197
27015W        W99275  17.249  14.198  13.974
27016W        W99276  26.120  20.653   1.223
27017W        W99277   0.138   2.394   2.660
27018W        W99278   3.408   6.462   1.104
27019W        W99279  20.141  24.028  12.504
27020W        W99280  32.137   2.277  14.269
27021W        W99281   5.881  11.077  12.895
27022W        W99282  32.596   1.520   1.029
27023W        W99283   2.486  41.022   0.277
27024W        W99284  43.263  34.945  12.597
27025W        W99285  28.779  29.321   2.113
27026W        W99286  12.808  39.596  11.517
27027W        W99287  27.627   5.812  13.413
27028W        W99288  11.455  31.395  12.300
27029W        W99289  44.399   2.185  12.331
27030W        W99290   4.146  12.408   3.424
27031W        W99291  22.190  39.745  13.420
27032W        W99292  39.787  19.339   2.006
27033W        W99293  25.887  29.955  11.115
27034W        W99294  33.103  43.762   1.857
27035W        W99295  26.656  37.432   4.879
27036W        W99296  38.768  19.025  14.117
27037W        W99297   4.292  15.430  11.559
27038W        W99298   8.441  18.349   2.656
27039W        W99299   9.601  22.833   1.719
27040W        W99300  42.507  19.826  12.531
27041W        W99301  10.643  34.167   2.355
27042W        W99302  37.126   9.913  11.505
27043W        W99303  35.272  42.914   4.587
27044W        W99304  12.221  33.048  10.612
27045W        W99305   4.720  35.993  11.599
27046W        W99306   9.206  43.912  14.538
27047W        W99307   8.383  19.115   3.891
27048W        W99308   6.455  39.411  13.917
27049W        W99309  19.735  19.789   0.482
27050W        W99310  43.560  33.089  13.846
27051W        W99311  14.534   4.391  14.741
27052W        W99312   8.526  23.001   5.099
27053W        W99313  27.386  23.645  14.575
27054W        W99314   7.763   7.182   4.545
27055W        W99315   3.328   8.755  10.334
27056W        W99316  24.582  18.540   3.663
27057W        W99317  11.837  35.034  14.486
27058W        W99318  19.451  22.518   1.978
27059W        W99319  21.796  29.023  12.304
27060W        W99320  12.520  30.064  12.472
27061W        W99321   8.167  27.499  10.587
27062W        W99322   4.256  20.443  12.883
27063W        W99323  27.681  39.345  10.604
27064W        W99324   7.246  34.125   2.281
27065W        W99325  10.659  26.200   3.999
27066W        W99326  43.748   6.641   3.178
27067W        W99327   0.945  13.075   2.677
27068W        W99328  15.664  40.101   0.875
27069W        W99329  33.088  41.223   4.186
27070W        W99330  38.495   9.487   0.648
27071W        W99331   9.272  22.091   4.347
27072W        W99332   1.668  22.980  13.646
27073W        W99333  15.202  38.321   0.997
27074W        W99334  35.141  30.811   3.408
27075W        W99335  27.252  27.901  14.057
27076W        W99336  35.354   8.175   1.268
27077W        W99337  19.228  28.216   3.223
27078W        W99338  12.541  17.070   1.752
27079W        W99339  10.423  44.022  12.530
27080W        W99340  10.194  28.203  13.450
27081W        W99341  34.385  42.522  14.282
27082W        W99342  41.848  43.294   3.672
27083W        W99343  15.331   9.235   0.770
27084W        W99344  35.037   7.553  10.459
27085W        W99345  13.312  39.533   2.320
27086W        W99346  24.795  41.971  11.308
27087W        W99347   3.426  31.158  13.384
27088W        W99348  33.762  19.554  13.566
27089W        W99349  40.600  20.120   3.290
27090W        W99350  41.776  21.507   0.740
27091W        W99351  13.074  12.253   0.285
27092W        W99352  36.555  33.823   2.696
27093W        W99353  36.863  11.252  13.142
27094W        W99354  40.979  16.677   3.715
27095W        W99355  32.525  16.287  10.987
27096W        W99356  11.748  44.387  11.976
27097W        W99357   1.204   8.960  12.899
27098W        W99358   9.153  33.577   4.094
27099W        W99359  44.175   7.359  12.284
27100W        W99360  35.000   1.765  13.296
27101W        W99361  34.109  13.185  11.546
27102W        W99362   9.910  40.473  10.684
27103W        W99363  18.323  37.246   4.890
27104W        W99364  34.471   0.961  12.919
27105W        W99365  43.759  32.242   3.871
27106W        W99366   3.827   8.306  11.335
27107W        W99367  18.778  11.713  14.874
27108W        W99368  44.351  33.922   2.427
27109W        W99369   9.080   5.263   0.833
27110W        W99370  15.457  43.937  11.967
27111W        W99371  12.888  39.386   0.440
27112W        W99372  26.326   5.026  11.421
27113W        W99373   9.104  26.556  12.080
27114W        W99374  11.165  29.607   2.723
27115W        W99375  26.327  40.363  14.436
27116W        W99376   2.068  34.716  11.596
27117W        W99377  11.307  22.003  10.756
27118W        W99378  39.301  22.682   2.926
27119W        W99379  27.482   3.917   3.035
27120W        W99380   5.720  12.350   1.297
27121W        W99381  30.542  21.036  11.543
27122W        W99382   1.707  32.973  12.450
27123W        W99383  43.101   4.699   0.333
27124W        W99384  30.880  29.934  13.017
27125W        W99385  42.566  24.943   1.713
27126W        W99386  28.725  16.602  12.881
27127W        W99387  24.619   4.780   3.775
27128W        W99388  22.962  19.297   1.860
27129W        W99389  28.706  32.600  12.099
27130W        W99390   6.288  34.934  13.282
27131W        W99391  22.832   4.891   1.297
27132W        W99392  17.280  12.223  10.703
27133W        W99393  25.564  27.281   2.436
27134W        W99394  18.879  42.739  12.877
27135W        W99395  43.835  31.978   2.972
27136W        W99396   7.680   7.459   4.117
27137W        W99397  39.870  33.923   4.484
27138W        W99398  15.686   2.296   2.895
27139W        W99399  44.979  15.734  14.768
27140W        W99400  17.176   0.393  13.874
27141W        W99401  31.648   4.465   2.886
27142W        W99402  14.575  27.564  14.543
27143W        W99403  15.775   9.777   4.435
27144W        W99404  41.452   4.641  13.102
27145W        W99405  31.406  33.617  11.114
27146W        W99406   5.455  18.274  14.387
27147W        W99407  16.659  35.823  12.819
27148W        W99408  24.951   9.768  11.166
27149W        W99409   5.466   8.253   0.829
27150W        W99410  18.500   6.121   4.630
27151W        W99411  17.641   5.761  13.907
27152W        W99412  34.068  21.506  10.389
27153W        W99413  35.515   2.370   0.378
27154W        W99414  18.668   5.503  13.014
27155W        W99415  33.116  35.926  10.944
27156W        W99416   1.416  25.189   2.308
27157W        W99417  29.863  24.928  11.750
27158W        W99418  26.111  26.169   2.318
27159W        W99419  35.938  28.418   2.288
27160W        W99420  42.557  28.120  12.343
27161W        W99421  10.682  30.061   1.898
27162W        W99422  36.604  29.965  12.116
27163W        W99423   4.286  11.264  13.337
27164W        W99424   8.627  26.670  13.086
27165W        W99425   0.092  10.454   0.212
27166W        W99426  31.519  34.776   0.198
27167W        W99427  16.321  38.798  13.602
27168W        W99428  16.210  22.816  14.417
27169W        W99429  43.047  34.070  12.432
27170W        W99430  24.707  39.584   3.705
27171W        W99431  17.129  16.307  14.836
27172W        W99432  25.729  10.117   0.234
27173W        W99433   9.995  18.737  14.519
27174W        W99434  25.537  42.801   5.146
27175W        W99435  25.787  34.012   4.265
27176W        W99436  13.677  10.710   4.722
27177W        W99437   5.425  24.230  12.905
27178W        W99438  28.435   0.902   1.736
27179W        W99439   5.398  19.680   3.602
27180W        W99440   9.666  10.779  10.246
27181W        W99441  24.042  21.477  14.859
27182W        W99442  28.812  35.663  13.190
27183W        W99443  15.232  32.343   1.965
27184W        W99444  14.659  19.636  12.951
27185W        W99445  28.465  10.181  14.930
27186W        W99446  19.951  31.507  13.442
27187W        W99447  24.446  38.796   4.052
27188W        W99448  10.138  39.121  14.472
27189W        W99449  30.051  27.183   4.269
27190W        W99450  41.833   1.857   1.434
27191W        W99451  22.578  34.849   0.438
27192W        W99452  42.565   4.805   3.611
27193W        W99453  36.109  13.201   2.347
27194W        W99454  38.098   1.923  11.631
27195W        W99455  13.668   1.439   0.232
27196W        W99456  38.241  29.270   1.299
27197W        W99457  31.368  42.884   3.383
27198W        W99458   3.441  13.027   5.101
27199W        W99459  34.782  15.426   4.118
27200W        W99460  33.608  40.439   2.409
27201W        W99461  10.300  16.490   4.176
27202W        W99462  44.350  35.812  12.767
27203W        W99463  24.206   9.911  12.820
27204W        W99464  10.625  25.066  12.595
27205W        W99465  21.093  27.501   4.073
27206W        W99466   6.202  11.655   0.979
27207W        W99467  30.173  25.655  13.369
27208W        W99468   7.310   0.305  14.573
27209W        W99469   6.176  34.539   2.397
27210W        W99470  27.963  27.953   1.736
27211W        W99471  11.216   9.756   1.905
27212W        W99472  23.667  32.841  13.632
27213W        W99473  11.347  21.190  10.188
27214W        W99474  21.329  34.104  11.528
27215W        W99475  36.462  33.474   4.482
27216W        W99476  22.501  11.358  13.148
27217W        W99477   5.849   3.947  10.691
27218W        W99478  16.515  14.648   4.991
27219W        W99479  25.622  31.736   0.740
27220W        W99480  23.523  37.529  11.959
27221W        W99481  43.534  39.627   4.283
27222W        W99482  41.478  27.001  14.997
27223W        W99483  17.440   8.987   2.407
27224W        W99484   0.891   8.835  11.241
27225W        W99485   5.819  35.065  13.437
27226W        W99486   4.329  33.886   1.344
27227W        W99487  25.050  25.716   2.056
27228W        W99488  12.079  14.725   3.294
27229W        W99489  26.000  24.644   4.018
27230W        W99490  32.085  18.722   4.082
27231W        W99491   0.007  18.126   1.948
27232W        W99492  21.206  27.804   0.009
27233W        W99493  27.174  16.548  12.404
27234W        W99494  24.674  28.005   1.536
27235W        W99495  15.255   9.247   1.975
27236W        W99496  33.193  30.712   2.637
27237W        W99497  28.283   5.796  12.036
27238W        W99498  38.806  32.376   3.209
27239W        W99499  19.599  15.272  13.719
27240W        W99500  12.875  20.846   3.808
27241W        W99501  21.090  19.239   1.793
27242W        W99502  12.966  12.831   0.885
27243W        W99503   8.293  34.551  13.461
27244W        W99504  10.866  10.173   0.921
27245W        W99505  10.697  34.547   3.273
27246W        W99506   8.708  34.083  10.434
27247W        W99507  23.268  21.834   5.633
27248W        W99508  10.803  22.101   1.019
27249W        W99509  26.977  32.390   2.642
27250W        W99510  39.309  19.577   1.225
27251W        W99511  31.930   6.312   2.666
27252W        W99512  23.657  43.268   4.686
27253W        W99513  14.879   7.851   1.809
27254W        W99514  10.786  32.874   4.397
27255W        W99515  13.346  34.407   3.651
27256W        W99516  34.176  29.969   3.652
27257W        W99517  17.620   3.233  13.892
27258W        W99518  19.423   9.405   1.049
27259W        W99519  34.175  36.236   4.511
27260W        W99520  12.617  40.453  13.867
27261W        W99521  24.458  23.634  14.720
27262W        W99522  15.559  32.948  14.645
27263W        W99523  37.585  17.281   1.946
27264W        W99524  36.658  28.385  11.025
27265W        W99525  22.408  35.815  10.439
27266W        W99526  12.068  10.731  11.935
27267W        W99527  21.185  41.506   3.152
27268W        W99528  19.137  21.289  11.560
27269W        W99529  12.594   6.417  12.442
27270W        W99530   2.297   7.106  12.157
27271W        W99531  21.046   8.740  14.520
27272W        W99532  36.645  40.335   3.654
27273W        W99533  44.396  31.572  11.519
27274W        W99534  37.439  12.244   4.635
27275W        W99535  30.418  12.576  14.723
27276W        W99536  36.386   7.663   3.665
27277W        W99537  19.183  30.365  12.426
27278W        W99538  22.209  35.330   0.250
27279W        W99539  25.365  37.348  13.966
27280W        W99540  13.576   4.913   1.009
27281W        W99541  23.047  18.520   2.250
27282W        W99542  11.570   3.323   0.347
27283W        W99543  19.253   7.818   0.603
27284W        W99544  17.057  17.865   0.737
27285W        W99545  15.873   4.392   4.287
27286W        W99546  38.823  41.497  12.392
27287W        W99547  10.476  41.511   0.744
27288W        W99548  40.260  11.572   4.576
27289W        W99549   9.665   0.695  13.048
27290W        W99550  17.808  34.601  12.531
27291W        W99551  29.617   7.973  11.964
27292W        W99552  12.868  17.688  11.514
27293W        W99553   3.551   9.220  12.190
27294W        W99554  24.810  22.657  12.161
27295W        W99555  23.114   6.953   2.079
27296W        W99556  22.223   6.657   0.659
27297W        W99557  19.169  17.433   2.332
27298W        W99558  31.940  33.861  13.115
27299W        W99559  24.549  33.397  13.795
27300W        W99560   4.333   8.966   3.310
27301W        W99561  20.053  14.996  13.881
27302W        W99562  44.062  21.629   2.071
27303W        W99563  13.692  12.325  14.011
27304W        W99564  22.547  34.692   3.185
27305W        W99565   9.809  13.614  11.663
27306W        W99566  21.223  21.547   2.258
27307W        W99567  29.561  17.518   3.214
27308W        W99568  24.635  31.118  14.874
27309W        W99569  22.032  32.483  14.032
27310W        W99570  44.546  39.008   5.182
27311W        W99571  43.913  14.184  11.546
27312W        W99572  33.565  25.953  10.235
27313W        W99573  38.594   3.432  11.059
27314W        W99574  24.580  35.626   4.651
27315W        W99575  26.571  23.723  13.531
27316W        W99576  15.864  21.058   0.675
27317W        W99577  37.964  23.761  10.659
27318W        W99578   1.258  11.164   3.681
27319W        W99579  20.046  43.953   0.884
27320W        W99580  13.996  32.081   4.672
27321W        W99581  37.969  27.918  11.757
27322W        W99582  37.995  21.385  11.978
27323W        W99583   0.807  28.262  12.930
27324W        W99584  23.641  30.657   3.179
27325W        W99585  17.134  39.605   0.435
27326W        W99586   4.289  42.244   1.233
27327W        W99587  40.223  19.146   0.339
27328W        W99588  13.517  14.855   0.928
27329W        W99589  41.598  39.521   4.208
27330W        W99590  22.630  40.425  11.571
27331W        W99591  12.330  43.533   1.688
27332W        W99592  16.847   8.908   0.163
27333W        W99593  29.113  26.613  14.999
27334W        W99594   5.365  10.873   3.109
27335W        W99595  26.961   3.155   3.257
27336W        W99596  15.078  43.827  10.785
27337W        W99597  37.988  35.019   1.281
27338W        W99598  37.404  10.936   2.400
27339W        W99599  39.093   6.869   2.284
27340W        W99600  35.978  20.303  11.208
27341W        W99601  37.049  20.054  13.512
27342W        W99602  27.463  19.259   1.746
27343W        W99603  38.837   1.986  13.522
27344W        W99604  21.647  14.824   1.701
27345W        W99605  38.498  29.215   0.392
27346W        W99606   3.669  37.081  13.533
27347W        W99607  21.281  18.564   4.685
27348W        W99608   0.394  23.711   0.828
27349W        W99609  40.516   8.985  11.624
27350W        W99610  23.110  28.904  13.323
27351W        W99611  39.887  43.122   1.911
27352W        W99612  28.419  36.408   3.530
27353W        W99613  30.820   7.103  13.048
27354W        W99614   4.938  26.691   0.868
27355W        W99615   2.952  36.324   3.282
27356W        W99616  28.632  44.985  14.820
27357W        W99617  28.645  28.542  12.307
27358W        W99618  41.456  14.569  13.372
27359W        W99619  30.845  24.612   3.647
27360W        W99620  35.363  35.972   5.113
27361W        W99621  13.179  18.097   0.798
27362W        W99622  14.581   1.245   2.414
27363W        W99623  32.877  27.583  14.854
27364W        W99624   8.275  22.944   2.696
27365W        W99625  26.550  36.453   5.147
27366W        W99626  13.240  39.957  14.212
27367W        W99627  15.719  11.277   2.431
27368W        W99628  28.723  11.363  12.417
27369W        W99629  17.064  11.094   4.830
27370W        W99630  17.934   8.157   1.302
27371W        W99631  27.066   1.076   3.693
27372W        W99632  21.191  43.396  11.475
27373W        W99633  17.714   3.061   3.360
27374W        W99634  35.601  38.075  14.026
27375W        W99635  21.105  34.018   5.056
27376W        W99636  44.620  20.595  13.858
27377W        W99637  10.425  30.116  13.395
27378W        W99638  36.871  11.891  14.493
27379W        W99639  41.802  34.660   4.245
27380W        W99640   1.331  35.822   2.667
27381W        W99641  11.173  15.242   4.192
27382W        W99642   4.545  44.957  12.615
27383W        W99643   2.318  30.597  11.317
27384W        W99644  28.082  35.053  13.188
27385W        W99645  20.358  40.914  13.822
27386W        W99646  27.535   5.655  14.859
27387W        W99647  30.643  26.583   4.201
27388W        W99648  26.487  38.922   3.110
27389W        W99649  18.556  15.366   2.975
27390W        W99650  15.564  39.030   2.803
27391W        W99651  20.477   3.225  12.586
27392W        W99652  37.123  27.079  10.972
27393W        W99653  14.151  14.265  12.579
27394W        W99654   8.135  14.441  14.069
27395W        W99655  19.712  41.777   2.228
27396W        W99656  11.845  34.017   1.716
27397W        W99657  39.922   9.318  11.124
27398W        W99658  24.320  23.449  12.462
27399W        W99659  24.698  23.197   0.465
27400W        W99660  28.479  12.040  11.133
27401W        W99661  38.329   0.513  12.967
27402W        W99662  34.109  20.092  14.615
27403W        W99663  32.964  25.031  10.645
27404W        W99664  16.314  11.594   1.671
27405W        W99665  36.784  25.797   4.920
27406W        W99666  35.617  25.541  11.145
27407W        W99667  18.283  18.133   1.478
27408W        W99668  44.250   0.392   4.089
27409W        W99669  28.472   6.681   1.461
27410W        W99670   7.646  13.357  14.987
27411W        W99671  40.051  34.961   4.279
27412W        W99672   0.410  33.901   3.456
27413W        W99673   2.571  40.296  13.295
27414W        W99674  18.621  36.382  12.218
27415W        W99675  24.686  24.011  12.466
27416W        W99676   1.190  22.638   0.937
27417W        W99677  12.596  41.164  14.479
27418W        W99678  28.530  26.011  12.147
27419W        W99679   3.639  13.609  12.738
27420W        W99680  12.218  13.295  14.877
27421W        W99681  35.576  40.913  14.896
27422W        W99682  24.569  32.514  14.500
27423W        W99683  39.308  27.545   0.235
27424W        W99684  23.210   7.425   4.373
27425W        W99685  16.796  20.167   1.106
27426W        W99686  26.037   7.347   4.887
27427W        W99687   9.194   8.898   1.883
27428W        W99688  11.281   7.303   4.905
27429W        W99689  41.863  30.226  11.166
27430W        W99690  43.433  30.144  12.546
27431W        W99691   5.766  39.136   1.877
27432W        W99692  21.526   9.371  11.081
27433W        W99693  44.069   2.229  13.992
27434W        W99694  30.176  43.317   0.357
27435W        W99695  42.279  17.710  11.560
27436W        W99696  34.395  29.623   3.198
27437W        W99697  43.960   8.253  14.584
27438W        W99698  33.894  17.399  12.569
27439W        W99699  26.061  17.130   2.795
27440W        W99700   6.830  11.854  13.721
27441W        W99701  33.387   2.855   0.823
27442W        W99702   5.075   6.595  13.082
27443W        W99703  26.449  34.331   2.310
27444W        W99704  19.986  32.652  13.105
27445W        W99705  43.981  17.677  12.876
27446W        W99706   0.849   7.480   1.302
27447W        W99707   0.831  24.390   2.590
27448W        W99708  26.166   2.813   4.569
27449W        W99709  25.657  32.148  13.374
27450W        W99710  19.583  16.194   1.244
27451W        W99711  35.165  34.199   4.252
27452W        W99712  35.109  33.097   2.386
27453W        W99713  14.658  32.509   2.887
27454W        W99714  33.417  41.577   0.886
27455W        W99715   5.918   6.688   3.130
27456W        W99716  10.281   7.658   1.141
27457W        W99717  30.008  38.752  11.681
27458W        W99718   8.295  37.411  12.857
27459W        W99719  18.656   4.217  11.615
27460W        W99720   1.742   9.104   2.833
27461W        W99721   8.941   9.654   4.872
27462W        W99722  35.403  10.749  11.958
27463W        W99723  31.026   1.576  12.510
27464W        W99724   7.291  34.601  14.412
27465W        W99725  36.852   6.852  13.961
27466W        W99726  24.434  14.522  11.011
27467W        W99727  15.839   6.765   4.119
27468W        W99728  11.738  14.157   1.841
27469W        W99729  11.592  43.417  12.924
27470W        W99730   9.698  40.604   2.262
27471W        W99731  41.857  16.188   0.999
27472W        W99732   5.221   0.044  14.655
27473W        W99733   7.936  14.738   4.808
27474W        W99734   3.823  12.087  14.768
27475W        W99735   9.381  25.089   9.764
27476W        W99736   1.259   7.685  13.388
27477W        W99737  10.791  23.642  13.379
27478W        W99738  17.500  44.809  12.168
27479W        W99739   0.743  25.402  10.711
27480W        W99740  22.942  12.425   0.287
27481W        W99741  40.478  34.937  12.965
27482W        W99742  36.328   6.721   3.722
27483W        W99743   0.475   2.754  10.755
27484W        W99744   6.512   2.189   0.946
27485W        W99745  13.811  16.330   4.704
27486W        W99746  23.516  17.252  10.618
27487W        W99747  23.220  41.439  10.471
27488W        W99748  21.851  23.304  13.600
27489W        W99749  43.724  40.510   2.074
27490W        W99750  39.629  40.850  12.071
27491W        W99751   3.978   7.142  14.710
27492W        W99752  13.663  23.391   0.757
27493W        W99753  32.627  19.308   1.369
27494W        W99754  20.885   6.213   3.273
27495W        W99755  38.802  20.842   2.726
27496W        W99756  42.119   4.216  14.927
27497W        W99757  35.029  41.439  11.087
27498W        W99758   4.494   5.436  14.293
27499W        W99759  23.713  23.531   0.245
27500W        W99760   0.048  15.561   3.344
27501W        W99761  18.852   1.143   3.239
27502W        W99762   8.148  23.504  11.260
27503W        W99763  35.659   2.605   3.758
27504W        W99764  23.024  13.305  11.962
27505W        W99765  21.658  12.243   2.526
27506W        W99766  10.707  33.595  12.124
27507W        W99767  21.983  42.348  13.501
27508W        W99768  28.953  42.287   3.279
27509W        W99769  13.703   7.785  14.070
27510W        W99770  23.206  24.989   2.321
27511W        W99771  10.768  25.285  11.024
27512W        W99772   6.155  32.446   2.865
27513W        W99773  10.586  30.202  12.511
27514W        W99774  22.013   4.870   0.994
27515W        W99775  10.608  34.027  12.388
27516W        W99776  39.061  32.833   3.452
27517W        W99777   1.730  24.706   2.268
27518W        W99778   9.489  16.346  11.196
27519W        W99779  36.835  10.059   0.542
27520W        W99780  37.362  27.109   1.312
27521W        W99781  22.234   5.462   3.715
27522W        W99782   8.511  34.140   0.290
27523W        W99783  24.191   9.650  11.632
27524W        W99784   8.816   2.385   3.614
27525W        W99785   7.301  23.227  12.941
27526W        W99786   9.576  10.785   2.755
27527W        W99787  19.063  20.172   1.693
27528W        W99788  26.564  23.932  11.994
27529W        W99789   5.909   4.145   3.607
27530W        W99790  32.319  21.185  10.907
27531W        W99791   9.796   0.593  14.508
27532W        W99792  18.713  22.696  10.599
27533W        W99793  31.710  37.361   0.275
27534W        W99794  25.200   4.710  10.801
27535W        W99795  11.313  30.026  10.296
27536W        W99796  19.208  34.970   0.935
27537W        W99797  27.223  16.387   0.826
27538W        W99798  40.018   0.346  13.966
27539W        W99799  43.235  14.467  13.090
27540W        W99800   3.880  21.336   0.351
27541W        W99801  38.788   2.346   2.634
27542W        W99802  11.202  14.110   4.650
27543W        W99803  12.476   9.878   1.756
27544W        W99804   0.663  42.355  11.095
27545W        W99805  40.059  30.489   1.750
27546W        W99806   7.402  27.416  10.189
27547W        W99807  26.840  15.145  13.441
27548W        W99808  25.003  30.410  12.689
27549W        W99809   7.305  12.849  11.791
27550W        W99810  31.636  11.834   4.146
27551W        W99811   9.189   1.676   1.714
27552W        W99812  36.355  13.370   1.454
27553W        W99813  30.210  32.182   3.720
27554W        W99814  31.891  32.125  11.173
27555W        W99815  19.050  36.643  11.516
27556W        W99816  12.282   8.366  12.038
27557W        W99817  36.687   7.233  12.618
27558W        W99818  17.848  17.676  14.600
27559W        W99819   5.959  25.581   1.377
27560W        W99820  27.109  44.751  14.983
27561W        W99821  38.019   2.372   4.604
27562W        W99822   4.130  29.093   2.117
27563W        W99823  32.196  12.786  10.192
27564W        W99824  44.070   0.340  12.587
27565W        W99825   6.834  36.749  10.789
27566W        W99826  16.480  20.831   4.269
27567W        W99827   7.500  37.808  11.417
27568W        W99828  25.212  21.739  11.359
27569W        W99829   9.215   8.383  14.280
27570W        W99830  44.478  12.619  10.944
27571W        W99831  38.511  17.252   0.070
27572W        W99832  28.907  36.203  13.416
27573W        W99833  13.730   8.467   4.253
27574W        W99834   8.666  37.748  13.732
27575W        W99835  40.120  16.253   0.960
27576W        W99836   4.896  12.875   2.814
27577W        W99837   0.757  34.660   3.627
27578W        W99838  19.468  28.023   1.840
27579W        W99839  17.265   7.514  10.803
27580W        W99840  17.708  10.778   1.297
27581W        W99841  35.609  37.442  12.009
27582W        W99842  15.197  22.375  10.630
27583W        W99843  12.205  37.074  11.928
27584W        W99844  39.174  35.466  12.042
27585W        W99845   5.895  16.470  13.602
27586W        W99846  21.071  20.799  11.481
27587W        W99847  18.091  16.077  13.444
27588W        W99848   3.880  23.743  13.896
27589W        W99849  30.428  43.354  14.904
27590W        W99850  12.752   0.255   2.109
27591W        W99851  37.955  41.061   0.786
27592W        W99852  42.373  37.411  13.861
27593W        W99853  43.817   4.813  13.814
27594W        W99854   2.209  32.065   2.243
27595W        W99855  23.283  42.036   0.248
27596W        W99856  42.543  34.592  12.985
27597W        W99857  17.238  12.814  12.616
27598W        W99858  37.311  43.749  12.938
27599W        W99859   3.386  21.306   2.816
27600W        W99860  21.751   4.808  12.521
27601W        W99861  15.647  22.062  11.039
27602W        W99862  34.148  22.199  11.135
27603W        W99863  42.592   7.936  14.644
27604W        W99864  17.695   5.283   2.905
27605W        W99865   7.632  40.377   4.135
27606W        W99866  16.041  17.601  10.743
27607W        W99867  15.542  18.263  14.591
27608W        W99868   2.417   9.921   0.336
27609W        W99869  42.451  38.899   1.553
27610W        W99870   8.676  40.940  10.812
27611W        W99871  19.505  31.270   2.834
27612W        W99872  17.091  43.823  10.667
27613W        W99873  20.892  11.050   1.073
27614W        W99874  24.701  31.928  13.810
27615W        W99875  34.785   4.173  12.199
27616W        W99876  33.705  26.942   3.361
27617W        W99877   7.841  11.527   2.118
27618W        W99878  43.855  30.631  10.627
27619W        W99879  39.622   6.279  12.336
27620W        W99880  24.103  17.502   9.592
27621W        W99881   4.481  42.984  14.867
27622W        W99882  25.632  14.106  13.410
27623W        W99883  35.657   4.487   2.830
27624W        W99884  35.049  35.884   3.270
27625W        W99885   2.234  17.393   2.543
27626W        W99886  30.076  33.065   2.382
27627W        W99887  19.212  37.495  10.714
27628W        W99888   5.673   0.053  14.394
27629W        W99889  44.070   2.978   3.280
27630W        W99890  14.585   0.925  13.998
27631W        W99891   4.653  26.084   3.339
27632W        W99892  44.329  28.898  13.439
27633W        W99893  38.753  11.858   2.926
27634W        W99894  25.520  19.251  10.595
27635W        W99895  35.912  14.180  10.911
27636W        W99896  42.315  38.849   2.034
27637W        W99897  39.799  33.513   3.748
27638W        W99898  37.329  14.642   1.985
27639W        W99899   8.425  38.951  13.566
27640W        W99900   9.405   1.489   1.250
27641W        W99901  11.235  12.318   3.556
27642W        W99902  14.679   5.310  12.479
27643W        W99903   8.740  23.662  14.485
27644W        W99904  14.919   4.788   1.458
27645W        W99905  23.896  26.492   0.796
27646W        W99906  22.323   3.835   0.328
27647W        W99907   7.313  22.792   4.530
27648W        W99908  36.167  12.348   4.016
27649W        W99909   5.591  31.152   0.396
27650W        W99910  26.021   4.734   2.495
27651W        W99911  20.608  33.703  11.950
27652W        W99912  31.358  10.193   4.216
27653W        W99913   5.808  31.959  11.648
27654W        W99914   2.332   3.857   4.929
27655W        W99915  20.678  31.580   0.162
27656W        W99916  18.159  41.514   4.599
27657W        W99917  36.157   2.737   0.054
27658W        W99918  44.830  25.440   2.669
27659W        W99919  39.805   2.484  14.490
27660W        W99920  27.471  34.179  14.652
27661W        W99921  17.170   7.874  13.319
27662W        W99922   2.447  43.777   1.448
27663W        W99923   5.440  27.989  11.985
27664W        W99924   0.789  13.113  13.972
27665W        W99925  34.912  36.167  12.390
27666W        W99926  14.593  22.111   4.501
27667W        W99927  23.211   7.703  11.598
27668W        W99928  30.538  39.339   3.852
27669W        W99929  40.448  23.758  12.562
27670W        W99930  18.344  15.432   2.480
27671W        W99931  36.532  20.842  14.758
27672W        W99932  14.725  24.607   1.891
27673W        W99933  11.880  36.017  13.822
27674W        W99934  14.574   1.773  12.161
27675W        W99935  21.753  13.099  12.183
27676W        W99936  32.675  35.871  11.198
27677W        W99937  10.309  42.641  12.897
27678W        W99938   1.800  37.562   3.683
27679W        W99939  37.491  12.478   4.150
27680W        W99940  16.677  17.861  12.633
27681W        W99941  43.373   3.472  14.361
27682W        W99942  24.085  39.809   9.782
27683W        W99943  35.828  23.974   4.043
27684W        W99944  18.935  15.597   1.867
27685W        W99945  19.224  25.797   1.363
27686W        W99946  43.554  23.717   1.191
27687W        W99947  30.120  23.375  11.382
27688W        W99948   1.686  44.948   4.184
27689W        W99949  27.578  34.936   3.537
27690W        W99950  31.708  41.598   0.190
27691W        W99951  34.084  35.105  13.299
27692W        W99952  42.247  20.711  12.395
27693W        W99953  26.616  38.300   0.914
27694W        W99954   2.471  27.444   1.719
27695W        W99955  30.104   0.166   1.426
27696W        W99956  16.577  41.470   3.359
27697W        W99957  10.989  17.273   1.504
27698W        W99958   2.291  38.640   2.382
27699W        W99959  28.528  31.734   4.037
27700W        W99960   1.396  44.836  13.500
27701W        W99961  44.062   4.375   0.184
27702W        W99962  22.242  19.974   3.556
27703W        W99963   4.348  12.087  13.645
27704W        W99964  25.139   2.783  11.447
27705W        W99965   2.070  18.810  13.515
27706W        W99966  27.994  30.142   5.510
27707W        W99967   6.422  25.466   2.360
27708W        W99968  18.715  11.199  11.110
27709W        W99969  16.368  26.316   1.663
27710W        W99970   8.178  41.894   0.653
27711W        W99971  38.898  14.670   3.656
27712W        W99972  17.749   3.308  12.336
27713W        W99973   6.012  15.714  13.936
27714W        W99974  27.124  28.961  11.612
27715W        W99975  37.456  28.708  14.264
27716W        W99976  10.320  15.712   5.426
27717W        W99977   0.165  17.152   0.825
27718W        W99978  43.708  24.970   2.858
27719W        W99979   5.888  26.156   1.490
27720W        W99980  27.967  32.953   3.175
27721W        W99981  33.540  22.212   4.272
27722W        W99982   7.420  18.856  12.525
27723W        W99983  22.449  21.850   0.766
27724W        W99984  40.397  31.887  10.635
27725W        W99985  44.921  23.153   3.150
27726W        W99986  21.603   8.140   0.222
27727W        W99987   1.047  26.601   3.385
27728W        W99988   5.177  38.864   1.361
27729W        W99989  32.951  29.143   0.861
27730W        W99990  38.288  21.568  13.399
27731W        W99991  37.956  26.933  13.072
27732W        W99992  16.108  23.635   3.925
27733W        W99993   7.120  21.563   2.343
27734W        W99994  10.818   6.367   3.193
27735W        W99995   4.710  34.198  12.353
27736W        W99996   0.767  28.989   3.790
27737W        W99997  33.834   7.591  13.435
27738W        W99998  26.702   9.259   3.871
27739W        W99999   4.181   8.789   4.574
27740W        W    0  26.039  20.130  14.016
27741W        W    1   3.285  39.315   2.246
27742W        W    2  23.492   3.154  14.912
27743W        W    3  13.177  10.441  12.552
27744W        W    4  31.038  34.468   4.487
27745W        W    5  41.781   4.689  11.977
27746W        W    6  22.231  43.200   0.906
27747W        W    7  26.874   5.187   2.885
27748W        W    8  19.313  12.974   2.326
27749W        W    9  34.287  11.094   0.318
27750W        W   10  37.073  32.623  12.998
27751W        W   11  13.596   5.464   3.160
27752W        W   12  27.169  10.799  13.765
27753W        W   13  16.595  40.514   3.806
27754W        W   14  18.443  16.740  12.950
27755W        W   15   4.594  18.786  10.876
27756W        W   16   0.744   1.854   2.585
27757W        W   17  40.490  10.605   2.782
27758W        W   18   9.235  40.661  12.434
27759W        W   19   7.125  26.912   3.122
27760W        W   20   8.698  31.588   3.211
27761W        W   21  26.732  23.348  10.255
27762W        W   22  28.937  32.889   1.739
27763W        W   23  40.649  22.758   2.678
27764W        W   24  23.520  44.045  14.315
27765W        W   25  39.588  11.868   2.178
27766W        W   26  42.928   1.897  11.412
27767W        W   27  35.607   6.185  13.865
27768W        W   28  27.065  27.094   3.417
27769W        W   29  16.068  33.462  13.531
27770W        W   30   8.915  15.378   1.274
27771W        W   31  23.180  41.549  13.420
27772W        W   32   9.433  38.290   1.892
27773W        W   33  32.956  22.703  14.787
27774W        W   34  28.002  37.018   2.374
27775W        W   35  37.830  10.214  11.862
27776W        W   36  44.731  29.674   4.922
27777W        W   37  14.751  21.067   1.691
27778W        W   38  32.948   5.855  10.877
27779W        W   39  19.212  14.245  12.448
27780W        W   40  16.041  37.813  10.786
27781W        W   41  31.343   0.800   0.202
27782W        W   42  25.572   2.428   1.454
27783W        W   43  31.298  22.561  14.314
27784W        W   44  10.135   7.184   4.162
27785W        W   45  32.834  40.376  11.871
27786W        W   46  11.602  25.875   3.744
27787W        W   47  11.869  40.335   5.235
27788W        W   48  12.136   7.179  14.559
27789W        W   49  27.094  33.460   4.021
27790W        W   50  41.840   7.265  11.438
27791W        W   51  26.577   7.450   3.210
27792W        W   52  38.254  40.841   1.798
27793W        W   53  20.516  36.768   3.349
27794W        W   54  16.299  43.720  13.328
27795W        W   55  10.387  21.043   0.864
27796W        W   56  32.209  37.871   2.334
27797W        W   57   3.247  33.716   1.284
27798W        W   58  20.732   1.742   0.006
27799W        W   59  33.222  28.949   2.201
27800W        W   60   9.775   6.189   1.252
27801W        W   61  39.360  40.612   3.725
27802W        W   62  11.812   1.593   1.420
27803W        W   63  33.081  11.806   3.103
27804W        W   64  40.519   8.833   4.150
27805W        W   65  17.169  35.599   1.715
27806W        W   66  26.408  19.213  10.341
27807W        W   67   0.618   5.335  11.899
27808W        W   68  36.304  24.579  12.493
27809W        W   69  19.222   4.246  14.347
27810W        W   70  33.369   9.778   0.282
27811W        W   71  18.035  12.812   3.695
27812W        W   72  20.139  40.844  11.170
27813W        W   73  40.026  44.495   0.818
27814W        W   74   7.702  39.087   2.709
27815W        W   75  23.342  37.458   2.201
27816W        W   76  11.050   3.859   0.822
27817W        W   77   8.841  24.160   2.913
27818W        W   78  28.183  28.600  10.920
27819W        W   79  17.608  32.979  11.348
27820W        W   80  10.760   6.247  12.101
27821W        W   81   8.894  28.403   2.186
27822W        W   82  24.772  26.682  11.066
27823W        W   83   6.934  25.490   3.279
27824W        W   84  37.310  17.579  12.463
27825W        W   85   3.221  24.486   2.226
27826W        W   86  17.152  20.387  11.123
27827W        W   87  42.860  44.515  13.286
27828W        W   88  35.781  24.207   1.346
27829W        W   89   3.654  28.003  14.475
27830W        W   90  13.585  10.129  12.598
27831W        W   91  17.830  34.650   2.400
27832W        W   92  12.228   6.459   0.477
27833W        W   93  22.087  10.664   3.737
27834W        W   94  10.243  40.479  14.986
27835W        W   95   8.754  36.165   3.846
27836W        W   96  24.918  34.590   0.342
27837W        W   97  40.035  26.915  13.422
27838W        W   98   6.639  25.398  11.376
27839W        W   99  39.321   3.845   3.147
27840W        W  100   8.292  21.133  10.958
27841W        W  101  25.656  13.201   2.190
27842W        W  102   8.624   7.307   1.220
27843W        W  103  36.377  30.290  10.140
27844W        W  104  20.136  26.676   3.826
27845W        W  105  42.103  40.899  13.790
27846W        W  106  12.634  31.532  10.891
27847W        W  107  38.394  38.446  11.346
27848W        W  108  43.729  25.482   2.204
27849W        W  109  24.774  44.025  12.739
27850W        W  110  32.476  37.081  13.937
27851W        W  111  32.491   9.662  11.948
27852W        W  112  14.014  23.559   4.115
27853W        W  113  42.494  12.216  13.599
27854W        W  114  17.024   7.277   5.106
27855W        W  115   9.792  39.763   2.720
27856W        W  116   7.893   0.550  12.460
27857W        W  117  18.737  14.332   4.486
27858W        W  118  14.314  10.554   4.183
27859W        W  119   9.090  13.578   1.790
27860W        W  120  22.899   0.966  14.368
27861W        W  121  25.842  29.477  14.471
27862W        W  122  31.901  38.502   0.622
27863W        W  123  13.225   3.387   1.931
27864W        W  124  28.796  28.122  10.693
27865W        W  125  29.416   9.231   1.111
27866W        W  126  42.741   1.698   0.904
27867W        W  127  35.095   1.910  14.740
27868W        W  128  12.087  28.475   3.648
27869W        W  129  10.643  26.675  12.676
27870W        W  130  18.028   9.436   1.900
27871W        W  131  42.845  30.482   4.763
27872W        W  132  41.292  44.948   0.877
27873W        W  133  25.823  23.887   0.974
27874W        W  134  38.815   6.162  11.434
27875W        W  135  29.495  20.836  13.481
27876W        W  136  21.080  17.544  11.645
27877W        W  137  12.886  34.894   3.412
27878W        W  138   6.219  36.950   3.599
27879W        W  139   2.180  17.536   0.444
27880W        W  140  29.465   5.028   5.079
27881W        W  141  10.222  41.595  10.433
27882W        W  142  41.674  34.922   2.686
27883W        W  143   2.762  13.060   4.481
27884W        W  144  19.689  44.389  12.259
27885W        W  145   0.489  44.291   0.696
27886W        W  146  19.668  44.931  12.293
27887W        W  147  11.622  20.355  12.070
27888W        W  148  38.187  25.971   2.931
27889W        W  149  22.128  22.935  11.430
27890W        W  150  13.339  16.319  14.225
27891W        W  151  25.019   5.094   1.686
27892W        W  152   6.010  41.982  13.795
27893W        W  153   4.556  40.818   5.128
27894W        W  154   5.172  26.611  13.952
27895W        W  155   7.194  30.102   1.991
27896W        W  156  28.468  23.693   2.416
27897W        W  157  34.473  38.623  12.619
27898W        W  158  40.357  43.039   2.135
27899W        W  159  27.511  39.387  11.086
27900W        W  160  16.313   9.812   3.684
27901W        W  161  14.065  29.935   1.299
27902W        W  162   1.457  43.863   4.582
27903W        W  163  41.904   7.912   2.915
27904W        W  164  12.748   2.323  12.000
27905W        W  165  23.722  27.180   2.288
27906W        W  166   4.316  10.387   3.375
27907W        W  167   7.494  23.660   1.808
27908W        W  168  15.768   1.730  10.995
27909W        W  169  25.698  12.940  14.297
27910W        W  170  31.021   5.831   1.881
27911W        W  171  37.174  11.289   0.760
27912W        W  172  30.103  42.550  11.561
27913W        W  173  26.517   0.493   2.427
27914W        W  174  10.806  35.885   3.620
27915W        W  175  36.208  42.318  12.638
27916W        W  176  28.548  44.342   3.983
27917W        W  177  43.622  15.136   1.366
27918W        W  178  11.551   9.500  13.966
27919W        W  179  40.902  23.566  12.691
27920W        W  180  33.487  43.521  13.834
27921W        W  181  20.481  23.120  13.949
27922W        W  182  12.569  13.104  14.450
27923W        W  183  20.574  25.505   0.574
27924W        W  184  39.805   3.027  12.513
27925W        W  185  17.226  15.251  11.083
27926W        W  186  14.050  43.793   1.392
27927W        W  187   1.159  30.211  12.063
27928W        W  188  12.291   5.921   0.475
27929W        W  189  41.351  15.643  11.624
27930W        W  190  25.520  34.849   2.850
27931W        W  191  12.606  15.855   5.437
27932W        W  192  15.492  35.060  13.307
27933W        W  193  14.217  35.593  12.953
27934W        W  194  18.687  42.962   2.123
27935W        W  195  36.364  12.079   1.852
27936W        W  196  23.525  37.028   1.914
27937W        W  197  37.936   3.896  11.133
27938W        W  198  37.383  38.723   4.192
27939W        W  199  31.180  42.285   2.615
27940W        W  200  43.972  14.256  13.686
27941W        W  201   0.102   3.007   4.202
27942W        W  202  22.595  12.208   2.888
27943W        W  203  40.961  25.458  13.762
27944W        W  204   8.471  27.922   4.712
27945W        W  205  39.549   3.196   2.243
27946W        W  206  18.684   4.516   3.339
27947W        W  207  21.469   1.760  14.692
27948W        W  208  43.506  39.865  14.928
27949W        W  209  36.864  15.689  13.348
27950W        W  210  15.769   8.143  10.990
27951W        W  211  31.694   8.410  13.573
27952W        W  212  11.708  30.590  10.730
27953W        W  213  19.155   5.130  12.370
27954W        W  214  40.813  27.166   2.298
27955W        W  215  29.583  34.885  11.217
27956W        W  216   1.906   7.526   1.787
27957W        W  217  44.307  11.204   2.884
27958W        W  218  16.267  22.732  12.088
27959W        W  219  10.826  11.958   0.741
27960W        W  220   9.195  14.625  10.940
27961W        W  221   3.416  40.578  12.571
27962W        W  222  23.776  32.833  14.134
27963W        W  223   1.989   2.712   2.791
27964W        W  224  28.167  21.670  14.698
27965W        W  225  43.941  39.130   2.396
27966W        W  226   1.686  43.133  12.934
27967W        W  227  29.624  36.485   3.157
27968W        W  228  18.240  33.916   3.667
27969W        W  229  30.403   7.636   3.144
27970W        W  230  37.677  30.211  11.934
27971W        W  231  34.555  20.001  12.006
27972W        W  232   8.227  13.711  14.823
27973W        W  233  26.999   0.733  14.924
27974W        W  234  25.623  32.409   1.891
27975W        W  235  24.726  29.890   4.503
27976W        W  236   9.196  41.487   4.673
27977W        W  237  41.018  21.599   3.455
27978W        W  238  15.250   3.228   4.598
27979W        W  239   9.385   2.450   1.319
27980W        W  240  12.113   8.666   0.352
27981W        W  241  42.659  13.697   2.107
27982W        W  242   8.671   1.958  13.289
27983W        W  243  43.187  11.637   0.918
27984W        W  244  10.658  29.269   4.906
27985W        W  245  43.545   6.547   2.702
27986W        W  246   9.235  33.458   4.601
27987W        W  247  41.708  27.662   3.692
27988W        W  248   8.138  41.800  13.827
27989W        W  249  13.489  39.631   1.425
27990W        W  250  20.285  32.113  11.457
27991W        W  251  36.036  16.819  13.544
27992W        W  252  37.979  28.523   1.894
27993W        W  253  32.670  42.987   4.029
27994W        W  254  32.997  28.417  11.959
27995W        W  255   0.765  24.109  11.183
27996W        W  256  44.547   3.756   3.645
27997W        W  257  41.811  17.331  10.723
27998W        W  258  42.436  25.830  11.060
27999W        W  259   8.451  33.594  11.621
28000W        W  260  41.077  31.487   0.296
28001W        W  261   3.364  24.024   4.433
28002W        W  262  13.911  28.642  11.683
28003W        W  263  12.254   3.520   4.571
28004W        W  264  16.092  20.538   1.603
28005W        W  265  33.387  22.633   3.459
28006W        W  266  18.081  19.127  11.052
28007W        W  267  21.180  11.335  13.841
28008W        W  268   1.342  27.624  10.842
28009W        W  269  20.730  38.923  14.935
28010W        W  270  18.480  35.099   0.301
28011W        W  271  25.127  30.132   1.147
28012W        W  272  11.060  25.481   4.256
28013W        W  273  34.326  42.064  11.115
28014W        W  274  13.233  14.727   5.320
28015W        W  275  25.073  39.029  10.496
28016W        W  276  24.185   8.931   2.334
28017W        W  277  31.124  19.236  11.885
28018W        W  278  23.302  35.862   4.979
28019W        W  279  14.620  16.642   4.121
28020W        W  280   0.797  26.946   2.654
28021W        W  281  29.694  39.560   4.902
28022W        W  282  44.615  19.953  12.885
28023W        W  283   8.078  12.811   2.895
28024W        W  284   4.687  37.434   0.917
28025W        W  285  28.385   3.461   2.841
28026W        W  286  44.413  17.960  10.538
28027W        W  287  41.846  35.836  12.810
28028W        W  288  15.167  38.556   4.430
28029W        W  289  16.710   6.107   5.033
28030W        W  290  37.998  25.684  11.013
28031W        W  291   7.722  32.169   4.915
28032W        W  292  25.762  29.453   1.438
28033W        W  293  38.857   5.793   0.356
28034W        W  294   1.928  15.211   4.592
28035W        W  295   0.164  44.957  14.340
28036W        W  296  16.359   1.308   1.185
28037W        W  297  32.507   6.768   4.834
28038W        W  298   7.352  37.546   0.284
28039W        W  299  44.662  13.884  12.806
28040W        W  300   0.631  44.952   0.307
28041W        W  301  21.700  19.354  10.253
28042W        W  302  20.817  22.281   0.777
28043W        W  303  32.944  42.535   3.760
28044W        W  304   5.266  28.157   0.483
28045W        W  305  27.179   6.686  11.404
28046W        W  306  25.263  14.143   3.138
28047W        W  307  39.892  32.530  13.699
28048W        W  308  14.557  27.468   2.834
28049W        W  309  16.515  28.037  14.280
28050W        W  310  42.629  34.375   1.968
28051W        W  311  36.970  10.314   3.310
28052W        W  312  32.425  42.556   3.740
28053W        W  313  23.996   3.229  13.068
28054W        W  314  23.652  26.591   2.638
28055W        W  315  17.307  19.768  13.788
28056W        W  316  44.388  25.340  13.096
28057W        W  317   3.495  25.148  12.068
28058W        W  318   3.271  22.799  14.976
28059W        W  319  38.475   9.934  11.138
28060W        W  320  41.334  22.723   4.362
28061W        W  321  31.756   7.793   2.165
28062W        W  322  14.450  44.528  11.358
28063W        W  323  15.521  38.615  13.708
28064W        W  324  28.891  40.355   0.553
28065W        W  325  39.803  41.782  13.881
28066W        W  326  28.952  38.999  13.948
28067W        W  327  20.239  12.286   1.826
28068W        W  328  16.593  30.703   3.193
28069W        W  329  37.522  17.106  12.528
28070W        W  330   2.978  19.017   0.478
28071W        W  331  14.227  15.207  12.549
28072W        W  332  17.065  22.025   1.263
28073W        W  333  39.994  28.463  11.901
28074W        W  334   8.771  19.803  13.863
28075W        W  335  14.155  43.369   0.463
28076W        W  336  24.807  43.459   0.362
28077W        W  337   4.901   8.167   0.767
28078W        W  338  29.055  29.595  14.882
28079W        W  339  16.834  18.330  11.722
28080W        W  340  43.853  16.849   1.463
28081W        W  341  10.507  22.812  12.554
28082W        W  342   6.953  10.750   2.476
28083W        W  343  13.568   6.536  14.438
28084W        W  344  29.122  28.100  14.569
28085W        W  345  36.538  19.398   1.547
28086W        W  346  23.889  32.614  11.407
28087W        W  347  43.598  26.801   0.959
28088W        W  348  27.915  36.748  13.946
28089W        W  349  20.246  10.227  13.761
28090W        W  350  43.817  43.467   1.459
28091W        W  351  38.926  31.150   1.061
28092W        W  352  32.602  32.909  12.559
28093W        W  353  30.244   1.850   0.738
28094W        W  354  24.425  39.847  10.232
28095W        W  355  32.798  32.757   4.242
28096W        W  356  40.536   6.299  12.419
28097W        W  357  17.447  14.791   1.794
28098W        W  358   5.378  35.815   1.464
28099W        W  359  19.623  25.782  10.719
28100W        W  360  11.909  34.632   1.279
28101W        W  361   7.581   0.476  14.996
28102W        W  362   6.150  10.951   1.013
28103W        W  363  33.862   2.188  14.285
28104W        W  364  41.146  12.543  10.661
28105W        W  365  24.457   9.935   1.835
28106W        W  366  24.145   0.498  12.732
28107W        W  367  19.362  35.358  13.527
28108W        W  368  41.170  42.506   1.876
28109W        W  369  39.809  32.464   3.190
28110W        W  370  35.061  39.386  10.529
28111W        W  371  13.657  42.777  11.026
28112W        W  372   1.655  35.459   0.832
28113W        W  373   9.766   8.705   1.612
28114W        W  374  43.744  13.275  11.189
28115W        W  375  14.084  43.511   3.224
28116W        W  376  37.459  32.014   3.264
28117W        W  377  39.967   2.879   4.452
28118W        W  378   2.221  12.242   0.949
28119W        W  379  42.801  41.540   0.442
28120W        W  380  36.131   3.282  11.273
28121W        W  381  43.815  11.324   4.091
28122W        W  382   4.889  40.944  11.685
28123W        W  383  18.457  33.030   3.809
28124W        W  384   0.015  20.816   1.803
28125W        W  385  29.283  42.332   2.299
28126W        W  386  41.662  19.812  13.522
28127W        W  387  29.438  34.077  11.603
28128W        W  388  22.086  17.598   3.414
28129W        W  389  30.581  19.703  10.180
28130W        W  390   2.242  18.675   4.328
28131W        W  391  23.523  36.588  14.099
28132W        W  392  33.949  43.056  12.914
28133W        W  393   7.726  16.371  10.568
28134W        W  394  11.244  26.944  13.144
28135W        W  395  13.588   8.897  12.361
28136W        W  396  33.217  42.312   3.363
28137W        W  397  14.169  36.067  10.292
28138W        W  398  24.599  18.960   3.315
28139W        W  399  43.928  39.261   0.220
28140W        W  400  37.042  41.081  13.809
28141W        W  401  11.785   0.709  10.625
28142W        W  402   3.069  44.636  10.938
28143W        W  403  36.149   4.005  12.573
28144W        W  404  24.079   6.871  12.559
28145W        W  405  20.444  38.967   2.244
28146W        W  406  36.091   8.329  14.069
28147W        W  407  23.041   7.081   1.583
28148W        W  408   4.975  32.168   2.678
28149W        W  409   5.009  20.346   3.732
28150W        W  410  13.232  16.033  14.720
28151W        W  411   9.076  25.609  14.300
28152W        W  412  33.257  37.246  10.678
28153W        W  413  41.849  38.755   2.302
28154W        W  414  27.671   3.380  12.060
28155W        W  415  36.994   7.912  11.402
28156W        W  416  37.372  29.629   1.918
28157W        W  417  44.180  25.917  14.000
28158W        W  418  24.112  43.556  12.312
28159W        W  419  16.320  21.209   1.778
28160W        W  420  27.161  18.510   2.646
28161W        W  421  29.927  19.582   1.703
28162W        W  422  39.450  20.169   2.476
28163W        W  423  40.211  19.532  12.090
28164W        W  424  20.250  18.325  11.064
28165W        W  425  12.639  43.880  13.615
28166W        W  426  16.772  44.467  11.622
28167W        W  427   5.443  25.932  14.703
28168W        W  428  24.554  29.862   1.795
28169W        W  429  33.659  26.592  13.888
28170W        W  430  39.482  24.542   2.876
28171W        W  431  35.367   9.651   2.879
28172W        W  432  42.108  29.590   0.551
28173W        W  433  29.624  12.247   1.283
28174W        W  434  33.481  23.521   1.824
28175W        W  435  23.041  43.340  11.163
28176W        W  436   1.483  44.911  14.070
28177W        W  437  27.931  36.104   2.760
28178W        W  438  27.257  33.080  13.601
28179W        W  439  20.989  41.751   2.717
28180W        W  440  13.203  11.642  10.814
28181W        W  441   4.926  36.598  13.392
28182W        W  442  27.366  40.483   5.352
28183W        W  443  13.096  30.650   0.705
28184W        W  444   5.763  12.837  11.595
28185W        W  445  16.729   2.005   3.820
28186W        W  446  39.858  33.170   4.752
28187W        W  447   8.651  29.336   1.554
28188W        W  448  34.589  36.524   2.131
28189W        W  449  27.734  36.877  14.931
28190W        W  450  12.109  24.025  12.143
28191W        W  451   8.215   7.403  14.376
28192W        W  452   4.680  13.122  14.545
28193W        W  453  25.651  27.237   2.991
28194W        W  454  43.819  38.452   3.426
28195W        W  455  42.576  36.559  13.962
28196W        W  456  34.007   5.172  11.995
28197W        W  457  34.911  11.180   2.717
28198W        W  458  29.580  26.285   2.269
28199W        W  459  37.725  30.028  10.779
28200W        W  460  39.753  26.552   2.840
28201W        W  461   7.540  33.289   3.665
28202W        W  462  34.579   1.494  13.439
28203W        W  463  31.427   3.176   3.134
28204W        W  464  42.308  41.762  11.928
28205W        W  465  21.503   3.070  14.769
28206W        W  466  23.488   8.182  12.929
28207W        W  467  16.522   2.718  11.466
28208W        W  468   6.388  44.359  12.310
28209W        W  469   5.072  29.777  13.040
28210W        W  470  40.525  21.449   3.280
28211W        W  471   3.352  21.635   1.522
28212W        W  472  10.217  37.587   2.004
28213W        W  473  24.535  13.849  13.579
28214W        W  474  34.528  39.792  11.086
28215W        W  475  10.321  12.877   2.397
28216W        W  476  25.127  31.583   4.545
28217W        W  477  40.972  29.085  13.452
28218W        W  478  16.848  34.614   2.793
28219W        W  479  29.615   8.176  14.069
28220W        W  480  31.142  39.583  10.548
28221W        W  481  15.849  16.316  13.901
28222W        W  482   8.259   1.298  14.334
28223W        W  483   1.369  27.913  12.917
28224W        W  484  19.344  41.415   3.770
28225W        W  485  43.338  37.359  11.870
28226W        W  486  26.113  22.972   1.670
28227W        W  487  35.581   4.709   0.132
28228W        W  488  20.120   8.117  12.005
28229W        W  489  14.428  39.759   1.085
28230W        W  490   6.423  18.152  13.514
28231W        W  491  31.930  25.756   0.793
28232W        W  492  27.981  34.166  12.149
28233W        W  493  21.580  41.039   3.242
28234W        W  494  13.862  10.136  14.962
28235W        W  495  41.066  32.000   3.293
28236W        W  496  17.623  40.355   3.338
28237W        W  497  15.060  44.674   1.384
28238W        W  498   0.304  32.866   0.859
28239W        W  499  22.508  30.052   0.809
28240W        W  500  14.088   9.372  13.083
28241W        W  501  41.434  25.544  13.499
28242W        W  502   5.301  26.380  13.490
28243W        W  503  11.794  15.535   2.669
28244W        W  504  25.189  33.194  12.159
28245W        W  505  31.823  18.338  11.158
28246W        W  506   2.914  25.545   4.148
28247W        W  507  33.875  43.577  13.008
28248W        W  508   5.678  20.069   0.865
28249W        W  509   7.932  15.127   1.205
28250W        W  510   1.550   1.713  13.490
28251W        W  511  12.335   1.242  13.480
28252W        W  512  18.100   2.188   0.529
28253W        W  513  23.776  30.979  11.377
28254W        W  514  36.917  40.059   3.263
28255W        W  515  14.611  20.524  14.331
28256W        W  516  32.612   0.830   2.391
28257W        W  517  31.641  37.870   0.300
28258W        W  518  38.433  27.434   3.463
28259W        W  519   5.926   4.457   2.264
28260W        W  520   0.028  27.292   4.885
28261W        W  521   6.999  14.227   3.222
28262W        W  522  14.265  44.795  13.563
28263W        W  523  38.938   8.836  10.678
28264W        W  524   6.698  41.411  11.440
28265W        W  525  26.947  33.307  13.934
28266W        W  526  40.478   5.197  13.507
28267W        W  527  19.140   0.186   2.307
28268W        W  528  43.862  36.904   1.687
28269W        W  529   3.857   9.894  10.818
28270W        W  530  43.239  12.115  12.872
28271W        W  531   1.495  35.981  12.080
28272W        W  532  20.699   7.338  14.814
28273W        W  533  33.740  11.659   9.840
28274W        W  534  32.441  42.231   2.189
28275W        W  535  36.163  37.409  13.469
28276W        W  536  26.701   3.240  10.539
28277W        W  537  18.587  35.057  11.697
28278W        W  538   2.606  31.909  14.511
28279W        W  539  40.814   9.197   4.467
28280W        W  540  20.743  44.963   1.396
28281W        W  541  37.019  23.468   3.241
28282W        W  542  26.007  41.371  12.560
28283W        W  543  36.962   0.827   2.573
28284W        W  544  28.745   5.218   4.561
28285W        W  545  22.293  39.508  12.568
28286W        W  546   3.268  34.496   0.549
28287W        W  547  10.570  19.678   1.909
28288W        W  548  17.651  37.700  14.213
28289W        W  549  13.127  22.996   3.699
28290W        W  550  42.923  15.723   2.155
28291W        W  551  18.092  38.891   0.000
28292W        W  552  42.527   7.356   2.564
28293W        W  553  15.255  22.076  13.145
28294W        W  554  14.992  32.013   1.650
28295W        W  555   0.978  43.179  13.884
28296W        W  556  43.753   1.273  14.121
28297W        W  557  16.852  38.056  13.984
28298W        W  558  11.377  19.723   0.748
28299W        W  559  34.683  39.255  11.089
28300W        W  560  11.281  39.921  14.095
28301W        W  561  10.382  21.676   5.131
28302W        W  562  15.658  18.871  13.890
28303W        W  563  11.098  43.252  13.399
28304W        W  564   4.403  19.476  10.646
28305W        W  565  13.068  13.750   0.623
28306W        W  566   1.414  31.413  10.782
28307W        W  567   6.482  27.694  10.037
28308W        W  568   8.752  40.525   0.903
28309W        W  569  27.112  13.800  12.308
28310W        W  570  26.407  20.090   3.599
28311W        W  571  21.581  26.679   3.694
28312W        W  572  20.766  28.156   1.893
28313W        W  573  32.208   0.025   1.827
28314W        W  574   7.905  14.849  11.168
28315W        W  575  22.052  38.871   4.662
28316W        W  576  21.139  18.680   5.159
28317W        W  577  41.275  27.399   2.305
28318W        W  578   1.469  34.930   4.454
28319W        W  579  34.441  26.366  14.275
28320W        W  580  41.078  13.343  11.433
28321W        W  581  21.026  24.641  11.848
28322W        W  582  20.013  23.058   3.324
28323W        W  583  10.310  24.096   2.712
28324W        W  584   6.698  25.280   2.863
28325W        W  585  24.180   5.822  14.249
28326W        W  586  33.358  16.159  14.682
28327W        W  587   9.229  33.899   0.057
28328W        W  588  30.960  33.359  11.104
28329W        W  589  34.022  42.526   0.291
28330W        W  590  30.381  35.031   1.789
28331W        W  591  17.207  10.206  13.089
28332W        W  592   9.389  26.514  10.334
28333W        W  593  35.566  32.633  13.471
28334W        W  594  27.538  19.214   0.565
28335W        W  595  30.704  20.787  11.982
28336W        W  596   9.770  17.199   5.080
28337W        W  597  19.491  28.121   3.656
28338W        W  598  19.820   2.677   4.179
28339W        W  599  43.847   8.444  12.091
28340W        W  600  12.167  26.718  10.953
28341W        W  601  21.747  22.269   0.406
28342W        W  602  29.132  25.145   3.669
28343W        W  603  26.518   4.716   0.814
28344W        W  604   7.711  25.529  13.843
28345W        W  605   4.809   0.467   1.679
28346W        W  606  16.709   9.848  11.057
28347W        W  607  11.092  25.590   0.179
28348W        W  608   5.734  44.726  13.989
28349W        W  609  25.211  19.361  13.224
28350W        W  610  35.338  41.560   2.330
28351W        W  611  26.738   4.859  11.722
28352W        W  612   9.985  36.624  10.669
28353W        W  613  15.130  14.077  14.567
28354W        W  614  33.079  20.525  12.119
28355W        W  615  19.802  27.605  12.601
28356W        W  616  37.858  23.932  11.940
28357W        W  617  43.743  41.866  14.437
28358W        W  618  13.138  44.565   1.843
28359W        W  619  21.939   2.819  10.375
28360W        W  620  42.332  17.249  13.173
28361W        W  621  13.308  13.673  13.992
28362W        W  622  44.165   7.840   1.246
28363W        W  623  39.258  40.586   4.655
28364W        W  624  24.084   3.236   3.562
28365W        W  625   6.678  18.750   1.481
28366W        W  626   8.156  26.226   4.116
28367W        W  627   5.821  15.272   2.145
28368W        W  628  16.465  37.997   1.842
28369W        W  629  36.130   2.898   2.278
28370W        W  630  17.142  33.669   0.684
28371W        W  631   4.158  25.547   4.543
28372W        W  632  32.365  30.024  12.757
28373W        W  633   6.389  34.562  10.601
28374W        W  634  15.100  25.488  11.597
28375W        W  635   8.747  18.495   4.946
28376W        W  636  10.871  22.156  10.510
28377W        W  637   7.081  37.984   0.409
28378W        W  638   1.343  17.729   0.157
28379W        W  639  21.008  36.858  10.738
28380W        W  640   6.052  32.962   2.766
28381W        W  641  19.074  27.126  14.269
28382W        W  642  34.233  37.048   1.250
28383W        W  643   8.896  26.289   1.826
28384W        W  644  33.831  39.811  11.527
28385W        W  645  11.367  38.252   1.744
28386W        W  646  28.384   5.217   2.875
28387W        W  647  17.267   7.679   2.370
28388W        W  648  19.963  43.429   0.336
28389W        W  649  40.239  14.602   1.789
28390W        W  650   1.213  37.180  12.565
28391W        W  651  22.165  20.029  13.342
28392W        W  652   3.003   6.220  14.580
28393W        W  653   7.973  25.739   2.308
28394W        W  654   0.348  44.281   1.605
28395W        W  655   7.483  30.088  12.376
28396W        W  656  33.410  32.347  13.622
28397W        W  657  27.232  41.067  12.115
28398W        W  658   8.281  18.282   1.780
28399W        W  659  44.378  27.560  10.794
28400W        W  660  24.528   3.777   1.857
28401W        W  661  32.095  13.639  12.941
28402W        W  662   2.187  41.038  14.847
28403W        W  663  32.830  33.649  13.502
28404W        W  664  32.331  18.255   3.765
28405W        W  665  28.534  40.817   3.452
28406W        W  666   3.892  28.664  12.631
28407W        W  667   7.470  33.961  12.071
28408W        W  668   7.214  18.493   1.988
28409W        W  669  26.066  16.097  11.254
28410W        W  670  16.509   4.860   2.849
28411W        W  671  32.567  39.408  14.298
28412W        W  672  12.268  17.117  13.110
28413W        W  673  14.726  41.779   0.858
28414W        W  674  14.750  37.355  11.384
28415W        W  675  26.604  31.508  10.494
28416W        W  676  43.571   1.242   1.440
28417W        W  677  14.667  32.157   0.800
28418W        W  678   2.515   7.167  11.007
28419W        W  679  44.431  15.730  11.440
28420W        W  680  27.001  34.405  13.293
28421W        W  681  27.148  31.613  13.344
28422W        W  682   9.677  27.699  12.855
28423W        W  683  33.907  28.685  11.654
28424W        W  684  29.061  34.872  13.411
28425W        W  685   4.898  10.181  11.248
28426W        W  686  44.439  20.983   0.334
28427W        W  687   9.293  27.111   3.843
28428W        W  688  21.165  38.842  13.228
28429W        W  689  39.510  37.924  14.074
28430W        W  690  31.615  35.825  14.441
28431W        W  691  20.220  10.344  13.260
28432W        W  692  18.008  19.629  14.302
28433W        W  693   5.332  21.274   1.462
28434W        W  694  35.277  14.270   0.853
28435W        W  695  10.836  36.944   0.791
28436W        W  696  37.342  39.531  11.916
28437W        W  697  25.741  29.090   3.605
28438W        W  698  34.572   5.795   4.511
28439W        W  699  21.772  19.137   1.233
28440W        W  700  33.922  12.374  14.363
28441W        W  701   0.711   0.632   1.025
28442W        W  702  22.825  39.436  14.300
28443W        W  703  24.484  37.980   1.141
28444W        W  704   5.930  19.081  13.352
28445W        W  705  37.842  25.665   4.707
28446W        W  706  24.758   5.237  14.325
28447W        W  707   3.854  11.706   3.856
28448W        W  708  38.306  44.056  12.860
28449W        W  709  17.767  29.666  14.879
28450W        W  710  42.946   6.404  14.952
28451W        W  711  44.669  22.811  14.245
28452W        W  712  24.676  19.552   0.950
28453W        W  713  34.568   9.778  10.451
28454W        W  714  27.545  28.134   3.720
28455W        W  715  32.272  30.963  13.433
28456W        W  716  41.338  24.972  11.443
28457W        W  717   0.025  22.517  11.530
28458W        W  718   5.094  24.530   4.558
28459W        W  719   6.330  41.572   2.872
28460W        W  720  23.978  29.385   1.338
28461W        W  721  19.140  15.406   1.418
28462W        W  722  43.426  26.102  10.895
28463W        W  723  15.141  10.326   3.294
28464W        W  724  17.096  16.799   0.004
28465W        W  725  39.050   9.152  13.486
28466W        W  726   6.469  36.473  12.431
28467W        W  727  41.366  44.704  11.408
28468W        W  728  36.298  11.334   0.372
28469W        W  729  11.403  19.947   1.464
28470W        W  730  15.488  21.893  13.561
28471W        W  731  11.759   2.828  11.082
28472W        W  732  22.639  24.442   0.309
28473W        W  733  19.172  18.687  13.937
28474W        W  734  29.634  42.374  14.972
28475W        W  735  44.448  19.090   1.743
28476W        W  736  18.422  32.297  10.171
28477W        W  737   7.880  35.663  10.582
28478W        W  738  24.101  19.153   0.337
28479W        W  739   5.900  41.705  11.953
28480W        W  740  14.046   4.677  13.940
28481W        W  741  14.105  22.254   2.069
28482W        W  742  13.086  42.319   3.678
28483W        W  743  30.123  35.858  11.539
28484W        W  744   8.656  27.484   1.376
28485W        W  745  32.310   9.257  12.166
28486W        W  746  16.172  16.945   1.912
28487W        W  747   3.233  16.910  14.234
28488W        W  748   0.558   4.209  12.540
28489W        W  749  40.173  25.709   2.629
28490W        W  750  34.483  19.477  12.065
28491W        W  751  11.400  43.929  10.589
28492W        W  752   1.271  23.085   3.685
28493W        W  753  39.318  33.286   4.105
28494W        W  754   4.839   1.236  11.504
28495W        W  755  32.609  19.599  14.456
28496W        W  756  38.712  29.581   3.357
28497W        W  757  24.505   7.172  12.562
28498W        W  758  27.882  41.094  12.929
28499W        W  759   0.768   7.676   4.089
28500W        W  760  18.322  11.538   4.837
28501W        W  761  40.728  42.548   0.069
28502W        W  762  36.904  33.125   3.872
28503W        W  763  41.502  38.454   4.440
28504W        W  764   8.217   0.164  11.140
28505W        W  765  31.368  41.789   3.710
28506W        W  766  15.884  21.327  10.635
28507W        W  767  36.959   3.446  11.594
28508W        W  768  35.461  13.294   3.678
28509W        W  769  16.027  42.963  12.800
28510W        W  770  41.501  31.107   1.827
28511W        W  771   2.729   8.188   0.046
28512W        W  772  17.262  40.763   4.090
28513W        W  773  33.637   8.284   0.452
28514W        W  774  12.772  44.913  12.398
28515W        W  775  31.069  38.820   4.910
28516W        W  776  15.631  31.868   0.495
28517W        W  777   1.300   5.742   0.416
28518W        W  778  17.248   5.647   5.183
28519W        W  779  17.323  17.176   0.414
28520W        W  780  38.870  34.718   2.829
28521W        W  781  39.334  34.323  14.786
28522W        W  782  29.413   7.638   0.998
28523W        W  783   1.356   0.415  11.909
28524W        W  784   4.981  33.732  12.459
28525W        W  785   4.675  18.285  12.542
28526W        W  786  17.561   8.672  14.443
28527W        W  787   1.016  44.541  13.043
28528W        W  788   5.749  43.568  10.743
28529W        W  789  22.309  19.061   3.228
28530W        W  790  31.217  38.941  14.377
28531W        W  791   2.793  15.740   4.786
28532W        W  792  38.884  28.949   2.659
28533W        W  793  20.987  23.002   5.019
28534W        W  794   2.897  40.154   0.719
28535W        W  795  44.187  16.033   4.166
28536W        W  796  13.866  25.645   2.381
28537W        W  797  31.434  21.757   0.712
28538W        W  798   4.684  38.260  14.714
28539W        W  799  40.634  40.178  13.373
28540W        W  800   0.326  31.705   4.715
28541W        W  801  25.176  10.638  14.974
28542W        W  802  18.435  37.272   0.187
28543W        W  803   4.396  23.969   4.213
28544W        W  804  28.112  30.579   0.496
28545W        W  805  35.648   3.488   1.883
28546W        W  806   2.566  35.573  11.138
28547W        W  807  23.498   7.266  11.858
28548W        W  808   4.485  40.489   0.606
28549W        W  809  12.610  11.244   1.682
28550W        W  810   2.463   0.293  13.346
28551W        W  811  15.324  37.503  13.087
28552W        W  812  11.276   8.315   1.409
28553W        W  813  32.451  24.968   4.448
28554W        W  814  34.066  21.202   5.460
28555W        W  815  44.830  30.374   2.716
28556W        W  816  33.672  34.033   2.586
28557W        W  817   9.196  10.729   0.135
28558W        W  818  32.000   3.704  13.911
28559W        W  819  31.392  34.079   2.298
28560W        W  820   7.593  39.065   3.717
28561W        W  821  14.472  16.549  12.866
28562W        W  822  44.319  19.632  14.985
28563W        W  823  38.185  18.510   4.513
28564W        W  824  21.201  33.227   0.349
28565W        W  825  43.524  13.904  11.787
28566W        W  826   0.494   9.701  10.679
28567W        W  827  11.239  36.041   4.344
28568W        W  828   0.255  17.242  13.344
28569W        W  829  20.516   3.659   0.306
28570W        W  830  19.204  34.532  11.145
28571W        W  831  22.902  41.251  13.731
28572W        W  832  14.254   5.091   3.821
28573W        W  833  34.255  32.038   4.540
28574W        W  834   1.814  41.815   3.178
28575W        W  835  14.731  17.347   1.814
28576W        W  836   0.479  10.694   3.205
28577W        W  837  40.325  12.886   4.028
28578W        W  838  40.785  35.832   4.605
28579W        W  839  44.917  42.823   1.941
28580W        W  840  33.423  17.345  11.182
28581W        W  841  14.971   0.364  11.641
28582W        W  842  42.390   1.653  11.463
28583W        W  843  11.524  34.586   2.651
28584W        W  844  20.785  12.013   2.672
28585W        W  845  33.080  16.288   0.115
28586W        W  846  23.687  12.666  10.944
28587W        W  847  40.288  22.219   1.523
28588W        W  848  37.570  12.539  13.017
28589W        W  849  14.778  16.076   3.301
28590W        W  850   0.173  37.634  11.900
28591W        W  851  17.133  10.157   0.286
28592W        W  852  22.852  25.674   5.086
28593W        W  853   8.134   5.565   3.317
28594W        W  854   0.239  31.036  10.682
28595W        W  855  15.622  15.338  14.329
28596W        W  856   6.927  34.846   2.114
28597W        W  857  32.955  35.930   1.865
28598W        W  858  29.033  29.670   2.408
28599W        W  859  35.458  44.474  11.511
28600W        W  860  26.705  40.918   2.647
28601W        W  861  29.598  17.772  11.291
28602W        W  862   6.159  38.896   4.028
28603W        W  863  15.661  24.923  12.039
28604W        W  864   1.120  12.850  10.891
28605W        W  865  16.154  19.815   0.624
28606W        W  866  38.426  37.357   1.900
28607W        W  867  36.830  41.575   4.179
28608W        W  868  12.746  29.468   3.281
28609W        W  869  41.836  29.571   3.456
28610W        W  870  27.486  42.282   1.765
28611W        W  871  25.088  30.383  10.975
28612W        W  872  12.107  18.950  11.215
28613W        W  873  12.159  44.584   0.303
28614W        W  874  22.097  30.052  12.657
28615W        W  875   8.688  43.771   2.427
28616W        W  876  33.128  22.037   2.689
28617W        W  877   7.914  26.414  12.513
28618W        W  878  18.574   4.986  12.967
28619W        W  879  23.669  37.336   3.126
28620W        W  880  16.296  32.648  12.956
28621W        W  881   3.365  38.326  10.710
28622W        W  882  28.646   0.404  13.523
28623W        W  883  33.149  19.080   0.905
28624W        W  884  42.678  12.633   4.669
28625W        W  885  25.458   4.961   4.217
28626W        W  886  25.531   2.480  10.718
28627W        W  887  15.810  21.224  14.195
28628W        W  888   9.265  32.508   4.899
28629W        W  889  16.735  43.724   4.126
28630W        W  890  23.736  35.898   4.611
28631W        W  891  12.755   0.947  13.555
28632W        W  892  44.091  14.408   2.003
28633W        W  893  37.987   0.874  14.587
28634W        W  894  29.427  23.095   1.677
28635W        W  895   8.735   1.662   3.373
28636W        W  896  23.934  37.507  13.827
28637W        W  897  39.265   2.329   2.425
28638W        W  898  32.348  23.983  14.486
28639W        W  899  22.233  41.486   1.763
28640W        W  900  24.199  42.001   4.585
28641W        W  901  41.940   5.282   2.621
28642W        W  902  35.106  34.581  14.804
28643W        W  903  40.066  15.826   1.849
28644W        W  904  32.875  44.946  13.035
28645W        W  905  18.545  39.741  11.279
28646W        W  906  22.123   2.368   4.865
28647W        W  907  38.284  12.526  11.131
28648W        W  908  37.841  31.847  11.096
28649W        W  909  19.118   1.019  12.097
28650W        W  910  26.026   1.997  13.016
28651W        W  911  12.335  32.348   3.955
28652W        W  912   1.694  13.215   2.145
28653W        W  913  13.770  20.778   2.915
28654W        W  914  19.167  26.155   0.957
28655W        W  915   9.293  32.833   1.885
28656W        W  916  26.835   8.858   3.584
28657W        W  917  39.292  13.777   4.936
28658W        W  918  15.366  25.599  12.040
28659W        W  919  24.457  29.505  14.977
28660W        W  920   5.432  19.257  12.463
28661W        W  921  31.567  34.631   1.424
28662W        W  922  20.732  34.215  12.067
28663W        W  923  28.949  40.234   2.393
28664W        W  924   9.782   7.570  13.769
28665W        W  925  22.096  13.226   0.491
28666W        W  926  23.412  27.154   1.844
28667W        W  927  18.103  44.538   3.358
28668W        W  928  18.221  17.212   3.557
28669W        W  929   5.459  28.351  13.246
28670W        W  930  11.073  15.175  13.106
28671W        W  931  10.266  21.307  12.414
28672W        W  932  33.076  26.993   3.895
28673W        W  933   1.466   8.386   3.156
28674W        W  934  31.963  42.366  14.544
28675W        W  935  20.661  17.748   4.282
28676W        W  936  24.250  24.624   2.870
28677W        W  937  26.874  24.208   1.792
28678W        W  938  30.861   3.716   0.257
28679W        W  939   3.773  43.426  13.475
28680W        W  940  16.132   9.639  14.037
28681W        W  941  22.910  14.239   5.220
28682W        W  942  44.251  10.252   3.732
28683W        W  943  17.672  41.482  12.921
28684W        W  944   1.029  29.702  11.236
28685W        W  945  41.041  11.768  11.953
28686W        W  946  22.007  21.681  10.186
28687W        W  947  41.820   9.670  12.464
28688W        W  948  23.407   9.654  12.029
28689W        W  949   1.857   7.380   2.373
28690W        W  950  34.460  35.890   4.162
28691W        W  951  31.443   4.972   2.901
28692W        W  952  26.048  43.166  14.860
28693W        W  953   2.496   1.947   3.191
28694W        W  954  23.320  32.026   3.713
28695W        W  955  25.663   4.889  11.909
28696W        W  956  21.597  13.648  13.127
28697W        W  957  19.563  24.790   0.126
28698W        W  958   3.969  20.207   2.330
28699W        W  959  24.147  39.399  12.820
28700W        W  960  29.914   2.223   0.786
28701W        W  961   9.420  41.745  12.958
28702W        W  962  26.617  13.912   0.968
28703W        W  963  16.868   5.316   3.997
28704W        W  964   6.077   2.333  12.824
28705W        W  965  15.089  33.540   3.605
28706W        W  966   2.315  18.829   2.425
28707W        W  967  42.836  38.972   1.184
28708W        W  968  13.506  23.945   1.274
28709W        W  969   9.200  35.882  10.592
28710W        W  970  23.300  13.619  11.634
28711W        W  971  41.183  42.820  14.410
28712W        W  972  24.078   8.083   0.794
28713W        W  973   0.302  13.907   2.444
28714W        W  974  27.758  10.699  10.581
28715W        W  975  24.241  32.965   4.194
28716W        W  976   9.237  19.200   4.999
28717W        W  977   8.908  34.012  11.293
28718W        W  978   8.357  43.425   2.257
28719W        W  979  14.352   6.465   0.293
28720W        W  980  18.718  44.953  12.981
28721W        W  981  12.568  13.760   0.815
28722W        W  982   5.243  27.911   3.592
28723W        W  983  31.018  27.660   3.684
28724W        W  984   2.728  32.816   1.312
28725W        W  985   8.822  17.521   0.805
28726W        W  986  33.121  44.391  10.932
28727W        W  987   0.325  17.957  12.884
28728W        W  988  20.614  37.328   3.372
28729W        W  989  13.346  40.961   1.856
28730W        W  990  32.605  24.676  13.044
28731W        W  991   7.614   7.097  11.642
28732W        W  992  20.369   5.266  13.879
28733W        W  993  37.032  29.530  14.509
28734W        W  994  17.307  37.851  10.765
28735W        W  995  26.933   0.444  13.074
28736W        W  996  21.491  27.651   1.836
28737W        W  997   2.552  32.210   4.020
28738W        W  998  41.449   3.463  10.733
28739W        W  999  17.724  10.621   4.210
28740W        W 1000  24.621  12.155  10.850
28741W        W 1001  18.016  29.896  10.639
28742W        W 1002  27.765  17.708  11.270
28743W        W 1003  39.817  31.657  13.977
28744W        W 1004  43.863   1.327   1.883
28745W        W 1005  40.192  26.535  11.108
28746W        W 1006  35.754   4.442   4.116
28747W        W 1007  38.764   2.220   4.313
28748W        W 1008  39.110   4.469  12.085
28749W        W 1009  16.758  44.314  12.105
28750W        W 1010   4.736  30.782  14.786
28751W        W 1011   5.480  33.875  12.469
28752W        W 1012  22.232  21.715  13.977
28753W        W 1013  27.238   7.032  14.132
28754W        W 1014  17.861  38.407  14.880
28755W        W 1015  34.907  16.242  14.329
28756W        W 1016  12.189  26.231  10.774
28757W        W 1017   7.100   1.998  15.000
28758W        W 1018  33.548  23.959  13.784
28759W        W 1019  29.634   0.830  12.858
28760W        W 1020   1.243  40.725  11.725
28761W        W 1021   9.689  18.976  12.531
28762W        W 1022  35.838  23.022   3.643
28763W        W 1023  42.537   8.738  11.496
28764W        W 1024  43.445   8.149  11.985
28765W        W 1025  23.525  26.341  13.397
28766W        W 1026  11.252  44.910   0.964
28767W        W 1027  32.452  12.565   1.724
28768W        W 1028  17.835  10.417  14.501
28769W        W 1029  28.192  29.028  10.632
28770W        W 1030  24.933  37.088   0.910
28771W        W 1031   3.521  35.859   0.898
28772W        W 1032  21.167  36.154   5.047
28773W        W 1033  17.003  11.141  10.613
28774W        W 1034  43.125   3.373  13.912
28775W        W 1035   0.465  30.762   4.365
28776W        W 1036  21.945  32.048   1.891
28777W        W 1037   7.336  26.178  12.875
28778W        W 1038   2.946   2.963  13.010
28779W        W 1039  19.268  37.625  14.906
28780W        W 1040  17.164  13.107   3.992
28781W        W 1041  39.101  15.126   2.796
28782W        W 1042   2.380  38.539   1.290
28783W        W 1043  22.123  29.619  11.588
28784W        W 1044  21.268  33.916   0.063
28785W        W 1045  44.453  15.171  10.694
28786W        W 1046  37.381   7.616   3.930
28787W        W 1047   9.621  38.626   2.361
28788W        W 1048  21.936   9.164   3.384
28789W        W 1049  40.979  41.768  11.112
28790W        W 1050  12.184  41.538  14.455
28791W        W 1051  29.604  43.711  12.290
28792W        W 1052  14.580  17.545  13.075
28793W        W 1053  22.830   6.344   4.701
28794W        W 1054  24.616  30.438  11.249
28795W        W 1055   4.693   8.879   4.561
28796W        W 1056  38.516   4.758   3.670
28797W        W 1057  35.204  44.252  14.374
28798W        W 1058   8.160  21.273  12.401
28799W        W 1059  43.533  28.787   1.749
28800W        W 1060   3.453  24.219   3.963
28801W        W 1061  11.854  33.681  14.352
28802W        W 1062  27.298   9.484  10.292
28803W        W 1063   4.374   0.858  13.219
28804W        W 1064  37.088  10.914   4.647
28805W        W 1065  40.960  38.976  10.986
28806W        W 1066  16.531  23.641   3.585
28807W        W 1067  43.972  20.222   0.262
28808W        W 1068  39.562  35.972  14.761
28809W        W 1069  21.536  33.310  11.197
28810W        W 1070  19.152  14.907  12.966
28811W        W 1071  30.841  14.317   2.801
28812W        W 1072   8.156  10.803  12.594
28813W        W 1073  19.031  35.424  14.884
28814W        W 1074   6.219  17.521  12.726
28815W        W 1075  27.128  34.951  11.382
28816W        W 1076  24.419  41.500  13.938
28817W        W 1077   8.204  34.946  12.296
28818W        W 1078   1.843  37.878   2.349
28819W        W 1079  40.478  35.325   1.481
28820W        W 1080  32.895  43.162   0.966
28821W        W 1081  33.322  30.445   3.455
28822W        W 1082  42.510   7.845  10.738
28823W        W 1083  37.946  42.033  13.927
28824W        W 1084  16.272  12.641   3.302
28825W        W 1085   8.777  24.765   2.839
28826W        W 1086  10.047  21.580   2.828
28827W        W 1087  44.556   8.798  11.065
28828W        W 1088  29.211  38.398   3.200
28829W        W 1089  13.760  39.869   3.907
28830W        W 1090  31.871  36.884  12.735
28831W        W 1091  32.274  40.872   0.095
28832W        W 1092  27.055   7.433   3.485
28833W        W 1093  15.347  12.637   4.220
28834W        W 1094  10.728  35.503  13.900
28835W        W 1095   7.665   6.111  14.920
28836W        W 1096  35.112   0.707   2.358
28837W        W 1097  17.781  22.023   4.235
28838W        W 1098   6.154  26.121  13.777
28839W        W 1099  22.143  21.648   3.721
28840W        W 1100   5.641  37.068  11.584
28841W        W 1101   0.237  30.504   4.765
28842W        W 1102   8.236  22.276  13.353
28843W        W 1103   1.408   8.234   1.665
28844W        W 1104  25.616  31.520  13.989
28845W        W 1105  38.482   6.861   9.866
28846W        W 1106  42.021  10.699  12.122
28847W        W 1107  23.476  42.567   2.686
28848W        W 1108  19.543  22.233  13.069
28849W        W 1109   7.399  16.054   0.205
28850W        W 1110   7.217  15.300   4.522
28851W        W 1111   9.808  15.577   4.077
28852W        W 1112  24.648   5.897   0.632
28853W        W 1113   1.187  12.173  13.080
28854W        W 1114   2.365  23.177   4.677
28855W        W 1115  25.519   6.858   2.292
28856W        W 1116   9.792  37.321   1.829
28857W        W 1117  24.217   2.444  11.195
28858W        W 1118  23.661  14.069   4.231
28859W        W 1119   1.012  18.673   4.029
28860W        W 1120  24.214   1.502   3.292
28861W        W 1121  29.080   7.880  12.818
28862W        W 1122  14.248  22.715   5.122
28863W        W 1123  16.178  23.028  13.421
28864W        W 1124  32.730  28.996   1.310
28865W        W 1125  33.894  39.260   2.426
28866W        W 1126  24.741  19.481   1.936
28867W        W 1127   6.844  29.556  13.554
28868W        W 1128  20.452  22.428   0.266
28869W        W 1129  15.008  37.911  12.394
28870W        W 1130  40.645  40.281  11.653
28871W        W 1131  30.459  28.861  14.986
28872W        W 1132  18.990   3.785   4.137
28873W        W 1133  30.978   7.821  11.161
28874W        W 1134  15.164   4.506   4.168
28875W        W 1135  29.077  18.731   1.340
28876W        W 1136  34.941   3.755   0.487
28877W        W 1137   1.002  41.405   4.706
28878W        W 1138  27.449   3.005  12.358
28879W        W 1139  41.005  28.075  14.898
28880W        W 1140  19.727  16.551   1.787
28881W        W 1141  27.002   0.847  10.824
28882W        W 1142  41.989   5.463   0.512
28883W        W 1143   3.270   2.427   3.314
28884W        W 1144  29.551   1.036   0.583
28885W        W 1145  34.780   4.193   4.092
28886W        W 1146  22.708  33.771   0.464
28887W        W 1147   1.176   3.907  14.312
28888W        W 1148  17.541  11.385   4.699
28889W        W 1149  27.980   0.243  10.247
28890W        W 1150   6.826  12.467   4.792
28891W        W 1151   0.102  42.246  13.096
28892W        W 1152  20.463  14.485  10.737
28893W        W 1153  28.968  37.755  11.109
28894W        W 1154  43.338  28.587  12.189
28895W        W 1155   9.804  39.419  12.712
28896W        W 1156  18.073  34.015  13.612
28897W        W 1157   8.731   2.246   4.171
28898W        W 1158   1.514  29.880   2.221
28899W        W 1159  28.022  44.446   4.121
28900W        W 1160  20.033  21.924   4.049
28901W        W 1161  29.697  40.487   3.362
28902W        W 1162   4.142   0.321   5.060
28903W        W 1163  36.294  31.527  12.590
28904W        W 1164  20.667  33.767   5.289
28905W        W 1165  37.374   0.388   3.769
28906W        W 1166  31.447  33.326   0.949
28907W        W 1167   1.441  21.754  10.699
28908W        W 1168  17.099  19.186   3.144
28909W        W 1169  26.959   2.719   0.405
28910W        W 1170  34.338  14.695   2.429
28911W        W 1171   3.061  33.587  11.622
28912W        W 1172   4.413   9.488  13.600
28913W        W 1173  44.913  43.882   0.006
28914W        W 1174  21.217  26.401  14.195
28915W        W 1175  44.176  33.203  12.190
28916W        W 1176  22.100  12.610   1.727
28917W        W 1177  31.472  33.014   2.422
28918W        W 1178   9.798  22.484  10.740
28919W        W 1179  10.636  15.034  11.631
28920W        W 1180  10.689  27.442   2.642
28921W        W 1181  44.575  44.816  11.784
28922W        W 1182  19.277   3.047  12.063
28923W        W 1183   7.360  24.753  11.147
28924W        W 1184  32.870  31.711  13.346
28925W        W 1185  33.350  30.033  13.042
28926W        W 1186  24.124  42.727  10.687
28927W        W 1187   8.161  13.605  13.864
28928W        W 1188   7.837  19.388   3.724
28929W        W 1189   4.760  35.555   3.271
28930W        W 1190  35.433  27.369  12.669
28931W        W 1191  30.640   2.759   4.276
28932W        W 1192  12.113  16.772   1.735
28933W        W 1193  24.665   7.464   3.633
28934W        W 1194   9.511  16.566  11.653
28935W        W 1195  31.007  37.413   2.774
28936W        W 1196   9.354  16.396   4.648
28937W        W 1197   9.708  42.361  13.075
28938W        W 1198  24.945   8.938  10.504
28939W        W 1199  30.609  25.240   4.284
28940W        W 1200  29.468   0.885  13.366
28941W        W 1201   9.280  18.980   0.944
28942W        W 1202  15.633  42.774   4.193
28943W        W 1203  37.783  20.062   0.900
28944W        W 1204  15.139  44.914  13.654
28945W        W 1205  34.244  20.261   0.120
28946W        W 1206  19.318  23.136  11.054
28947W        W 1207   7.090  30.146   4.956
28948W        W 1208  23.853  39.057  11.486
28949W        W 1209  17.043  20.109   0.436
28950W        W 1210  26.042  11.724  14.912
28951W        W 1211  44.554   2.904   3.179
28952W        W 1212  19.819  10.417  11.205
28953W        W 1213  19.342  33.172  10.782
28954W        W 1214  17.019  30.040   2.790
28955W        W 1215  34.384   8.207  13.794
28956W        W 1216  44.946  33.988   4.576
28957W        W 1217   6.334  39.833   3.834
28958W        W 1218  29.004  30.919  13.385
28959W        W 1219  42.043  23.130   1.880
28960W        W 1220  13.220  27.248  13.871
28961W        W 1221  20.114  42.864  12.069
28962W        W 1222  33.966  42.411  13.979
28963W        W 1223  23.283  33.345  11.546
28964W        W 1224   7.165  43.559  10.778
28965W        W 1225  27.025  15.284  12.959
28966W        W 1226  27.666   2.009  12.576
28967W        W 1227  41.085  14.827   0.394
28968W        W 1228  25.414  33.286  14.401
28969W        W 1229   0.356   5.971   3.858
28970W        W 1230  33.500  12.586   3.694
28971W        W 1231   6.747   4.390   0.582
28972W        W 1232   6.778  44.356   2.402
28973W        W 1233   0.774  36.290   1.291
28974W        W 1234   8.353  43.841   0.501
28975W        W 1235  29.166  31.906  11.030
28976W        W 1236  30.632  33.322   2.267
28977W        W 1237  39.972  37.395  10.504
28978W        W 1238  38.999  12.808   0.494
28979W        W 1239  34.895  33.529  12.277
28980W        W 1240  20.322   3.868   2.694
28981W        W 1241   2.210   1.723  11.446
28982W        W 1242  16.938  43.021  12.570
28983W        W 1243  32.214   7.301  12.237
28984W        W 1244  44.547  12.627  11.445
28985W        W 1245  32.029  19.548  11.498
28986W        W 1246  37.892  26.692  14.719
28987W        W 1247  40.383  17.059  10.813
28988W        W 1248   8.875   7.967  13.958
28989W        W 1249  33.105   3.906   3.334
28990W        W 1250  27.048   4.854   0.738
28991W        W 1251  15.307   0.928  10.684
28992W        W 1252  35.490  35.476   3.090
28993W        W 1253  32.348  23.424  11.329
28994W        W 1254  20.766  43.070   1.467
28995W        W 1255  12.514  12.525  13.040
28996W        W 1256  11.869  30.612   0.018
28997W        W 1257  37.317  30.146   1.830
28998W        W 1258  31.208  41.117   4.299
28999W        W 1259  36.438  21.581  11.603
29000W        W 1260  20.289  40.086   2.651
29001W        W 1261  41.400  16.163   0.176
29002W        W 1262  25.355   1.784   0.415
29003W        W 1263  13.261   6.924  12.092
29004W        W 1264  16.223   6.381  13.336
29005W        W 1265   7.424  13.387   4.346
29006W        W 1266  30.156  41.729   3.258
29007W        W 1267   0.471   8.365   1.710
29008W        W 1268   9.120  19.701   3.757
29009W        W 1269  27.131  24.720   4.893
29010W        W 1270  22.643  41.597  13.344
29011W        W 1271  12.683  41.124  11.495
29012W        W 1272  31.027  39.868   4.906
29013W        W 1273  13.628  26.921   3.260
29014W        W 1274  21.238  21.706   3.677
29015W        W 1275   7.089   7.164  11.677
29016W        W 1276  26.033  21.749   2.659
29017W        W 1277  37.026  37.995   4.557
29018W        W 1278  22.260  38.558  14.090
29019W        W 1279  34.613  25.046   3.136
29020W        W 1280  16.287  16.391  13.083
29021W        W 1281   9.773  34.658  14.810
29022W        W 1282  44.916  18.151  10.763
29023W        W 1283  39.283  37.840  13.630
29024W        W 1284  40.430  33.426  14.560
29025W        W 1285  36.447   8.780   1.329
29026W        W 1286  40.200   4.005  12.572
29027W        W 1287   5.489  25.623   0.890
29028W        W 1288  27.983  34.743   0.484
29029W        W 1289  43.784  16.927   4.114
29030W        W 1290  18.791  42.924   0.686
29031W        W 1291   9.740  32.914  12.597
29032W        W 1292  27.333  15.609   1.895
29033W        W 1293  15.313  14.576   0.274
29034W        W 1294  32.210  33.896  13.548
29035W        W 1295   6.670  26.512   3.588
29036W        W 1296  11.127   3.478   2.981
29037W        W 1297  12.619   8.282   3.748
29038W        W 1298   6.672  30.391  10.714
29039W        W 1299   1.525  16.847  13.906
29040W        W 1300   3.392   4.588   4.952
29041W        W 1301   5.732  22.916  14.943
29042W        W 1302   4.763  26.568   3.476
29043W        W 1303  14.005  35.225   0.241
29044W        W 1304   6.166  23.977  11.596
29045W        W 1305   7.534  15.504  10.291
29046W        W 1306  11.693   5.239  14.873
29047W        W 1307  32.219  37.307   4.656
29048W        W 1308   8.366   5.841   1.931
29049W        W 1309  18.277  32.956   4.297
29050W        W 1310  41.448   3.926   4.061
29051W        W 1311  25.089  34.349   0.767
29052W        W 1312  22.602  16.358   1.076
29053W        W 1313  34.165   0.443   4.892
29054W        W 1314  19.251  25.468   3.163
29055W        W 1315  38.942  34.157  14.425
29056W        W 1316  32.467  15.728   4.128
29057W        W 1317  26.394  36.062  10.381
29058W        W 1318  36.935  29.676  13.521
29059W        W 1319  14.523  39.706  10.209
29060W        W 1320  25.202  12.023   0.810
29061W        W 1321  14.551  35.823   1.796
29062W        W 1322   1.289  41.249   2.395
29063W        W 1323  10.706  20.983  12.401
29064W        W 1324  17.853  42.396   4.341
29065W        W 1325   0.348   8.303  10.716
29066W        W 1326  22.088  32.164   0.221
29067W        W 1327   7.679  37.120   2.402
29068W        W 1328  27.193   3.397  13.574
29069W        W 1329  33.188   0.600  13.610
29070W        W 1330  15.874  12.324  12.090
29071W        W 1331  40.888  29.495  12.319
29072W        W 1332  36.588  20.070   0.266
29073W        W 1333   1.323  17.796   4.665
29074W        W 1334  18.223   4.838  14.691
29075W        W 1335  27.189  40.876   4.123
29076W        W 1336   5.744  16.720   2.146
29077W        W 1337   0.319   4.392  14.681
29078W        W 1338  11.378  22.985   2.733
29079W        W 1339  33.895   2.047   3.393
29080W        W 1340   7.492   6.605  11.797
29081W        W 1341   6.682  27.226   0.203
29082W        W 1342  31.173  34.810  10.713
29083W        W 1343  35.352  38.544  13.888
29084W        W 1344  27.508  31.444   1.198
29085W        W 1345  36.870  31.619  11.462
29086W        W 1346  35.876  39.156  11.127
29087W        W 1347   6.162   8.866   5.039
29088W        W 1348   1.257  32.451  12.062
29089W        W 1349  42.774  11.597  14.372
29090W        W 1350  28.516  20.600   2.002
29091W        W 1351  25.004  25.444   0.815
29092W        W 1352  18.861   8.222   5.466
29093W        W 1353   2.864  15.675  14.518
29094W        W 1354  12.250  32.300  10.453
29095W        W 1355  37.444  36.597  14.467
29096W        W 1356   5.972  17.087  12.852
29097W        W 1357  34.560  22.989   0.768
29098W        W 1358  42.897  41.698  11.210
29099W        W 1359  30.112  24.581  13.978
29100W        W 1360  31.071  28.275   0.965
29101W        W 1361  17.630  31.631  14.805
29102W        W 1362  31.226  27.980   3.324
29103W        W 1363   9.642  10.821  14.875
29104W        W 1364  30.206  40.579  13.076
29105W        W 1365  40.877  20.069  11.193
29106W        W 1366   4.755   5.487   3.336
29107W        W 1367  31.908  39.901   0.832
29108W        W 1368  26.643  44.876  10.958
29109W        W 1369  28.089  18.813   0.027
29110W        W 1370  26.995  39.918   1.744
29111W        W 1371  21.140   7.407  11.650
29112W        W 1372  14.339   6.174   2.392
29113W        W 1373   2.739  14.702  13.895
29114W        W 1374  28.934  20.251  10.559
29115W        W 1375  42.410   1.156  11.523
29116W        W 1376  34.122   4.845  13.494
29117W        W 1377   1.356  14.599   3.674
29118W        W 1378  20.467  20.595   3.261
29119W        W 1379  10.613  40.599  11.703
29120W        W 1380  29.974  22.661   3.548
29121W        W 1381   7.478  42.867  10.248
29122W        W 1382  25.764   6.651   0.392
29123W        W 1383   5.882   6.978  14.033
29124W        W 1384  22.708  18.331   1.244
29125W        W 1385   8.202  31.153   3.483
29126W        W 1386  15.239  13.137  11.370
29127W        W 1387  25.075  35.621  13.384
29128W        W 1388  16.181   7.316  14.527
29129W        W 1389  41.806  35.908   4.551
29130W        W 1390   5.258   5.898  10.977
29131W        W 1391  10.590  19.796   4.678
29132W        W 1392  28.724  31.841  14.968
29133W        W 1393   3.768   1.489  10.743
29134W        W 1394  38.570  42.028  12.489
29135W        W 1395  13.677   2.657  11.670
29136W        W 1396  30.044  43.896  12.046
29137W        W 1397  15.589   1.926   9.764
29138W        W 1398  44.721  19.607  13.789
29139W        W 1399  23.072  37.093   4.164
29140W        W 1400  13.232  36.625   2.885
29141W        W 1401  25.264  44.814  13.968
29142W        W 1402  29.830  23.628   4.896
29143W        W 1403  22.325   3.391  13.418
29144W        W 1404  17.254   9.387  13.467
29145W        W 1405  30.199  26.691  10.375
29146W        W 1406  38.217  34.515  13.858
29147W        W 1407  39.355  30.313  12.169
29148W        W 1408  18.147  43.489   3.727
29149W        W 1409  36.360  32.804  11.566
29150W        W 1410  41.435  26.090  14.415
29151W        W 1411  28.867  38.475  11.491
29152W        W 1412  24.005   6.120   1.318
29153W        W 1413  30.914   8.247  10.853
29154W        W 1414   7.229  28.092  11.642
29155W        W 1415  26.113  32.231  11.133
29156W        W 1416   7.589   7.994   2.791
29157W        W 1417   5.982  36.430   1.257
29158W        W 1418  27.971  43.694   1.779
29159W        W 1419  25.804  28.231   4.193
29160W        W 1420  12.582  20.611   3.024
29161W        W 1421  23.580   0.833   2.900
29162W        W 1422  16.789  25.741  14.966
29163W        W 1423   6.348  15.340  11.908
29164W        W 1424   6.216  35.423  13.476
29165W        W 1425   7.706  38.753  10.344
29166W        W 1426  44.473  38.718  11.421
29167W        W 1427  13.858  10.273   3.734
29168W        W 1428  10.611  13.807  10.573
29169W        W 1429  32.670  19.274  14.053
29170W        W 1430  13.117   4.708  13.916
29171W        W 1431  32.419  40.039  14.958
29172W        W 1432  28.488   7.332   2.332
29173W        W 1433  12.382  29.359  14.849
29174W        W 1434  38.891  18.176  14.719
29175W        W 1435  43.090  31.982  13.361
29176W        W 1436  26.229   8.317   1.707
29177W        W 1437  21.526   4.946  14.926
29178W        W 1438  39.900  44.660  12.386
29179W        W 1439   4.284  34.665  11.080
29180W        W 1440  25.128  27.445   3.158
29181W        W 1441  20.755  20.348  11.929
29182W        W 1442  39.504  26.937   2.110
29183W        W 1443  21.813  10.685   3.286
29184W        W 1444  28.615  25.534   0.371
29185W        W 1445   4.315  26.052  12.940
29186W        W 1446   1.360  32.719   1.774
29187W        W 1447  24.469  29.241  13.573
29188W        W 1448  30.492  26.066   1.865
29189W        W 1449  36.818  22.200  13.368
29190W        W 1450  38.111  23.602   4.172
29191W        W 1451  11.779   3.277   2.851
29192W        W 1452  14.675   3.731   1.638
29193W        W 1453   4.925  26.267  11.575
29194W        W 1454   0.327   9.914   4.732
29195W        W 1455  23.168   4.456  13.848
29196W        W 1456  34.696  21.118  10.590
29197W        W 1457  15.271  12.393   1.939
29198W        W 1458  27.201  28.816  13.942
29199W        W 1459  12.323   5.399   0.375
29200W        W 1460   3.456  18.884  11.588
29201W        W 1461  33.898  12.309   0.638
29202W        W 1462  11.494  40.282  12.885
29203W        W 1463  43.466   8.739   0.694
29204W        W 1464  25.490   9.693  12.327
29205W        W 1465   1.354  36.908  13.531
29206W        W 1466  23.074  24.472   0.975
29207W        W 1467  10.897  40.520   0.306
29208W        W 1468  21.589  29.616  13.742
29209W        W 1469  17.848  28.913   3.862
29210W        W 1470  32.976   1.736  13.923
29211W        W 1471  43.898  43.507   4.770
29212W        W 1472  27.028   1.510  14.849
29213W        W 1473  22.025  39.449  13.018
29214W        W 1474  25.959  32.320  12.014
29215W        W 1475   3.703  37.038  10.965
29216W        W 1476  37.048  25.787   3.795
29217W        W 1477  31.612  41.800   0.674
29218W        W 1478  27.604  23.746  11.653
29219W        W 1479   4.015  42.654   1.912
29220W        W 1480  25.250  30.014   4.500
29221W        W 1481  20.286  12.635   3.530
29222W        W 1482  17.186  28.918  13.344
29223W        W 1483  13.027  12.357  12.492
29224W        W 1484  42.934  14.506  11.707
29225W        W 1485  14.212  17.731   3.419
29226W        W 1486  32.025  18.654  13.993
29227W        W 1487  33.189  22.534   1.200
29228W        W 1488   3.291   8.144  11.169
29229W        W 1489  21.198  11.667   0.476
29230W        W 1490   7.470  14.612  13.441
29231W        W 1491  32.992  35.378   3.350
29232W        W 1492  21.821  30.405   0.316
29233W        W 1493  15.252  32.369   2.475
29234W        W 1494  36.045  22.157  11.975
29235W        W 1495  23.594  41.455  10.816
29236W        W 1496   7.714  42.802  10.707
29237W        W 1497  24.867   6.431   0.511
29238W        W 1498   8.821  15.841   0.371
29239W        W 1499  38.991  20.860   1.869
29240W        W 1500  18.711   3.765  10.688
29241W        W 1501  37.989  16.556   1.768
29242W        W 1502   4.853   9.344  12.292
29243W        W 1503  40.110  44.024  11.080
29244W        W 1504  19.507   8.970   3.032
29245W        W 1505  41.513  28.029  14.794
29246W        W 1506  18.038  32.654   3.660
29247W        W 1507  30.328  19.912   5.114
29248W        W 1508   0.501  19.571  11.827
29249W        W 1509  37.351  21.457  12.569
29250W        W 1510  28.110   0.791  12.903
29251W        W 1511  23.130  41.607  11.015
29252W        W 1512  18.289   8.947   1.199
29253W        W 1513  29.159  13.699  11.107
29254W        W 1514   8.159   7.895  12.123
29255W        W 1515   9.361  24.007   2.781
29256W        W 1516   9.827  22.344  13.497
29257W        W 1517  14.257  24.103  10.692
29258W        W 1518  29.679  44.587  10.018
29259W        W 1519  32.900   2.235   0.129
29260W        W 1520   3.761   5.896   1.868
29261W        W 1521  13.768  12.434   2.579
29262W        W 1522  24.265  16.648  13.052
29263W        W 1523  34.512  11.578  11.178
29264W        W 1524   5.346  27.379   2.420
29265W        W 1525  19.129  32.429   0.444
29266W        W 1526  42.705   9.217  10.600
29267W        W 1527  19.957   9.314  12.990
29268W        W 1528  14.959  28.709   3.742
29269W        W 1529  44.772  26.494   3.769
29270W        W 1530  36.483  20.366   2.853
29271W        W 1531   1.572  36.468  10.862
29272W        W 1532  27.263  16.084  12.619
29273W        W 1533  30.655  24.088  12.029
29274W        W 1534  33.454  34.364   1.177
29275W        W 1535  24.435  31.265   3.381
29276W        W 1536   0.403   1.406  13.376
29277W        W 1537  26.882  26.135   2.729
29278W        W 1538  38.036  37.772  12.964
29279W        W 1539  30.614  14.638  12.565
29280W        W 1540  19.602  33.518   1.452
29281W        W 1541  28.736  43.732  12.673
29282W        W 1542  41.366  23.874  12.821
29283W        W 1543  35.244   2.040  12.490
29284W        W 1544   4.338  41.741  14.107
29285W        W 1545   5.838  41.935   1.132
29286W        W 1546  10.522  31.166   4.927
29287W        W 1547   1.243  15.580  11.091
29288W        W 1548   4.390  27.693  12.855
29289W        W 1549  27.181   9.777   2.508
29290W        W 1550  15.784  42.478  11.131
29291W        W 1551  29.414  10.361  10.320
29292W        W 1552  19.198  34.109  12.817
29293W        W 1553  14.802  42.821   3.049
29294W        W 1554  35.743  27.695   0.863
29295W        W 1555  30.418  11.382  12.190
29296W        W 1556   0.275  43.868   3.810
29297W        W 1557  19.665  38.859  13.767
29298W        W 1558  18.674  24.044  14.236
29299W        W 1559  40.840  14.319   5.024
29300W        W 1560  33.535  39.064  11.485
29301W        W 1561  17.648  13.099   4.138
29302W        W 1562  10.915  29.149   2.862
29303W        W 1563  32.986  12.846   4.194
29304W        W 1564   4.516   5.250  11.534
29305W        W 1565   8.332   1.778   1.676
29306W        W 1566   2.468  32.463  12.653
29307W        W 1567  31.072  40.910   0.528
29308W        W 1568  13.260   8.525   4.013
29309W        W 1569   4.346  13.112   0.439
29310W        W 1570   7.405  37.354   3.250
29311W        W 1571  28.697  19.790  13.035
29312W        W 1572  23.478   6.619  10.726
29313W        W 1573  20.362  31.175  14.913
29314W        W 1574  12.941  38.515   3.640
29315W        W 1575  23.042  21.750   1.352
29316W        W 1576  31.407  15.540  14.265
29317W        W 1577  42.702  35.597   2.173
29318W        W 1578  40.005   3.723   0.246
29319W        W 1579   9.869  35.505  11.209
29320W        W 1580   5.667  42.425   1.313
29321W        W 1581  13.326   2.320   3.367
29322W        W 1582  11.625  10.069  10.836
29323W        W 1583  38.365   1.960   2.293
29324W        W 1584  21.035  12.060   1.319
29325W        W 1585  13.847  15.827  10.261
29326W        W 1586  12.687  15.218  14.174
29327W        W 1587  38.119  30.137   2.833
29328W        W 1588  25.007  14.072   2.632
29329W        W 1589   2.798  28.091  13.855
29330W        W 1590  39.512  17.829   0.411
29331W        W 1591  21.221  29.719   0.007
29332W        W 1592  31.549  15.336  13.515
29333W        W 1593  23.071   0.458  14.322
29334W        W 1594  27.871   8.895   2.801
29335W        W 1595   9.474  25.793  12.493
29336W        W 1596  15.132  17.288  11.549
29337W        W 1597  41.466  38.325   3.854
29338W        W 1598  14.809  21.442   2.816
29339W        W 1599   3.296  23.673   3.156
29340W        W 1600  31.150  10.224   3.745
29341W        W 1601  35.065  36.092  14.869
29342W        W 1602  24.565  17.285   1.500
29343W        W 1603   3.128  37.451  11.126
29344W        W 1604   2.972  40.803   0.225
29345W        W 1605  41.918  19.499  14.422
29346W        W 1606  39.339  28.585  13.656
29347W        W 1607  44.708   5.188  13.346
29348W        W 1608  30.630   8.865   4.613
29349W        W 1609  36.164   4.946  11.492
29350W        W 1610  40.472  40.763  12.496
29351W        W 1611  27.085  21.435   4.620
29352W        W 1612  40.827  28.561   4.151
29353W        W 1613  36.361  15.795  13.456
29354W        W 1614  36.507   3.623  11.390
29355W        W 1615  18.637  29.386   3.296
29356W        W 1616  23.216  17.773  11.751
29357W        W 1617  39.866  42.415   4.673
29358W        W 1618  29.932  37.981  12.112
29359W        W 1619  32.936  13.417  14.959
29360W        W 1620   0.013   6.625   9.934
29361W        W 1621  25.586  33.397   5.295
29362W        W 1622  15.114  35.104   1.781
29363W        W 1623  41.071   2.245   1.880
29364W        W 1624  44.345  34.909   3.173
29365W        W 1625  33.217   7.567  14.025
29366W        W 1626  25.051  41.271   0.201
29367W        W 1627   2.444   8.635  14.337
29368W        W 1628  44.751   7.686  14.925
29369W        W 1629  21.337  29.524   2.353
29370W        W 1630  35.044  31.019   4.285
29371W        W 1631  40.057  31.823  11.081
29372W        W 1632   5.428  20.205   0.423
29373W        W 1633  24.683  38.475   0.295
29374W        W 1634  25.576  38.184   4.312
29375W        W 1635  36.009  44.302   1.418
29376W        W 1636   8.615  12.783   1.972
29377W        W 1637  40.082  37.426   1.243
29378W        W 1638   9.342  31.146  13.499
29379W        W 1639   1.437   0.490   2.393
29380W        W 1640   1.923  44.013   0.971
29381W        W 1641  21.196  23.675  12.739
29382W        W 1642  27.262   7.854   4.602
29383W        W 1643   4.844  15.612   3.204
29384W        W 1644  34.622  36.184   3.214
29385W        W 1645  23.061  43.447  12.931
29386W        W 1646  21.208  27.979   3.307
29387W        W 1647  44.263  14.626  12.921
29388W        W 1648  27.847  27.672  13.897
29389W        W 1649  34.766  36.242   1.196
29390W        W 1650  25.259  13.726   4.674
29391W        W 1651  43.066  28.132  12.052
29392W        W 1652  37.994  20.558  11.567
29393W        W 1653  35.399  36.007   3.719
29394W        W 1654  41.134  15.826  11.133
29395W        W 1655   7.964  33.186   1.352
29396W        W 1656  25.246  33.961  13.299
29397W        W 1657  27.079  31.859  14.317
29398W        W 1658  40.118  42.340   2.401
29399W        W 1659  28.098  34.427   1.368
29400W        W 1660  13.846   1.338   2.637
29401W        W 1661  15.031  42.026   1.191
29402W        W 1662   3.070  27.196  13.406
29403W        W 1663  44.422  10.883  14.016
29404W        W 1664   5.772  38.906  13.309
29405W        W 1665  10.178  15.805  11.444
29406W        W 1666  16.531  26.333  11.665
29407W        W 1667  37.964  28.334  11.409
29408W        W 1668   2.270  34.574  13.037
29409W        W 1669  28.112  43.043   1.169
29410W        W 1670  42.270  27.770   0.348
29411W        W 1671   5.798   7.174   4.367
29412W        W 1672  26.116  39.406   5.383
29413W        W 1673  25.906   6.810  14.610
29414W        W 1674  19.525  27.626  11.645
29415W        W 1675  22.890   0.695  11.116
29416W        W 1676  44.950   3.980  11.203
29417W        W 1677  24.049  12.320  14.461
29418W        W 1678  38.895  38.520  13.535
29419W        W 1679  18.385   4.944   3.397
29420W        W 1680  36.838  43.761  13.994
29421W        W 1681   1.805  11.874  13.304
29422W        W 1682  44.784   3.939   1.408
29423W        W 1683  12.427   1.865   3.116
29424W        W 1684  17.229  25.360  10.499
29425W        W 1685  20.323  10.089  14.265
29426W        W 1686  24.609  38.617  11.132
29427W        W 1687  25.642   2.755  14.436
29428W        W 1688   0.510  35.078  10.606
29429W        W 1689  13.766  28.477  13.074
29430W        W 1690   1.725  36.948  10.927
29431W        W 1691  43.389  23.041  14.726
29432W        W 1692  36.830  23.211   0.942
29433W        W 1693  41.036  16.243   2.495
29434W        W 1694  13.081   2.349  14.768
29435W        W 1695  28.624  23.692   0.387
29436W        W 1696   2.641  24.162   0.914
29437W        W 1697  34.826  35.550  13.452
29438W        W 1698  25.693  16.435   3.379
29439W        W 1699   9.056  28.588   4.729
29440W        W 1700  13.352   2.911   3.634
29441W        W 1701   5.246  18.049  11.696
29442W        W 1702  33.457   7.890  13.673
29443W        W 1703  44.309  41.732  10.691
29444W        W 1704  17.701  31.150   2.561
29445W        W 1705  10.090  37.128  12.616
29446W        W 1706   0.858  25.103  12.933
29447W        W 1707  38.835  39.559  13.355
29448W        W 1708  17.729  43.928   2.249
29449W        W 1709  15.348  35.407   3.263
29450W        W 1710  27.818  37.402  12.541
29451W        W 1711  29.229  36.263   1.361
29452W        W 1712  38.865  17.707  11.420
29453W        W 1713  10.065   8.822  14.728
29454W        W 1714  10.572  43.217   0.780
29455W        W 1715  36.112   4.187   2.856
29456W        W 1716  39.309  40.830  12.972
29457W        W 1717   6.800  31.068  14.980
29458W        W 1718  11.386  18.639  11.509
29459W        W 1719  36.858  35.899  11.955
29460W        W 1720  26.631  24.277   0.434
29461W        W 1721   4.935  38.903   4.781
29462W        W 1722  43.514  35.838  11.228
29463W        W 1723  33.486  21.235  12.372
29464W        W 1724   2.492  36.205  13.197
29465W        W 1725  17.482   9.307  12.035
29466W        W 1726  25.921  41.474   9.702
29467W        W 1727  41.373  27.442   3.165
29468W        W 1728  16.369   7.635   0.414
29469W        W 1729  44.371  18.632  13.995
29470W        W 1730  17.792   7.962  10.998
29471W        W 1731  21.160  17.099   0.715
29472W        W 1732  21.145   7.688  13.834
29473W        W 1733  24.511  13.255  11.882
29474W        W 1734  35.970  14.044  14.442
29475W        W 1735  41.258  20.709  13.425
29476W        W 1736  39.929  30.536   3.883
29477W        W 1737  41.985  36.561  14.431
29478W        W 1738   7.175  22.024   4.693
29479W        W 1739  32.944  29.676   2.312
29480W        W 1740  23.252  36.815   4.697
29481W        W 1741  17.108  17.809   4.869
29482W        W 1742  18.295  11.721   1.688
29483W        W 1743  27.890  34.525  11.767
29484W        W 1744   0.790  17.644  13.795
29485W        W 1745   6.855   2.797  14.035
29486W        W 1746   9.799  34.611   4.639
29487W        W 1747   8.609  35.813   0.505
29488W        W 1748   6.890   8.514  14.746
29489W        W 1749  18.669  37.926  13.441
29490W        W 1750  33.708   4.839   3.819
29491W        W 1751   4.300  43.423   4.673
29492W        W 1752  16.544  16.151   3.630
29493W        W 1753   1.715  29.559   0.025
29494W        W 1754  17.004  28.966  11.904
29495W        W 1755   8.608  22.031   2.159
29496W        W 1756   3.319  38.972   1.835
29497W        W 1757  19.934   2.724   3.199
29498W        W 1758  16.119  22.707   3.185
29499W        W 1759   4.957  44.473   0.363
29500W        W 1760  27.209  17.786   1.664
29501W        W 1761  16.617  32.178  10.796
29502W        W 1762  37.452  41.045   3.603
29503W        W 1763  25.752   3.607   1.360
29504W        W 1764  16.226  13.685  11.512
29505W        W 1765  43.358  27.598   3.099
29506W        W 1766  33.492   9.589  13.500
29507W        W 1767  41.896  19.743  12.704
29508W        W 1768  37.098  38.567  10.644
29509W        W 1769  29.349  41.294   4.069
29510W        W 1770   0.911  16.761   0.202
29511W        W 1771   2.940  12.292   1.232
29512W        W 1772  19.706   2.613  12.296
29513W        W 1773  21.576  24.163  13.453
29514W        W 1774  44.930  35.431   2.765
29515W        W 1775  40.920  31.599   1.721
29516W        W 1776   9.219  18.493  13.965
29517W        W 1777  44.531  43.269   1.753
29518W        W 1778  25.763  32.366   2.892
29519W        W 1779  17.332  41.283  11.971
29520W        W 1780   2.442  42.423  11.532
29521W        W 1781  23.494   1.448   2.185
29522W        W 1782  32.184  34.636  12.519
29523W        W 1783  34.946  43.851   3.384
29524W        W 1784  12.112  27.318   4.278
29525W        W 1785  18.673  42.455   0.912
29526W        W 1786  26.491  16.643  13.072
29527W        W 1787  11.319  41.704  12.730
29528W        W 1788  43.257  42.274   4.062
29529W        W 1789   1.907  42.531  11.522
29530W        W 1790  27.834  13.362  13.891
29531W        W 1791  43.312  25.480   4.719
29532W        W 1792  30.383  17.079  14.434
29533W        W 1793  18.036   5.711  13.494
29534W        W 1794  36.873  37.530  10.672
29535W        W 1795  11.165  40.413  14.834
29536W        W 1796   9.598   1.754  14.918
29537W        W 1797  35.703   6.384   3.263
29538W        W 1798  24.268  33.945  11.240
29539W        W 1799  35.849  41.045   4.570
29540W        W 1800   2.317  21.804  10.645
29541W        W 1801   5.874  33.313  11.423
29542W        W 1802  19.340  29.474  13.366
29543W        W 1803  33.417   4.905  13.967
29544W        W 1804  26.461   7.645   1.741
29545W        W 1805  42.828  15.648  11.565
29546W        W 1806  42.883  34.040  10.604
29547W        W 1807  29.407  24.421  12.017
29548W        W 1808  22.387   2.504   3.704
29549W        W 1809   4.471  39.924   4.105
29550W        W 1810   6.164   9.403  13.976
29551W        W 1811  40.374  43.832  12.509
29552W        W 1812  42.062  34.157  13.387
29553W        W 1813  39.798  15.704   0.330
29554W        W 1814  25.242  24.476   2.787
29555W        W 1815  14.373  43.449  14.253
29556W        W 1816  41.768  12.952  14.781
29557W        W 1817   8.771   4.660   1.313
29558W        W 1818  31.379  44.752  12.410
29559W        W 1819  27.335  39.584   5.616
29560W        W 1820  32.664   0.544  10.856
29561W        W 1821   3.269  43.894  12.933
29562W        W 1822  15.849  11.668   2.743
29563W        W 1823  41.361  18.844  10.716
29564W        W 1824  14.798  12.697   2.478
29565W        W 1825  33.872  23.522   2.743
29566W        W 1826  20.240   7.846   1.396
29567W        W 1827  10.340   2.740  11.119
29568W        W 1828  17.099  36.087  11.522
29569W        W 1829  25.938  28.967   4.907
29570W        W 1830   8.212  12.056  10.701
29571W        W 1831  25.534  13.026  11.120
29572W        W 1832  41.824  23.015  14.431
29573W        W 1833  30.571   4.992   0.498
29574W        W 1834  36.101   6.236  11.956
29575W        W 1835   6.756  28.231   4.146
29576W        W 1836   5.172  11.821   3.219
29577W        W 1837  27.506  30.892   2.769
29578W        W 1838  17.064  23.730   2.882
29579W        W 1839  22.131  26.497  12.809
29580W        W 1840  24.178  14.498  11.443
29581W        W 1841   2.440  14.124   3.095
29582W        W 1842  33.562  35.509  12.637
29583W        W 1843  20.522   0.518   2.828
29584W        W 1844  39.389  11.703  13.985
29585W        W 1845   6.721   7.749  14.242
29586W        W 1846  27.533   1.497   2.469
29587W        W 1847   1.356  18.962   3.500
29588W        W 1848  36.386  12.862   1.592
29589W        W 1849  13.160   3.521  11.963
29590W        W 1850  22.269   9.644   3.156
29591W        W 1851  30.957   8.387   2.754
29592W        W 1852  21.698  17.723   0.267
29593W        W 1853  40.389  36.086  14.213
29594W        W 1854   2.410  29.487  12.962
29595W        W 1855   6.127   8.850   2.590
29596W        W 1856  22.300  15.844  14.384
29597W        W 1857  10.330   2.332  14.361
29598W        W 1858  11.699   8.746  13.463
29599W        W 1859  39.279  20.995  11.989
29600W        W 1860  17.587  32.055  12.774
29601W        W 1861  30.009   1.343   3.105
29602W        W 1862  41.905  29.932   4.792
29603W        W 1863  28.988  41.891   2.475
29604W        W 1864  39.647  41.943  14.888
29605W        W 1865  14.720  11.558  10.917
29606W        W 1866  37.799  25.243  10.765
29607W        W 1867  34.416  15.384  14.835
29608W        W 1868   2.683  12.597  11.618
29609W        W 1869  43.220  31.557  13.909
29610W        W 1870   6.697  42.696   4.120
29611W        W 1871  15.298  31.459  13.411
29612W        W 1872  20.000  36.099  13.260
29613W        W 1873   7.264   2.731  12.025
29614W        W 1874  14.115  38.985  11.845
29615W        W 1875  11.238  33.368  13.982
29616W        W 1876  30.167  39.405  10.808
29617W        W 1877  19.211   3.760   1.889
29618W        W 1878  19.201  17.526  12.543
29619W        W 1879  26.990  34.924  11.865
29620W        W 1880  22.774   0.634   5.103
29621W        W 1881  33.852   0.333   0.321
29622W        W 1882  32.361  30.637   4.385
29623W        W 1883  11.557  17.767  13.075
29624W        W 1884  22.180  20.083   1.843
29625W        W 1885  23.411  18.196  10.495
29626W        W 1886  34.845  27.169  11.017
29627W        W 1887  31.897  18.635   1.279
29628W        W 1888  22.796  12.809  14.365
29629W        W 1889  24.627   5.173  13.824
29630W        W 1890   1.345  11.923   4.357
29631W        W 1891  12.773   4.079   1.730
29632W        W 1892   9.906  14.380   2.873
29633W        W 1893  31.620  41.012  14.530
29634W        W 1894  18.124  42.718  12.671
29635W        W 1895  14.145   0.645  14.327
29636W        W 1896  36.860  31.860   1.750
29637W        W 1897  29.560  16.848   1.153
29638W        W 1898   9.843  43.075   2.408
29639W        W 1899  18.820  31.739  11.507
29640W        W 1900  15.642  29.239   4.278
29641W        W 1901  35.286  19.153  12.354
29642W        W 1902  14.112  20.520  12.011
29643W        W 1903   5.803  31.360   4.591
29644W        W 1904  16.193  13.367  13.844
29645W        W 1905  35.584  10.528   3.533
29646W        W 1906  34.810  18.090  13.836
29647W        W 1907  39.734  21.028   0.268
29648W        W 1908  12.671  20.255  13.546
29649W        W 1909  25.279  43.457   1.174
29650W        W 1910   5.459  24.704   2.757
29651W        W 1911  42.915  18.226  14.193
29652W        W 1912  31.896  19.156   0.057
29653W        W 1913  16.147  24.060   4.744
29654W        W 1914  12.621  26.004  14.708
29655W        W 1915  40.264   2.714  11.013
29656W        W 1916  24.956  24.184   3.165
29657W        W 1917   7.208  14.640  12.987
29658W        W 1918  22.574  28.857  11.059
29659W        W 1919  36.098  37.954  12.875
29660W        W 1920  12.523  29.172  11.160
29661W        W 1921  18.441  38.129  12.511
29662W        W 1922  29.024  40.070   1.514
29663W        W 1923  34.487  16.187  11.657
29664W        W 1924  42.822   1.459  11.667
29665W        W 1925   9.593   7.975  14.941
29666W        W 1926  36.449  15.622   4.465
29667W        W 1927  36.501  26.720   1.693
29668W        W 1928  14.715  20.288  11.574
29669W        W 1929  17.748  10.665  14.958
29670W        W 1930  25.492   3.267   1.646
29671W        W 1931  44.590   9.998  14.956
29672W        W 1932  43.288  31.882   2.299
29673W        W 1933  38.805  36.641  13.010
29674W        W 1934   5.017  20.496   1.495
29675W        W 1935  29.431   6.785  14.044
29676W        W 1936  34.134  16.287   3.284
29677W        W 1937   0.344  36.478  14.617
29678W        W 1938   8.056  28.620   2.632
29679W        W 1939  11.653  23.248  14.565
29680W        W 1940  14.111  37.430  14.425
29681W        W 1941  39.560  12.868  11.709
29682W        W 1942   6.127  42.435   1.710
29683W        W 1943  35.653  31.538   3.452
29684W        W 1944   7.387  17.339   3.265
29685W        W 1945  18.267  39.137  14.003
29686W        W 1946  32.326  31.588  10.465
29687W        W 1947  15.834   2.380  11.161
29688W        W 1948  38.489  24.728  12.145
29689W        W 1949  17.058  42.237   1.836
29690W        W 1950   1.398  30.276   1.249
29691W        W 1951  35.068  38.439  10.646
29692W        W 1952  32.895  12.805   2.246
29693W        W 1953   5.230   2.468   2.339
29694W        W 1954  43.745  23.586  12.814
29695W        W 1955   8.190   6.841   4.574
29696W        W 1956   2.429  21.196   3.140
29697W        W 1957  23.738  13.056  13.990
29698W        W 1958   3.835   9.320   2.149
29699W        W 1959  30.057   8.999  14.957
29700W        W 1960  14.073   0.764   4.686
29701W        W 1961  23.068  34.935   4.262
29702W        W 1962  35.872  22.620  11.071
29703W        W 1963  43.441  31.132   1.739
29704W        W 1964  25.986   9.614  10.869
29705W        W 1965  26.698  20.123   0.772
29706W        W 1966   0.981  16.117   4.903
29707W        W 1967  26.351   6.919   3.293
29708W        W 1968   0.265  43.693  13.845
29709W        W 1969  20.285  39.164   0.050
29710W        W 1970  33.775  38.352  14.532
29711W        W 1971  20.567  42.238  12.470
29712W        W 1972  23.572  10.902  13.388
29713W        W 1973   4.295  13.459  14.468
29714W        W 1974  15.728   3.803   3.862
29715W        W 1975  32.011  14.932   1.420
29716W        W 1976  38.920  35.943  14.464
29717W        W 1977   2.076  36.603   1.192
29718W        W 1978  23.128  25.637  14.548
29719W        W 1979  24.362  26.152  14.689
29720W        W 1980  33.973   9.700   3.201
29721W        W 1981   1.995  33.097   0.190
29722W        W 1982  36.849  28.060  10.662
29723W        W 1983  24.021  25.733   3.773
29724W        W 1984  37.363  37.786  11.615
29725W        W 1985  24.421  34.173   3.317
29726W        W 1986  28.100   6.381   4.183
29727W        W 1987  12.168  33.224  13.131
29728W        W 1988  29.851  41.266   4.115
29729W        W 1989  42.849  19.468   4.776
29730W        W 1990  39.913  35.048  13.416
29731W        W 1991  18.358  16.309   2.088
29732W        W 1992  25.724  24.972   0.845
29733W        W 1993  18.405  40.919  12.453
29734W        W 1994  41.912   4.617  13.816
29735W        W 1995   8.643   1.332  12.171
29736W        W 1996  21.687  33.538  13.627
29737W        W 1997  36.979  11.452  12.599
29738W        W 1998  42.389  27.191  13.010
29739W        W 1999  31.071  15.659   1.956
29740W        W 2000  36.731   8.080  13.394
29741W        W 2001  15.835  41.374  14.441
29742W        W 2002  40.913  18.821   1.698
29743W        W 2003  30.958   4.287  11.700
29744W        W 2004  22.506  32.022   3.258
29745W        W 2005   8.738  24.370   3.779
29746W        W 2006   9.380   8.525   0.289
29747W        W 2007   0.775  23.635  10.248
29748W        W 2008  12.144  19.821   1.837
29749W        W 2009  37.382   3.896   4.319
29750W        W 2010  34.530  10.997   3.269
29751W        W 2011   1.350  19.135   0.455
29752W        W 2012  33.103  29.647   3.196
29753W        W 2013   3.833  10.830   1.232
29754W        W 2014  25.513  22.439   0.258
29755W        W 2015  37.028  36.195   2.454
29756W        W 2016  32.510  25.991  14.880
29757W        W 2017  33.198  36.944  11.951
29758W        W 2018   8.597  33.698   0.785
29759W        W 2019  28.703  42.537   0.773
29760W        W 2020  38.565  27.412   0.781
29761W        W 2021   9.194  15.835   1.106
29762W        W 2022  13.694   5.970  12.904
29763W        W 2023  31.970  14.676  14.510
29764W        W 2024  13.613  24.171   2.213
29765W        W 2025  25.480   6.860   1.778
29766W        W 2026   8.079  29.559  11.161
29767W        W 2027   6.300  29.055  12.994
29768W        W 2028   1.198  14.823   1.957
29769W        W 2029  15.202  21.753   2.742
29770W        W 2030  37.370   4.766   1.612
29771W        W 2031  17.400  33.159   4.126
29772W        W 2032  35.119   7.666   3.274
29773W        W 2033  26.665  31.130  11.497
29774W        W 2034  31.020  28.730   0.723
29775W        W 2035  39.041  33.327  13.781
29776W        W 2036  40.323  17.776  11.093
29777W        W 2037  39.437  12.568  12.112
29778W        W 2038   6.775   5.073  12.145
29779W        W 2039  20.762  32.366   4.249
29780W        W 2040  36.122  42.932  11.174
29781W        W 2041  29.853  33.450   1.738
29782W        W 2042  15.624  25.075  14.703
29783W        W 2043  16.532  16.085  11.047
29784W        W 2044  24.699  25.596   0.400
29785W        W 2045  42.854  33.013  10.668
29786W        W 2046   4.333   9.127   1.366
29787W        W 2047   4.281  24.701   1.122
29788W        W 2048  38.007  23.508   1.630
29789W        W 2049  18.286  24.512   3.363
29790W        W 2050  13.527  19.340  12.391
29791W        W 2051  44.856  43.561  12.569
29792W        W 2052  30.396  37.348   4.492
29793W        W 2053  17.083  34.339  10.348
29794W        W 2054  39.552  25.687  13.010
29795W        W 2055  19.301  25.570   0.882
29796W        W 2056  39.296  10.867   1.199
29797W        W 2057  14.394  35.549  11.025
29798W        W 2058   3.778   2.928  13.637
29799W        W 2059  36.203  13.086   0.557
29800W        W 2060   4.622  28.896   2.166
29801W        W 2061  11.130  39.517   3.268
29802W        W 2062  40.049  43.869   2.358
29803W        W 2063  20.657  30.091   0.785
29804W        W 2064  20.975  15.732  12.597
29805W        W 2065  33.857   1.704   3.006
29806W        W 2066  33.311   0.413  14.391
29807W        W 2067  11.594  34.423  14.888
29808W        W 2068  22.005  32.500  12.117
29809W        W 2069  22.070   4.269   3.260
29810W        W 2070   3.545  42.566   2.325
29811W        W 2071  31.662   3.659  12.095
29812W        W 2072   0.310  32.093   2.224
29813W        W 2073  35.616  24.109   0.830
29814W        W 2074  18.168   7.001   1.791
29815W        W 2075  17.967  10.718   4.645
29816W        W 2076  26.189  38.574   1.792
29817W        W 2077  29.223   3.738   2.395
29818W        W 2078  12.711   8.872   0.035
29819W        W 2079  30.073  18.811   1.465
29820W        W 2080   8.208  14.139   4.374
29821W        W 2081  39.804  26.207  11.982
29822W        W 2082   4.478   1.566   0.909
29823W        W 2083   7.207  40.110   4.613
29824W        W 2084  10.580  11.277   1.262
29825W        W 2085  27.209  32.289  14.566
29826W        W 2086   8.352  40.879   1.638
29827W        W 2087  29.023  33.696   2.602
29828W        W 2088  40.897  32.062  10.729
29829W        W 2089   6.003   5.105  14.696
29830W        W 2090  15.568  41.705   3.200
29831W        W 2091  27.124   6.000   0.724
29832W        W 2092  12.231   2.352  14.114
29833W        W 2093  20.607   5.684   0.057
29834W        W 2094  11.383   6.415   3.653
29835W        W 2095  26.762  12.393   1.765
29836W        W 2096  36.356  14.791   0.484
29837W        W 2097   7.798  14.843  14.005
29838W        W 2098  33.169   6.336   3.207
29839W        W 2099  13.343  41.358  12.441
29840W        W 2100   6.171  26.205  10.225
29841W        W 2101  11.239   5.576  12.918
29842W        W 2102  37.525  38.327   0.754
29843W        W 2103  26.666  41.134  10.131
29844W        W 2104  40.763  25.664  12.207
29845W        W 2105  41.566  17.068   2.166
29846W        W 2106  35.487  25.279   2.795
29847W        W 2107  15.205  34.917   3.136
29848W        W 2108   8.186  35.083  13.654
29849W        W 2109  39.413  37.915  13.139
29850W        W 2110  10.771  27.784   1.129
29851W        W 2111  30.478   0.907   3.535
29852W        W 2112  43.553  31.130  13.048
29853W        W 2113  31.878  38.940  11.007
29854W        W 2114  22.506   1.513   3.577
29855W        W 2115  24.010  13.458   2.895
29856W        W 2116  33.814   7.169   4.826
29857W        W 2117  26.935  24.272   3.106
29858W        W 2118  27.390  31.575  11.539
29859W        W 2119  28.414  29.058  12.572
29860W        W 2120  19.525  16.741  10.511
29861W        W 2121  13.048  13.708   0.084
29862W        W 2122  14.264  41.093   0.795
29863W        W 2123  38.108  20.294   1.723
29864W        W 2124  29.103   9.667  10.979
29865W        W 2125  38.871  42.889   0.456
29866W        W 2126  17.778   6.930   2.267
29867W        W 2127  44.852  28.101   1.460
29868W        W 2128   2.960  42.304   1.239
29869W        W 2129  10.520  37.905  14.799
29870W        W 2130  15.763  28.952   2.784
29871W        W 2131  38.538  22.435   4.270
29872W        W 2132  12.372  19.236   4.346
29873W        W 2133  36.544  33.871   3.642
29874W        W 2134  19.788   7.922   2.176
29875W        W 2135   8.740  12.570  12.580
29876W        W 2136  37.412  13.578   2.865
29877W        W 2137   8.677   8.646  12.132
29878W        W 2138  23.967  27.142  11.497
29879W        W 2139  25.453  25.257  12.738
29880W        W 2140  29.310  37.506  12.736
29881W        W 2141  35.998  33.345   4.257
29882W        W 2142   2.731   1.206   1.675
29883W        W 2143  26.719  41.362   5.533
29884W        W 2144  26.050  40.354   2.592
29885W        W 2145  19.658   3.247   1.179
29886W        W 2146  20.814  24.338  11.112
29887W        W 2147  15.704  13.980   5.109
29888W        W 2148  42.825   2.066   4.921
29889W        W 2149  37.444  16.260   1.926
29890W        W 2150  10.799  29.583   2.168
29891W        W 2151  41.829   1.467   3.839
29892W        W 2152  29.393  17.030   1.982
29893W        W 2153  23.292  42.516  14.344
29894W        W 2154  32.132  41.048  14.596
29895W        W 2155  20.684  10.632   2.408
29896W        W 2156  32.065  34.766   2.940
29897W        W 2157  27.926  16.181  10.761
29898W        W 2158  13.357  25.650  12.165
29899W        W 2159  23.078  26.173   0.930
29900W        W 2160  17.029  36.018  10.995
29901W        W 2161  28.372  44.382   2.656
29902W        W 2162  40.209  40.027  13.656
29903W        W 2163  24.004  15.765   4.501
29904W        W 2164  39.204  30.486  14.927
29905W        W 2165  25.645  32.671  13.544
29906W        W 2166   6.838  16.319  10.398
29907W        W 2167  43.058  17.748   1.366
29908W        W 2168  36.047  41.454   3.225
29909W        W 2169   5.916  43.875  13.539
29910W        W 2170  31.046  37.833   0.850
29911W        W 2171   3.328  38.373  13.867
29912W        W 2172  15.015   1.078  10.253
29913W        W 2173   5.134   4.741  12.927
29914W        W 2174  33.116  12.352  14.912
29915W        W 2175  27.169  22.224   4.218
29916W        W 2176   8.193  40.500   0.904
29917W        W 2177  35.902  41.290  10.580
29918W        W 2178   2.116  26.265  14.521
29919W        W 2179  12.283  40.325  11.571
29920W        W 2180  26.522  42.400   3.401
29921W        W 2181  41.898  18.689   2.086
29922W        W 2182  20.288  22.426   0.778
29923W        W 2183  15.517  11.443  10.318
29924W        W 2184   9.296   9.226   4.442
29925W        W 2185   2.258  13.594  13.637
29926W        W 2186  18.001  29.060  10.450
29927W        W 2187  19.134  27.662  14.364
29928W        W 2188   8.174  44.912   1.316
29929W        W 2189  26.716  39.303   2.802
29930W        W 2190  12.940  25.638   4.507
29931W        W 2191  18.646   3.935  12.057
29932W        W 2192  29.509  20.212  10.708
29933W        W 2193  10.685  30.884   0.835
29934W        W 2194  30.925  28.191   3.719
29935W        W 2195   1.880  26.256   1.387
29936W        W 2196  32.487  15.244  12.164
29937W        W 2197  37.746   9.218  11.123
29938W        W 2198  19.942  37.893   4.593
29939W        W 2199   1.347  37.652  12.368
29940W        W 2200   7.909  22.940   2.329
29941W        W 2201  15.906  14.647   5.472
29942W        W 2202  22.743  21.496  10.637
29943W        W 2203  43.458  31.832   3.297
29944W        W 2204  13.317  18.855  12.459
29945W        W 2205  30.112  19.677  10.425
29946W        W 2206  37.663  33.505   1.788
29947W        W 2207  22.769  30.355  12.925
29948W        W 2208  33.185  19.107  10.657
29949W        W 2209  27.003   8.081  13.472
29950W        W 2210  30.525   8.413   3.015
29951W        W 2211  33.607  32.002  14.030
29952W        W 2212  40.771  30.038  10.591
29953W        W 2213  28.619  35.922  10.419
29954W        W 2214  25.489  19.196   3.282
29955W        W 2215   4.872  31.440   2.225
29956W        W 2216  15.527   4.964   0.841
29957W        W 2217   6.756  13.271   0.712
29958W        W 2218  34.521  21.039   5.129
29959W        W 2219  42.315  42.659  11.507
29960W        W 2220   2.525  34.390   3.312
29961W        W 2221  21.180  18.040  11.991
29962W        W 2222  44.334  35.866   4.677
29963W        W 2223   4.984  20.721   4.333
29964W        W 2224  25.241   9.171   3.804
29965W        W 2225  15.066  29.375  13.868
29966W        W 2226  29.959  42.829   0.405
29967W        W 2227  34.381   8.856  13.982
29968W        W 2228  18.833  38.731  11.578
29969W        W 2229  11.391  37.420   1.229
29970W        W 2230  11.087  26.861   4.244
29971W        W 2231  22.455  31.644  14.534
29972W        W 2232  32.429  30.206   0.981
29973W        W 2233  20.245  15.492  13.030
29974W        W 2234  15.292  38.093   0.274
29975W        W 2235  16.817  39.985  12.470
29976W        W 2236   5.006   9.681  11.534
29977W        W 2237   1.767   1.491  11.558
29978W        W 2238  21.215  13.983   2.411
29979W        W 2239  34.290  27.765  14.931
29980W        W 2240  27.440   7.419   4.078
29981W        W 2241  17.384  38.435  12.590
29982W        W 2242  18.235  42.020   2.147
29983W        W 2243  42.512  24.803  11.045
29984W        W 2244  11.955   0.724  13.057
29985W        W 2245  41.308  32.605   1.872
29986W        W 2246  15.348   2.268   2.476
29987W        W 2247  14.030   6.151   2.812
29988W        W 2248  39.028  30.128  14.188
29989W        W 2249   0.383   3.847   4.601
29990W        W 2250  24.981  21.492  10.949
29991W        W 2251  34.078  13.957  11.084
29992W        W 2252  14.288   2.213   1.622
29993W        W 2253   6.423  18.386  13.025
29994W        W 2254   6.243  14.845   4.084
29995W        W 2255  33.547  36.836  10.764
29996W        W 2256   5.432   8.242  14.981
29997W        W 2257   3.937   9.868   0.027
29998W        W 2258  10.150  30.555  11.481
29999W        W 2259  31.685  12.685   4.689
30000W        W 2260  13.276   0.367   1.238
30001W        W 2261  40.939  43.029  10.238
30002W        W 2262   2.267   5.982   3.802
30003W        W 2263  29.542  18.068  12.606
30004W        W 2264  30.296  16.868  14.959
30005W        W 2265  42.419  25.800   2.663
30006W        W 2266  17.314  34.481   2.927
30007W        W 2267  31.400   2.557  14.894
30008W        W 2268  18.028  14.225  11.538
30009W        W 2269  13.300  24.464  14.398
30010W        W 2270   2.822  38.018  12.873
30011W        W 2271  34.897  31.617  14.633
30012W        W 2272  18.211  14.265  13.820
30013W        W 2273  29.311   8.069   2.358
30014W        W 2274  38.496   1.934   3.906
30015W        W 2275  16.716  27.012   0.277
30016W        W 2276  19.664  41.642  13.991
30017W        W 2277  15.851   9.181  14.374
30018W        W 2278   7.958  17.564  12.149
30019W        W 2279  31.934  31.400   3.625
30020W        W 2280  33.512  27.325   0.424
30021W        W 2281  41.071  23.999  12.417
30022W        W 2282  17.871  22.235   1.733
30023W        W 2283   2.869  38.600   2.707
30024W        W 2284  40.689  42.849   4.193
30025W        W 2285  22.632  15.130  14.798
30026W        W 2286   3.659  40.600   4.047
30027W        W 2287  19.766   3.707  14.804
30028W        W 2288  13.602  19.807  11.007
30029W        W 2289   1.105  32.115  14.193
30030W        W 2290  15.181  20.106   2.451
30031W        W 2291  38.100   8.829  13.471
30032W        W 2292   3.485  31.651  14.429
30033W        W 2293   4.682  25.780   1.832
30034W        W 2294  40.399  33.495   0.073
30035W        W 2295  27.022  39.652  13.999
30036W        W 2296  44.149  12.925  13.429
30037W        W 2297  26.244   2.726   1.196
30038W        W 2298   9.681  32.565   4.588
30039W        W 2299  44.256  31.753  13.809
30040W        W 2300  20.288  31.552   2.356
30041W        W 2301  38.843   3.916  11.568
30042W        W 2302  35.977   6.201  12.996
30043W        W 2303  17.286  17.864   2.921
30044W        W 2304  27.616  11.559  14.027
30045W        W 2305   5.796  32.592   3.271
30046W        W 2306  32.563  12.829   1.273
30047W        W 2307  10.899  16.475   4.028
30048W        W 2308  44.009  30.147  13.066
30049W        W 2309  19.006  35.107   0.296
30050W        W 2310  29.959  40.572  12.128
30051W        W 2311  29.875  13.072   1.266
30052W        W 2312  39.912  41.891   4.577
30053W        W 2313   4.885  19.692  10.716
30054W        W 2314  11.272  17.704  11.524
30055W        W 2315  14.723  36.594  13.029
30056W        W 2316  22.035  30.120   2.842
30057W        W 2317  16.598  11.612  12.179
30058W        W 2318  17.863   1.213   2.366
30059W        W 2319  11.989  27.702  13.579
30060W        W 2320  39.814  19.122   0.751
30061W        W 2321   1.511  24.086  12.119
30062W        W 2322   6.861  30.658  11.146
30063W        W 2323  10.432   7.442  12.367
30064W        W 2324   1.353  28.961   2.297
30065W        W 2325  10.904  25.162   0.419
30066W        W 2326  36.594  11.316   0.818
30067W        W 2327  18.980  36.785  13.138
30068W        W 2328  26.890  37.521  10.566
30069W        W 2329   5.262  38.713  10.253
30070W        W 2330  12.649   7.816  13.342
30071W        W 2331  43.497  38.957  12.032
30072W        W 2332  22.567  43.839   1.303
30073W        W 2333  14.790  26.901   1.233
30074W        W 2334  44.576  29.915   2.333
30075W        W 2335  23.842  42.440  13.574
30076W        W 2336   2.553  31.122   1.385
30077W        W 2337  18.784  41.762   4.855
30078W        W 2338  35.334  38.885   1.740
30079W        W 2339   1.511   2.385   2.382
30080W        W 2340  19.121  22.703  14.424
30081W        W 2341  35.037  17.259  14.510
30082W        W 2342  27.918  25.742   3.700
30083W        W 2343  39.516  16.743   0.794
30084W        W 2344  41.355  39.314  12.070
30085W        W 2345  33.448  32.876   3.522
30086W        W 2346   5.028  42.984   3.236
30087W        W 2347  27.065  10.258  10.906
30088W        W 2348  31.219  42.877  12.543
30089W        W 2349  42.765   0.841  12.835
30090W        W 2350   7.272  20.377  11.649
30091W        W 2351  35.177  25.574   0.810
30092W        W 2352  26.618  11.791   2.194
30093W        W 2353  37.596  25.193   4.591
30094W        W 2354  16.600  11.158   2.810
30095W        W 2355  41.334  20.008  13.898
30096W        W 2356  43.689  15.707   0.264
30097W        W 2357   3.989  10.766   2.295
30098W        W 2358  27.726   3.430   4.877
30099W        W 2359   0.017   5.304  13.769
30100W        W 2360   7.852  20.702   4.270
30101W        W 2361  27.523   3.184  13.972
30102W        W 2362  44.783  41.422   2.253
30103W        W 2363  40.082   3.450   0.991
30104W        W 2364  28.003  37.779  11.164
30105W        W 2365   3.359  29.022  13.791
30106W        W 2366  10.527   2.523   0.284
30107W        W 2367  37.824   1.871   1.165
30108W        W 2368  12.037  17.249   3.717
30109W        W 2369   1.377  12.958   1.334
30110W        W 2370  13.399   6.167  14.755
30111W        W 2371  19.530  24.444   3.939
30112W        W 2372  26.209   3.941   4.586
30113W        W 2373  38.572  38.462   2.690
30114W        W 2374   5.424   9.303   4.840
30115W        W 2375   8.833  20.488   3.826
30116W        W 2376  38.071  26.527  11.487
30117W        W 2377   9.162  43.474  12.878
30118W        W 2378   2.723  14.218   0.781
30119W        W 2379  30.625   0.834  14.522
30120W        W 2380  27.629  32.561  10.614
30121W        W 2381   8.867  19.633  13.364
30122W        W 2382  22.141  14.691   3.687
30123W        W 2383  20.988  38.393   0.880
30124W        W 2384  25.534  13.677  11.857
30125W        W 2385   3.340  34.293   3.244
30126W        W 2386  17.193   0.479   1.937
30127W        W 2387  41.844  41.050  11.333
30128W        W 2388  43.923   3.284   3.650
30129W        W 2389   5.335   6.044   4.679
30130W        W 2390  26.706   9.807   2.741
30131W        W 2391  37.321  18.037   0.839
30132W        W 2392  22.518   8.613   0.482
30133W        W 2393   7.543  19.548  13.010
30134W        W 2394  36.048  32.662  12.010
30135W        W 2395  37.050  44.217  12.468
30136W        W 2396   8.290  15.400   2.340
30137W        W 2397   7.945   0.527   3.812
30138W        W 2398   1.251   3.980   4.016
30139W        W 2399   5.885  32.435  14.915
30140W        W 2400  35.631   8.336   1.776
30141W        W 2401  17.884  21.927   0.380
30142W        W 2402   4.266  34.353   0.363
30143W        W 2403   4.208   0.034  13.037
30144W        W 2404  10.396  31.539  12.494
30145W        W 2405  36.938   8.418   3.402
30146W        W 2406  33.480  29.002   4.578
30147W        W 2407  20.616  41.989   4.846
30148W        W 2408  27.573   6.764   0.563
30149W        W 2409  39.576   8.355  10.648
30150W        W 2410  25.646   1.291   0.473
30151W        W 2411   9.128  42.452   2.968
30152W        W 2412  15.782  22.518  12.009
30153W        W 2413  42.955  29.919  12.430
30154W        W 2414   5.041  12.170   4.526
30155W        W 2415  35.698   2.860  14.866
30156W        W 2416  29.981   0.810  10.568
30157W        W 2417   7.529  10.114  14.783
30158W        W 2418  37.383   0.379   4.666
30159W        W 2419  15.609  33.845   4.147
30160W        W 2420  18.856  31.653  13.068
30161W        W 2421  38.399  28.527  13.661
30162W        W 2422  24.798  28.565   2.369
30163W        W 2423   5.135  36.050   2.804
30164W        W 2424  27.044  23.358  12.436
30165W        W 2425  26.066   1.391   2.175
30166W        W 2426  22.745  10.949  11.859
30167W        W 2427  27.078  19.604  11.933
30168W        W 2428   1.904  22.537  11.710
30169W        W 2429   0.333  13.161   4.583
30170W        W 2430  13.584  32.190   1.040
30171W        W 2431  22.578  17.515   3.270
30172W        W 2432  16.588  19.330   1.458
30173W        W 2433  10.684  16.230  10.707
30174W        W 2434  39.571   3.445   1.146
30175W        W 2435  33.669   0.824   3.363
30176W        W 2436   4.412  25.183   2.376
30177W        W 2437  22.268  28.001  13.481
30178W        W 2438   8.657  40.915  14.743
30179W        W 2439  12.555   9.898   1.239
30180W        W 2440  28.156  13.074  12.552
30181W        W 2441  35.810  34.636   2.751
30182W        W 2442  42.971  15.439   4.185
30183W        W 2443   1.835   3.669  13.884
30184W        W 2444  24.454  15.091  11.865
30185W        W 2445  36.177  22.495  12.879
30186W        W 2446  43.254   0.164   3.416
30187W        W 2447   9.908  41.229   2.851
30188W        W 2448  27.898  19.722   1.769
30189W        W 2449  25.305   1.333  12.545
30190W        W 2450  20.719   6.367   2.371
30191W        W 2451  11.062  40.330  11.640
30192W        W 2452  23.349  34.874  11.508
30193W        W 2453   0.614   5.962   0.856
30194W        W 2454   5.000   2.322  14.881
30195W        W 2455  31.962  14.888   0.906
30196W        W 2456  25.013  17.651  10.983
30197W        W 2457  20.504  24.014  14.355
30198W        W 2458   7.638  41.521   1.178
30199W        W 2459   1.936  18.933  10.828
30200W        W 2460  13.840  26.299  14.352
30201W        W 2461  22.060  34.900  13.977
30202W        W 2462  14.159   6.882   0.525
30203W        W 2463  12.323  17.603   3.419
30204W        W 2464   7.027  39.831  10.719
30205W        W 2465  18.744   3.766  13.746
30206W        W 2466  42.787  10.233   2.257
30207W        W 2467  32.869  13.695   2.604
30208W        W 2468  33.701  28.755   1.232
30209W        W 2469  26.490  17.346   3.753
30210W        W 2470  14.645  23.951   3.855
30211W        W 2471  25.673  19.804  11.543
30212W        W 2472  27.268   0.578  11.273
30213W        W 2473  13.353  20.623  11.532
30214W        W 2474   7.926  42.967  13.379
30215W        W 2475  35.588   7.843  12.440
30216W        W 2476  32.027   5.973  14.926
30217W        W 2477   6.146   7.452   0.942
30218W        W 2478  15.064  42.309   3.757
30219W        W 2479  28.600  38.815  10.606
30220W        W 2480  10.201  39.904  13.942
30221W        W 2481   3.995  38.756  13.857
30222W        W 2482  36.767  22.767  14.783
30223W        W 2483   8.374  26.646   4.972
30224W        W 2484  31.559   9.279   1.393
30225W        W 2485  31.447  33.633   0.089
30226W        W 2486   1.448  39.825  13.447
30227W        W 2487  44.002   7.644   0.780
30228W        W 2488  32.357  26.783  13.781
30229W        W 2489  43.977  29.128  11.599
30230W        W 2490   0.671  27.260   0.922
30231W        W 2491   2.540  27.029   1.406
30232W        W 2492   8.826  10.489  13.970
30233W        W 2493   4.266  44.412   4.963
30234W        W 2494  39.339  10.135  11.041
30235W        W 2495  28.881  20.764  12.848
30236W        W 2496  37.868  27.908   1.263
30237W        W 2497  40.809  22.536  14.335
30238W        W 2498   9.226  21.773  13.136
30239W        W 2499  22.954  29.882  12.448
30240W        W 2500  13.347  10.543   0.958
30241W        W 2501  44.330  44.838  12.273
30242W        W 2502  40.289  13.408   3.086
30243W        W 2503  10.847  30.176  13.693
30244W        W 2504  39.753  37.609  13.515
30245W        W 2505  44.345  33.557  12.532
30246W        W 2506   4.984  12.783  11.127
30247W        W 2507   2.983  32.372   3.762
30248W        W 2508  18.043  27.999   4.931
30249W        W 2509  19.500   7.772  12.886
30250W        W 2510  11.359  24.638   0.977
30251W        W 2511  34.948   3.103   2.446
30252W        W 2512  42.827   7.314   0.418
30253W        W 2513  24.258  17.526  12.980
30254W        W 2514   5.855  38.150  14.813
30255W        W 2515  23.577   5.280  13.003
30256W        W 2516  32.367  17.215   2.565
30257W        W 2517  40.259   5.133  14.505
30258W        W 2518  41.947  41.849   4.311
30259W        W 2519   1.982  29.683   2.420
30260W        W 2520  11.929  22.113   2.806
30261W        W 2521  42.413  19.995   4.337
30262W        W 2522   2.372  27.224  14.242
30263W        W 2523  12.738  40.107  11.446
30264W        W 2524  14.577  44.729  12.820
30265W        W 2525  36.419  17.653   2.191
30266W        W 2526  28.096  43.304   4.401
30267W        W 2527   8.138  19.479   2.473
30268W        W 2528   0.395  12.684   1.857
30269W        W 2529  31.650  35.029  12.059
30270W        W 2530  16.683  16.881  11.513
30271W        W 2531  20.504  35.081  12.867
30272W        W 2532  43.437   6.420   2.163
30273W        W 2533  32.552  14.112  10.593
30274W        W 2534  39.048  44.820  14.470
30275W        W 2535  15.186  17.079  13.515
30276W        W 2536   0.796  18.201  11.631
30277W        W 2537  10.610   4.273   4.373
30278W        W 2538  42.938  37.621  10.788
30279W        W 2539  13.346   1.799   4.144
30280W        W 2540  19.973  37.462   3.650
30281W        W 2541   1.348  37.724  10.940
30282W        W 2542  18.627   2.672   2.250
30283W        W 2543  13.745  38.848  13.501
30284W        W 2544  16.820  14.291  14.351
30285W        W 2545  21.302  18.129  13.753
30286W        W 2546  34.860  20.770   5.439
30287W        W 2547  23.315  32.555  11.304
30288W        W 2548  21.311  32.367  14.524
30289W        W 2549  26.140  36.021  12.092
30290W        W 2550  31.642  31.512   1.893
30291W        W 2551  14.249  24.319   4.589
30292W        W 2552  30.538  36.659   0.285
30293W        W 2553  24.540  19.499   2.433
30294W        W 2554  25.372  12.696   2.294
30295W        W 2555  15.569  28.386  13.345
30296W        W 2556  11.516  19.469   4.212
30297W        W 2557   5.675  16.264  10.832
30298W        W 2558  33.986  29.172  11.557
30299W        W 2559  14.312  30.150  12.951
30300W        W 2560  24.409   1.835  13.872
30301W        W 2561  24.432  29.625  11.999
30302W        W 2562  11.259  19.321   3.294
30303W        W 2563  11.707  36.583   0.085
30304W        W 2564  28.978  25.580  10.697
30305W        W 2565  42.535  14.110  11.705
30306W        W 2566  25.935  38.320   5.496
30307W        W 2567   8.746   2.958   1.799
30308W        W 2568   6.643   2.242   0.062
30309W        W 2569  18.305  42.464  14.517
30310W        W 2570  35.415  24.202  13.988
30311W        W 2571   9.870   9.404   1.186
30312W        W 2572  27.818  39.488   2.201
30313W        W 2573  33.403  14.603   0.901
30314W        W 2574   5.935  17.389  14.470
30315W        W 2575   7.952  31.190  13.168
30316W        W 2576  16.677   3.409  14.493
30317W        W 2577   0.919  43.747   4.553
30318W        W 2578   4.320  11.700   2.760
30319W        W 2579  23.632  40.426  11.196
30320W        W 2580  43.987  26.958   2.716
30321W        W 2581  39.815  42.733   0.421
30322W        W 2582  42.338   8.352   2.044
30323W        W 2583  29.600  34.118  13.519
30324W        W 2584  34.434  28.139   4.875
30325W        W 2585  41.233  23.446  13.652
30326W        W 2586  42.033   1.195  14.374
30327W        W 2587   2.740   7.744  11.098
30328W        W 2588  29.077  41.254   0.830
30329W        W 2589  28.902  11.131   1.749
30330W        W 2590  23.285  23.538  13.063
30331W        W 2591  36.217  15.636   1.837
30332W        W 2592  39.762  12.796   3.655
30333W        W 2593  13.285  15.299   3.403
30334W        W 2594   4.338  19.181  11.049
30335W        W 2595  15.954  34.808  13.291
30336W        W 2596  23.564  14.235  13.428
30337W        W 2597  23.460  12.351   0.331
30338W        W 2598  38.926  17.877   1.811
30339W        W 2599  22.514  40.395  12.126
30340W        W 2600  17.569  39.681   4.133
30341W        W 2601  31.159  20.727  14.979
30342W        W 2602  21.223  34.400  11.959
30343W        W 2603  18.334  25.276  10.759
30344W        W 2604  21.026  34.805   5.055
30345W        W 2605   6.144   6.953   0.372
30346W        W 2606  15.078  43.826  12.292
30347W        W 2607   1.663   5.569   1.804
30348W        W 2608  38.054  17.062  10.219
30349W        W 2609  39.589  32.435  11.146
30350W        W 2610   3.981  28.901   0.436
30351W        W 2611  34.605  24.085   0.901
30352W        W 2612  36.874   3.156  10.774
30353W        W 2613  33.360   3.338  10.965
30354W        W 2614  25.214  15.052   0.690
30355W        W 2615  43.760   8.177   4.718
30356W        W 2616  20.007  42.894  13.387
30357W        W 2617  10.346  37.798  10.946
30358W        W 2618  10.212  39.405   4.646
30359W        W 2619  17.018  16.855   4.692
30360W        W 2620  32.604  38.651  11.624
30361W        W 2621  40.875  20.936   1.545
30362W        W 2622  21.028  10.456  11.414
30363W        W 2623  35.135  41.335  10.246
30364W        W 2624  16.514  44.357  12.560
30365W        W 2625  32.321   0.715  12.110
30366W        W 2626  18.931  43.138   4.408
30367W        W 2627  19.687   4.056   4.517
30368W        W 2628  13.246  18.348  12.529
30369W        W 2629  30.040   9.461  14.391
30370W        W 2630   2.767  17.691   1.277
30371W        W 2631  21.238  18.250   1.849
30372W        W 2632   5.355  14.373   0.582
30373W        W 2633   7.212  34.779   3.240
30374W        W 2634   7.420  42.309   4.617
30375W        W 2635  33.151  41.821  13.727
30376W        W 2636  14.254  39.911   1.544
30377W        W 2637  27.396  44.860   0.899
30378W        W 2638  28.537  39.484  12.168
30379W        W 2639  32.125  25.662   2.866
30380W        W 2640  41.282   6.962   1.557
30381W        W 2641  35.120  12.842  13.050
30382W        W 2642   5.210  25.398  13.405
30383W        W 2643  15.518  37.257  10.313
30384W        W 2644  34.570  21.159   2.370
30385W        W 2645  22.176   0.940   4.136
30386W        W 2646   6.682  21.326   0.340
30387W        W 2647  35.569  21.877   4.775
30388W        W 2648  37.450  38.283  11.725
30389W        W 2649  22.890  14.644  10.683
30390W        W 2650  37.354  13.211  11.869
30391W        W 2651  29.869  20.228  14.956
30392W        W 2652   3.152  31.199  12.020
30393W        W 2653  23.529  29.091   0.261
30394W        W 2654  44.418  16.099   0.770
30395W        W 2655  39.025  31.071  13.010
30396W        W 2656  44.731  38.027   2.714
30397W        W 2657  14.962   9.748  11.956
30398W        W 2658   9.157  27.586   4.018
30399W        W 2659  17.145  36.086   1.984
30400W        W 2660  10.259  35.351   4.549
30401W        W 2661  37.902  34.864   1.764
30402W        W 2662  23.473  29.689   1.495
30403W        W 2663   5.832   2.033   1.783
30404W        W 2664  34.433  35.853   1.736
30405W        W 2665  13.215  12.612  11.756
30406W        W 2666  34.182  37.336   1.719
30407W        W 2667   6.858   0.501  14.745
30408W        W 2668   5.703  42.200  11.966
30409W        W 2669  44.365   6.176  11.571
30410W        W 2670  22.404  28.692   9.727
30411W        W 2671  24.683  26.637   1.349
30412W        W 2672  37.091  13.407   2.468
30413W        W 2673  11.778   0.231   3.743
30414W        W 2674  34.558  31.407   0.891
30415W        W 2675   4.264  14.101  10.436
30416W        W 2676  26.660  41.384  14.270
30417W        W 2677  13.977   2.069   2.769
30418W        W 2678  35.394  26.756   0.896
30419W        W 2679  44.928  20.113   3.435
30420W        W 2680  41.546  14.269  11.627
30421W        W 2681  12.402  44.371   0.705
30422W        W 2682  15.689   4.474   2.340
30423W        W 2683  23.335   7.930   1.738
30424W        W 2684   1.598  11.528   2.979
30425W        W 2685  22.028  43.926   4.631
30426W        W 2686   9.636  39.847  12.984
30427W        W 2687  34.545  31.439  10.732
30428W        W 2688  13.522   8.742   3.158
30429W        W 2689  12.205  31.578   0.420
30430W        W 2690  14.616  42.357  11.160
30431W        W 2691   3.908  22.259   0.474
30432W        W 2692  13.836  24.167   1.755
30433W        W 2693   2.891  19.666   3.361
30434W        W 2694  30.503   8.520   4.213
30435W        W 2695   5.207  23.010  11.175
30436W        W 2696  21.492  10.138  10.604
30437W        W 2697  26.586   5.793  11.688
30438W        W 2698   0.782  14.444  14.235
30439W        W 2699  37.435  44.272  12.885
30440W        W 2700   9.974   4.957  14.761
30441W        W 2701  41.255  26.559   3.586
30442W        W 2702  34.346   6.821  10.391
30443W        W 2703  33.614   5.733  13.429
30444W        W 2704  23.064  25.010   5.091
30445W        W 2705   0.406  15.744  13.512
30446W        W 2706  13.780  41.568   0.185
30447W        W 2707  40.397  41.983   4.372
30448W        W 2708   4.473  30.900   4.335
30449W        W 2709   0.897  39.411  10.411
30450W        W 2710  38.847   1.222   1.853
30451W        W 2711  41.232  32.883  13.052
30452W        W 2712  40.432  24.446  11.971
30453W        W 2713   9.844   8.359   4.206
30454W        W 2714  31.763  38.562   1.965
30455W        W 2715  13.436  38.551   3.724
30456W        W 2716  40.268  30.837   4.131
30457W        W 2717  33.412  38.583   4.033
30458W        W 2718  27.263  19.682  13.929
30459W        W 2719   1.024   0.288   3.683
30460W        W 2720   9.531  24.883  14.367
30461W        W 2721   2.530   1.014  14.775
30462W        W 2722  30.272  30.586  13.130
30463W        W 2723  42.845  40.409  13.511
30464W        W 2724   3.476   9.803   3.821
30465W        W 2725  33.685  31.957   3.676
30466W        W 2726  43.114  39.400  12.913
30467W        W 2727  33.478  11.118   0.009
30468W        W 2728  25.311  33.529  11.409
30469W        W 2729  27.125   5.193  10.500
30470W        W 2730   0.451  44.312   0.183
30471W        W 2731   0.216  33.179   3.216
30472W        W 2732  21.388  41.550  11.990
30473W        W 2733  31.129   9.381  13.455
30474W        W 2734  21.700  21.215  13.069
30475W        W 2735   1.396  18.421   4.273
30476W        W 2736  29.416   9.190  10.430
30477W        W 2737  22.116  21.224  13.810
30478W        W 2738  17.743  20.746   4.549
30479W        W 2739  15.104  14.218  14.076
30480W        W 2740  10.131   1.981   4.580
30481W        W 2741  29.415  32.678   1.802
30482W        W 2742   3.698  41.225   0.966
30483W        W 2743  20.739   1.488  11.617
30484W        W 2744  26.493  13.479  14.363
30485W        W 2745  38.150   0.678  12.501
30486W        W 2746  31.933   4.243   1.534
30487W        W 2747   1.735  23.218  14.508
30488W        W 2748  39.017  10.192  13.425
30489W        W 2749  14.180  37.076   0.750
30490W        W 2750  42.052   7.118  10.345
30491W        W 2751  38.641  10.941   4.630
30492W        W 2752  26.704   4.012  12.548
30493W        W 2753  34.845  44.813  10.980
30494W        W 2754  40.983  34.334  13.887
30495W        W 2755  23.596   8.698   1.442
30496W        W 2756  35.364  44.469   2.822
30497W        W 2757  35.243   3.488   3.783
30498W        W 2758   9.909   2.514  14.614
30499W        W 2759  36.268  42.378   1.946
30500W        W 2760  20.779  27.128   0.962
30501W        W 2761  16.853  40.765  14.811
30502W        W 2762  28.598  34.989  12.040
30503W        W 2763  40.585  11.869  11.620
30504W        W 2764  37.494  33.129  12.532
30505W        W 2765   0.402  26.476  13.212
30506W        W 2766  10.770  28.162  14.777
30507W        W 2767  22.272  25.226  11.013
30508W        W 2768  31.344   8.431  13.201
30509W        W 2769  37.209   7.419  10.614
30510W        W 2770  35.350   3.205   3.197
30511W        W 2771   2.383  41.543   4.391
30512W        W 2772   3.045  29.280  14.480
30513W        W 2773  40.554  20.088  14.956
30514W        W 2774  13.975  32.483   3.688
30515W        W 2775  44.406  44.071   3.551
30516W        W 2776  41.228  31.966   0.247
30517W        W 2777   7.535  40.976   4.911
30518W        W 2778  29.452  16.706   0.254
30519W        W 2779   3.664  26.165  11.244
30520W        W 2780   8.240  40.923  11.126
30521W        W 2781  13.050  27.114  11.892
30522W        W 2782  42.582   3.350  13.912
30523W        W 2783  39.618  36.951   1.667
30524W        W 2784   7.737   3.482   2.730
30525W        W 2785  40.793  38.509  12.929
30526W        W 2786  29.948   3.216  14.351
30527W        W 2787  29.357  44.005   3.274
30528W        W 2788   8.640  29.015   0.747
30529W        W 2789   3.764  26.640   9.968
30530W        W 2790   4.632  13.725  12.547
30531W        W 2791  13.570  39.818  14.692
30532W        W 2792  28.671  34.635   2.334
30533W        W 2793  14.581  34.951   1.802
30534W        W 2794   4.229  43.543   1.658
30535W        W 2795  32.969  23.073   1.236
30536W        W 2796  21.760  22.588   0.796
30537W        W 2797  10.627  19.849   1.113
30538W        W 2798  25.299  17.071   2.300
30539W        W 2799  25.673  23.124   1.429
30540W        W 2800   6.422  13.650   1.884
30541W        W 2801   1.711   9.770  12.007
30542W        W 2802   7.377  14.720   4.647
30543W        W 2803  13.595  13.207   1.189
30544W        W 2804   7.656  38.746   0.294
30545W        W 2805   6.963  11.645   3.595
30546W        W 2806  35.804   5.956  11.477
30547W        W 2807  31.955  38.557  10.656
30548W        W 2808  13.121  21.228  12.904
30549W        W 2809   9.756   0.896   0.959
30550W        W 2810  42.492  15.075  14.459
30551W        W 2811  14.704  27.378   1.023
30552W        W 2812  36.113  22.552   1.334
30553W        W 2813  13.605  25.947   2.784
30554W        W 2814  11.373   7.707  14.282
30555W        W 2815  43.060   4.499   4.458
30556W        W 2816  44.415  17.144  14.461
30557W        W 2817  33.207  26.438  13.637
30558W        W 2818  30.604  30.020   1.226
30559W        W 2819  26.285  35.796   2.262
30560W        W 2820  25.127  11.365  11.168
30561W        W 2821  33.006  22.764   1.635
30562W        W 2822  42.285  38.772  12.175
30563W        W 2823  18.821   2.277   4.574
30564W        W 2824  10.815  27.533   3.626
30565W        W 2825  28.074  18.532  11.010
30566W        W 2826  18.193   5.903   3.713
30567W        W 2827  30.956  37.092  14.350
30568W        W 2828  13.717   2.376  14.927
30569W        W 2829  22.962  13.324   2.226
30570W        W 2830   1.662   9.693   4.730
30571W        W 2831   4.439  25.579  12.622
30572W        W 2832  23.238  40.913  11.357
30573W        W 2833  23.715   8.609  10.130
30574W        W 2834  29.164  29.318  13.627
30575W        W 2835  31.219  39.089  13.513
30576W        W 2836  43.890  20.292   1.381
30577W        W 2837  16.152  27.575   0.711
30578W        W 2838  38.546   1.802   0.894
30579W        W 2839  19.005  28.201   3.779
30580W        W 2840  14.286  13.188  13.508
30581W        W 2841  43.894  20.069   2.839
30582W        W 2842  28.907  41.963  11.255
30583W        W 2843  15.163   4.630   2.405
30584W        W 2844  37.898   3.458   3.688
30585W        W 2845  11.939  44.889  12.602
30586W        W 2846   6.402   1.655   0.354
30587W        W 2847  29.583  17.128  12.939
30588W        W 2848  10.814  20.291  11.028
30589W        W 2849  26.037   6.960   0.084
30590W        W 2850   0.867   2.330  11.930
30591W        W 2851  14.618  33.652   4.586
30592W        W 2852  28.306  22.260   2.843
30593W        W 2853  32.544   3.362  12.543
30594W        W 2854  33.864  14.745   0.556
30595W        W 2855  25.663  44.272  12.025
30596W        W 2856   7.306  15.038   3.682
30597W        W 2857  17.575  23.034  13.572
30598W        W 2858  43.690  14.392  14.123
30599W        W 2859  18.980  42.372  12.040
30600W        W 2860  41.001   3.895  11.408
30601W        W 2861  21.716  18.722  12.463
30602W        W 2862  20.280  37.313  11.559
30603W        W 2863  32.867  20.609  13.464
30604W        W 2864  23.087  29.638  12.010
30605W        W 2865  19.146  14.097  11.121
30606W        W 2866  37.135   8.231   4.423
30607W        W 2867  27.225  39.395  14.460
30608W        W 2868  19.495  35.528  12.694
30609W        W 2869  39.465   1.440  13.357
30610W        W 2870   3.392  34.983  13.537
30611W        W 2871   0.005   7.218   4.128
30612W        W 2872   4.474   2.905  14.357
30613W        W 2873  12.104  34.469   0.788
30614W        W 2874  23.258  11.751   4.196
30615W        W 2875  21.985  37.577  12.924
30616W        W 2876   4.401  40.209  13.865
30617W        W 2877  31.738  28.767  14.281
30618W        W 2878  14.882  36.442  10.543
30619W        W 2879  29.168  29.432   5.045
30620W        W 2880   3.142  19.535   0.466
30621W        W 2881  10.066   4.876   5.003
30622W        W 2882  19.454  11.339   0.048
30623W        W 2883  16.290  20.260   3.757
30624W        W 2884  34.908   9.175  11.564
30625W        W 2885  24.283  41.202  14.505
30626W        W 2886  43.825   9.265  11.218
30627W        W 2887  44.189   5.429  11.987
30628W        W 2888  18.427  20.433  10.183
30629W        W 2889  20.659   6.004  13.488
30630W        W 2890  10.159  44.139  12.088
30631W        W 2891  24.592  24.248  10.714
30632W        W 2892  18.516   2.901   2.886
30633W        W 2893  25.982  27.421  10.577
30634W        W 2894  29.145  10.332   2.337
30635W        W 2895  28.672   4.518  12.848
30636W        W 2896  19.246   2.450  14.357
30637W        W 2897   4.446  28.140  14.091
30638W        W 2898  41.472  35.566   1.127
30639W        W 2899  41.433  32.919  11.296
30640W        W 2900  23.985  35.366   3.948
30641W        W 2901  35.678  23.670  11.657
30642W        W 2902  25.256  20.267   0.765
30643W        W 2903  25.525  33.649   0.163
30644W        W 2904   5.000  18.739   4.590
30645W        W 2905   5.353  40.523  12.967
30646W        W 2906  29.615   4.946   1.247
30647W        W 2907  29.084   4.887   0.454
30648W        W 2908   6.872   5.082  10.794
30649W        W 2909  43.188  26.530   2.386
30650W        W 2910   5.920  20.028  14.543
30651W        W 2911  31.414  35.912  10.682
30652W        W 2912   2.921  15.196   1.784
30653W        W 2913  19.558   3.528   4.629
30654W        W 2914   0.285  41.505   0.101
30655W        W 2915  38.570  19.852  11.500
30656W        W 2916  21.066   1.048   4.563
30657W        W 2917  28.114  24.582  13.748
30658W        W 2918  28.614  15.735  12.888
30659W        W 2919  20.099  41.477  14.941
30660W        W 2920  34.418  10.205   2.393
30661W        W 2921  13.323  21.616  13.203
30662W        W 2922  11.574  16.039   4.531
30663W        W 2923   9.977  11.194  11.161
30664W        W 2924   0.709  37.247  12.564
30665W        W 2925  38.341  30.034  11.540
30666W        W 2926  30.179  37.024   1.813
30667W        W 2927  10.899  34.887   0.527
30668W        W 2928  20.853  26.109  14.396
30669W        W 2929  18.223   7.087   4.293
30670W        W 2930   4.961  36.536  10.878
30671W        W 2931  11.310   5.819  11.558
30672W        W 2932  15.630   5.701   0.237
30673W        W 2933  16.581  14.188  14.904
30674W        W 2934   3.774   3.206   3.165
30675W        W 2935  34.593  25.629  13.491
30676W        W 2936  31.583  27.175  11.613
30677W        W 2937  28.745  14.256   3.316
30678W        W 2938   6.229  13.720  13.976
30679W        W 2939  13.034  16.555  12.912
30680W        W 2940  16.379  26.020  12.882
30681W        W 2941  38.103   2.258  12.698
30682W        W 2942  37.191  34.215   2.517
30683W        W 2943  21.611  24.808   4.289
30684W        W 2944  28.081  30.065  13.345
30685W        W 2945  24.084  12.447   2.742
30686W        W 2946  30.705  41.058   2.383
30687W        W 2947  18.316   2.459  12.347
30688W        W 2948  14.239  38.982   4.562
30689W        W 2949  22.126  35.528  14.355
30690W        W 2950  41.496  39.649  10.724
30691W        W 2951  35.607  25.352   2.105
30692W        W 2952  31.241  39.255   4.133
30693W        W 2953  39.099  43.854   1.924
30694W        W 2954   6.650  10.784   0.847
30695W        W 2955  18.289  26.274   1.270
30696W        W 2956  31.909  25.201   2.772
30697W        W 2957  30.647  17.697  13.363
30698W        W 2958  24.241  28.033  11.420
30699W        W 2959  37.758  27.127  13.503
30700W        W 2960   8.434  31.883   2.422
30701W        W 2961  31.139  16.569  10.814
30702W        W 2962  38.094  17.549  13.480
30703W        W 2963  15.558  21.818  11.482
30704W        W 2964  13.203  32.931   3.782
30705W        W 2965   9.283   5.133  14.973
30706W        W 2966  18.696  10.149   1.726
30707W        W 2967  40.459  15.269  10.949
30708W        W 2968  42.259  31.468   3.226
30709W        W 2969  17.235  29.076   0.159
30710W        W 2970   5.845  24.533  13.125
30711W        W 2971  18.753   0.859  14.934
30712W        W 2972  35.986  24.675  13.548
30713W        W 2973  20.311   6.284   5.064
30714W        W 2974  30.599  17.646  14.650
30715W        W 2975  33.002  39.050  14.262
30716W        W 2976  31.123   1.920  13.095
30717W        W 2977  12.370  44.346  13.429
30718W        W 2978  44.831   7.500  10.651
30719W        W 2979   7.196   4.704  10.641
30720W        W 2980  44.312  37.568   3.682
30721W        W 2981  35.213   0.087  10.682
30722W        W 2982  33.402  24.491   1.460
30723W        W 2983   2.019  32.455  14.082
30724W        W 2984  26.559  15.427   0.889
30725W        W 2985  15.734  23.822  13.540
30726W        W 2986  21.182  23.510  14.922
30727W        W 2987   7.233  28.913  13.868
30728W        W 2988  16.130  15.417  11.756
30729W        W 2989   1.895  23.011   2.386
30730W        W 2990  36.378  35.088   3.213
30731W        W 2991  38.356   8.673  13.895
30732W        W 2992  12.862   0.333  14.338
30733W        W 2993  19.468   4.922  12.938
30734W        W 2994  40.543  18.812  11.551
30735W        W 2995  19.323   1.924   0.373
30736W        W 2996   6.877  34.514   2.884
30737W        W 2997   3.913  20.311  14.236
30738W        W 2998  14.148  33.986  11.616
30739W        W 2999  39.523  26.947   5.213
30740W        W 3000  28.217  19.343  11.890
30741W        W 3001   9.129   1.754   4.831
30742W        W 3002  29.614   7.982  11.106
30743W        W 3003  40.444  22.763  14.038
30744W        W 3004  23.591  35.445   2.119
30745W        W 3005  18.856  40.871  12.073
30746W        W 3006  15.532   8.418  11.348
30747W        W 3007   0.253  18.208  14.425
30748W        W 3008  30.673   8.125  14.053
30749W        W 3009  10.178  27.723   0.301
30750W        W 3010  14.803   2.268   2.384
30751W        W 3011   1.369  44.078   2.308
30752W        W 3012  17.179  16.501  10.296
30753W        W 3013  22.740   5.723   2.642
30754W        W 3014  13.283  29.433   2.414
30755W        W 3015   2.142  41.894  14.979
30756W        W 3016  32.021  34.754  10.568
30757W        W 3017  12.106  11.772  14.746
30758W        W 3018  38.061  44.720   4.322
30759W        W 3019  17.687  29.195  11.207
30760W        W 3020  19.797  28.648   2.801
30761W        W 3021   7.248  28.578  11.827
30762W        W 3022  17.050  19.353  11.616
30763W        W 3023  41.813  15.041  11.192
30764W        W 3024  10.744  20.517   2.537
30765W        W 3025  37.961  30.633   2.814
30766W        W 3026  33.358  17.063   0.624
30767W        W 3027   0.405  36.531   3.268
30768W        W 3028  37.719  11.130  13.850
30769W        W 3029  38.827  28.594  12.885
30770W        W 3030  32.129  14.614  14.981
30771W        W 3031  43.809   2.268  14.477
30772W        W 3032   6.160  41.064  13.814
30773W        W 3033   5.222   3.426  13.429
30774W        W 3034  25.497  32.064   4.110
30775W        W 3035   5.786   7.100  12.080
30776W        W 3036  18.663  42.511   2.434
30777W        W 3037  28.244  24.581  10.195
30778W        W 3038  12.445  21.185  10.460
30779W        W 3039  32.987   9.845  13.418
30780W        W 3040  11.108  17.382  14.921
30781W        W 3041  28.731  12.115  14.355
30782W        W 3042   0.027  29.029  12.967
30783W        W 3043  30.779  36.058   4.554
30784W        W 3044  20.476   1.236   4.529
30785W        W 3045   1.327  40.538  13.007
30786W        W 3046   9.334   4.363   3.632
30787W        W 3047   6.947  27.541   1.136
30788W        W 3048   4.634  15.324  10.152
30789W        W 3049  41.888   2.799   0.094
30790W        W 3050  29.627  27.645  11.261
30791W        W 3051  24.957  38.844   4.093
30792W        W 3052  23.500  18.668   2.499
30793W        W 3053   1.947  31.344  14.331
30794W        W 3054  38.094  37.377  11.084
30795W        W 3055  14.153  26.900  11.356
30796W        W 3056  33.956   2.232  10.671
30797W        W 3057  18.576  34.054   0.256
30798W        W 3058  44.340  38.363   2.612
30799W        W 3059  33.814  12.283   3.967
30800W        W 3060  10.210  33.872   2.308
30801W        W 3061  18.428  20.892  13.535
30802W        W 3062   9.840  42.800  10.397
30803W        W 3063  42.759   0.990  11.920
30804W        W 3064  25.615  11.087  12.024
30805W        W 3065  22.062  35.826   2.313
30806W        W 3066  23.207  31.207  13.063
30807W        W 3067  32.898   2.749   1.735
30808W        W 3068  24.404  40.486   5.406
30809W        W 3069  21.492  26.311   4.156
30810W        W 3070   9.190  29.516  14.277
30811W        W 3071  29.417  17.589  13.125
30812W        W 3072   6.467  11.141  12.617
30813W        W 3073  33.646  23.036   3.643
30814W        W 3074  41.054  40.965   4.712
30815W        W 3075   6.869  13.497  12.901
30816W        W 3076  10.886  13.818   2.415
30817W        W 3077   3.346  14.159  12.560
30818W        W 3078  39.211  10.230  14.507
30819W        W 3079  39.816  43.828   2.833
30820W        W 3080  27.061  13.244   4.884
30821W        W 3081  31.705  32.538  14.080
30822W        W 3082   8.871   2.171   4.650
30823W        W 3083  42.931  29.817   2.370
30824W        W 3084  27.703  41.770   5.077
30825W        W 3085  27.024  15.319  14.964
30826W        W 3086   6.136  27.490  14.011
30827W        W 3087  25.631  17.620  13.382
30828W        W 3088  11.285  24.227   3.278
30829W        W 3089  12.542   6.255  11.010
30830W        W 3090   2.257   8.463   4.622
30831W        W 3091  33.626  31.211   1.694
30832W        W 3092   6.134  27.614   1.774
30833W        W 3093   7.947   2.185   2.362
30834W        W 3094  21.000  41.315  13.495
30835W        W 3095  34.994  36.685   0.824
30836W        W 3096  29.033  22.552   0.563
30837W        W 3097   7.750  18.838  13.191
30838W        W 3098  37.548  10.655   3.860
30839W        W 3099  42.534   5.864  14.023
30840W        W 3100  27.084  17.824  13.486
30841W        W 3101  39.340  35.174  12.634
30842W        W 3102   4.882  43.294   3.785
30843W        W 3103   3.012  15.229   3.467
30844W        W 3104  33.127  27.942   2.223
30845W        W 3105   0.316  44.583   4.675
30846W        W 3106   0.941   2.833  11.043
30847W        W 3107  30.729  40.573   0.330
30848W        W 3108   8.592  44.311  12.494
30849W        W 3109  37.964   2.402  14.035
30850W        W 3110  41.377  29.448   3.237
30851W        W 3111  35.167  15.785   4.798
30852W        W 3112   1.818  34.394   4.551
30853W        W 3113   8.770  32.143  10.663
30854W        W 3114  12.842  41.850  13.966
30855W        W 3115  44.535   9.471  14.895
30856W        W 3116  29.807  34.990  12.978
30857W        W 3117  11.822  33.407  13.934
30858W        W 3118  39.610   8.146  12.798
30859W        W 3119   4.680  35.258   0.708
30860W        W 3120  17.669   6.784   3.847
30861W        W 3121  28.912  40.733   2.272
30862W        W 3122  36.615  36.944   2.864
30863W        W 3123   0.846  28.497   3.659
30864W        W 3124  23.508  10.239   3.182
30865W        W 3125   4.581  20.139   5.128
30866W        W 3126  26.613  42.118  11.126
30867W        W 3127  38.645   2.148   1.759
30868W        W 3128  23.988  24.675  10.679
30869W        W 3129  27.713   7.320  12.039
30870W        W 3130   1.977  31.365  11.459
30871W        W 3131  13.179  42.902  11.162
30872W        W 3132  21.282   3.435  13.454
30873W        W 3133  42.220  27.500  14.004
30874W        W 3134  27.519  33.351  11.040
30875W        W 3135  10.918  38.106   1.422
30876W        W 3136  40.460  17.247   4.248
30877W        W 3137  13.391  12.799   2.197
30878W        W 3138   9.318  21.146   3.764
30879W        W 3139  29.078  33.355  13.257
30880W        W 3140  28.520  29.499  10.330
30881W        W 3141  16.192  17.141  10.569
30882W        W 3142  17.846  30.936  10.633
30883W        W 3143  15.552  21.057   4.054
30884W        W 3144   8.720  38.304  12.064
30885W        W 3145  23.749  32.710  14.628
30886W        W 3146  21.178  42.237   5.087
30887W        W 3147   6.210   6.809   3.523
30888W        W 3148  13.493  18.086   5.054
30889W        W 3149  27.676  14.828  13.621
30890W        W 3150  15.709  27.291  10.061
30891W        W 3151   5.691  24.230   1.779
30892W        W 3152  35.859   1.386  12.604
30893W        W 3153   5.818  21.774   3.557
30894W        W 3154   2.919  18.129   3.253
30895W        W 3155  24.487  41.938   3.709
30896W        W 3156  20.441   2.479   0.830
30897W        W 3157   3.456  29.910  13.947
30898W        W 3158  24.371  23.464  11.624
30899W        W 3159  43.476  19.252  12.252
30900W        W 3160  41.355  16.122   1.763
30901W        W 3161  17.463  18.207  14.860
30902W        W 3162  26.964  24.197  14.054
30903W        W 3163  29.443  25.215  12.436
30904W        W 3164   6.870  40.388   2.785
30905W        W 3165  21.727  16.631   9.868
30906W        W 3166   0.884  25.764  13.564
30907W        W 3167  14.487   6.409   3.688
30908W        W 3168  17.755  17.324  13.327
30909W        W 3169  21.805  22.249   2.540
30910W        W 3170  22.220   6.169   3.270
30911W        W 3171  11.438  20.145   2.720
30912W        W 3172  23.469   5.099  12.488
30913W        W 3173  21.585   2.375   2.674
30914W        W 3174  11.598  31.943   0.268
30915W        W 3175  12.840  14.837  14.570
30916W        W 3176  17.145   2.225   1.299
30917W        W 3177  11.632  22.498  13.316
30918W        W 3178  36.220  30.479  14.950
30919W        W 3179   1.097  33.610   2.014
30920W        W 3180   3.680  15.249   4.086
30921W        W 3181  32.529  12.364  14.051
30922W        W 3182  11.621  36.566  11.634
30923W        W 3183  10.736  39.830   0.240
30924W        W 3184   8.781  34.446  11.547
30925W        W 3185  30.790  17.872  10.367
30926W        W 3186   3.846  36.129  14.267
30927W        W 3187  41.431  40.057  11.421
30928W        W 3188   0.242   6.019  10.394
30929W        W 3189   1.386   2.353  12.240
30930W        W 3190   0.919  19.614   4.533
30931W        W 3191  14.753  15.024  14.363
30932W        W 3192  12.298  21.536   3.634
30933W        W 3193  24.877  18.265   3.325
30934W        W 3194   5.494  36.128   4.184
30935W        W 3195   9.194  41.961   4.912
30936W        W 3196   7.686  41.898   0.803
30937W        W 3197  29.559  31.829   5.433
30938W        W 3198   8.786  21.561   4.355
30939W        W 3199   2.324  28.574   0.542
30940W        W 3200  42.375  43.374   3.682
30941W        W 3201  32.460  27.982  14.411
30942W        W 3202   8.853  13.788  12.028
30943W        W 3203   8.279  11.088   2.710
30944W        W 3204  23.154  43.734   4.251
30945W        W 3205   8.294   6.634   3.214
30946W        W 3206  22.788  18.746   9.853
30947W        W 3207   6.703  10.307   2.332
30948W        W 3208  25.486  43.068   3.783
30949W        W 3209  44.270   0.887  10.066
30950W        W 3210   5.824  29.535   2.589
30951W        W 3211   8.261  32.420   4.150
30952W        W 3212   1.597  41.880  14.975
30953W        W 3213  35.575   3.737   2.334
30954W        W 3214  19.980   1.430  11.365
30955W        W 3215  39.421  21.456   0.449
30956W        W 3216  13.925  33.404   1.237
30957W        W 3217  25.659  39.727   5.291
30958W        W 3218  21.879  20.155   0.992
30959W        W 3219  20.761  31.439   4.553
30960W        W 3220  44.086  32.159   0.422
30961W        W 3221  33.695  37.030   4.161
30962W        W 3222  36.435   0.520   2.348
30963W        W 3223  34.382  23.354  14.078
30964W        W 3224  16.652   8.707  12.190
30965W        W 3225   0.275  10.245  12.338
30966W        W 3226   9.489   2.997  10.505
30967W        W 3227  33.676  17.699   3.734
30968W        W 3228  33.666  42.954   4.294
30969W        W 3229  29.678   1.349  13.505
30970W        W 3230  34.157  32.474   1.265
30971W        W 3231  19.595  43.370  14.541
30972W        W 3232  37.166  35.565  11.019
30973W        W 3233  37.530  12.587   2.656
30974W        W 3234   2.404  38.342  13.735
30975W        W 3235  16.044  32.075  12.499
30976W        W 3236  35.408  18.195  10.650
30977W        W 3237  44.885  18.321  12.121
30978W        W 3238  30.566  31.932  12.898
30979W        W 3239  15.798  12.279  10.752
30980W        W 3240  21.399   5.663   3.687
30981W        W 3241  35.504   7.598  14.903
30982W        W 3242  12.846  21.565   2.049
30983W        W 3243  42.006  30.323   1.664
30984W        W 3244  30.660  26.544   2.691
30985W        W 3245  32.398   7.941  14.294
30986W        W 3246  31.258  21.687   4.821
30987W        W 3247  34.448  18.891   4.634
30988W        W 3248  39.807   9.628  14.469
30989W        W 3249  40.339  30.404   0.399
30990W        W 3250  27.003  40.835  14.992
30991W        W 3251   7.973  18.119   2.856
30992W        W 3252  30.553   1.747  14.759
30993W        W 3253  29.730  40.778  14.375
30994W        W 3254  39.046  40.224  10.273
30995W        W 3255  32.995  39.526  14.548
30996W        W 3256  38.924   7.521   3.278
30997W        W 3257  24.015  42.510  12.436
30998W        W 3258  44.696   4.341  11.530
30999W        W 3259  40.826  35.318   1.872
31000W        W 3260  29.076  27.952  13.755
31001W        W 3261  15.148  24.434   0.928
31002W        W 3262   7.475  26.646  12.712
31003W        W 3263  18.582  32.045  14.262
31004W        W 3264  42.569  17.320   0.402
31005W        W 3265  40.000  19.662   3.367
31006W        W 3266  25.473  23.692  12.695
31007W        W 3267  35.138  39.846   3.635
31008W        W 3268  43.897  16.122   2.040
31009W        W 3269  16.507  15.903  10.205
31010W        W 3270  36.847  14.880   2.572
31011W        W 3271  15.612  39.605  12.877
31012W        W 3272   4.721  40.067  14.802
31013W        W 3273   1.672  33.440   0.420
31014W        W 3274  23.201  42.491   0.488
31015W        W 3275  27.285  27.559   0.340
31016W        W 3276  34.133  19.353   0.342
31017W        W 3277   2.427  12.065  10.691
31018W        W 3278  31.457  37.074  13.039
31019W        W 3279  34.753  37.443  12.421
31020W        W 3280  32.408  25.744  11.210
31021W        W 3281  39.552  11.191  12.419
31022W        W 3282  24.762  32.239   2.194
31023W        W 3283  42.520   3.728   2.720
31024W        W 3284  28.943  11.120   0.408
31025W        W 3285  29.048  32.818   4.703
31026W        W 3286   7.657  25.039  14.768
31027W        W 3287  35.990  32.376   1.033
31028W        W 3288  36.348  12.134   2.713
31029W        W 3289   6.100  17.674  13.981
31030W        W 3290  22.052  36.696   4.118
31031W        W 3291  15.287  31.056  12.365
31032W        W 3292  38.439  10.607   3.712
31033W        W 3293  42.017  10.154   1.348
31034W        W 3294  36.720  39.474  13.000
31035W        W 3295  24.693  34.399  14.486
31036W        W 3296  32.624  42.804   5.041
31037W        W 3297  24.054  20.228   2.735
31038W        W 3298  23.009  31.151  14.385
31039W        W 3299  14.846  44.571  11.700
31040W        W 3300  42.103  13.073  13.480
31041W        W 3301  27.123  20.791  14.770
31042W        W 3302  28.723  10.381   4.820
31043W        W 3303  36.667  37.454   4.664
31044W        W 3304   9.833  17.103   0.236
31045W        W 3305  41.594  22.720  11.115
31046W        W 3306  24.142  22.465   0.039
31047W        W 3307   9.362  39.848   1.049
31048W        W 3308   6.139   4.852  11.486
31049W        W 3309   5.205   0.414   3.553
31050W        W 3310  13.075  10.784   1.350
31051W        W 3311  25.699  38.890  12.317
31052W        W 3312  19.613  35.858  13.550
31053W        W 3313   2.352  33.648   3.738
31054W        W 3314   3.964  23.137  10.673
31055W        W 3315  37.936  31.140   2.857
31056W        W 3316  20.124   5.721   4.140
31057W        W 3317  39.619  14.229   0.442
31058W        W 3318   5.347   2.971  12.451
31059W        W 3319  20.135  39.800   3.094
31060W        W 3320  40.490  15.101  11.422
31061W        W 3321  10.626  29.656  14.257
31062W        W 3322  21.647  18.585  11.172
31063W        W 3323  12.824   8.969   4.230
31064W        W 3324  29.875  24.940   1.878
31065W        W 3325  42.400  32.467  11.592
31066W        W 3326  30.495  20.626   3.614
31067W        W 3327  12.325  33.830  14.492
31068W        W 3328  15.765  10.011   2.212
31069W        W 3329  27.421  44.039   3.339
31070W        W 3330   7.416  18.171  11.566
31071W        W 3331  23.765   3.730  12.944
31072W        W 3332  44.289  12.734  11.865
31073W        W 3333  29.072  40.899   4.257
31074W        W 3334  41.461  34.070  14.470
31075W        W 3335  22.516  13.218  14.521
31076W        W 3336  13.191  14.792   4.317
31077W        W 3337  23.792   6.200   4.908
31078W        W 3338  21.872  16.402   4.086
31079W        W 3339  43.638  15.431   3.622
31080W        W 3340  27.050  19.622   4.928
31081W        W 3341  21.550   0.245   0.359
31082W        W 3342   1.917  11.306   1.884
31083W        W 3343  36.828   8.883   3.144
31084W        W 3344  29.832  42.480  11.114
31085W        W 3345  30.984  17.946   4.066
31086W        W 3346  37.036  44.244  10.747
31087W        W 3347   0.010  14.107  13.891
31088W        W 3348  17.911   9.344   4.677
31089W        W 3349  44.328   2.360  10.917
31090W        W 3350  13.631  33.223   3.899
31091W        W 3351   4.005  10.889  13.539
31092W        W 3352   6.208  36.077  13.963
31093W        W 3353  34.301  17.125   4.555
31094W        W 3354  13.664  17.426   0.342
31095W        W 3355  19.173  35.305  10.701
31096W        W 3356   1.979   9.136  13.362
31097W        W 3357  44.769  36.830  12.746
31098W        W 3358  14.380  15.535  12.944
31099W        W 3359  31.872  34.416   0.290
31100W        W 3360  20.486  29.585   1.943
31101W        W 3361  15.068   3.325   4.120
31102W        W 3362  29.556   1.356   3.332
31103W        W 3363   2.885   5.837  12.840
31104W        W 3364  16.327  30.360  12.018
31105W        W 3365   4.774   6.771   3.697
31106W        W 3366  11.192  38.509   2.141
31107W        W 3367  20.555  33.883   3.132
31108W        W 3368  24.609  37.470   4.153
31109W        W 3369  20.999  12.162   0.385
31110W        W 3370  16.643   5.491  14.402
31111W        W 3371  21.995  33.243   1.305
31112W        W 3372   5.036  15.153  13.118
31113W        W 3373  42.407  24.240   0.499
31114W        W 3374  33.250  27.937  14.788
31115W        W 3375  32.101  13.760  13.447
31116W        W 3376  26.418  25.504   3.915
31117W        W 3377  26.086  24.752  12.927
31118W        W 3378  30.318   2.805  14.139
31119W        W 3379   6.593  32.960  10.801
31120W        W 3380   3.582  22.200  10.668
31121W        W 3381  16.697  43.053   3.266
31122W        W 3382  35.541  13.324  10.649
31123W        W 3383  14.653   8.076  10.785
31124W        W 3384  13.853  17.899   5.421
31125W        W 3385   2.452   0.430   9.870
31126W        W 3386  11.041   0.579  11.115
31127W        W 3387  14.149   5.244   4.824
31128W        W 3388  18.330  37.892   0.907
31129W        W 3389  30.010   5.425  11.646
31130W        W 3390   1.698  17.094   4.194
31131W        W 3391  39.538  29.108   1.876
31132W        W 3392  20.097  33.844   1.465
31133W        W 3393  21.551  25.435  11.513
31134W        W 3394  29.963   2.996  11.921
31135W        W 3395  19.500  10.455   3.210
31136W        W 3396  37.071  20.985  12.932
31137W        W 3397  38.473  31.428   3.786
31138W        W 3398   9.183   8.704  10.660
31139W        W 3399  30.237   3.855   2.866
31140W        W 3400   4.503  40.564   2.438
31141W        W 3401  39.026   8.371   2.334
31142W        W 3402  32.179  17.649   4.653
31143W        W 3403  25.765  17.418  11.250
31144W        W 3404   2.956  16.803  14.912
31145W        W 3405  36.299   7.462  12.344
31146W        W 3406  33.267   7.908  11.241
31147W        W 3407  42.944  39.477   1.344
31148W        W 3408  35.696  27.909   1.704
31149W        W 3409  36.509  20.887   3.075
31150W        W 3410  19.812  25.453   0.885
31151W        W 3411  10.935  32.349   0.996
31152W        W 3412  11.872  43.863   3.812
31153W        W 3413  22.908   7.970   3.695
31154W        W 3414   3.311   1.479  13.868
31155W        W 3415  36.063  36.581   3.256
31156W        W 3416  40.426  17.611  12.480
31157W        W 3417  17.038  30.930   0.875
31158W        W 3418   8.870  26.597   1.382
31159W        W 3419  42.513   6.177  11.462
31160W        W 3420   7.929  31.613  14.928
31161W        W 3421   9.030  26.267   2.685
31162W        W 3422  17.788  42.240   2.359
31163W        W 3423  36.414  36.514  10.654
31164W        W 3424  14.736  23.624   4.643
31165W        W 3425   5.244  37.012  13.490
31166W        W 3426  43.058  38.932   0.407
31167W        W 3427  25.166  30.448   3.213
31168W        W 3428  34.047   1.653  10.896
31169W        W 3429  10.696  26.942   0.321
31170W        W 3430  12.753   7.915  10.693
31171W        W 3431  11.762  17.306  11.222
31172W        W 3432  37.628   2.423  10.785
31173W        W 3433  11.890  36.905  14.711
31174W        W 3434  31.177  22.307  13.903
31175W        W 3435   5.754   2.179  13.705
31176W        W 3436  44.347  25.607   2.816
31177W        W 3437   9.359  15.095   1.267
31178W        W 3438   3.508  36.485  10.260
31179W        W 3439  31.234  27.104   1.303
31180W        W 3440  30.453  31.800   5.040
31181W        W 3441  17.073  16.797  12.538
31182W        W 3442   4.477  31.160   0.930
31183W        W 3443   3.407  28.965   5.022
31184W        W 3444  13.716  28.102   9.778
31185W        W 3445  41.029  39.263   3.316
31186W        W 3446   8.743  23.158  14.325
31187W        W 3447  44.350  18.238   2.623
31188W        W 3448   2.842  39.512  10.742
31189W        W 3449  41.458  29.957   1.033
31190W        W 3450  30.237   9.593   3.169
31191W        W 3451  16.659   5.910   4.556
31192W        W 3452  35.152  20.122  10.552
31193W        W 3453  20.868  14.150  10.652
31194W        W 3454  38.353  40.585   3.557
31195W        W 3455   1.814   8.432   1.340
31196W        W 3456  29.028  15.482   1.334
31197W        W 3457  26.661  28.681   3.146
31198W        W 3458  41.874  43.254  13.169
31199W        W 3459  11.127   0.464  11.627
31200W        W 3460  11.764  42.849  12.949
31201W        W 3461   8.682  13.916  14.685
31202W        W 3462  30.236   5.265  12.092
31203W        W 3463  15.465  18.644   0.270
31204W        W 3464  42.999  21.746  12.244
31205W        W 3465  25.680  13.432   2.688
31206W        W 3466   9.421   9.747  12.175
31207W        W 3467  14.747  37.504   3.635
31208W        W 3468  23.591  16.134   1.184
31209W        W 3469  10.912  41.425   1.007
31210W        W 3470  32.603   3.300   0.747
31211W        W 3471  12.355  11.549  13.768
31212W        W 3472  36.833  15.147   4.175
31213W        W 3473  25.932  31.650  14.784
31214W        W 3474   7.701  21.971   2.407
31215W        W 3475  32.387  44.819   1.368
31216W        W 3476   8.623  33.139   0.119
31217W        W 3477  30.485  13.053  14.872
31218W        W 3478  38.419  18.575  14.361
31219W        W 3479   4.635  15.318  14.068
31220W        W 3480  44.584  28.256   4.147
31221W        W 3481  35.564   6.706  10.480
31222W        W 3482  37.905  32.866  12.393
31223W        W 3483  21.168  17.130  14.756
31224W        W 3484  33.075  42.272  13.945
31225W        W 3485  21.398  22.501   2.278
31226W        W 3486  25.933   8.271   4.514
31227W        W 3487   4.312  16.993  13.242
31228W        W 3488   2.150  22.849   3.851
31229W        W 3489  18.761  39.923   1.404
31230W        W 3490  42.028  11.351   3.721
31231W        W 3491  18.188   7.629  11.097
31232W        W 3492  37.908  41.064  12.469
31233W        W 3493  43.749  44.763  14.456
31234W        W 3494   7.485  22.247   2.034
31235W        W 3495  18.953  37.893   4.658
31236W        W 3496  26.466  32.014   0.417
31237W        W 3497   5.992  37.789  13.416
31238W        W 3498  28.171  28.690  14.785
31239W        W 3499  30.526  36.578  13.926
31240W        W 3500  27.937  43.408  12.639
31241W        W 3501  41.314   6.213   4.338
31242W        W 3502  32.525  18.730   3.793
31243W        W 3503  16.831  29.560  12.460
31244W        W 3504  27.701  19.211  10.596
31245W        W 3505  34.685  21.735   1.516
31246W        W 3506  17.187  15.592   0.503
31247W        W 3507  34.396  28.284  12.457
31248W        W 3508  32.913   5.014   4.047
31249W        W 3509  26.746  10.650  11.044
31250W        W 3510  18.182  34.212  12.568
31251W        W 3511  10.180  26.984  13.995
31252W        W 3512  15.639  14.384  12.531
31253W        W 3513  26.075  41.121   1.705
31254W        W 3514  27.663  36.149  14.431
31255W        W 3515   9.271  10.259  14.023
31256W        W 3516  30.596  43.173   2.719
31257W        W 3517  43.357  12.080   2.635
31258W        W 3518  32.648  39.734  12.516
31259W        W 3519   4.461  19.192   4.291
31260W        W 3520  17.225  34.534   3.868
31261W        W 3521   2.718  31.654  10.725
31262W        W 3522  41.672  12.309   2.897
31263W        W 3523  22.816  23.682  12.936
31264W        W 3524  37.452  30.864  11.258
31265W        W 3525  26.601  22.298  10.109
31266W        W 3526  44.420   3.417   4.962
31267W        W 3527  36.846  24.879   4.476
31268W        W 3528  39.041   6.412   1.603
31269W        W 3529  30.988  31.126   0.661
31270W        W 3530  37.945   6.817  13.471
31271W        W 3531  40.778   2.297  11.985
31272W        W 3532  23.283  35.927  11.125
31273W        W 3533   2.271  14.685  13.028
31274W        W 3534   9.866  10.782   1.765
31275W        W 3535  17.171  35.109  13.677
31276W        W 3536   3.030  36.458  10.940
31277W        W 3537  13.686   8.572   5.195
31278W        W 3538  23.745  13.240  13.502
31279W        W 3539  33.361   2.949  12.015
31280W        W 3540   8.893  27.276   2.855
31281W        W 3541  34.838  37.947  12.382
31282W        W 3542   0.361  40.277  14.857
31283W        W 3543  26.521  22.594   4.565
31284W        W 3544   5.536  13.882   1.953
31285W        W 3545  41.321  36.451   4.171
31286W        W 3546  32.564  19.584  12.336
31287W        W 3547  10.160   3.927  12.016
31288W        W 3548  28.595   9.063  11.115
31289W        W 3549   2.273  19.310   4.650
31290W        W 3550  40.974   6.202   3.700
31291W        W 3551  42.740  29.138  12.039
31292W        W 3552  32.435  32.024   4.856
31293W        W 3553  17.037  11.654  12.828
31294W        W 3554   4.730  35.724  14.504
31295W        W 3555  11.353  23.691  12.998
31296W        W 3556  41.949  18.187   0.742
31297W        W 3557  31.046   7.400   2.959
31298W        W 3558  36.739   6.834   2.936
31299W        W 3559  15.181  11.976   1.242
31300W        W 3560  17.301  16.054  11.584
31301W        W 3561  12.572  41.399  13.999
31302W        W 3562  21.123   5.002   1.883
31303W        W 3563  41.362  14.295  10.396
31304W        W 3564  36.584  31.069   0.690
31305W        W 3565   2.048  32.627   0.481
31306W        W 3566  43.198  39.030   3.562
31307W        W 3567  24.699  15.779   2.797
31308W        W 3568  32.575  20.220   2.254
31309W        W 3569  12.851  35.879  10.695
31310W        W 3570  11.573  24.013   1.401
31311W        W 3571  10.762  38.530   2.900
31312W        W 3572  41.882   8.437  14.229
31313W        W 3573   9.117  17.306   3.764
31314W        W 3574  40.280  14.281   1.290
31315W        W 3575  34.932  41.392  13.794
31316W        W 3576  34.541  11.446  12.924
31317W        W 3577  23.732  22.672   1.809
31318W        W 3578   3.992  36.600   1.468
31319W        W 3579   5.931  12.541   3.974
31320W        W 3580  31.549  42.570  14.323
31321W        W 3581  41.250  12.123   1.291
31322W        W 3582   3.923  24.155  12.070
31323W        W 3583  30.152  15.429   3.699
31324W        W 3584   7.096  28.450   5.384
31325W        W 3585  39.152  44.677  12.748
31326W        W 3586  14.808  32.496   1.732
31327W        W 3587  13.264   4.370   2.732
31328W        W 3588  14.366  27.968   5.490
31329W        W 3589  20.445  37.398   0.485
31330W        W 3590  31.454  15.380   3.226
31331W        W 3591  13.806  22.860  14.755
31332W        W 3592  17.250  17.504  13.330
31333W        W 3593   9.016  25.060  14.075
31334W        W 3594  38.981  30.967  14.979
31335W        W 3595   4.533   7.204  13.409
31336W        W 3596   2.024  42.486   2.902
31337W        W 3597  34.571  28.735   0.170
31338W        W 3598   7.210  11.121  13.092
31339W        W 3599   2.533  44.573  12.312
31340W        W 3600  20.009  12.440   0.395
31341W        W 3601  27.654  42.906  12.500
31342W        W 3602  36.963  44.108  13.018
31343W        W 3603  13.159  18.789   2.909
31344W        W 3604  13.571   2.905   4.251
31345W        W 3605  41.973  35.633   4.152
31346W        W 3606  29.523  33.277   9.730
31347W        W 3607  32.063  10.909   2.459
31348W        W 3608   6.869   1.852  13.916
31349W        W 3609  19.050  39.740  13.415
31350W        W 3610  20.204  33.059  11.026
31351W        W 3611  15.070  27.552   4.675
31352W        W 3612  44.551   3.924  12.978
31353W        W 3613  16.418  17.722   2.768
31354W        W 3614  24.193   7.735  10.684
31355W        W 3615  39.357   7.857   3.182
31356W        W 3616  27.107  32.166   0.848
31357W        W 3617  34.975  21.803   3.281
31358W        W 3618   3.402  25.656  12.108
31359W        W 3619  19.343   2.327  11.265
31360W        W 3620  32.695  28.251   0.628
31361W        W 3621  10.388  43.702  10.369
31362W        W 3622   1.731  29.924  13.887
31363W        W 3623  43.862  42.492  13.748
31364W        W 3624  15.314  28.112   1.502
31365W        W 3625  10.373  30.017  13.965
31366W        W 3626  39.199  14.248   5.137
31367W        W 3627  24.100  28.405   5.145
31368W        W 3628   4.673   8.007   3.421
31369W        W 3629   8.910  27.821  11.809
31370W        W 3630  18.955  38.837   2.480
31371W        W 3631  27.747   2.628   4.038
31372W        W 3632  42.760   7.563   3.623
31373W        W 3633  19.977  40.816   1.804
31374W        W 3634  11.816   9.904  14.246
31375W        W 3635  32.220  29.464  11.570
31376W        W 3636  37.486  37.601  14.402
31377W        W 3637  32.119   1.772  14.450
31378W        W 3638  41.984   8.711  13.407
31379W        W 3639   8.848  33.111  10.763
31380W        W 3640  12.627   4.048  14.318
31381W        W 3641  44.834  39.283   0.285
31382W        W 3642  41.461  30.221   2.446
31383W        W 3643   2.834  16.257   2.780
31384W        W 3644  10.980   5.144  14.294
31385W        W 3645  41.319   2.695   1.883
31386W        W 3646  11.818  31.682  11.341
31387W        W 3647  44.979  32.506  10.638
31388W        W 3648  22.372  33.643   1.207
31389W        W 3649  38.427  22.967   1.006
31390W        W 3650  29.005   5.783  10.539
31391W        W 3651  16.288  42.588  11.116
31392W        W 3652  13.736   4.383   4.013
31393W        W 3653  35.897  38.996  13.834
31394W        W 3654  44.505  30.401  12.377
31395W        W 3655  28.911  11.382  13.283
31396W        W 3656  38.931   3.755   2.814
31397W        W 3657   5.922  40.562  13.726
31398W        W 3658  13.697   6.922   0.863
31399W        W 3659  22.448  21.554  12.391
31400W        W 3660   3.320  20.819   1.602
31401W        W 3661   4.002   0.830   3.618
31402W        W 3662   2.610  40.474   0.405
31403W        W 3663  44.457  22.529  10.629
31404W        W 3664  28.841  38.431   4.145
31405W        W 3665   0.038  29.907  11.054
31406W        W 3666  39.020  29.487   2.430
31407W        W 3667  10.336  23.188  11.640
31408W        W 3668  27.193   9.744   3.852
31409W        W 3669  41.491  14.323  12.482
31410W        W 3670  38.584  40.871  13.531
31411W        W 3671  39.899  26.160  10.356
31412W        W 3672   5.332  23.903   0.036
31413W        W 3673  12.111  22.232   4.318
31414W        W 3674   0.782  42.502  14.714
31415W        W 3675  10.432   1.800  14.487
31416W        W 3676  29.133   4.265   3.141
31417W        W 3677  33.393  11.377   0.462
31418W        W 3678  44.727  39.995   3.224
31419W        W 3679  27.587  33.375   4.239
31420W        W 3680   2.375  19.814   4.629
31421W        W 3681  16.581  37.477   0.549
31422W        W 3682   9.746  41.465   3.272
31423W        W 3683  28.417   0.411   3.022
31424W        W 3684  19.312  20.247  14.598
31425W        W 3685  35.998  42.897  12.977
31426W        W 3686  39.545  21.828   2.359
31427W        W 3687  30.319   8.293  13.514
31428W        W 3688  17.904  40.946  10.621
31429W        W 3689  22.459  21.633  11.892
31430W        W 3690  39.573  35.981   2.760
31431W        W 3691  42.228  31.483  12.157
31432W        W 3692  42.411  40.418  11.057
31433W        W 3693  28.670  44.827   4.497
31434W        W 3694  32.910   5.742  14.158
31435W        W 3695  42.306   6.681   0.930
31436W        W 3696  30.994  22.763  12.403
31437W        W 3697  34.053  23.090   4.611
31438W        W 3698  20.169  35.852   2.660
31439W        W 3699  17.206  26.861   0.510
31440W        W 3700  28.750  31.967  12.461
31441W        W 3701  43.475  36.417   4.801
31442W        W 3702  31.285  33.667   0.589
31443W        W 3703  31.456  36.640   4.573
31444W        W 3704  12.169  38.996   4.584
31445W        W 3705  17.144   6.791   3.559
31446W        W 3706  30.266  38.079  14.708
31447W        W 3707  28.412  34.118  14.493
31448W        W 3708  37.809  21.740  13.466
31449W        W 3709  34.497   3.185  14.477
31450W        W 3710  19.280  32.599  11.280
31451W        W 3711  41.406  16.059   2.808
31452W        W 3712  14.027  41.740   1.437
31453W        W 3713   5.718  38.324  11.822
31454W        W 3714  34.066  16.157   1.263
31455W        W 3715  38.667   0.420  11.683
31456W        W 3716  26.043  39.909  10.677
31457W        W 3717  38.029  19.072   3.146
31458W        W 3718  40.355  14.768   0.440
31459W        W 3719  25.079  38.506   0.752
31460W        W 3720  42.528  34.230   0.812
31461W        W 3721  22.650  18.153   0.244
31462W        W 3722  24.235  17.168   3.214
31463W        W 3723  20.910  14.947   4.097
31464W        W 3724  43.421  23.985   3.160
31465W        W 3725   5.899  12.073   4.207
31466W        W 3726  14.342   4.895   3.324
31467W        W 3727   7.229  40.161  11.076
31468W        W 3728   6.169  28.546   1.332
31469W        W 3729   8.168  13.158  14.837
31470W        W 3730  14.655  33.417  11.226
31471W        W 3731  26.050  39.130   3.291
31472W        W 3732   3.952  13.860  13.109
31473W        W 3733  24.844   4.922   5.213
31474W        W 3734  43.317  32.117  12.925
31475W        W 3735   8.729  10.707   3.604
31476W        W 3736  20.324  31.204  11.470
31477W        W 3737   1.239  22.678  12.435
31478W        W 3738  20.781  13.171   3.615
31479W        W 3739   7.127  24.737  14.004
31480W        W 3740  16.510  43.382   1.478
31481W        W 3741  26.119   0.308  14.971
31482W        W 3742  16.035  37.912  13.451
31483W        W 3743  23.837   0.103  13.515
31484W        W 3744  25.699  14.352   0.827
31485W        W 3745  17.022  24.523  13.809
31486W        W 3746  23.531  21.324   2.733
31487W        W 3747  28.448  33.007  11.325
31488W        W 3748  10.248  30.124   1.617
31489W        W 3749   6.235  27.516  14.519
31490W        W 3750  38.467  33.530  10.959
31491W        W 3751  14.889  42.367  12.118
31492W        W 3752  40.337  31.606  13.918
31493W        W 3753  26.011  38.783   1.321
31494W        W 3754  26.275  22.350  11.092
31495W        W 3755  16.281  38.965  13.069
31496W        W 3756  43.429  43.993   1.425
31497W        W 3757  40.385  22.519  10.565
31498W        W 3758  19.909  29.111   0.300
31499W        W 3759  40.744  24.877   3.586
31500W        W 3760   4.755  31.397  12.812
31501W        W 3761   4.295  43.030   1.658
31502W        W 3762  12.296  34.397  13.899
31503W        W 3763  35.966  14.700  14.759
31504W        W 3764   7.229  32.085   4.173
31505W        W 3765  41.088  20.011   0.046
31506W        W 3766  31.630  18.583   4.308
31507W        W 3767  11.965  13.617  14.232
31508W        W 3768  17.035  37.049  13.087
31509W        W 3769   1.724  27.168   0.949
31510W        W 3770  28.121  25.118   1.160
31511W        W 3771  11.762  31.050   3.343
31512W        W 3772  28.395   5.371   3.755
31513W        W 3773  37.669   2.441   1.869
31514W        W 3774  11.253   3.184  11.620
31515W        W 3775   1.021  21.274   4.483
31516W        W 3776  29.408   2.899   0.483
31517W        W 3777   2.670  10.179   1.533
31518W        W 3778  33.486   6.292   2.781
31519W        W 3779  11.287   0.018  11.924
31520W        W 3780  24.635   5.766   4.341
31521W        W 3781  18.183  11.958  13.923
31522W        W 3782  34.009  23.992  14.492
31523W        W 3783   7.414   5.765  12.886
31524W        W 3784   9.238  14.919   2.374
31525W        W 3785   8.074  12.948  11.148
31526W        W 3786  38.349   9.801   1.462
31527W        W 3787  14.248   3.159  13.839
31528W        W 3788  14.280   1.075   2.804
31529W        W 3789   2.326  32.328   0.868
31530W        W 3790  27.220  30.201  14.731
31531W        W 3791  25.427  20.813  14.818
31532W        W 3792  32.360   2.139  12.146
31533W        W 3793  31.323  12.637  13.638
31534W        W 3794  10.727  44.993  14.210
31535W        W 3795  21.020   0.017  11.544
31536W        W 3796  21.003  44.985   0.952
31537W        W 3797  29.501  19.464  14.021
31538W        W 3798  33.127  40.478   2.188
31539W        W 3799  10.854  31.875   0.795
31540W        W 3800  25.182   0.473   3.086
31541W        W 3801  16.869  31.463   0.577
31542W        W 3802  15.017  38.373   4.910
31543W        W 3803  35.333  35.903  13.875
31544W        W 3804  23.335  16.767  14.370
31545W        W 3805   7.328  43.413  10.308
31546W        W 3806  14.393  34.038  10.616
31547W        W 3807  18.560   0.743   3.389
31548W        W 3808  25.875   8.181  12.939
31549W        W 3809  18.020   7.243   0.856
31550W        W 3810  13.439   4.401  11.554
31551W        W 3811  44.618  22.126   1.400
31552W        W 3812  39.008  40.506  13.850
31553W        W 3813  20.109  24.210  13.385
31554W        W 3814   9.239  39.023   3.607
31555W        W 3815  37.216  15.093   1.011
31556W        W 3816  40.958  17.600  12.455
31557W        W 3817   2.215  43.303   2.316
31558W        W 3818  42.975  28.056   1.021
31559W        W 3819  10.622  24.414  13.715
31560W        W 3820  16.255  22.139   4.449
31561W        W 3821   5.513   2.276   2.751
31562W        W 3822  13.153  31.128   0.938
31563W        W 3823  12.698  21.550   0.556
31564W        W 3824  35.562   0.099   4.482
31565W        W 3825   2.248   5.448   2.410
31566W        W 3826  23.550  35.387   0.364
31567W        W 3827   0.781  30.364  14.877
31568W        W 3828  13.062  40.990   0.173
31569W        W 3829  25.459  19.848  14.271
31570W        W 3830  11.538  11.627   4.567
31571W        W 3831  20.327  10.460   5.270
31572W        W 3832  42.685   7.390  13.116
31573W        W 3833  30.678  26.515   4.712
31574W        W 3834  35.095  11.422  13.963
31575W        W 3835  30.478   3.415   3.223
31576W        W 3836  12.150   6.188   4.187
31577W        W 3837  38.786   3.072   4.268
31578W        W 3838  12.075   6.276  11.239
31579W        W 3839  13.804  44.004  12.619
31580W        W 3840  36.151  36.502   0.290
31581W        W 3841  14.698  26.233  11.983
31582W        W 3842   8.007  13.423  11.508
31583W        W 3843   8.615  42.457   2.262
31584W        W 3844  38.125  10.338   0.880
31585W        W 3845  14.179  42.844  12.135
31586W        W 3846   9.811  24.994   2.322
31587W        W 3847  38.924  19.886   3.839
31588W        W 3848  37.254  29.086   2.124
31589W        W 3849  32.357   7.843   3.035
31590W        W 3850   3.256  10.666  13.866
31591W        W 3851   4.189  22.175  11.574
31592W        W 3852   1.087  41.931  14.990
31593W        W 3853  33.356  41.457  10.834
31594W        W 3854  24.534  11.347   1.460
31595W        W 3855  37.305  44.436   0.849
31596W        W 3856  40.989  25.588  14.255
31597W        W 3857  37.330  44.479  11.520
31598W        W 3858  19.093  29.932   2.696
31599W        W 3859  31.459  25.270  13.576
31600W        W 3860   4.600  36.712   4.504
31601W        W 3861  12.380  37.758   3.111
31602W        W 3862  25.601  34.971   3.956
31603W        W 3863  31.888  36.359  12.800
31604W        W 3864   4.279  27.420   4.478
31605W        W 3865   2.958  34.949  11.658
31606W        W 3866  33.079  41.721   4.255
31607W        W 3867   0.027  39.360  13.833
31608W        W 3868  44.655  15.508   2.497
31609W        W 3869  28.419  44.720  12.448
31610W        W 3870  26.599   5.359  10.539
31611W        W 3871  43.849  26.103  14.948
31612W        W 3872  25.462  29.489   0.028
31613W        W 3873  38.447  13.109   0.884
31614W        W 3874   2.387  11.675   2.341
31615W        W 3875  43.717  39.477  11.231
31616W        W 3876  32.130  18.946   4.966
31617W        W 3877  24.238   8.250  13.465
31618W        W 3878  37.303  15.054   0.015
31619W        W 3879  17.515  14.824  11.936
31620W        W 3880  42.848  15.182  10.376
31621W        W 3881  43.853   4.435  10.349
31622W        W 3882   0.144   9.544   3.289
31623W        W 3883  44.684  44.286  13.846
31624W        W 3884  27.672  44.789   3.693
31625W        W 3885  23.688  32.587  10.925
31626W        W 3886  23.089   6.323   2.775
31627W        W 3887  28.340  33.971   1.244
31628W        W 3888  12.738  44.568  11.082
31629W        W 3889   0.379  37.943  10.907
31630W        W 3890  20.374  21.617  14.209
31631W        W 3891  26.984  15.587   3.819
31632W        W 3892  32.162  16.570  10.681
31633W        W 3893  21.902  30.041  11.146
31634W        W 3894  16.163  12.554   0.741
31635W        W 3895  21.760   3.175   1.869
31636W        W 3896  11.635  19.195  12.865
31637W        W 3897  19.128  11.610  12.942
31638W        W 3898  23.743  38.408  12.882
31639W        W 3899  34.526  24.093  11.105
31640W        W 3900  16.084   4.788  14.006
31641W        W 3901   3.104  10.332  10.344
31642W        W 3902  26.020   4.303   3.307
31643W        W 3903  37.820  44.430  11.311
31644W        W 3904  15.118  27.906  13.982
31645W        W 3905  22.622   7.468  13.230
31646W        W 3906  12.751  23.963  11.022
31647W        W 3907  25.231  19.682  10.682
31648W        W 3908  22.550  10.247  12.430
31649W        W 3909  15.284  38.045   4.561
31650W        W 3910  11.231  35.260   3.438
31651W        W 3911  42.976   8.572  12.533
31652W        W 3912   6.936  21.641   4.404
31653W        W 3913  25.192  16.730  14.542
31654W        W 3914  31.502  38.976   2.787
31655W        W 3915  20.050  38.782  12.944
31656W        W 3916  19.159   4.988  14.880
31657W        W 3917  40.304  35.821   1.453
31658W        W 3918  11.189  27.662   1.421
31659W        W 3919   2.844  43.819  12.494
31660W        W 3920  21.420  19.056   4.512
31661W        W 3921  20.836  38.497  13.005
31662W        W 3922  20.941   2.251   1.449
31663W        W 3923  12.616   9.861  10.611
31664W        W 3924  28.073  41.299  12.091
31665W        W 3925  11.168  17.112  14.447
31666W        W 3926  27.086   0.705  14.421
31667W        W 3927   1.401  41.058   0.374
31668W        W 3928   7.642   2.587   4.519
31669W        W 3929  13.362  25.067   5.066
31670W        W 3930  22.760  33.513   3.878
31671W        W 3931  42.389  12.572  13.231
31672W        W 3932  31.818  28.776  11.136
31673W        W 3933  38.395  26.042   1.403
31674W        W 3934  40.867   9.905  13.283
31675W        W 3935  37.577  19.680  12.894
31676W        W 3936  13.876  30.696   0.212
31677W        W 3937  10.200  19.007  12.699
31678W        W 3938  12.886   6.132  13.055
31679W        W 3939   9.360   3.959   0.249
31680W        W 3940   6.602   1.391   1.667
31681W        W 3941   2.446   7.948  11.940
31682W        W 3942   8.282  29.551   1.298
31683W        W 3943  29.373  42.350   1.384
31684W        W 3944  18.490  14.741   0.447
31685W        W 3945  16.374  20.471  10.667
31686W        W 3946  19.065   9.378   0.687
31687W        W 3947  25.981  11.356   4.143
31688W        W 3948  23.551  31.394   0.003
31689W        W 3949  31.048   9.160  11.313
31690W        W 3950  33.695  22.258   4.770
31691W        W 3951  13.146   2.226  14.212
31692W        W 3952  36.749  19.520   5.689
31693W        W 3953  27.382  21.714   4.106
31694W        W 3954  16.128  18.254   2.814
31695W        W 3955  27.478  21.072  14.525
31696W        W 3956   6.385   3.905  13.487
31697W        W 3957  37.806  30.465   0.929
31698W        W 3958  11.636  26.842  12.807
31699W        W 3959  22.194  25.914   4.631
31700W        W 3960  35.267  15.591  12.651
31701W        W 3961   2.964  35.051   1.753
31702W        W 3962  38.392  20.375  14.926
31703W        W 3963  42.449  31.261   1.869
31704W        W 3964  34.148  19.320  10.402
31705W        W 3965  34.344   9.007  13.490
31706W        W 3966  11.262   5.592   0.011
31707W        W 3967  28.862  19.191  11.162
31708W        W 3968  17.802   2.011   1.364
31709W        W 3969  13.504  11.242  10.946
31710W        W 3970  42.751  17.188  14.911
31711W        W 3971   3.938  33.585   2.478
31712W        W 3972  25.258  11.866   3.187
31713W        W 3973   1.706  20.816   0.347
31714W        W 3974   2.257   5.352  12.616
31715W        W 3975  36.974  36.921   3.715
31716W        W 3976  31.502   4.509  10.458
31717W        W 3977  27.215  39.335   2.836
31718W        W 3978  41.566  32.829   0.587
31719W        W 3979   3.100  10.418   1.332
31720W        W 3980   7.677  23.711  12.062
31721W        W 3981  15.372  40.991   2.695
31722W        W 3982  37.360   3.521   0.465
31723W        W 3983  32.323  41.279  11.649
31724W        W 3984  15.648  25.235   2.960
31725W        W 3985   4.146  12.845   3.177
31726W        W 3986   1.521   0.993   3.182
31727W        W 3987  42.271   5.255  12.393
31728W        W 3988  16.017  14.615   3.102
31729W        W 3989  12.858   2.503  11.112
31730W        W 3990   7.742  11.605   3.205
31731W        W 3991  14.282  13.856   1.711
31732W        W 3992  23.582  17.571   4.880
31733W        W 3993  42.483   6.985  11.075
31734W        W 3994  17.326   7.276  12.458
31735W        W 3995  24.625   3.936   4.084
31736W        W 3996  43.733  21.660   1.089
31737W        W 3997  11.947  33.946  10.978
31738W        W 3998  24.976  21.038   2.328
31739W        W 3999  20.264   2.681   0.352
31740W        W 4000  25.531  17.607  10.805
31741W        W 4001  10.313  14.616  14.900
31742W        W 4002  13.958   0.252   0.081
31743W        W 4003  20.696  35.283   2.282
31744W        W 4004  31.008  11.292  12.843
31745W        W 4005  11.095   6.609   4.219
31746W        W 4006   5.223   6.800  12.649
31747W        W 4007  43.041  37.099  13.420
31748W        W 4008  26.417  40.807  12.828
31749W        W 4009  44.416  35.886   3.704
31750W        W 4010  35.320  26.053  13.090
31751W        W 4011  11.325  28.071   2.329
31752W        W 4012  29.393  14.616   2.734
31753W        W 4013  33.665  22.491   1.368
31754W        W 4014  36.931  32.354  11.332
31755W        W 4015  20.436  38.175   3.138
31756W        W 4016  11.405  30.125   5.574
31757W        W 4017  42.524   6.463   2.776
31758W        W 4018   7.302  22.527   5.009
31759W        W 4019  17.589  32.492  13.040
31760W        W 4020  44.441  27.141   2.499
31761W        W 4021   8.689  41.756   4.665
31762W        W 4022  40.165  25.681  14.688
31763W        W 4023  29.905  42.875  12.926
31764W        W 4024   4.960  26.609   3.011
31765W        W 4025   4.793  31.385   3.683
31766W        W 4026  38.925  26.203   3.924
31767W        W 4027  29.873  39.454   2.062
31768W        W 4028   8.788  11.073   0.386
31769W        W 4029  12.549  38.871  12.302
31770W        W 4030  29.042  10.303  14.791
31771W        W 4031  27.781  27.166  13.959
31772W        W 4032  22.653   5.846   4.564
31773W        W 4033   4.947  11.105   2.171
31774W        W 4034  38.810  24.497  11.383
31775W        W 4035  30.193  31.663   3.805
31776W        W 4036  28.829  17.118  11.914
31777W        W 4037   7.143  16.659   2.669
31778W        W 4038  20.313   4.674   2.081
31779W        W 4039  21.111   4.267  12.101
31780W        W 4040  14.251  20.179   4.612
31781W        W 4041   3.446  43.878  14.803
31782W        W 4042  39.544  35.587   0.747
31783W        W 4043  24.043  43.218   4.067
31784W        W 4044  37.016   7.947   3.113
31785W        W 4045  25.748  18.043   2.745
31786W        W 4046  28.583   0.920  13.803
31787W        W 4047  35.332  19.674  13.529
31788W        W 4048  15.304   8.741  13.479
31789W        W 4049  30.930  30.032  13.518
31790W        W 4050  41.575   2.953  13.329
31791W        W 4051   7.961  26.715   4.095
31792W        W 4052   5.413  31.137   3.421
31793W        W 4053   2.117  38.621   1.745
31794W        W 4054  12.742  36.599   2.115
31795W        W 4055   5.261  23.012   1.208
31796W        W 4056   8.886   0.197  10.441
31797W        W 4057  19.308   0.807   1.282
31798W        W 4058  10.596  44.699   2.633
31799W        W 4059  10.980   7.938  11.989
31800W        W 4060  28.510  34.055  12.134
31801W        W 4061  10.620   4.159  12.530
31802W        W 4062   4.183  29.651   3.644
31803W        W 4063  26.142  20.804   0.722
31804W        W 4064  28.660  38.320  11.924
31805W        W 4065  25.714  35.940   3.574
31806W        W 4066  30.240  27.792  13.447
31807W        W 4067  18.446  35.867   1.226
31808W        W 4068  34.875  19.151  11.888
31809W        W 4069   7.427   1.836   3.180
31810W        W 4070   6.930  10.205   1.862
31811W        W 4071  38.782   4.669   2.907
31812W        W 4072  34.013   2.832   4.380
31813W        W 4073   4.934  15.790  14.003
31814W        W 4074  15.693  10.859  13.013
31815W        W 4075   3.299  40.911  14.837
31816W        W 4076  44.017   4.619  13.277
31817W        W 4077   5.139  43.197   5.027
31818W        W 4078  30.231  40.078   3.687
31819W        W 4079  14.379  26.979   2.681
31820W        W 4080  14.804  44.685   2.767
31821W        W 4081  30.824  43.451   3.254
31822W        W 4082   9.633  24.862  10.749
31823W        W 4083  27.576  20.150   0.540
31824W        W 4084  14.537  32.096  14.843
31825W        W 4085  24.078  31.996   0.035
31826W        W 4086  20.015  38.548  13.403
31827W        W 4087  13.268  23.051   0.318
31828W        W 4088  28.249  29.658  11.247
31829W        W 4089  40.510  42.354  10.678
31830W        W 4090  24.000  27.694  10.789
31831W        W 4091   8.143  22.234   4.884
31832W        W 4092  15.210  13.965   4.658
31833W        W 4093  22.937  32.017  12.431
31834W        W 4094  25.503  16.302  13.792
31835W        W 4095  11.301  40.242   1.763
31836W        W 4096   6.845  37.810   4.515
31837W        W 4097  20.699  13.586  14.869
31838W        W 4098  32.995  12.335   3.561
31839W        W 4099  11.675  11.828   2.238
31840W        W 4100  38.081   7.923   4.636
31841W        W 4101  30.455  15.794   1.884
31842W        W 4102   1.846  28.025  12.647
31843W        W 4103  36.072   3.429   2.197
31844W        W 4104  12.675  43.785   4.954
31845W        W 4105  14.916  22.145  12.075
31846W        W 4106  27.482  20.661   0.690
31847W        W 4107  38.589  27.638  11.153
31848W        W 4108  14.380  42.768   4.517
31849W        W 4109  20.710  12.744  14.312
31850W        W 4110  32.616  15.789  12.554
31851W        W 4111  13.381  29.549   4.667
31852W        W 4112  24.593   1.186  12.370
31853W        W 4113   4.607   8.309  13.961
31854W        W 4114  29.892  20.124   2.907
31855W        W 4115  44.744  34.957  13.556
31856W        W 4116  27.510  30.135  14.088
31857W        W 4117  17.394  17.079   2.279
31858W        W 4118  44.056  36.821  13.378
31859W        W 4119   5.102  33.573   1.124
31860W        W 4120  18.053  31.755   1.835
31861W        W 4121  43.357   5.532  14.452
31862W        W 4122  34.016  32.692   2.709
31863W        W 4123  21.646  38.063   0.446
31864W        W 4124  17.865  20.232  11.599
31865W        W 4125  39.860  19.425  11.593
31866W        W 4126  27.500  11.945  12.217
31867W        W 4127  31.114  37.116   1.346
31868W        W 4128   4.839  38.707  11.461
31869W        W 4129   8.651  12.328  12.025
31870W        W 4130  30.106  17.926   2.384
31871W        W 4131  16.040  21.796  11.637
31872W        W 4132  32.223   6.938   1.658
31873W        W 4133  30.480   6.985  12.593
31874W        W 4134  41.226  16.127  11.529
31875W        W 4135  21.705   0.830   3.366
31876W        W 4136  39.372  35.500  14.043
31877W        W 4137  33.147  12.450  10.952
31878W        W 4138   6.656  17.649   1.926
31879W        W 4139  19.779  22.492   3.430
31880W        W 4140   5.886  22.037  11.508
31881W        W 4141   5.977   4.990   1.794
31882W        W 4142  11.399  39.092   3.274
31883W        W 4143   2.971  12.829  13.454
31884W        W 4144  39.125   8.637  13.424
31885W        W 4145   1.549  40.799  12.629
31886W        W 4146   5.249   3.749   3.590
31887W        W 4147  18.530  30.620  14.934
31888W        W 4148  38.939  39.165   1.317
31889W        W 4149  24.780  20.906   0.822
31890W        W 4150  11.788  26.068   1.771
31891W        W 4151  27.432   6.894  14.637
31892W        W 4152  33.442  30.483  10.802
31893W        W 4153  24.709   4.268  10.708
31894W        W 4154  36.790  11.724   4.851
31895W        W 4155  30.552  38.301   0.289
31896W        W 4156   4.788  16.744   2.277
31897W        W 4157  33.094  21.312  12.015
31898W        W 4158  15.777  35.467  14.489
31899W        W 4159  14.432  28.783   3.733
31900W        W 4160  44.477  26.847   3.507
31901W        W 4161  36.970  26.224  10.775
31902W        W 4162  43.315   6.772  14.931
31903W        W 4163  24.909  26.752   1.815
31904W        W 4164   9.289   2.972   2.222
31905W        W 4165  14.341  18.179   1.477
31906W        W 4166  35.153   7.764   4.153
31907W        W 4167  17.745  34.089  10.703
31908W        W 4168   0.293   5.370  11.523
31909W        W 4169  39.252  18.420  12.098
31910W        W 4170  27.158  42.856   2.858
31911W        W 4171  15.022  21.693  14.341
31912W        W 4172  35.674   6.315   4.201
31913W        W 4173  37.559  22.510  11.764
31914W        W 4174  33.767  37.804  14.450
31915W        W 4175  17.214  28.193   0.890
31916W        W 4176   4.143   6.836  12.422
31917W        W 4177  14.194   2.926  12.484
31918W        W 4178  17.562   3.279  11.472
31919W        W 4179  23.598  29.386   1.885
31920W        W 4180  23.445   0.430   4.518
31921W        W 4181  14.175  10.688   4.649
31922W        W 4182  31.002  19.721   0.235
31923W        W 4183  15.835   9.966  12.039
31924W        W 4184  28.140  21.664  13.420
31925W        W 4185  29.384   1.287  14.346
31926W        W 4186  35.965  40.454   0.669
31927W        W 4187  15.247  23.709  13.364
31928W        W 4188  24.147  39.500  14.197
31929W        W 4189   0.907  22.042  13.056
31930W        W 4190   7.863  23.599  12.534
31931W        W 4191  19.861   2.346  11.397
31932W        W 4192  39.825  30.430   2.960
31933W        W 4193   4.330  21.651   4.513
31934W        W 4194  22.807   9.837   4.231
31935W        W 4195  16.135   5.468   1.741
31936W        W 4196  30.847  11.166  10.470
31937W        W 4197  29.172  15.396   4.662
31938W        W 4198  22.210  40.270  13.439
31939W        W 4199  26.974  24.843  14.994
31940W        W 4200  20.220   4.844   4.669
31941W        W 4201  26.669  15.967  11.997
31942W        W 4202  24.324  36.907  11.068
31943W        W 4203  15.067   2.786   2.479
31944W        W 4204  13.210  39.859  10.673
31945W        W 4205  13.244  15.835  10.327
31946W        W 4206  27.234  43.866  12.459
31947W        W 4207  12.899  44.500   0.811
31948W        W 4208  36.074  12.641  12.990
31949W        W 4209   4.203  39.327   1.822
31950W        W 4210  11.769  27.896  10.232
31951W        W 4211  31.056  31.215  12.594
31952W        W 4212  42.036  20.227   4.661
31953W        W 4213  22.624  26.533   3.488
31954W        W 4214  21.231  26.663   0.232
31955W        W 4215   6.232  24.422   0.915
31956W        W 4216  27.220  39.821  12.107
31957W        W 4217  16.569  25.065   2.300
31958W        W 4218  20.606  13.656   1.798
31959W        W 4219  12.032  20.400  12.995
31960W        W 4220  17.548  16.825   4.754
31961W        W 4221  22.007  43.415  12.729
31962W        W 4222  20.051  23.458   2.696
31963W        W 4223  19.621  39.392   3.367
31964W        W 4224  44.757  22.468  11.046
31965W        W 4225  32.027  15.068  13.558
31966W        W 4226   0.483  35.450   2.555
31967W        W 4227  36.526  32.215  10.589
31968W        W 4228  32.313  11.161   1.306
31969W        W 4229   0.868  44.075  13.190
31970W        W 4230  13.812  12.170  11.147
31971W        W 4231  19.176  14.852   2.542
31972W        W 4232  28.610  33.331  13.017
31973W        W 4233  19.191  40.599  13.927
31974W        W 4234  27.937  12.459   3.994
31975W        W 4235   5.885  34.344   4.436
31976W        W 4236  44.833  22.234  12.617
31977W        W 4237  32.133   0.278   4.595
31978W        W 4238  32.478  27.654   1.423
31979W        W 4239   4.890  38.427  10.531
31980W        W 4240   5.710  25.708   1.815
31981W        W 4241   1.482  22.522  11.406
31982W        W 4242  32.901  39.918  12.097
31983W        W 4243  12.922  17.057   4.613
31984W        W 4244  11.670  35.854   4.096
31985W        W 4245  44.372  41.221  10.622
31986W        W 4246  42.531  40.880   4.135
31987W        W 4247  14.218  28.586   0.759
31988W        W 4248  27.652   6.460  14.380
31989W        W 4249   5.999  23.735  14.059
31990W        W 4250  15.709  13.800  10.669
31991W        W 4251  18.546  36.632   1.689
31992W        W 4252  20.421   6.891   0.738
31993W        W 4253  38.103  20.645   2.117
31994W        W 4254  37.753   3.118  10.776
31995W        W 4255  33.298   5.922  13.817
31996W        W 4256  36.606  25.194   2.720
31997W        W 4257  38.473   7.447   0.989
31998W        W 4258  17.572   1.190   3.590
31999W        W 4259  30.724  35.344  14.548
32000W        W 4260  14.213   6.334  11.098
32001W        W 4261  31.406  14.619  12.984
32002W        W 4262  16.200  35.108   0.835
32003W        W 4263  12.582  19.583   1.681
32004W        W 4264  15.833  44.247   4.216
32005W        W 4265  20.773  13.608  10.637
32006W        W 4266  44.874  36.521   2.173
32007W        W 4267  13.147  36.842   2.359
32008W        W 4268  39.500  10.397   4.488
32009W        W 4269  42.644  39.083   0.701
32010W        W 4270  27.063  21.367  14.481
32011W        W 4271  36.874  22.910   2.905
32012W        W 4272  22.865   2.269   3.661
32013W        W 4273   1.798  17.575   2.294
32014W        W 4274  27.005   6.810   2.295
32015W        W 4275   2.391  33.638   4.694
32016W        W 4276   7.517  20.186  13.429
32017W        W 4277  12.292  26.001  14.314
32018W        W 4278  25.774  44.814   3.634
32019W        W 4279  10.268   8.064   4.995
32020W        W 4280   1.344  26.309   1.114
32021W        W 4281  16.791   1.335  12.089
32022W        W 4282  16.824   2.256   5.290
32023W        W 4283   7.806   0.042   3.642
32024W        W 4284  23.699  18.807   0.224
32025W        W 4285  21.900  37.828   0.846
32026W        W 4286  11.098  25.514  14.643
32027W        W 4287  23.257  11.188  14.084
32028W        W 4288  43.844  33.423   3.223
32029W        W 4289   2.741  28.700  10.740
32030W        W 4290  20.021  27.085   3.201
32031W        W 4291  34.494  35.194  13.878
32032W        W 4292  24.651  23.657  12.054
32033W        W 4293  40.900   7.880   2.945
32034W        W 4294   4.242  36.063   0.231
32035W        W 4295  36.322  31.221  14.373
32036W        W 4296  22.239   6.936   2.747
32037W        W 4297  33.667   9.216   0.255
32038W        W 4298  12.045   3.873  13.396
32039W        W 4299   1.746   7.787  13.642
32040W        W 4300  32.067  19.459  12.427
32041W        W 4301  35.379  23.956   2.253
32042W        W 4302  19.645  27.618   3.702
32043W        W 4303  38.529  19.860  14.893
32044W        W 4304  14.288   1.967  10.933
32045W        W 4305  42.941  10.429  10.252
32046W        W 4306   4.432  19.978  10.675
32047W        W 4307  38.348   4.835  14.288
32048W        W 4308  14.134   3.371  11.624
32049W        W 4309  21.004  16.633   1.891
32050W        W 4310  31.472  30.559   0.961
32051W        W 4311   3.695  24.920  12.602
32052W        W 4312  39.341  14.334   3.130
32053W        W 4313   9.626  20.068   3.256
32054W        W 4314   3.285  39.299  10.534
32055W        W 4315  32.462  16.315  14.351
32056W        W 4316  27.652   6.663   1.752
32057W        W 4317   2.812  15.372  13.233
32058W        W 4318  37.473  15.563  13.375
32059W        W 4319  16.579   7.931  12.672
32060W        W 4320  30.641  27.929  11.975
32061W        W 4321  15.802  18.224   4.703
32062W        W 4322  38.397  13.315  11.885
32063W        W 4323   8.297  29.726  13.852
32064W        W 4324  13.139   7.048  11.597
32065W        W 4325  32.228   0.949   3.779
32066W        W 4326  28.032  32.600   2.278
32067W        W 4327  18.158  19.118  14.355
32068W        W 4328  29.657  13.848  11.081
32069W        W 4329  12.665  27.052  11.515
32070W        W 4330  28.148  42.663   1.520
32071W        W 4331   3.360  39.188   3.249
32072W        W 4332  38.397  18.071   0.106
32073W        W 4333  31.952  30.248  12.957
32074W        W 4334  40.485   3.551   3.800
32075W        W 4335  25.089   5.214  12.365
32076W        W 4336  15.796  33.552  10.096
32077W        W 4337  27.227  21.740  14.876
32078W        W 4338  39.091   0.195  12.550
32079W        W 4339  13.248  22.922  14.308
32080W        W 4340  14.374  20.775   2.389
32081W        W 4341   1.095  14.746  12.379
32082W        W 4342  26.604   3.827  11.955
32083W        W 4343  36.960  23.471   1.761
32084W        W 4344  30.871  29.191  14.522
32085W        W 4345  32.164  33.910   1.724
32086W        W 4346  44.233  38.533  10.632
32087W        W 4347   8.160  20.465  13.968
32088W        W 4348  23.234  39.644   4.534
32089W        W 4349  27.022  43.577   2.932
32090W        W 4350  26.616  37.801  10.229
32091W        W 4351  22.188  16.483  12.916
32092W        W 4352  18.087  16.402  12.843
32093W        W 4353   5.198  37.866  12.564
32094W        W 4354  12.633   7.752   3.165
32095W        W 4355  44.483   8.900  12.511
32096W        W 4356  28.076  43.171   1.662
32097W        W 4357  22.002  31.569  13.097
32098W        W 4358  24.208  11.128   0.188
32099W        W 4359  35.389  29.201  12.827
32100W        W 4360  37.407  37.334  13.925
32101W        W 4361  27.859  43.771   3.262
32102W        W 4362   6.255  43.448  10.686
32103W        W 4363  41.534  26.482   3.152
32104W        W 4364  23.308  26.298  13.896
32105W        W 4365   1.644  41.288  14.513
32106W        W 4366  10.196  17.352  14.484
32107W        W 4367  14.794  13.119  11.053
32108W        W 4368   4.521  28.133   1.029
32109W        W 4369  29.545  22.529   1.142
32110W        W 4370   0.814  22.716   0.346
32111W        W 4371  11.781   2.424  14.380
32112W        W 4372   4.752  28.517   0.732
32113W        W 4373  34.484   9.613   3.239
32114W        W 4374  10.322  10.206   0.892
32115W        W 4375  41.868  16.211  14.505
32116W        W 4376  28.433   7.239   0.355
32117W        W 4377  38.861  38.730  14.411
32118W        W 4378  11.804  44.813  13.112
32119W        W 4379  34.226  43.238   0.886
32120W        W 4380   0.437   2.390   0.823
32121W        W 4381  26.222  28.563  11.082
32122W        W 4382  21.170  18.705  11.513
32123W        W 4383  22.207   9.703   0.794
32124W        W 4384  17.209  35.188  12.857
32125W        W 4385   7.830  12.040   4.097
32126W        W 4386  15.866  43.798   0.947
32127W        W 4387  23.158  16.393   1.233
32128W        W 4388   4.542   2.267   4.935
32129W        W 4389  25.959  16.127   3.694
32130W        W 4390  23.439  36.404   0.476
32131W        W 4391   2.776   6.430  11.174
32132W        W 4392  29.478  32.587  13.585
32133W        W 4393  15.581  14.818  10.154
32134W        W 4394  30.285   6.483  12.557
32135W        W 4395  39.838  30.403  12.026
32136W        W 4396   4.896  16.297   4.566
32137W        W 4397  12.806  27.321   2.183
32138W        W 4398  28.334   2.358   1.097
32139W        W 4399   1.200  29.024   0.740
32140W        W 4400  29.966  34.891  14.769
32141W        W 4401  23.032  12.338  14.436
32142W        W 4402  20.889  14.733  10.429
32143W        W 4403  14.338  34.494   3.575
32144W        W 4404  10.120  17.215   4.641
32145W        W 4405  18.236  29.842  13.452
32146W        W 4406  42.533   0.719  12.388
32147W        W 4407   1.073  24.473  11.426
32148W        W 4408  17.199  35.638  11.272
32149W        W 4409   1.958  18.194   4.142
32150W        W 4410  25.031  37.137   4.556
32151W        W 4411  30.539  22.504  12.374
32152W        W 4412  36.561  17.143   0.483
32153W        W 4413  29.621  21.642   3.807
32154W        W 4414  14.461  24.140   0.016
32155W        W 4415   7.860   1.273   2.295
32156W        W 4416   0.983  26.233   4.195
32157W        W 4417  15.197   2.965  10.986
32158W        W 4418  29.692  11.574  11.121
32159W        W 4419  19.720  13.356  12.786
32160W        W 4420  43.614  37.325   2.492
32161W        W 4421  25.238  34.148   1.785
32162W        W 4422  40.473  19.700  11.130
32163W        W 4423   1.389   8.886  14.896
32164W        W 4424   0.908  13.948   2.233
32165W        W 4425  31.257  10.421   0.731
32166W        W 4426   2.221  14.342   2.678
32167W        W 4427   9.661   3.940  11.925
32168W        W 4428  30.006  38.290   2.372
32169W        W 4429  17.540   1.363  11.527
32170W        W 4430  24.051  26.923   2.702
32171W        W 4431  40.003  43.608   3.929
32172W        W 4432   6.818  28.055  11.198
32173W        W 4433  33.462  44.254  11.991
32174W        W 4434  16.746  37.202  13.534
32175W        W 4435  41.811  11.822   3.704
32176W        W 4436  32.552  40.255   3.723
32177W        W 4437   9.347   4.361   3.084
32178W        W 4438   0.914  13.062   4.117
32179W        W 4439  21.831  15.141  11.523
32180W        W 4440  25.736  20.530   0.885
32181W        W 4441  41.657  14.628   3.384
32182W        W 4442  21.629  36.462  13.073
32183W        W 4443  19.027  29.020   4.773
32184W        W 4444   9.606  27.901   3.197
32185W        W 4445   8.836  35.775   2.208
32186W        W 4446  28.041  23.012   5.274
32187W        W 4447  18.664   0.007   2.154
32188W        W 4448  35.355  26.344  12.674
32189W        W 4449   3.222   5.392   4.146
32190W        W 4450  36.090  25.720   2.227
32191W        W 4451   8.242  22.115   0.201
32192W        W 4452   0.977  30.053   4.397
32193W        W 4453  16.169  26.047  12.399
32194W        W 4454   9.379  21.575   1.636
32195W        W 4455  14.096  44.785  11.633
32196W        W 4456  44.464  13.130  14.121
32197W        W 4457  16.181   3.286  14.557
32198W        W 4458  25.837  11.567   2.650
32199W        W 4459  44.574  35.011  12.491
32200W        W 4460  29.987  34.128   3.506
32201W        W 4461   5.770  44.288   3.247
32202W        W 4462   1.489  22.694   4.426
32203W        W 4463  27.295   9.615   2.992
32204W        W 4464  11.801  29.498  11.248
32205W        W 4465  35.848  38.539  14.047
32206W        W 4466  37.530  23.068   4.215
32207W        W 4467  41.298  31.074  14.029
32208W        W 4468  25.596   8.290   0.943
32209W        W 4469  43.403  21.102   4.352
32210W        W 4470  29.161   6.185   0.916
32211W        W 4471  12.414  13.826   2.371
32212W        W 4472  20.342  19.231  10.749
32213W        W 4473   0.980  29.940   1.191
32214W        W 4474  33.059  40.261  12.466
32215W        W 4475   6.501  34.426   3.244
32216W        W 4476  22.495  39.006  14.917
32217W        W 4477   0.599  28.669   4.618
32218W        W 4478  16.008  24.951   0.852
32219W        W 4479  30.977  42.462   1.681
32220W        W 4480  14.426   9.678  12.784
32221W        W 4481  43.504  38.381   2.331
32222W        W 4482  42.906   2.576   2.724
32223W        W 4483  16.767   0.389  12.543
32224W        W 4484  11.814  27.455   9.876
32225W        W 4485  38.399  29.510  11.639
32226W        W 4486  15.066  16.222  14.337
32227W        W 4487  42.676   9.736  10.586
32228W        W 4488  25.944  35.218   1.404
32229W        W 4489  14.023  31.919  13.088
32230W        W 4490   8.176   6.827   3.690
32231W        W 4491  29.870  42.353  12.565
32232W        W 4492   6.714  29.146   3.033
32233W        W 4493  21.724  24.518   2.909
32234W        W 4494  34.337  38.105   0.814
32235W        W 4495  44.302  41.997   0.311
32236W        W 4496   9.347  31.967  13.957
32237W        W 4497  40.339  13.858  12.555
32238W        W 4498  24.434  29.123  11.032
32239W        W 4499  26.531  18.780  13.770
32240W        W 4500  29.984   0.772   4.565
32241W        W 4501  38.514   8.024  13.066
32242W        W 4502  41.834  29.562   2.918
32243W        W 4503  33.335  10.645   2.808
32244W        W 4504   8.881  36.938   4.845
32245W        W 4505  37.034   6.812   0.534
32246W        W 4506  14.486  37.442   2.175
32247W        W 4507  28.747  33.077   1.256
32248W        W 4508  12.694  18.405  11.165
32249W        W 4509  27.682  41.996   0.776
32250W        W 4510  24.392   4.356   4.623
32251W        W 4511  37.080  17.227   3.730
32252W        W 4512  36.120  40.265   2.921
32253W        W 4513  37.882  10.151  14.053
32254W        W 4514   8.069  42.875  12.893
32255W        W 4515  40.445   4.532  11.941
32256W        W 4516  19.624   0.890  13.416
32257W        W 4517  19.759  10.620  12.535
32258W        W 4518  15.635  33.054  14.123
32259W        W 4519  44.268   1.706   2.388
32260W        W 4520  30.086  19.715  11.443
32261W        W 4521   8.354  39.906   1.614
32262W        W 4522  25.278  10.112   0.867
32263W        W 4523   9.184   8.201   4.771
32264W        W 4524  34.634  29.877   0.709
32265W        W 4525  20.145   2.738   2.244
32266W        W 4526  15.182  20.631   2.799
32267W        W 4527   0.327  11.849   0.543
32268W        W 4528   1.175  44.956  10.582
32269W        W 4529  39.261  22.691  13.451
32270W        W 4530   8.099  35.990   1.260
32271W        W 4531  44.028  41.967  14.857
32272W        W 4532   1.970  16.082   2.424
32273W        W 4533  18.943  21.369   1.160
32274W        W 4534   9.098  21.390  11.150
32275W        W 4535  19.079  16.309   1.100
32276W        W 4536   3.970  25.641  12.865
32277W        W 4537  27.415   4.249   0.892
32278W        W 4538   2.959  29.101   4.804
32279W        W 4539  19.470  36.100  10.454
32280W        W 4540   7.597  11.110  11.495
32281W        W 4541   5.103  42.080  11.136
32282W        W 4542  43.461  11.840  12.445
32283W        W 4543  33.355  36.037  12.814
32284W        W 4544  10.724   7.749   3.634
32285W        W 4545  12.420   1.725  11.138
32286W        W 4546   2.202  28.431   1.928
32287W        W 4547  34.017  36.776   2.883
32288W        W 4548  41.833  27.154  11.431
32289W        W 4549  24.022  39.580   2.060
32290W        W 4550  15.575  19.997   2.794
32291W        W 4551  36.829  44.588   0.749
32292W        W 4552  10.340  26.095  11.549
32293W        W 4553  27.464  13.145  12.403
32294W        W 4554  36.894  24.429   1.563
32295W        W 4555  18.300  14.351   1.435
32296W        W 4556  15.180  33.881   4.450
32297W        W 4557  24.623  27.009  13.301
32298W        W 4558   8.631  44.078  12.980
32299W        W 4559  19.204   1.774  13.527
32300W        W 4560   9.778   5.138  12.523
32301W        W 4561  19.533  40.347  13.119
32302W        W 4562  14.285  13.442   4.572
32303W        W 4563  19.093  39.057  12.944
32304W        W 4564  19.739  37.021   3.719
32305W        W 4565  29.627  14.570   2.277
32306W        W 4566  13.291  31.001  13.994
32307W        W 4567   2.427   2.678  11.490
32308W        W 4568   3.417   1.005   0.684
32309W        W 4569   5.845  26.239   1.990
32310W        W 4570  24.437  30.835  14.453
32311W        W 4571  35.733  30.387  13.512
32312W        W 4572  34.984  32.096  14.385
32313W        W 4573  38.719  19.119   4.866
32314W        W 4574  18.201  42.959  11.105
32315W        W 4575  36.338  14.669  11.679
32316W        W 4576  14.822  41.779   2.735
32317W        W 4577  33.118  33.621  11.048
32318W        W 4578  18.952  44.770   0.912
32319W        W 4579  25.092  43.226  13.445
32320W        W 4580  36.406  44.337   3.422
32321W        W 4581  10.311  32.666  11.540
32322W        W 4582  21.577   9.664  11.513
32323W        W 4583  17.087  14.001   5.039
32324W        W 4584  44.236   7.567  13.289
32325W        W 4585  40.904   2.047  10.719
32326W        W 4586  20.008  26.681  13.032
32327W        W 4587  23.213  35.131   0.025
32328W        W 4588  12.590  28.254   1.027
32329W        W 4589  34.918   3.295   3.450
32330W        W 4590  27.774   4.543   4.710
32331W        W 4591  16.479  19.618  13.067
32332W        W 4592   7.542  23.663  14.913
32333W        W 4593  43.698  18.281   0.363
32334W        W 4594  18.349  41.263   2.726
32335W        W 4595   6.182   6.794   2.136
32336W        W 4596  14.734  29.705   4.610
32337W        W 4597  17.706   4.669   1.337
32338W        W 4598  14.609  34.216  11.516
32339W        W 4599  16.813   0.406  13.471
32340W        W 4600  41.716  30.411   4.120
32341W        W 4601  44.805  30.431   3.653
32342W        W 4602  17.124  24.656   1.716
32343W        W 4603  21.117   8.682   2.172
32344W        W 4604   2.264   0.580   3.336
32345W        W 4605  11.284  14.190   0.011
32346W        W 4606   6.778  33.393   0.462
32347W        W 4607  38.932  27.445  13.468
32348W        W 4608  23.706   4.133   0.568
32349W        W 4609  34.591  25.430  10.752
32350W        W 4610  35.118  24.078   0.938
32351W        W 4611  32.705   2.597   2.939
32352W        W 4612  31.315   0.335  14.379
32353W        W 4613  36.537   2.918   4.332
32354W        W 4614  20.963   5.979  10.558
32355W        W 4615  31.861  40.633  14.810
32356W        W 4616  16.827  22.122   4.144
32357W        W 4617   9.808  28.124   0.240
32358W        W 4618   3.885  30.554   0.849
32359W        W 4619  36.344  40.352  14.741
32360W        W 4620  28.516  32.046   1.923
32361W        W 4621   1.966  15.166   1.895
32362W        W 4622   2.531  35.971  11.893
32363W        W 4623  12.839  10.252  14.402
32364W        W 4624  39.563  16.562   2.708
32365W        W 4625  15.737  26.460  13.497
32366W        W 4626   8.012  10.123  12.979
32367W        W 4627  29.734  40.046  12.100
32368W        W 4628  21.965   0.795   4.578
32369W        W 4629  19.604  27.735   2.716
32370W        W 4630  29.543  15.137   3.374
32371W        W 4631  24.527  26.426   3.600
32372W        W 4632  27.092  34.880   1.726
32373W        W 4633  44.324  19.097   4.858
32374W        W 4634  29.872  24.460   3.857
32375W        W 4635  30.525  11.009  12.537
32376W        W 4636  36.358  35.943  11.919
32377W        W 4637  38.826  34.200  13.434
32378W        W 4638  30.013  27.869   1.850
32379W        W 4639  31.081  29.231  14.063
32380W        W 4640  21.820   3.443  10.625
32381W        W 4641   4.732  16.317  10.743
32382W        W 4642  34.564   8.150  11.366
32383W        W 4643  23.971  20.518  14.421
32384W        W 4644  17.597  12.677   1.455
32385W        W 4645  44.379  23.628   2.717
32386W        W 4646  39.347  31.421   2.406
32387W        W 4647  27.495   5.144  14.825
32388W        W 4648  22.064  28.257  14.983
32389W        W 4649  36.919  40.430  13.028
32390W        W 4650  34.459  13.333   2.197
32391W        W 4651  42.920   2.862   4.287
32392W        W 4652  30.572  34.610   0.477
32393W        W 4653  13.222   5.779  14.286
32394W        W 4654   5.732  11.025  13.789
32395W        W 4655  33.508  31.129  14.415
32396W        W 4656  29.653  23.988  12.151
32397W        W 4657  21.471  26.572  11.059
32398W        W 4658   4.189  22.696   0.994
32399W        W 4659  27.843  29.702  11.554
32400W        W 4660  25.278  33.667  12.841
32401W        W 4661  40.220   4.905   0.284
32402W        W 4662  19.660   6.420   4.628
32403W        W 4663  31.445   0.006   1.484
32404W        W 4664  34.518   9.771  12.940
32405W        W 4665   0.176  19.047  10.817
32406W        W 4666  11.729  11.383  13.392
32407W        W 4667   8.357  38.581  12.812
32408W        W 4668  29.977  32.834   4.232
32409W        W 4669  15.781  37.421  13.344
32410W        W 4670  41.690  28.544  14.126
32411W        W 4671  13.706   2.515  13.353
32412W        W 4672  43.909  21.589  13.071
32413W        W 4673  40.581  15.387   2.906
32414W        W 4674  35.125  42.797   0.897
32415W        W 4675  27.211  20.231   0.920
32416W        W 4676  14.298  28.087  11.479
32417W        W 4677  10.186   3.145   0.199
32418W        W 4678  24.590  34.974  13.956
32419W        W 4679  28.805   4.002   3.930
32420W        W 4680  44.421  24.420   1.830
32421W        W 4681  18.132  25.364   3.333
32422W        W 4682  13.300  24.171   4.478
32423W        W 4683  29.298  43.444   1.441
32424W        W 4684   5.191  33.533   1.641
32425W        W 4685  21.653  30.125   0.982
32426W        W 4686  41.541   0.374  11.709
32427W        W 4687   8.411   2.897  11.201
32428W        W 4688   2.977  15.239   4.795
32429W        W 4689  28.898   5.278   3.734
32430W        W 4690  15.199   8.731   4.158
32431W        W 4691  37.114  22.523  13.025
32432W        W 4692  16.054  17.516   2.402
32433W        W 4693  11.261   9.392   3.549
32434W        W 4694   3.711  27.176   4.200
32435W        W 4695  22.659  10.605  10.651
32436W        W 4696  30.545  14.835   0.924
32437W        W 4697  21.089  22.440   3.241
32438W        W 4698  27.144  40.902  11.099
32439W        W 4699  42.912  34.508   1.097
32440W        W 4700  11.417   9.127   0.782
32441W        W 4701  20.610  31.032  13.969
32442W        W 4702   4.763   6.998  12.979
32443W        W 4703   5.293  34.944   4.868
32444W        W 4704  41.256  42.354   0.516
32445W        W 4705  25.917  20.654  12.962
32446W        W 4706   4.146  28.587   2.237
32447W        W 4707  20.312  38.696  10.857
32448W        W 4708  23.227  29.674   2.772
32449W        W 4709  44.047  11.415  10.451
32450W        W 4710  10.129  26.165   1.904
32451W        W 4711  42.884   6.130  11.132
32452W        W 4712   8.822  16.083  13.274
32453W        W 4713  20.936  36.456   3.338
32454W        W 4714  11.200  16.114  10.696
32455W        W 4715  42.928  16.881   3.252
32456W        W 4716  24.230  31.583   2.348
32457W        W 4717  35.947  25.453   0.768
32458W        W 4718  37.440  14.814   1.466
32459W        W 4719   7.818   7.622   0.079
32460W        W 4720  37.843  22.853  12.499
32461W        W 4721   0.682  35.090   4.992
32462W        W 4722   9.673  41.362  14.511
32463W        W 4723   5.707  16.690   4.829
32464W        W 4724  20.232  11.968   0.215
32465W        W 4725   9.914  40.195   0.293
32466W        W 4726  12.848   0.412  12.649
32467W        W 4727   6.714   6.782   2.120
32468W        W 4728  38.170  12.856  11.927
32469W        W 4729  21.341   2.573  11.611
32470W        W 4730  32.443  23.164  12.215
32471W        W 4731   8.126   6.143   0.416
32472W        W 4732  32.059  42.795   2.865
32473W        W 4733  15.648  35.527   0.413
32474W        W 4734  28.538  29.535  12.829
32475W        W 4735   1.418  16.711   4.847
32476W        W 4736   4.470  13.682   3.642
32477W        W 4737  25.393  28.442  11.920
32478W        W 4738  11.755  25.033   4.079
32479W        W 4739  38.992  36.066  11.651
32480W        W 4740  21.539   1.055   4.352
32481W        W 4741   2.802  12.108  11.494
32482W        W 4742  32.412  22.903  11.217
32483W        W 4743   4.014  24.014   3.291
32484W        W 4744  23.187   5.299   3.480
32485W        W 4745  12.075   5.427  13.564
32486W        W 4746  34.846  34.480  12.027
32487W        W 4747  40.953  19.285  12.300
32488W        W 4748   9.875  37.318   0.569
32489W        W 4749   1.358  39.091   3.278
32490W        W 4750   4.715  31.040  10.441
32491W        W 4751  42.333   8.955  14.027
32492W        W 4752  21.547  19.360  11.660
32493W        W 4753  18.088  41.961  12.103
32494W        W 4754  39.368  17.563  11.628
32495W        W 4755  11.857  25.195  14.483
32496W        W 4756  24.613   4.989   2.281
32497W        W 4757  35.004   9.749   1.868
32498W        W 4758  17.286   8.264   4.504
32499W        W 4759   9.291  11.822  14.555
32500W        W 4760  44.350  39.014   9.954
32501W        W 4761  22.587  16.185  14.737
32502W        W 4762  23.058   6.949   0.831
32503W        W 4763  17.094  22.816   1.066
32504W        W 4764  26.227   4.701   0.300
32505W        W 4765  11.663  11.313   2.359
32506W        W 4766  42.744  16.574  11.990
32507W        W 4767   9.378  27.203   2.562
32508W        W 4768  17.101  31.456  12.381
32509W        W 4769  23.575  27.502   9.998
32510W        W 4770  27.859  19.308   2.879
32511W        W 4771  40.403  41.647   1.272
32512W        W 4772   5.875  40.553   3.734
32513W        W 4773  42.980   5.721  12.614
32514W        W 4774  30.379   7.862  13.127
32515W        W 4775  12.781   5.983  14.491
32516W        W 4776   6.467  18.732  13.869
32517W        W 4777  31.143  35.656   4.677
32518W        W 4778  12.741  16.374   0.420
32519W        W 4779  16.610  39.459   3.366
32520W        W 4780  17.745  25.455   1.650
32521W        W 4781  13.262  17.011  14.854
32522W        W 4782  14.098  30.834   9.691
32523W        W 4783  35.159  42.756  11.183
32524W        W 4784  35.815  38.349   3.736
32525W        W 4785  17.272  38.015  11.779
32526W        W 4786  12.839  34.371  14.060
32527W        W 4787  18.710   1.111  14.411
32528W        W 4788  13.186   5.430  13.352
32529W        W 4789  20.003   8.933   1.708
32530W        W 4790  13.792  40.039   1.755
32531W        W 4791  41.476  29.419  11.128
32532W        W 4792  27.857  18.598  14.279
32533W        W 4793   5.370  43.567  11.099
32534W        W 4794  42.317  38.917   4.068
32535W        W 4795  42.915  19.781  11.111
32536W        W 4796  34.001  15.208   2.699
32537W        W 4797  11.086  29.548   4.936
32538W        W 4798  16.580   4.678   0.566
32539W        W 4799  27.504  43.785   1.473
32540W        W 4800  23.182  29.168  13.780
32541W        W 4801  12.083   9.101  13.377
32542W        W 4802   9.697   5.936   1.709
32543W        W 4803  17.799   3.622   4.713
32544W        W 4804  35.636  16.023  14.889
32545W        W 4805  32.225  34.157   4.980
32546W        W 4806  10.161   1.505   4.797
32547W        W 4807  44.113  13.776  11.096
32548W        W 4808  24.860   2.855  13.765
32549W        W 4809  43.298  33.155   0.905
32550W        W 4810  19.260  43.060  12.983
32551W        W 4811  27.220  15.595  11.299
32552W        W 4812  27.909  36.091   0.843
32553W        W 4813  17.318  20.947  11.044
32554W        W 4814  36.324  40.823   2.854
32555W        W 4815  33.863  32.575   0.838
32556W        W 4816  22.264  37.696   4.232
32557W        W 4817  16.176   3.582   3.685
32558W        W 4818  40.861  16.901  11.742
32559W        W 4819  44.307  25.102  11.443
32560W        W 4820   6.810  28.005  10.669
32561W        W 4821  18.185  41.737   0.244
32562W        W 4822  21.768  41.403   4.721
32563W        W 4823  37.844  28.409   4.923
32564W        W 4824  33.133  28.552   4.852
32565W        W 4825  30.850   8.698   0.335
32566W        W 4826  28.445  21.020  13.607
32567W        W 4827  20.096  32.653   4.460
32568W        W 4828  23.106  32.527  10.824
32569W        W 4829   9.124  12.355  10.738
32570W        W 4830  35.936  35.192  12.508
32571W        W 4831  42.021  43.072  11.546
32572W        W 4832  28.936   0.003  11.571
32573W        W 4833  29.061   9.633  11.494
32574W        W 4834  22.752   7.936  13.002
32575W        W 4835  15.812  41.063  14.895
32576W        W 4836   8.207  42.296  13.962
32577W        W 4837  32.181   2.778   2.305
32578W        W 4838  11.460  40.940  14.356
32579W        W 4839  37.432   0.742   5.024
32580W        W 4840  27.036  14.138   0.758
32581W        W 4841  43.414  23.572  14.460
32582W        W 4842  17.743  24.681   3.685
32583W        W 4843  44.040  31.642  13.336
32584W        W 4844  16.168  21.586  13.073
32585W        W 4845  19.262  44.068  12.975
32586W        W 4846  42.727  44.856   0.718
32587W        W 4847   2.680  43.473  14.409
32588W        W 4848   4.203  41.762   0.415
32589W        W 4849  14.679  37.119  13.572
32590W        W 4850  21.596   7.674   3.771
32591W        W 4851  32.634  24.631  14.482
32592W        W 4852  41.513   7.786   3.626
32593W        W 4853  43.380  25.110   2.452
32594W        W 4854  23.117  37.802   3.215
32595W        W 4855  25.694  19.752  12.319
32596W        W 4856  13.637  36.421   3.181
32597W        W 4857  10.866   5.411   4.591
32598W        W 4858  20.654  36.278  14.762
32599W        W 4859   3.657  40.805   0.664
32600W        W 4860  20.679  27.814   4.078
32601W        W 4861  18.846  37.321   1.520
32602W        W 4862  21.058   9.011   0.472
32603W        W 4863   3.518  19.276   4.018
32604W        W 4864  32.493  41.761  11.541
32605W        W 4865  32.676  22.798   3.914
32606W        W 4866  37.294  42.772  12.086
32607W        W 4867  17.903   5.259  11.992
32608W        W 4868  16.327  27.856  12.340
32609W        W 4869   6.629   2.414  12.459
32610W        W 4870   9.662   1.637   3.487
32611W        W 4871  35.080  12.580  10.750
32612W        W 4872  42.152   3.381  11.539
32613W        W 4873   9.836   0.360   0.428
32614W        W 4874   2.060  31.736  13.473
32615W        W 4875   0.708  27.624   0.520
32616W        W 4876  24.644   3.337  13.737
32617W        W 4877   9.709  21.955   4.073
32618W        W 4878   9.597  21.136   4.212
32619W        W 4879  13.380  30.582   0.254
32620W        W 4880  29.538  13.259  10.490
32621W        W 4881  21.269  20.480  11.860
32622W        W 4882  17.081   7.182  12.912
32623W        W 4883  42.762  13.314  11.128
32624W        W 4884  41.271  34.160  10.900
32625W        W 4885   1.874   4.252  14.914
32626W        W 4886  16.179  33.487   0.657
32627W        W 4887  31.040  41.792  14.430
32628W        W 4888  38.365  19.388  13.980
32629W        W 4889   9.916  25.130   4.675
32630W        W 4890  40.578  30.130   2.978
32631W        W 4891  17.494  44.368   2.362
32632W        W 4892  16.741  29.499   0.849
32633W        W 4893  24.487  12.145   2.907
32634W        W 4894  37.866   2.890   4.557
32635W        W 4895  39.833  29.024  10.771
32636W        W 4896   9.700  29.993  14.918
32637W        W 4897  11.157  28.665  11.470
32638W        W 4898   8.654  15.292   0.373
32639W        W 4899   7.844  25.252  13.428
32640W        W 4900  36.753  15.516  12.447
32641W        W 4901  43.048  41.365   4.576
32642W        W 4902   9.700  31.663  13.017
32643W        W 4903  34.044  36.320   0.707
32644W        W 4904   9.227   6.184   4.745
32645W        W 4905   5.133  15.585  12.836
32646W        W 4906  34.882  21.924   0.647
32647W        W 4907  25.618   7.326   3.025
32648W        W 4908  33.884  27.508   0.997
32649W        W 4909  10.869  13.173  10.650
32650W        W 4910  34.839  40.802   4.601
32651W        W 4911  22.585   3.795   2.310
32652W        W 4912   8.577  19.360   0.346
32653W        W 4913  11.180  19.133   4.432
32654W        W 4914  28.363   6.325  13.415
32655W        W 4915  27.331  36.088   0.210
32656W        W 4916  17.753  21.968  14.439
32657W        W 4917  34.537   0.031   1.759
32658W        W 4918  27.509  14.747  11.819
32659W        W 4919  14.490  37.482   9.822
32660W        W 4920   1.700  43.473  11.600
32661W        W 4921   2.711  12.171  12.776
32662W        W 4922  29.172   4.491  14.001
32663W        W 4923  40.876  34.803   2.333
32664W        W 4924  41.506   0.517  14.543
32665W        W 4925  30.887  43.844   2.119
32666W        W 4926   7.185  13.131   4.724
32667W        W 4927  30.422   6.198  10.727
32668W        W 4928   0.992  26.063  11.544
32669W        W 4929  22.266   2.670  13.022
32670W        W 4930  37.097  33.294   3.052
32671W        W 4931  41.186  11.181  11.199
32672W        W 4932  39.110  16.711  11.880
32673W        W 4933  12.755  14.816  10.429
32674W        W 4934  14.189  24.565   1.728
32675W        W 4935  32.676  16.979  14.849
32676W        W 4936  31.217  10.662  13.495
32677W        W 4937   4.967  30.973  14.357
32678W        W 4938  33.806  44.897  14.977
32679W        W 4939  30.428  36.272   0.670
32680W        W 4940  22.655  26.959  14.782
32681W        W 4941  35.018   1.029   0.134
32682W        W 4942   1.412  29.988   4.035
32683W        W 4943  38.360  41.095   2.250
32684W        W 4944  34.336  17.107   1.679
32685W        W 4945  34.161  33.844   2.293
32686W        W 4946  15.597  22.182  12.771
32687W        W 4947  31.489  42.362  14.800
32688W        W 4948  26.038  35.678   4.145
32689W        W 4949  24.527   9.124  14.342
32690W        W 4950  25.896  20.822   2.185
32691W        W 4951  33.221  27.730   0.270
32692W        W 4952  44.860   7.679  12.371
32693W        W 4953   8.316  16.098   1.691
32694W        W 4954  21.087  27.848  14.513
32695W        W 4955  34.394  35.308  14.405
32696W        W 4956  40.116  34.034  14.983
32697W        W 4957  30.002  23.896   0.749
32698W        W 4958  15.862   6.366  10.673
32699W        W 4959  12.599  31.052  12.148
32700W        W 4960  36.905  10.595  12.104
32701W        W 4961  33.104  34.834  11.928
32702W        W 4962  32.206   4.924  10.135
32703W        W 4963  21.703   2.622   0.214
32704W        W 4964  21.160  14.150  11.077
32705W        W 4965  29.350  12.609   5.095
32706W        W 4966   5.390  37.830  13.963
32707W        W 4967  41.294  43.747  11.644
32708W        W 4968   8.723  37.296  12.564
32709W        W 4969  37.332   9.356   1.617
32710W        W 4970  37.517   7.892  11.474
32711W        W 4971   7.726  12.627   1.414
32712W        W 4972  39.241  14.634  11.619
32713W        W 4973   1.019   3.666  13.871
32714W        W 4974  43.509   6.177   1.668
32715W        W 4975  33.613  32.540   0.303
32716W        W 4976  30.690  38.834  14.354
32717W        W 4977  44.310  31.934   2.270
32718W        W 4978   2.469   3.880   3.861
32719W        W 4979   4.295  22.754   2.308
32720W        W 4980  14.298   9.810   1.387
32721W        W 4981  10.185  42.369   1.704
32722W        W 4982  13.214  11.059  13.894
32723W        W 4983  23.086  41.532  14.141
32724W        W 4984   1.229  17.250   0.834
32725W        W 4985  40.978   6.566  14.722
32726W        W 4986  15.440  43.453   0.936
32727W        W 4987  30.362  40.980   1.976
32728W        W 4988  32.143  39.794  12.503
32729W        W 4989  22.951   6.721  13.866
32730W        W 4990  37.945  26.657   0.711
32731W        W 4991  14.092  38.301  10.580
32732W        W 4992  40.867  21.253   0.266
32733W        W 4993  10.891   3.907   1.758
32734W        W 4994  37.049  39.681  12.400
32735W        W 4995   7.789  26.723  14.136
32736W        W 4996  15.237  16.791  10.147
32737W        W 4997  31.959  42.835  10.086
32738W        W 4998  11.885   5.261  12.789
32739W        W 4999  15.646  29.515  12.399
32740W        W 5000   2.744  17.181  10.295
32741W        W 5001  24.650   6.468  14.811
32742W        W 5002  42.124  24.842  14.565
32743W        W 5003  43.781  28.636  13.900
32744W        W 5004  25.752  10.259   3.288
32745W        W 5005   6.400  21.052   2.368
32746W        W 5006  24.460  14.750  10.546
32747W        W 5007  35.481  29.652  11.606
32748W        W 5008  11.536   7.645  13.693
32749W        W 5009  22.084  20.638  13.900
32750W        W 5010  18.610  23.931  12.426
32751W        W 5011  31.604  33.599   1.360
32752W        W 5012  23.532  13.694  10.670
32753W        W 5013  10.110  13.433   3.190
32754W        W 5014  15.810   0.194   1.885
32755W        W 5015  18.104   2.284   3.852
32756W        W 5016  25.822   1.010  11.588
32757W        W 5017  26.694  26.101   1.781
32758W        W 5018  34.471  18.095  12.450
32759W        W 5019  29.073  40.740   0.863
32760W        W 5020  41.288  35.129   2.358
32761W        W 5021  27.602  26.146  11.828
32762W        W 5022  28.524  19.722  12.108
32763W        W 5023  21.365  17.538   1.457
32764W        W 5024  27.203   3.532   2.241
32765W        W 5025  42.465  34.146  14.796
32766W        W 5026  21.769   1.248  11.460
32767W        W 5027  19.530  43.966   0.758
32768W        W 5028  31.310  43.316  14.733
32769W        W 5029   5.213  27.566   4.879
32770W        W 5030  19.691  27.208   2.780
32771W        W 5031  34.304  35.537  13.525
32772W        W 5032  32.707  41.661  13.948
32773W        W 5033   8.890  27.140  14.892
32774W        W 5034  17.087  37.352   3.317
32775W        W 5035  23.412  23.942  14.061
32776W        W 5036  42.777  17.025  14.028
32777W        W 5037   2.349  33.458  14.053
32778W        W 5038  36.601  36.965  13.494
32779W        W 5039  30.024  35.535   3.842
32780W        W 5040  36.565  37.783  14.358
32781W        W 5041  39.863  16.402  13.011
32782W        W 5042  22.508   2.761  12.510
32783W        W 5043  36.595  20.119   4.869
32784W        W 5044  11.096  23.533  13.966
32785W        W 5045  27.705  23.528  11.171
32786W        W 5046   0.903  13.527  11.499
32787W        W 5047  17.896   5.517   0.716
32788W        W 5048   2.976  10.326   1.925
32789W        W 5049   7.728  13.836  14.798
32790W        W 5050  15.880   4.264  13.422
32791W        W 5051  12.847  11.895   3.301
32792W        W 5052  27.216  23.839  12.383
32793W        W 5053   2.168  43.252  13.010
32794W        W 5054  29.066  20.739  10.619
32795W        W 5055  34.594   8.325  12.800
32796W        W 5056  14.923  38.353  12.050
32797W        W 5057  38.300   4.979  12.095
32798W        W 5058  29.178   0.352  13.561
32799W        W 5059  14.124  14.210  10.621
32800W        W 5060   6.655  35.361   1.320
32801W        W 5061  19.190   3.321  11.213
32802W        W 5062  32.157  12.713  14.901
32803W        W 5063  39.923  31.929  14.971
32804W        W 5064  10.253  29.577  11.478
32805W        W 5065  20.061   6.700   3.137
32806W        W 5066   8.242  39.457  12.845
32807W        W 5067  16.073  28.049  13.859
32808W        W 5068  23.885  20.592   5.768
32809W        W 5069  44.373  34.828  11.192
32810W        W 5070   3.882  13.922   4.156
32811W        W 5071  10.535   3.477   0.378
32812W        W 5072   6.629  35.039  12.565
32813W        W 5073  43.020  30.280  11.468
32814W        W 5074  38.759  11.216  10.736
32815W        W 5075  11.203  34.517  12.074
32816W        W 5076  13.240   9.594  11.620
32817W        W 5077  10.824   8.917  10.829
32818W        W 5078  19.209  39.349   1.685
32819W        W 5079   9.965  16.811  10.872
32820W        W 5080  16.414   5.217   0.862
32821W        W 5081   7.801  37.356  13.469
32822W        W 5082  38.738  33.467  12.818
32823W        W 5083  34.509  35.463  12.075
32824W        W 5084  11.580  28.689   1.852
32825W        W 5085  11.265  37.957   3.760
32826W        W 5086  19.814  18.750   3.815
32827W        W 5087  10.504  22.772   3.290
32828W        W 5088   9.621  31.701  11.173
32829W        W 5089  14.192  28.080   0.477
32830W        W 5090  44.078   6.093  12.956
32831W        W 5091  29.591  13.134  14.294
32832W        W 5092  29.879  41.164  11.175
32833W        W 5093  43.416  13.132   4.222
32834W        W 5094  26.078  36.851  12.998
32835W        W 5095   4.398  41.238   1.761
32836W        W 5096  31.430  13.814   2.217
32837W        W 5097  30.011  10.628  11.855
32838W        W 5098  26.280  15.558   9.996
32839W        W 5099  37.030  30.588   3.198
32840W        W 5100  15.006  40.105  11.019
32841W        W 5101  18.085  22.894  13.451
32842W        W 5102  14.020  29.073   1.922
32843W        W 5103  36.980  30.709  11.475
32844W        W 5104  31.300  39.212   3.204
32845W        W 5105  40.472  13.227  14.912
32846W        W 5106  28.502  26.321   3.383
32847W        W 5107  10.191  33.535   4.188
32848W        W 5108   4.647   6.147  12.500
32849W        W 5109  30.541  20.838   0.792
32850W        W 5110   8.620  35.854  11.874
32851W        W 5111  31.275   6.428  14.094
32852W        W 5112  27.674  14.931   1.866
32853W        W 5113  38.377  17.532   3.674
32854W        W 5114  42.507   9.435  13.902
32855W        W 5115  20.057   6.322   2.795
32856W        W 5116   6.979  18.198  14.513
32857W        W 5117  16.689   8.897  11.299
32858W        W 5118  20.575  28.581  13.793
32859W        W 5119  36.798  20.265  10.217
32860W        W 5120  23.701  16.615  12.395
32861W        W 5121   6.910  42.482   1.043
32862W        W 5122  22.306  15.008  13.148
32863W        W 5123   9.239  28.476   1.352
32864W        W 5124   8.882  28.900   2.349
32865W        W 5125  17.666  43.951   0.373
32866W        W 5126   5.131  30.379  11.416
32867W        W 5127  31.878  31.641  11.352
32868W        W 5128  19.829  23.118  11.040
32869W        W 5129  40.813  22.256  12.887
32870W        W 5130  35.856  40.379  14.010
32871W        W 5131  38.063   9.944  11.475
32872W        W 5132  10.311   3.471  13.721
32873W        W 5133  44.810  25.848  12.813
32874W        W 5134  30.166   2.958   4.163
32875W        W 5135  25.465   3.096   5.089
32876W        W 5136  30.128   4.401  13.823
32877W        W 5137  14.561  21.478  10.718
32878W        W 5138  15.833  19.895  13.913
32879W        W 5139  38.902   1.158   3.388
32880W        W 5140   6.810  38.483   1.345
32881W        W 5141  38.119  40.318   0.953
32882W        W 5142  39.173  39.379  12.974
32883W        W 5143  32.591  10.446   3.164
32884W        W 5144  29.895  37.622  11.152
32885W        W 5145  34.712  27.665  11.172
32886W        W 5146  41.397   8.380   1.510
32887W        W 5147  33.678  12.120  11.564
32888W        W 5148  29.919   4.844   4.902
32889W        W 5149  18.991  42.337  11.038
32890W        W 5150   1.806   4.762   4.526
32891W        W 5151  37.360  22.665  13.973
32892W        W 5152  32.089   2.857   1.381
32893W        W 5153  21.079  41.391   0.949
32894W        W 5154   9.258  38.160  12.453
32895W        W 5155  19.779  32.005  14.847
32896W        W 5156  33.608  13.366   1.293
32897W        W 5157  21.922  18.703   0.018
32898W        W 5158   2.804  43.249   2.944
32899W        W 5159  28.143   2.503  13.529
32900W        W 5160  36.680  23.940  11.534
32901W        W 5161  34.039  24.929   0.914
32902W        W 5162  39.097   2.263   1.544
32903W        W 5163  27.370  17.350   2.180
32904W        W 5164  37.039  30.053  14.478
32905W        W 5165  32.987  10.821   1.633
32906W        W 5166  29.438  36.369   4.660
32907W        W 5167  22.571  16.804  12.044
32908W        W 5168  43.175  19.609  10.548
32909W        W 5169  30.958  31.563   1.425
32910W        W 5170  33.901  43.410   4.454
32911W        W 5171  18.370   7.055  14.089
32912W        W 5172  44.965   5.659  12.709
32913W        W 5173  35.884  18.028   2.699
32914W        W 5174  25.028   5.091  10.503
32915W        W 5175   0.301  24.014  11.451
32916W        W 5176  44.452  17.016  13.310
32917W        W 5177  35.912  14.845   4.696
32918W        W 5178  26.897  12.317  13.459
32919W        W 5179   1.355  18.091   1.961
32920W        W 5180  27.546   4.493   1.369
32921W        W 5181  39.522  30.439  12.645
32922W        W 5182  16.255  21.372  11.003
32923W        W 5183  22.537   7.173  14.214
32924W        W 5184  17.495   5.141  10.284
32925W        W 5185  37.610  30.463   0.027
32926W        W 5186  44.557  19.129  13.880
32927W        W 5187   5.617  14.998   0.758
32928W        W 5188  13.351  30.469  14.304
32929W        W 5189  35.893   8.915   0.781
32930W        W 5190  21.021  30.253  14.417
32931W        W 5191  12.723  37.323   4.308
32932W        W 5192  33.653  25.665  13.522
32933W        W 5193  19.333  35.706  10.978
32934W        W 5194  21.733  21.075   1.678
32935W        W 5195  33.757   0.894   0.777
32936W        W 5196   4.279  34.303  11.464
32937W        W 5197  35.559  18.360  11.105
32938W        W 5198  23.153  36.517  12.946
32939W        W 5199  36.363  13.650  12.783
32940W        W 5200   8.077  26.217   4.985
32941W        W 5201   0.325   9.624   2.796
32942W        W 5202  21.969   3.754   4.551
32943W        W 5203  30.355   5.091   2.901
32944W        W 5204  24.404   7.308  14.482
32945W        W 5205  27.064  21.522   1.227
32946W        W 5206  34.599  13.124   1.756
32947W        W 5207  26.684  19.714  13.868
32948W        W 5208  26.148  29.079  10.709
32949W        W 5209  31.505  11.612  13.768
32950W        W 5210  25.956  40.815   1.303
32951W        W 5211  33.393  32.038  10.142
32952W        W 5212  44.453   9.097   1.764
32953W        W 5213  19.055   4.001   2.293
32954W        W 5214  41.968  41.992   3.318
32955W        W 5215  12.776  23.081   2.866
32956W        W 5216  33.162  30.391  14.907
32957W        W 5217  12.199  24.233   0.063
32958W        W 5218  30.489  32.455  12.830
32959W        W 5219  31.678  12.814   4.182
32960W        W 5220  25.380  21.086   3.627
32961W        W 5221   7.847  24.469   2.192
32962W        W 5222  40.520  31.003   3.319
32963W        W 5223   2.297  17.384  10.117
32964W        W 5224  42.374  28.622   4.656
32965W        W 5225  39.467  39.352   3.159
32966W        W 5226  22.041  19.202  11.689
32967W        W 5227  37.970  38.424  11.052
32968W        W 5228   5.202  26.361   1.163
32969W        W 5229  38.198  24.258  12.174
32970W        W 5230   5.255  25.906  13.284
32971W        W 5231   9.809  37.469   5.020
32972W        W 5232  12.735  18.177   2.376
32973W        W 5233  12.757  31.048   5.345
32974W        W 5234  40.323  41.837  13.951
32975W        W 5235  19.822  16.254  13.954
32976W        W 5236  14.644  40.750   0.936
32977W        W 5237   9.832  39.542  11.741
32978W        W 5238  24.985   5.248   3.161
32979W        W 5239  28.986   8.868   3.768
32980W        W 5240   8.669  27.997   3.574
32981W        W 5241  24.623  31.867  12.845
32982W        W 5242  28.317  44.740  13.759
32983W        W 5243  38.426  43.517   2.950
32984W        W 5244  28.001  27.578   3.192
32985W        W 5245  18.007  26.163  10.870
32986W        W 5246  20.718  32.453  13.618
32987W        W 5247  15.338  22.174  14.324
32988W        W 5248   3.018  43.520  12.095
32989W        W 5249  36.321  19.820  12.691
32990W        W 5250  19.524  16.691   4.858
32991W        W 5251  16.142  18.074  10.973
32992W        W 5252  29.852   8.378  13.099
32993W        W 5253  28.412  18.496  10.397
32994W        W 5254  14.683  39.103  13.604
32995W        W 5255  39.977  36.760   0.703
32996W        W 5256  12.958  24.623   3.817
32997W        W 5257  12.883   1.997  11.015
32998W        W 5258  21.964  25.224   1.069
32999W        W 5259  21.472   7.215  12.010
33000W        W 5260  30.551   7.677   1.779
33001W        W 5261  26.622  28.048   1.482
33002W        W 5262  40.726  28.183  14.435
33003W        W 5263  14.631  36.469   0.426
33004W        W 5264  24.452  29.497   2.148
33005W        W 5265  17.203  39.806  14.619
33006W        W 5266   5.198  31.550   0.389
33007W        W 5267  28.023   5.851   2.706
33008W        W 5268  43.517  42.567  13.344
33009W        W 5269  27.884  27.599   4.723
33010W        W 5270  12.094  20.237  11.423
33011W        W 5271   2.971  21.976  13.184
33012W        W 5272  38.271  36.450  12.102
33013W        W 5273  13.990  26.262   1.515
33014W        W 5274  26.488  26.507  10.685
33015W        W 5275  21.891  43.445   3.152
33016W        W 5276  17.106  25.741  12.527
33017W        W 5277  17.034  35.299  10.524
33018W        W 5278  38.440  14.910   3.665
33019W        W 5279  31.769  19.040   3.790
33020W        W 5280   2.673  30.449  12.475
33021W        W 5281  29.594   4.791  14.142
33022W        W 5282  32.478  14.751  14.318
33023W        W 5283  43.806  20.972  11.168
33024W        W 5284  27.692  38.351   4.265
33025W        W 5285  11.338  13.336   1.411
33026W        W 5286  31.315  41.628   4.255
33027W        W 5287  42.253   0.941  11.993
33028W        W 5288  17.235  40.994   0.066
33029W        W 5289  44.387  39.808  14.990
33030W        W 5290   7.448  18.183   2.862
33031W        W 5291  37.490  34.858   1.412
33032W        W 5292  18.340  17.601  14.420
33033W        W 5293  21.739  38.543  10.886
33034W        W 5294  34.979   2.930   1.604
33035W        W 5295  29.909  31.388  12.570
33036W        W 5296  43.665  12.109  12.040
33037W        W 5297  23.576   3.302   3.702
33038W        W 5298  36.166   8.225   4.081
33039W        W 5299  30.658  43.779  10.722
33040W        W 5300  35.112  26.836   0.423
33041W        W 5301  29.437  18.179   0.297
33042W        W 5302  31.981  38.976  12.890
33043W        W 5303  30.498  30.157   9.708
33044W        W 5304  33.343  30.929   3.262
33045W        W 5305  25.342  43.464  10.602
33046W        W 5306   9.921  14.834  14.011
33047W        W 5307  22.796  22.851   4.212
33048W        W 5308  40.236  25.714   1.728
33049W        W 5309   2.247  27.949   4.228
33050W        W 5310  27.487  22.695   0.808
33051W        W 5311  17.161  19.148  10.706
33052W        W 5312  20.655   6.400   1.447
33053W        W 5313  12.185  43.115   2.605
33054W        W 5314  18.559  41.804   3.844
33055W        W 5315  39.492  20.206  13.563
33056W        W 5316   8.899  26.502   0.244
33057W        W 5317  43.389   4.788  12.558
33058W        W 5318  24.796  25.641   4.816
33059W        W 5319  33.653   4.748  10.764
33060W        W 5320  13.028  44.961   3.339
33061W        W 5321  11.050  30.350   9.506
33062W        W 5322   1.277  19.734  13.479
33063W        W 5323  12.828  10.120   3.762
33064W        W 5324  21.670  10.385  14.759
33065W        W 5325   8.879  42.864   1.513
33066W        W 5326   6.360  14.547   1.354
33067W        W 5327   8.857   5.432   4.599
33068W        W 5328   6.452  19.100   3.682
33069W        W 5329  10.853  33.535  14.402
33070W        W 5330   1.379  30.825   4.675
33071W        W 5331  22.712  32.035  11.929
33072W        W 5332  12.595   2.326  10.694
33073W        W 5333   2.380  28.999   1.388
33074W        W 5334  41.620   1.993  10.985
33075W        W 5335  32.043  17.688   1.650
33076W        W 5336  38.547  41.793  13.213
33077W        W 5337  44.824  29.004  13.445
33078W        W 5338   6.210   1.953  13.639
33079W        W 5339  40.827  44.782  11.199
33080W        W 5340   7.803   4.727   2.172
33081W        W 5341   9.266   0.999   4.808
33082W        W 5342   8.307  19.318   1.861
33083W        W 5343  17.012  14.491   4.854
33084W        W 5344  10.694  38.067  10.673
33085W        W 5345  29.963  38.602   0.924
33086W        W 5346  25.637   3.224   2.141
33087W        W 5347   5.190   2.239   0.387
33088W        W 5348  16.829   7.042  12.463
33089W        W 5349  38.103  40.859  14.838
33090W        W 5350  28.892  42.863   3.533
33091W        W 5351   2.749  28.010  11.177
33092W        W 5352  12.641  25.473   0.422
33093W        W 5353  22.405  42.954   0.498
33094W        W 5354   1.348   5.017   2.438
33095W        W 5355  15.807  44.353   2.933
33096W        W 5356  28.158   6.682   0.263
33097W        W 5357   9.393  35.431   1.388
33098W        W 5358  35.193   0.360  12.434
33099W        W 5359  35.026  16.388   1.495
33100W        W 5360  21.146  31.564   3.270
33101W        W 5361  31.162  30.531  11.024
33102W        W 5362  31.449  36.337   0.334
33103W        W 5363   1.081   2.741  12.631
33104W        W 5364  17.724  18.472   3.781
33105W        W 5365  42.871  36.932   0.238
33106W        W 5366  15.727  14.762   3.534
33107W        W 5367   0.542   7.783  12.974
33108W        W 5368  12.285   5.957   3.760
33109W        W 5369  40.071   1.830   4.646
33110W        W 5370  41.412   6.249  12.202
33111W        W 5371  41.286   2.246  12.033
33112W        W 5372   7.216   2.357   0.428
33113W        W 5373   8.822   8.306   3.132
33114W        W 5374  26.438  24.483  10.693
33115W        W 5375   0.268  17.075  11.209
33116W        W 5376   1.737  22.113  12.599
33117W        W 5377  38.209   7.787   3.745
33118W        W 5378  15.371   5.331  10.199
33119W        W 5379   1.229   5.848   3.062
33120W        W 5380  21.092  30.755  13.559
33121W        W 5381   0.542  14.872  14.001
33122W        W 5382  38.437  42.780   1.796
33123W        W 5383  33.666  10.827   3.175
33124W        W 5384   2.896  26.600   2.110
33125W        W 5385   2.171   7.855   3.782
33126W        W 5386  14.437  17.289  12.062
33127W        W 5387  34.137  34.122   2.830
33128W        W 5388  24.938  25.406  14.498
33129W        W 5389  10.716  38.621  10.680
33130W        W 5390  38.851  21.869  13.728
33131W        W 5391  28.618  30.956   2.700
33132W        W 5392  20.045  10.869  11.494
33133W        W 5393  10.685  34.445  10.987
33134W        W 5394  27.342   8.701   3.653
33135W        W 5395  43.431  24.077   4.560
33136W        W 5396  27.738   6.671   4.476
33137W        W 5397   8.157  33.583  14.343
33138W        W 5398  24.071  19.311   3.758
33139W        W 5399  14.831  22.658  12.022
33140W        W 5400  31.964  20.035  11.579
33141W        W 5401  38.569  25.757  13.057
33142W        W 5402   2.427  44.552   2.857
33143W        W 5403  29.973   0.749   0.574
33144W        W 5404  22.852  27.105  10.135
33145W        W 5405  25.534  13.852  10.894
33146W        W 5406  39.815  43.392  14.854
33147W        W 5407  11.351  19.148  13.652
33148W        W 5408  21.615  29.615  14.691
33149W        W 5409  44.834  39.205  12.568
33150W        W 5410  22.481  33.113   1.222
33151W        W 5411  11.592  22.253   4.186
33152W        W 5412  29.651  38.390  13.826
33153W        W 5413  29.658  30.664   1.251
33154W        W 5414  19.474   0.543   3.631
33155W        W 5415  10.835   8.948  13.904
33156W        W 5416  37.146  36.598   5.019
33157W        W 5417  38.409  42.855  12.899
33158W        W 5418   3.160  44.696   2.329
33159W        W 5419  37.862  27.540   4.673
33160W        W 5420   7.049   4.253  13.018
33161W        W 5421  28.811  43.526  13.599
33162W        W 5422  18.315  34.767  10.992
33163W        W 5423  13.320   3.111   2.741
33164W        W 5424  34.069  14.141   1.253
33165W        W 5425  34.217  27.892  11.856
33166W        W 5426  13.530  40.193  13.851
33167W        W 5427  30.542  34.554   4.653
33168W        W 5428  18.709  35.862   0.761
33169W        W 5429  28.741  35.584  11.223
33170W        W 5430  38.792  17.670  13.960
33171W        W 5431   9.609  36.969  12.847
33172W        W 5432  29.620  28.261   0.144
33173W        W 5433   0.754  11.205   3.630
33174W        W 5434  11.268  22.696  12.502
33175W        W 5435  31.476  21.110  11.858
33176W        W 5436  24.466  38.309  12.438
33177W        W 5437  43.415  12.702  10.018
33178W        W 5438  36.020   1.694   2.845
33179W        W 5439  29.156  19.551  14.829
33180W        W 5440   1.496  15.158  14.188
33181W        W 5441  33.439  39.410   2.624
33182W        W 5442  33.604  11.243  11.079
33183W        W 5443   1.387  40.783  11.238
33184W        W 5444  39.444  24.606   3.901
33185W        W 5445  42.932  19.834   2.789
33186W        W 5446   7.293  37.753  13.924
33187W        W 5447  24.703  26.260  13.007
33188W        W 5448   6.522  36.552   3.682
33189W        W 5449  25.373   8.737   0.716
33190W        W 5450   2.982  22.508   1.410
33191W        W 5451  30.920  35.375  14.056
33192W        W 5452  25.585  11.844   2.245
33193W        W 5453  11.571  29.390   4.970
33194W        W 5454  34.165  35.929   3.179
33195W        W 5455  41.420  43.392  10.750
33196W        W 5456  37.028  44.922   4.043
33197W        W 5457   0.176  34.146   0.402
33198W        W 5458  26.633  17.248   0.464
33199W        W 5459   3.577  11.761   0.842
33200W        W 5460  16.160  17.119  12.399
33201W        W 5461   4.911  19.510   0.678
33202W        W 5462  44.991  42.527   3.321
33203W        W 5463  17.818  29.861  12.510
33204W        W 5464  20.634  40.371  12.634
33205W        W 5465   7.431  28.762  14.345
33206W        W 5466  10.752  17.704  12.469
33207W        W 5467   4.515  34.418   3.732
33208W        W 5468  43.384  30.198  14.995
33209W        W 5469  40.902  32.948   2.046
33210W        W 5470  23.064   1.948  13.846
33211W        W 5471  39.430  12.548   3.286
33212W        W 5472  18.543  32.085  10.652
33213W        W 5473  36.388  27.689  11.518
33214W        W 5474   4.700  18.593   0.375
33215W        W 5475  20.563  22.179  10.978
33216W        W 5476  15.678  16.679   3.737
33217W        W 5477  37.364   0.030  13.270
33218W        W 5478   5.127   8.396  14.018
33219W        W 5479  35.325  34.379  11.037
33220W        W 5480  40.347  31.535   4.577
33221W        W 5481  40.495  12.609  13.988
33222W        W 5482  11.608  12.566  12.516
33223W        W 5483  41.559  14.807   1.527
33224W        W 5484  37.054  27.626  10.889
33225W        W 5485  38.073  37.155  12.404
33226W        W 5486  11.534  41.185   4.962
33227W        W 5487  35.317  33.192  12.456
33228W        W 5488  14.263   1.746  14.453
33229W        W 5489  20.478  15.591   2.727
33230W        W 5490  13.099  39.442   0.928
33231W        W 5491   2.856  42.504  14.868
33232W        W 5492  14.526   2.421   4.671
33233W        W 5493   3.780   3.843  13.054
33234W        W 5494  18.676  23.542  14.406
33235W        W 5495  42.893  27.132  11.396
33236W        W 5496   3.936   1.042   0.343
33237W        W 5497  26.793  33.973   1.406
33238W        W 5498  38.893  15.264   0.033
33239W        W 5499  15.259  20.577   2.237
33240W        W 5500  21.077  11.147  13.353
33241W        W 5501  19.395  10.880   1.927
33242W        W 5502  23.028  37.370  10.299
33243W        W 5503  19.267  43.769  14.332
33244W        W 5504  17.074  29.560   1.249
33245W        W 5505  17.167   8.495   2.349
33246W        W 5506  35.815   8.188  11.212
33247W        W 5507  14.108   2.871   0.481
33248W        W 5508   7.780  13.098   3.280
33249W        W 5509   9.765   3.432  11.371
33250W        W 5510   6.176  24.890  14.880
33251W        W 5511  43.696  21.536   4.565
33252W        W 5512  29.344  10.099  13.383
33253W        W 5513   5.233  41.605   4.029
33254W        W 5514  32.130  43.102  13.817
33255W        W 5515   9.728   0.744  11.085
33256W        W 5516  42.399  12.812  11.084
33257W        W 5517   9.240  16.880   4.499
33258W        W 5518   5.361  15.472   3.334
33259W        W 5519  38.384  35.538  14.771
33260W        W 5520  12.858  24.489   4.628
33261W        W 5521   7.808   7.124  12.876
33262W        W 5522  40.432  23.212   2.747
33263W        W 5523  37.912  29.579  14.916
33264W        W 5524  13.223  22.157  14.982
33265W        W 5525  17.745  39.828  13.647
33266W        W 5526   2.420  19.714   1.740
33267W        W 5527  26.612  20.065   2.210
33268W        W 5528  42.025   5.908   2.277
33269W        W 5529   6.137   8.718  11.528
33270W        W 5530  16.210  30.118  11.133
33271W        W 5531  14.593  17.804   0.468
33272W        W 5532  32.341  38.350   2.076
33273W        W 5533  28.158   1.491  11.117
33274W        W 5534  26.613   9.359   4.907
33275W        W 5535  39.892   7.021  11.521
33276W        W 5536  35.116  17.749   0.835
33277W        W 5537  19.273  31.057  13.788
33278W        W 5538   4.445  24.709   2.822
33279W        W 5539   5.138   7.924  10.914
33280W        W 5540   0.194  40.058  14.244
33281W        W 5541  32.667  44.044   2.703
33282W        W 5542  43.030  26.194   4.133
33283W        W 5543  20.331  17.947  12.909
33284W        W 5544  27.151   0.281  11.694
33285W        W 5545   4.280  31.101   1.385
33286W        W 5546  39.027   7.651  11.629
33287W        W 5547  41.372  19.690  11.337
33288W        W 5548   0.862  43.230   2.146
33289W        W 5549  30.142  11.341  11.210
33290W        W 5550  34.002  30.882   1.886
33291W        W 5551   0.882   3.965   0.611
33292W        W 5552   1.896  11.382   2.505
33293W        W 5553   6.536   6.003   0.873
33294W        W 5554   6.403  31.918   4.589
33295W        W 5555  25.022  24.297   1.468
33296W        W 5556  41.902  26.376   0.978
33297W        W 5557  25.178  36.386  14.719
33298W        W 5558  40.572  29.206   4.862
33299W        W 5559   9.710   7.111  13.979
33300W        W 5560  21.535   9.217   0.326
33301W        W 5561  31.892  31.355  13.211
33302W        W 5562  39.125  26.545  13.489
33303W        W 5563  22.023  28.457  11.419
33304W        W 5564  43.499   9.700  13.379
33305W        W 5565  33.942  17.309   4.242
33306W        W 5566  34.079  17.438  11.973
33307W        W 5567  11.368  42.851   4.472
33308W        W 5568  20.262  29.610   1.032
33309W        W 5569  31.845  39.854  13.320
33310W        W 5570  11.884   0.799  11.111
33311W        W 5571  22.646   5.908   1.220
33312W        W 5572  44.431  24.796  11.036
33313W        W 5573  33.165  30.513  12.197
33314W        W 5574  35.494  20.064   2.381
33315W        W 5575   1.444   7.500   3.336
33316W        W 5576  39.816  22.650   3.045
33317W        W 5577  39.844  12.659  14.450
33318W        W 5578  26.486  30.568  10.704
33319W        W 5579  10.374  16.521  11.028
33320W        W 5580  23.093  39.326   2.777
33321W        W 5581  40.507  24.055   1.704
33322W        W 5582   4.576   4.898  13.911
33323W        W 5583  38.335   4.673   2.681
33324W        W 5584  11.115   0.407   0.942
33325W        W 5585  26.002  19.093  10.644
33326W        W 5586   8.195   1.296   0.934
33327W        W 5587  17.713  22.318   4.677
33328W        W 5588  36.171   7.945  13.731
33329W        W 5589   8.976  21.740   1.936
33330W        W 5590  13.186  37.079  11.970
33331W        W 5591   4.775   2.366   1.130
33332W        W 5592  38.594  11.704   1.842
33333W        W 5593   1.943  34.992   0.543
33334W        W 5594  17.566  37.730   4.788
33335W        W 5595   1.274   9.762   2.720
33336W        W 5596  43.915  39.872  12.675
33337W        W 5597  25.422  23.029  12.948
33338W        W 5598  19.947  10.865  10.754
33339W        W 5599   0.263  21.545  11.582
33340W        W 5600   8.896  40.058  11.640
33341W        W 5601  18.173  25.197   2.263
33342W        W 5602  24.644  40.073  11.822
33343W        W 5603  19.840  43.909  13.838
33344W        W 5604  36.321  22.277  14.163
33345W        W 5605  39.527   8.566   0.963
33346W        W 5606   3.909  23.463  14.876
33347W        W 5607   3.000   4.889   2.653
33348W        W 5608   6.319  14.330  12.824
33349W        W 5609   5.206  30.182   3.314
33350W        W 5610  35.017  30.047  11.443
33351W        W 5611  21.159  27.532   5.071
33352W        W 5612  16.520   6.279  12.871
33353W        W 5613  27.548  15.192   0.658
33354W        W 5614   9.838  36.983   4.087
33355W        W 5615  39.126  20.616   2.297
33356W        W 5616   7.980  17.057   0.441
33357W        W 5617  43.336  28.529  13.640
33358W        W 5618  38.736  22.061   1.508
33359W        W 5619   1.768   0.674   2.772
33360W        W 5620  17.275   9.445   3.563
33361W        W 5621   6.321  21.965   0.274
33362W        W 5622  38.340  18.589   1.729
33363W        W 5623  24.886  41.546  13.001
33364W        W 5624  27.806  44.989  14.373
33365W        W 5625  17.622  19.308   0.251
33366W        W 5626   2.356   1.949   4.593
33367W        W 5627  40.993  19.241   3.250
33368W        W 5628  40.526  13.149   0.425
33369W        W 5629  19.027   3.480   2.353
33370W        W 5630  31.881  36.553   3.198
33371W        W 5631   7.326   2.020  13.702
33372W        W 5632   9.238  42.235  12.934
33373W        W 5633  36.404  14.984  12.900
33374W        W 5634  38.787  42.491  12.337
33375W        W 5635   6.885  38.434  14.885
33376W        W 5636  17.508  16.216   3.621
33377W        W 5637  31.921   8.899   2.717
33378W        W 5638   2.991  27.450   3.141
33379W        W 5639  29.221  43.793   3.751
33380W        W 5640  43.937  44.855  13.850
33381W        W 5641  35.450  21.192   1.652
33382W        W 5642  31.041   0.227   4.607
33383W        W 5643  31.746  24.506   0.927
33384W        W 5644  18.566  37.580  12.401
33385W        W 5645  27.345   8.284   3.343
33386W        W 5646   3.226  26.865  12.549
33387W        W 5647  27.745   6.237   1.443
33388W        W 5648  34.920  30.653  14.502
33389W        W 5649  35.651  15.300  12.463
33390W        W 5650   7.703  19.152   3.269
33391W        W 5651  32.769  35.870   2.341
33392W        W 5652  14.359  37.268  13.991
33393W        W 5653   0.769  13.916  14.372
33394W        W 5654  25.780  11.062   2.820
33395W        W 5655  11.809  21.068   1.938
33396W        W 5656  44.057  39.525  11.620
33397W        W 5657  16.594   5.750   4.073
33398W        W 5658  42.196  31.177   2.381
33399W        W 5659  30.080  14.820   2.838
33400W        W 5660  42.328  26.255  13.458
33401W        W 5661   2.489  11.342   1.344
33402W        W 5662  43.588  22.283  10.876
33403W        W 5663  27.670   6.136  14.779
33404W        W 5664  10.785  42.984  11.726
33405W        W 5665  44.192  14.450  11.181
33406W        W 5666  28.831  34.460   1.019
33407W        W 5667   9.353  41.452  13.977
33408W        W 5668  31.906  42.022  14.931
33409W        W 5669   4.966   3.897  13.511
33410W        W 5670  17.487  19.774  12.859
33411W        W 5671  24.849  24.225  11.536
33412W        W 5672  35.800  26.893  14.356
33413W        W 5673  30.228   3.787   0.751
33414W        W 5674  27.227  37.049   3.937
33415W        W 5675  32.971  36.975  13.621
33416W        W 5676   6.739  21.081  11.990
33417W        W 5677  33.144   7.926   0.043
33418W        W 5678  42.289  43.755   0.382
33419W        W 5679  34.522  22.117  14.320
33420W        W 5680  27.196  42.748   4.167
33421W        W 5681  16.713   6.981   3.797
33422W        W 5682  43.941  24.612  13.824
33423W        W 5683  25.737   3.902  13.900
33424W        W 5684  31.941  39.321   4.763
33425W        W 5685  41.122  16.147   4.382
33426W        W 5686  36.925  18.301  10.845
33427W        W 5687  11.636  10.336   1.349
33428W        W 5688  31.071  32.442   4.715
33429W        W 5689  19.786  16.032   0.774
33430W        W 5690  41.742  20.122   2.116
33431W        W 5691  43.245  34.674  13.846
33432W        W 5692   3.795  44.793  12.121
33433W        W 5693  32.941  20.085   4.719
33434W        W 5694  30.616  34.987  14.202
33435W        W 5695  40.350  24.544  10.642
33436W        W 5696  34.392   1.899  12.143
33437W        W 5697  39.547   5.379  14.486
33438W        W 5698   5.161  12.759   0.605
33439W        W 5699  16.318  19.697  13.890
33440W        W 5700  29.920  21.863   1.305
33441W        W 5701  19.336  26.817   1.437
33442W        W 5702  17.518   2.916  13.489
33443W        W 5703  25.503  23.294  10.627
33444W        W 5704   0.479  28.694   1.412
33445W        W 5705  15.160   4.275  11.633
33446W        W 5706  44.649  28.939  12.013
33447W        W 5707  16.589   3.108   4.267
33448W        W 5708  23.716  34.873   1.252
33449W        W 5709  16.595   1.000   1.905
33450W        W 5710  38.705  41.502   4.528
33451W        W 5711  28.015  11.659   4.437
33452W        W 5712   2.467   6.117   4.245
33453W        W 5713   3.393   4.210   4.594
33454W        W 5714  41.951  17.746  11.958
33455W        W 5715  11.360  14.206  13.481
33456W        W 5716  33.671  16.585  11.563
33457W        W 5717  31.666  40.111   0.352
33458W        W 5718   0.275   2.004   4.365
33459W        W 5719  15.244  10.167  13.164
33460W        W 5720  25.933  39.295   4.144
33461W        W 5721  32.161   9.649  11.517
33462W        W 5722  36.337  32.639  14.268
33463W        W 5723  37.617  16.303   0.317
33464W        W 5724  35.045   9.862  14.870
33465W        W 5725  42.562  37.975   2.160
33466W        W 5726   8.417  42.603  11.966
33467W        W 5727   8.470   3.271  13.512
33468W        W 5728   4.328  23.498  11.250
33469W        W 5729  25.281   6.138  12.634
33470W        W 5730  12.262  16.795   3.859
33471W        W 5731  16.589   6.821   4.654
33472W        W 5732  32.876   5.483   3.866
33473W        W 5733  42.713  29.081   4.291
33474W        W 5734  34.494  26.478   1.440
33475W        W 5735  26.205  41.327   5.542
33476W        W 5736  15.140   8.253  14.361
33477W        W 5737   1.108   1.876  14.315
33478W        W 5738  29.983   2.690   2.094
33479W        W 5739   8.276  36.929  14.449
33480W        W 5740  19.511  33.157   2.792
33481W        W 5741  32.290  35.128  14.593
33482W        W 5742   5.681  24.971   4.138
33483W        W 5743  21.738  18.166   3.092
33484W        W 5744   9.300  37.527   4.913
33485W        W 5745   3.018  15.704   3.686
33486W        W 5746  40.512   2.469  13.627
33487W        W 5747  32.343  17.557   0.797
33488W        W 5748  23.205  20.023  11.580
33489W        W 5749  33.699  24.829  13.711
33490W        W 5750  33.079   7.059  14.115
33491W        W 5751  16.121  13.653  13.432
33492W        W 5752  32.088  35.623  11.564
33493W        W 5753  37.045  18.878   5.039
33494W        W 5754   8.307  17.068   1.871
33495W        W 5755  36.572  29.427  11.970
33496W        W 5756   9.689  19.205   2.653
33497W        W 5757  38.065  30.088   3.689
33498W        W 5758   2.462  18.099   1.404
33499W        W 5759  10.686   3.257  14.029
33500W        W 5760  22.177  24.239   0.858
33501W        W 5761  14.006   3.807  13.058
33502W        W 5762  40.904  38.877   4.698
33503W        W 5763  43.200  13.155  14.869
33504W        W 5764  15.099  38.122  11.372
33505W        W 5765  43.439  19.945   1.743
33506W        W 5766  22.409  26.174   9.740
33507W        W 5767  29.917  10.813   2.679
33508W        W 5768  21.009  33.419   3.704
33509W        W 5769  43.215  31.037   4.653
33510W        W 5770  36.090  31.706  13.882
33511W        W 5771  35.574  21.031  10.940
33512W        W 5772   2.406  13.751   4.474
33513W        W 5773  35.962  13.816   3.574
33514W        W 5774   3.553   6.246   0.361
33515W        W 5775  16.575  31.362  11.180
33516W        W 5776  43.090  43.910   3.612
33517W        W 5777  40.099  32.095  13.952
33518W        W 5778  27.466  27.493   2.145
33519W        W 5779  10.937  22.956  12.812
33520W        W 5780   2.416  30.075   1.355
33521W        W 5781   0.869  18.242   2.681
33522W        W 5782  39.559  32.572   0.401
33523W        W 5783   3.894   3.750   2.322
33524W        W 5784  28.459  41.849   1.473
33525W        W 5785  30.890  35.506  12.135
33526W        W 5786  35.484  14.586   0.031
33527W        W 5787  34.581  29.950  14.343
33528W        W 5788   6.426  27.998   4.730
33529W        W 5789  21.162  31.201  13.269
33530W        W 5790  20.364  12.208  12.926
33531W        W 5791  20.942  37.933   2.210
33532W        W 5792  11.564  25.499   1.182
33533W        W 5793  25.077  28.605  11.484
33534W        W 5794  34.864  22.890  12.535
33535W        W 5795  27.949  31.548  14.716
33536W        W 5796  18.415  12.871  11.157
33537W        W 5797  11.880  29.099   0.964
33538W        W 5798  13.117  33.253   0.323
33539W        W 5799  20.519  13.519  11.963
33540W        W 5800  20.935  18.953   5.546
33541W        W 5801  23.922  19.503  11.081
33542W        W 5802   7.443  39.353   1.382
33543W        W 5803  37.793   3.424  13.858
33544W        W 5804  44.044  28.159   0.238
33545W        W 5805  36.441  34.070   3.184
33546W        W 5806  26.457  36.063   1.841
33547W        W 5807  18.080  19.513  13.413
33548W        W 5808   0.339  21.621   3.620
33549W        W 5809  36.966  12.641   4.285
33550W        W 5810   1.299  35.810   1.794
33551W        W 5811  34.001  24.975  12.648
33552W        W 5812  31.467   8.289   1.381
33553W        W 5813  38.646  42.944  10.652
33554W        W 5814   3.690  27.676   4.321
33555W        W 5815  43.277  21.080   3.862
33556W        W 5816  25.070  24.774   2.377
33557W        W 5817   6.772  40.483  13.236
33558W        W 5818  15.524  28.533   2.226
33559W        W 5819   5.177  29.080   0.940
33560W        W 5820   7.173  11.812   2.295
33561W        W 5821  38.521  15.320   1.801
33562W        W 5822  11.870  11.913  11.338
33563W        W 5823  41.319  12.355   4.206
33564W        W 5824  43.412  29.572  13.971
33565W        W 5825  10.864  22.686   2.374
33566W        W 5826   8.108  15.202  10.858
33567W        W 5827  15.774  19.317  14.879
33568W        W 5828  23.165  22.588   3.963
33569W        W 5829  40.538  18.511  14.329
33570W        W 5830  10.307   8.164   0.326
33571W        W 5831  32.089   9.884   4.272
33572W        W 5832  11.679  44.225  10.230
33573W        W 5833   0.165  27.130   0.007
33574W        W 5834  41.080   2.802  11.171
33575W        W 5835  42.380   2.477  13.484
33576W        W 5836  33.623  36.298   3.490
33577W        W 5837   3.877   9.850   2.344
33578W        W 5838  26.756   2.532   1.655
33579W        W 5839  38.854   4.915  12.022
33580W        W 5840   8.439   2.366  11.137
33581W        W 5841  18.208  41.353  12.761
33582W        W 5842  42.455   4.220   2.403
33583W        W 5843  27.998   1.598   2.730
33584W        W 5844   1.751  33.940   0.286
33585W        W 5845  40.575   7.021  10.970
33586W        W 5846  42.596  28.166  11.816
33587W        W 5847  18.188   5.969   2.675
33588W        W 5848   5.818   5.314   2.507
33589W        W 5849  44.635  23.261  13.957
33590W        W 5850   0.944  16.311  10.700
33591W        W 5851   9.437  12.636   3.698
33592W        W 5852   5.713  24.550   2.321
33593W        W 5853  43.414  34.145   3.714
33594W        W 5854   3.543  22.234   2.723
33595W        W 5855   3.172  40.213   4.280
33596W        W 5856  28.476  35.966  10.984
33597W        W 5857  38.791  16.007  12.954
33598W        W 5858  29.984  34.686  13.373
33599W        W 5859  24.066  16.771  14.001
33600W        W 5860  13.418  12.699  10.301
33601W        W 5861   5.966  37.555   3.273
33602W        W 5862  35.805   9.583   1.298
33603W        W 5863  32.127  32.507  11.847
33604W        W 5864  36.461   8.621   5.102
33605W        W 5865  14.117  34.388   2.695
33606W        W 5866   9.998  29.526   3.681
33607W        W 5867  34.653  34.975  11.915
33608W        W 5868  33.429  25.966   4.727
33609W        W 5869  36.817   8.770  12.145
33610W        W 5870  28.546  43.519   4.555
33611W        W 5871   8.150   0.734   0.957
33612W        W 5872  38.006   6.650  14.383
33613W        W 5873  17.171  20.161  12.870
33614W        W 5874  11.116   9.820   3.840
33615W        W 5875   9.157  38.932  12.878
33616W        W 5876  27.263   5.789  14.374
33617W        W 5877  16.019  33.498  11.989
33618W        W 5878  17.590  20.756   0.223
33619W        W 5879  26.246  11.783   4.283
33620W        W 5880  37.817   2.394  11.272
33621W        W 5881  13.550  44.067  10.424
33622W        W 5882  40.022  18.324   3.674
33623W        W 5883  37.238   6.346  14.365
33624W        W 5884  22.583  25.968  11.636
33625W        W 5885  25.724   1.952  11.577
33626W        W 5886   9.891  31.672   4.165
33627W        W 5887  41.776  11.300   2.372
33628W        W 5888   8.179  41.846  10.778
33629W        W 5889  13.695  38.831   1.007
33630W        W 5890  16.954  18.816  11.637
33631W        W 5891   8.992   5.795   0.928
33632W        W 5892   9.874   6.941   1.770
33633W        W 5893   7.725  32.018  11.656
33634W        W 5894  34.016  10.904  12.450
33635W        W 5895  21.505  18.324  11.631
33636W        W 5896  37.204  30.448  11.069
33637W        W 5897  24.497  25.253  11.962
33638W        W 5898  24.409   2.321  11.662
33639W        W 5899  44.277  20.824   4.925
33640W        W 5900  31.838  12.559  13.791
33641W        W 5901  37.511  14.269  14.046
33642W        W 5902   3.673  40.999   3.368
33643W        W 5903  38.847   0.872  14.367
33644W        W 5904  35.002  22.286  12.848
33645W        W 5905  28.374  29.151  14.523
33646W        W 5906  21.687  39.230   0.937
33647W        W 5907  44.717  43.758   1.793
33648W        W 5908  24.947  36.099   1.019
33649W        W 5909   8.180  15.194   2.804
33650W        W 5910  13.872   4.159   0.150
33651W        W 5911  25.141   5.147  13.998
33652W        W 5912  29.134  22.930   0.220
33653W        W 5913  26.099  19.734  11.989
33654W        W 5914  39.821   0.919  10.661
33655W        W 5915  31.833  41.296   3.673
33656W        W 5916  34.533  25.011   3.641
33657W        W 5917  34.463  33.942   3.242
33658W        W 5918   8.040  15.716  11.038
33659W        W 5919  44.393  32.587   2.854
33660W        W 5920  17.662  22.424  12.039
33661W        W 5921   5.435  40.192  10.728
33662W        W 5922  17.604   0.758   1.804
33663W        W 5923  18.702  39.356  13.863
33664W        W 5924  31.585  44.766   2.363
33665W        W 5925  17.925   5.016  10.982
33666W        W 5926  31.426  21.206   4.682
33667W        W 5927  16.719  14.782  11.135
33668W        W 5928  18.484  18.687   1.967
33669W        W 5929  44.791  37.195  12.364
33670W        W 5930   9.843   9.569  11.891
33671W        W 5931  31.148   5.453   3.104
33672W        W 5932  35.863  28.686   3.570
33673W        W 5933   2.198  27.634  12.566
33674W        W 5934  19.779   0.263  14.334
33675W        W 5935  36.580  34.088  14.481
33676W        W 5936  31.165  12.674   4.622
33677W        W 5937  20.122  29.201   2.014
33678W        W 5938  16.789  32.126  13.366
33679W        W 5939  19.469  21.689   0.512
33680W        W 5940  40.930  29.155   3.323
33681W        W 5941   5.016  34.430  14.890
33682W        W 5942   9.785  21.033   3.539
33683W        W 5943   5.173  41.379  12.090
33684W        W 5944   1.002  42.423   0.173
33685W        W 5945  11.653  13.674  10.882
33686W        W 5946  11.889  14.211  13.485
33687W        W 5947  26.146   6.564  11.674
33688W        W 5948  40.725  22.044  14.417
33689W        W 5949  10.305  44.249   0.319
33690W        W 5950   6.656  15.834  10.081
33691W        W 5951  29.528  41.314   1.379
33692W        W 5952   3.387   7.976  14.533
33693W        W 5953   2.835   3.381   0.329
33694W        W 5954  42.575  42.132   3.311
33695W        W 5955  33.048  44.559  12.077
33696W        W 5956   8.422  10.769  14.069
33697W        W 5957  44.713  20.171  14.878
33698W        W 5958  11.143  17.971   2.074
33699W        W 5959   0.473  35.285  11.429
33700W        W 5960  21.648  33.866  14.670
33701W        W 5961   7.891  36.273   0.440
33702W        W 5962  23.649  40.022   4.564
33703W        W 5963   7.314   2.715   0.822
33704W        W 5964  28.410  32.539   1.953
33705W        W 5965  41.882  42.917   0.807
33706W        W 5966  30.744  19.691   3.240
33707W        W 5967  25.919   9.692  13.112
33708W        W 5968   9.872  16.227  12.175
33709W        W 5969  39.702  19.208  14.342
33710W        W 5970  17.105  27.397  10.701
33711W        W 5971   4.842  17.533   1.327
33712W        W 5972   1.299   1.597   1.770
33713W        W 5973  14.248  11.624   4.727
33714W        W 5974  27.938  39.561  11.388
33715W        W 5975  31.571  32.977  14.325
33716W        W 5976  39.788  11.882  11.096
33717W        W 5977  28.891  13.398  13.111
33718W        W 5978  41.777   1.823   0.920
33719W        W 5979  23.621  15.059  14.308
33720W        W 5980  40.017  30.910  12.068
33721W        W 5981  37.985  25.919   0.211
33722W        W 5982  25.892  38.641   5.086
33723W        W 5983   0.361  31.043   1.823
33724W        W 5984  20.186  17.833  14.890
33725W        W 5985   8.826  14.560  11.502
33726W        W 5986  20.956  32.023  10.732
33727W        W 5987  21.235   8.035   5.155
33728W        W 5988  11.158  26.015  11.928
33729W        W 5989  26.094  42.395   0.969
33730W        W 5990  15.714  26.315  10.384
33731W        W 5991  16.821   6.693   4.216
33732W        W 5992  18.652  41.365  14.036
33733W        W 5993  23.550  37.992  13.126
33734W        W 5994  34.022  40.213   1.160
33735W        W 5995  40.594   1.820   2.913
33736W        W 5996  44.734   5.186  14.746
33737W        W 5997   0.581   2.671  10.115
33738W        W 5998   2.719  10.785  13.046
33739W        W 5999  26.094  28.665   1.272
33740W        W 6000  16.309  10.836   4.581
33741W        W 6001  38.911  34.361   2.349
33742W        W 6002  14.085  13.301  12.280
33743W        W 6003  42.761   9.569  14.381
33744W        W 6004  15.101  40.023  14.445
33745W        W 6005   9.630   9.766  11.025
33746W        W 6006  29.823  25.582   2.371
33747W        W 6007  15.321  35.916   2.392
33748W        W 6008  35.603  24.576  13.133
33749W        W 6009  19.695  37.416   4.563
33750W        W 6010  24.640   0.377   3.691
33751W        W 6011  30.843  23.107   4.231
33752W        W 6012  10.132  13.327  11.970
33753W        W 6013  32.259  18.116   2.831
33754W        W 6014  37.853  26.063  13.294
33755W        W 6015  43.668  21.715  11.527
33756W        W 6016  21.824   6.934   3.065
33757W        W 6017   4.921  15.528  14.457
33758W        W 6018  38.483   4.149   1.708
33759W        W 6019  33.405  18.528   3.211
33760W        W 6020  11.339  16.187  11.180
33761W        W 6021  31.152  15.564   1.029
33762W        W 6022  22.794   3.188   5.004
33763W        W 6023  42.535  19.901  13.245
33764W        W 6024   6.671  23.035  12.328
33765W        W 6025   8.753  42.133  12.842
33766W        W 6026  33.599  28.126   0.165
33767W        W 6027  11.704  28.406  11.982
33768W        W 6028  24.484   9.756   0.835
33769W        W 6029  11.138  35.597   1.006
33770W        W 6030  43.588  34.308   3.236
33771W        W 6031  28.944  26.785   1.512
33772W        W 6032  27.025  11.416   0.314
33773W        W 6033  20.109  35.392  14.393
33774W        W 6034  21.018   2.929   0.882
33775W        W 6035   9.760  11.416  12.012
33776W        W 6036  33.533  14.052  10.643
33777W        W 6037   3.232  27.945   4.237
33778W        W 6038   8.770  11.763   0.794
33779W        W 6039   8.727   5.234   2.879
33780W        W 6040  16.712  43.409   0.752
33781W        W 6041  43.042  36.496   2.792
33782W        W 6042  11.545  10.666   4.840
33783W        W 6043  21.618   6.838  14.311
33784W        W 6044  20.604  32.574   1.416
33785W        W 6045  19.201  15.869   2.278
33786W        W 6046  39.462   7.303  10.642
33787W        W 6047  44.392  33.888   3.875
33788W        W 6048  31.708  36.805   0.312
33789W        W 6049  41.887  26.659  12.003
33790W        W 6050  18.699  16.701   3.370
33791W        W 6051  35.450  15.559   4.393
33792W        W 6052   4.742  23.682  12.049
33793W        W 6053  39.181   6.776   5.557
33794W        W 6054  14.312   4.482  13.508
33795W        W 6055  26.259  33.660   2.587
33796W        W 6056  42.255  33.697  12.084
33797W        W 6057  31.135   5.269   4.710
33798W        W 6058  32.957  19.017   9.814
33799W        W 6059   0.964  39.292   2.293
33800W        W 6060   9.266  29.431   4.860
33801W        W 6061  17.750   9.824   1.363
33802W        W 6062  28.350  20.299  12.166
33803W        W 6063  19.240  42.863   1.948
33804W        W 6064  16.099   7.191   0.434
33805W        W 6065  29.889  22.634  10.403
33806W        W 6066  25.122   9.224   4.804
33807W        W 6067  40.379  22.418   2.397
33808W        W 6068   5.014  33.072   3.640
33809W        W 6069  11.598  12.712  13.990
33810W        W 6070  36.336  19.780  14.912
33811W        W 6071  13.207  40.996   4.581
33812W        W 6072  15.990   5.959   1.660
33813W        W 6073  14.811  33.740   4.112
33814W        W 6074  40.685  36.277   2.375
33815W        W 6075  18.693   4.763  14.907
33816W        W 6076  22.617   3.791   4.158
33817W        W 6077  19.512   1.331   1.344
33818W        W 6078  31.150  19.667   2.891
33819W        W 6079  40.464   2.233  10.541
33820W        W 6080  30.977   7.755  10.656
33821W        W 6081  20.657  39.071   1.776
33822W        W 6082   5.293  41.847  14.827
33823W        W 6083  21.173   6.896  11.553
33824W        W 6084   5.783  20.606  11.514
33825W        W 6085  13.096  12.190  11.435
33826W        W 6086   5.982  27.601   1.247
33827W        W 6087   3.411  27.753   1.801
33828W        W 6088   0.016  37.574  13.390
33829W        W 6089  14.278  18.208  10.993
33830W        W 6090  24.619  18.838  11.617
33831W        W 6091  43.423  25.120  14.327
33832W        W 6092  16.325  22.944   0.411
33833W        W 6093   6.142  38.813  11.166
33834W        W 6094  22.696  39.805   4.649
33835W        W 6095  40.568   7.322   4.364
33836W        W 6096   9.349  13.102  13.311
33837W        W 6097   5.717  29.962   2.228
33838W        W 6098  35.338  27.272  13.529
33839W        W 6099  42.982  21.251   2.797
33840W        W 6100  19.500   3.740   0.248
33841W        W 6101  18.489  42.801   5.239
33842W        W 6102  42.393  29.062   2.419
33843W        W 6103  12.420   2.425   0.544
33844W        W 6104  25.005  18.154  11.177
33845W        W 6105  36.101  31.956  10.434
33846W        W 6106  37.811   2.220   3.724
33847W        W 6107  33.851  13.406  14.293
33848W        W 6108  23.680  17.749   1.920
33849W        W 6109  35.592   7.807  14.428
33850W        W 6110  44.008  33.119   4.327
33851W        W 6111   7.784   6.197  12.366
33852W        W 6112  18.687  29.611  13.457
33853W        W 6113  15.663   7.412  11.538
33854W        W 6114  32.293  21.575  14.742
33855W        W 6115  39.824   3.000   0.950
33856W        W 6116  23.943   7.659   3.716
33857W        W 6117  20.673  42.882   2.194
33858W        W 6118   9.295   2.225  10.959
33859W        W 6119   7.392  16.346   3.008
33860W        W 6120  38.465   6.253   1.705
33861W        W 6121  27.912  22.133   3.136
33862W        W 6122  31.349  27.979  14.049
33863W        W 6123  36.093  37.632  12.476
33864W        W 6124  43.457   5.432   1.224
33865W        W 6125  36.961  30.913   2.217
33866W        W 6126  21.196  31.083  14.542
33867W        W 6127  16.611  13.803  12.261
33868W        W 6128   7.324  13.664   4.773
33869W        W 6129   0.147  39.371   4.869
33870W        W 6130  38.582  44.665  13.543
33871W        W 6131   5.949  19.210  14.348
33872W        W 6132  28.158  28.270  13.793
33873W        W 6133   7.411  20.476  12.981
33874W        W 6134  42.856  34.554  10.657
33875W        W 6135  21.068   6.260  12.101
33876W        W 6136  35.104  22.716   1.296
33877W        W 6137   9.884  27.876   2.242
33878W        W 6138  30.987  31.563   3.813
33879W        W 6139  19.871  30.232  11.312
33880W        W 6140   7.630  25.772   2.715
33881W        W 6141  37.120  18.345  14.046
33882W        W 6142  18.692  34.352   4.299
33883W        W 6143  36.775   1.201  11.467
33884W        W 6144  43.374  17.331   2.787
33885W        W 6145  26.217  31.019  10.677
33886W        W 6146   8.368  29.692   3.690
33887W        W 6147   1.791  13.640  10.737
33888W        W 6148  29.212  39.865  12.533
33889W        W 6149   9.183  37.767   1.670
33890W        W 6150  34.937   2.182  12.919
33891W        W 6151   8.861  23.620   4.278
33892W        W 6152   1.489   0.231   1.768
33893W        W 6153  23.260  10.677   3.187
33894W        W 6154   1.786  23.886   3.752
33895W        W 6155  30.297  32.989   9.618
33896W        W 6156  31.808  41.821   4.556
33897W        W 6157  11.153  37.859  11.429
33898W        W 6158  21.300   7.127  10.685
33899W        W 6159  37.189  16.460  11.706
33900W        W 6160  40.814   8.767   1.314
33901W        W 6161   4.949  44.560   2.649
33902W        W 6162  15.112  14.729  13.260
33903W        W 6163  18.767   3.312  14.540
33904W        W 6164  44.510  13.302   0.155
33905W        W 6165  24.118  26.643  10.214
33906W        W 6166  18.593  37.295  11.400
33907W        W 6167  32.478  32.952  14.596
33908W        W 6168  31.039  14.770   2.575
33909W        W 6169  41.917   2.900  11.560
33910W        W 6170   4.804  44.492   4.580
33911W        W 6171  38.043  21.525   4.155
33912W        W 6172  41.409  22.513  13.500
33913W        W 6173  44.815   0.970   0.695
33914W        W 6174  42.631  29.988   1.932
33915W        W 6175  31.827  40.819   3.494
33916W        W 6176   6.905  22.420  12.242
33917W        W 6177  12.772   5.670   0.343
33918W        W 6178   3.520  34.304  11.101
33919W        W 6179  39.325  19.221  13.042
33920W        W 6180  38.384  44.079   0.237
33921W        W 6181  39.925   1.697  13.524
33922W        W 6182  10.312  40.837   1.564
33923W        W 6183  27.070   0.318   2.226
33924W        W 6184  43.262  16.106   2.895
33925W        W 6185  28.675  34.428   3.208
33926W        W 6186  34.520  30.520  10.744
33927W        W 6187  21.493  44.537   3.656
33928W        W 6188  13.828  38.094  13.978
33929W        W 6189  42.380  23.641  14.479
33930W        W 6190   8.798   4.624   3.712
33931W        W 6191  27.020   1.086   1.917
33932W        W 6192  19.519  43.911   2.634
33933W        W 6193  15.279  29.121   9.942
33934W        W 6194  21.199  32.533   2.164
33935W        W 6195  15.563   2.743   2.648
33936W        W 6196  43.724  36.568   0.857
33937W        W 6197  31.864  37.178   3.819
33938W        W 6198  26.847  14.131  12.869
33939W        W 6199   0.535   5.305  13.746
33940W        W 6200  27.211  30.498   2.879
33941W        W 6201  37.382  38.541   3.715
33942W        W 6202  35.642  20.004  10.377
33943W        W 6203  11.686  20.068   1.903
33944W        W 6204  34.418   4.664  14.364
33945W        W 6205   6.806  44.649  11.137
33946W        W 6206  26.635  38.896   3.619
33947W        W 6207  36.419  41.348   2.847
33948W        W 6208  37.936  16.842   0.301
33949W        W 6209  25.539  14.152  12.456
33950W        W 6210  20.824  20.150   1.922
33951W        W 6211  38.549   8.773   1.764
33952W        W 6212   6.748  19.203  14.977
33953W        W 6213  25.517  42.432  13.376
33954W        W 6214  44.776  30.658   3.167
33955W        W 6215  26.354  29.621  11.616
33956W        W 6216  44.425   4.417  12.003
33957W        W 6217  31.987  12.332   1.795
33958W        W 6218   2.635  12.590  10.630
33959W        W 6219  42.379  43.768  14.446
33960W        W 6220  27.525  27.513  14.293
33961W        W 6221  32.171  16.261  12.838
33962W        W 6222   6.794   7.470  10.346
33963W        W 6223  33.297  40.477  12.050
33964W        W 6224   9.916  44.333  13.347
33965W        W 6225  29.845  44.272   4.183
33966W        W 6226  16.610   2.249  11.683
33967W        W 6227  10.804  14.340   0.294
33968W        W 6228  16.719  38.729   4.552
33969W        W 6229  29.860  18.868  12.647
33970W        W 6230  28.171  27.488   0.894
33971W        W 6231  19.228  41.124  10.819
33972W        W 6232  36.011  33.611   4.702
33973W        W 6233  22.923   5.464   3.080
33974W        W 6234  25.238   7.627  13.272
33975W        W 6235   4.691  25.756   0.465
33976W        W 6236  34.058  24.243   4.519
33977W        W 6237  30.863  34.602  12.066
33978W        W 6238   4.954   5.681  14.384
33979W        W 6239  41.913  34.653   1.428
33980W        W 6240  43.872  40.906   0.851
33981W        W 6241   9.802   6.613  14.065
33982W        W 6242  43.436  26.427   4.380
33983W        W 6243  43.180  30.673  11.929
33984W        W 6244  31.256  24.850   4.553
33985W        W 6245  35.183   6.239   4.129
33986W        W 6246  28.713   9.624   2.212
33987W        W 6247  17.415  32.650   4.114
33988W        W 6248  12.927   9.317  11.941
33989W        W 6249  30.123   3.249  14.854
33990W        W 6250   6.973  43.947  11.550
33991W        W 6251  26.907   8.339  14.365
33992W        W 6252  43.522   1.162   2.310
33993W        W 6253   1.921  23.721  13.786
33994W        W 6254  28.469  40.441   3.775
33995W        W 6255   1.846  29.641  14.307
33996W        W 6256  13.816   2.487   3.324
33997W        W 6257  10.368  28.764   0.324
33998W        W 6258  33.920  40.058   3.200
33999W        W 6259  13.484   6.301   4.146
34000W        W 6260  19.961   3.258  12.843
34001W        W 6261  20.734  25.944   1.495
34002W        W 6262  33.371  30.650  12.664
34003W        W 6263   6.221   6.248  13.168
34004W        W 6264   4.481   3.697  13.549
34005W        W 6265  40.572  15.374   4.711
34006W        W 6266  32.322  38.051   3.687
34007W        W 6267  11.120  32.067  13.491
34008W        W 6268  22.164  13.301   4.469
34009W        W 6269  24.654   1.985  11.352
34010W        W 6270  24.527  17.332   4.834
34011W        W 6271  24.259  30.299   1.159
34012W        W 6272  17.885  27.259   1.275
34013W        W 6273  38.885  39.453  13.843
34014W        W 6274   6.567  21.565   2.396
34015W        W 6275   4.529  27.096  11.993
34016W        W 6276  39.018  12.111   1.686
34017W        W 6277  38.080  24.546  14.376
34018W        W 6278  13.353  17.334   4.713
34019W        W 6279  20.282  21.683  11.620
34020W        W 6280  19.026  41.105   1.752
34021W        W 6281   4.268   6.214   1.978
34022W        W 6282  19.126  17.300  11.753
34023W        W 6283  23.169  34.030   4.427
34024W        W 6284  35.004  38.521  14.334
34025W        W 6285  23.606  22.206  11.528
34026W        W 6286  20.508  26.540  13.052
34027W        W 6287   7.900  42.663  12.064
34028W        W 6288  36.093  38.363  11.525
34029W        W 6289  27.138  29.378  11.213
34030W        W 6290  34.342  36.001  13.794
34031W        W 6291  33.456  33.523  11.422
34032W        W 6292  41.063  27.771  14.481
34033W        W 6293  42.142  12.183   3.844
34034W        W 6294   0.384  10.604  12.869
34035W        W 6295  25.731  24.755  13.888
34036W        W 6296  22.130  14.278   1.089
34037W        W 6297  13.457  24.963   3.237
34038W        W 6298  27.437  16.131   3.706
34039W        W 6299   2.915  44.831   0.442
34040W        W 6300  28.154  40.903   4.178
34041W        W 6301  38.909   8.267  12.049
34042W        W 6302   5.160   3.750  13.028
34043W        W 6303   1.122  12.621   2.203
34044W        W 6304  35.947  36.529   4.105
34045W        W 6305   2.203  10.909   3.756
34046W        W 6306  12.265  42.950   4.572
34047W        W 6307  29.455  33.961   1.431
34048W        W 6308  41.395   2.755  14.784
34049W        W 6309   9.096  29.119  13.323
34050W        W 6310   7.453  17.107  14.272
34051W        W 6311   1.351   4.733   1.887
34052W        W 6312  39.004   6.301   4.037
34053W        W 6313  15.238  27.065   4.351
34054W        W 6314  29.396  38.903  13.023
34055W        W 6315  33.154   8.410  11.426
34056W        W 6316   4.238   0.431  11.449
34057W        W 6317  33.387  20.889  11.921
34058W        W 6318  26.580  22.523   0.737
34059W        W 6319   8.670   3.953   0.771
34060W        W 6320  21.215   5.753   5.607
34061W        W 6321   0.410  37.935  12.728
34062W        W 6322  16.766  20.071  12.587
34063W        W 6323  36.586  44.492  13.412
34064W        W 6324  30.136  11.362  12.620
34065W        W 6325  32.676  25.016   3.211
34066W        W 6326   8.547  15.006  12.932
34067W        W 6327  34.017  16.645   0.202
34068W        W 6328  32.153   8.349   0.158
34069W        W 6329  23.730  38.798  10.503
34070W        W 6330   3.813   4.930  11.735
34071W        W 6331  12.766  11.436  11.577
34072W        W 6332  20.344   8.653  12.438
34073W        W 6333   0.021  29.645   2.359
34074W        W 6334  13.858  30.423  14.370
34075W        W 6335   2.305   9.417  13.889
34076W        W 6336  30.430  27.204  14.325
34077W        W 6337  23.201   2.855   4.629
34078W        W 6338   4.481   6.882  12.048
34079W        W 6339  25.995  38.980  14.914
34080W        W 6340  23.261  31.051   0.785
34081W        W 6341  24.234  37.087  12.875
34082W        W 6342  32.831  28.916  11.083
34083W        W 6343   5.423  22.729  12.451
34084W        W 6344  27.215  33.051   1.233
34085W        W 6345  16.325  22.295  11.431
34086W        W 6346  35.408  11.304   3.202
34087W        W 6347  11.832  29.624  10.736
34088W        W 6348   7.284  21.792   1.882
34089W        W 6349  37.151  32.433   2.883
34090W        W 6350  33.931  10.075   4.064
34091W        W 6351  44.980  20.005   0.319
34092W        W 6352  10.623  39.157  10.655
34093W        W 6353   4.650   6.187   0.249
34094W        W 6354  28.171  26.094  14.339
34095W        W 6355  20.867   4.672   4.176
34096W        W 6356  26.060  26.476   3.199
34097W        W 6357  29.017   4.823   2.854
34098W        W 6358  17.019  16.728  13.548
34099W        W 6359  19.536  20.454  12.937
34100W        W 6360  17.589  24.747  12.963
34101W        W 6361  30.868  44.935  14.759
34102W        W 6362  19.487  39.594  11.614
34103W        W 6363  39.804  11.902  13.731
34104W        W 6364  19.506  16.166  11.544
34105W        W 6365  18.594   2.723   4.427
34106W        W 6366  19.712  44.860  13.559
34107W        W 6367  11.731   4.238   1.807
34108W        W 6368  16.150  44.726  12.436
34109W        W 6369   3.115  23.814  11.534
34110W        W 6370  28.850   8.405   1.726
34111W        W 6371  32.644  16.110  13.912
34112W        W 6372  10.799  42.719   2.352
34113W        W 6373  22.752  41.424  10.719
34114W        W 6374  38.845  10.579   1.266
34115W        W 6375  24.602  44.950   4.520
34116W        W 6376  26.720  21.737   4.818
34117W        W 6377  18.565  11.569  13.987
34118W        W 6378  20.581   5.262  14.757
34119W        W 6379  11.132  25.885   3.978
34120W        W 6380   3.223  12.773   3.263
34121W        W 6381  33.210  36.381   1.872
34122W        W 6382   3.631   2.272   4.137
34123W        W 6383  25.424  42.757   1.005
34124W        W 6384  34.262  29.201   2.442
34125W        W 6385  25.366   3.448   2.539
34126W        W 6386  18.138   5.861   1.759
34127W        W 6387  43.467  27.084   3.777
34128W        W 6388  18.490   7.637   3.299
34129W        W 6389  30.091  26.159   3.230
34130W        W 6390  17.604   8.848  11.742
34131W        W 6391  28.748  21.878   3.788
34132W        W 6392  43.756  43.551   1.960
34133W        W 6393   9.411  35.936   1.703
34134W        W 6394  33.145  32.516   0.525
34135W        W 6395  10.917  20.108   3.760
34136W        W 6396  32.941  37.621  13.056
34137W        W 6397   3.186  34.597   1.461
34138W        W 6398  36.462  33.686  10.655
34139W        W 6399  23.789  19.643   1.630
34140W        W 6400  37.492   2.684  13.858
34141W        W 6401  23.630  37.886   3.293
34142W        W 6402  20.005  25.555  13.360
34143W        W 6403  32.903  42.573  12.038
34144W        W 6404  13.298  22.068  10.960
34145W        W 6405  25.186  14.171   0.758
34146W        W 6406  37.044   3.871  13.431
34147W        W 6407   0.799  15.616  10.551
34148W        W 6408  33.138  44.376  10.424
34149W        W 6409  42.769  17.579   1.775
34150W        W 6410  16.392  38.504  14.534
34151W        W 6411  25.480  20.296  11.511
34152W        W 6412  33.347  44.832  13.312
34153W        W 6413   9.245  25.990   3.966
34154W        W 6414  10.255  33.542  10.896
34155W        W 6415  42.518  41.341  11.223
34156W        W 6416  30.959  41.639  14.945
34157W        W 6417   9.721  10.005  11.483
34158W        W 6418  19.694  30.136   0.986
34159W        W 6419   7.397  16.768  11.369
34160W        W 6420  43.450  27.213  12.214
34161W        W 6421  36.297  39.725  13.605
34162W        W 6422  23.100  36.293   3.871
34163W        W 6423   3.917  40.276   0.005
34164W        W 6424  20.645  18.839  12.196
34165W        W 6425  29.127  34.346  13.338
34166W        W 6426  25.162  41.782   0.307
34167W        W 6427  13.344  43.379  13.381
34168W        W 6428  28.589  33.131   0.761
34169W        W 6429  42.432   1.973   3.230
34170W        W 6430   5.032   5.217  11.573
34171W        W 6431   6.834  27.316  12.814
34172W        W 6432  28.441  17.098  13.454
34173W        W 6433  18.087   3.844   1.362
34174W        W 6434   3.186  16.607   2.569
34175W        W 6435  39.773  18.559  14.845
34176W        W 6436  34.592  10.653   1.026
34177W        W 6437  18.942   0.437   5.020
34178W        W 6438  38.002   5.352   1.245
34179W        W 6439  28.379  24.280   4.270
34180W        W 6440  14.745  10.683   3.327
34181W        W 6441  35.828   0.305   4.895
34182W        W 6442  40.166  37.556  10.950
34183W        W 6443  43.213  20.303   0.746
34184W        W 6444  14.183  34.123   4.641
34185W        W 6445  19.742   8.723  11.150
34186W        W 6446  26.940   1.357   4.155
34187W        W 6447  25.283  15.352  11.560
34188W        W 6448  18.206   4.565   3.103
34189W        W 6449  14.726  12.612  11.224
34190W        W 6450  14.556  30.084  14.734
34191W        W 6451  35.993  44.055   4.095
34192W        W 6452  11.150  12.634   3.031
34193W        W 6453  40.637  12.215   1.865
34194W        W 6454  36.049  32.149   5.026
34195W        W 6455  11.208   7.961  11.130
34196W        W 6456  17.857  19.091   0.816
34197W        W 6457  29.377  10.674   1.198
34198W        W 6458  43.444  31.099  12.172
34199W        W 6459  30.121  29.670   2.468
34200W        W 6460  17.178  19.481  10.311
34201W        W 6461  32.404  34.554   1.714
34202W        W 6462  44.892   3.455  12.896
34203W        W 6463  14.152  27.363  11.132
34204W        W 6464  34.069  16.178  11.098
34205W        W 6465  44.457  20.733  11.573
34206W        W 6466   0.941  16.673   3.133
34207W        W 6467  40.379  24.914   9.912
34208W        W 6468  17.589  11.803  10.653
34209W        W 6469  29.185   2.948   2.685
34210W        W 6470  32.639  34.157  13.445
34211W        W 6471  44.781  10.547  13.690
34212W        W 6472  19.118  33.225  13.993
34213W        W 6473  34.646  34.389  12.512
34214W        W 6474  32.468  20.477   1.744
34215W        W 6475  27.497   9.216  11.666
34216W        W 6476   1.949  20.600  12.453
34217W        W 6477  36.506   7.646   0.712
34218W        W 6478  26.755  41.461   9.716
34219W        W 6479  14.718   9.877  13.930
34220W        W 6480  11.747  39.283  11.054
34221W        W 6481  23.501  33.787  12.414
34222W        W 6482  28.152  44.793   4.509
34223W        W 6483  25.570   1.002  10.639
34224W        W 6484  21.003  26.697  11.924
34225W        W 6485  21.455  43.971   1.919
34226W        W 6486  12.769  18.752   1.283
34227W        W 6487  40.739  23.219   0.272
34228W        W 6488  37.009   5.431  11.593
34229W        W 6489  36.802  37.066   0.936
34230W        W 6490   6.794  20.680  14.844
34231W        W 6491  13.965  43.750   0.061
34232W        W 6492  10.149  24.155  14.495
34233W        W 6493  29.484  26.915   3.293
34234W        W 6494  40.385  39.338  12.064
34235W        W 6495  34.828  18.234   9.810
34236W        W 6496  18.118  29.918  12.065
34237W        W 6497  24.008   0.319  13.969
34238W        W 6498  38.851  42.996   5.319
34239W        W 6499  26.879  40.679  13.004
34240W        W 6500  35.034  40.952  12.469
34241W        W 6501  22.695  40.351  12.608
34242W        W 6502  24.061  21.053   1.925
34243W        W 6503   3.267  37.269  14.867
34244W        W 6504  42.531  35.676  12.160
34245W        W 6505  16.395  18.292   1.346
34246W        W 6506  35.216   4.962   0.422
34247W        W 6507  26.191  13.572   0.964
34248W        W 6508  19.560  41.349   1.104
34249W        W 6509  12.904  30.545   5.465
34250W        W 6510  22.968  39.915   1.452
34251W        W 6511  21.566  20.654   4.658
34252W        W 6512   7.615  19.148   1.244
34253W        W 6513  23.210  18.764   4.138
34254W        W 6514  23.067  34.836  13.842
34255W        W 6515   5.229  18.970  12.098
34256W        W 6516  41.763   7.514  14.703
34257W        W 6517   3.274  38.181   3.273
34258W        W 6518  26.492   5.964   4.174
34259W        W 6519   8.916  43.010   3.714
34260W        W 6520  43.902   6.905   2.764
34261W        W 6521  18.327  14.912   0.930
34262W        W 6522  21.301  21.780  13.761
34263W        W 6523  24.850  16.547  13.691
34264W        W 6524  27.462  13.514   3.198
34265W        W 6525   7.246  34.043   0.903
34266W        W 6526   7.792  37.070   0.338
34267W        W 6527  11.194   1.403  14.990
34268W        W 6528  26.923  28.645  13.409
34269W        W 6529   5.748   3.210  11.219
34270W        W 6530  15.781  37.820   1.050
34271W        W 6531  38.361  24.597   2.321
34272W        W 6532  11.232  12.143  13.369
34273W        W 6533  32.607  44.297  10.771
34274W        W 6534  22.570  36.183   3.951
34275W        W 6535  17.314  31.505  14.299
34276W        W 6536   2.917  19.600   1.791
34277W        W 6537  24.737  39.545   5.390
34278W        W 6538  34.299  25.645   0.428
34279W        W 6539  39.585   2.991   0.266
34280W        W 6540  30.762   0.945   0.866
34281W        W 6541   6.549  28.559   0.955
34282W        W 6542   0.490  16.744  14.790
34283W        W 6543  13.212  36.343   4.830
34284W        W 6544  13.601   1.769   1.212
34285W        W 6545  33.349  14.229   4.355
34286W        W 6546  31.579  29.241   2.316
34287W        W 6547  27.507  15.075   3.944
34288W        W 6548  20.767   4.946   3.730
34289W        W 6549  22.499  29.330  11.424
34290W        W 6550  13.753   0.833   1.982
34291W        W 6551   2.750   3.990  12.931
34292W        W 6552  27.324  31.955   1.437
34293W        W 6553  11.582  12.784  13.024
34294W        W 6554  40.290  11.411   1.305
34295W        W 6555  14.840  30.794  12.291
34296W        W 6556  19.637  21.084  12.858
34297W        W 6557  23.485   2.575  11.346
34298W        W 6558  38.431  38.067  14.286
34299W        W 6559  22.267  34.171   1.675
34300W        W 6560  42.573  20.517  12.783
34301W        W 6561  16.557  35.809  12.334
34302W        W 6562   2.805  35.981  10.911
34303W        W 6563  22.290  43.728   4.220
34304W        W 6564  22.150  34.642  13.510
34305W        W 6565  33.884  16.740   3.201
34306W        W 6566  10.160  19.045  11.335
34307W        W 6567  11.292  15.373   2.607
34308W        W 6568  25.134  27.424   4.569
34309W        W 6569  31.888  39.334  13.240
34310W        W 6570   5.550  34.460   1.205
34311W        W 6571  30.970  19.750  10.589
34312W        W 6572  13.343  17.975  10.811
34313W        W 6573  34.357   1.238  14.339
34314W        W 6574  15.174  24.310   1.740
34315W        W 6575  16.733  37.445   0.067
34316W        W 6576  37.472  10.381   1.434
34317W        W 6577  36.325   9.488   4.223
34318W        W 6578   9.184  44.625   4.181
34319W        W 6579   9.742   7.235  11.542
34320W        W 6580  38.918   3.323  14.930
34321W        W 6581  10.252  41.544  14.871
34322W        W 6582  38.228   7.262  11.960
34323W        W 6583  40.192   9.777  12.831
34324W        W 6584  17.272   1.705  12.089
34325W        W 6585  40.915  16.741   2.688
34326W        W 6586  18.767  15.236   1.100
34327W        W 6587  44.411  26.297   2.260
34328W        W 6588   1.483   1.303  12.744
34329W        W 6589   9.310  19.199   4.397
34330W        W 6590  15.275  34.251   1.928
34331W        W 6591  30.167   4.941   3.373
34332W        W 6592  17.867  35.366  11.507
34333W        W 6593  19.643   9.332  10.189
34334W        W 6594  40.455  29.494  13.102
34335W        W 6595  30.702   1.739  11.859
34336W        W 6596  12.106  41.054  11.981
34337W        W 6597  18.289  29.009   1.006
34338W        W 6598  41.736  43.906   3.229
34339W        W 6599  30.916  17.326  14.355
34340W        W 6600  39.538  39.614   0.902
34341W        W 6601   4.521  26.282   1.578
34342W        W 6602  11.746  13.275   4.949
34343W        W 6603   6.923  27.026  14.309
34344W        W 6604  22.012   7.792  14.734
34345W        W 6605  38.474  30.852  13.756
34346W        W 6606  41.341  30.595  13.285
34347W        W 6607  29.148  19.971  11.462
34348W        W 6608  42.417  15.009   0.970
34349W        W 6609  19.318  22.665  10.602
34350W        W 6610  17.106  43.396   4.311
34351W        W 6611  29.584  27.778   5.091
34352W        W 6612  32.128  17.581  10.657
34353W        W 6613  25.956   7.759   1.736
34354W        W 6614  20.199  20.042   0.397
34355W        W 6615  25.683  42.910   4.231
34356W        W 6616   8.691  44.703  12.153
34357W        W 6617  16.080  29.394  12.108
34358W        W 6618   9.190  19.980   0.792
34359W        W 6619  41.037  32.811  11.894
34360W        W 6620   0.035   7.196  12.114
34361W        W 6621  30.664  34.621  11.577
34362W        W 6622  41.546  43.755   3.694
34363W        W 6623  39.954  14.107   5.095
34364W        W 6624  31.009   1.996  12.203
34365W        W 6625  38.977  27.043   1.426
34366W        W 6626  13.472  13.739   1.018
34367W        W 6627  27.503  34.045   4.761
34368W        W 6628  29.187  41.930   1.998
34369W        W 6629   6.656  28.456   1.462
34370W        W 6630  42.741   7.905   1.297
34371W        W 6631  10.077  28.567   2.789
34372W        W 6632  24.016  38.949  14.882
34373W        W 6633  37.313  36.097  14.570
34374W        W 6634  27.906   8.321  14.474
34375W        W 6635  44.140   3.148  13.981
34376W        W 6636  31.186   3.747   3.532
34377W        W 6637  28.580  15.829  11.119
34378W        W 6638  39.736   3.689  11.663
34379W        W 6639  13.695  39.868  10.897
34380W        W 6640  32.639  17.821   3.750
34381W        W 6641  14.729  27.557  10.466
34382W        W 6642  11.741  16.329   1.343
34383W        W 6643   1.795  16.768   3.448
34384W        W 6644   3.510  32.435   2.356
34385W        W 6645  44.021  40.836  10.592
34386W        W 6646  30.430   0.833  13.751
34387W        W 6647   9.559   1.141   3.352
34388W        W 6648  27.062  31.187   1.235
34389W        W 6649  11.634  41.108  13.854
34390W        W 6650   6.757   9.123   4.205
34391W        W 6651  40.991   1.914  13.321
34392W        W 6652  15.393  12.090  10.323
34393W        W 6653  26.733  17.796   3.663
34394W        W 6654  16.352  15.857   4.276
34395W        W 6655  39.830  33.906   0.440
34396W        W 6656  24.217  26.623   0.405
34397W        W 6657  33.759  17.678  10.328
34398W        W 6658   1.889  37.522   1.317
34399W        W 6659  22.021   1.940  12.414
34400W        W 6660  25.131  20.711  10.504
34401W        W 6661   8.815  41.483  13.939
34402W        W 6662  12.245  29.676   0.339
34403W        W 6663  37.084  13.284  12.715
34404W        W 6664  26.524  32.119   3.347
34405W        W 6665  39.502  12.288   4.723
34406W        W 6666  21.239  10.144  14.469
34407W        W 6667  26.908   8.492  11.124
34408W        W 6668  33.852  44.823  13.510
34409W        W 6669  21.008   2.507   2.368
34410W        W 6670   9.487  44.911  11.914
34411W        W 6671   6.290  17.670  11.726
34412W        W 6672   3.936  39.973  12.594
34413W        W 6673  32.625  44.883  11.974
34414W        W 6674  19.063  26.753  13.426
34415W        W 6675  23.419   6.376  11.321
34416W        W 6676  40.703  26.823  14.373
34417W        W 6677  43.838  32.968  10.910
34418W        W 6678  15.645  26.065  10.845
34419W        W 6679  24.992   8.273   4.655
34420W        W 6680  34.566  42.299  10.706
34421W        W 6681  13.769  37.358  14.864
34422W        W 6682  28.244  24.970   2.149
34423W        W 6683   7.138  41.394   4.076
34424W        W 6684  33.487  10.758  10.390
34425W        W 6685  28.476  34.549   0.334
34426W        W 6686   1.916  35.163   2.000
34427W        W 6687  13.511   0.904   3.402
34428W        W 6688  12.734  31.554   1.513
34429W        W 6689  12.889  14.346  14.409
34430W        W 6690   2.942  18.677  14.907
34431W        W 6691  37.084  32.958   1.375
34432W        W 6692  43.436  18.717  11.986
34433W        W 6693  19.156  37.017   4.549
34434W        W 6694  44.280  32.566  14.964
34435W        W 6695  13.339  30.125   3.689
34436W        W 6696  15.533  18.713   1.264
34437W        W 6697  14.841  12.314  13.474
34438W        W 6698  33.097  29.552  13.034
34439W        W 6699  14.634   3.953   2.624
34440W        W 6700  19.527  26.340  10.379
34441W        W 6701  38.882  39.528  11.030
34442W        W 6702   2.949  20.129  12.427
34443W        W 6703  18.122  19.018   3.055
34444W        W 6704  22.055  35.301   4.622
34445W        W 6705   5.262   4.643   0.482
34446W        W 6706   1.541  28.580  13.562
34447W        W 6707  35.877  20.285   1.723
34448W        W 6708   2.809  39.037  13.297
34449W        W 6709  29.137  16.765  10.493
34450W        W 6710  26.160   1.958  14.972
34451W        W 6711  20.101   6.051   4.622
34452W        W 6712  17.366  11.577   1.750
34453W        W 6713  16.254  34.309   1.010
34454W        W 6714  31.514  35.336   2.555
34455W        W 6715  13.613  20.183   1.417
34456W        W 6716  43.924  36.653  11.973
34457W        W 6717  32.036  16.600  11.170
34458W        W 6718  23.646  43.092  11.818
34459W        W 6719  40.129  35.058   1.781
34460W        W 6720  35.927  15.710  12.826
34461W        W 6721   0.455   0.597  11.589
34462W        W 6722  11.681   8.916   1.825
34463W        W 6723  31.519   5.864  12.043
34464W        W 6724   5.464  42.849  14.807
34465W        W 6725  12.126  23.026   2.275
34466W        W 6726   7.009  38.538   3.784
34467W        W 6727   9.282  24.239   2.235
34468W        W 6728  35.776  36.059   1.478
34469W        W 6729   1.642  42.224  11.192
34470W        W 6730  36.939   0.551   2.118
34471W        W 6731  12.847  20.134  12.661
34472W        W 6732  40.066  41.877  12.622
34473W        W 6733  11.083  30.175  11.698
34474W        W 6734  26.053   2.441  10.656
34475W        W 6735  12.255  14.839   4.586
34476W        W 6736  12.616   0.745  10.408
34477W        W 6737  26.236  25.607  11.132
34478W        W 6738   9.688  12.220  12.882
34479W        W 6739   4.156  44.432   2.212
34480W        W 6740  33.023   8.982   1.332
34481W        W 6741  44.983  17.251  10.428
34482W        W 6742  43.963  28.057  12.618
34483W        W 6743  25.497  20.749  13.296
34484W        W 6744   8.309  21.780  14.805
34485W        W 6745  31.932  37.923   3.322
34486W        W 6746  23.297  21.644   0.498
34487W        W 6747  42.850  24.357   0.971
34488W        W 6748  27.197   3.420  12.232
34489W        W 6749  22.146  29.326   0.032
34490W        W 6750   8.178  42.827   0.571
34491W        W 6751  36.269  41.776  12.803
34492W        W 6752  35.751  10.795  13.281
34493W        W 6753  26.929  15.933   4.763
34494W        W 6754  15.798  37.486  12.822
34495W        W 6755  35.375  39.995   3.184
34496W        W 6756  43.410   0.717  12.056
34497W        W 6757  31.489  30.993  13.909
34498W        W 6758  11.891  42.733  10.306
34499W        W 6759  11.862  27.578  14.945
34500W        W 6760  25.694  17.825  13.856
34501W        W 6761  19.364  24.488   1.643
34502W        W 6762  33.123  21.598   2.170
34503W        W 6763  22.809   3.285  14.207
34504W        W 6764   2.073  29.171  14.384
34505W        W 6765  21.984  16.292   0.491
34506W        W 6766  40.899  23.158  12.053
34507W        W 6767  24.492  36.014   1.851
34508W        W 6768  34.790  43.036   1.502
34509W        W 6769  18.335  16.787   0.403
34510W        W 6770   5.874  43.468   0.659
34511W        W 6771  19.951  18.558   0.333
34512W        W 6772  43.391  21.074  14.283
34513W        W 6773  42.357   4.814  10.676
34514W        W 6774  27.926  32.837  12.111
34515W        W 6775   6.731  31.636   3.342
34516W        W 6776  44.362  27.238   0.497
34517W        W 6777  13.249  33.192  14.309
34518W        W 6778   3.391  14.559  11.945
34519W        W 6779  44.899  30.042  13.441
34520W        W 6780   4.453  39.664  10.822
34521W        W 6781  19.758  13.108  11.833
34522W        W 6782   1.844  39.247  10.608
34523W        W 6783  37.997  38.522   0.663
34524W        W 6784  40.850  34.439   4.259
34525W        W 6785  22.908  30.097   2.855
34526W        W 6786   0.919  23.669   0.822
34527W        W 6787  10.113  28.733  10.601
34528W        W 6788   8.327  17.425   1.469
34529W        W 6789   1.593  26.812   4.594
34530W        W 6790  28.161  14.103  13.867
34531W        W 6791   2.215   8.672  13.423
34532W        W 6792   6.034  28.633  14.605
34533W        W 6793  31.513  37.902   1.650
34534W        W 6794  19.036  11.569   0.296
34535W        W 6795  19.635   8.834   0.491
34536W        W 6796  25.724  10.574  12.816
34537W        W 6797  22.737  24.211   2.186
34538W        W 6798  37.069  23.621  11.635
34539W        W 6799  26.046   7.538   3.996
34540W        W 6800   9.238  28.645   1.848
34541W        W 6801  41.275  34.962  11.167
34542W        W 6802  42.095  32.800   4.041
34543W        W 6803  22.288  12.905   1.314
34544W        W 6804  15.637  14.264   3.305
34545W        W 6805  25.591   4.886  13.748
34546W        W 6806   7.933  20.594   4.761
34547W        W 6807  26.545  15.626  13.478
34548W        W 6808  29.114  20.748   3.150
34549W        W 6809  40.391  41.150  14.778
34550W        W 6810   3.324  39.815  10.266
34551W        W 6811  19.803  34.018  11.702
34552W        W 6812  17.569   4.994  11.692
34553W        W 6813  33.894  18.164   3.765
34554W        W 6814  23.647  18.126  12.905
34555W        W 6815  25.012  37.471  12.969
34556W        W 6816   9.401  23.267   0.413
34557W        W 6817   9.953  29.156   1.203
34558W        W 6818  41.057  38.268  11.570
34559W        W 6819  31.884  27.571  11.425
34560W        W 6820  10.564   1.351  14.098
34561W        W 6821  37.886  26.683   2.391
34562W        W 6822  33.418  39.095   3.998
34563W        W 6823   6.452  11.860  11.116
34564W        W 6824  15.707  18.466   2.235
34565W        W 6825  32.216  44.687  14.068
34566W        W 6826   6.114  44.510   3.639
34567W        W 6827  29.295  21.550  14.544
34568W        W 6828  28.685   4.956   2.130
34569W        W 6829   9.761   3.727   2.213
34570W        W 6830  17.486   6.775  10.537
34571W        W 6831  14.754  29.165   4.605
34572W        W 6832  33.341  17.153   2.830
34573W        W 6833  43.479  38.131   3.223
34574W        W 6834  24.715   7.307   0.809
34575W        W 6835  15.656  10.376   2.597
34576W        W 6836  22.213   3.420  12.040
34577W        W 6837   6.421  34.982   0.359
34578W        W 6838  23.639  19.529   9.694
34579W        W 6839   2.697  13.385  12.035
34580W        W 6840  34.147   2.765  12.481
34581W        W 6841  41.417   8.909  10.701
34582W        W 6842  35.871   8.295   2.243
34583W        W 6843  17.820   5.340   2.409
34584W        W 6844  24.858  15.699  10.725
34585W        W 6845   0.126  16.015   0.287
34586W        W 6846  41.997  37.826  12.526
34587W        W 6847   7.927  24.030  14.777
34588W        W 6848  28.081  43.805  13.861
34589W        W 6849  32.274  36.793  14.350
34590W        W 6850  35.472  37.232  11.124
34591W        W 6851  19.150  11.869  12.484
34592W        W 6852  42.782  44.827   2.887
34593W        W 6853  42.748   5.480  14.805
34594W        W 6854  31.259  42.959   4.066
34595W        W 6855  29.878   1.992   3.914
34596W        W 6856  20.060  10.105  11.989
34597W        W 6857  13.416  31.911  14.124
34598W        W 6858  39.986  18.575   0.975
34599W        W 6859  28.699  26.400   0.217
34600W        W 6860  20.729  37.964  11.453
34601W        W 6861  28.593  10.553   2.225
34602W        W 6862  39.547  33.608  12.569
34603W        W 6863  30.348   8.640   0.191
34604W        W 6864  41.434  42.722   0.211
34605W        W 6865  37.825  29.910  12.940
34606W        W 6866  33.581  26.467   0.620
34607W        W 6867  12.289  23.251   4.703
34608W        W 6868   5.261  42.803   0.264
34609W        W 6869  39.013  25.502  13.521
34610W        W 6870  11.360  33.597  14.444
34611W        W 6871   9.137   3.730   0.890
34612W        W 6872  30.943  44.862  10.496
34613W        W 6873  19.705   7.286   4.821
34614W        W 6874  24.605   7.204   4.488
34615W        W 6875  22.344  39.902   2.809
34616W        W 6876  27.955  22.576   3.916
34617W        W 6877  32.935   7.311  12.174
34618W        W 6878  16.115   5.368   1.248
34619W        W 6879  33.535  26.587  14.669
34620W        W 6880  25.216  29.015   0.001
34621W        W 6881  37.656   0.534  12.486
34622W        W 6882  32.353  33.317  14.943
34623W        W 6883  41.822   4.186   4.394
34624W        W 6884  31.088   0.719  13.203
34625W        W 6885   3.537  29.080  10.665
34626W        W 6886  28.311   4.122   3.784
34627W        W 6887   8.404  13.669   4.222
34628W        W 6888  42.320  43.398  12.174
34629W        W 6889  21.776  37.478   1.991
34630W        W 6890  42.901  20.152  13.020
34631W        W 6891  30.260  14.911   0.478
34632W        W 6892   9.670  34.890  10.565
34633W        W 6893  31.962  29.069   2.619
34634W        W 6894   0.183   0.769   1.894
34635W        W 6895  40.115  37.671   3.733
34636W        W 6896  14.790  11.200  12.118
34637W        W 6897  41.013  14.305  13.242
34638W        W 6898  26.458   9.513   1.237
34639W        W 6899  34.212  40.682  11.051
34640W        W 6900  11.773  13.767  13.776
34641W        W 6901  37.297  44.401   3.982
34642W        W 6902  10.384   9.207   0.983
34643W        W 6903  32.865  22.215  13.039
34644W        W 6904  34.041  36.387   3.766
34645W        W 6905  29.373  34.011  14.876
34646W        W 6906  39.306   9.114  12.029
34647W        W 6907  30.888  19.639  12.091
34648W        W 6908  13.890  36.959   2.575
34649W        W 6909  12.643  21.143  13.807
34650W        W 6910  34.977   3.158  13.777
34651W        W 6911  17.788  37.561  11.091
34652W        W 6912  24.803  36.446   4.164
34653W        W 6913  11.336  41.200   0.239
34654W        W 6914  31.086  25.585   0.242
34655W        W 6915  12.105  44.366   4.829
34656W        W 6916  19.005  43.350   0.377
34657W        W 6917  27.295  20.339  11.869
34658W        W 6918   5.872   1.408  14.441
34659W        W 6919  42.912  13.821   3.868
34660W        W 6920   8.826   3.758   2.185
34661W        W 6921  18.214   6.674   2.183
34662W        W 6922  37.938  11.114   4.470
34663W        W 6923  34.002  24.158  14.001
34664W        W 6924  20.274  41.782  13.847
34665W        W 6925  20.528   6.253  11.087
34666W        W 6926  33.831  21.498   2.707
34667W        W 6927   4.381  31.071  12.603
34668W        W 6928  36.893  37.267   4.217
34669W        W 6929  23.474   3.899  10.738
34670W        W 6930  36.105  10.116   2.899
34671W        W 6931  36.767  31.076   1.235
34672W        W 6932  25.360   5.455   1.952
34673W        W 6933   4.450   0.793   1.390
34674W        W 6934   7.719  30.100   0.789
34675W        W 6935   9.488   6.640  12.583
34676W        W 6936  24.421  41.400  12.918
34677W        W 6937  41.046  24.034  14.948
34678W        W 6938  17.632   7.629  14.468
34679W        W 6939  42.779  34.926  14.524
34680W        W 6940  40.016  12.813  13.919
34681W        W 6941  40.463  21.575   2.073
34682W        W 6942  31.905  29.708  13.874
34683W        W 6943  22.545  10.321   2.846
34684W        W 6944  11.239  32.715   0.750
34685W        W 6945  21.892  28.015  13.000
34686W        W 6946  15.469  12.361   3.096
34687W        W 6947   0.377  19.972  11.512
34688W        W 6948  32.538   5.657   4.571
34689W        W 6949  17.475  40.398   1.396
34690W        W 6950  23.749  29.972  12.765
34691W        W 6951  42.877  40.277   3.242
34692W        W 6952  17.640  11.938   0.423
34693W        W 6953  12.598  24.503  13.443
34694W        W 6954  21.631  36.777   1.499
34695W        W 6955  36.574  41.828  11.464
34696W        W 6956  35.005  10.878   3.118
34697W        W 6957  11.886  16.309  12.562
34698W        W 6958  21.381  29.902  11.167
34699W        W 6959  13.195   1.998   1.428
34700W        W 6960  22.238  39.969  13.894
34701W        W 6961  34.968  10.113  10.378
34702W        W 6962  13.239   9.833  12.085
34703W        W 6963  42.601  32.066  13.460
34704W        W 6964  20.580  11.196  13.527
34705W        W 6965  31.483  35.542  14.887
34706W        W 6966  15.661  14.894  12.605
34707W        W 6967  38.066  34.993  13.215
34708W        W 6968  44.530  16.194   3.744
34709W        W 6969  10.229  15.285   3.606
34710W        W 6970  15.204  30.109   3.268
34711W        W 6971  29.628  16.737   2.768
34712W        W 6972  35.014   1.386  11.000
34713W        W 6973  26.117  41.700  14.774
34714W        W 6974   8.342  21.080  10.446
34715W        W 6975  37.600  13.058  14.711
34716W        W 6976  32.995  34.115   1.191
34717W        W 6977  20.271  33.459   3.263
34718W        W 6978  34.026  12.496   2.053
34719W        W 6979  26.895  10.921  13.326
34720W        W 6980  32.382  22.722   3.097
34721W        W 6981   1.161   5.417   3.334
34722W        W 6982  36.248  15.343  12.526
34723W        W 6983  40.407   3.823   3.142
34724W        W 6984  13.311  24.603   1.170
34725W        W 6985  40.196  14.610  12.020
34726W        W 6986  34.168  35.386   1.602
34727W        W 6987  38.851  29.283  11.514
34728W        W 6988  36.016  33.528   1.924
34729W        W 6989  16.401  40.832  12.133
34730W        W 6990  42.748  14.134  12.168
34731W        W 6991  22.159  24.823  12.354
34732W        W 6992  15.711  43.564   1.787
34733W        W 6993  41.329  12.159   0.240
34734W        W 6994   1.928  20.663   2.758
34735W        W 6995   1.751  29.727  13.399
34736W        W 6996   9.145  23.813   3.208
34737W        W 6997  41.781  25.096   3.288
34738W        W 6998  36.099  34.036  10.821
34739W        W 6999  30.351  33.588   1.704
34740W        W 7000  42.408  20.652  11.913
34741W        W 7001   1.401  33.589   4.673
34742W        W 7002   6.899   1.002  10.496
34743W        W 7003  38.950  26.681  13.955
34744W        W 7004   9.417   9.211   0.975
34745W        W 7005  34.427  38.093   2.597
34746W        W 7006  14.627  24.415   0.943
34747W        W 7007  27.148  40.668   3.368
34748W        W 7008  22.348  29.055  10.579
34749W        W 7009  31.092   9.234   1.150
34750W        W 7010  26.242  33.922   3.642
34751W        W 7011  12.472   3.717   0.327
34752W        W 7012  22.625  35.999   4.419
34753W        W 7013  24.284  16.694   4.125
34754W        W 7014  16.835   3.769   0.950
34755W        W 7015  23.199   0.901  13.930
34756W        W 7016  14.601  19.377   1.710
34757W        W 7017  28.547  38.967  12.015
34758W        W 7018  14.107  12.400   3.570
34759W        W 7019  11.298  29.108   0.397
34760W        W 7020  13.287  29.206   4.307
34761W        W 7021  40.868  11.228  12.152
34762W        W 7022  30.896  29.204  13.069
34763W        W 7023  21.813  28.682   1.131
34764W        W 7024   8.273  28.385   4.795
34765W        W 7025  43.941  33.483   4.678
34766W        W 7026  30.140  18.128   4.547
34767W        W 7027  36.140  32.675  13.791
34768W        W 7028  41.052   9.727  11.108
34769W        W 7029  36.757   2.214   2.656
34770W        W 7030   1.899   2.350  12.468
34771W        W 7031  23.634  20.961  12.895
34772W        W 7032   1.985  12.360   2.347
34773W        W 7033   5.397  26.121   1.754
34774W        W 7034  13.653  18.800  10.836
34775W        W 7035  19.988  41.950   3.750
34776W        W 7036   4.226  16.801   2.851
34777W        W 7037  14.801  16.659  14.372
34778W        W 7038  43.639  39.911   1.771
34779W        W 7039   0.307  36.653   0.942
34780W        W 7040   1.981  27.555   1.810
34781W        W 7041   6.675   9.748   1.866
34782W        W 7042  13.477  32.352   3.622
34783W        W 7043  11.308  23.896  11.091
34784W        W 7044  18.391  24.496  13.549
34785W        W 7045   4.350   9.421  13.088
34786W        W 7046  37.596  25.997   0.813
34787W        W 7047  33.944  21.483  11.575
34788W        W 7048  16.102  35.139   4.058
34789W        W 7049  24.208   9.751   3.352
34790W        W 7050  14.600   6.851   4.604
34791W        W 7051  41.786  34.331  12.932
34792W        W 7052  27.170  15.791  11.760
34793W        W 7053  42.376  36.423  11.634
34794W        W 7054   4.728  20.147   1.269
34795W        W 7055  16.495   3.701   4.215
34796W        W 7056  13.708   0.820   4.315
34797W        W 7057  39.517  40.130   0.805
34798W        W 7058  43.205  23.152   2.700
34799W        W 7059   9.797  34.388   1.338
34800W        W 7060  33.324  24.917  11.002
34801W        W 7061   8.107  30.772  12.546
34802W        W 7062  28.663  28.497  14.796
34803W        W 7063  36.737  18.292   4.543
34804W        W 7064   8.004  21.120   0.261
34805W        W 7065   8.283   5.270  11.507
34806W        W 7066  10.319  42.928   4.555
34807W        W 7067  10.314   5.844   4.137
34808W        W 7068   1.454  34.247  12.754
34809W        W 7069  18.213  23.666   0.337
34810W        W 7070   6.433  30.644   2.317
34811W        W 7071  25.234  24.699   0.249
34812W        W 7072   4.731  20.582  12.683
34813W        W 7073  23.931  10.081  11.540
34814W        W 7074  15.529  17.033   5.035
34815W        W 7075   7.676  41.542   1.698
34816W        W 7076   3.734  21.425   5.178
34817W        W 7077   2.478  32.881  11.517
34818W        W 7078  32.543   1.475  14.457
34819W        W 7079  32.366  14.565  13.840
34820W        W 7080  24.245  32.663   4.619
34821W        W 7081  27.699  41.478   4.633
34822W        W 7082  12.202  36.358   0.965
34823W        W 7083  15.297  29.702   5.122
34824W        W 7084   3.916  16.901  12.917
34825W        W 7085  37.109  35.923  10.650
34826W        W 7086  14.216  12.608  10.615
34827W        W 7087  39.418  28.833  14.106
34828W        W 7088  36.390  20.218   0.910
34829W        W 7089  33.637   2.979  14.831
34830W        W 7090  31.889  26.124   1.563
34831W        W 7091   8.116   3.828   2.834
34832W        W 7092  19.141  19.610  10.424
34833W        W 7093  32.170  17.373  14.287
34834W        W 7094  37.780  22.037  14.373
34835W        W 7095  24.250  28.051   3.118
34836W        W 7096  40.834  11.395  12.990
34837W        W 7097   7.890  34.588   2.273
34838W        W 7098  42.588  13.863  14.994
34839W        W 7099   9.849  39.373  13.760
34840W        W 7100  38.600  24.027   2.866
34841W        W 7101   5.849  10.642   2.871
34842W        W 7102  29.732   8.144  13.565
34843W        W 7103  18.180  27.956   0.012
34844W        W 7104   2.026   9.241   1.906
34845W        W 7105  35.528  20.599   4.305
34846W        W 7106  38.906  15.540   3.047
34847W        W 7107  31.166  19.621   0.722
34848W        W 7108  39.047  24.488  11.931
34849W        W 7109  16.963  26.340   3.680
34850W        W 7110  43.543  36.896  13.483
34851W        W 7111   4.674  25.634   3.591
34852W        W 7112   3.138  23.106   1.713
34853W        W 7113   6.493  14.355   4.946
34854W        W 7114   1.199  37.405   2.749
34855W        W 7115  41.458  19.133  12.991
34856W        W 7116  36.017  19.808   1.830
34857W        W 7117  27.383  20.838  12.535
34858W        W 7118  24.519   1.895   2.116
34859W        W 7119  31.947   4.250   2.520
34860W        W 7120   1.942  11.835  13.794
34861W        W 7121  23.225   0.583  12.548
34862W        W 7122  11.274   0.349   3.600
34863W        W 7123  25.222  34.163   3.724
34864W        W 7124  34.173   6.459   0.321
34865W        W 7125  18.814  19.711   1.811
34866W        W 7126  30.976  34.026  14.259
34867W        W 7127  17.049   1.889   0.858
34868W        W 7128  27.137  17.681   3.263
34869W        W 7129   1.741   2.450  10.946
34870W        W 7130  11.327   0.944  12.480
34871W        W 7131  14.697  43.838  14.342
34872W        W 7132   1.884  19.266  13.336
34873W        W 7133   3.767   2.661   1.278
34874W        W 7134   1.663   2.039   4.263
34875W        W 7135  28.171  37.120   2.853
34876W        W 7136  14.343   7.603  14.425
34877W        W 7137   9.936  20.596  13.595
34878W        W 7138  35.075   2.493  11.573
34879W        W 7139  17.777  39.784  11.578
34880W        W 7140  11.367  29.205   1.294
34881W        W 7141  39.909  37.002   2.090
34882W        W 7142  39.987  22.714  12.368
34883W        W 7143   6.876  26.238  11.702
34884W        W 7144  22.219  18.533  14.554
34885W        W 7145   8.250  22.484   1.871
34886W        W 7146  33.964  32.429  10.392
34887W        W 7147  43.273  44.709  14.208
34888W        W 7148   1.348  11.507   4.661
34889W        W 7149  15.219  22.042   3.155
34890W        W 7150   0.023  11.854  10.828
34891W        W 7151  19.101  21.683   2.439
34892W        W 7152  17.856  18.575   0.794
34893W        W 7153  24.272  33.107   1.904
34894W        W 7154  25.669  42.808   0.504
34895W        W 7155   7.620  41.078  13.896
34896W        W 7156  17.053  13.569   3.798
34897W        W 7157   6.885  40.850   0.411
34898W        W 7158  26.802  33.829   4.234
34899W        W 7159  33.442   8.795  12.417
34900W        W 7160  18.234   3.035  14.019
34901W        W 7161  29.364  12.429  12.084
34902W        W 7162  41.014  20.502   0.236
34903W        W 7163  11.149   8.961   1.212
34904W        W 7164  35.373  21.913  10.811
34905W        W 7165   2.808  33.011  10.681
34906W        W 7166  42.545  35.650   1.004
34907W        W 7167  39.307  32.585  11.564
34908W        W 7168  29.550  32.879   2.327
34909W        W 7169   2.319   2.625  10.612
34910W        W 7170  12.497   0.386  11.151
34911W        W 7171  26.083  31.826   3.237
34912W        W 7172  13.779  23.732  14.346
34913W        W 7173   6.740  36.931  14.932
34914W        W 7174  37.014  34.309  13.547
34915W        W 7175  10.202  22.747  13.383
34916W        W 7176  26.843   0.758   3.098
34917W        W 7177  35.897  37.420   5.065
34918W        W 7178  27.787  12.691   2.184
34919W        W 7179   5.450  32.312  14.399
34920W        W 7180  11.999  15.861  14.628
34921W        W 7181  14.871  43.859   0.272
34922W        W 7182   5.206  24.234   2.691
34923W        W 7183  10.581  25.032   3.555
34924W        W 7184  24.517   8.623  14.295
34925W        W 7185  23.458   9.294   0.660
34926W        W 7186  15.823  21.555  12.043
34927W        W 7187  39.695  33.413  11.586
34928W        W 7188   1.896   5.701  14.869
34929W        W 7189  16.280  27.999   4.687
34930W        W 7190  29.321  17.695  13.994
34931W        W 7191   3.773  26.055   0.029
34932W        W 7192  34.586  26.621   4.785
34933W        W 7193  26.881  35.452  10.715
34934W        W 7194  22.564  14.900  14.335
34935W        W 7195  42.095   4.019   3.386
34936W        W 7196  36.555  36.681   0.583
34937W        W 7197  43.849  37.401  14.389
34938W        W 7198   2.462  33.911  11.134
34939W        W 7199  11.319  25.605   2.399
34940W        W 7200  36.710   1.377  14.513
34941W        W 7201  34.342  40.617  14.000
34942W        W 7202  29.857  15.278   2.763
34943W        W 7203  39.484  36.096   4.797
34944W        W 7204  15.405  10.324   3.773
34945W        W 7205  22.501  22.670  11.161
34946W        W 7206  18.232  19.062  13.005
34947W        W 7207  15.527  36.074   4.480
34948W        W 7208  37.423  44.674  11.042
34949W        W 7209  32.103  14.760   3.240
34950W        W 7210  25.310  34.562   3.220
34951W        W 7211  11.695   8.846  14.481
34952W        W 7212   1.186  11.199   0.020
34953W        W 7213  34.519  36.467  12.960
34954W        W 7214  24.248  18.083   0.960
34955W        W 7215   1.831  14.245   4.290
34956W        W 7216  30.671  25.630  13.502
34957W        W 7217   8.774  28.634   0.431
34958W        W 7218   9.354  18.083  10.755
34959W        W 7219  30.101  21.105   0.025
34960W        W 7220  13.193  33.282   4.180
34961W        W 7221   8.719  42.350   3.305
34962W        W 7222  20.133  37.110   3.305
34963W        W 7223  10.371   1.477   1.288
34964W        W 7224  34.284  21.038  12.064
34965W        W 7225  19.299   9.009  11.089
34966W        W 7226  42.411  25.916   1.306
34967W        W 7227   9.868  41.367  13.998
34968W        W 7228   0.853  37.774   4.978
34969W        W 7229  39.820  22.106  13.984
34970W        W 7230  20.045  39.077  11.086
34971W        W 7231  10.757  32.069   3.311
34972W        W 7232   3.282  25.509   4.554
34973W        W 7233  44.509  40.260  13.487
34974W        W 7234  11.425  26.512   3.257
34975W        W 7235  32.900  23.334   2.301
34976W        W 7236  25.213   8.759   1.651
34977W        W 7237  30.536  29.284   3.613
34978W        W 7238  30.731  25.688   2.574
34979W        W 7239  28.076  26.179   2.200
34980W        W 7240   4.702  25.181   2.837
34981W        W 7241  19.354  25.002  10.679
34982W        W 7242  12.823  33.003  11.721
34983W        W 7243  41.270   4.787  11.587
34984W        W 7244  40.247  25.822   0.195
34985W        W 7245  30.515   7.314  10.807
34986W        W 7246  44.286  44.737   1.839
34987W        W 7247  16.607  16.355  13.486
34988W        W 7248  38.045  14.721   3.192
34989W        W 7249   7.142   8.162   4.465
34990W        W 7250  44.099  20.696  14.551
34991W        W 7251   8.214  30.333  10.672
34992W        W 7252   0.910  33.380  12.607
34993W        W 7253  30.121  10.159  12.074
34994W        W 7254  41.977  21.018   0.881
34995W        W 7255  16.703   6.710  10.617
34996W        W 7256  25.438  39.440  11.582
34997W        W 7257  32.921  25.087  11.648
34998W        W 7258  43.473   5.958  13.541
34999W        W 7259  27.126  33.863  11.637
35000W        W 7260   5.545  38.310   0.341
35001W        W 7261  31.368  20.478   4.076
35002W        W 7262  42.045  40.581  11.388
35003W        W 7263   6.707  19.654  13.359
35004W        W 7264  10.822  19.012  14.459
35005W        W 7265  12.409  29.643   4.594
35006W        W 7266   4.445  33.914  14.385
35007W        W 7267  31.272  31.464   2.854
35008W        W 7268  32.589  39.479   0.444
35009W        W 7269   1.656   3.917  11.660
35010W        W 7270  34.561  39.535   2.680
35011W        W 7271  15.319  34.315  13.630
35012W        W 7272   1.052  24.375  13.826
35013W        W 7273  14.717  35.449  11.434
35014W        W 7274  33.567  22.761   4.929
35015W        W 7275  15.682   6.860  14.817
35016W        W 7276   3.851  12.867   0.432
35017W        W 7277  18.251  20.421   2.810
35018W        W 7278  32.972  35.880  13.463
35019W        W 7279  28.952  24.296  12.237
35020W        W 7280   5.478   5.920   0.821
35021W        W 7281  40.562  30.660   0.018
35022W        W 7282  30.013  41.181  11.990
35023W        W 7283   5.560  16.612  11.656
35024W        W 7284  13.596  16.988   3.894
35025W        W 7285   7.756  25.219   1.644
35026W        W 7286  13.201  10.812   2.674
35027W        W 7287  41.991  23.823  14.770
35028W        W 7288   2.307  11.165  11.828
35029W        W 7289  39.966  40.947  13.485
35030W        W 7290  41.257  41.116   0.903
35031W        W 7291  44.753   1.464  11.696
35032W        W 7292  13.196  40.428  11.561
35033W        W 7293   4.198   2.277  12.429
35034W        W 7294  41.200  14.064  12.812
35035W        W 7295  26.242  42.791  13.943
35036W        W 7296  28.688  14.790   3.343
35037W        W 7297  44.896  44.739  14.734
35038W        W 7298  26.267  22.972  12.924
35039W        W 7299  31.178  17.104   4.447
35040W        W 7300  11.402  30.066   2.667
35041W        W 7301  35.893   6.721  11.162
35042W        W 7302  32.563  42.966  14.112
35043W        W 7303  14.262  33.172  12.305
35044W        W 7304  21.782   5.408  10.615
35045W        W 7305  10.061  28.527   0.007
35046W        W 7306  38.329   4.261   0.284
35047W        W 7307  44.208  10.908  10.438
35048W        W 7308  29.749  17.020   2.348
35049W        W 7309  18.169   8.683   4.143
35050W        W 7310  34.408  10.772   3.748
35051W        W 7311   2.676   6.784  12.441
35052W        W 7312   3.845  32.483  11.976
35053W        W 7313  27.480  32.813  11.041
35054W        W 7314  30.611  42.358  11.608
35055W        W 7315  39.291  39.825  13.212
35056W        W 7316  42.244  24.585   4.578
35057W        W 7317  33.545   7.217   1.869
35058W        W 7318  15.830  20.269   3.175
35059W        W 7319  16.294  24.667  12.939
35060W        W 7320  17.243  22.116  14.460
35061W        W 7321  37.940  27.035  11.641
35062W        W 7322  27.640  35.364   1.335
35063W        W 7323   0.848  13.925  13.344
35064W        W 7324  10.680  36.903  11.998
35065W        W 7325  38.076  23.589  14.321
35066W        W 7326  25.036  17.053   1.425
35067W        W 7327  32.939  37.271  11.580
35068W        W 7328  42.865  20.187  12.473
35069W        W 7329   7.770   8.169  10.765
35070W        W 7330  36.502  15.312  12.035
35071W        W 7331  36.799  38.957   0.291
35072W        W 7332  43.427  38.121   4.718
35073W        W 7333  38.889   0.639   3.324
35074W        W 7334  44.010  42.001   3.599
35075W        W 7335  22.836  30.416  14.774
35076W        W 7336  23.018  27.189   0.954
35077W        W 7337  34.524  41.046  12.572
35078W        W 7338  20.225  24.033  14.792
35079W        W 7339  11.320  36.664  13.870
35080W        W 7340  42.283  39.796  12.977
35081W        W 7341   9.484  41.511   2.734
35082W        W 7342   2.874  11.573  11.493
35083W        W 7343  37.485  17.763   2.121
35084W        W 7344  40.490   1.893  12.987
35085W        W 7345  28.574  35.899  12.019
35086W        W 7346   8.133  27.726   2.591
35087W        W 7347  15.384   9.859  10.779
35088W        W 7348  29.783  11.984  12.883
35089W        W 7349  28.961  23.988  11.484
35090W        W 7350  38.292   3.834   3.293
35091W        W 7351  41.600   1.745  11.427
35092W        W 7352  38.444  11.280  13.486
35093W        W 7353  34.412  12.832   4.636
35094W        W 7354  21.292  30.873  12.362
35095W        W 7355   4.822  34.568   2.377
35096W        W 7356  43.058  13.656   2.425
35097W        W 7357   5.993   4.731   0.951
35098W        W 7358  19.527  42.768   1.437
35099W        W 7359   7.290  12.555   0.799
35100W        W 7360   0.699  28.424  10.624
35101W        W 7361  17.223  40.470  10.533
35102W        W 7362  29.172  37.569  13.238
35103W        W 7363  12.564  33.160  14.838
35104W        W 7364  37.758   6.161  12.064
35105W        W 7365   4.843  28.889  12.656
35106W        W 7366  38.118   8.657  14.353
35107W        W 7367   7.320  43.778   3.052
35108W        W 7368   2.548  31.543  13.400
35109W        W 7369  40.019  28.506   4.592
35110W        W 7370  23.026   6.810  11.592
35111W        W 7371  35.864  34.223   2.420
35112W        W 7372  22.946  38.432  13.359
35113W        W 7373  17.081  21.113   2.226
35114W        W 7374  27.342  15.357   3.140
35115W        W 7375   9.575  39.191   0.449
35116W        W 7376  18.381  44.473   3.823
35117W        W 7377  44.518  38.085   3.190
35118W        W 7378  44.539  15.575   4.195
35119W        W 7379  26.382  39.355  11.054
35120W        W 7380  39.773  13.202   1.400
35121W        W 7381   9.054  25.016   0.007
35122W        W 7382  38.127  36.036  10.682
35123W        W 7383   0.413  38.803  13.004
35124W        W 7384  11.831  44.223   1.664
35125W        W 7385   9.173   2.454   4.340
35126W        W 7386  16.281   0.022   1.683
35127W        W 7387  18.803  33.090  12.045
35128W        W 7388  26.238   1.487  12.322
35129W        W 7389   2.968  15.691  11.667
35130W        W 7390  15.709  35.769   4.139
35131W        W 7391  16.877  37.277  12.137
35132W        W 7392  40.361  35.428  13.057
35133W        W 7393  31.666  17.160   0.956
35134W        W 7394  38.497  26.396   3.720
35135W        W 7395  44.194  20.104  14.808
35136W        W 7396  30.553  44.032  13.401
35137W        W 7397  31.445   5.865   0.211
35138W        W 7398   7.379   6.683   0.717
35139W        W 7399  40.810  28.450  13.999
35140W        W 7400  20.700  19.624   5.477
35141W        W 7401   1.187  32.455  12.972
35142W        W 7402   7.366  43.873  14.564
35143W        W 7403   7.371  26.573  13.249
35144W        W 7404  15.708  23.513   3.011
35145W        W 7405   3.328  30.503  10.920
35146W        W 7406  20.058  36.178  11.121
35147W        W 7407  34.430  11.026  14.305
35148W        W 7408  43.031  43.224   5.166
35149W        W 7409  39.437   3.886   4.120
35150W        W 7410  33.799  36.335  11.589
35151W        W 7411  29.532  40.385  13.583
35152W        W 7412  23.015  14.180  13.987
35153W        W 7413  25.554  18.017   0.074
35154W        W 7414  16.867   9.916   4.869
35155W        W 7415  26.186  41.865  12.936
35156W        W 7416   6.504   0.959  14.017
35157W        W 7417  17.100   5.203  11.535
35158W        W 7418  13.856  22.180  11.735
35159W        W 7419  11.802  17.405   4.203
35160W        W 7420   9.792  43.266  13.583
35161W        W 7421  31.465   8.800   1.181
35162W        W 7422   5.689   2.748   2.145
35163W        W 7423  17.230  32.969   4.603
35164W        W 7424  11.607   9.266  13.509
35165W        W 7425  42.857  37.128  10.607
35166W        W 7426  29.471   5.726   0.940
35167W        W 7427  20.133  44.848   0.841
35168W        W 7428  38.919  25.776   3.658
35169W        W 7429   2.734  14.726   1.893
35170W        W 7430  12.180  28.175  11.997
35171W        W 7431  42.324  22.717  14.299
35172W        W 7432  20.714   7.959   1.229
35173W        W 7433  14.741  10.289  14.457
35174W        W 7434  39.071   5.600   1.447
35175W        W 7435  19.913  23.858  12.085
35176W        W 7436  23.624  36.400   2.481
35177W        W 7437   1.391   9.303   3.641
35178W        W 7438  43.766  13.737   3.431
35179W        W 7439  19.895  12.567   1.009
35180W        W 7440  18.710  33.630   1.692
35181W        W 7441  41.309   8.831  12.009
35182W        W 7442  43.775  12.637  13.791
35183W        W 7443  17.651   7.364  14.017
35184W        W 7444  10.813  24.085  11.485
35185W        W 7445  12.127  10.146   1.429
35186W        W 7446  42.782  37.799   0.333
35187W        W 7447  41.428  39.564   4.708
35188W        W 7448   6.442  35.554  13.925
35189W        W 7449  22.161  23.582  14.013
35190W        W 7450   3.372  40.458   4.999
35191W        W 7451  20.614   9.680   0.440
35192W        W 7452  11.266  15.406   1.361
35193W        W 7453  27.481  30.983   1.459
35194W        W 7454   3.796  11.649   2.339
35195W        W 7455  43.748   1.630   2.303
35196W        W 7456  38.259  12.293   1.137
35197W        W 7457  25.199   8.001  10.878
35198W        W 7458  27.971  31.656   4.581
35199W        W 7459  28.722  14.666   0.323
35200W        W 7460   0.208  38.742  14.922
35201W        W 7461  15.373  23.504  11.203
35202W        W 7462  14.264  14.728  12.803
35203W        W 7463  12.100  35.950  12.905
35204W        W 7464  25.178  42.924   1.824
35205W        W 7465   4.163   2.917  11.638
35206W        W 7466   5.869  25.483   4.095
35207W        W 7467  40.672  17.208  12.685
35208W        W 7468  14.146   0.384   1.034
35209W        W 7469  15.712  42.956   3.615
35210W        W 7470  36.617  15.852  12.071
35211W        W 7471  23.824  22.872   2.745
35212W        W 7472  27.161  39.646  13.049
35213W        W 7473  28.565  13.537   3.580
35214W        W 7474  21.281  28.782  14.857
35215W        W 7475   9.178  38.352   2.354
35216W        W 7476  19.355   5.877  11.389
35217W        W 7477  35.382  34.356   2.676
35218W        W 7478  19.788  16.801  13.974
35219W        W 7479  35.399  23.069   2.306
35220W        W 7480   5.648  21.129   4.657
35221W        W 7481   6.675  35.987  12.873
35222W        W 7482   1.811  25.143  14.974
35223W        W 7483  14.247   6.466  14.785
35224W        W 7484  35.221   3.252  11.992
35225W        W 7485  32.522  34.894   2.701
35226W        W 7486  27.618  34.377   0.422
35227W        W 7487  21.922   2.208   3.742
35228W        W 7488  28.642   0.426  10.768
35229W        W 7489  44.568   2.792  10.116
35230W        W 7490  20.310   2.393  14.383
35231W        W 7491  23.792  29.071  11.612
35232W        W 7492  33.081  39.866  13.023
35233W        W 7493   7.915   1.954  12.255
35234W        W 7494  40.466  40.559   1.052
35235W        W 7495  27.604   0.549   2.365
35236W        W 7496  42.474  28.074   3.211
35237W        W 7497  20.284  34.451  10.722
35238W        W 7498  21.531   8.653   0.285
35239W        W 7499  34.864  39.563   2.258
35240W        W 7500  38.050   7.625   0.707
35241W        W 7501  19.132  25.519  14.417
35242W        W 7502  30.954  28.476  13.360
35243W        W 7503  40.406  44.059   0.382
35244W        W 7504  43.290  35.381   2.245
35245W        W 7505  14.146  21.575   4.167
35246W        W 7506  22.176  35.528  12.174
35247W        W 7507   1.516  44.222  11.183
35248W        W 7508  20.064   7.832   2.910
35249W        W 7509   2.127  37.544   2.692
35250W        W 7510  15.712  12.917  13.582
35251W        W 7511  25.391  21.982   2.288
35252W        W 7512  16.945  43.569  14.000
35253W        W 7513  41.511  26.371   1.341
35254W        W 7514  21.079   6.874   2.158
35255W        W 7515   8.720  21.881   0.169
35256W        W 7516  12.216   6.461   3.728
35257W        W 7517  11.249   7.409  11.135
35258W        W 7518  28.298  19.230   3.153
35259W        W 7519  43.922  39.475   0.676
35260W        W 7520   6.401   6.449   4.313
35261W        W 7521  31.089   6.987   5.050
35262W        W 7522   6.967  36.620   1.368
35263W        W 7523  11.652   4.711   0.853
35264W        W 7524   4.215  43.595   2.165
35265W        W 7525  27.037   4.188   3.245
35266W        W 7526  12.366  41.800   0.015
35267W        W 7527  31.927  34.879   0.527
35268W        W 7528  10.749   0.694   1.854
35269W        W 7529  31.115  32.780   2.967
35270W        W 7530  44.871  11.195  12.454
35271W        W 7531  17.395   9.727   0.433
35272W        W 7532  39.421  37.857   1.344
35273W        W 7533  28.448  38.814  13.929
35274W        W 7534  42.226   7.903  11.172
35275W        W 7535   1.729  10.914  12.950
35276W        W 7536  35.525  39.803   4.219
35277W        W 7537  20.533  19.679  13.501
35278W        W 7538  40.136  40.860   1.446
35279W        W 7539   5.828  44.048   1.748
35280W        W 7540  44.893  22.806   1.813
35281W        W 7541  20.973  30.662   3.616
35282W        W 7542  32.598  27.772   0.446
35283W        W 7543  30.001  19.794  12.733
35284W        W 7544  42.164   0.234  13.000
35285W        W 7545  28.051  24.217   1.388
35286W        W 7546  38.910   8.241   4.898
35287W        W 7547  38.983  27.416  14.367
35288W        W 7548   8.056  42.876   3.711
35289W        W 7549  33.505  11.530   0.944
35290W        W 7550  44.874  24.590  14.757
35291W        W 7551  32.465  36.173   3.670
35292W        W 7552  41.954  26.648   4.709
35293W        W 7553  42.992  22.250  12.159
35294W        W 7554  23.848  13.094  14.854
35295W        W 7555   0.965  28.356  14.308
35296W        W 7556  17.854  31.165  14.758
35297W        W 7557  44.152  36.626   4.672
35298W        W 7558  33.108  26.726  10.542
35299W        W 7559   5.957  31.517  11.387
35300W        W 7560  39.686  16.244  12.553
35301W        W 7561   8.816  16.744  11.567
35302W        W 7562   7.646  23.047   0.838
35303W        W 7563  36.344   6.719  14.876
35304W        W 7564  11.431  27.881   4.166
35305W        W 7565  19.532  41.371  11.270
35306W        W 7566  41.493   1.240  11.418
35307W        W 7567  12.788  17.227  12.734
35308W        W 7568   9.871  30.908  13.905
35309W        W 7569  15.632  20.698   1.400
35310W        W 7570   0.472  35.817  10.960
35311W        W 7571  21.259  44.443   0.786
35312W        W 7572  29.424  24.916   4.432
35313W        W 7573  11.816   9.354   2.291
35314W        W 7574  15.112  18.790  13.896
35315W        W 7575   2.723  18.078  10.708
35316W        W 7576  30.854   2.416  11.933
35317W        W 7577   4.441  36.567  13.600
35318W        W 7578  42.501  25.556  11.480
35319W        W 7579   3.643  15.199   0.733
35320W        W 7580  33.170   3.959  13.560
35321W        W 7581  40.206   5.640  12.125
35322W        W 7582  38.409  15.717   4.733
35323W        W 7583  29.648  12.621  12.492
35324W        W 7584  24.575  30.863   0.580
35325W        W 7585   0.751   6.718   4.109
35326W        W 7586  15.060   0.188   1.392
35327W        W 7587   3.023  17.703   1.752
35328W        W 7588  18.726  38.543   0.403
35329W        W 7589  41.294  16.378  13.783
35330W        W 7590  33.611  42.736   0.014
35331W        W 7591  42.641  15.577  14.461
35332W        W 7592   4.138  10.290  10.629
35333W        W 7593  30.145  12.613   3.920
35334W        W 7594  28.033  24.541   0.568
35335W        W 7595   3.014   4.425   2.866
35336W        W 7596  10.102  44.638   1.133
35337W        W 7597   5.744  30.483   3.801
35338W        W 7598  40.997  27.615   1.915
35339W        W 7599  32.605  22.074   4.528
35340W        W 7600  29.396   2.891   4.654
35341W        W 7601  34.955  27.490  12.503
35342W        W 7602  37.826  12.708  11.577
35343W        W 7603   7.827  33.623  13.765
35344W        W 7604  24.876  42.769   2.747
35345W        W 7605   1.447  32.816   0.798
35346W        W 7606  26.313  20.340  14.422
35347W        W 7607   3.468  29.999  14.759
35348W        W 7608  14.147  17.036   5.097
35349W        W 7609  25.606  15.602   3.187
35350W        W 7610  11.439  21.815   3.261
35351W        W 7611  12.366  33.243   2.718
35352W        W 7612  22.169  19.484   0.455
35353W        W 7613  31.337  11.219  10.636
35354W        W 7614  30.991   7.642   0.569
35355W        W 7615   4.215   9.908  11.954
35356W        W 7616  11.807  27.004   0.601
35357W        W 7617  39.911  15.254   0.126
35358W        W 7618   3.227  22.662  13.528
35359W        W 7619  25.430   0.283  11.131
35360W        W 7620  32.600   9.411   3.321
35361W        W 7621   4.513  19.211   0.518
35362W        W 7622  37.877  14.022   1.375
35363W        W 7623  31.467  22.600  12.878
35364W        W 7624  23.004  44.809   3.995
35365W        W 7625  35.675   8.779  10.464
35366W        W 7626  34.528   7.312  14.107
35367W        W 7627  39.931  17.295   4.548
35368W        W 7628   9.638  17.208  10.668
35369W        W 7629  15.569  28.540  12.489
35370W        W 7630  30.500  20.257   4.234
35371W        W 7631  16.665   8.783  13.812
35372W        W 7632  15.254  25.602   1.323
35373W        W 7633  31.042  27.270  13.890
35374W        W 7634  26.975  22.840   0.771
35375W        W 7635   6.780  22.666  14.989
35376W        W 7636   2.530  30.066  10.622
35377W        W 7637  38.789  35.118   0.359
35378W        W 7638   4.549   5.384  12.567
35379W        W 7639  28.475  23.008   1.809
35380W        W 7640   8.382  11.584   4.613
35381W        W 7641   6.019  32.593   4.154
35382W        W 7642  42.284  10.467  10.976
35383W        W 7643   6.902  36.104   4.522
35384W        W 7644  43.818  37.799   1.916
35385W        W 7645   4.797  14.028   4.102
35386W        W 7646  29.836  21.215   4.054
35387W        W 7647  29.773  18.029  13.060
35388W        W 7648  22.841  16.975  13.929
35389W        W 7649  42.913  42.163   1.279
35390W        W 7650  34.673   3.190  13.352
35391W        W 7651  43.592  44.448  10.036
35392W        W 7652  25.432  41.348  11.958
35393W        W 7653   1.743  10.155   2.732
35394W        W 7654  43.991  18.786   1.451
35395W        W 7655  39.495  30.019   3.133
35396W        W 7656   9.725  33.513   3.229
35397W        W 7657  28.888  18.298  14.517
35398W        W 7658  26.050  27.225   2.195
35399W        W 7659  20.053  27.540  11.609
35400W        W 7660  30.035  14.386   0.268
35401W        W 7661  29.732   8.031   0.127
35402W        W 7662  32.363  36.897   1.302
35403W        W 7663  32.998  29.689  11.051
35404W        W 7664  37.791  32.544  10.634
35405W        W 7665  37.503  43.583   4.563
35406W        W 7666  11.870  31.133  14.929
35407W        W 7667  33.261  42.805   2.784
35408W        W 7668   0.276   5.896  11.409
35409W        W 7669  25.109  39.309   3.962
35410W        W 7670  11.422  27.952  13.061
35411W        W 7671  36.169   4.709   0.863
35412W        W 7672  40.909   1.738   1.823
35413W        W 7673  23.193  34.172   0.873
35414W        W 7674  28.087   1.684  12.523
35415W        W 7675   0.906  10.363   0.303
35416W        W 7676   3.625  16.797  12.094
35417W        W 7677  12.115  16.693  12.836
35418W        W 7678  11.270  41.927   0.844
35419W        W 7679  17.366  16.993  13.279
35420W        W 7680   4.708   2.348  11.903
35421W        W 7681  14.338  32.065  14.061
35422W        W 7682  42.362  35.135  13.317
35423W        W 7683  12.861  41.902  14.859
35424W        W 7684   6.113  37.254  13.576
35425W        W 7685  19.906  23.066   4.190
35426W        W 7686  14.551  13.421   0.266
35427W        W 7687  13.917  18.769   4.861
35428W        W 7688  11.256  27.659   0.232
35429W        W 7689  24.362  15.716   4.144
35430W        W 7690   8.917   3.467  14.492
35431W        W 7691  20.036  38.770   1.710
35432W        W 7692  44.837  21.270   2.899
35433W        W 7693  32.456   6.239  14.811
35434W        W 7694  27.966  35.517   4.576
35435W        W 7695   3.221  27.986  10.994
35436W        W 7696  28.917  37.598  14.276
35437W        W 7697  12.649  42.602   3.650
35438W        W 7698  16.785  41.721   4.293
35439W        W 7699  33.556  18.177   1.933
35440W        W 7700  13.161  13.358   2.845
35441W        W 7701   7.652  19.956  10.868
35442W        W 7702  10.961  11.125   0.808
35443W        W 7703  44.442  14.499   2.386
35444W        W 7704  31.900  22.881  11.076
35445W        W 7705  39.527  39.057  10.588
35446W        W 7706  39.657  11.252  13.973
35447W        W 7707  23.279  18.990  13.080
35448W        W 7708  12.853  18.058   2.851
35449W        W 7709   6.930  43.776   4.227
35450W        W 7710  28.395  41.448  10.647
35451W        W 7711  25.402  33.473  13.792
35452W        W 7712   9.084  27.231   3.379
35453W        W 7713  40.740   1.954   3.758
35454W        W 7714  40.479  19.806  10.249
35455W        W 7715  27.194   7.329   1.930
35456W        W 7716  26.948  39.143   3.256
35457W        W 7717  15.094  15.892  12.024
35458W        W 7718  20.608   2.454   4.675
35459W        W 7719  32.126   1.412  10.642
35460W        W 7720  12.865  19.373  11.186
35461W        W 7721  37.277   8.278  11.163
35462W        W 7722  38.424  35.643  10.395
35463W        W 7723  11.816  19.173  12.047
35464W        W 7724  27.079  17.355   0.733
35465W        W 7725  14.278  25.986  11.830
35466W        W 7726  18.339   0.676  14.674
35467W        W 7727   3.121  37.591  14.025
35468W        W 7728  40.608  44.053  11.170
35469W        W 7729  43.461  42.810   0.816
35470W        W 7730  38.560   8.184  10.307
35471W        W 7731  34.024   0.776   1.651
35472W        W 7732  25.929  20.514  11.609
35473W        W 7733  27.702  13.986   3.213
35474W        W 7734   5.230  11.794   2.170
35475W        W 7735  24.583  26.525  14.383
35476W        W 7736  31.136   6.234  14.540
35477W        W 7737  26.991   7.219   1.263
35478W        W 7738  27.010  25.855   4.160
35479W        W 7739   9.549  22.997   4.219
35480W        W 7740  23.306  24.470  13.457
35481W        W 7741  15.106  14.590   5.687
35482W        W 7742   9.424  39.949   0.512
35483W        W 7743   0.305   6.382   0.827
35484W        W 7744  44.776  19.511  14.308
35485W        W 7745  28.278  23.102   1.334
35486W        W 7746  28.027  31.973  12.128
35487W        W 7747  30.874  10.357   4.184
35488W        W 7748  30.039  21.682   3.247
35489W        W 7749  30.418  34.646   2.863
35490W        W 7750  35.341  34.400  11.993
35491W        W 7751  10.394  22.472   0.020
35492W        W 7752  42.422   1.532  10.565
35493W        W 7753  28.074  42.135  12.879
35494W        W 7754  22.170  23.561   2.947
35495W        W 7755  28.717  43.059  13.930
35496W        W 7756  24.597   8.133   3.279
35497W        W 7757   9.546   1.361   3.987
35498W        W 7758  27.058  25.665   4.636
35499W        W 7759  33.904  20.661   9.638
35500W        W 7760   4.003   7.588   0.292
35501W        W 7761  23.461  32.657  10.465
35502W        W 7762  18.040   0.312   1.247
35503W        W 7763  42.925  34.499  12.197
35504W        W 7764  16.635  20.385   3.378
35505W        W 7765  24.111  43.461   4.537
35506W        W 7766   3.055  38.063  14.232
35507W        W 7767  23.080  32.526   3.704
35508W        W 7768   6.969  41.405  10.992
35509W        W 7769  28.688  15.673  12.376
35510W        W 7770  41.796  30.861  13.154
35511W        W 7771  43.978   0.870  13.878
35512W        W 7772  39.140   8.901   5.083
35513W        W 7773  22.647  15.671  13.027
35514W        W 7774  14.828  25.146   1.892
35515W        W 7775   0.749  21.497  13.322
35516W        W 7776  19.448  36.511   1.739
35517W        W 7777  26.930  13.938   1.368
35518W        W 7778  39.535  38.899  11.098
35519W        W 7779  27.465  42.247  14.031
35520W        W 7780  32.050  19.975  12.508
35521W        W 7781   3.554  32.440   3.744
35522W        W 7782   2.449  39.890   3.730
35523W        W 7783  19.880  30.993  14.821
35524W        W 7784  43.523   2.612  13.321
35525W        W 7785  25.640  30.437  14.357
35526W        W 7786  20.230   1.774   1.129
35527W        W 7787  14.808   7.870  14.437
35528W        W 7788  18.033  26.975   3.994
35529W        W 7789  34.431  10.126   4.186
35530W        W 7790  37.285  14.070  13.080
35531W        W 7791   6.702   6.428  14.918
35532W        W 7792  34.673   0.792  14.439
35533W        W 7793   5.153  40.404   4.020
35534W        W 7794  21.662  28.672   2.746
35535W        W 7795   7.162   8.869  11.166
35536W        W 7796  16.546  31.891  14.357
35537W        W 7797  13.587  32.469   2.733
35538W        W 7798  33.095  12.624   1.263
35539W        W 7799  21.015  38.959  13.712
35540W        W 7800  11.050  37.803   0.989
35541W        W 7801  21.884   8.626  12.109
35542W        W 7802  17.025  22.207  10.728
35543W        W 7803  27.162  44.824   4.713
35544W        W 7804  24.853  35.195   4.503
35545W        W 7805   6.954   2.812   2.715
35546W        W 7806  29.765  16.866  12.038
35547W        W 7807   6.903  21.545   4.904
35548W        W 7808  12.584   8.857  10.665
35549W        W 7809  27.952  10.904   0.504
35550W        W 7810  44.253   0.421   5.014
35551W        W 7811   8.474  23.001   1.304
35552W        W 7812  36.611  14.317  11.123
35553W        W 7813  35.628  29.188   3.152
35554W        W 7814   2.115  24.652   4.069
35555W        W 7815  27.276  27.154  10.683
35556W        W 7816  26.795   5.802  13.016
35557W        W 7817  34.700  30.975  10.589
35558W        W 7818  13.994  44.302   5.050
35559W        W 7819  22.415  13.840   0.392
35560W        W 7820  39.805  35.920   3.868
35561W        W 7821  30.804  14.890   1.729
35562W        W 7822  35.304  38.348   3.745
35563W        W 7823  37.982  42.275  12.867
35564W        W 7824  29.565  29.232   1.700
35565W        W 7825  14.915  43.224   1.531
35566W        W 7826  39.792  25.204   3.892
35567W        W 7827  25.589  26.250   4.618
35568W        W 7828  14.511   0.700   2.477
35569W        W 7829  21.801  14.264  12.396
35570W        W 7830  20.701  41.748  13.436
35571W        W 7831  34.234  25.814  10.755
35572W        W 7832  12.114  25.348  12.024
35573W        W 7833  23.044  44.521   2.672
35574W        W 7834  14.246  40.786   4.635
35575W        W 7835  40.018  13.387  12.049
35576W        W 7836  24.730  26.846   3.829
35577W        W 7837  31.069  31.490  10.825
35578W        W 7838  33.351  41.535   3.828
35579W        W 7839   0.555  33.140   1.263
35580W        W 7840  43.437  38.785  13.473
35581W        W 7841  30.849   2.011  13.552
35582W        W 7842  13.195  24.230  14.859
35583W        W 7843  35.007  37.943  11.503
35584W        W 7844  31.282   6.578  12.448
35585W        W 7845  26.020  28.211  12.445
35586W        W 7846  44.528  44.740   0.999
35587W        W 7847   7.268  28.445   4.170
35588W        W 7848  34.541  19.280  10.730
35589W        W 7849  24.416  30.560  14.015
35590W        W 7850  37.491  12.478  14.919
35591W        W 7851   1.080  24.451  11.945
35592W        W 7852  19.502  24.533  14.395
35593W        W 7853  37.059  16.189  13.477
35594W        W 7854   2.206  14.319   0.872
35595W        W 7855   6.268  19.314  11.522
35596W        W 7856   0.862  19.779  11.534
35597W        W 7857  38.484  19.628  10.620
35598W        W 7858  43.497  44.514   2.716
35599W        W 7859   9.757  43.291  12.462
35600W        W 7860   1.802  18.744   1.841
35601W        W 7861   1.338   9.900   0.977
35602W        W 7862  41.978  23.648   0.256
35603W        W 7863  33.961  30.468   1.538
35604W        W 7864  36.901  41.432  10.436
35605W        W 7865  10.264   3.245  12.751
35606W        W 7866  39.448  15.131  13.918
35607W        W 7867  23.805  43.536  10.661
35608W        W 7868   5.056  21.918   0.935
35609W        W 7869  25.645  44.973  10.759
35610W        W 7870  10.621  32.772   2.420
35611W        W 7871  30.521  15.867   0.394
35612W        W 7872   0.227   6.080   1.248
35613W        W 7873  24.402  14.299  14.832
35614W        W 7874  42.212   5.512  13.830
35615W        W 7875  43.787  25.492  10.734
35616W        W 7876  26.812  18.545  12.501
35617W        W 7877  36.327  38.054   3.230
35618W        W 7878   8.265  36.602   1.949
35619W        W 7879  12.225  29.573  10.059
35620W        W 7880  32.086   2.229   0.214
35621W        W 7881  20.376  10.712  13.589
35622W        W 7882   8.838   2.041  11.236
35623W        W 7883  18.869  41.389   4.031
35624W        W 7884   3.554  31.235   5.150
35625W        W 7885  39.320  13.321  11.522
35626W        W 7886  11.368  31.189  11.682
35627W        W 7887  42.386  14.583  13.410
35628W        W 7888  20.832  12.534   1.351
35629W        W 7889  24.147  30.012   2.142
35630W        W 7890  23.109  18.589  13.984
35631W        W 7891  17.817  21.186   2.050
35632W        W 7892  15.154   2.781  12.420
35633W        W 7893   3.301  34.789   0.990
35634W        W 7894  18.482  31.430  11.181
35635W        W 7895  14.859  34.932  12.038
35636W        W 7896  23.520  32.254   1.222
35637W        W 7897  27.548  11.682   3.550
35638W        W 7898  27.511  43.234   2.895
35639W        W 7899  17.577  10.869   3.779
35640W        W 7900  20.173  21.163  14.025
35641W        W 7901  39.387  23.311  12.437
35642W        W 7902  20.939  43.283  11.045
35643W        W 7903  42.530  17.339  14.432
35644W        W 7904  31.616   8.234   2.419
35645W        W 7905  20.522   0.458   0.210
35646W        W 7906  39.052  18.713   3.975
35647W        W 7907  33.474  30.407   4.292
35648W        W 7908  35.769  10.178  12.072
35649W        W 7909  10.514  28.043  11.200
35650W        W 7910  10.681  44.778   4.646
35651W        W 7911  32.697  17.624   0.417
35652W        W 7912  19.606  42.759  11.387
35653W        W 7913  42.779  30.180  11.004
35654W        W 7914  31.110   8.611   4.649
35655W        W 7915  22.487  13.352  12.891
35656W        W 7916  17.381  42.501   1.388
35657W        W 7917  38.806  41.024  11.558
35658W        W 7918  36.946   1.855   1.841
35659W        W 7919  29.513  16.562   4.170
35660W        W 7920  11.114  30.670  11.586
35661W        W 7921  44.257  16.635  12.973
35662W        W 7922  11.532  42.100  12.980
35663W        W 7923  35.606  29.899  13.409
35664W        W 7924  10.258   8.693  12.752
35665W        W 7925  35.875   3.132  14.301
35666W        W 7926   5.183  19.905   1.364
35667W        W 7927  17.633  34.026  13.274
35668W        W 7928  26.314  23.564   2.744
35669W        W 7929  41.289   7.020   0.986
35670W        W 7930   2.275  33.084   3.571
35671W        W 7931  32.025  28.484  12.413
35672W        W 7932  38.968   6.381  13.843
35673W        W 7933  12.237   1.443  13.013
35674W        W 7934  21.699  38.526  10.374
35675W        W 7935  15.613   7.906   0.775
35676W        W 7936  44.414  13.685  14.777
35677W        W 7937  30.829  24.708  14.984
35678W        W 7938  16.183  28.004   2.438
35679W        W 7939  31.657  33.501  14.265
35680W        W 7940  12.273  28.391   1.419
35681W        W 7941  22.256  32.438  13.570
35682W        W 7942   4.673   3.926  11.804
35683W        W 7943   8.863  29.705   4.649
35684W        W 7944  25.040  33.186  13.083
35685W        W 7945  10.099  25.162   3.553
35686W        W 7946   2.538  41.989   2.705
35687W        W 7947   4.619  22.804   3.681
35688W        W 7948  17.188  13.028  11.987
35689W        W 7949  18.566  22.107  13.937
35690W        W 7950   7.725  15.527  14.530
35691W        W 7951  14.049  44.026   3.199
35692W        W 7952  35.436   3.236   2.302
35693W        W 7953  42.963  20.809   4.192
35694W        W 7954  34.953  39.460  13.885
35695W        W 7955  29.204  33.831  13.346
35696W        W 7956  40.934  35.772   0.993
35697W        W 7957  14.336  27.113   4.338
35698W        W 7958  38.457  26.747  12.172
35699W        W 7959  30.339  34.925   0.139
35700W        W 7960  18.654  29.378   4.183
35701W        W 7961  28.634  31.705   0.481
35702W        W 7962  38.785   1.708  11.072
35703W        W 7963  32.958  35.060   2.940
35704W        W 7964  18.531   8.691  13.769
35705W        W 7965   3.702  29.365   2.237
35706W        W 7966  39.918  27.651   2.118
35707W        W 7967  40.353   0.591  11.847
35708W        W 7968  18.893  40.795  12.596
35709W        W 7969  27.132  38.374  10.917
35710W        W 7970  28.696  21.774  12.569
35711W        W 7971  39.097  35.072   1.867
35712W        W 7972  38.538  27.125  11.076
35713W        W 7973  31.977  26.119  13.476
35714W        W 7974   6.738  31.638  12.907
35715W        W 7975  27.967  15.158  10.185
35716W        W 7976   3.275  40.624   1.987
35717W        W 7977   0.114  17.213   1.765
35718W        W 7978  27.852  27.899  14.524
35719W        W 7979   8.734  31.358   3.668
35720W        W 7980  31.172  18.640   4.712
35721W        W 7981  21.107  29.185  13.598
35722W        W 7982  34.349  27.279   5.003
35723W        W 7983  31.852  10.929  11.217
35724W        W 7984  19.153  27.508   2.178
35725W        W 7985  33.350  29.078  10.996
35726W        W 7986  36.350  10.876   0.943
35727W        W 7987  13.426  38.486  14.271
35728W        W 7988  32.900   8.228   2.730
35729W        W 7989  18.838  37.127  12.351
35730W        W 7990  14.671   2.791   1.745
35731W        W 7991  27.910  20.928   1.226
35732W        W 7992   3.435  27.476   0.800
35733W        W 7993   9.767  18.640   3.566
35734W        W 7994  16.727  42.547   0.296
35735W        W 7995  44.401  21.569   0.307
35736W        W 7996  27.047  30.081   0.752
35737W        W 7997  15.249  17.812  13.852
35738W        W 7998  36.427  20.536   0.437
35739W        W 7999  41.089  18.534  11.051
35740W        W 8000   5.743  26.094  11.128
35741W        W 8001  33.965   9.837  13.410
35742W        W 8002  33.801   3.376   2.947
35743W        W 8003  35.024  28.607   0.817
35744W        W 8004  40.022  24.219   4.887
35745W        W 8005   2.942  14.182   2.740
35746W        W 8006   4.348  21.739  11.857
35747W        W 8007  20.487   6.015   2.786
35748W        W 8008  35.796  30.230  10.430
35749W        W 8009   3.739  24.398  12.520
35750W        W 8010  34.337   1.036   4.780
35751W        W 8011  34.420  26.183   1.896
35752W        W 8012  19.224  26.110   2.482
35753W        W 8013  33.424  33.838   1.084
35754W        W 8014  36.903  17.779   4.628
35755W        W 8015  20.591  29.075   3.139
35756W        W 8016  18.646   5.894   2.402
35757W        W 8017   8.428  44.330  10.654
35758W        W 8018  22.290  10.763  13.262
35759W        W 8019   4.664   5.495  14.793
35760W        W 8020  43.264  17.653   3.192
35761W        W 8021  14.883  20.022   3.900
35762W        W 8022  23.013  36.951   1.741
35763W        W 8023  42.641  43.139   1.161
35764W        W 8024  29.505  34.362   2.346
35765W        W 8025  16.252  34.487   4.627
35766W        W 8026  16.864   6.287   1.739
35767W        W 8027  43.821  16.367  11.882
35768W        W 8028   6.477  13.884  11.907
35769W        W 8029  25.503   9.306   1.401
35770W        W 8030  30.558  18.494  10.670
35771W        W 8031   6.432  33.528   2.223
35772W        W 8032   4.866   9.639   3.903
35773W        W 8033  32.086  32.671   3.246
35774W        W 8034  26.075  13.111   2.830
35775W        W 8035   1.877   2.991   0.286
35776W        W 8036  36.354  14.061  12.362
35777W        W 8037  23.923   3.270  11.793
35778W        W 8038  16.376  36.603   0.675
35779W        W 8039  36.830  10.650   2.679
35780W        W 8040   8.662  42.504  12.418
35781W        W 8041  13.231  33.742  10.135
35782W        W 8042  23.041  15.651  10.100
35783W        W 8043  10.343  42.288   0.228
35784W        W 8044  38.924  33.869   2.498
35785W        W 8045  29.458   5.620   4.732
35786W        W 8046  17.808  35.491  12.441
35787W        W 8047  15.001   7.795   4.522
35788W        W 8048  31.912  38.165  14.387
35789W        W 8049  38.368  41.470   3.585
35790W        W 8050  19.304  38.459  11.195
35791W        W 8051   5.713  12.226   0.372
35792W        W 8052  14.620  11.603   3.839
35793W        W 8053   1.301  41.223  12.443
35794W        W 8054  10.340  11.205   2.757
35795W        W 8055  22.649  39.557  13.256
35796W        W 8056   5.403   6.802   3.102
35797W        W 8057  31.521   4.116   3.289
35798W        W 8058  44.585  28.601   2.469
35799W        W 8059  44.324  19.199   2.623
35800W        W 8060  40.828  40.493  10.521
35801W        W 8061  25.301  13.740   3.753
35802W        W 8062   6.137  39.054  10.122
35803W        W 8063  30.045  25.953  14.704
35804W        W 8064  32.587  15.332   4.609
35805W        W 8065   8.411  13.620  12.351
35806W        W 8066  19.467  40.848   1.863
35807W        W 8067   1.327   1.443   4.691
35808W        W 8068  15.187  44.219   0.489
35809W        W 8069  21.475  33.644   0.459
35810W        W 8070  26.247  36.896   0.388
35811W        W 8071  19.157  23.004  13.990
35812W        W 8072  14.385  40.896   2.684
35813W        W 8073   9.887  34.049  14.266
35814W        W 8074   4.228  20.363  13.816
35815W        W 8075  12.349  32.457   1.560
35816W        W 8076  32.082  39.192  14.398
35817W        W 8077  43.343  21.840  11.028
35818W        W 8078  26.404  13.355   4.075
35819W        W 8079  18.306  30.555  11.215
35820W        W 8080  24.218  40.713   0.936
35821W        W 8081  34.123  40.611  13.301
35822W        W 8082   2.454  26.579  11.673
35823W        W 8083  24.871  31.638  14.686
35824W        W 8084  24.119   9.692   2.119
35825W        W 8085  34.893  30.087  11.949
35826W        W 8086  30.384   5.865   0.952
35827W        W 8087  14.275  16.606   1.833
35828W        W 8088   1.680  29.613   5.005
35829W        W 8089  42.759  30.719  12.733
35830W        W 8090  18.685  10.065  10.658
35831W        W 8091  10.222   4.730  11.362
35832W        W 8092   5.936  26.185  10.668
35833W        W 8093  38.854  17.239  14.255
35834W        W 8094  18.501  11.356  11.552
35835W        W 8095   6.131  31.701  10.940
35836W        W 8096   1.916  19.785   0.549
35837W        W 8097   5.880  26.756  14.858
35838W        W 8098  19.950  16.855  14.803
35839W        W 8099  18.736  23.084   1.309
35840W        W 8100  15.310   0.962   2.708
35841W        W 8101  37.754   3.774   3.298
35842W        W 8102   3.987  12.888  13.319
35843W        W 8103   3.727  29.144  13.402
35844W        W 8104  38.819   6.824   3.799
35845W        W 8105  32.502  24.601   2.959
35846W        W 8106  36.325  20.714  12.362
35847W        W 8107  35.858  34.039   3.667
35848W        W 8108  41.503   2.689  11.977
35849W        W 8109  15.304  32.849   1.865
35850W        W 8110  24.069  11.021  14.636
35851W        W 8111  19.522  16.500   0.811
35852W        W 8112  15.981  32.984   3.920
35853W        W 8113  25.163   4.233  11.008
35854W        W 8114   8.913  32.335  11.189
35855W        W 8115   2.251  17.297   0.933
35856W        W 8116  24.707  24.595   3.938
35857W        W 8117   3.556  17.521   2.498
35858W        W 8118  23.247   4.966   4.394
35859W        W 8119  26.305   1.209   3.732
35860W        W 8120  31.536  23.679  13.331
35861W        W 8121  39.565  23.189   4.108
35862W        W 8122  21.660  21.300  10.174
35863W        W 8123  36.364   9.865   0.609
35864W        W 8124  39.987  26.152   4.939
35865W        W 8125  27.135  27.989  11.726
35866W        W 8126  29.216  30.549   0.536
35867W        W 8127  10.942  18.694  13.169
35868W        W 8128  30.110  12.333   3.149
35869W        W 8129  25.210  18.050  11.631
35870W        W 8130  39.765   1.377   4.615
35871W        W 8131  35.659  39.786   3.710
35872W        W 8132  10.257  33.474  11.909
35873W        W 8133  24.431  32.306   0.295
35874W        W 8134  18.235  21.002   2.831
35875W        W 8135  17.097  42.418  14.511
35876W        W 8136  20.604  18.442  14.155
35877W        W 8137  21.538   4.423  13.419
35878W        W 8138   5.284  22.156   0.448
35879W        W 8139  37.756  17.814   1.202
35880W        W 8140  27.674  35.689  11.590
35881W        W 8141  12.729  34.118   4.345
35882W        W 8142  32.192  25.635  13.391
35883W        W 8143  22.763  44.480  14.876
35884W        W 8144  43.375  18.947  14.435
35885W        W 8145  28.327  35.068  10.660
35886W        W 8146  44.405  36.981  13.724
35887W        W 8147  28.836  13.812  10.645
35888W        W 8148  18.027   9.930  12.536
35889W        W 8149  14.217   5.742  11.700
35890W        W 8150   3.002  12.251  14.705
35891W        W 8151   8.815   5.146   3.749
35892W        W 8152  20.896  31.493   2.826
35893W        W 8153   7.298  41.928   0.476
35894W        W 8154  14.227  19.578  12.014
35895W        W 8155  44.904  30.998  12.973
35896W        W 8156  33.915  19.563   0.805
35897W        W 8157  31.128  11.651   3.162
35898W        W 8158  38.323   9.168  10.664
35899W        W 8159  20.342  18.191   4.213
35900W        W 8160   4.915  42.952  10.634
35901W        W 8161  22.149  29.797  14.762
35902W        W 8162  20.422  18.165  11.517
35903W        W 8163  41.021  30.135  13.420
35904W        W 8164   9.629  26.010   0.638
35905W        W 8165  36.615  27.887  11.928
35906W        W 8166  36.294  23.623  14.892
35907W        W 8167  19.611  37.570  12.077
35908W        W 8168  30.233   2.605   4.563
35909W        W 8169  42.557   3.017   3.369
35910W        W 8170  38.484  11.601   0.729
35911W        W 8171  29.554  36.479  13.809
35912W        W 8172  35.162  37.298   1.856
35913W        W 8173   8.020  32.509  13.859
35914W        W 8174   1.053  20.684  14.240
35915W        W 8175  36.932  43.861  13.491
35916W        W 8176   2.759   1.032  11.658
35917W        W 8177  31.928   5.629   0.289
35918W        W 8178  36.444  41.070  13.940
35919W        W 8179  40.970   0.280   2.602
35920W        W 8180  37.865   4.363   2.743
35921W        W 8181  20.385  41.448  12.145
35922W        W 8182  33.404  23.266   2.287
35923W        W 8183   2.777  11.354  12.485
35924W        W 8184  15.221  26.492  11.607
35925W        W 8185   0.221   6.118  12.505
35926W        W 8186  27.714  38.603  12.158
35927W        W 8187  34.826  29.181   2.591
35928W        W 8188  38.344   8.782  11.486
35929W        W 8189  38.233   9.257   1.457
35930W        W 8190  37.934  10.750   0.258
35931W        W 8191   7.790  26.190  12.038
35932W        W 8192  11.094  28.448   1.799
35933W        W 8193  11.140  22.251  12.268
35934W        W 8194  31.133  37.918   2.954
35935W        W 8195   1.163  26.677   0.369
35936W        W 8196   5.079  19.616  11.198
35937W        W 8197  31.681  28.329   4.113
35938W        W 8198  44.812  32.416   3.678
35939W        W 8199  33.744  15.228   0.373
35940W        W 8200  19.178  43.238  12.491
35941W        W 8201  12.037  37.829  14.828
35942W        W 8202   1.307  30.588  14.390
35943W        W 8203   9.181  29.908  10.911
35944W        W 8204  19.146  40.085   4.658
35945W        W 8205  44.705  42.705   3.748
35946W        W 8206  12.231  23.740   0.918
35947W        W 8207  36.582  33.431  13.858
35948W        W 8208   0.582  34.467  14.451
35949W        W 8209   8.940  24.214  13.855
35950W        W 8210  27.606   6.745  13.433
35951W        W 8211  20.295  21.651   5.528
35952W        W 8212  27.491   9.382   4.908
35953W        W 8213  36.028  22.984   2.679
35954W        W 8214   7.456  36.591   1.505
35955W        W 8215  25.374  22.576  14.305
35956W        W 8216  25.776  32.423   1.376
35957W        W 8217  28.732   4.470   5.039
35958W        W 8218  24.103  13.679  11.843
35959W        W 8219  29.704  32.381   2.146
35960W        W 8220  11.126  22.594  11.436
35961W        W 8221  30.092  18.159  13.607
35962W        W 8222   5.681  14.335  10.809
35963W        W 8223  44.439  17.116  11.813
35964W        W 8224  19.996  36.293  11.638
35965W        W 8225   2.568   6.080  13.326
35966W        W 8226   1.039   4.247  11.231
35967W        W 8227  24.726  43.214   1.894
35968W        W 8228  36.089   8.124  13.149
35969W        W 8229   7.252  13.793   3.424
35970W        W 8230  29.947  21.181   4.973
35971W        W 8231   7.224  39.034   0.400
35972W        W 8232  42.849   4.076  11.604
35973W        W 8233  30.742  14.045   0.774
35974W        W 8234  38.487  10.574   2.480
35975W        W 8235   5.416  28.160  14.010
35976W        W 8236   0.215  36.841   1.922
35977W        W 8237  20.979  37.623  11.129
35978W        W 8238  20.113  26.656  14.375
35979W        W 8239  25.107  44.049   3.361
35980W        W 8240  29.144  39.528   4.141
35981W        W 8241  23.005  11.914   1.150
35982W        W 8242  44.608  31.015   3.840
35983W        W 8243  27.922  21.562  13.929
35984W        W 8244  21.332  12.622   2.150
35985W        W 8245  13.085   1.364   4.272
35986W        W 8246  21.680  41.535   3.317
35987W        W 8247  16.826  33.306   3.398
35988W        W 8248  35.936  26.530  13.542
35989W        W 8249  11.689  22.349   1.521
35990W        W 8250  42.904  40.919  13.378
35991W        W 8251  30.878  27.725  13.116
35992W        W 8252   8.031  32.107   3.666
35993W        W 8253  33.152  31.830  14.792
35994W        W 8254  42.972   8.249  12.123
35995W        W 8255  21.910  31.200   2.929
35996W        W 8256  33.605   4.699  11.301
35997W        W 8257  16.577  19.334   0.552
35998W        W 8258  17.120  15.222  13.254
35999W        W 8259   9.873  31.752   2.909
36000W        W 8260  13.811   5.439   4.006
36001W        W 8261  21.320   1.525  10.750
36002W        W 8262  14.948  18.615   0.488
36003W        W 8263   0.953  24.563  12.939
36004W        W 8264  15.777  27.156  14.280
36005W        W 8265  21.414  11.816   4.515
36006W        W 8266   8.766  22.085   4.490
36007W        W 8267  31.391  17.809  13.892
36008W        W 8268  15.743  10.705  10.888
36009W        W 8269  21.108   1.732  12.844
36010W        W 8270  38.407  43.098   1.278
36011W        W 8271   7.523   6.318  13.663
36012W        W 8272   7.703  33.386  13.312
36013W        W 8273  36.078  15.863  14.700
36014W        W 8274  35.071  41.749  10.657
36015W        W 8275  44.216   7.987   3.528
36016W        W 8276   4.761  26.905  12.894
36017W        W 8277  34.844   7.045  10.549
36018W        W 8278  17.765  26.224  12.408
36019W        W 8279  37.042  40.627   0.654
36020W        W 8280  12.851  32.415   1.410
36021W        W 8281  17.607  18.662   1.366
36022W        W 8282  12.360   4.310  13.240
36023W        W 8283   4.706  22.283  12.000
36024W        W 8284  38.479   6.191   0.326
36025W        W 8285  19.778   8.637   2.052
36026W        W 8286  43.502  33.117  11.995
36027W        W 8287   0.471  36.877   4.638
36028W        W 8288  24.704  25.543   4.301
36029W        W 8289  34.910  20.831   9.748
36030W        W 8290   3.887  25.716  11.467
36031W        W 8291  38.400  20.168   2.915
36032W        W 8292  20.004   3.995   4.103
36033W        W 8293  42.224   8.835  11.061
36034W        W 8294  10.937   2.328  11.669
36035W        W 8295  16.706  19.791  13.538
36036W        W 8296  42.504   5.325   3.806
36037W        W 8297  16.433  22.680   2.764
36038W        W 8298   3.222  13.633   3.402
36039W        W 8299  37.605  26.526   3.800
36040W        W 8300   9.416  14.846   4.526
36041W        W 8301  29.891  19.645  13.702
36042W        W 8302  35.000  28.700   2.443
36043W        W 8303  13.144  42.790   2.855
36044W        W 8304  17.401   1.956  13.599
36045W        W 8305  21.566   4.695   1.776
36046W        W 8306   8.907  41.554   0.828
36047W        W 8307  13.048  12.892  13.609
36048W        W 8308  18.789  34.913  14.859
36049W        W 8309   5.356  21.540   2.395
36050W        W 8310  15.716  13.052  11.127
36051W        W 8311  26.604   5.869  13.494
36052W        W 8312  27.420   7.358  14.960
36053W        W 8313   5.666   1.263   3.212
36054W        W 8314  27.646  37.817   4.291
36055W        W 8315  18.113  25.543   0.526
36056W        W 8316  23.406   1.810   2.992
36057W        W 8317  37.031  22.091   1.331
36058W        W 8318  25.605  33.560  11.882
36059W        W 8319  32.888  18.182   4.751
36060W        W 8320  22.779  28.522   1.976
36061W        W 8321   7.383  24.521   1.959
36062W        W 8322   8.695  28.886  12.955
36063W        W 8323  20.851  30.717  14.298
36064W        W 8324  14.905  16.291  12.955
36065W        W 8325  10.193  35.309  12.790
36066W        W 8326  41.570  31.502  12.619
36067W        W 8327  27.397  23.178  14.885
36068W        W 8328  23.564   7.133  10.946
36069W        W 8329  32.696  25.694   1.546
36070W        W 8330  33.326  36.146   0.267
36071W        W 8331  14.266   4.754   2.271
36072W        W 8332  14.747  29.192   0.606
36073W        W 8333  24.958  37.376  11.793
36074W        W 8334  36.842  11.349   3.342
36075W        W 8335  19.206  20.852   1.848
36076W        W 8336  31.869  10.339  14.424
36077W        W 8337  23.785  12.781   0.335
36078W        W 8338  11.276   6.430   1.493
36079W        W 8339  25.051  11.091  14.194
36080W        W 8340  42.358  22.546  13.378
36081W        W 8341  12.057  13.825   4.318
36082W        W 8342   9.884  14.896   2.767
36083W        W 8343   2.179  29.997   0.475
36084W        W 8344  27.650  39.468  12.100
36085W        W 8345  27.875   6.972  14.407
36086W        W 8346  16.673  34.956   3.249
36087W        W 8347  43.768  38.047   0.952
36088W        W 8348  20.046  41.474   1.346
36089W        W 8349  41.236  27.602  14.947
36090W        W 8350  38.337  15.792   1.698
36091W        W 8351  11.728  33.827   4.555
36092W        W 8352   5.208  25.016  12.519
36093W        W 8353   6.115  27.357  10.392
36094W        W 8354  35.074   9.173   4.291
36095W        W 8355  28.223  42.578   3.705
36096W        W 8356  20.054  14.549  11.065
36097W        W 8357  27.958  21.267   9.895
36098W        W 8358  17.537  18.817  13.623
36099W        W 8359   9.575  42.363   3.297
36100W        W 8360  13.163  11.872   2.285
36101W        W 8361  41.929  14.326  13.400
36102W        W 8362  37.426  41.490  10.433
36103W        W 8363   2.801   0.350   1.666
36104W        W 8364  13.241  12.692  14.865
36105W        W 8365   1.991   2.920  11.672
36106W        W 8366  37.417  16.601   3.222
36107W        W 8367  12.297  28.109  14.531
36108W        W 8368   3.797  34.928   3.702
36109W        W 8369   9.275  17.826  12.056
36110W        W 8370  23.078  41.236   2.627
36111W        W 8371  15.283  13.723  12.058
36112W        W 8372   2.718  11.080   0.809
36113W        W 8373  44.387  29.047   4.586
36114W        W 8374  15.229  17.203   1.438
36115W        W 8375  15.345  36.815   1.544
36116W        W 8376  40.418  25.015   4.294
36117W        W 8377  44.872  18.025  11.681
36118W        W 8378  13.510   5.299  12.501
36119W        W 8379  15.337  39.589   4.847
36120W        W 8380  38.358  41.382  10.413
36121W        W 8381  21.229  36.057   3.215
36122W        W 8382  28.203  23.090   2.230
36123W        W 8383  27.889  35.564   0.891
36124W        W 8384  42.422  32.441  13.761
36125W        W 8385   6.455  36.143   0.398
36126W        W 8386  10.106  43.518  11.573
36127W        W 8387  25.702  35.624   1.625
36128W        W 8388  36.629  25.260   1.319
36129W        W 8389  44.481  15.307  12.183
36130W        W 8390  43.488  15.582   1.637
36131W        W 8391  27.141   6.733  13.226
36132W        W 8392   9.348  33.851   1.836
36133W        W 8393  43.263  13.590   0.269
36134W        W 8394  42.937   5.947  11.659
36135W        W 8395  12.796  11.381   3.336
36136W        W 8396  24.223  41.723   4.145
36137W        W 8397  30.066  16.419  11.127
36138W        W 8398  36.635  17.603  13.798
36139W        W 8399  24.250  15.807   1.385
36140W        W 8400  33.197  37.179   4.165
36141W        W 8401  31.918  20.474  12.480
36142W        W 8402  23.429  15.317   0.293
36143W        W 8403   0.703   3.216  12.573
36144W        W 8404  40.068  30.043  13.368
36145W        W 8405  36.072   2.346   4.576
36146W        W 8406  36.063  36.900  11.757
36147W        W 8407  12.117  35.330  13.473
36148W        W 8408  32.959  19.306   4.181
36149W        W 8409  31.375   4.920   0.035
36150W        W 8410  27.947   6.874   2.739
36151W        W 8411  40.014   9.368  14.872
36152W        W 8412   1.758  15.832  11.116
36153W        W 8413  16.829  40.174  10.717
36154W        W 8414  14.895  11.195   3.111
36155W        W 8415  16.800  12.229  13.834
36156W        W 8416  14.186  17.694   1.457
36157W        W 8417  17.466  37.919   4.298
36158W        W 8418  40.001  34.380   3.996
36159W        W 8419   0.560  37.456   3.231
36160W        W 8420  10.293  19.070  10.847
36161W        W 8421   5.723   9.659  12.022
36162W        W 8422   3.927  12.616   1.331
36163W        W 8423  20.608  42.816   3.204
36164W        W 8424   3.794  18.218  14.208
36165W        W 8425  42.616  39.334   4.190
36166W        W 8426  41.429  16.038  12.006
36167W        W 8427  40.808  31.886  12.062
36168W        W 8428   5.391  19.721  11.617
36169W        W 8429  42.223  20.632   1.106
36170W        W 8430  23.481  13.071  13.064
36171W        W 8431  24.146   1.787   4.262
36172W        W 8432  31.162  30.140  10.143
36173W        W 8433  10.937  12.111  14.367
36174W        W 8434  15.021  20.133   1.485
36175W        W 8435  15.047  20.045   2.949
36176W        W 8436  15.647  11.868  12.045
36177W        W 8437   7.301   6.727   3.391
36178W        W 8438  22.769  22.547  14.520
36179W        W 8439   5.641  30.872  14.979
36180W        W 8440   2.732  26.556   1.233
36181W        W 8441  18.935   8.149   0.308
36182W        W 8442  26.449  12.418   0.803
36183W        W 8443   7.760  10.228  11.046
36184W        W 8444   7.799   8.204  14.217
36185W        W 8445  15.760  44.273  14.075
36186W        W 8446  17.314   4.904   1.098
36187W        W 8447   6.649   5.959   3.193
36188W        W 8448  44.994   6.459  12.841
36189W        W 8449   5.770  35.761  12.491
36190W        W 8450  31.899  41.416   0.863
36191W        W 8451  12.283  42.580   2.734
36192W        W 8452  18.609  40.344   0.506
36193W        W 8453  41.892   2.206  14.358
36194W        W 8454  28.838  23.560   4.530
36195W        W 8455  18.148  11.390  14.806
36196W        W 8456  28.584  29.947   0.854
36197W        W 8457  11.717  20.843   4.713
36198W        W 8458   9.789  40.296  14.790
36199W        W 8459  24.962   6.313   5.049
36200W        W 8460  15.294  36.042   1.102
36201W        W 8461   0.990  38.337   4.214
36202W        W 8462  34.430  29.927  13.428
36203W        W 8463  31.152  23.784  13.822
36204W        W 8464   9.800  17.118  14.723
36205W        W 8465  42.650   1.459   2.263
36206W        W 8466  21.161  15.579  13.559
36207W        W 8467  42.756  27.728  12.082
36208W        W 8468  31.904   3.308  14.286
36209W        W 8469  14.598  17.034  12.957
36210W        W 8470  23.734  10.297   2.719
36211W        W 8471  37.352  40.896   4.660
36212W        W 8472  22.399  28.474   4.122
36213W        W 8473  17.391  19.343   0.741
36214W        W 8474  23.274  20.821  12.012
36215W        W 8475  17.389   6.765  13.784
36216W        W 8476   2.764  12.749  13.920
36217W        W 8477  31.230   0.254   4.127
36218W        W 8478  40.867  23.193  13.943
36219W        W 8479  19.121   8.755  14.769
36220W        W 8480  13.694  41.157   4.581
36221W        W 8481  35.912   0.191  13.004
36222W        W 8482  26.482  41.694   0.141
36223W        W 8483  11.784   3.885  14.372
36224W        W 8484  19.948  38.985   4.139
36225W        W 8485   8.448  20.143   1.484
36226W        W 8486   4.675   7.963  11.200
36227W        W 8487  27.686  28.520  11.026
36228W        W 8488   5.874  39.451  11.601
36229W        W 8489  25.538   1.300   2.152
36230W        W 8490  13.073  23.099   1.363
36231W        W 8491  33.808  10.345  11.650
36232W        W 8492   1.494  20.752   1.768
36233W        W 8493  29.876  21.288   2.280
36234W        W 8494  38.511  41.859   1.828
36235W        W 8495   7.469  15.632   3.156
36236W        W 8496  40.968  41.311   1.271
36237W        W 8497  37.323  18.941   4.133
36238W        W 8498  24.698  16.148  11.929
36239W        W 8499  26.627  44.824   2.859
36240W        W 8500   7.221  35.989   3.894
36241W        W 8501   0.805  41.384  11.634
36242W        W 8502  33.120  11.211  14.356
36243W        W 8503  39.350   4.691   1.744
36244W        W 8504  34.999  44.646  12.817
36245W        W 8505  22.424   6.025  10.350
36246W        W 8506  35.901  37.312   3.669
36247W        W 8507  25.419  25.193  13.963
36248W        W 8508  22.588  21.431   4.465
36249W        W 8509  27.584  22.847   4.699
36250W        W 8510  14.802  30.265  12.129
36251W        W 8511  22.546   9.810   4.974
36252W        W 8512  24.933  29.688  12.148
36253W        W 8513  16.611  20.111  11.553
36254W        W 8514  30.997   6.685   4.604
36255W        W 8515   8.811   5.403  11.616
36256W        W 8516  40.753   3.527   1.830
36257W        W 8517  18.113  11.839  10.533
36258W        W 8518  29.992  31.547   1.660
36259W        W 8519   5.817  35.864  11.982
36260W        W 8520  43.516  15.720   0.752
36261W        W 8521  38.952  41.147  13.290
36262W        W 8522   3.792  22.662  10.803
36263W        W 8523  22.450  42.116  13.346
36264W        W 8524  34.281  31.797   1.901
36265W        W 8525  42.556  38.491   1.256
36266W        W 8526  34.425   9.297   1.945
36267W        W 8527  42.168  28.585  10.650
36268W        W 8528   7.712  15.054   2.519
36269W        W 8529  36.329  31.893   0.887
36270W        W 8530   4.833  16.659  11.147
36271W        W 8531  40.016  18.248  11.019
36272W        W 8532  32.450  17.680  12.422
36273W        W 8533   9.815  27.353   2.061
36274W        W 8534   4.889  27.102   0.178
36275W        W 8535  43.883  29.044   4.821
36276W        W 8536  24.671   3.019  11.493
36277W        W 8537  26.459   5.144   0.530
36278W        W 8538  36.768  28.874  13.959
36279W        W 8539   8.195  11.642  11.563
36280W        W 8540  41.557  40.531  11.243
36281W        W 8541  11.147  22.645  14.026
36282W        W 8542  14.394  24.040   0.508
36283W        W 8543  34.408   7.493   1.749
36284W        W 8544  30.637  41.986   3.178
36285W        W 8545  24.513  37.111   4.624
36286W        W 8546  15.414  16.242   9.747
36287W        W 8547  15.148  12.883   1.675
36288W        W 8548  24.390  35.390  11.189
36289W        W 8549  38.968  31.290  10.728
36290W        W 8550   4.884   2.805   1.964
36291W        W 8551   3.802   0.007   0.221
36292W        W 8552  38.889  24.044  14.371
36293W        W 8553  24.219  21.747  13.975
36294W        W 8554  12.076  23.143  12.154
36295W        W 8555   1.758  25.383   2.819
36296W        W 8556   0.932  27.091   3.651
36297W        W 8557   4.258  33.635   4.575
36298W        W 8558   3.454  26.725   3.100
36299W        W 8559   4.172   2.861   3.203
36300W        W 8560   1.477   8.329   0.270
36301W        W 8561  17.048  35.879   0.327
36302W        W 8562  36.012  31.117  13.068
36303W        W 8563  24.302  44.323  12.024
36304W        W 8564  36.623   7.327  10.839
36305W        W 8565   4.848   9.211  10.945
36306W        W 8566  20.707  23.556  12.594
36307W        W 8567   8.198  17.933   1.381
36308W        W 8568  37.989  11.090  12.585
36309W        W 8569  16.565  17.782   1.374
36310W        W 8570  28.999   4.616   2.357
36311W        W 8571  29.521   5.712   2.826
36312W        W 8572   5.821   4.648   3.699
36313W        W 8573  13.222   1.031   2.308
36314W        W 8574  26.172   0.111   2.706
36315W        W 8575  40.416  41.493   2.628
36316W        W 8576  13.163  34.465   1.008
36317W        W 8577  24.322  29.800   1.316
36318W        W 8578   9.605  28.206  12.823
36319W        W 8579   5.731  21.755   1.295
36320W        W 8580  21.050  21.759   0.893
36321W        W 8581  31.805  10.614  12.957
36322W        W 8582  13.209  20.144   2.837
36323W        W 8583  42.777  21.120  13.496
36324W        W 8584  25.910  23.572  13.993
36325W        W 8585  34.042  21.723   0.180
36326W        W 8586  20.130  25.591  14.718
36327W        W 8587  21.989  27.998  13.928
36328W        W 8588   3.174   5.625  12.473
36329W        W 8589   8.319   2.668   1.727
36330W        W 8590   0.551  16.155   3.879
36331W        W 8591  10.815   6.704   2.435
36332W        W 8592  38.507  23.000  12.400
36333W        W 8593  17.172  38.451   4.401
36334W        W 8594  40.353  25.469  11.964
36335W        W 8595  17.827  40.891  11.139
36336W        W 8596  25.537  26.527   3.205
36337W        W 8597   8.669  35.168   1.753
36338W        W 8598  22.536  26.204  13.465
36339W        W 8599  15.785  43.497  12.688
36340W        W 8600  37.883   4.018  14.473
36341W        W 8601   9.060  31.125  14.228
36342W        W 8602   0.680  34.017   0.323
36343W        W 8603  29.400  12.317   4.121
36344W        W 8604  14.855  17.853   0.922
36345W        W 8605  23.902  42.994   2.358
36346W        W 8606  44.039  15.339   4.966
36347W        W 8607  14.647  40.927  13.311
36348W        W 8608   4.250  36.044   1.339
36349W        W 8609  14.629  15.297  11.628
36350W        W 8610  32.132  10.119   0.437
36351W        W 8611   6.726  30.016   4.579
36352W        W 8612   3.717  18.226  11.617
36353W        W 8613  41.004   7.013   4.258
36354W        W 8614  18.271   7.199   1.320
36355W        W 8615  26.181  27.317  13.942
36356W        W 8616  21.845  23.183   2.726
36357W        W 8617  26.123  43.764   4.464
36358W        W 8618  17.323  23.555  14.887
36359W        W 8619   6.664  23.899  11.716
36360W        W 8620   7.910  41.420  13.562
36361W        W 8621  10.999  23.800   3.130
36362W        W 8622   6.507  28.268  13.338
36363W        W 8623  39.234  10.510   0.213
36364W        W 8624  23.431  36.875   2.389
36365W        W 8625  34.165  32.149  10.759
36366W        W 8626  17.643  44.475  13.323
36367W        W 8627  39.416   9.409   2.272
36368W        W 8628  36.616  35.621  12.822
36369W        W 8629  14.257  42.339  12.900
36370W        W 8630  12.724  35.804   3.211
36371W        W 8631   3.434  12.525   0.427
36372W        W 8632  11.355  39.355  11.703
36373W        W 8633  16.073  13.792   3.826
36374W        W 8634  31.039  21.620   3.255
36375W        W 8635  30.216  27.975   1.290
36376W        W 8636  42.230   3.329  13.535
36377W        W 8637  23.000  23.777  11.606
36378W        W 8638  21.985  40.993  11.070
36379W        W 8639   2.248  17.038  12.504
36380W        W 8640  36.474  32.122   3.348
36381W        W 8641  31.125  33.623   4.096
36382W        W 8642  24.775   1.280   2.681
36383W        W 8643  12.866   4.374  13.387
36384W        W 8644  15.119   5.732   1.316
36385W        W 8645  33.382  37.235   3.684
36386W        W 8646  18.709  28.147   2.882
36387W        W 8647  11.354   3.830   3.278
36388W        W 8648  18.358  11.890  10.990
36389W        W 8649   9.934   2.846  10.781
36390W        W 8650  10.203  42.060  14.795
36391W        W 8651   3.330  41.086  12.451
36392W        W 8652  15.332   8.611   0.328
36393W        W 8653  18.840  28.593  12.120
36394W        W 8654  25.614  44.238  12.863
36395W        W 8655  21.785  21.288   3.583
36396W        W 8656  28.766  33.490  12.528
36397W        W 8657   4.859  32.574  10.930
36398W        W 8658  24.059   9.901   2.863
36399W        W 8659   1.058   8.979   4.843
36400W        W 8660   0.941  34.456  11.563
36401W        W 8661  10.725  19.126  12.971
36402W        W 8662   7.729  31.875   0.378
36403W        W 8663  25.177  31.964   3.612
36404W        W 8664  23.201  33.947  13.968
36405W        W 8665  11.957  27.618  12.446
36406W        W 8666  44.260  35.868  14.443
36407W        W 8667  17.274  14.561  10.397
36408W        W 8668  29.527  42.880   0.714
36409W        W 8669  16.459  23.780  14.292
36410W        W 8670  26.502  26.973   2.195
36411W        W 8671  33.839  33.529  14.964
36412W        W 8672  23.127  34.399  11.599
36413W        W 8673  14.648  15.773   4.660
36414W        W 8674  22.277  18.611   9.861
36415W        W 8675  11.046   8.235   1.923
36416W        W 8676  20.765  28.645  14.939
36417W        W 8677  36.916  19.301  12.053
36418W        W 8678  37.501  26.171  14.503
36419W        W 8679  30.882  18.079  12.378
36420W        W 8680  17.056  19.119   1.359
36421W        W 8681  43.034  33.435   4.269
36422W        W 8682  17.572  28.922   0.517
36423W        W 8683  13.617  26.575  12.383
36424W        W 8684  16.597   0.474   0.087
36425W        W 8685   1.407   0.785  10.986
36426W        W 8686  35.106   8.377   0.299
36427W        W 8687  37.118  38.563   3.223
36428W        W 8688  38.540   1.661  11.565
36429W        W 8689  11.273  20.546   4.629
36430W        W 8690  18.748  38.538  12.595
36431W        W 8691  36.930  13.763   3.989
36432W        W 8692  22.277   8.878  12.299
36433W        W 8693  36.580  10.873  14.422
36434W        W 8694  41.569  18.306  12.083
36435W        W 8695  25.989  26.561   4.481
36436W        W 8696  12.911   1.335  14.430
36437W        W 8697  18.812  32.335   0.860
36438W        W 8698  38.609  31.285  11.822
36439W        W 8699  10.915  13.532   2.861
36440W        W 8700  33.052  35.915   4.155
36441W        W 8701  11.479  27.586  13.481
36442W        W 8702  32.822  38.020  14.317
36443W        W 8703   4.830   6.491  14.849
36444W        W 8704  13.362  33.094  12.450
36445W        W 8705  15.275  22.380  11.213
36446W        W 8706  42.868  24.402   2.458
36447W        W 8707  36.538  33.456   2.175
36448W        W 8708  35.820  24.750   1.304
36449W        W 8709   5.129  28.011  12.392
36450W        W 8710  14.403  12.973   1.135
36451W        W 8711  16.330  28.549   0.736
36452W        W 8712  26.609  16.850   3.676
36453W        W 8713  25.004  31.030   4.594
36454W        W 8714  39.591  44.710  13.282
36455W        W 8715   6.258  34.023   2.304
36456W        W 8716  15.231   3.301   2.651
36457W        W 8717  44.369   6.006   1.853
36458W        W 8718  25.095  29.524   4.692
36459W        W 8719  23.647   0.592  13.520
36460W        W 8720   9.315   7.170  14.886
36461W        W 8721  25.167  19.745  13.574
36462W        W 8722   0.829  29.597  14.450
36463W        W 8723  36.210  32.194  14.016
36464W        W 8724  29.150  23.250   3.584
36465W        W 8725  37.502  22.546   0.254
36466W        W 8726  10.769   5.435   3.708
36467W        W 8727  24.898  36.304   1.490
36468W        W 8728  24.691  42.028  13.082
36469W        W 8729  32.240   7.736   4.963
36470W        W 8730  36.135  36.444  13.116
36471W        W 8731   8.921  28.979   1.248
36472W        W 8732  17.962   2.752   0.327
36473W        W 8733  25.207  30.407   0.277
36474W        W 8734   9.449  41.023   4.519
36475W        W 8735  23.711  40.518  10.660
36476W        W 8736   0.297   0.097  12.959
36477W        W 8737   8.175  39.937  12.999
36478W        W 8738  30.558   1.350  12.528
36479W        W 8739  11.845  13.151   1.798
36480W        W 8740  13.923  42.884   0.430
36481W        W 8741  13.243  12.244  10.467
36482W        W 8742   5.814  26.183   2.969
36483W        W 8743  36.767   8.612   0.681
36484W        W 8744   7.252  19.276   0.377
36485W        W 8745  17.715  33.433   3.091
36486W        W 8746  35.416  32.085  13.424
36487W        W 8747  31.780  37.026   4.593
36488W        W 8748  42.399  27.015  13.992
36489W        W 8749  25.458  20.812  13.806
36490W        W 8750  16.540  20.442  11.953
36491W        W 8751  34.071   7.479  11.050
36492W        W 8752   5.861  28.989  13.246
36493W        W 8753   0.481  42.104  13.408
36494W        W 8754   1.628  38.491   0.812
36495W        W 8755  10.771  17.790  11.530
36496W        W 8756  28.652  11.886  12.432
36497W        W 8757  44.008  13.797   1.342
36498W        W 8758  12.713   6.478   0.789
36499W        W 8759  39.567  13.774  12.096
36500W        W 8760  22.575   0.748  13.412
36501W        W 8761   8.142  15.274   4.810
36502W        W 8762  11.793   0.834   4.102
36503W        W 8763  11.399   0.444  12.625
36504W        W 8764  40.934  27.178  13.390
36505W        W 8765  13.154   0.943   0.365
36506W        W 8766   6.394   9.793   4.636
36507W        W 8767  10.255   3.970   2.185
36508W        W 8768   2.264  11.786   4.100
36509W        W 8769  12.238  41.561   1.812
36510W        W 8770  13.095  30.986  13.519
36511W        W 8771  19.211   9.500  14.355
36512W        W 8772  39.913   5.012  12.421
36513W        W 8773  28.059   9.219   3.162
36514W        W 8774  32.723  30.879  12.897
36515W        W 8775  13.231  22.802   2.764
36516W        W 8776  22.610  24.960   0.451
36517W        W 8777  34.833  27.406  13.391
36518W        W 8778  39.077  42.026  12.378
36519W        W 8779  20.280  39.897   3.874
36520W        W 8780  44.165  33.406   1.810
36521W        W 8781  32.292   0.388  14.571
36522W        W 8782  40.614   6.177   1.580
36523W        W 8783  12.742  22.302   3.381
36524W        W 8784  12.416  17.009  10.164
36525W        W 8785  24.687  16.126   0.598
36526W        W 8786  32.594  30.921   4.763
36527W        W 8787  32.582   5.136   4.495
36528W        W 8788   0.314  41.017   4.928
36529W        W 8789  42.863  27.658   4.793
36530W        W 8790  24.208  33.009  11.759
36531W        W 8791  28.876   0.520   1.773
36532W        W 8792  35.599  15.970   2.453
36533W        W 8793  18.622  31.370  12.662
36534W        W 8794  24.021  44.516  11.434
36535W        W 8795  39.294  14.653  14.010
36536W        W 8796  38.519  15.397  14.028
36537W        W 8797  36.826  26.215  14.943
36538W        W 8798   3.361  43.575   1.307
36539W        W 8799   8.086  15.341  13.831
36540W        W 8800   9.946  30.047   0.805
36541W        W 8801  29.905  15.250  12.030
36542W        W 8802  22.287  38.909  11.509
36543W        W 8803  30.394  13.978   0.375
36544W        W 8804  10.782  12.100   2.779
36545W        W 8805  16.235  19.564   2.223
36546W        W 8806  38.406  19.308  11.008
36547W        W 8807   3.533  43.530  12.038
36548W        W 8808   6.365  39.272   2.272
36549W        W 8809   1.214  16.403   1.394
36550W        W 8810  23.311  40.540   0.829
36551W        W 8811  20.273   0.187  12.535
36552W        W 8812  44.533   0.191   1.845
36553W        W 8813  19.104  43.881   1.728
36554W        W 8814   5.345   5.411   0.744
36555W        W 8815  41.212  24.605   4.557
36556W        W 8816  38.855  26.456  14.579
36557W        W 8817  39.601  34.560   3.644
36558W        W 8818  34.858  37.358  11.542
36559W        W 8819  27.504   0.957   1.806
36560W        W 8820   9.322   5.914  14.107
36561W        W 8821  20.614   4.376  12.008
36562W        W 8822  24.175   8.337   3.598
36563W        W 8823  43.718  21.430   2.416
36564W        W 8824  28.515  12.709   1.100
36565W        W 8825   3.569  10.421  14.202
36566W        W 8826   4.746   8.410  12.200
36567W        W 8827  29.394  28.877  12.293
36568W        W 8828  34.032  38.084  13.413
36569W        W 8829   8.129  34.529   0.239
36570W        W 8830  13.275   3.763  12.627
36571W        W 8831  40.781  25.029   0.457
36572W        W 8832  27.104  32.051  11.555
36573W        W 8833  28.108  38.297   5.055
36574W        W 8834   8.342  39.318   2.827
36575W        W 8835  16.659   1.763  13.827
36576W        W 8836  21.571  28.398  11.641
36577W        W 8837  33.679   6.191   3.234
36578W        W 8838  10.724  43.592  14.371
36579W        W 8839  22.575   8.898   0.915
36580W        W 8840   5.452   0.864   1.320
36581W        W 8841  42.453  14.125   0.443
36582W        W 8842  38.031  11.114  14.871
36583W        W 8843  11.112  10.340  13.750
36584W        W 8844   2.402  41.834   2.247
36585W        W 8845  10.660  31.862   1.803
36586W        W 8846  21.206  33.089  13.067
36587W        W 8847  39.576  38.299   3.519
36588W        W 8848  41.482  11.921   1.852
36589W        W 8849  27.731  12.264   4.827
36590W        W 8850  30.163  34.359   4.982
36591W        W 8851   4.180  44.744   0.491
36592W        W 8852  13.996   6.825  14.524
36593W        W 8853  11.419  32.910  11.035
36594W        W 8854  43.514  25.002   4.648
36595W        W 8855  39.130  43.083  10.758
36596W        W 8856  22.164  25.177  13.638
36597W        W 8857  14.704  29.727  10.332
36598W        W 8858  11.202   6.408  12.324
36599W        W 8859  37.053  36.388  14.172
36600W        W 8860  18.158  43.375  11.429
36601W        W 8861   4.260  14.809   1.099
36602W        W 8862  35.335  16.222  10.549
36603W        W 8863   1.848  44.251   4.499
36604W        W 8864  43.082  17.796   2.728
36605W        W 8865  16.532   4.249  14.926
36606W        W 8866  35.364   9.796   4.044
36607W        W 8867  26.996  27.526   3.114
36608W        W 8868  28.565   6.802  12.894
36609W        W 8869  36.133  30.195  12.226
36610W        W 8870  16.357   6.379   2.327
36611W        W 8871  18.060  24.137  14.823
36612W        W 8872  10.718  32.361  11.636
36613W        W 8873  19.248   7.675  12.460
36614W        W 8874  14.236   8.323  10.585
36615W        W 8875  37.422  12.405  12.141
36616W        W 8876  29.531  12.533   4.588
36617W        W 8877  19.706   9.982   3.220
36618W        W 8878  20.643  44.752   0.684
36619W        W 8879  18.749   0.403   0.750
36620W        W 8880  43.979  11.265  11.894
36621W        W 8881  26.982  31.947   0.400
36622W        W 8882  17.467  41.847   0.780
36623W        W 8883   9.659   5.421  11.932
36624W        W 8884  34.541  17.616  12.163
36625W        W 8885  29.675  44.964  14.004
36626W        W 8886  37.279   9.432  13.546
36627W        W 8887  10.376  12.381   3.880
36628W        W 8888  14.204  17.723  14.511
36629W        W 8889  29.937   2.018   1.615
36630W        W 8890   8.844  16.774   3.221
36631W        W 8891  14.432  30.128   0.456
36632W        W 8892  39.930  13.773   0.486
36633W        W 8893  12.399  35.080   3.214
36634W        W 8894  23.873  27.505  11.958
36635W        W 8895  30.536  33.993   2.845
36636W        W 8896  21.543  26.994   1.983
36637W        W 8897  32.589  10.358   1.029
36638W        W 8898  22.057  37.495  14.428
36639W        W 8899  14.285  41.762   4.311
36640W        W 8900   8.410  42.454  11.080
36641W        W 8901  21.215  25.645   4.948
36642W        W 8902   3.989  36.471  10.509
36643W        W 8903  11.855  24.071  14.099
36644W        W 8904  21.435  27.430  11.980
36645W        W 8905  14.395   9.886  14.362
36646W        W 8906  22.332  33.307   4.054
36647W        W 8907  16.423  40.886   4.522
36648W        W 8908  14.920  29.527  13.383
36649W        W 8909  27.547  30.035   0.540
36650W        W 8910  12.161   6.501  10.744
36651W        W 8911   6.424  12.365   4.095
36652W        W 8912  32.545   7.849   2.550
36653W        W 8913  32.617   8.389  13.504
36654W        W 8914  18.753  18.186   1.266
36655W        W 8915  19.583  43.448   3.398
36656W        W 8916  34.562  11.635   4.419
36657W        W 8917  22.965  35.509   4.796
36658W        W 8918   9.821  35.216  11.681
36659W        W 8919  30.498  40.021   2.338
36660W        W 8920  38.987  30.100   4.500
36661W        W 8921  21.572   7.851   0.915
36662W        W 8922   8.373  17.576  11.854
36663W        W 8923  23.469  38.844  12.839
36664W        W 8924  29.144  13.190   3.286
36665W        W 8925  12.305  19.291   4.868
36666W        W 8926  21.215  44.875   0.506
36667W        W 8927  39.288  43.345  14.819
36668W        W 8928  42.950   5.193  14.423
36669W        W 8929  21.435  19.600  14.959
36670W        W 8930  25.993  21.641   3.172
36671W        W 8931  32.523  13.701  13.755
36672W        W 8932  38.944  35.368   2.439
36673W        W 8933  26.982  27.993  11.254
36674W        W 8934  21.006  39.022   4.973
36675W        W 8935  20.602  27.572   4.927
36676W        W 8936  34.492  11.412   3.572
36677W        W 8937   5.607  41.957   3.615
36678W        W 8938  33.521  29.073   1.739
36679W        W 8939  21.375  17.350  12.578
36680W        W 8940  31.566  32.114  10.593
36681W        W 8941  25.586   7.456  10.644
36682W        W 8942   4.731  32.219  13.974
36683W        W 8943  11.756  31.056  12.019
36684W        W 8944  37.705  26.431  11.175
36685W        W 8945  16.057  33.063   2.394
36686W        W 8946   2.545   3.512   2.285
36687W        W 8947  37.533  22.812  12.920
36688W        W 8948  15.792   0.956  11.559
36689W        W 8949   7.828  35.375  11.997
36690W        W 8950  21.295  30.535   4.478
36691W        W 8951   4.061  34.167  13.592
36692W        W 8952  16.297  40.497   0.791
36693W        W 8953   7.789   2.911   0.746
36694W        W 8954   5.258   1.842   1.797
36695W        W 8955   9.631  40.091   2.233
36696W        W 8956  33.430   4.857   3.299
36697W        W 8957  36.291   6.449   4.647
36698W        W 8958  36.802  30.636   0.895
36699W        W 8959   7.713   3.959   0.884
36700W        W 8960  19.328  14.117   2.892
36701W        W 8961  30.487  33.363  14.922
36702W        W 8962  36.919  13.980  10.899
36703W        W 8963  12.165  23.050   1.178
36704W        W 8964  32.347  41.478  14.359
36705W        W 8965   7.899  31.503   1.363
36706W        W 8966  38.449  41.509  14.549
36707W        W 8967  19.482  32.856   2.353
36708W        W 8968  19.016  23.809  13.012
36709W        W 8969  13.391   4.252   1.169
36710W        W 8970  19.144  30.964   1.187
36711W        W 8971  27.508   6.905   4.047
36712W        W 8972   0.520  30.583  11.076
36713W        W 8973  34.360  16.506   2.311
36714W        W 8974  27.709  33.607  11.467
36715W        W 8975  24.699  35.992   2.411
36716W        W 8976  27.372  25.535  14.721
36717W        W 8977   9.834   9.053   0.220
36718W        W 8978  25.885  26.959  11.588
36719W        W 8979  11.322   5.320  12.160
36720W        W 8980  12.322  31.446   3.281
36721W        W 8981  23.571  29.868   4.597
36722W        W 8982  17.099  31.379   4.905
36723W        W 8983  42.458  38.002   1.150
36724W        W 8984   7.189  44.333  11.215
36725W        W 8985  21.143   1.523   3.685
36726W        W 8986  43.931  26.162   2.419
36727W        W 8987  37.477  33.580   4.489
36728W        W 8988  12.617  18.919  11.147
36729W        W 8989  23.695   2.266  14.972
36730W        W 8990   8.747  22.921   2.384
36731W        W 8991  22.510  31.499  13.002
36732W        W 8992  43.878  26.237   3.315
36733W        W 8993   3.355  28.465   4.098
36734W        W 8994  17.208   0.747  14.517
36735W        W 8995  43.548  25.517   1.113
36736W        W 8996  16.449  29.817  13.375
36737W        W 8997  42.793  33.156   2.737
36738W        W 8998   6.665  39.980  13.086
36739W        W 8999  11.709  39.999   1.541
36740W        W 9000  43.221  38.827   2.239
36741W        W 9001  23.129  14.989   1.501
36742W        W 9002  19.784  34.996   3.200
36743W        W 9003  11.791   4.902   2.215
36744W        W 9004  10.153  30.064   2.134
36745W        W 9005  24.606  11.420  13.008
36746W        W 9006  34.985  19.150  13.353
36747W        W 9007  43.924   1.337   0.810
36748W        W 9008  27.245   2.547  11.141
36749W        W 9009   1.969  44.803   0.588
36750W        W 9010  14.319  19.122   3.753
36751W        W 9011   4.904   7.890   1.686
36752W        W 9012  41.604  27.631  13.095
36753W        W 9013  44.878  23.318   1.765
36754W        W 9014   8.720   4.021   4.396
36755W        W 9015  33.159  42.929   4.996
36756W        W 9016  20.758  32.537   2.438
36757W        W 9017  15.200  20.942  13.051
36758W        W 9018  42.367   5.050  13.948
36759W        W 9019  26.469  31.877   3.815
36760W        W 9020  18.336   6.144  10.284
36761W        W 9021  33.517  24.446   4.512
36762W        W 9022  24.983  40.786   1.371
36763W        W 9023  42.556  32.749  13.344
36764W        W 9024  22.173  10.837  10.693
36765W        W 9025  25.156  37.092   2.000
36766W        W 9026  35.939  41.889   4.247
36767W        W 9027  38.974  43.831  14.015
36768W        W 9028  44.580  44.968   0.520
36769W        W 9029  36.369   3.890  11.846
36770W        W 9030  44.268  18.775   4.455
36771W        W 9031  28.177   8.256   3.648
36772W        W 9032  26.005  12.049   2.806
36773W        W 9033  25.671  12.176   4.776
36774W        W 9034  40.815  15.260  14.625
36775W        W 9035  24.939  10.040   1.893
36776W        W 9036   5.776   5.696  14.079
36777W        W 9037  27.174   6.811  12.715
36778W        W 9038  18.709   3.994  12.949
36779W        W 9039  18.512  14.301   2.226
36780W        W 9040  12.815  16.494   3.076
36781W        W 9041  39.595  38.515   4.508
36782W        W 9042   4.889  25.625  10.413
36783W        W 9043  10.728  26.519  11.511
36784W        W 9044  22.183  32.628  14.930
36785W        W 9045   1.412  27.888  12.397
36786W        W 9046   9.754  44.335   1.490
36787W        W 9047  24.594  11.817  11.269
36788W        W 9048   3.211  39.955  14.458
36789W        W 9049  13.665  29.049  10.702
36790W        W 9050  32.017  44.891  13.638
36791W        W 9051  14.135  42.832  12.652
36792W        W 9052  22.398  37.294  14.810
36793W        W 9053   1.637   4.078   3.619
36794W        W 9054  15.814  15.472  10.928
36795W        W 9055   7.902   2.407  12.968
36796W        W 9056  40.375   5.104   2.898
36797W        W 9057  29.719  22.477  14.357
36798W        W 9058  10.336   6.113  11.819
36799W        W 9059  19.682   8.569  11.647
36800W        W 9060  12.888  14.420  12.382
36801W        W 9061  15.219  16.373  12.137
36802W        W 9062  22.930   6.268  14.360
36803W        W 9063  42.699  13.306  14.930
36804W        W 9064  22.908   9.769  14.818
36805W        W 9065  38.937  36.012   3.339
36806W        W 9066  43.941  34.873  14.493
36807W        W 9067  31.987   0.985   4.248
36808W        W 9068   5.254  16.158  11.606
36809W        W 9069  19.738  14.266  12.633
36810W        W 9070  32.036   0.476  11.086
36811W        W 9071  14.031  43.705   2.335
36812W        W 9072  13.725  17.655   3.202
36813W        W 9073   1.265  12.545  11.273
36814W        W 9074  16.609   3.835  13.945
36815W        W 9075  16.198  29.551  11.156
36816W        W 9076  38.682  11.779   5.024
36817W        W 9077   7.724  11.090   3.232
36818W        W 9078   7.241  19.114   0.870
36819W        W 9079  39.389   2.957   1.228
36820W        W 9080  39.046  15.667   0.959
36821W        W 9081  43.906  28.164   2.090
36822W        W 9082  15.754  27.761   4.029
36823W        W 9083  36.600  11.734  13.808
36824W        W 9084   7.963  38.399   3.627
36825W        W 9085   0.814  35.636   3.380
36826W        W 9086   2.846  29.605   3.059
36827W        W 9087  29.853  14.385   2.694
36828W        W 9088   7.831  22.727  14.860
36829W        W 9089  31.137   1.792   0.892
36830W        W 9090  16.153   2.492   1.985
36831W        W 9091   4.272   6.358  10.646
36832W        W 9092  26.057  40.915  10.632
36833W        W 9093   5.405  42.227  14.454
36834W        W 9094   3.231  12.198  12.375
36835W        W 9095  44.876  15.812  11.186
36836W        W 9096   1.501   2.914  14.850
36837W        W 9097  19.681  14.638   4.853
36838W        W 9098   4.739  12.230  14.000
36839W        W 9099  11.861  31.772   5.142
36840W        W 9100  10.750  13.646  11.048
36841W        W 9101  10.743  20.180   1.960
36842W        W 9102   9.234  20.953   2.895
36843W        W 9103  27.492  31.068  10.284
36844W        W 9104   8.648  44.437  14.891
36845W        W 9105  13.729  20.692   1.485
36846W        W 9106  17.282  20.719  13.964
36847W        W 9107   3.513  41.864  11.176
36848W        W 9108  30.951   1.395   3.556
36849W        W 9109  11.427  18.333   3.399
36850W        W 9110  33.447  10.349   2.127
36851W        W 9111  30.898  15.782   4.139
36852W        W 9112   7.637  30.467   3.554
36853W        W 9113   1.577  29.412  13.909
36854W        W 9114   9.349  38.978  10.131
36855W        W 9115  32.018  10.439  11.165
36856W        W 9116  18.219  36.048   2.746
36857W        W 9117  26.401  17.657  10.708
36858W        W 9118   4.308  16.558   2.405
36859W        W 9119  42.247  35.998   1.205
36860W        W 9120  40.229   4.697   2.598
36861W        W 9121  24.003  43.954  14.471
36862W        W 9122  18.178  17.568  13.527
36863W        W 9123  36.865  44.541   3.174
36864W        W 9124  43.378  17.303  11.346
36865W        W 9125  33.557  41.969   3.600
36866W        W 9126  30.817   8.402  13.347
36867W        W 9127  28.127  27.465  10.683
36868W        W 9128  25.407  16.121   0.205
36869W        W 9129  27.532  11.696   2.560
36870W        W 9130  44.545  30.950  14.000
36871W        W 9131  20.938   6.414  14.462
36872W        W 9132  22.730  41.783  11.756
36873W        W 9133  26.425   8.705  10.671
36874W        W 9134  19.563  15.722  12.480
36875W        W 9135  34.380  30.852  14.491
36876W        W 9136  43.458  22.061   0.250
36877W        W 9137  19.113  15.114  11.138
36878W        W 9138  21.323   0.170  10.753
36879W        W 9139  17.832   3.706  12.979
36880W        W 9140  22.973   0.899   1.417
36881W        W 9141  24.961   6.370  14.412
36882W        W 9142  34.039  32.977  11.950
36883W        W 9143  12.218  37.684  13.932
36884W        W 9144  24.217  18.572   3.295
36885W        W 9145  33.394  32.402  13.082
36886W        W 9146  40.385  36.921   3.226
36887W        W 9147  18.867  36.475  13.908
36888W        W 9148  20.361  41.817   1.912
36889W        W 9149  15.048  21.521  10.563
36890W        W 9150  37.960  16.240   4.094
36891W        W 9151   8.872  35.083  14.058
36892W        W 9152  33.651  11.854   4.170
36893W        W 9153  25.599  19.607   3.600
36894W        W 9154   5.137  18.869  10.744
36895W        W 9155  23.545  27.077   0.909
36896W        W 9156  23.218  17.060   2.268
36897W        W 9157  20.173  15.539  14.992
36898W        W 9158  33.914  31.135   0.902
36899W        W 9159  16.778  32.016  14.853
36900W        W 9160  22.606  12.144   0.938
36901W        W 9161  34.305  39.942  11.555
36902W        W 9162  41.751  41.299   2.306
36903W        W 9163  14.863   4.141  10.517
36904W        W 9164  33.963  14.404  14.446
36905W        W 9165  19.761  44.842   1.217
36906W        W 9166  33.649  20.014   3.367
36907W        W 9167  28.416   4.386  10.425
36908W        W 9168  27.631  27.974  11.906
36909W        W 9169  31.340  21.814  14.902
36910W        W 9170  25.567   5.745  12.470
36911W        W 9171  15.813  42.535  11.918
36912W        W 9172  44.196  36.704  12.882
36913W        W 9173   2.871  44.593  10.078
36914W        W 9174  13.381   9.854  13.580
36915W        W 9175  39.570  34.707   0.562
36916W        W 9176  32.186  27.585   0.688
36917W        W 9177  32.527   1.034   0.851
36918W        W 9178  10.871  11.599  12.078
36919W        W 9179   3.389   8.169   2.483
36920W        W 9180   9.917  18.274   3.239
36921W        W 9181  18.241   6.956  13.593
36922W        W 9182  19.511  23.559  12.158
36923W        W 9183  18.242  23.275  14.339
36924W        W 9184  11.682  24.811   4.856
36925W        W 9185  37.902  32.949   2.861
36926W        W 9186  29.578  23.077  10.494
36927W        W 9187  43.566  30.865   1.302
36928W        W 9188  26.886  23.625   0.335
36929W        W 9189  28.993  25.702   3.628
36930W        W 9190   0.286  31.014  11.584
36931W        W 9191   1.383  37.268  14.419
36932W        W 9192  11.200   3.311  12.583
36933W        W 9193  29.521  22.928   4.136
36934W        W 9194   3.223   5.828   3.829
36935W        W 9195  14.712  44.028  12.595
36936W        W 9196  24.940  38.092   2.190
36937W        W 9197  41.392   9.924  13.398
36938W        W 9198  14.377  14.643   4.282
36939W        W 9199  37.952  27.366   1.216
36940W        W 9200  36.473  19.042  13.945
36941W        W 9201  18.978  34.974  10.360
36942W        W 9202  16.622  14.690   9.804
36943W        W 9203   3.516   1.262  12.936
36944W        W 9204   6.120  32.283   4.836
36945W        W 9205  29.470   8.747   1.241
36946W        W 9206  39.942  42.016  11.609
36947W        W 9207  38.613  22.732   2.324
36948W        W 9208  33.801   0.364   0.843
36949W        W 9209  25.012  16.333  14.823
36950W        W 9210  38.383  15.933  12.523
36951W        W 9211  44.252  14.283   2.803
36952W        W 9212  23.326  22.109  11.046
36953W        W 9213  34.125  43.451   0.417
36954W        W 9214  18.315   3.381   1.261
36955W        W 9215   3.964  42.462  13.053
36956W        W 9216  38.625  43.246  13.792
36957W        W 9217   6.912  37.320   2.143
36958W        W 9218   3.778  14.260   0.286
36959W        W 9219  26.954   4.374  13.560
36960W        W 9220   0.047  44.684  11.580
36961W        W 9221   2.998  29.148  10.648
36962W        W 9222  43.423  29.841   1.491
36963W        W 9223  19.322  31.912   1.979
36964W        W 9224   6.370  42.777   3.279
36965W        W 9225   0.919  16.775  13.300
36966W        W 9226  16.998  17.273   3.137
36967W        W 9227  15.927  23.168   4.083
36968W        W 9228  44.744  31.995  14.545
36969W        W 9229  41.263  33.606   2.065
36970W        W 9230  25.299  33.054  13.499
36971W        W 9231  41.861  19.567  14.916
36972W        W 9232  26.958  27.601  10.437
36973W        W 9233  23.748  41.976  14.425
36974W        W 9234  24.645  31.446   1.961
36975W        W 9235  13.614  20.844   1.992
36976W        W 9236  13.785  43.568  12.361
36977W        W 9237  41.714   1.371   2.416
36978W        W 9238  28.524   8.636   2.370
36979W        W 9239  36.989   4.186   3.906
36980W        W 9240  10.663  28.194   1.708
36981W        W 9241  13.669  24.670   2.447
36982W        W 9242  34.435  18.389  10.122
36983W        W 9243  15.831  13.553   0.864
36984W        W 9244  36.044  32.111  12.957
36985W        W 9245   8.172  14.981  12.580
36986W        W 9246  29.423   0.004  11.684
36987W        W 9247  32.483  34.405   4.116
36988W        W 9248  30.505  33.360  13.069
36989W        W 9249  18.731  31.354  12.151
36990W        W 9250  28.146   9.936   1.504
36991W        W 9251  44.901  24.974   4.214
36992W        W 9252   8.349  30.651   2.621
36993W        W 9253   2.302  31.396   1.788
36994W        W 9254  35.082  43.477  12.067
36995W        W 9255  27.540  36.092  11.191
36996W        W 9256  23.158  13.484   4.741
36997W        W 9257  39.512  27.161  12.054
36998W        W 9258  30.663  30.981   0.252
36999W        W 9259  42.341  40.972  11.524
37000W        W 9260  35.468  27.454   1.502
37001W        W 9261  43.924  44.459   3.597
37002W        W 9262  28.522  35.448  13.820
37003W        W 9263   4.241   6.867   3.645
37004W        W 9264   8.939  19.613   3.096
37005W        W 9265   6.687  18.570   1.962
37006W        W 9266   0.413   7.645   2.880
37007W        W 9267  21.011  11.765   4.851
37008W        W 9268  13.328  14.812   2.851
37009W        W 9269  37.451  32.439  13.611
37010W        W 9270  44.784   5.314  11.409
37011W        W 9271  19.442  36.931  14.421
37012W        W 9272  14.144  44.870   1.843
37013W        W 9273  15.631   5.942  13.101
37014W        W 9274  33.633  15.771  13.154
37015W        W 9275  31.985  20.997   1.880
37016W        W 9276  28.989  35.334   3.262
37017W        W 9277  13.901  36.103  13.587
37018W        W 9278  41.435  23.321  14.173
37019W        W 9279  27.140  22.465   3.334
37020W        W 9280   4.833  27.555  12.089
37021W        W 9281  23.022  10.450   0.431
37022W        W 9282  40.396  26.043  11.128
37023W        W 9283  40.688  40.808   2.048
37024W        W 9284  42.122   0.200  10.440
37025W        W 9285   1.323  13.059  13.904
37026W        W 9286  22.000  39.754  14.295
37027W        W 9287  30.377  37.708   2.277
37028W        W 9288  14.188   6.800  13.037
37029W        W 9289  13.828  20.690   0.964
37030W        W 9290  25.510  23.010  14.547
37031W        W 9291   6.724  17.359  11.721
37032W        W 9292   9.040   9.544   0.322
37033W        W 9293  10.699  20.996  11.892
37034W        W 9294  17.769  33.166  14.348
37035W        W 9295  32.530  34.439  11.633
37036W        W 9296   7.484   3.005  13.436
37037W        W 9297  28.498  13.509  13.482
37038W        W 9298   6.571   0.289   3.451
37039W        W 9299  12.341  25.565  14.022
37040W        W 9300  42.246  33.147   1.834
37041W        W 9301  25.055  11.444   4.580
37042W        W 9302  13.043  37.950  13.756
37043W        W 9303  40.452  20.729   1.745
37044W        W 9304   8.578  38.483  11.278
37045W        W 9305  37.820  20.861  11.984
37046W        W 9306  34.980  13.612   1.361
37047W        W 9307   7.403  26.884   2.679
37048W        W 9308  39.312  35.567  14.560
37049W        W 9309  38.213  23.628   2.075
37050W        W 9310   6.256  27.079   1.640
37051W        W 9311  19.175  13.521  13.869
37052W        W 9312  15.183   9.498   4.877
37053W        W 9313   0.494   4.441   2.247
37054W        W 9314  40.873   2.242   2.746
37055W        W 9315  22.093   4.390  10.974
37056W        W 9316  19.740  28.029   0.478
37057W        W 9317   9.248  43.487  10.869
37058W        W 9318  24.929  20.278   4.637
37059W        W 9319   0.288  31.504  13.069
37060W        W 9320  36.858  15.046   0.286
37061W        W 9321  12.550  20.525   4.079
37062W        W 9322   2.614  14.690  11.581
37063W        W 9323  13.277  30.795   1.919
37064W        W 9324  39.851  18.900   2.888
37065W        W 9325   5.771  21.088   1.756
37066W        W 9326   2.005  37.538  12.968
37067W        W 9327  42.907  19.644  12.879
37068W        W 9328  17.682  37.333  13.260
37069W        W 9329   4.999  36.346   1.432
37070W        W 9330  36.449  23.608   0.934
37071W        W 9331   2.212  44.238  14.236
37072W        W 9332  23.631  38.602  11.512
37073W        W 9333  31.991  17.105   0.547
37074W        W 9334  39.448  16.084  13.876
37075W        W 9335  14.239  22.837  10.736
37076W        W 9336  11.406  11.402  12.452
37077W        W 9337  10.411   8.694  11.009
37078W        W 9338  22.300  20.376  11.128
37079W        W 9339  30.233  44.820   4.849
37080W        W 9340  29.624  36.839   4.455
37081W        W 9341  14.685   6.400  11.827
37082W        W 9342   6.786  16.714   2.256
37083W        W 9343  22.821  17.717  14.431
37084W        W 9344   1.941  20.287   3.842
37085W        W 9345  42.775  38.551   2.115
37086W        W 9346  25.021   9.245  14.452
37087W        W 9347  15.668  41.468   2.150
37088W        W 9348  42.510  42.510  12.124
37089W        W 9349  24.551  38.397   2.350
37090W        W 9350  21.128  18.474   1.389
37091W        W 9351  25.813  13.429  10.929
37092W        W 9352  11.915  34.186  14.381
37093W        W 9353   4.658  32.194   4.169
37094W        W 9354  15.592   2.855  11.294
37095W        W 9355  34.676  21.811   2.324
37096W        W 9356  36.552  39.831  12.450
37097W        W 9357  18.047  17.362   3.072
37098W        W 9358  19.567  29.571  11.583
37099W        W 9359   1.285   4.106   2.795
37100W        W 9360  29.200   5.347   0.254
37101W        W 9361  12.291  29.200   3.184
37102W        W 9362  37.445  33.077   0.365
37103W        W 9363  28.903   1.298   2.627
37104W        W 9364  14.569  42.765  12.921
37105W        W 9365  34.407  41.769   0.727
37106W        W 9366  21.952  44.701  14.834
37107W        W 9367   4.315  31.039   2.352
37108W        W 9368  12.552  16.653  13.124
37109W        W 9369  18.571  12.028  13.229
37110W        W 9370  44.318  29.855  13.371
37111W        W 9371  42.038   7.749   0.422
37112W        W 9372  15.295  44.250  13.824
37113W        W 9373  28.185   7.375   1.925
37114W        W 9374  20.533  21.004   1.865
37115W        W 9375  44.290  38.303  13.359
37116W        W 9376   8.693  18.009  13.450
37117W        W 9377  31.313  35.885   2.635
37118W        W 9378  17.212  15.700  13.420
37119W        W 9379   8.615  12.114  12.896
37120W        W 9380  26.553  16.022   2.464
37121W        W 9381  20.167  13.258   1.426
37122W        W 9382  20.996   0.554   1.659
37123W        W 9383  28.532  41.071   2.475
37124W        W 9384  44.364  21.266   3.162
37125W        W 9385  16.264  32.646   0.338
37126W        W 9386  30.857  33.621   1.741
37127W        W 9387  14.949   8.729  14.327
37128W        W 9388  31.193  23.118   1.837
37129W        W 9389  41.805  19.111  11.536
37130W        W 9390  23.231  18.068  13.226
37131W        W 9391  31.175  27.044  11.137
37132W        W 9392  30.586  31.927   4.091
37133W        W 9393   3.428   7.186  11.120
37134W        W 9394  34.544  27.260   1.671
37135W        W 9395  14.812  30.465  13.340
37136W        W 9396   2.142  26.367  12.037
37137W        W 9397  35.254  37.618  12.411
37138W        W 9398  23.734  26.109   2.882
37139W        W 9399  34.084  28.359  12.037
37140W        W 9400   2.920   3.848   0.524
37141W        W 9401  20.953   7.940   3.149
37142W        W 9402  22.626  20.614  14.447
37143W        W 9403  42.822  37.398   4.722
37144W        W 9404  38.068  15.261   3.720
37145W        W 9405  17.601  31.478   4.227
37146W        W 9406  41.392   2.396  11.203
37147W        W 9407  22.677  25.625   4.587
37148W        W 9408  37.227   9.165  10.217
37149W        W 9409  44.095  44.146  10.033
37150W        W 9410  16.024  35.617  14.936
37151W        W 9411   1.882  23.409  11.429
37152W        W 9412   8.173  44.304  12.800
37153W        W 9413  10.896  10.544   3.669
37154W        W 9414  44.344  20.244   2.105
37155W        W 9415  32.511  24.255  12.622
37156W        W 9416  35.968  13.335   3.719
37157W        W 9417  43.427  38.594   4.959
37158W        W 9418   9.980  13.934   3.139
37159W        W 9419  13.722   3.368  13.864
37160W        W 9420  16.649   0.415   2.588
37161W        W 9421  33.222  29.714   1.869
37162W        W 9422  32.015  29.947   0.484
37163W        W 9423  17.628  43.406   0.564
37164W        W 9424  12.951  35.043   4.868
37165W        W 9425  36.266   7.745   5.146
37166W        W 9426   5.381   4.223  11.489
37167W        W 9427  11.703  30.921   2.259
37168W        W 9428  16.549   2.489  14.413
37169W        W 9429  23.464  40.395  14.050
37170W        W 9430  31.428  41.856  11.695
37171W        W 9431  21.022  35.205  11.989
37172W        W 9432  35.340  12.122   1.862
37173W        W 9433  20.592  20.614   0.036
37174W        W 9434  14.575  42.929   1.287
37175W        W 9435  44.003   6.267   2.930
37176W        W 9436  29.035  19.213  12.009
37177W        W 9437  18.259  31.535   0.857
37178W        W 9438  38.648   9.942   4.956
37179W        W 9439  25.866   8.740   0.899
37180W        W 9440  33.810  23.008  11.910
37181W        W 9441  43.964  42.511   1.879
37182W        W 9442  23.655   8.660  12.740
37183W        W 9443  37.059  16.713  12.761
37184W        W 9444  27.761  24.595   3.192
37185W        W 9445  22.198  44.417  12.097
37186W        W 9446  29.736  40.237   1.918
37187W        W 9447  22.500  16.841  14.308
37188W        W 9448  18.719  18.694  10.461
37189W        W 9449  29.389  43.354   0.875
37190W        W 9450  40.581  23.076   3.232
37191W        W 9451  26.021   3.697  14.364
37192W        W 9452   3.169  19.584   1.332
37193W        W 9453  35.422  15.730  13.133
37194W        W 9454   1.836   9.727  11.159
37195W        W 9455  22.987  35.818   4.017
37196W        W 9456  37.608  34.848   4.633
37197W        W 9457  32.361  10.864  11.191
37198W        W 9458  15.062  39.333  11.516
37199W        W 9459  44.312  24.094   1.427
37200W        W 9460  18.005  16.570  13.346
37201W        W 9461  10.367  20.631  12.120
37202W        W 9462  21.780  42.905   3.067
37203W        W 9463  36.322  32.986   4.569
37204W        W 9464  20.937  10.850  13.762
37205W        W 9465   2.826  30.619   1.282
37206W        W 9466  22.726  27.261  10.972
37207W        W 9467   1.271  33.946  13.135
37208W        W 9468  42.169   7.228  13.102
37209W        W 9469  16.697   1.975   1.307
37210W        W 9470   0.366  32.046  13.053
37211W        W 9471  41.918   0.915  11.566
37212W        W 9472  14.106   8.591  14.478
37213W        W 9473  18.538   6.392   1.217
37214W        W 9474  18.360  11.198   1.826
37215W        W 9475   2.623  37.108   2.204
37216W        W 9476  26.157  37.350   2.612
37217W        W 9477  26.678   7.960  12.647
37218W        W 9478  30.665  43.111  12.069
37219W        W 9479   6.450  34.515  10.088
37220W        W 9480  37.975  12.336  13.261
37221W        W 9481  26.062  14.856   4.599
37222W        W 9482  20.098   2.714   4.676
37223W        W 9483  35.136  32.671  12.261
37224W        W 9484  18.477   9.105  12.983
37225W        W 9485  10.323  23.586   1.827
37226W        W 9486   4.999  14.017  14.382
37227W        W 9487   9.090  23.501   0.756
37228W        W 9488   1.440  18.090  11.224
37229W        W 9489  25.963  25.218  14.019
37230W        W 9490   3.257  30.168  14.330
37231W        W 9491  35.085  43.404   2.216
37232W        W 9492  33.236  32.421  10.980
37233W        W 9493   0.392  19.589   0.664
37234W        W 9494  36.161   0.823   0.880
37235W        W 9495   1.280   0.489  10.557
37236W        W 9496  23.231  19.818   2.750
37237W        W 9497   0.337  40.478   4.705
37238W        W 9498  15.028  30.922  13.298
37239W        W 9499  44.786  18.682  10.782
37240W        W 9500  39.596  34.816   4.089
37241W        W 9501  44.272  44.256  12.447
37242W        W 9502   8.865  38.805   3.908
37243W        W 9503  14.259  12.699   3.183
37244W        W 9504  14.271  36.997  10.362
37245W        W 9505  34.102  44.739   1.785
37246W        W 9506  16.606  15.690  14.296
37247W        W 9507  11.318  25.272   3.151
37248W        W 9508  37.447   9.881  11.904
37249W        W 9509  33.392   3.380   4.744
37250W        W 9510  13.627  42.640   2.805
37251W        W 9511  12.688  27.200   0.374
37252W        W 9512  19.998   8.523   4.358
37253W        W 9513  29.654  33.668   5.175
37254W        W 9514  17.372  36.939   1.369
37255W        W 9515   5.244  13.367   4.529
37256W        W 9516  26.492  43.074  11.501
37257W        W 9517  21.597  37.344  12.661
37258W        W 9518  32.495  30.746  14.254
37259W        W 9519  19.179  38.616  14.660
37260W        W 9520  30.962  33.071   2.581
37261W        W 9521  16.752   6.543  12.460
37262W        W 9522   5.730  13.085   4.856
37263W        W 9523  16.794  13.333  12.132
37264W        W 9524  18.734   4.851  10.816
37265W        W 9525  32.489   2.783  13.418
37266W        W 9526  33.163  19.166  13.877
37267W        W 9527  14.078  13.363   0.984
37268W        W 9528  18.862   5.975  12.947
37269W        W 9529  36.016  43.825   4.550
37270W        W 9530  36.066   6.474   1.724
37271W        W 9531  26.065  20.234   0.359
37272W        W 9532  12.513  37.838  12.333
37273W        W 9533  17.320  26.369   0.387
37274W        W 9534  25.986  25.648  10.649
37275W        W 9535  31.858  34.117  12.575
37276W        W 9536  31.288  26.933  12.127
37277W        W 9537  22.100  36.609   1.352
37278W        W 9538  18.492  18.507   3.175
37279W        W 9539  11.817  16.792   3.130
37280W        W 9540  40.047  19.697  13.469
37281W        W 9541  10.399   6.483   2.222
37282W        W 9542  44.025  30.070  14.460
37283W        W 9543  18.544  39.551   2.579
37284W        W 9544  30.959   2.700   1.390
37285W        W 9545   1.565  11.284   0.390
37286W        W 9546  16.227  41.579  11.010
37287W        W 9547  29.552   7.265  10.769
37288W        W 9548  41.014  38.782  13.310
37289W        W 9549  21.182  43.977  14.985
37290W        W 9550  25.780  11.712  10.645
37291W        W 9551  14.163  37.009  14.840
37292W        W 9552  41.299  28.978   1.343
37293W        W 9553  16.820  41.956   2.232
37294W        W 9554  36.940  31.635  12.005
37295W        W 9555  15.646  44.464   0.354
37296W        W 9556  40.270  34.949  11.023
37297W        W 9557  22.397  25.512  10.541
37298W        W 9558  41.968  17.730  12.860
37299W        W 9559  39.271  11.225  10.557
37300W        W 9560   0.861   4.980   2.826
37301W        W 9561  17.122  13.230   1.048
37302W        W 9562  14.427  42.097   3.725
37303W        W 9563  25.975  20.069   4.831
37304W        W 9564  21.121  15.337  12.043
37305W        W 9565  25.259   2.860   1.433
37306W        W 9566  27.621  27.690  11.391
37307W        W 9567   7.333  26.905  10.120
37308W        W 9568  13.344  26.169  11.551
37309W        W 9569  12.208  33.874  11.413
37310W        W 9570  29.980  11.437   4.312
37311W        W 9571  21.586   9.879  11.031
37312W        W 9572  10.588  41.978  10.395
37313W        W 9573  29.357  20.556   2.129
37314W        W 9574  20.637  10.710  12.772
37315W        W 9575   9.339   1.849   3.845
37316W        W 9576  25.581  19.030  14.324
37317W        W 9577  20.604  42.502   4.693
37318W        W 9578  14.897  40.958   4.633
37319W        W 9579   0.845  15.162   0.748
37320W        W 9580  26.748  43.405  14.389
37321W        W 9581  12.056  31.136   3.983
37322W        W 9582  22.310  18.226  13.543
37323W        W 9583  44.860  39.800   0.272
37324W        W 9584  18.637  31.181   2.768
37325W        W 9585  18.016  34.043   1.908
37326W        W 9586   4.214  21.249   0.760
37327W        W 9587  37.811  40.400  12.668
37328W        W 9588   4.368  20.545  14.366
37329W        W 9589  20.357   5.138  13.364
37330W        W 9590   8.346  17.585   3.709
37331W        W 9591  29.664  44.559  11.803
37332W        W 9592  21.074  39.122  11.131
37333W        W 9593  20.474  42.549   2.536
37334W        W 9594  26.953  33.855   3.514
37335W        W 9595  26.836   4.237  14.578
37336W        W 9596  31.572   2.399   3.315
37337W        W 9597  32.610   0.693   4.043
37338W        W 9598  36.895  38.452   0.488
37339W        W 9599   5.876   2.345  14.693
37340W        W 9600  13.046   8.560  13.746
37341W        W 9601   1.912   7.846  14.506
37342W        W 9602  17.598   2.924   2.876
37343W        W 9603   8.817  42.151   2.646
37344W        W 9604  16.857  33.203   2.269
37345W        W 9605  39.400  35.594   3.700
37346W        W 9606  38.482  23.480  11.497
37347W        W 9607  23.212  37.141  12.086
37348W        W 9608  14.353   7.467   1.308
37349W        W 9609  32.156  30.646  11.184
37350W        W 9610  43.041  27.407   2.740
37351W        W 9611   1.318  18.357  11.703
37352W        W 9612  21.605  43.152   2.188
37353W        W 9613  40.491  35.076  13.862
37354W        W 9614   7.786  40.392  14.608
37355W        W 9615  42.834  10.705  10.692
37356W        W 9616   5.827   4.143   0.324
37357W        W 9617  15.152   9.928  11.519
37358W        W 9618   1.856  19.723   3.009
37359W        W 9619   3.028   6.809   1.232
37360W        W 9620  35.442  13.136   2.143
37361W        W 9621  22.807  20.094   4.789
37362W        W 9622  31.997   0.066   3.728
37363W        W 9623   5.327  28.828   2.897
37364W        W 9624  13.793  32.447   3.213
37365W        W 9625  26.298  27.459  12.706
37366W        W 9626  32.183  13.224   1.276
37367W        W 9627   7.121   4.505  13.784
37368W        W 9628   8.369  36.352  14.415
37369W        W 9629  43.311  34.434   0.478
37370W        W 9630  43.094  15.184  12.360
37371W        W 9631  35.569  11.848  10.565
37372W        W 9632  10.704   2.184  14.052
37373W        W 9633  43.231  18.467   0.209
37374W        W 9634  33.825   0.790   0.017
37375W        W 9635  21.139   4.686   0.989
37376W        W 9636  27.153  42.527  11.931
37377W        W 9637  41.348  43.367   2.667
37378W        W 9638  19.077  24.912   2.647
37379W        W 9639  10.947  40.072  14.481
37380W        W 9640  21.777   1.868   0.695
37381W        W 9641  38.554  34.695  10.644
37382W        W 9642  17.101  29.954   0.410
37383W        W 9643  38.111  25.302   2.340
37384W        W 9644  11.586  15.409   2.189
37385W        W 9645   2.471  13.170  13.836
37386W        W 9646  19.486  12.092   2.312
37387W        W 9647  19.926  35.067   4.237
37388W        W 9648  41.887   1.454   4.719
37389W        W 9649   0.471   3.925   2.231
37390W        W 9650   0.625   8.625   2.525
37391W        W 9651  22.687   2.956   4.556
37392W        W 9652  12.027  34.654   2.734
37393W        W 9653  41.079  37.785   0.399
37394W        W 9654  17.680  38.773   4.550
37395W        W 9655  40.867   4.486   0.385
37396W        W 9656   6.966   8.206  12.249
37397W        W 9657   0.255  28.947  14.799
37398W        W 9658  20.593  26.557   1.781
37399W        W 9659   6.439   5.246  11.483
37400W        W 9660  31.851  30.658   4.251
37401W        W 9661  11.188  23.972  14.314
37402W        W 9662  13.715  43.305   0.210
37403W        W 9663  21.081  34.868   2.271
37404W        W 9664  36.262   0.800  13.787
37405W        W 9665   5.100   1.225  13.985
37406W        W 9666  14.307   0.735   3.808
37407W        W 9667  29.122   4.270  14.763
37408W        W 9668  29.317  28.120   0.537
37409W        W 9669  39.308  32.923   2.044
37410W        W 9670   7.147  13.346  13.290
37411W        W 9671  15.749  42.351  14.230
37412W        W 9672  42.253  44.087   3.323
37413W        W 9673  39.802  38.992  14.783
37414W        W 9674   8.832  35.969   3.360
37415W        W 9675  25.033  40.265  11.559
37416W        W 9676  16.714  40.523   1.739
37417W        W 9677  16.991   4.843   0.314
37418W        W 9678  10.701  25.226  11.996
37419W        W 9679  29.243  18.535   1.792
37420W        W 9680  44.234   1.335  13.899
37421W        W 9681  26.051  16.241  10.757
37422W        W 9682  19.124  44.270  13.456
37423W        W 9683  43.916   5.350   0.446
37424W        W 9684  19.983  26.337   5.077
37425W        W 9685  31.675  35.302  14.360
37426W        W 9686   6.846   0.965  13.599
37427W        W 9687  12.043   8.159  10.310
37428W        W 9688  31.002  37.160   2.328
37429W        W 9689  26.453  44.289   0.968
37430W        W 9690   7.930  21.309   1.626
37431W        W 9691  17.587  31.775  13.915
37432W        W 9692  17.009  13.111   2.063
37433W        W 9693  15.199  22.602   4.011
37434W        W 9694  40.368  14.078   0.538
37435W        W 9695  36.503  18.352  11.952
37436W        W 9696   4.384  33.971   1.860
37437W        W 9697  16.745  10.182   3.644
37438W        W 9698   1.051  22.513   2.791
37439W        W 9699  28.727  44.326   0.424
37440W        W 9700  36.938  15.878   0.889
37441W        W 9701  32.465  27.104   4.775
37442W        W 9702  14.728  20.951   0.330
37443W        W 9703  24.005  33.447   1.147
37444W        W 9704  38.570  18.101   1.440
37445W        W 9705   4.813  14.613   0.003
37446W        W 9706   6.390  25.971  10.668
37447W        W 9707   3.921  30.392   2.341
37448W        W 9708  18.911  12.534  13.823
37449W        W 9709  11.745   5.053  11.586
37450W        W 9710   3.705   4.422  13.133
37451W        W 9711  33.501  10.774  10.906
37452W        W 9712   1.822  23.976  12.501
37453W        W 9713  24.322  40.639   1.982
37454W        W 9714  30.713   4.236   0.159
37455W        W 9715  39.988  20.562   0.335
37456W        W 9716   4.650  31.920   2.338
37457W        W 9717  42.182  25.637   2.196
37458W        W 9718  12.282  40.438  13.031
37459W        W 9719  42.958  13.647   3.384
37460W        W 9720  16.564  38.813   2.792
37461W        W 9721  30.012   0.199   3.630
37462W        W 9722   0.006  31.192  13.989
37463W        W 9723  37.884   7.454   4.518
37464W        W 9724  20.445   9.801   3.681
37465W        W 9725  36.883  23.156   0.417
37466W        W 9726  22.780  35.033  12.570
37467W        W 9727  14.583   9.049  12.641
37468W        W 9728   8.082  19.024   2.241
37469W        W 9729   5.447  20.334   1.242
37470W        W 9730  31.191  11.377  14.943
37471W        W 9731  19.961  14.588   0.014
37472W        W 9732  21.110  25.609  11.358
37473W        W 9733  25.578  33.310   4.751
37474W        W 9734  16.807  27.048  14.762
37475W        W 9735  41.288   0.919   4.504
37476W        W 9736  21.806  21.581   4.470
37477W        W 9737  30.678  41.771   4.943
37478W        W 9738   9.720   8.997  11.546
37479W        W 9739  22.790  32.290  13.482
37480W        W 9740  39.806  11.175   1.490
37481W        W 9741   6.279  43.399  13.802
37482W        W 9742  28.519  29.504  14.893
37483W        W 9743  20.491  11.798  14.234
37484W        W 9744  16.607  36.154   1.965
37485W        W 9745  17.481   6.403  13.166
37486W        W 9746  10.823   0.933  13.808
37487W        W 9747  39.757   1.274   0.354
37488W        W 9748  38.923  44.786   3.720
37489W        W 9749  42.564  17.895  13.879
37490W        W 9750  10.325  41.008  11.628
37491W        W 9751   2.118  17.020   4.495
37492W        W 9752  20.090  31.777   3.187
37493W        W 9753   4.263  28.657   0.832
37494W        W 9754  39.860  30.861   1.393
37495W        W 9755  17.629   1.780  10.690
37496W        W 9756  34.600  12.761   3.722
37497W        W 9757  44.846  30.394  11.982
37498W        W 9758  35.634  16.768   1.888
37499W        W 9759  26.481  12.904  13.422
37500W        W 9760  12.777  26.961   3.144
37501W        W 9761  10.511   8.206   3.786
37502W        W 9762  10.735  40.977  13.448
37503W        W 9763   6.739   0.926   1.845
37504W        W 9764  27.888  13.561   0.302
37505W        W 9765  17.561  43.403  13.289
37506W        W 9766  31.810  22.265   1.350
37507W        W 9767  22.092   9.199   3.879
37508W        W 9768   5.785  11.849  13.349
37509W        W 9769  20.073  44.309  14.507
37510W        W 9770   3.299  19.770   2.723
37511W        W 9771  28.711  23.069   3.191
37512W        W 9772  31.375   0.244   2.312
37513W        W 9773  21.831  27.990  11.542
37514W        W 9774  21.315   8.402   3.180
37515W        W 9775   8.174  14.705  10.736
37516W        W 9776  22.834  40.903   1.826
37517W        W 9777  24.299  35.081   3.681
37518W        W 9778  35.424   4.763   2.416
37519W        W 9779  24.365  39.072  11.611
37520W        W 9780  16.271  44.500   0.865
37521W        W 9781  42.469  26.477   4.703
37522W        W 9782  40.360   9.418   2.386
37523W        W 9783  41.427   9.805  11.477
37524W        W 9784  36.691  42.463  12.516
37525W        W 9785  10.953  34.397  13.330
37526W        W 9786  20.857  11.614   4.065
37527W        W 9787  27.578  28.927  11.944
37528W        W 9788   6.727  29.076  13.356
37529W        W 9789  26.642  17.072  14.552
37530W        W 9790  24.934  36.546  12.368
37531W        W 9791  25.442  23.111  11.986
37532W        W 9792  30.116   7.788  13.555
37533W        W 9793   3.919  34.064   2.158
37534W        W 9794  15.275   4.305  11.143
37535W        W 9795  40.987  14.798  14.858
37536W        W 9796  11.167  40.962  14.816
37537W        W 9797  42.205  42.836  14.318
37538W        W 9798  32.139  12.641  12.041
37539W        W 9799   0.200  21.808   4.749
37540W        W 9800  30.540  28.350  14.933
37541W        W 9801  13.991  12.242  14.490
37542W        W 9802  25.471  32.315  12.196
37543W        W 9803   8.932  23.545   3.617
37544W        W 9804  17.009  20.208   3.664
37545W        W 9805  37.473  33.758   2.205
37546W        W 9806  29.129  36.586   4.308
37547W        W 9807  43.377  32.811   3.734
37548W        W 9808  29.939  13.063   4.137
37549W        W 9809  40.034  27.174  12.094
37550W        W 9810  27.289  26.500   4.656
37551W        W 9811  10.991  16.431   3.520
37552W        W 9812   0.470  42.177   0.853
37553W        W 9813   5.852   8.861   2.163
37554W        W 9814  25.693  37.186  13.069
37555W        W 9815  35.276   2.223  14.363
37556W        W 9816   4.912   7.480  13.063
37557W        W 9817   8.789  28.942  11.196
37558W        W 9818  29.118  19.221   2.854
37559W        W 9819  35.989   5.948  14.541
37560W        W 9820  23.123  30.072   0.084
37561W        W 9821   7.164  38.509   4.771
37562W        W 9822  35.406  18.180   9.746
37563W        W 9823  25.422  42.344  12.075
37564W        W 9824  42.265  32.153   2.047
37565W        W 9825  26.629   0.284   1.929
37566W        W 9826  42.331  16.698   4.402
37567W        W 9827  36.259  33.896   2.240
37568W        W 9828  23.709  42.263   3.490
37569W        W 9829  35.013   7.281  11.479
37570W        W 9830  12.606  44.889   3.626
37571W        W 9831   2.809  13.370  11.178
37572W        W 9832  44.342  28.547   1.304
37573W        W 9833  17.723  17.736  11.222
37574W        W 9834  43.267  42.454   2.708
37575W        W 9835  23.217   1.628   1.754
37576W        W 9836  17.506  16.554  13.486
37577W        W 9837  35.410  30.540   0.337
37578W        W 9838  44.719  35.449  10.963
37579W        W 9839  15.877  20.282  14.815
37580W        W 9840   2.971  34.863  11.123
37581W        W 9841  36.093  13.034   4.760
37582W        W 9842  40.355  28.806   4.291
37583W        W 9843  38.998  33.912   3.284
37584W        W 9844  31.522  15.358  14.778
37585W        W 9845  11.479  34.469  13.407
37586W        W 9846   7.375  29.469   3.658
37587W        W 9847  19.116  20.780   0.834
37588W        W 9848  35.942  19.124  13.727
37589W        W 9849   9.369  10.757   4.159
37590W        W 9850  44.343  22.049   5.024
37591W        W 9851  18.186  12.556  13.118
37592W        W 9852   0.267   4.758   0.929
37593W        W 9853  25.638  30.046   0.331
37594W        W 9854  26.529   2.466   3.122
37595W        W 9855   1.439  33.153   2.151
37596W        W 9856  10.926  43.728  10.425
37597W        W 9857  28.995  26.727   3.237
37598W        W 9858  38.975  22.586   4.063
37599W        W 9859   6.778   4.067   0.981
37600W        W 9860  37.225  35.952   1.976
37601W        W 9861  41.065  23.044  11.156
37602W        W 9862  43.937   9.848  10.521
37603W        W 9863  14.381  44.242  14.314
37604W        W 9864  39.834   0.834   3.293
37605W        W 9865  35.130  18.657  11.174
37606W        W 9866  27.255  21.527  11.471
37607W        W 9867  20.721  14.531   0.264
37608W        W 9868   4.243  33.827  10.727
37609W        W 9869   2.190  40.404   4.601
37610W        W 9870  41.446  28.347   3.187
37611W        W 9871  10.320  38.524   0.794
37612W        W 9872  35.731   1.307   2.635
37613W        W 9873  26.628  44.864   4.741
37614W        W 9874  20.418  29.399  12.049
37615W        W 9875  21.250  22.466  10.032
37616W        W 9876  34.639  16.701  11.486
37617W        W 9877  24.026  34.458  12.013
37618W        W 9878  42.227  31.681  14.918
37619W        W 9879  26.114  41.316  14.392
37620W        W 9880  13.334  10.080   9.967
37621W        W 9881  13.097  18.222  14.282
37622W        W 9882  12.609   0.028   2.611
37623W        W 9883  21.384  20.746   0.440
37624W        W 9884  27.934  23.227  11.943
37625W        W 9885  27.031  18.587  13.992
37626W        W 9886   6.380   3.682  12.198
37627W        W 9887   1.888  18.226  12.083
37628W        W 9888  31.574  35.301  13.484
37629W        W 9889  23.125  22.177  14.384
37630W        W 9890  42.384  36.412  11.113
37631W        W 9891  27.178   9.664   0.131
37632W        W 9892   9.860  13.750  13.625
37633W        W 9893  37.114  32.505   4.514
37634W        W 9894  14.904  30.008   0.656
37635W        W 9895   2.112   0.881  13.906
37636W        W 9896   1.821   0.994  12.505
37637W        W 9897   3.070  44.972   4.816
37638W        W 9898  33.914   6.173  12.884
37639W        W 9899  26.559   5.916  11.194
37640W        W 9900  21.388  19.203  12.473
37641W        W 9901   2.199  12.820   2.327
37642W        W 9902   0.138  42.190  11.175
37643W        W 9903  39.620  13.260  11.109
37644W        W 9904  16.979  30.825  10.619
37645W        W 9905   6.457  25.155   4.664
37646W        W 9906  21.011  32.347  14.045
37647W        W 9907  31.590  37.057  10.770
37648W        W 9908  20.905  34.393   2.139
37649W        W 9909  22.801  17.651   0.306
37650W        W 9910  18.779   5.613   9.842
37651W        W 9911  32.065  30.751   2.837
37652W        W 9912  38.459   4.712   1.716
37653W        W 9913  30.529  36.497  14.801
37654W        W 9914  12.346  34.909  14.415
37655W        W 9915  17.210  38.274   2.236
37656W        W 9916  33.937   8.860  14.872
37657W        W 9917  24.548  26.574  14.934
37658W        W 9918  11.194  42.920   3.997
37659W        W 9919  10.553   4.304  11.265
37660W        W 9920   0.153  14.081  12.810
37661W        W 9921   2.661  31.674   4.725
37662W        W 9922  36.680  27.162   0.746
37663W        W 9923  44.819  24.531   2.345
37664W        W 9924   8.665  37.241  13.655
37665W        W 9925  44.040  43.320  14.088
37666W        W 9926  12.982  24.556  11.643
37667W        W 9927   6.364  19.250   0.852
37668W        W 9928  32.029  12.294   4.834
37669W        W 9929  41.774  24.292   2.262
37670W        W 9930   7.412  42.853  11.117
37671W        W 9931  27.050  41.644   3.262
37672W        W 9932  26.460   7.213   1.238
37673W        W 9933   8.418  30.894   4.375
37674W        W 9934   5.759  25.114   5.356
37675W        W 9935  29.494  40.590  12.330
37676W        W 9936   5.006  40.789  12.715
37677W        W 9937  19.075  30.131  12.880
37678W        W 9938   4.638  37.460  11.006
37679W        W 9939  12.252  32.030   0.673
37680W        W 9940  33.558   5.340  12.910
37681W        W 9941   2.293  20.152   2.144
37682W        W 9942   0.509  12.679  12.026
37683W        W 9943  22.493  16.327  13.346
37684W        W 9944   2.248  39.142   2.485
37685W        W 9945  22.237   7.844   2.177
37686W        W 9946  34.068  26.209   1.310
37687W        W 9947  25.726  28.198  14.578
37688W        W 9948  23.815  36.355  14.494
37689W        W 9949   2.780  42.433   4.305
37690W        W 9950  25.647  41.910   0.456
37691W        W 9951   1.703  10.740  11.990
37692W        W 9952   6.900  29.950  11.513
37693W        W 9953  11.811  15.777   0.639
37694W        W 9954  29.114  12.268   4.737
37695W        W 9955   2.835   8.238  12.404
37696W        W 9956  21.889  14.657   4.146
37697W        W 9957   2.776  40.035  11.981
37698W        W 9958  31.684  14.606   0.232
37699W        W 9959   1.570   5.167  12.960
37700W        W 9960  20.604  32.083   2.134
37701W        W 9961  11.120  37.267  14.537
37702W        W 9962  23.244  15.037   4.149
37703W        W 9963  34.024  12.763   1.011
37704W        W 9964  10.101   7.826  14.895
37705W        W 9965  40.176   5.705   3.702
37706W        W 9966  43.917  23.579  11.823
37707W        W 9967  15.868  24.035   4.163
37708W        W 9968  27.471  37.392   4.582
37709W        W 9969  44.619   8.728  14.454
37710W        W 9970  31.042  10.124   4.658
37711W        W 9971  32.000  32.458   1.418
37712W        W 9972   2.725  27.114  11.162
37713W        W 9973  14.302  35.614   4.512
37714W        W 9974  43.483   1.643  11.967
37715W        W 9975  37.010   7.945   4.033
37716W        W 9976  32.209  32.960  13.513
37717W        W 9977  14.160  17.443  14.972
37718W        W 9978  23.055  30.727   0.407
37719W        W 9979  36.563   3.491   3.618
37720W        W 9980  10.908   0.734   2.730
37721W        W 9981  35.476  21.690   2.970
37722W        W 9982  17.756  13.797   1.815
37723W        W 9983  39.566  41.726  10.863
37724W        W 9984  39.414  15.809  12.603
37725W        W 9985  12.351  34.685  11.495
37726W        W 9986  19.707  14.844  12.042
37727W        W 9987   4.851  30.115   1.693
37728W        W 9988  28.555   3.741   1.797
37729W        W 9989  33.989  42.532  12.965
37730W        W 9990   2.727  13.837  14.352
37731W        W 9991  27.461  39.321  13.858
37732W        W 9992  33.183  40.886  11.673
37733W        W 9993  13.124  10.321  10.641
37734W        W 9994  16.185  41.539  14.835
37735W        W 9995  28.401  33.821  10.647
37736W        W 9996  19.282  31.407   0.831
37737W        W 9997  35.543  41.529  11.171
37738W        W 9998  29.798  17.222  12.467
37739W        W 9999   2.701  12.315  12.286
37740W        W10000   7.390  38.025   1.809
37741W        W10001  34.084  17.657   2.781
37742W        W10002  23.757   4.394  10.624
37743W        W10003  43.593  10.330   4.317
37744W        W10004   1.912  34.840  12.349
37745W        W10005   0.876  25.260   2.245
37746W        W10006  42.339  11.566  13.121
37747W        W10007  28.193  36.079   1.970
37748W        W10008  14.078  16.313   2.566
37749W        W10009  16.724  27.137  13.267
37750W        W10010   9.896   2.371  11.608
37751W        W10011  44.696   4.795  10.832
37752W        W10012  29.612  27.979  14.707
37753W        W10013   7.726  25.343   5.402
37754W        W10014   2.254  35.164  11.083
37755W        W10015  40.948   7.593   1.334
37756W        W10016  14.528  22.540  14.452
37757W        W10017  13.652  14.940   5.569
37758W        W10018  38.924   5.653  13.117
37759W        W10019   3.039  42.414   3.863
37760W        W10020  32.522  35.818  14.469
37761W        W10021  22.484  22.125   1.964
37762W        W10022  31.903  22.550   3.116
37763W        W10023  31.650  11.373  11.911
37764W        W10024   1.341   1.237  13.768
37765W        W10025   4.466  20.180   2.139
37766W        W10026   7.352  14.348   1.202
37767W        W10027   7.516  11.086   3.710
37768W        W10028  31.113  34.882   1.405
37769W        W10029  24.965  33.119   1.258
37770W        W10030  32.480  43.529   2.666
37771W        W10031  37.307  39.058   3.372
37772W        W10032  42.280  39.797   3.673
37773W        W10033  42.979  24.749   0.051
37774W        W10034   1.530   6.472  14.055
37775W        W10035   4.804  26.200  13.470
37776W        W10036   1.474  26.181  10.634
37777W        W10037  10.350  23.603  13.081
37778W        W10038   8.832  18.543   2.357
37779W        W10039   6.116   8.907   3.347
37780W        W10040   4.423  26.508   3.086
37781W        W10041  33.787   5.317   1.247
37782W        W10042  15.796  19.490   0.798
37783W        W10043  41.879  36.041  10.338
37784W        W10044  17.650  36.936   3.722
37785W        W10045  29.970  24.600   3.383
37786W        W10046  41.570  26.671   1.775
37787W        W10047   9.711  38.974   1.391
37788W        W10048   5.381  32.082   0.377
37789W        W10049  36.363  33.884  13.875
37790W        W10050  31.625  29.427  14.212
37791W        W10051  29.429  35.006   1.404
37792W        W10052  15.644  34.045  11.456
37793W        W10053  28.283  21.463  11.328
37794W        W10054  25.206  30.528   0.782
37795W        W10055   3.897   9.684  12.979
37796W        W10056   3.171  21.642   3.569
37797W        W10057  25.264  28.927   4.719
37798W        W10058  19.074  30.638  12.873
37799W        W10059  41.390  24.201  13.845
37800W        W10060  36.604  15.058  13.902
37801W        W10061  31.555  24.970   0.904
37802W        W10062  36.089  22.151  10.980
37803W        W10063  10.259  30.442   2.471
37804W        W10064   2.239  41.981   3.659
37805W        W10065   7.817  10.822   2.803
37806W        W10066  41.846  12.308   2.039
37807W        W10067  30.248  33.592   2.696
37808W        W10068  31.969   9.243  10.429
37809W        W10069  39.472  16.096  11.650
37810W        W10070  11.928   4.480  12.185
37811W        W10071  37.780  40.011   0.424
37812W        W10072  19.084  16.890   4.630
37813W        W10073  18.216  39.505   3.784
37814W        W10074  17.687  15.990   1.322
37815W        W10075  28.711  33.053   3.228
37816W        W10076   9.425  29.580   2.964
37817W        W10077  11.271  14.074   1.053
37818W        W10078  39.609  13.500  13.441
37819W        W10079  27.117  33.807  14.524
37820W        W10080  22.316   9.257  13.529
37821W        W10081  19.861  25.958  14.456
37822W        W10082  34.937  30.510  13.150
37823W        W10083  11.321  40.757  12.968
37824W        W10084   4.847  42.937   4.187
37825W        W10085  26.781   5.794  10.734
37826W        W10086  42.879  28.868   4.731
37827W        W10087  36.186  27.923  13.487
37828W        W10088  44.775   2.503  13.552
37829W        W10089  18.821  13.753   4.179
37830W        W10090  27.678  27.543   0.723
37831W        W10091   2.886  12.766   4.043
37832W        W10092  25.783   5.388   0.617
37833W        W10093   5.298  19.951  13.047
37834W        W10094  12.169   3.006  11.949
37835W        W10095  40.367  32.540  13.912
37836W        W10096   3.372   7.273   4.501
37837W        W10097   0.770  17.710  10.314
37838W        W10098  19.710  24.881   1.513
37839W        W10099  28.407  31.234   0.567
37840W        W10100  19.305   7.854   5.430
37841W        W10101  25.939  30.584   2.234
37842W        W10102  19.701  37.809  13.693
37843W        W10103   5.720  28.255   9.873
37844W        W10104   4.019  12.890   4.096
37845W        W10105  20.180   5.987  14.961
37846W        W10106   3.760  41.714   2.223
37847W        W10107  36.587  21.165  13.789
37848W        W10108  18.670  16.622   2.384
37849W        W10109   1.526   3.381   1.275
37850W        W10110  34.606  14.152  11.076
37851W        W10111  35.227  18.181   0.552
37852W        W10112  24.132  24.397   1.486
37853W        W10113  23.732  31.350   2.302
37854W        W10114  35.428  19.721   4.152
37855W        W10115  18.054  13.876   3.756
37856W        W10116   5.698  25.546  14.485
37857W        W10117  32.872  15.937  14.765
37858W        W10118  33.748  32.164   4.611
37859W        W10119  20.240  35.039  12.429
37860W        W10120  30.197  44.945  13.923
37861W        W10121  20.111  18.524  14.383
37862W        W10122   9.408  19.280   3.867
37863W        W10123   9.755  31.475  14.677
37864W        W10124   0.002  34.868   0.905
37865W        W10125  43.378  13.801  12.274
37866W        W10126   9.135  24.433  14.536
37867W        W10127  44.188  33.428   3.754
37868W        W10128   8.383   8.273   1.778
37869W        W10129  31.839  21.563  14.474
37870W        W10130  15.823  28.534   0.856
37871W        W10131   5.449   5.107   1.757
37872W        W10132   2.418  44.788  14.904
37873W        W10133  44.947   9.206  13.296
37874W        W10134  15.482  31.945   1.503
37875W        W10135  18.548   7.241  11.121
37876W        W10136   8.676  16.362   0.417
37877W        W10137  19.537  35.094   0.335
37878W        W10138   6.181   7.981   2.949
37879W        W10139  35.474   0.455   1.334
37880W        W10140   8.905   1.431  14.983
37881W        W10141   3.831  36.307  11.960
37882W        W10142  17.648  34.356   4.145
37883W        W10143  20.082  37.525   4.919
37884W        W10144  23.096   6.178   1.372
37885W        W10145  37.154  39.162  12.397
37886W        W10146  41.043  36.963  13.363
37887W        W10147  41.887  35.593  10.676
37888W        W10148   7.821  26.236   2.317
37889W        W10149  29.932  22.482   4.032
37890W        W10150  36.526  18.262   1.242
37891W        W10151  19.651   2.024   0.775
37892W        W10152  21.695  43.215   4.501
37893W        W10153  19.803  41.461   4.549
37894W        W10154  33.953  36.021   4.107
37895W        W10155   1.714   6.175  12.373
37896W        W10156  27.868  26.048  11.368
37897W        W10157   1.369  44.270   0.270
37898W        W10158  23.760   3.731  13.874
37899W        W10159  24.010  26.740   5.430
37900W        W10160   5.894  16.531  12.166
37901W        W10161  17.604  14.297   1.876
37902W        W10162  35.438  20.146  12.444
37903W        W10163  40.730   3.258   2.821
37904W        W10164  16.285  16.564   3.329
37905W        W10165  44.906  25.406   0.513
37906W        W10166  30.609  35.474   4.528
37907W        W10167  17.500  26.707  12.989
37908W        W10168  11.731   3.783   3.635
37909W        W10169  27.324  35.298  13.386
37910W        W10170  36.870  16.512  10.972
37911W        W10171  25.616   4.284  11.628
37912W        W10172  30.728  41.092  12.532
37913W        W10173  22.027   9.882  13.841
37914W        W10174   8.714  17.305  10.586
37915W        W10175   3.771  21.086  10.924
37916W        W10176  22.285   9.651   4.132
37917W        W10177  13.760  44.717   0.867
37918W        W10178  35.207  43.117  13.639
37919W        W10179   5.791  44.067   3.719
37920W        W10180  40.146  44.005   1.851
37921W        W10181  12.687   3.396  14.882
37922W        W10182   8.791  30.585  10.455
37923W        W10183  19.340   0.733  13.833
37924W        W10184  35.827  43.950   2.275
37925W        W10185  38.495   2.163   4.766
37926W        W10186  13.361  17.875  11.586
37927W        W10187  26.198  23.707   3.229
37928W        W10188  42.292  40.302   3.660
37929W        W10189   8.837  28.306  12.022
37930W        W10190  28.678  13.160  11.818
37931W        W10191  15.365   2.233   0.701
37932W        W10192   3.966  10.399  11.115
37933W        W10193   2.272  37.444   1.650
37934W        W10194  30.697  42.820  12.513
37935W        W10195  24.253  14.260  10.602
37936W        W10196   6.799   2.164   1.381
37937W        W10197  18.614  31.884   0.739
37938W        W10198   5.254  39.794   0.456
37939W        W10199  35.742  40.734  11.948
37940W        W10200  22.000  25.204   5.057
37941W        W10201  24.584  13.808   0.035
37942W        W10202  13.285  32.838  11.951
37943W        W10203  30.310  17.412  12.476
37944W        W10204  24.512  15.225  12.869
37945W        W10205  19.380  27.666   0.765
37946W        W10206  37.421  43.897   0.914
37947W        W10207  25.346  14.402   1.485
37948W        W10208  23.548  17.716   3.380
37949W        W10209  32.416  38.151  11.577
37950W        W10210  10.205   8.679  13.292
37951W        W10211  17.639   0.254   3.272
37952W        W10212   8.995  11.441  14.816
37953W        W10213  13.604   1.984   0.297
37954W        W10214   3.722   7.652  10.885
37955W        W10215  29.240  35.392   0.414
37956W        W10216   1.464  21.615   3.706
37957W        W10217  28.113  13.152   4.609
37958W        W10218  31.803  29.320   4.036
37959W        W10219  26.161  41.668   2.362
37960W        W10220  14.644   5.138   1.762
37961W        W10221  32.806  39.100  11.441
37962W        W10222  10.703  27.668   1.654
37963W        W10223  43.929  12.538  12.163
37964W        W10224  42.005  40.286   2.344
37965W        W10225  42.084  21.823  12.471
37966W        W10226  16.311  15.039   0.855
37967W        W10227  31.052  32.693   0.403
37968W        W10228  32.901   3.202   4.729
37969W        W10229   1.349  44.281  13.351
37970W        W10230  23.285  29.242   0.748
37971W        W10231  27.895  32.118   2.851
37972W        W10232  23.285  25.780  11.716
37973W        W10233  22.429   5.356   1.852
37974W        W10234  24.132   4.031   3.427
37975W        W10235  24.921  14.203  13.874
37976W        W10236  28.937  22.859  12.828
37977W        W10237  19.044  20.876   1.343
37978W        W10238  25.429  36.196   2.756
37979W        W10239  24.537   7.621  14.068
37980W        W10240  39.959  30.658  12.514
37981W        W10241  38.814  37.006   1.186
37982W        W10242  37.650  42.558   0.145
37983W        W10243  12.760   6.369   2.251
37984W        W10244  22.503   7.279   0.222
37985W        W10245  37.642   2.917  11.242
37986W        W10246  32.671  40.901   4.217
37987W        W10247   5.005  23.282   4.176
37988W        W10248   1.884   8.173  14.961
37989W        W10249  26.977  37.613   3.206
37990W        W10250   9.324   3.002  11.449
37991W        W10251  27.123  10.423   3.305
37992W        W10252  24.512  43.457  14.938
37993W        W10253   6.080  21.963   0.771
37994W        W10254  10.773   2.772  14.311
37995W        W10255  19.682  35.668   2.682
37996W        W10256  24.911  14.779   2.294
37997W        W10257   1.526  43.235  14.698
37998W        W10258  32.722  37.447  13.540
37999W        W10259  26.099  28.922  14.852
38000W        W10260  42.160  32.435  11.136
38001W        W10261  20.660  22.135  14.823
38002W        W10262  30.706  21.003   2.224
38003W        W10263  28.636  24.648   2.049
38004W        W10264  19.888  19.988   2.224
38005W        W10265   0.767  19.986   4.085
38006W        W10266  11.265  24.585   3.631
38007W        W10267  44.626  43.429   0.047
38008W        W10268  44.043  11.417  11.401
38009W        W10269   2.932  28.223  10.648
38010W        W10270  15.773  42.995   4.662
38011W        W10271  30.054  31.395  13.788
38012W        W10272  17.199  40.397   1.884
38013W        W10273  36.457  34.806   1.040
38014W        W10274  31.632  19.239   4.874
38015W        W10275  36.990  22.200   2.146
38016W        W10276  32.604  10.067   1.699
38017W        W10277   4.916   7.915   0.304
38018W        W10278  26.584  43.963   0.420
38019W        W10279  11.305  22.637  11.934
38020W        W10280  22.114  13.398   3.872
38021W        W10281  29.359  36.371  11.848
38022W        W10282  22.199   8.196  12.092
38023W        W10283  40.477  13.708  13.034
38024W        W10284   9.207  38.624  10.526
38025W        W10285  43.016  20.145   3.663
38026W        W10286   2.927  27.412   0.726
38027W        W10287   1.905  16.333  10.386
38028W        W10288  44.488  42.878   0.732
38029W        W10289  10.094  21.565  14.030
38030W        W10290   4.870  40.479  13.949
38031W        W10291  17.251   5.591   5.703
38032W        W10292  28.936  41.567  11.635
38033W        W10293   5.804  22.923   4.502
38034W        W10294   6.788   4.256  13.463
38035W        W10295  13.669  39.400  10.686
38036W        W10296   8.722  34.602   4.276
38037W        W10297  26.412   6.595  13.334
38038W        W10298  12.608   5.270   2.213
38039W        W10299  22.127  24.304   5.035
38040W        W10300  27.438  17.126   2.650
38041W        W10301  10.089   4.197   4.249
38042W        W10302   6.372  20.579   1.217
38043W        W10303  18.006  12.835  12.130
38044W        W10304  33.463  25.854  11.483
38045W        W10305  12.808  36.031  12.592
38046W        W10306  25.735  19.738  10.661
38047W        W10307  35.843  25.715  12.364
38048W        W10308  42.802  39.293   4.679
38049W        W10309  12.808  36.332   4.180
38050W        W10310  10.342  11.056  13.379
38051W        W10311   8.338  23.455  14.179
38052W        W10312   1.257  40.769  13.972
38053W        W10313  30.166  16.202   1.740
38054W        W10314   8.157  24.246   4.562
38055W        W10315  44.214  26.514  12.357
38056W        W10316  15.593  26.562  12.120
38057W        W10317  22.031  17.420   3.899
38058W        W10318   8.881  23.279   0.350
38059W        W10319  10.416  25.563   3.611
38060W        W10320  20.767  27.635  10.275
38061W        W10321  17.607   8.133  12.066
38062W        W10322  33.628  21.548   0.516
38063W        W10323  41.528  32.942  11.790
38064W        W10324  12.193  11.810   2.225
38065W        W10325  27.699   8.627  12.950
38066W        W10326   0.724  11.368   4.989
38067W        W10327   5.942  40.796  14.196
38068W        W10328  28.889  37.916   3.635
38069W        W10329   6.782   0.770   4.879
38070W        W10330  33.556   1.155  12.965
38071W        W10331  14.807  22.733  14.842
38072W        W10332  11.573  33.526  13.493
38073W        W10333   4.614   7.822   2.670
38074W        W10334  23.574  36.218  12.516
38075W        W10335  21.119  31.509  12.385
38076W        W10336  14.735  32.445  14.200
38077W        W10337  41.365  37.366  11.543
38078W        W10338  29.642  44.942   0.125
38079W        W10339  40.352  16.188   3.157
38080W        W10340   9.652  28.911  12.040
38081W        W10341  42.453   5.731  12.542
38082W        W10342  13.036  23.097  13.469
38083W        W10343  17.040  44.250  12.529
38084W        W10344   2.871  24.181  13.534
38085W        W10345  23.388  39.760   2.629
38086W        W10346   1.419   2.858   3.228
38087W        W10347  30.497  29.628   9.882
38088W        W10348  17.969   3.493   3.534
38089W        W10349  15.903   6.148  13.707
38090W        W10350  42.836  10.423   4.202
38091W        W10351  41.927   0.175  14.379
38092W        W10352   6.324   2.011   2.753
38093W        W10353  42.580  16.080   2.317
38094W        W10354  14.489   0.832   3.245
38095W        W10355  30.089  37.347  11.622
38096W        W10356   5.325  22.019   3.139
38097W        W10357  19.303  43.041  13.899
38098W        W10358  38.159  37.010  13.687
38099W        W10359   2.217  24.508   2.265
38100W        W10360  44.225  22.261   2.244
38101W        W10361  11.109   4.804   4.745
38102W        W10362  31.031  24.709  13.481
38103W        W10363  29.503  14.067   1.433
38104W        W10364  17.761  17.275   0.808
38105W        W10365  29.225  10.889   4.050
38106W        W10366   8.146  33.169   0.293
38107W        W10367   1.323  34.629   1.135
38108W        W10368  29.730   6.265  14.460
38109W        W10369   2.418  23.526   1.437
38110W        W10370   2.411  24.875  10.351
38111W        W10371   9.891   1.184   2.146
38112W        W10372   8.069  27.219   2.412
38113W        W10373  11.914  32.626   1.848
38114W        W10374  22.465  11.880   4.579
38115W        W10375  13.711  29.971   1.882
38116W        W10376  20.118  37.617  11.965
38117W        W10377  28.106  20.156   4.195
38118W        W10378  23.494   7.157  14.361
38119W        W10379  43.841  38.918  11.568
38120W        W10380  30.988  30.407  10.544
38121W        W10381  35.048  38.058  13.998
38122W        W10382  16.272   9.755   0.072
38123W        W10383  43.991  29.172  14.412
38124W        W10384  40.848   4.635  14.871
38125W        W10385  35.378  32.043  11.189
38126W        W10386  42.833   6.318  10.665
38127W        W10387  38.360  31.609  11.493
38128W        W10388   5.311  33.933   0.051
38129W        W10389  28.192  30.149  14.778
38130W        W10390  16.776  42.978   4.618
38131W        W10391  14.818  39.330  14.773
38132W        W10392   2.398  39.924  12.536
38133W        W10393  15.553  10.119  10.071
38134W        W10394  43.905  36.463   5.098
38135W        W10395  10.335   4.191   3.810
38136W        W10396   8.180  26.001  10.248
38137W        W10397  38.424  10.713  11.587
38138W        W10398   2.174  30.996   2.869
38139W        W10399   2.579   2.123   4.165
38140W        W10400  38.042  41.335  12.955
38141W        W10401  39.667   5.821   3.756
38142W        W10402  39.021   4.318   1.901
38143W        W10403  29.149  40.123  11.016
38144W        W10404  29.121   7.728   0.026
38145W        W10405  38.860  31.998   2.825
38146W        W10406   2.681  25.194  10.692
38147W        W10407  17.786  20.339  14.946
38148W        W10408  34.869  23.521   0.316
38149W        W10409  43.037  41.376   1.801
38150W        W10410  23.254  24.396  11.095
38151W        W10411  29.867  25.645  12.026
38152W        W10412  43.818  37.488   1.028
38153W        W10413  20.978   7.078  12.067
38154W        W10414  21.731  22.586  12.317
38155W        W10415  38.591  42.614   1.315
38156W        W10416  15.745  12.607   2.627
38157W        W10417  11.874  19.621   0.873
38158W        W10418   1.348   2.256  11.723
38159W        W10419   5.907  21.186   4.198
38160W        W10420  44.125  17.257  11.436
38161W        W10421  41.712  36.891  14.773
38162W        W10422  17.801  44.437  11.987
38163W        W10423  34.496  18.892  14.882
38164W        W10424  29.097  11.359   2.159
38165W        W10425  28.943  25.058   4.553
38166W        W10426  10.290  16.625  10.515
38167W        W10427  14.627  34.011  13.958
38168W        W10428  44.545  17.478   4.147
38169W        W10429  42.414  14.074  14.543
38170W        W10430  29.309  21.787  11.348
38171W        W10431  24.142  23.028  14.807
38172W        W10432  42.003   2.279   1.697
38173W        W10433  11.468  12.791   2.621
38174W        W10434  25.913  43.363   4.169
38175W        W10435  28.722   9.627  11.966
38176W        W10436   2.287   6.260   2.091
38177W        W10437   4.244  20.249   1.117
38178W        W10438  39.327  18.599   1.630
38179W        W10439   3.228  21.205   3.856
38180W        W10440   9.250  12.558  12.519
38181W        W10441  10.545  37.813   1.175
38182W        W10442  10.403  40.939  12.535
38183W        W10443  23.059  37.877   1.851
38184W        W10444   1.868   9.696  13.881
38185W        W10445  40.999   8.481  13.483
38186W        W10446  16.258  23.246  12.026
38187W        W10447  18.296  17.589  10.717
38188W        W10448  36.978  10.600  14.014
38189W        W10449  42.113  23.273  12.549
38190W        W10450  25.006  32.714  10.764
38191W        W10451  28.600  20.070   3.378
38192W        W10452  11.348  15.049   3.744
38193W        W10453  44.925  13.287  11.646
38194W        W10454  14.370  28.830  12.365
38195W        W10455  14.167  44.644  14.547
38196W        W10456  39.019  19.878   4.356
38197W        W10457  28.296  26.694   3.691
38198W        W10458  42.889  16.102  13.944
38199W        W10459  33.568  30.178  12.603
38200W        W10460  40.459  26.554   0.580
38201W        W10461   1.179  27.494   2.368
38202W        W10462  32.013  41.266  13.366
38203W        W10463  10.113   6.989  14.266
38204W        W10464  30.563  37.024   1.323
38205W        W10465  28.381   4.755   3.131
38206W        W10466  18.397  25.546  11.204
38207W        W10467   7.176   5.932  14.857
38208W        W10468  29.856  27.581   4.557
38209W        W10469  44.753   1.070   9.956
38210W        W10470  10.278  17.083   5.120
38211W        W10471  23.444  29.992  14.703
38212W        W10472  16.761  31.508   1.081
38213W        W10473  38.391  33.566   1.020
38214W        W10474  30.919  19.788   3.731
38215W        W10475  25.595  22.726  13.373
38216W        W10476   4.220  31.386  12.976
38217W        W10477  11.347  34.673   3.671
38218W        W10478  22.270   5.872  10.826
38219W        W10479  16.788  11.610   4.706
38220W        W10480  35.474  13.738   2.786
38221W        W10481  21.070   1.823  11.107
38222W        W10482   3.591   8.417  14.829
38223W        W10483  19.760  41.379  10.821
38224W        W10484   2.767  36.412   0.570
38225W        W10485  34.328  41.398   3.908
38226W        W10486  36.585   4.348   0.295
38227W        W10487  17.090  12.409  11.200
38228W        W10488  42.915  32.744  12.711
38229W        W10489   6.720  12.588   0.437
38230W        W10490  41.462  38.994  12.450
38231W        W10491  31.033  42.260  13.372
38232W        W10492  20.498   0.321   3.365
38233W        W10493   4.122  26.013   4.179
38234W        W10494   9.191  44.023   0.052
38235W        W10495  15.858   9.911  10.466
38236W        W10496  44.590  42.028  11.448
38237W        W10497  18.223  40.941  13.065
38238W        W10498  40.999  31.591   3.615
38239W        W10499  31.114  20.376  11.174
38240W        W10500  30.236  43.942   4.021
38241W        W10501  18.056   6.673   3.099
38242W        W10502  30.206   0.753  13.194
38243W        W10503  10.791  27.606  11.100
38244W        W10504  25.431  31.826  11.518
38245W        W10505  18.543   6.760   2.935
38246W        W10506   4.708  23.956  12.988
38247W        W10507  39.837  41.895   2.441
38248W        W10508  38.699   9.898   4.144
38249W        W10509  17.677  19.285  14.503
38250W        W10510  26.206  33.143   0.998
38251W        W10511  28.772  39.101   3.103
38252W        W10512  18.767  16.368  13.124
38253W        W10513  32.291  40.908  11.282
38254W        W10514  32.349  15.076   3.601
38255W        W10515  14.345  14.289  13.066
38256W        W10516   7.595  10.331  13.834
38257W        W10517  16.500  28.957  14.783
38258W        W10518  34.360   3.388   1.380
38259W        W10519   0.429   8.120  11.172
38260W        W10520  29.635   5.645  11.367
38261W        W10521  29.605  13.914   3.586
38262W        W10522  12.943  35.802   4.166
38263W        W10523  19.114  29.425   2.656
38264W        W10524  22.398  36.544  14.208
38265W        W10525  28.117  24.847  11.076
38266W        W10526  40.793  36.904   0.263
38267W        W10527  21.463  29.155  12.841
38268W        W10528  38.266  12.544   3.657
38269W        W10529  23.786  32.523   0.780
38270W        W10530   1.829  19.066   2.733
38271W        W10531  17.203  43.230   0.808
38272W        W10532  29.893  25.858   1.917
38273W        W10533  44.531  20.964   1.777
38274W        W10534  11.508   8.930   4.409
38275W        W10535  38.997   0.945   2.908
38276W        W10536  38.863  42.419   0.223
38277W        W10537  18.166   5.803   1.036
38278W        W10538  32.865  28.695  14.049
38279W        W10539  18.508   9.155   3.222
38280W        W10540  12.808  20.897   4.735
38281W        W10541  32.492  31.621  12.769
38282W        W10542  19.633  18.714   4.654
38283W        W10543  21.382  31.725  10.692
38284W        W10544  21.501  27.393  14.895
38285W        W10545  18.057  37.934   1.873
38286W        W10546  28.177  29.454  12.309
38287W        W10547  29.146  34.513  11.674
38288W        W10548  43.466  37.374  13.293
38289W        W10549  10.604  17.707   0.259
38290W        W10550  20.343  41.065   1.513
38291W        W10551  38.111  10.756  10.359
38292W        W10552  14.672  17.189  13.443
38293W        W10553  16.001  22.032   0.515
38294W        W10554  35.812  11.133  11.500
38295W        W10555  23.264   8.828   3.355
38296W        W10556  36.504   9.733  12.071
38297W        W10557  44.546  11.759  10.600
38298W        W10558   0.767  32.518  14.050
38299W        W10559  13.319  33.654  11.084
38300W        W10560  38.127   2.281  10.839
38301W        W10561  12.225  30.871  11.312
38302W        W10562  35.048  21.066   0.316
38303W        W10563  37.490   1.514  11.069
38304W        W10564  19.536   7.785  13.789
38305W        W10565  24.441  23.125   2.904
38306W        W10566  34.154   0.708   3.169
38307W        W10567  43.974   6.798   5.121
38308W        W10568  28.475  21.506   1.271
38309W        W10569   5.258   0.772   1.792
38310W        W10570  12.131   7.644  13.376
38311W        W10571  36.028  35.077  12.001
38312W        W10572  24.028  40.375   4.508
38313W        W10573  27.122  24.118  14.534
38314W        W10574  26.119   0.328  12.489
38315W        W10575   6.155   8.244   1.476
38316W        W10576  32.637   8.708  10.661
38317W        W10577  36.850  19.125   2.300
38318W        W10578   0.404  16.741  13.402
38319W        W10579  35.565  21.537  13.909
38320W        W10580  33.365  40.262  12.906
38321W        W10581  14.854  36.700  14.517
38322W        W10582  43.803  25.509  11.535
38323W        W10583  42.025  14.754   3.713
38324W        W10584  35.023  33.478   1.734
38325W        W10585   6.877  16.627  11.248
38326W        W10586  17.217  44.804  13.102
38327W        W10587   3.727  13.311   0.184
38328W        W10588  14.192  19.380  13.378
38329W        W10589  23.171  20.127  11.060
38330W        W10590   4.672   4.936   3.300
38331W        W10591  26.571  26.364   3.252
38332W        W10592  22.004   9.399  11.640
38333W        W10593   0.464  44.360  12.359
38334W        W10594  43.015  22.728  13.386
38335W        W10595  30.587  32.817   1.111
38336W        W10596   0.049   5.724   2.216
38337W        W10597  24.571  13.606   0.980
38338W        W10598   0.419  15.249   4.257
38339W        W10599  21.949  23.815   4.962
38340W        W10600  15.165  11.713  12.064
38341W        W10601   8.283  38.051  13.551
38342W        W10602  42.790  30.653  14.612
38343W        W10603  15.704   4.355  13.935
38344W        W10604  28.499  36.801   0.473
38345W        W10605  11.836  34.037  12.388
38346W        W10606  32.347   8.339   1.000
38347W        W10607  19.758  21.704   3.010
38348W        W10608  38.403   5.868  12.815
38349W        W10609  32.091  10.687  14.030
38350W        W10610  30.149  34.156   4.016
38351W        W10611  12.836  22.180   0.322
38352W        W10612   6.431  40.820   4.631
38353W        W10613  41.228   1.730   3.791
38354W        W10614  24.152  16.214   4.288
38355W        W10615  43.974  35.690   0.554
38356W        W10616  10.038  43.285  12.913
38357W        W10617  26.368  18.488   1.092
38358W        W10618   4.625  35.670  13.457
38359W        W10619  10.467  41.827  14.413
38360W        W10620   4.205  25.289   1.305
38361W        W10621  34.174   3.834  13.488
38362W        W10622  37.606  38.107   3.543
38363W        W10623  40.603  38.409  12.452
38364W        W10624  44.795   8.148  12.615
38365W        W10625  11.677  21.294   2.385
38366W        W10626   3.081  19.491   2.296
38367W        W10627  25.861  24.854  12.047
38368W        W10628  25.746   7.404  12.428
38369W        W10629  14.173  41.322   4.590
38370W        W10630  12.695  25.934   0.716
38371W        W10631  16.397   2.204  12.923
38372W        W10632  35.019  30.117   0.960
38373W        W10633  28.544  24.763  11.524
38374W        W10634  32.785  18.666   0.113
38375W        W10635  30.343   2.256  12.870
38376W        W10636  38.762   9.853   9.754
38377W        W10637  35.615  34.988   4.801
38378W        W10638  32.023  16.678   0.869
38379W        W10639  31.415  36.857   2.209
38380W        W10640   2.034   5.658  14.374
38381W        W10641  34.972  32.994  13.440
38382W        W10642  40.806  25.236  14.996
38383W        W10643  10.300  27.962   4.607
38384W        W10644   1.847  19.136   2.203
38385W        W10645  43.679  18.023   3.737
38386W        W10646  12.565   3.896  14.838
38387W        W10647  42.079  44.213  12.854
38388W        W10648  25.561  13.225  12.098
38389W        W10649  26.350  35.938   4.962
38390W        W10650  15.407  39.806  12.439
38391W        W10651   8.200  23.949  10.583
38392W        W10652  42.818  24.596  13.938
38393W        W10653  15.899   0.403   4.721
38394W        W10654   4.730  32.638   1.784
38395W        W10655  20.220  24.790  14.469
38396W        W10656  40.004  32.537   0.651
38397W        W10657  20.509   3.853  13.221
38398W        W10658   2.801   5.208  14.900
38399W        W10659  11.835  25.550  10.787
38400W        W10660  21.590   7.388   1.186
38401W        W10661  20.825  30.588   3.106
38402W        W10662  25.894  42.081  14.443
38403W        W10663   9.721  33.913  13.304
38404W        W10664  41.566  30.629  14.135
38405W        W10665  19.241   2.408   4.302
38406W        W10666  31.542  36.944   3.140
38407W        W10667  23.459  32.431   0.376
38408W        W10668   2.931  41.984  12.004
38409W        W10669  29.468  13.252   4.081
38410W        W10670  22.788   9.178   2.356
38411W        W10671   9.549   4.243   4.129
38412W        W10672  15.110   6.764   4.690
38413W        W10673   8.329  25.088  10.893
38414W        W10674  31.099   8.892  12.088
38415W        W10675  16.011  21.833  10.711
38416W        W10676  11.361  26.680  12.284
38417W        W10677  27.932  30.211   1.300
38418W        W10678  13.126  24.425  13.460
38419W        W10679  44.457  43.052  14.257
38420W        W10680  10.219  21.300   3.628
38421W        W10681  17.631  12.203  12.004
38422W        W10682  36.810  31.472  14.435
38423W        W10683  18.566  10.872   0.486
38424W        W10684  28.566  40.971   1.968
38425W        W10685  41.438  27.046   2.799
38426W        W10686   0.536  28.633  14.405
38427W        W10687   0.686  16.826   2.211
38428W        W10688  35.201  21.025  10.567
38429W        W10689  39.577  35.679   0.201
38430W        W10690  12.820  31.230  14.770
38431W        W10691  22.498  15.891   3.516
38432W        W10692  30.510  36.301   1.934
38433W        W10693  21.030  20.766   9.836
38434W        W10694  38.467  33.214   2.412
38435W        W10695  40.807   6.158  11.562
38436W        W10696  30.978  39.828  12.405
38437W        W10697  39.459  41.024   4.893
38438W        W10698  29.677  38.887  14.502
38439W        W10699  41.183  18.157   0.984
38440W        W10700  22.687  30.696  10.696
38441W        W10701   4.181  41.273   3.907
38442W        W10702   3.492  37.530   0.263
38443W        W10703   1.679  11.146  11.191
38444W        W10704  12.954  38.404  14.027
38445W        W10705  25.603  40.433   4.681
38446W        W10706  19.162  16.474   3.401
38447W        W10707  33.504  10.864  14.018
38448W        W10708  29.167   4.413   0.258
38449W        W10709  37.438   3.409   4.125
38450W        W10710  42.508  23.087  11.109
38451W        W10711  31.415  16.125  11.519
38452W        W10712  43.810   2.352  11.008
38453W        W10713  43.310  36.902   0.917
38454W        W10714  25.699  14.314  14.358
38455W        W10715  32.715  37.985   1.175
38456W        W10716  16.819  15.073  14.868
38457W        W10717   0.470  26.234   2.426
38458W        W10718  18.305   9.606  11.917
38459W        W10719  40.954  19.763  12.500
38460W        W10720  43.866  12.687  14.299
38461W        W10721  14.981   5.006   4.170
38462W        W10722  23.896  22.718  10.710
38463W        W10723  42.458   0.987   2.211
38464W        W10724  27.171   7.008   0.814
38465W        W10725  15.344  32.959  12.592
38466W        W10726  23.456  23.451  11.626
38467W        W10727  15.786   3.176   4.552
38468W        W10728   3.209   5.336  11.192
38469W        W10729  44.841  27.064   1.265
38470W        W10730   7.810  16.242   0.444
38471W        W10731  24.796  22.182  13.462
38472W        W10732  20.935  26.523  11.103
38473W        W10733  18.745  25.968   0.720
38474W        W10734  33.327  18.929   2.879
38475W        W10735  10.679  41.903  14.949
38476W        W10736  16.745  30.861   0.431
38477W        W10737   6.426  27.878  13.700
38478W        W10738  18.392  19.646   5.344
38479W        W10739  19.130  37.563   2.480
38480W        W10740  23.142   7.838   2.240
38481W        W10741  20.522  19.568   4.082
38482W        W10742   7.158   7.866  11.906
38483W        W10743   4.957  25.768  14.992
38484W        W10744  30.380  30.182  12.300
38485W        W10745  23.630  22.985  11.485
38486W        W10746  26.579  41.158  12.513
38487W        W10747  17.892  35.778  14.329
38488W        W10748   3.433  10.325   4.167
38489W        W10749  11.440  17.563  14.368
38490W        W10750  24.964  36.089  12.633
38491W        W10751  39.072  20.418  14.253
38492W        W10752  41.768  40.513   4.510
38493W        W10753  14.247  21.692  12.758
38494W        W10754  18.531  21.063   9.985
38495W        W10755  10.672   8.784   2.650
38496W        W10756   5.684  12.588   3.188
38497W        W10757  41.588  25.542   1.254
38498W        W10758  16.197  18.973   0.580
38499W        W10759  14.323   3.927  13.438
38500W        W10760   4.432  29.801   1.861
38501W        W10761  38.358  33.605   3.371
38502W        W10762  40.454  42.040  12.018
38503W        W10763  14.970   4.323   3.730
38504W        W10764  11.743   2.470  13.394
38505W        W10765  23.533  24.624  14.795
38506W        W10766  29.907  16.184   2.697
38507W        W10767   7.436  20.199  14.448
38508W        W10768  44.074  32.086   4.239
38509W        W10769  20.528  38.577   1.764
38510W        W10770  43.263   3.499  13.427
38511W        W10771   1.190  42.703  14.005
38512W        W10772   5.788  32.403   3.749
38513W        W10773  30.029  16.110   2.217
38514W        W10774  19.200   0.106   3.715
38515W        W10775   3.300  41.417   1.279
38516W        W10776  41.862  27.900   4.607
38517W        W10777   8.452   9.192   4.185
38518W        W10778   9.705  40.771  12.251
38519W        W10779  22.196   7.652  13.449
38520W        W10780  15.644  31.590   2.655
38521W        W10781   2.860  38.969   0.229
38522W        W10782  21.630  20.700  13.595
38523W        W10783  26.146  25.660  13.116
38524W        W10784   1.825   8.438   4.963
38525W        W10785  26.712  21.462  11.537
38526W        W10786  34.884  28.631  11.553
38527W        W10787  10.079  38.113   9.951
38528W        W10788  24.077  17.059  11.192
38529W        W10789  35.006   5.306  12.914
38530W        W10790   4.354  41.823   4.283
38531W        W10791  30.100  29.052   0.294
38532W        W10792  38.908  26.456   0.609
38533W        W10793   2.444   9.704  13.459
38534W        W10794  21.483  18.057  10.823
38535W        W10795  29.197   9.863  13.877
38536W        W10796  15.940  10.389   0.777
38537W        W10797   6.376  24.990   2.161
38538W        W10798  26.486  36.001  11.654
38539W        W10799  44.823  16.588  11.248
38540W        W10800  33.363  11.717  11.788
38541W        W10801  18.118  41.484  14.270
38542W        W10802  29.685  28.204  11.973
38543W        W10803  17.690  15.784   4.686
38544W        W10804  30.854  29.533   0.321
38545W        W10805  15.156  33.547   0.400
38546W        W10806  19.316  14.435  12.903
38547W        W10807   1.245  39.669   4.296
38548W        W10808  40.780  39.033  12.917
38549W        W10809  23.726  17.642  11.560
38550W        W10810   6.614  30.432  11.548
38551W        W10811   0.072   0.412   2.777
38552W        W10812   5.183  25.219  10.571
38553W        W10813   3.168  10.259   4.647
38554W        W10814  37.849  29.427   1.771
38555W        W10815   3.032  24.077  14.998
38556W        W10816  13.647  28.133  13.924
38557W        W10817  20.085  25.587   2.274
38558W        W10818   2.724  11.814   1.257
38559W        W10819  35.470  29.990   2.798
38560W        W10820  33.556  43.237  14.871
38561W        W10821  31.155  11.228   2.873
38562W        W10822  12.660  35.015   4.423
38563W        W10823  24.189  12.594  12.560
38564W        W10824  14.359  31.315  10.629
38565W        W10825  18.056  21.631   4.504
38566W        W10826  11.448  31.366  11.080
38567W        W10827  32.968  23.648  14.438
38568W        W10828  42.550  41.431   1.921
38569W        W10829   2.312   2.461   4.465
38570W        W10830  20.859  32.074  14.790
38571W        W10831   8.674  26.700  10.650
38572W        W10832  29.845   8.947  10.728
38573W        W10833   2.297   2.392   3.405
38574W        W10834  37.554  13.099  12.953
38575W        W10835  21.190  44.395  13.472
38576W        W10836  18.962  15.425   3.372
38577W        W10837  41.320  37.899  10.888
38578W        W10838   6.893  17.767   1.445
38579W        W10839   3.612   8.448   4.137
38580W        W10840   3.625  27.543   3.820
38581W        W10841  29.969  16.363  14.857
38582W        W10842  25.681  38.763   0.898
38583W        W10843  28.366   4.233   1.845
38584W        W10844   0.101   3.511   1.304
38585W        W10845  44.311  29.438  14.947
38586W        W10846  14.076  36.212   3.028
38587W        W10847  33.418  17.513  13.836
38588W        W10848  27.402  43.876  14.335
38589W        W10849  19.825  33.937   4.471
38590W        W10850  40.002  22.170  10.728
38591W        W10851  14.642  30.762   3.779
38592W        W10852  13.764  31.452  12.171
38593W        W10853  25.389  44.522  14.850
38594W        W10854  20.091   3.903   3.182
38595W        W10855  30.849  17.637  13.830
38596W        W10856   2.466  43.342   4.753
38597W        W10857  35.795  37.942   2.354
38598W        W10858  36.066  17.206   4.411
38599W        W10859   8.284  29.829  14.762
38600W        W10860  39.453  23.175   2.313
38601W        W10861  38.767  40.932   1.888
38602W        W10862  26.668  20.547   3.693
38603W        W10863  23.996  17.308   5.039
38604W        W10864   7.273  34.824   1.708
38605W        W10865  16.701  43.377   3.702
38606W        W10866  37.536   2.592   3.490
38607W        W10867  38.678  35.571   4.863
38608W        W10868  20.186  28.732   2.209
38609W        W10869  24.047   1.191  10.660
38610W        W10870  39.321  42.898  13.094
38611W        W10871  35.115  18.473   5.100
38612W        W10872  21.620   6.710  12.946
38613W        W10873   5.285  42.516  11.975
38614W        W10874  28.400  43.086  14.360
38615W        W10875  14.793  11.075  11.154
38616W        W10876  26.100  12.762  12.579
38617W        W10877  22.173  13.345  11.501
38618W        W10878  32.906  18.596  13.731
38619W        W10879  11.358  30.967  12.626
38620W        W10880  34.676  36.756   1.252
38621W        W10881   0.217  42.823  13.908
38622W        W10882  32.523  35.138   2.242
38623W        W10883  21.560  20.081   2.705
38624W        W10884  42.113   8.208  12.826
38625W        W10885  36.126  43.395  14.815
38626W        W10886  30.809   9.334   4.129
38627W        W10887  38.071   9.662  13.792
38628W        W10888  13.635  10.192   2.285
38629W        W10889  39.425   1.715  11.849
38630W        W10890  25.648  19.801   2.134
38631W        W10891  27.482   4.397   0.374
38632W        W10892   6.436  16.456   3.152
38633W        W10893  15.348   3.376  13.913
38634W        W10894  42.082  32.479   2.409
38635W        W10895   4.203   7.692  14.847
38636W        W10896  11.678  35.890   0.385
38637W        W10897  42.855  33.519  10.560
38638W        W10898  23.794  14.068   3.034
38639W        W10899  12.589  27.341   3.488
38640W        W10900   9.732  31.040   2.205
38641W        W10901  32.956  28.961  12.725
38642W        W10902  11.693   4.189  13.963
38643W        W10903  42.937  31.068   1.867
38644W        W10904  18.234  14.881   2.825
38645W        W10905  30.325  37.343  11.092
38646W        W10906  40.402  35.616   4.339
38647W        W10907   1.379  40.319  14.247
38648W        W10908  32.455  39.240   0.908
38649W        W10909  42.991   7.028   0.836
38650W        W10910  28.609  39.013   3.578
38651W        W10911  32.582  44.379  12.104
38652W        W10912  12.919  24.021   0.451
38653W        W10913  27.995   4.846   2.801
38654W        W10914  34.318  25.775  13.079
38655W        W10915  15.551  33.487  13.455
38656W        W10916   8.649  34.555  12.481
38657W        W10917  22.455  37.051   3.181
38658W        W10918  16.295  21.138  13.301
38659W        W10919   0.342  29.130  10.882
38660W        W10920  23.687  21.699   2.001
38661W        W10921  31.970   1.910   1.990
38662W        W10922  41.041  31.353   2.717
38663W        W10923  30.694  27.444  13.500
38664W        W10924  10.972  37.349   4.269
38665W        W10925  29.453  29.350   5.477
38666W        W10926  13.659  26.784  10.529
38667W        W10927  38.315  14.264   5.105
38668W        W10928   1.444  25.225  14.483
38669W        W10929  35.535  32.571  11.933
38670W        W10930   1.663  41.376   2.083
38671W        W10931  38.553  32.638   4.087
38672W        W10932  30.941  38.115  13.309
38673W        W10933   2.952  40.312   2.859
38674W        W10934  14.381  17.162   5.527
38675W        W10935   2.253  31.407  13.815
38676W        W10936  37.842  15.343   4.162
38677W        W10937  42.463  30.572   1.756
38678W        W10938  37.789  38.952   3.604
38679W        W10939  10.753  16.475   4.521
38680W        W10940  32.198  38.821   2.253
38681W        W10941  41.110  26.063   1.836
38682W        W10942  17.238   4.423  12.102
38683W        W10943  31.138  38.139   1.374
38684W        W10944  32.951   0.306  14.014
38685W        W10945  32.196  40.389  11.041
38686W        W10946  32.520  32.942  10.083
38687W        W10947  37.021  34.528   1.690
38688W        W10948   7.302  43.839  13.956
38689W        W10949   7.258  39.359   1.924
38690W        W10950  26.720  14.590  10.606
38691W        W10951  42.369  22.943   2.249
38692W        W10952  42.413  22.982   3.621
38693W        W10953  29.086  28.679  14.529
38694W        W10954  14.359   6.279  10.604
38695W        W10955  37.039   0.001   4.551
38696W        W10956  25.733  28.569  14.939
38697W        W10957  21.378   3.843   2.715
38698W        W10958  19.321  32.586  12.566
38699W        W10959  31.560  23.685   2.159
38700W        W10960  44.650  21.199   5.091
38701W        W10961  41.135  41.990  12.456
38702W        W10962  39.348  43.564   4.710
38703W        W10963  17.133   2.776   9.899
38704W        W10964   0.715  21.761  10.718
38705W        W10965   0.547  26.031   2.898
38706W        W10966  29.592  30.033  14.285
38707W        W10967  11.920  30.469  11.208
38708W        W10968  36.469  43.429   1.897
38709W        W10969   2.508  11.798  13.531
38710W        W10970  12.799   3.159   4.823
38711W        W10971   1.500  42.375   0.241
38712W        W10972   5.770  14.554   0.320
38713W        W10973   7.662   6.296  10.627
38714W        W10974   0.727   8.177   3.208
38715W        W10975  37.382  12.758  12.604
38716W        W10976  24.606  15.449   4.528
38717W        W10977  19.674  18.837  13.938
38718W        W10978  13.974  30.110   4.215
38719W        W10979  21.723   2.271   2.161
38720W        W10980   6.493  11.158   3.709
38721W        W10981  28.372  20.546  12.881
38722W        W10982  38.934   0.457  10.887
38723W        W10983  32.197  27.100   3.634
38724W        W10984  37.505   3.587  13.434
38725W        W10985  44.193  23.209  11.602
38726W        W10986  26.157  20.065  10.663
38727W        W10987  40.376  20.843   3.704
38728W        W10988  22.318  18.314  11.965
38729W        W10989  43.507  27.298   0.838
38730W        W10990  33.519  39.014   2.957
38731W        W10991   5.777   6.917  11.464
38732W        W10992  30.840  16.184  13.295
38733W        W10993  36.653  29.063  12.528
38734W        W10994  15.144  17.728  11.924
38735W        W10995  27.876  11.142  13.392
38736W        W10996  34.043  36.621  14.849
38737W        W10997  30.133  11.732  14.003
38738W        W10998  25.245  44.965  14.493
38739W        W10999  31.108  34.861  11.606
38740W        W11000  34.837   0.924   4.655
38741W        W11001  18.602  14.768   1.332
38742W        W11002   3.665  33.792  13.798
38743W        W11003   0.993  39.378  11.465
38744W        W11004   2.248  22.083  12.650
38745W        W11005  17.626  38.278  12.128
38746W        W11006  34.007  34.024  14.823
38747W        W11007   7.483  10.146  12.960
38748W        W11008  38.962  12.005  13.020
38749W        W11009  31.782  31.458   2.767
38750W        W11010   2.762  29.038  13.038
38751W        W11011  22.320  34.917  14.933
38752W        W11012   8.940   3.301  13.246
38753W        W11013   9.646  28.038  13.298
38754W        W11014  23.115  27.199  11.314
38755W        W11015  18.674  20.010   0.947
38756W        W11016  33.449  18.065  12.539
38757W        W11017   7.174  42.867  12.508
38758W        W11018  33.408  39.576   0.813
38759W        W11019  30.187  16.169  12.438
38760W        W11020   8.194  32.099   0.338
38761W        W11021  11.955  26.462   3.199
38762W        W11022  39.004  15.265   1.954
38763W        W11023  12.794  23.998  13.393
38764W        W11024  20.823  21.617  13.937
38765W        W11025  44.467   8.249   4.265
38766W        W11026   8.943   8.279   0.208
38767W        W11027  27.877   8.681   3.741
38768W        W11028  44.583  23.042  13.124
38769W        W11029   8.292  25.025  13.390
38770W        W11030  28.930  33.432   4.086
38771W        W11031  10.277   5.336   5.021
38772W        W11032  42.050   1.750  10.254
38773W        W11033   8.845  39.472   1.035
38774W        W11034   8.875  37.406   3.941
38775W        W11035  29.105  14.248  10.662
38776W        W11036   4.222  26.130   2.550
38777W        W11037  30.121  29.087   5.051
38778W        W11038   0.535   4.593   4.069
38779W        W11039  33.066  10.578  10.654
38780W        W11040  43.247   4.080   0.477
38781W        W11041  28.903  15.268   2.653
38782W        W11042   0.349  19.972  12.780
38783W        W11043  29.080  15.202   2.179
38784W        W11044  37.156  42.636  10.388
38785W        W11045  32.177  20.205   1.413
38786W        W11046  36.430  32.135  13.453
38787W        W11047  29.552  27.471   1.241
38788W        W11048   0.173  28.944   0.736
38789W        W11049  17.301   6.138   1.987
38790W        W11050  23.136  14.818  13.721
38791W        W11051   3.856  44.263  10.386
38792W        W11052  43.603  23.405  13.996
38793W        W11053  22.412  39.787  10.783
38794W        W11054   2.315  32.449  13.153
38795W        W11055  13.718  38.308  11.859
38796W        W11056  31.677  40.613   2.626
38797W        W11057  23.230   2.324   4.010
38798W        W11058   1.230  21.158   3.581
38799W        W11059  29.600  19.498  14.545
38800W        W11060  21.025  30.539  12.669
38801W        W11061  11.319  38.936  14.770
38802W        W11062  37.837  10.574   4.290
38803W        W11063  12.554  32.902   0.737
38804W        W11064  10.541  15.876   2.200
38805W        W11065  17.784  15.073  12.914
38806W        W11066  29.039  32.368   0.815
38807W        W11067  12.793  20.402   4.545
38808W        W11068  33.717  28.468  13.900
38809W        W11069  14.258  22.065   2.532
38810W        W11070  18.994  13.551  11.975
38811W        W11071   1.797  23.511   0.269
38812W        W11072  21.734  24.830   0.315
38813W        W11073  23.897   8.955   4.377
38814W        W11074  22.774   0.457  11.590
38815W        W11075  24.930  39.236  11.762
38816W        W11076  22.469   6.375  10.919
38817W        W11077  31.357  40.696  12.977
38818W        W11078  38.340  24.296  11.083
38819W        W11079  35.874  13.652  14.100
38820W        W11080   4.898  22.070  10.770
38821W        W11081   6.241  20.022  11.930
38822W        W11082  38.798  28.323   0.521
38823W        W11083  22.960  18.829  14.896
38824W        W11084  23.319  18.860  11.020
38825W        W11085  38.990  14.197  11.539
38826W        W11086   0.546   7.941  11.628
38827W        W11087  24.630  39.795   9.770
38828W        W11088  17.087  33.459   4.785
38829W        W11089   2.195  18.025  13.414
38830W        W11090  39.032  20.163  13.807
38831W        W11091  37.882  11.113   4.988
38832W        W11092  25.046  17.252   2.763
38833W        W11093   9.970  27.406   0.820
38834W        W11094  35.574  42.056  11.487
38835W        W11095  14.692  17.737  12.200
38836W        W11096  38.565  10.224   3.325
38837W        W11097  11.977   2.439   4.996
38838W        W11098   5.811  14.532   0.836
38839W        W11099  42.330  21.783   4.367
38840W        W11100   4.177  26.305   3.484
38841W        W11101  20.822  19.098  10.676
38842W        W11102  36.774   9.355  13.420
38843W        W11103  13.270  39.091   9.988
38844W        W11104  41.279   4.268  14.336
38845W        W11105   6.771  18.135   0.872
38846W        W11106  13.358  25.956   4.533
38847W        W11107  32.910  11.545   0.361
38848W        W11108  34.141  31.504   4.058
38849W        W11109  17.014   2.980  10.926
38850W        W11110  31.018   3.224   0.397
38851W        W11111  12.163  14.663  14.791
38852W        W11112  31.389  21.999   1.164
38853W        W11113  21.649  22.097  13.478
38854W        W11114  29.511  38.861  13.546
38855W        W11115  13.974  24.203   1.263
38856W        W11116  35.960   7.918   1.896
38857W        W11117   3.936  17.670  12.405
38858W        W11118  31.215  17.724   2.108
38859W        W11119  41.061  38.586  14.416
38860W        W11120  13.639   6.931  10.754
38861W        W11121   3.257  12.915   0.711
38862W        W11122  10.867  42.425  11.158
38863W        W11123  21.809   7.198   2.631
38864W        W11124  20.931  18.064  11.554
38865W        W11125  11.180  26.564  13.572
38866W        W11126  33.893  15.342  14.873
38867W        W11127  13.563   0.889   4.871
38868W        W11128  27.165  12.643  11.731
38869W        W11129  12.378   2.257  11.153
38870W        W11130  41.368  43.165   9.917
38871W        W11131  31.630  13.918   1.234
38872W        W11132  29.516  39.910  10.615
38873W        W11133   2.736  42.913  10.529
38874W        W11134  20.287  32.503   0.479
38875W        W11135  30.731  42.409  12.932
38876W        W11136  11.141   2.481  14.070
38877W        W11137   0.892  28.759  12.932
38878W        W11138  38.963  13.632   3.831
38879W        W11139  22.053  12.919   2.819
38880W        W11140  18.686  13.851  11.125
38881W        W11141   7.431   2.681   2.914
38882W        W11142  25.061  37.875   3.068
38883W        W11143  22.761  25.555   1.847
38884W        W11144  20.996   3.013  13.420
38885W        W11145  12.251  15.581   0.380
38886W        W11146  41.598  40.458  14.868
38887W        W11147  24.118  30.175  14.448
38888W        W11148  44.353  19.184   0.260
38889W        W11149   6.627  21.580  11.851
38890W        W11150  31.992  32.303  14.491
38891W        W11151  16.064  18.786   4.169
38892W        W11152   3.897  13.263   3.372
38893W        W11153   2.859  17.523   4.535
38894W        W11154   4.805  11.862   2.836
38895W        W11155  13.785  21.169  11.217
38896W        W11156  44.085  30.117   2.299
38897W        W11157   9.377  17.774   4.590
38898W        W11158   2.691  13.436   3.510
38899W        W11159  44.985  33.825   2.692
38900W        W11160   3.440  36.635  11.761
38901W        W11161  23.420  29.033  14.371
38902W        W11162  18.048  17.247   4.056
38903W        W11163  33.137  26.682   2.684
38904W        W11164  10.160   5.245   1.795
38905W        W11165  16.245  31.913  14.867
38906W        W11166   3.311  17.717   1.231
38907W        W11167  17.819  19.725  13.824
38908W        W11168  24.148  25.561  13.042
38909W        W11169  22.362  43.222  12.416
38910W        W11170  37.030   4.394  13.450
38911W        W11171  22.063  20.734  10.699
38912W        W11172   8.914  25.775   5.041
38913W        W11173   4.741  41.315  13.461
38914W        W11174  10.220  12.608  14.305
38915W        W11175  30.963  32.085  14.384
38916W        W11176  34.515  30.583   4.495
38917W        W11177  32.571   1.184   1.998
38918W        W11178   0.256  16.988   0.227
38919W        W11179  34.835  29.500   4.247
38920W        W11180  12.505  19.205  12.366
38921W        W11181  15.412  11.747   0.843
38922W        W11182  11.410  28.421   4.144
38923W        W11183  39.286   8.581  12.915
38924W        W11184   3.981  14.803   4.899
38925W        W11185   5.023  25.660   5.579
38926W        W11186  16.058   1.481   0.807
38927W        W11187   5.634  13.602   2.372
38928W        W11188  38.760  12.490  10.002
38929W        W11189  43.003  43.397  14.910
38930W        W11190   7.490   2.891  12.488
38931W        W11191  33.135   5.852  13.278
38932W        W11192   3.394  44.316  10.674
38933W        W11193   7.689  33.794  14.264
38934W        W11194   6.819  35.990  12.376
38935W        W11195   3.680  38.097   3.847
38936W        W11196  22.106  14.290   3.377
38937W        W11197   8.898  41.324  14.907
38938W        W11198  13.123  24.509   0.293
38939W        W11199   3.702   4.925   1.285
38940W        W11200  28.919   6.621   0.736
38941W        W11201   7.960   3.628   9.709
38942W        W11202  22.665  11.231   2.888
38943W        W11203   8.547  43.182   5.033
38944W        W11204  40.343   9.886  13.306
38945W        W11205  22.968  16.071   0.850
38946W        W11206  26.053  21.441  13.451
38947W        W11207   3.656  16.074  12.589
38948W        W11208  34.145  19.258  14.793
38949W        W11209   0.371   8.729   4.165
38950W        W11210   3.887  33.085   2.266
38951W        W11211  35.876  17.303  13.392
38952W        W11212  22.645  14.565   2.666
38953W        W11213  15.970  23.016  12.404
38954W        W11214  26.744  32.434  14.330
38955W        W11215  28.688   1.695   2.341
38956W        W11216  13.856  27.162   5.568
38957W        W11217  23.434  11.303  10.766
38958W        W11218  19.278  16.066   0.702
38959W        W11219  40.262  44.594  12.030
38960W        W11220  31.601  10.111  10.014
38961W        W11221   1.804  12.614  12.586
38962W        W11222   0.337  25.624   4.717
38963W        W11223  21.703  20.764  14.532
38964W        W11224  42.287  38.911  11.699
38965W        W11225  19.096  41.829  11.975
38966W        W11226  20.824  24.724  10.768
38967W        W11227  39.781  26.085  13.328
38968W        W11228  33.032   6.862   4.932
38969W        W11229  36.343  11.377   3.196
38970W        W11230  27.131   1.145   4.587
38971W        W11231   4.968  26.162   0.668
38972W        W11232  14.198  35.424   1.237
38973W        W11233   3.262  12.176   3.881
38974W        W11234  36.813  24.152   4.040
38975W        W11235   3.743  39.374   4.104
38976W        W11236  35.350  25.507  10.704
38977W        W11237  18.343  10.548   3.334
38978W        W11238  26.546  19.782   3.176
38979W        W11239   5.299  35.347   3.285
38980W        W11240  26.729  38.526   9.947
38981W        W11241  23.717  41.212  12.489
38982W        W11242   8.116  38.763  14.526
38983W        W11243   5.768  13.149   0.838
38984W        W11244  23.298   5.716   3.760
38985W        W11245  44.415  33.392   0.455
38986W        W11246  11.131  39.874  14.924
38987W        W11247  40.157  24.157   1.248
38988W        W11248   0.866  23.423   3.772
38989W        W11249  21.556  43.956  14.394
38990W        W11250  35.269  13.194   4.151
38991W        W11251   5.426   5.887  12.511
38992W        W11252  12.834  20.156  14.501
38993W        W11253  22.455  22.133   4.992
38994W        W11254  32.687  28.790  13.541
38995W        W11255  17.656  44.543   1.251
38996W        W11256  44.337  25.239   0.376
38997W        W11257   7.363  27.463  11.051
38998W        W11258  22.233  25.157  10.123
38999W        W11259  13.656   5.281  13.606
39000W        W11260  10.722   8.678   3.656
39001W        W11261  27.750  21.658  12.208
39002W        W11262  42.232  38.378   2.258
39003W        W11263   0.053  29.506  12.358
39004W        W11264  31.617  25.530  11.633
39005W        W11265  15.134  29.231   5.404
39006W        W11266   5.461   8.351  11.023
39007W        W11267  10.799  28.052   4.669
39008W        W11268  10.083  28.434   4.603
39009W        W11269  40.708  30.625   4.264
39010W        W11270  17.885  37.374   2.642
39011W        W11271  27.908  14.140  12.392
39012W        W11272  21.569  14.187   1.348
39013W        W11273  19.538   3.601   2.240
39014W        W11274  41.027  42.567   2.368
39015W        W11275   7.682  16.786  13.143
39016W        W11276  23.726  20.712   4.337
39017W        W11277  28.427  15.611   0.274
39018W        W11278  12.213  12.266  13.427
39019W        W11279   8.589   4.481  11.974
39020W        W11280  39.885   1.026   1.800
39021W        W11281  21.998  29.922   3.342
39022W        W11282   0.321  32.944  12.828
39023W        W11283  44.377  19.825  14.403
39024W        W11284  23.508  30.908   4.553
39025W        W11285  32.880  44.674   2.587
39026W        W11286  40.054  13.082   1.862
39027W        W11287  36.670  28.117  11.461
39028W        W11288  39.635  15.600  13.848
39029W        W11289  35.904  33.993   3.137
39030W        W11290  31.903  44.311   1.170
39031W        W11291  37.374  22.468  13.492
39032W        W11292  19.083  15.139  12.148
39033W        W11293  28.890  24.055  13.944
39034W        W11294  15.141  39.089  11.058
39035W        W11295  34.875  19.322   2.292
39036W        W11296  30.984  37.290  11.601
39037W        W11297   9.422   5.820  10.488
39038W        W11298  32.947  25.592  11.914
39039W        W11299  43.022  42.591  12.170
39040W        W11300  26.582  44.935   0.263
39041W        W11301  37.807   3.873  14.992
39042W        W11302  39.032  25.697   3.169
39043W        W11303  26.664  37.575  14.251
39044W        W11304  21.662   4.006  11.489
39045W        W11305  13.745  37.909  14.521
39046W        W11306  23.663   4.765   4.639
39047W        W11307  25.223  31.407  14.351
39048W        W11308   5.112  10.818  12.566
39049W        W11309  22.420  32.558   0.387
39050W        W11310  44.844  37.152   0.180
39051W        W11311  13.090  27.524  10.192
39052W        W11312   5.370   9.468  14.556
39053W        W11313  26.425  20.771  13.021
39054W        W11314  14.948  40.201   2.239
39055W        W11315  12.582  11.447  12.410
39056W        W11316  27.907   0.334   4.462
39057W        W11317  21.650   6.502  13.916
39058W        W11318  39.520  41.865  11.875
39059W        W11319  16.443  17.092  11.946
39060W        W11320  35.573  30.547   3.466
39061W        W11321   5.060  40.812   4.899
39062W        W11322   6.969   8.343  11.718
39063W        W11323   6.959  17.017   3.391
39064W        W11324  22.465   0.893   2.798
39065W        W11325  39.312  18.217  13.403
39066W        W11326  35.026  19.784   3.391
39067W        W11327   1.283  12.906   3.192
39068W        W11328  24.956   1.373   3.564
39069W        W11329  43.863  27.082  11.569
39070W        W11330  13.282  25.273   0.586
39071W        W11331  42.276  19.683   5.167
39072W        W11332  30.351  23.653   2.752
39073W        W11333  23.118  17.384  12.567
39074W        W11334  18.433  11.833   3.692
39075W        W11335  21.791  26.167  10.615
39076W        W11336  24.008   0.147  10.158
39077W        W11337  36.884  24.641  13.312
39078W        W11338  15.535  38.138   1.955
39079W        W11339  29.193   1.696   2.426
39080W        W11340   4.218  43.389  11.546
39081W        W11341  41.156  18.340   1.666
39082W        W11342  19.138  17.612  10.674
39083W        W11343  27.186  27.999   2.316
39084W        W11344   1.739  23.298   2.795
39085W        W11345   2.952  35.680  14.467
39086W        W11346  26.965   3.510   1.754
39087W        W11347  28.885  10.414   3.807
39088W        W11348  31.207  32.029  13.451
39089W        W11349  42.789   6.209  14.486
39090W        W11350  15.659  37.518   0.524
39091W        W11351  20.142  21.061  10.612
39092W        W11352  40.576   6.494   2.096
39093W        W11353  11.316  12.701   0.327
39094W        W11354  34.433  37.875  14.908
39095W        W11355   7.220  37.820   3.118
39096W        W11356  29.244  16.839   2.444
39097W        W11357  23.563  24.920  12.617
39098W        W11358  17.842  16.163  10.452
39099W        W11359  41.340  25.223   2.245
39100W        W11360  39.756   7.971   0.735
39101W        W11361   0.720   8.457   3.826
39102W        W11362  38.802  15.225   0.943
39103W        W11363  33.474   3.480  14.731
39104W        W11364  38.508   3.693  12.340
39105W        W11365  13.151  13.699   3.233
39106W        W11366  43.786  17.169  10.583
39107W        W11367  31.646  13.714  11.078
39108W        W11368   3.521  33.017  12.123
39109W        W11369  12.096  36.030   2.640
39110W        W11370  22.920   7.780   5.497
39111W        W11371  38.404  22.931  10.697
39112W        W11372  30.675  39.946  14.006
39113W        W11373  31.200  14.705   4.362
39114W        W11374  14.922  37.462   1.869
39115W        W11375   3.340  42.897  13.941
39116W        W11376  24.608  27.576  12.631
39117W        W11377  42.323  37.582   3.826
39118W        W11378  33.153  10.718   1.143
39119W        W11379   4.908   0.119  13.516
39120W        W11380  16.552  39.578   3.871
39121W        W11381   6.281   3.250  11.946
39122W        W11382   7.532  19.308  14.156
39123W        W11383  42.324  14.627   0.424
39124W        W11384  32.984  34.653   1.143
39125W        W11385  30.090  13.095  12.131
39126W        W11386  32.681  28.990  12.169
39127W        W11387  10.646  27.863   3.227
39128W        W11388  10.769  23.760   4.422
39129W        W11389  35.512  44.325   3.332
39130W        W11390  19.571   5.414   4.017
39131W        W11391  40.533  29.586  11.050
39132W        W11392  25.517  39.574   1.283
39133W        W11393  23.474  11.082   3.396
39134W        W11394  17.593  16.724   3.583
39135W        W11395  44.735  44.484  12.197
39136W        W11396   1.900  27.542   2.873
39137W        W11397   2.945  44.350  12.078
39138W        W11398  32.535  28.424   2.859
39139W        W11399   0.456  19.149   0.927
39140W        W11400  14.208   8.778   5.075
39141W        W11401  40.777  24.268   4.258
39142W        W11402  10.079  42.030  14.025
39143W        W11403  30.566  36.024  13.034
39144W        W11404   2.324  31.368   3.251
39145W        W11405  10.847  23.262   4.462
39146W        W11406   7.913   3.918  11.452
39147W        W11407  22.171  16.677   3.136
39148W        W11408  12.597  16.727  12.604
39149W        W11409  20.722  10.457  10.988
39150W        W11410  17.201  26.983  11.555
39151W        W11411   0.760  16.263  12.474
39152W        W11412  22.116  26.066  12.499
39153W        W11413   0.379  20.487  11.501
39154W        W11414  25.036  31.524  12.884
39155W        W11415  17.268  34.634  14.905
39156W        W11416  13.331  39.822   1.892
39157W        W11417  17.721   3.909  14.732
39158W        W11418  16.968  15.490  10.228
39159W        W11419  17.286  22.182   4.375
39160W        W11420  13.305  21.624   4.703
39161W        W11421  16.695  35.196   0.944
39162W        W11422  42.737   7.976  11.205
39163W        W11423  10.350  40.062  12.582
39164W        W11424  21.230   3.228  12.124
39165W        W11425  32.441  27.004  10.443
39166W        W11426   6.855  44.448   0.467
39167W        W11427  22.103   4.738   2.333
39168W        W11428   7.293  39.340  12.915
39169W        W11429  42.859   3.243  14.348
39170W        W11430   5.236  15.847  14.726
39171W        W11431  41.670  33.008   4.209
39172W        W11432  17.368  12.650   4.146
39173W        W11433  32.898   2.267   4.729
39174W        W11434  21.931  33.887   2.531
39175W        W11435  34.395  20.503  11.960
39176W        W11436   9.373  34.325   1.636
39177W        W11437  20.461  21.975   0.996
39178W        W11438  42.086  21.712   3.775
39179W        W11439  16.762  10.630   1.775
39180W        W11440  27.702  35.855   3.150
39181W        W11441  12.889   8.423  12.082
39182W        W11442  10.184  37.894   3.808
39183W        W11443   9.690  40.761   2.788
39184W        W11444  37.078  44.772  12.402
39185W        W11445  23.110  30.447  11.557
39186W        W11446   8.272  40.252  14.740
39187W        W11447  35.465  14.429  10.643
39188W        W11448  23.423  30.115   2.929
39189W        W11449  41.066  12.091  13.436
39190W        W11450  44.489   6.396  12.011
39191W        W11451  42.954  41.572   5.043
39192W        W11452  24.287  23.697   3.741
39193W        W11453   5.709   7.829   3.646
39194W        W11454  34.423   4.864   2.244
39195W        W11455  11.394   8.596   2.129
39196W        W11456  28.159  12.364   1.256
39197W        W11457  33.031  31.665   0.289
39198W        W11458  20.559  19.323   2.267
39199W        W11459  37.839   3.798   4.132
39200W        W11460  39.094  14.778  14.961
39201W        W11461   9.859  21.003  12.352
39202W        W11462  39.099  41.180  11.981
39203W        W11463  43.960  34.660   4.118
39204W        W11464  23.012  20.642   1.995
39205W        W11465  40.329  42.684  14.217
39206W        W11466  44.484  36.916  11.101
39207W        W11467   6.952  44.429   2.904
39208W        W11468  32.876  26.763  13.903
39209W        W11469  36.381  42.296   4.785
39210W        W11470  32.985  33.183  12.219
39211W        W11471  20.588  23.460  11.338
39212W        W11472  44.671  25.282   1.787
39213W        W11473  33.363   5.145  10.635
39214W        W11474   9.107  15.007   0.813
39215W        W11475  26.506  16.500   2.284
39216W        W11476  15.513  30.824   3.242
39217W        W11477  38.429  22.059   0.842
39218W        W11478   9.304  27.675   3.542
39219W        W11479  20.872  27.509  12.421
39220W        W11480  41.594  10.243   0.375
39221W        W11481  32.671  43.234   2.221
39222W        W11482  10.434   6.222  13.371
39223W        W11483   7.986  29.777   2.873
39224W        W11484   8.120   9.768  11.683
39225W        W11485   2.528   5.833  14.257
39226W        W11486   5.877  17.926  11.561
39227W        W11487  16.874  13.871   4.155
39228W        W11488  12.174  20.717  10.595
39229W        W11489   8.172   6.820  13.393
39230W        W11490  14.551  18.527  12.136
39231W        W11491   8.856   4.118   3.677
39232W        W11492  44.505  27.927  10.450
39233W        W11493  28.940  43.979  13.356
39234W        W11494  17.666  41.348  10.897
39235W        W11495   7.942  22.748   3.680
39236W        W11496  31.730  34.460   2.390
39237W        W11497  34.521  16.575   0.418
39238W        W11498   7.211   9.147  10.725
39239W        W11499  41.705  25.099  13.518
39240W        W11500   9.174  11.651  12.416
39241W        W11501   9.380  21.206  12.451
39242W        W11502  10.686  38.413   2.396
39243W        W11503  36.064  27.661  14.973
39244W        W11504   7.575  44.386   1.774
39245W        W11505   1.193  37.208   4.214
39246W        W11506  32.796  12.884   3.226
39247W        W11507  21.650  17.308  14.855
39248W        W11508  31.717  15.994   0.272
39249W        W11509  12.926  25.602   3.879
39250W        W11510  14.952  11.517   0.789
39251W        W11511  16.326   5.258  14.024
39252W        W11512  37.928   6.457  12.497
39253W        W11513   4.347  13.786   2.650
39254W        W11514  40.674   1.509   2.219
39255W        W11515   4.374   2.564   4.559
39256W        W11516   1.975  29.563  11.078
39257W        W11517   7.895   1.403  13.012
39258W        W11518  31.110  16.109  11.094
39259W        W11519  27.830   9.262  14.460
39260W        W11520  25.661  22.125  14.410
39261W        W11521  26.042  15.645   1.272
39262W        W11522  20.622  36.910  11.565
39263W        W11523  28.900  43.724   3.311
39264W        W11524  24.665  40.685  12.442
39265W        W11525  16.560  22.448  14.173
39266W        W11526  12.945  11.174   9.719
39267W        W11527   5.661  30.223  10.225
39268W        W11528  11.804   5.745   1.651
39269W        W11529  11.281  11.401  10.822
39270W        W11530  39.862   4.670  13.243
39271W        W11531  42.402  23.245  12.971
39272W        W11532  24.899   2.674  14.842
39273W        W11533  43.411  36.490   2.399
39274W        W11534   3.518   6.169  14.447
39275W        W11535  11.683  37.030  11.942
39276W        W11536  13.241  21.138  11.160
39277W        W11537  27.523  39.856  14.122
39278W        W11538  12.102  21.776   0.908
39279W        W11539  37.736   6.428   1.046
39280W        W11540  42.249  10.745  10.540
39281W        W11541  18.690  18.512  14.688
39282W        W11542  31.951  30.484  10.696
39283W        W11543   7.231   6.312   1.819
39284W        W11544  30.826   8.922   0.803
39285W        W11545  38.614   8.742  14.381
39286W        W11546  30.957   9.489   0.717
39287W        W11547  16.033  44.415  11.093
39288W        W11548  23.666  34.941   2.251
39289W        W11549  24.132  43.075   3.244
39290W        W11550  17.015  44.241  10.982
39291W        W11551  30.157  15.815   4.506
39292W        W11552   1.917   5.540  12.957
39293W        W11553  34.748  28.607  14.713
39294W        W11554  44.943  21.248  11.251
39295W        W11555  37.958  30.074   0.050
39296W        W11556  30.958  30.881  13.865
39297W        W11557  35.803   5.345   1.449
39298W        W11558  10.859  39.580  10.877
39299W        W11559  20.800  16.899   1.500
39300W        W11560   5.787  32.337   2.041
39301W        W11561  29.821  25.997   0.172
39302W        W11562   6.167  28.959  14.974
39303W        W11563  39.347   1.941  13.442
39304W        W11564  34.301  38.022   3.135
39305W        W11565  11.685  23.031   1.408
39306W        W11566  17.057  36.150   4.073
39307W        W11567  26.321   3.736   2.257
39308W        W11568  23.521  33.069   0.861
39309W        W11569   8.246  18.060  12.013
39310W        W11570  40.001  12.318  14.899
39311W        W11571  35.470  28.479   2.491
39312W        W11572  19.481  17.764   3.612
39313W        W11573  39.772  20.281   1.628
39314W        W11574  34.500  18.777   5.453
39315W        W11575  30.352  16.396  13.316
39316W        W11576  33.797  21.201  11.974
39317W        W11577  18.665  33.060  13.838
39318W        W11578  16.877  14.315  11.023
39319W        W11579   2.785  25.685   0.731
39320W        W11580  13.412  23.678   3.341
39321W        W11581  42.413  11.597   4.481
39322W        W11582   2.806  23.392  13.808
39323W        W11583  37.387   0.844  11.558
39324W        W11584  31.457  20.237   1.799
39325W        W11585   1.370   3.283  13.993
39326W        W11586  38.449   0.731   4.576
39327W        W11587  43.468   5.448  13.538
39328W        W11588  18.422   7.715   2.086
39329W        W11589  42.770  12.862  14.112
39330W        W11590  22.034  36.576   2.780
39331W        W11591   5.824  13.293   3.844
39332W        W11592  19.802   7.693  14.258
39333W        W11593  36.380   5.846   4.120
39334W        W11594  19.565  20.744   1.472
39335W        W11595  19.587  21.240  12.312
39336W        W11596  34.046  33.201  13.323
39337W        W11597  44.721  19.252  13.009
39338W        W11598   1.953  10.780  12.508
39339W        W11599  19.685  31.060   4.606
39340W        W11600  11.640  20.439   3.409
39341W        W11601  30.558   5.877   0.450
39342W        W11602  33.429  40.800  13.428
39343W        W11603   3.726  34.623   4.630
39344W        W11604  23.093  25.464   9.788
39345W        W11605   1.477  14.443  12.618
39346W        W11606   1.452  14.634  14.468
39347W        W11607   7.378   5.025   4.511
39348W        W11608   8.819  12.277   2.983
39349W        W11609   4.907  17.991   2.776
39350W        W11610   8.996  22.619  12.378
39351W        W11611  35.566  14.168  14.742
39352W        W11612  33.640   7.119  13.344
39353W        W11613  36.835  40.774   4.900
39354W        W11614  27.534   3.867  12.381
39355W        W11615  10.166  36.603   3.849
39356W        W11616  25.738   6.848   4.577
39357W        W11617  23.968  36.095   4.151
39358W        W11618  27.741  19.520  12.917
39359W        W11619  22.046   9.834  10.732
39360W        W11620  33.414   9.604   2.841
39361W        W11621  35.076  44.979  11.915
39362W        W11622  25.475  38.852   4.852
39363W        W11623  39.018  41.358   4.882
39364W        W11624  29.639  11.818  10.664
39365W        W11625  40.457   8.392   1.460
39366W        W11626  12.045  24.693  11.396
39367W        W11627   2.722  36.577  12.354
39368W        W11628  21.649  40.351  12.426
39369W        W11629  32.297   2.349   4.674
39370W        W11630   6.234  33.659  13.286
39371W        W11631  14.627  28.143   2.660
39372W        W11632   6.238   5.495   4.837
39373W        W11633  24.575   2.226  13.081
39374W        W11634  37.741  15.174   0.986
39375W        W11635  10.763  30.182   3.849
39376W        W11636   9.838  16.323   4.486
39377W        W11637   0.451   6.324   2.813
39378W        W11638  27.706  40.276  10.184
39379W        W11639   7.087   6.812  10.901
39380W        W11640  37.797  24.351   5.075
39381W        W11641  12.230   9.166  14.656
39382W        W11642  21.234  43.012  12.830
39383W        W11643   5.037   0.678  13.869
39384W        W11644   9.254  33.704  12.531
39385W        W11645   0.369  30.247  13.372
39386W        W11646  32.216  16.196  11.426
39387W        W11647  25.063   4.179   4.047
39388W        W11648  13.744  36.446   2.672
39389W        W11649  43.691  35.996   2.069
39390W        W11650  17.221  41.093   9.972
39391W        W11651  35.865   0.748   3.764
39392W        W11652  18.500  34.968   1.697
39393W        W11653  17.400  44.417  10.054
39394W        W11654  11.736  25.572   1.687
39395W        W11655  32.025  44.416   3.609
39396W        W11656  38.534  22.953  13.307
39397W        W11657  42.459   3.796  13.620
39398W        W11658  22.736   2.242  10.922
39399W        W11659  36.508   7.151   0.898
39400W        W11660  38.078   3.402   3.146
39401W        W11661  35.149  31.513  10.953
39402W        W11662  44.078  24.673   3.816
39403W        W11663  11.217  44.510   3.254
39404W        W11664  18.826  13.381  13.029
39405W        W11665  13.373  17.303  12.422
39406W        W11666  29.552  11.111   2.237
39407W        W11667  14.815  27.357   5.047
39408W        W11668  18.552   6.899   3.427
39409W        W11669  29.870  20.562  13.192
39410W        W11670  13.609  10.333  13.470
39411W        W11671  10.153   0.787   3.389
39412W        W11672   2.530   7.887   0.779
39413W        W11673  24.083  39.771  13.581
39414W        W11674  32.312  16.535   3.252
39415W        W11675  26.649  27.918   0.977
39416W        W11676  33.228  21.911   4.645
39417W        W11677   3.723  27.392   2.873
39418W        W11678  10.599  32.053  13.416
39419W        W11679  10.169  33.447   0.213
39420W        W11680  32.012  20.520   4.576
39421W        W11681  18.413  15.154   0.130
39422W        W11682  28.148  29.870   4.169
39423W        W11683  41.466   2.278   0.222
39424W        W11684   5.493  38.369  10.637
39425W        W11685  13.248  33.938  13.384
39426W        W11686   8.670  20.513  14.836
39427W        W11687  25.875   5.430  12.976
39428W        W11688  33.144  34.157  13.481
39429W        W11689  41.453   7.652  11.541
39430W        W11690  19.799  38.796   3.677
39431W        W11691   5.290  12.845  12.554
39432W        W11692  42.964  10.788  11.619
39433W        W11693  41.127  35.424   4.679
39434W        W11694  43.917  23.677   1.896
39435W        W11695   0.757   4.850   0.486
39436W        W11696  13.221   5.644   4.122
39437W        W11697   0.160  21.685   0.752
39438W        W11698   3.878  27.133  11.881
39439W        W11699  16.134  36.464  12.579
39440W        W11700  33.656  30.655  13.635
39441W        W11701   3.447  20.291   2.402
39442W        W11702  40.155  41.962   2.011
39443W        W11703   8.589   6.876  12.570
39444W        W11704  40.435  37.849   2.376
39445W        W11705  40.016  13.765   2.368
39446W        W11706  40.996  41.261   3.429
39447W        W11707  39.582  25.001   2.097
39448W        W11708  44.355  39.700  10.430
39449W        W11709   6.796  18.498  13.459
39450W        W11710  12.486  21.099  12.462
39451W        W11711  20.549  20.619  10.576
39452W        W11712  37.327  31.148  12.147
39453W        W11713   3.309   8.631  13.934
39454W        W11714  34.041  22.763  11.138
39455W        W11715  10.325  24.608  11.520
39456W        W11716   0.222  30.588   2.454
39457W        W11717  32.556  13.298  14.117
39458W        W11718  16.206  28.198   2.927
39459W        W11719  41.889  18.254   4.650
39460W        W11720  20.213  43.530  12.945
39461W        W11721  30.849  37.969  11.310
39462W        W11722  11.364  32.646  10.570
39463W        W11723  39.113   5.887  13.536
39464W        W11724  19.982  10.349   4.197
39465W        W11725  27.108  23.262   4.217
39466W        W11726  11.304  29.738   4.500
39467W        W11727   8.797  37.092  11.322
39468W        W11728  31.220  31.154  14.336
39469W        W11729  37.875  33.159  11.546
39470W        W11730  31.915  37.444  10.639
39471W        W11731  28.042  32.803  11.552
39472W        W11732   4.306  17.260  14.145
39473W        W11733  39.751  42.595   3.828
39474W        W11734  16.983  34.792  10.754
39475W        W11735  23.693   9.399  14.870
39476W        W11736   8.454  37.614  13.293
39477W        W11737  25.525  18.077   0.617
39478W        W11738  24.025   7.892   4.190
39479W        W11739  28.204  35.667   0.285
39480W        W11740   8.669  44.897   4.225
39481W        W11741  37.301  14.747   5.039
39482W        W11742  22.272  13.688  13.714
39483W        W11743  42.300  20.138   0.432
39484W        W11744   2.290  31.971  14.917
39485W        W11745   7.137  21.043  14.632
39486W        W11746  15.281  16.740   1.695
39487W        W11747   5.988   8.286  11.237
39488W        W11748  16.053  11.227   2.901
39489W        W11749  19.744  25.817  14.973
39490W        W11750   6.227   6.158  14.897
39491W        W11751   8.793  43.681  14.325
39492W        W11752  16.200  36.478   3.254
39493W        W11753   0.649  13.923   1.322
39494W        W11754  42.414  24.032  14.983
39495W        W11755  40.940  13.421   0.243
39496W        W11756  32.479  23.661   3.267
39497W        W11757   6.948  13.698  14.475
39498W        W11758  35.845  23.673  11.175
39499W        W11759  37.304  38.381  14.030
39500W        W11760  22.464  43.939  13.369
39501W        W11761   8.392   6.522   2.192
39502W        W11762   2.232  31.965  12.932
39503W        W11763   2.620   9.338   3.153
39504W        W11764  11.039  29.424   3.632
39505W        W11765   7.723  44.926  11.183
39506W        W11766  12.113  31.056   1.810
39507W        W11767  23.166  41.983   3.334
39508W        W11768  12.583  30.442  10.192
39509W        W11769  43.012  34.122  11.097
39510W        W11770  35.959   2.163  13.838
39511W        W11771  13.554  40.692   4.341
39512W        W11772  13.373  44.267  12.572
39513W        W11773  16.966  17.751  14.275
39514W        W11774  24.682   4.312   1.905
39515W        W11775   8.148  39.583  12.056
39516W        W11776  43.393  26.088   3.175
39517W        W11777   3.296  43.541  12.525
39518W        W11778  36.011  26.221   4.548
39519W        W11779  21.689  36.180   2.534
39520W        W11780  23.427  40.134  14.476
39521W        W11781  27.145  44.764   1.333
39522W        W11782  29.612  27.147  10.679
39523W        W11783  20.877  19.125  10.112
39524W        W11784  24.017  30.889   1.403
39525W        W11785  35.497   5.847  14.264
39526W        W11786  25.199  41.032   0.997
39527W        W11787  40.149  37.830  12.665
39528W        W11788  37.636  15.841   9.975
39529W        W11789  23.625   4.929  12.008
39530W        W11790  32.911  20.028  10.415
39531W        W11791  27.255  21.245  14.954
39532W        W11792   8.436  20.219  11.059
39533W        W11793   6.147  26.968  12.603
39534W        W11794  41.220  20.257  13.053
39535W        W11795  37.958  21.756   0.744
39536W        W11796   6.662  38.615  14.431
39537W        W11797  29.481  10.582  11.089
39538W        W11798  31.675  12.800   0.765
39539W        W11799   1.001  12.690  12.186
39540W        W11800   8.387  43.973  14.493
39541W        W11801  12.797  25.267  12.814
39542W        W11802  12.888  39.325   3.177
39543W        W11803  32.813   0.742   1.887
39544W        W11804   3.885  15.163   1.191
39545W        W11805  23.644  28.539   1.993
39546W        W11806  32.659  44.544  14.329
39547W        W11807  17.048  21.012  12.944
39548W        W11808  37.972   2.429   3.172
39549W        W11809  22.442  40.800  12.510
39550W        W11810   0.518  14.340   2.233
39551W        W11811  18.117   9.703   3.897
39552W        W11812  39.947   9.198   4.070
39553W        W11813   6.116  16.911  14.497
39554W        W11814  33.731  38.881   4.357
39555W        W11815  33.617   5.832   1.289
39556W        W11816  13.187  11.854  13.350
39557W        W11817  30.528  11.410  13.888
39558W        W11818  11.011  17.069   1.021
39559W        W11819  19.420  26.774   4.941
39560W        W11820   5.731  30.195   1.238
39561W        W11821  42.775  17.619  12.451
39562W        W11822  21.996  11.558   1.802
39563W        W11823   5.117   8.636   0.886
39564W        W11824   3.968   8.628  13.266
39565W        W11825  17.241  20.097  14.480
39566W        W11826  14.354  44.983  14.884
39567W        W11827  40.601  16.709  12.123
39568W        W11828  14.878  10.616  13.485
39569W        W11829  33.579  21.574  14.946
39570W        W11830  15.210  11.466   1.251
39571W        W11831  38.908  40.982  12.425
39572W        W11832   6.940   9.845   1.420
39573W        W11833  16.714  35.347  13.566
39574W        W11834  19.812  30.507  13.564
39575W        W11835  40.276  41.502   3.622
39576W        W11836  18.728  13.466   1.910
39577W        W11837  37.144  30.397  14.078
39578W        W11838  12.321  15.555   2.370
39579W        W11839  41.508  19.733   0.251
39580W        W11840  19.517  16.684   3.736
39581W        W11841  26.082  13.114   1.908
39582W        W11842  22.971  36.300  10.906
39583W        W11843   8.717  23.959  12.436
39584W        W11844   0.769   4.789  10.658
39585W        W11845   2.246  20.818  14.348
39586W        W11846  24.409  10.282  14.032
39587W        W11847   7.192  37.935   1.154
39588W        W11848   0.914  16.722  10.348
39589W        W11849   3.728  43.294  11.619
39590W        W11850   2.776  38.873   1.676
39591W        W11851  11.194  43.349  11.650
39592W        W11852  31.094  36.132   4.106
39593W        W11853  10.445   9.509   3.208
39594W        W11854  16.723   5.322  12.835
39595W        W11855  24.685  35.113  12.942
39596W        W11856  23.612  16.899  13.778
39597W        W11857  44.530  16.646  12.516
39598W        W11858  43.943  21.203   1.190
39599W        W11859  36.059  38.912  12.126
39600W        W11860  41.983  42.564   2.188
39601W        W11861  26.966  40.165  13.046
39602W        W11862  28.407  36.342   0.231
39603W        W11863  19.352   6.279  14.031
39604W        W11864  24.330  25.763   4.605
39605W        W11865   2.443  43.521  12.164
39606W        W11866  33.570   5.955  12.271
39607W        W11867   4.922  25.022   2.339
39608W        W11868  38.829  43.384  12.439
39609W        W11869   8.170   9.871  10.748
39610W        W11870  38.835  36.891  14.254
39611W        W11871   6.414  13.655   2.801
39612W        W11872  26.572  12.201   0.350
39613W        W11873  18.632  37.344  11.929
39614W        W11874  41.456  30.480  14.797
39615W        W11875  27.444  31.500  14.715
39616W        W11876   4.250   4.183  14.772
39617W        W11877  32.398  36.422   4.796
39618W        W11878  32.743   1.421   2.410
39619W        W11879   6.492  36.686   0.386
39620W        W11880  21.606  36.217  14.755
39621W        W11881  11.703  13.001  10.193
39622W        W11882  18.766   7.008  12.813
39623W        W11883  39.545   9.935   1.396
39624W        W11884  16.044  22.462  14.064
39625W        W11885  25.745  34.153   1.905
39626W        W11886  11.029  16.562  12.101
39627W        W11887  33.663  15.826   4.931
39628W        W11888  40.780  11.676  13.436
39629W        W11889   3.384   1.769  12.823
39630W        W11890   3.776   0.458   4.663
39631W        W11891  37.193  28.402   3.605
39632W        W11892  40.087  13.876  12.110
39633W        W11893  18.577  11.408   0.443
39634W        W11894  30.895   8.330  14.495
39635W        W11895  37.797  33.858  14.907
39636W        W11896  36.903  28.598  13.034
39637W        W11897  14.718  15.681  13.564
39638W        W11898   9.302  16.524   4.122
39639W        W11899  42.672  32.935   4.761
39640W        W11900  26.678  31.379  14.224
39641W        W11901  31.897  15.667   3.170
39642W        W11902  43.525  32.349  10.958
39643W        W11903  15.871   0.451   0.550
39644W        W11904  27.393  24.941   2.469
39645W        W11905   4.734  13.072   1.070
39646W        W11906  34.020  14.572   1.512
39647W        W11907   5.547   7.329  11.689
39648W        W11908  32.573   6.879   2.788
39649W        W11909  34.606   2.859  10.632
39650W        W11910  22.212  13.079   1.880
39651W        W11911  42.249  35.925   0.658
39652W        W11912  16.401  39.025  11.543
39653W        W11913   6.888   3.379  14.593
39654W        W11914  33.073  25.906  13.618
39655W        W11915  35.077   6.186   0.772
39656W        W11916  37.036  34.362   0.278
39657W        W11917  12.246  28.875   1.261
39658W        W11918  41.967  36.285  12.423
39659W        W11919  10.707  11.785  12.534
39660W        W11920  35.424  24.061  14.860
39661W        W11921  28.463  20.745  14.441
39662W        W11922  40.516  35.158  10.129
39663W        W11923  12.135  32.203   1.137
39664W        W11924  20.907  27.145   3.157
39665W        W11925  17.102  27.354   0.324
39666W        W11926  17.358  22.564   4.962
39667W        W11927  32.103  35.699   2.981
39668W        W11928  18.069  10.455  10.892
39669W        W11929  16.173  43.938  11.104
39670W        W11930  18.498  38.757   1.393
39671W        W11931  25.803  22.284  13.520
39672W        W11932  15.747  39.944   1.902
39673W        W11933   9.975  44.778   1.638
39674W        W11934  34.023  15.656   0.291
39675W        W11935  44.768  14.356  13.025
39676W        W11936  18.447  44.712   0.038
39677W        W11937  21.233  31.174  12.766
39678W        W11938  29.161  10.649  10.672
39679W        W11939  24.545  24.262  12.035
39680W        W11940  34.123  12.777  12.909
39681W        W11941  34.943   4.697   4.802
39682W        W11942  10.276  28.472  11.402
39683W        W11943   5.152  25.944  13.785
39684W        W11944  18.212   4.518   2.587
39685W        W11945  44.969  20.501  14.257
39686W        W11946  11.237   1.580   4.025
39687W        W11947  36.386   8.409   4.619
39688W        W11948  22.999  18.244  12.456
39689W        W11949  14.481  15.732  14.930
39690W        W11950  33.815   5.770  13.912
39691W        W11951  30.062  36.000  14.350
39692W        W11952  22.499  32.885  12.444
39693W        W11953  25.776  43.514   1.313
39694W        W11954  35.348  30.083  13.967
39695W        W11955   7.771  44.232  11.910
39696W        W11956  42.781  16.083  14.477
39697W        W11957  35.049  44.720  14.703
39698W        W11958  17.780  36.990   2.299
39699W        W11959  31.606  11.874   3.204
39700W        W11960   7.340  27.593   3.797
39701W        W11961  30.442  31.891   0.254
39702W        W11962  28.237  14.672   1.227
39703W        W11963  14.345  44.439   3.312
39704W        W11964  13.572  23.201   3.563
39705W        W11965   9.308  32.576   0.273
39706W        W11966  17.602   2.442   1.170
39707W        W11967  22.117  25.643   3.190
39708W        W11968  11.707  13.355  12.193
39709W        W11969  17.287   7.655  12.827
39710W        W11970  15.589  15.914  12.454
39711W        W11971  14.529  10.813  14.341
39712W        W11972  42.311  14.405  12.071
39713W        W11973   2.292  26.284  12.985
39714W        W11974  34.806  29.373  14.698
39715W        W11975  42.209  33.519   2.363
39716W        W11976   7.161  40.815  14.035
39717W        W11977   1.186   9.484   4.896
39718W        W11978  35.744  20.739  13.617
39719W        W11979  37.384  21.450  13.422
39720W        W11980  22.026   4.481   1.900
39721W        W11981  17.543   8.265   0.371
39722W        W11982  24.529  35.802  13.928
39723W        W11983  26.412  39.479   0.460
39724W        W11984  17.546  24.292  13.232
39725W        W11985   4.798   0.308  11.624
39726W        W11986  27.002  32.770   1.676
39727W        W11987  23.462  34.950  14.588
39728W        W11988   0.462  35.993   3.276
39729W        W11989  15.360   7.917   1.678
39730W        W11990  31.068  40.134  10.480
39731W        W11991   8.055  17.706  10.510
39732W        W11992  10.049  38.490   4.105
39733W        W11993  33.953  20.841  13.363
39734W        W11994  42.842  26.162   1.143
39735W        W11995  31.344  36.353  13.583
39736W        W11996  16.843  27.609  14.046
39737W        W11997   3.077  11.232  14.209
39738W        W11998  44.232   7.405   3.664
39739W        W11999  36.797  17.675  12.482
39740W        W12000  23.702  40.039   3.614
39741W        W12001  20.029  19.092  14.265
39742W        W12002  11.224  19.646  14.361
39743W        W12003  15.516  43.354   4.932
39744W        W12004  31.673  11.396  13.344
39745W        W12005  17.489   6.437  14.888
39746W        W12006  36.489  23.728   2.783
39747W        W12007  32.034   3.725   2.914
39748W        W12008  41.246  36.129   3.722
39749W        W12009  32.478  15.753  12.074
39750W        W12010   3.655  13.808  12.238
39751W        W12011  30.500  34.913  12.854
39752W        W12012  34.952   5.780   1.625
39753W        W12013   5.390  11.768   0.229
39754W        W12014  22.625  28.619   2.849
39755W        W12015  24.060  36.904  11.500
39756W        W12016  44.791  33.941  13.474
39757W        W12017  27.383  32.640   3.065
39758W        W12018   8.685  41.485  12.515
39759W        W12019   6.882  20.726   4.317
39760W        W12020  44.386   6.400  14.737
39761W        W12021   7.627  35.865  12.021
39762W        W12022  23.735  13.117   0.766
39763W        W12023  16.574  22.962  14.048
39764W        W12024  28.628  43.860   0.813
39765W        W12025  26.927  19.235  11.021
39766W        W12026  44.803  13.618  13.896
39767W        W12027  30.871  36.914  12.390
39768W        W12028  27.184  12.320  14.056
39769W        W12029  38.909  22.855   0.820
39770W        W12030  29.001  28.749   2.275
39771W        W12031  39.611   7.119  11.098
39772W        W12032  29.995  35.464   0.883
39773W        W12033  11.825  12.344  13.098
39774W        W12034   4.180  37.910   4.550
39775W        W12035  27.857  20.541   0.307
39776W        W12036   4.072  29.404  11.918
39777W        W12037   0.519  11.750  10.178
39778W        W12038  28.122  38.981   1.392
39779W        W12039   3.151  38.978   3.742
39780W        W12040  38.359  28.246   2.193
39781W        W12041  39.519  27.904   3.051
39782W        W12042  15.056  38.820  14.885
39783W        W12043  37.061   1.055   0.761
39784W        W12044   1.240  16.508  13.643
39785W        W12045  42.888  17.156  12.656
39786W        W12046  18.030   1.871  11.010
39787W        W12047  25.810  19.220   4.953
39788W        W12048  11.434  17.633  11.043
39789W        W12049   6.417  26.983   4.566
39790W        W12050  18.869  13.155  11.349
39791W        W12051  42.284  26.568  11.655
39792W        W12052  10.767  30.703  12.579
39793W        W12053  38.141  30.111  11.051
39794W        W12054  13.168  18.277   3.638
39795W        W12055  39.745   0.960  14.003
39796W        W12056  43.296  38.888   4.053
39797W        W12057   9.041   6.261  13.840
39798W        W12058  14.559  37.292   4.958
39799W        W12059  15.593  31.091   1.461
39800W        W12060   5.195  43.550  13.268
39801W        W12061  17.754   1.198  14.846
39802W        W12062   5.016  21.395  12.978
39803W        W12063  17.152  24.095  11.107
39804W        W12064  12.947  32.754   1.026
39805W        W12065  17.168  27.637  11.678
39806W        W12066  11.165  44.201  10.162
39807W        W12067  23.113   9.770  13.829
39808W        W12068  20.847   9.718   0.880
39809W        W12069  23.571  34.437   2.363
39810W        W12070   0.291  42.525   1.675
39811W        W12071  23.202  15.517  13.004
39812W        W12072   4.610  39.387  12.588
39813W        W12073  23.049   3.396  11.751
39814W        W12074  18.723  36.298   1.295
39815W        W12075  11.336   3.273   3.433
39816W        W12076  18.109  30.657  12.561
39817W        W12077   6.541  43.490   2.739
39818W        W12078  11.273  33.633   0.970
39819W        W12079   7.646  22.761   0.404
39820W        W12080   5.861   8.757   3.747
39821W        W12081  32.361  21.186   1.529
39822W        W12082  24.251  33.336   0.699
39823W        W12083  15.771  42.971  10.009
39824W        W12084   2.517  34.791  11.354
39825W        W12085  23.286   1.824   4.095
39826W        W12086  39.033  41.868   3.105
39827W        W12087  10.753   0.185   3.411
39828W        W12088  17.088  14.135  11.488
39829W        W12089   3.263  21.644   4.383
39830W        W12090  31.890  41.871   1.489
39831W        W12091  35.172  35.963   4.625
39832W        W12092  11.757  15.681   1.171
39833W        W12093  34.031  31.381   2.696
39834W        W12094   3.331  41.074   4.584
39835W        W12095   8.919  27.732   4.954
39836W        W12096  10.391   0.511   2.613
39837W        W12097  40.328  35.915   2.318
39838W        W12098  35.920  34.149  13.807
39839W        W12099  13.894  42.097   4.217
39840W        W12100  10.159  37.319  10.979
39841W        W12101   1.021  32.843   2.166
39842W        W12102  30.933  18.525  11.553
39843W        W12103  18.676  17.207   0.248
39844W        W12104  39.471  25.506   3.350
39845W        W12105  27.409  21.616  12.582
39846W        W12106   9.631  38.876  13.838
39847W        W12107   4.778  11.400  10.616
39848W        W12108  23.528  37.116  12.515
39849W        W12109  11.282  22.665   1.415
39850W        W12110  10.323  43.747   4.832
39851W        W12111  40.775  11.658   4.562
39852W        W12112  38.638  37.407   4.457
39853W        W12113  31.759  43.021   4.181
39854W        W12114  20.388  19.166  10.244
39855W        W12115  14.169  32.939   1.253
39856W        W12116  23.487  34.955   4.597
39857W        W12117  13.997  12.797  13.333
39858W        W12118  36.176  19.559  13.947
39859W        W12119  35.491  33.076   4.226
39860W        W12120  25.546  12.395  12.691
39861W        W12121  20.168  19.528   0.308
39862W        W12122  38.112  37.314   1.440
39863W        W12123   4.104  32.432  11.517
39864W        W12124   6.879  44.516  12.408
39865W        W12125  14.804  15.602   4.187
39866W        W12126   6.728  13.501  11.648
39867W        W12127  27.990  40.042  12.827
39868W        W12128  36.857  39.383  12.009
39869W        W12129  30.675  36.246  11.148
39870W        W12130   5.678  15.068   4.115
39871W        W12131  15.631  17.186   3.641
39872W        W12132  10.665   8.227  11.080
39873W        W12133  30.055   0.931  14.127
39874W        W12134  12.981  16.200   5.406
39875W        W12135  16.139  15.179   1.347
39876W        W12136  30.371  36.906  12.194
39877W        W12137  37.076  20.626   2.404
39878W        W12138  29.547  40.957   0.739
39879W        W12139  13.070   2.533   1.344
39880W        W12140  26.125  19.548  14.814
39881W        W12141  31.398  31.462  11.369
39882W        W12142  40.476  25.215  12.389
39883W        W12143  12.702  19.073   1.708
39884W        W12144  32.444  40.094  13.977
39885W        W12145  27.513  41.443   1.277
39886W        W12146   4.191  36.397   4.358
39887W        W12147  36.896  42.275  14.824
39888W        W12148   8.655  42.021  13.791
39889W        W12149  10.466  25.748  13.334
39890W        W12150  27.420  42.281   4.105
39891W        W12151  23.041   9.656  13.291
39892W        W12152   5.279  40.714  10.792
39893W        W12153  35.880  28.977   4.553
39894W        W12154  28.989  24.429  11.716
39895W        W12155  44.493  39.294  13.102
39896W        W12156  24.052   5.332   4.082
39897W        W12157  37.895  26.681   4.851
39898W        W12158  23.145   0.417  13.024
39899W        W12159  24.693  16.667   2.684
39900W        W12160   3.631  34.384   1.780
39901W        W12161   0.399  10.126  14.195
39902W        W12162   5.046  31.875   1.318
39903W        W12163  27.705   6.695  11.414
39904W        W12164  20.785  43.853   0.301
39905W        W12165  27.566   9.422  14.885
39906W        W12166   5.968  39.101  12.860
39907W        W12167   8.811  44.392   4.473
39908W        W12168  39.828  32.917  11.760
39909W        W12169   4.878  38.437  11.944
39910W        W12170   4.273   8.111  11.531
39911W        W12171  35.862  31.043   1.437
39912W        W12172  32.702  27.972  11.781
39913W        W12173  37.508   0.931   3.731
39914W        W12174  42.312   3.618  12.536
39915W        W12175  42.682  44.685  11.639
39916W        W12176  34.471  13.070   0.841
39917W        W12177  18.258  43.507   3.216
39918W        W12178  36.859  40.570  13.843
39919W        W12179  13.387  22.850   5.224
39920W        W12180  32.280  14.133   0.152
39921W        W12181   8.450   7.509  11.917
39922W        W12182  16.700  32.161   4.582
39923W        W12183  35.005  15.355   4.574
39924W        W12184   3.657  35.700   4.683
39925W        W12185  33.351  19.993   1.711
39926W        W12186  21.991  35.586  12.648
39927W        W12187  23.825  13.446   1.728
39928W        W12188  30.711  18.088   1.704
39929W        W12189  34.492  34.838  13.442
39930W        W12190  19.095  15.642   4.173
39931W        W12191  34.289  15.759   3.301
39932W        W12192  16.884  34.898   2.335
39933W        W12193  27.226  38.940  11.066
39934W        W12194  36.142  35.648   4.257
39935W        W12195  32.431   8.078  11.055
39936W        W12196   5.837  20.505  14.945
39937W        W12197   3.459  43.348  14.723
39938W        W12198  36.379  23.017  11.166
39939W        W12199   5.699  29.056  14.721
39940W        W12200  38.057   6.904   3.290
39941W        W12201  39.421  20.090   1.956
39942W        W12202  19.716   0.546  11.535
39943W        W12203  25.059  15.122   1.175
39944W        W12204  30.165  12.658  10.600
39945W        W12205  28.077  22.619   0.054
39946W        W12206  23.038  12.836   0.793
39947W        W12207   7.823  29.611  14.043
39948W        W12208   8.249   6.746  10.712
39949W        W12209  39.410  14.889  12.219
39950W        W12210  43.093  32.892   0.501
39951W        W12211  29.697  18.569   0.519
39952W        W12212   5.491   1.104   4.471
39953W        W12213  31.595  39.520   0.971
39954W        W12214  18.270   2.321  11.568
39955W        W12215  21.670  35.542  10.441
39956W        W12216  10.720  29.576   0.588
39957W        W12217  40.215  14.218  13.032
39958W        W12218  33.977   0.553  11.882
39959W        W12219  17.746  35.056  11.079
39960W        W12220   7.633   7.702   3.658
39961W        W12221  24.623  18.053   0.589
39962W        W12222   4.397  40.951  14.381
39963W        W12223  30.352  33.885  12.486
39964W        W12224  11.829  20.191  14.860
39965W        W12225  17.572  17.084   3.973
39966W        W12226  25.843  39.375   2.486
39967W        W12227  22.505  15.603   4.132
39968W        W12228  36.513  43.224  11.016
39969W        W12229  24.909  28.454  13.709
39970W        W12230   0.380   8.870   1.923
39971W        W12231  19.088  24.491  12.209
39972W        W12232  13.292   9.930   0.403
39973W        W12233  23.199  17.805  12.248
39974W        W12234  34.158  28.502   4.618
39975W        W12235  43.358   4.660  14.036
39976W        W12236  29.408  20.939  10.272
39977W        W12237   3.984  22.091  13.470
39978W        W12238  38.298  36.964  11.971
39979W        W12239  37.390   6.718   4.974
39980W        W12240  15.809  19.000  13.404
39981W        W12241   8.248  37.338  14.807
39982W        W12242  40.360  36.561  11.489
39983W        W12243  39.558  32.416   2.752
39984W        W12244  13.420  10.918  12.103
39985W        W12245  30.970  29.970  14.035
39986W        W12246  35.395  16.535  13.889
39987W        W12247   8.884  41.081   1.293
39988W        W12248  33.961   1.264   2.641
39989W        W12249  37.516  28.119  11.568
39990W        W12250  28.140   6.170   0.014
39991W        W12251  42.414  39.843  13.813
39992W        W12252  16.104  31.301   2.582
39993W        W12253  10.297   2.903   1.589
39994W        W12254  19.370  31.001  14.720
39995W        W12255  27.050  22.004   3.770
39996W        W12256  38.473  38.934  13.135
39997W        W12257  30.591  20.288  11.947
39998W        W12258   2.486  10.677   3.304
39999W        W12259   7.276  39.954  12.064
40000W        W12260  18.316  32.376  12.572
40001W        W12261  15.375   9.975  14.593
40002W        W12262  38.962  18.958   2.838
40003W        W12263   7.597   6.159   4.971
40004W        W12264   1.674  39.377  12.343
40005W        W12265   8.740  12.637   3.360
40006W        W12266  32.639  34.543  14.746
40007W        W12267  36.088  32.403   1.727
40008W        W12268  27.074  43.937   4.560
40009W        W12269  14.701  35.673   5.069
40010W        W12270  25.337  12.857  12.875
40011W        W12271  24.191  22.426   1.886
40012W        W12272  42.250  36.075   2.703
40013W        W12273  34.892  33.541   0.170
40014W        W12274  44.861  23.747  11.602
40015W        W12275  24.992  33.145  13.901
40016W        W12276   3.469  43.525   2.732
40017W        W12277  13.910  21.315   3.791
40018W        W12278  27.071  10.398   0.440
40019W        W12279  21.077   9.438  11.666
40020W        W12280  30.911  35.966   3.648
40021W        W12281  25.944   0.906  13.468
40022W        W12282  33.009  15.671   4.253
40023W        W12283  12.584  20.429  13.034
40024W        W12284  32.809  19.151   3.692
40025W        W12285  20.846  12.359   0.867
40026W        W12286   2.803   9.912  12.075
40027W        W12287   1.628   6.422   1.375
40028W        W12288  25.956   3.438   1.790
40029W        W12289  14.182  14.292   1.982
40030W        W12290  29.167   2.819   3.184
40031W        W12291  26.472  28.194  13.873
40032W        W12292  43.065  31.255  11.273
40033W        W12293  38.163  43.526   3.485
40034W        W12294   6.739   1.457  10.283
40035W        W12295  29.605  28.456   3.120
40036W        W12296  33.991  25.705   4.107
40037W        W12297  43.015   7.693  10.861
40038W        W12298  22.823  31.497  11.537
40039W        W12299  22.399  40.237   4.854
40040W        W12300  40.041  11.758   3.121
40041W        W12301  31.861  18.180  14.723
40042W        W12302   5.304   8.957  10.482
40043W        W12303   7.929  29.880  10.667
40044W        W12304  11.714  16.066   2.691
40045W        W12305  17.117  34.207  11.364
40046W        W12306   2.833  24.587  12.599
40047W        W12307  14.315  11.985  12.000
40048W        W12308  30.369  32.409   1.360
40049W        W12309   1.424  26.736   0.819
40050W        W12310  33.520  33.730  10.713
40051W        W12311  39.336   1.006  10.468
40052W        W12312  43.480  13.093  10.674
40053W        W12313  16.214  22.226  10.409
40054W        W12314  40.062  28.404  14.987
40055W        W12315   7.535   2.293   2.025
40056W        W12316   0.395  38.544  12.155
40057W        W12317  44.562   0.831   1.131
40058W        W12318  30.018  27.086  11.601
40059W        W12319  32.085  18.346   0.216
40060W        W12320   0.920  33.921  12.049
40061W        W12321  13.137  29.013  14.322
40062W        W12322  26.307  18.505   0.056
40063W        W12323  16.214  25.481  11.600
40064W        W12324  23.187   4.254   0.650
40065W        W12325  16.587  28.992   1.925
40066W        W12326  43.443  36.432   4.289
40067W        W12327   3.752  27.610   2.404
40068W        W12328  16.339   8.559  11.786
40069W        W12329  21.412  31.349   2.905
40070W        W12330   8.687  41.912   0.521
40071W        W12331  13.735  31.135  14.974
40072W        W12332  18.187  12.675  11.604
40073W        W12333  42.321  25.134   0.381
40074W        W12334  29.038  12.584  12.788
40075W        W12335  16.687  40.935   1.300
40076W        W12336   2.894   1.208   0.720
40077W        W12337   7.810   6.988   2.717
40078W        W12338  17.004  34.817  11.507
40079W        W12339  26.259  29.701   3.656
40080W        W12340  12.205   7.674  12.417
40081W        W12341   9.369   7.460   3.116
40082W        W12342  10.447  20.818   1.338
40083W        W12343  34.887  17.789  12.567
40084W        W12344  11.080  26.361   0.801
40085W        W12345  21.178  17.877   4.307
40086W        W12346  37.410  26.310   3.238
40087W        W12347  42.503  41.958  14.790
40088W        W12348  33.516  41.789   0.414
40089W        W12349   2.521  26.589   4.699
40090W        W12350   9.428   3.454   0.442
40091W        W12351  33.995  24.262  12.527
40092W        W12352  26.147  22.431  13.171
40093W        W12353  30.720   6.394  14.204
40094W        W12354   0.163   4.323   0.166
40095W        W12355  20.224  13.812  11.472
40096W        W12356  40.945  22.681  13.836
40097W        W12357  15.344  16.296  10.285
40098W        W12358  25.261  21.586  10.524
40099W        W12359  21.254  12.042   0.828
40100W        W12360   7.472  35.410  10.884
40101W        W12361  32.864  19.185   0.415
40102W        W12362  24.528  33.887  14.565
40103W        W12363  42.960  18.534  11.904
40104W        W12364  41.270   4.864   0.014
40105W        W12365  36.796  25.827  14.009
40106W        W12366  25.673  42.298   5.042
40107W        W12367   8.909  36.227  11.642
40108W        W12368   2.170  20.603   4.403
40109W        W12369   1.507   9.764   0.227
40110W        W12370   5.353  15.912  11.137
40111W        W12371  19.667  42.233  11.541
40112W        W12372  12.261  28.405  13.906
40113W        W12373  40.314  37.638  11.448
40114W        W12374  41.998  27.176   2.852
40115W        W12375  39.075   5.548   3.239
40116W        W12376  43.484   3.814   2.765
40117W        W12377   8.693  14.260  11.101
40118W        W12378  44.941  21.677  10.948
40119W        W12379  25.633  25.923   4.221
40120W        W12380  22.528   1.302   4.036
40121W        W12381   4.799  27.109  10.622
40122W        W12382  38.067   3.323   1.347
40123W        W12383  20.521  26.025  13.905
40124W        W12384  23.671  29.512  12.963
40125W        W12385  44.327   6.581   1.170
40126W        W12386   3.257   0.866  13.173
40127W        W12387  25.805  41.035  10.187
40128W        W12388  23.076  31.708   4.612
40129W        W12389  14.544  40.051  11.940
40130W        W12390  37.439  11.759  10.542
40131W        W12391   7.136  27.576  10.603
40132W        W12392  15.200  10.271  11.048
40133W        W12393   5.887  34.558   0.176
40134W        W12394   5.585  35.779  12.995
40135W        W12395  36.077  42.824  14.895
40136W        W12396  11.341  35.973  14.575
40137W        W12397  12.421  19.305   0.774
40138W        W12398  32.541  23.535  11.822
40139W        W12399  34.699  30.994  11.569
40140W        W12400  36.970  26.888   1.585
40141W        W12401  19.764  27.547   1.168
40142W        W12402  14.370  43.492  13.408
40143W        W12403   0.798  12.410  12.719
40144W        W12404  44.412   9.308   4.966
40145W        W12405  39.587   9.170  14.654
40146W        W12406  36.927  34.668  11.242
40147W        W12407  28.506   0.203  13.975
40148W        W12408  18.346  43.914  12.093
40149W        W12409   0.411  28.590   2.341
40150W        W12410   1.025  41.156   5.166
40151W        W12411   8.137  41.523   1.930
40152W        W12412  30.849   2.078  12.689
40153W        W12413   5.053  43.879  14.177
40154W        W12414   0.082  37.545   3.382
40155W        W12415  40.351   7.007   0.295
40156W        W12416  19.773  43.744  14.905
40157W        W12417  36.038  10.404   5.088
40158W        W12418  13.238  25.128   4.497
40159W        W12419  11.809  20.546   1.966
40160W        W12420  43.548  24.605  14.322
40161W        W12421  43.708  40.448  10.465
40162W        W12422  34.155  30.504   3.706
40163W        W12423  17.808   1.333  11.068
40164W        W12424  38.928  24.685  10.538
40165W        W12425   3.250  33.828   4.593
40166W        W12426  43.970  30.685  11.499
40167W        W12427  39.458  19.953   3.576
40168W        W12428   0.751   7.784   2.302
40169W        W12429  28.677  26.796   0.682
40170W        W12430  10.185   8.709   5.033
40171W        W12431  39.511  31.081  11.370
40172W        W12432  15.136  21.802   1.006
40173W        W12433   3.264   5.779  13.790
40174W        W12434  44.286  29.446   0.590
40175W        W12435   0.402  27.715   0.934
40176W        W12436  40.405  27.052   2.600
40177W        W12437   3.218  18.134   0.940
40178W        W12438  34.061   3.633   3.300
40179W        W12439   1.764  24.490   0.705
40180W        W12440   0.902  37.920   1.916
40181W        W12441  23.697  29.862   3.703
40182W        W12442  21.641  35.277  11.469
40183W        W12443   6.383  44.504  10.900
40184W        W12444  16.808  34.326   3.630
40185W        W12445  35.436  41.447   0.014
40186W        W12446  30.360   7.344  12.956
40187W        W12447   8.816  18.822   1.157
40188W        W12448  21.244  35.074   3.840
40189W        W12449  38.892   9.104   4.216
40190W        W12450  20.565  19.057   3.914
40191W        W12451  23.587  44.004  10.645
40192W        W12452  13.306  23.774   0.803
40193W        W12453  43.147  27.738  14.110
40194W        W12454  43.491   9.927  12.538
40195W        W12455  23.520  34.796   2.753
40196W        W12456  41.082  36.750  12.360
40197W        W12457  15.018  17.642   9.961
40198W        W12458  19.043  22.670   1.612
40199W        W12459  14.067  30.927   3.128
40200W        W12460  11.849  22.100   0.511
40201W        W12461   7.436  19.712   4.590
40202W        W12462  43.343  37.324   1.241
40203W        W12463  17.787   3.491  11.053
40204W        W12464  33.501   5.931  11.729
40205W        W12465  29.549   4.447   3.421
40206W        W12466  41.836  28.605   3.915
40207W        W12467  24.165   3.698  12.105
40208W        W12468   9.686  11.719   1.402
40209W        W12469   1.112   4.885  13.968
40210W        W12470   4.849  35.230  13.322
40211W        W12471  12.841  42.867   3.269
40212W        W12472  22.233  14.298   4.423
40213W        W12473  15.283  43.048   3.133
40214W        W12474  35.845  27.500  13.515
40215W        W12475   6.018  17.429  13.267
40216W        W12476   7.633   3.973   2.724
40217W        W12477  20.856  20.793   4.945
40218W        W12478  26.735   6.635  10.536
40219W        W12479   2.516  42.854   4.161
40220W        W12480  25.800  18.334  13.869
40221W        W12481  10.084   3.310   1.820
40222W        W12482  26.941  34.554   0.707
40223W        W12483  42.276  27.265   4.298
40224W        W12484   6.491  34.581   1.953
40225W        W12485  20.297  26.608  10.739
40226W        W12486  15.642  38.516  10.767
40227W        W12487  10.770   7.256   4.860
40228W        W12488  31.916  18.101   1.338
40229W        W12489  10.116   2.993   2.526
40230W        W12490  33.060   2.184  14.165
40231W        W12491  33.913   4.173   2.435
40232W        W12492  41.507  30.651   4.564
40233W        W12493  30.884  36.297   3.234
40234W        W12494   9.452  16.754  14.953
40235W        W12495   3.039  21.942   3.940
40236W        W12496  39.297  13.648  12.710
40237W        W12497  16.824  36.445  11.188
40238W        W12498  18.028  34.006   4.128
40239W        W12499  38.825   0.332  12.977
40240W        W12500   3.581   1.001  10.642
40241W        W12501  37.280   2.011  13.349
40242W        W12502   7.978  20.546   3.256
40243W        W12503  16.241   6.418  12.446
40244W        W12504  30.148   9.577   0.770
40245W        W12505   2.466  17.819  12.408
40246W        W12506   3.402  27.917  11.920
40247W        W12507  15.196  16.688   0.277
40248W        W12508  28.193   0.580  13.770
40249W        W12509  40.011   8.291  13.989
40250W        W12510  27.238  39.802  11.213
40251W        W12511  23.418   3.879   3.725
40252W        W12512  40.829  37.985  10.806
40253W        W12513  25.711   7.235  11.466
40254W        W12514  40.711  24.051  11.132
40255W        W12515  26.950  19.669  13.437
40256W        W12516  14.174  27.904   0.005
40257W        W12517  37.019  29.680  12.102
40258W        W12518   1.347  27.962   4.191
40259W        W12519  17.185  30.021  12.075
40260W        W12520  40.440  26.132   0.856
40261W        W12521  34.528  13.773   3.546
40262W        W12522  22.095  11.414  12.499
40263W        W12523  13.051  22.240   0.932
40264W        W12524  13.271  16.172   4.004
40265W        W12525   8.310   4.535   2.128
40266W        W12526  25.932  14.635   3.232
40267W        W12527   2.202  32.030   1.353
40268W        W12528  30.860  21.652  11.993
40269W        W12529  13.338   8.493   2.413
40270W        W12530   8.112  26.382   9.908
40271W        W12531  34.278  20.136  11.060
40272W        W12532  14.732  25.579   5.015
40273W        W12533  41.273   7.806   1.719
40274W        W12534  16.820  42.106  13.067
40275W        W12535  19.331   7.834   4.623
40276W        W12536  20.705  23.749  14.786
40277W        W12537  30.739  17.489   4.017
40278W        W12538  28.574  10.617  11.903
40279W        W12539  31.874  15.857  11.557
40280W        W12540  28.003  18.303   0.075
40281W        W12541  16.258  44.217  14.832
40282W        W12542  26.668  29.882  12.479
40283W        W12543   9.883  13.656  14.132
40284W        W12544   0.645  23.192   0.451
40285W        W12545   8.108   5.405   2.633
40286W        W12546   5.360  21.032  12.070
40287W        W12547  39.360  28.718   3.585
40288W        W12548  38.727  24.183   2.003
40289W        W12549  43.032  34.833   4.518
40290W        W12550  13.372  19.409  13.819
40291W        W12551   4.017  19.752  13.405
40292W        W12552   5.904  42.870   3.017
40293W        W12553  12.186  11.725  13.319
40294W        W12554  30.280  35.969   4.530
40295W        W12555  21.750  42.904  11.982
40296W        W12556   3.429  27.708   3.172
40297W        W12557  42.271  26.310  11.007
40298W        W12558  38.015  26.547  11.985
40299W        W12559  17.853  27.519   3.593
40300W        W12560  32.060  11.596   1.299
40301W        W12561  27.149  13.393  11.116
40302W        W12562   6.436  14.951  13.420
40303W        W12563  33.682  21.677  12.139
40304W        W12564  24.482  18.363  12.887
40305W        W12565  41.786  15.310  12.438
40306W        W12566  31.958  16.935  14.433
40307W        W12567  41.064   2.860  14.397
40308W        W12568  12.492  27.201   1.755
40309W        W12569  30.854  23.773   2.597
40310W        W12570  14.220  38.965  13.303
40311W        W12571  16.117  37.587   0.752
40312W        W12572  38.924  44.320  14.309
40313W        W12573   9.743  22.066   2.169
40314W        W12574  24.384  24.512  13.483
40315W        W12575   1.843  30.838  14.334
40316W        W12576  36.091  41.958  11.373
40317W        W12577  38.708  10.526   2.927
40318W        W12578   5.360  10.417   4.124
40319W        W12579  27.629   3.879  11.886
40320W        W12580  36.281   4.825   4.294
40321W        W12581  39.423  18.134  12.888
40322W        W12582   8.845   4.827   4.185
40323W        W12583  39.286   0.975  13.044
40324W        W12584   8.823   5.390  14.118
40325W        W12585   4.494  11.869   1.763
40326W        W12586  30.511  16.566  12.351
40327W        W12587  44.466  38.203  11.535
40328W        W12588  12.277   0.826   1.165
40329W        W12589  34.819   0.328   2.124
40330W        W12590   4.532  15.163  13.057
40331W        W12591  10.963  19.601  13.044
40332W        W12592  38.559  16.698   2.148
40333W        W12593  37.455   6.373  13.007
40334W        W12594   7.165  26.982  11.096
40335W        W12595  19.626  17.697   4.533
40336W        W12596   3.568   7.342   1.497
40337W        W12597  44.994   9.721   3.760
40338W        W12598   4.310  19.824  11.533
40339W        W12599  18.531   0.437   4.655
40340W        W12600  32.907  15.626   3.238
40341W        W12601  12.834   8.335  13.319
40342W        W12602   8.412  44.572   4.745
40343W        W12603  41.285  34.094   4.127
40344W        W12604   1.109  16.507   2.208
40345W        W12605  30.515  37.234   3.604
40346W        W12606  40.509  25.738  13.663
40347W        W12607  12.207  42.113  11.960
40348W        W12608  14.600  29.733   2.348
40349W        W12609  41.084  38.243  12.582
40350W        W12610  21.931   2.015   2.913
40351W        W12611   2.956  26.201   0.416
40352W        W12612   4.469   3.230   3.682
40353W        W12613   8.700  37.894   0.017
40354W        W12614  16.127  32.864   2.866
40355W        W12615  17.648  33.442   0.250
40356W        W12616  13.404  22.495  12.533
40357W        W12617   8.479  44.520   2.696
40358W        W12618  30.850  11.797   4.599
40359W        W12619  40.239  10.123  13.777
40360W        W12620  35.619  15.526   4.870
40361W        W12621  40.692   7.876  11.124
40362W        W12622  21.782  12.294   1.496
40363W        W12623  32.943   9.770   4.726
40364W        W12624  20.281   4.665   5.357
40365W        W12625  22.318  37.957  14.469
40366W        W12626  19.090  16.115  11.217
40367W        W12627  35.321  20.543   2.313
40368W        W12628  44.030  40.511   3.120
40369W        W12629  14.994  32.540   3.849
40370W        W12630  36.971  31.466   4.493
40371W        W12631   6.734   3.754  13.094
40372W        W12632  26.116  32.142  12.830
40373W        W12633   4.178   8.698   3.727
40374W        W12634  27.539  30.624   9.690
40375W        W12635  36.295  18.729  10.558
40376W        W12636  18.248   0.208  13.415
40377W        W12637  14.186  23.433  14.397
40378W        W12638   3.778   0.835  13.307
40379W        W12639  12.260  44.098   2.781
40380W        W12640  18.907   7.287  12.410
40381W        W12641  11.863  42.746   1.812
40382W        W12642  15.373  33.290   1.583
40383W        W12643  39.054   9.435  12.829
40384W        W12644  38.894   4.870  14.959
40385W        W12645  27.115  41.506  11.851
40386W        W12646  25.538   9.264   2.274
40387W        W12647   7.243  32.168  12.465
40388W        W12648   0.038  14.050   0.385
40389W        W12649  36.620  16.139   3.302
40390W        W12650  39.305   6.751  14.154
40391W        W12651  41.985  20.923   4.103
40392W        W12652   1.460  28.644  12.011
40393W        W12653  20.794  18.532   0.989
40394W        W12654  11.615  34.398   3.139
40395W        W12655  41.388  44.782   1.800
40396W        W12656  19.751   7.464  12.526
40397W        W12657  14.394   6.168   1.019
40398W        W12658  16.665   4.044  13.478
40399W        W12659  43.889   9.768   1.518
40400W        W12660  38.550  23.020  14.334
40401W        W12661   8.415  29.884  10.426
40402W        W12662   0.507  33.002  11.040
40403W        W12663  34.634  11.092   4.535
40404W        W12664  17.144  14.775   9.941
40405W        W12665  43.723  26.010  14.380
40406W        W12666  23.798  31.861   3.596
40407W        W12667  40.297  24.098   0.350
40408W        W12668  34.830  14.418   1.733
40409W        W12669  16.584  11.882  11.754
40410W        W12670  44.196  29.565  12.937
40411W        W12671  15.915  44.483  14.527
40412W        W12672  18.838  34.420  14.076
40413W        W12673  15.119   6.399   1.930
40414W        W12674  11.614  16.753  12.715
40415W        W12675  31.600  26.278  14.458
40416W        W12676   9.274   6.248  10.232
40417W        W12677  39.093  44.699  13.450
40418W        W12678  24.615   7.935  13.653
40419W        W12679  31.659  23.373   1.720
40420W        W12680   6.916  11.399   2.030
40421W        W12681  43.383  25.353  13.868
40422W        W12682   4.194  31.982   1.001
40423W        W12683  27.604   8.775   1.488
40424W        W12684  27.158  42.042  12.874
40425W        W12685  39.291  43.344  13.349
40426W        W12686  38.149   4.367   2.330
40427W        W12687  36.326  21.860  14.511
40428W        W12688  23.122  38.550   4.415
40429W        W12689  39.235   7.792   3.669
40430W        W12690   1.799   4.421  11.598
40431W        W12691   2.923  20.942   9.946
40432W        W12692   6.903   5.066   0.961
40433W        W12693  37.819  24.659   1.766
40434W        W12694   5.002  15.717  11.471
40435W        W12695  31.461   4.208   2.282
40436W        W12696  33.613  11.080   2.671
40437W        W12697  31.482  38.069  12.901
40438W        W12698  43.824  31.235   2.860
40439W        W12699  17.574  16.493   1.230
40440W        W12700  32.608  17.303  11.143
40441W        W12701  27.217   4.699   4.075
40442W        W12702  19.211  41.191  12.656
40443W        W12703  27.089  17.068   1.329
40444W        W12704  40.083  44.258   2.787
40445W        W12705  16.157   3.878  10.371
40446W        W12706  14.467   7.777   4.487
40447W        W12707  25.531  28.055   4.753
40448W        W12708  25.947   0.242   1.328
40449W        W12709  42.280  22.328  12.463
40450W        W12710  31.461  40.810   3.923
40451W        W12711  13.868  40.887   2.886
40452W        W12712  27.173   1.418  13.546
40453W        W12713  28.061  11.649   1.815
40454W        W12714  17.287  16.359   3.173
40455W        W12715  19.834  28.031   4.520
40456W        W12716  32.089  42.281   2.854
40457W        W12717   3.352  20.468  13.793
40458W        W12718   1.413   8.343   2.188
40459W        W12719  40.816   7.555  14.718
40460W        W12720   8.051  22.273  14.751
40461W        W12721   8.038  44.809  12.909
40462W        W12722   1.228   2.664   2.722
40463W        W12723   8.670   8.202   1.294
40464W        W12724  44.710   6.720  10.453
40465W        W12725  25.138   2.371   0.185
40466W        W12726  23.149  40.824   0.391
40467W        W12727  31.044   5.918   3.317
40468W        W12728  41.003  19.783   3.318
40469W        W12729  32.166  16.707   1.382
40470W        W12730  17.350   4.861  10.713
40471W        W12731  23.037  20.787  14.722
40472W        W12732  17.545  43.919  12.586
40473W        W12733  26.287  34.201  10.965
40474W        W12734  16.777   2.272   4.301
40475W        W12735  29.714  19.249   4.282
40476W        W12736  34.117  31.615   3.157
40477W        W12737   5.713   4.752  14.948
40478W        W12738  27.479  39.099   2.145
40479W        W12739   7.280   8.870  11.939
40480W        W12740  14.270   5.984   1.694
40481W        W12741  22.584   9.215   4.062
40482W        W12742  40.216  38.080  11.698
40483W        W12743  36.049   2.691  14.513
40484W        W12744  38.634  15.673  11.517
40485W        W12745  40.490   2.198   4.660
40486W        W12746  38.135  16.076   0.882
40487W        W12747  24.106  41.068  14.020
40488W        W12748  24.518  18.101  12.414
40489W        W12749   3.005  28.464  11.119
40490W        W12750   7.876  18.101  12.637
40491W        W12751  29.533  22.388  12.547
40492W        W12752   2.264   1.340  11.802
40493W        W12753   9.709  15.128   1.673
40494W        W12754   3.893  37.764   0.981
40495W        W12755  32.483  26.298   3.194
40496W        W12756   3.699  30.842  14.071
40497W        W12757  39.511  38.050   4.786
40498W        W12758  39.835  24.007  12.864
40499W        W12759  28.660  37.905   2.727
40500W        W12760  10.695  15.752  11.588
40501W        W12761  17.649  42.426  14.377
40502W        W12762   9.393  35.056   1.811
40503W        W12763  12.319  41.974   1.519
40504W        W12764  27.058  12.184  12.576
40505W        W12765   5.310  17.373   1.170
40506W        W12766  19.218  36.527   1.259
40507W        W12767  18.919  33.616  12.614
40508W        W12768  35.871  44.751   2.330
40509W        W12769  21.694  21.769  14.648
40510W        W12770  30.956   9.690   0.055
40511W        W12771  27.680   9.597   0.349
40512W        W12772  16.280  39.981   0.071
40513W        W12773  30.525  14.310   4.224
40514W        W12774   2.422  22.004   0.605
40515W        W12775  15.682  22.228   1.308
40516W        W12776   6.017   2.516   1.797
40517W        W12777   2.326  31.074  11.109
40518W        W12778  24.568   1.477   4.298
40519W        W12779   0.695   1.484   3.166
40520W        W12780  41.417   8.380   4.349
40521W        W12781  43.901   5.694   3.602
40522W        W12782  14.967   0.914   2.325
40523W        W12783  26.012  38.430  11.135
40524W        W12784   9.749  40.714  13.295
40525W        W12785  11.892  38.736   9.784
40526W        W12786   1.605  15.671   2.416
40527W        W12787  28.621  15.279   4.610
40528W        W12788  21.195   2.766   2.771
40529W        W12789  43.386  43.484   2.782
40530W        W12790  33.065  23.191   0.379
40531W        W12791   4.445  28.206   4.982
40532W        W12792   2.248   0.287  11.489
40533W        W12793   5.654   6.315  12.367
40534W        W12794   0.715  20.165   1.884
40535W        W12795  26.920   4.688  14.347
40536W        W12796  22.072  18.884  11.295
40537W        W12797  35.124  27.603   2.918
40538W        W12798  11.341   9.878   3.369
40539W        W12799  27.210  29.009   3.733
40540W        W12800  41.415   4.444   4.523
40541W        W12801  26.164   5.765   2.194
40542W        W12802   3.420  39.495  11.553
40543W        W12803   5.813  43.992  11.013
40544W        W12804  33.550  26.656   4.123
40545W        W12805   1.469   2.996  13.565
40546W        W12806  44.551  30.622   1.218
40547W        W12807  28.561  28.057   4.811
40548W        W12808  36.386  19.769  11.832
40549W        W12809  40.004  37.537   4.286
40550W        W12810  27.214  16.612  13.820
40551W        W12811   7.305  44.769  14.473
40552W        W12812  18.141  14.351   2.790
40553W        W12813  16.472  19.960  10.653
40554W        W12814  32.119   2.792   2.829
40555W        W12815   3.814  17.334   0.378
40556W        W12816  19.558  42.267   2.334
40557W        W12817   7.640   2.694  10.692
40558W        W12818  33.179  24.246  12.026
40559W        W12819  24.222  31.193  12.561
40560W        W12820  32.042   5.102   3.950
40561W        W12821   4.367  44.371   0.869
40562W        W12822  28.110  40.258   3.301
40563W        W12823   0.482  39.821  13.876
40564W        W12824  16.753  32.404  12.872
40565W        W12825  44.968  13.804  13.213
40566W        W12826  16.806  42.697   0.903
40567W        W12827   7.658   5.260   2.845
40568W        W12828   5.576  37.690   3.600
40569W        W12829  13.567  10.077  10.801
40570W        W12830  26.161  12.503   1.943
40571W        W12831  26.483  44.795  12.920
40572W        W12832  16.098  22.653   1.376
40573W        W12833  12.814  24.264  13.878
40574W        W12834  41.493  38.618   0.223
40575W        W12835  42.594  32.712   3.714
40576W        W12836  12.825  37.540   3.849
40577W        W12837  14.775  36.579  13.585
40578W        W12838  24.628   2.218   0.070
40579W        W12839  12.710   3.759   2.273
40580W        W12840  44.491  13.303  13.616
40581W        W12841  21.733  16.944   4.189
40582W        W12842  12.088  37.832   1.719
40583W        W12843   2.282  30.854   3.371
40584W        W12844  26.585  38.027  11.632
40585W        W12845   7.879  43.892   3.655
40586W        W12846  27.943   2.591  11.408
40587W        W12847  15.276  13.880  12.933
40588W        W12848  14.141   6.438   1.924
40589W        W12849  34.387  11.805  12.534
40590W        W12850  23.623  32.493   1.704
40591W        W12851  11.674  33.301   4.590
40592W        W12852  14.129  17.951  11.419
40593W        W12853   2.879  10.865  10.994
40594W        W12854  22.950  25.987   4.186
40595W        W12855  15.380   9.779  12.799
40596W        W12856  31.170   3.155  10.764
40597W        W12857  32.018  44.636   2.104
40598W        W12858  24.520  37.430  12.052
40599W        W12859  32.887  28.387   4.415
40600W        W12860  11.157  18.332   1.713
40601W        W12861  30.010  17.478  11.103
40602W        W12862   9.310  13.857  12.897
40603W        W12863  30.433  19.583   3.650
40604W        W12864   4.696  41.068  13.015
40605W        W12865   5.182  38.175  13.080
40606W        W12866  10.081  17.781  10.824
40607W        W12867   5.928  38.363   1.211
40608W        W12868  17.849  13.367  11.630
40609W        W12869  12.750  42.406  14.836
40610W        W12870  17.359  22.055   0.363
40611W        W12871   1.933  16.721   4.925
40612W        W12872  15.629  29.316  11.883
40613W        W12873  11.492  26.605   4.461
40614W        W12874  33.783  35.522  13.369
40615W        W12875  14.337  30.482  12.100
40616W        W12876  31.454  44.583   1.182
40617W        W12877  38.013   3.528   2.275
40618W        W12878  38.485  27.191   1.269
40619W        W12879  25.346  26.866   2.695
40620W        W12880  25.596  36.581  14.957
40621W        W12881   9.356  31.551  14.323
40622W        W12882  35.301  17.141  11.232
40623W        W12883   3.711  32.003  12.574
40624W        W12884  10.358  16.531   1.426
40625W        W12885  14.872  30.411  14.342
40626W        W12886  42.058  38.896  14.603
40627W        W12887  43.328  32.915  12.448
40628W        W12888  20.737  19.529  10.964
40629W        W12889  19.728  19.618  11.193
40630W        W12890   3.686  41.431  14.347
40631W        W12891  36.537  10.389   2.273
40632W        W12892  38.549   6.029   3.851
40633W        W12893  16.666  26.881  11.441
40634W        W12894  21.262   6.421   4.122
40635W        W12895  42.983  13.412   1.311
40636W        W12896  26.775   2.759  13.809
40637W        W12897   9.911  43.924  12.500
40638W        W12898  13.126   4.816   2.950
40639W        W12899  29.910   8.055   4.057
40640W        W12900  44.251  27.034  10.368
40641W        W12901  27.174  34.775   4.334
40642W        W12902  27.699  28.231  12.348
40643W        W12903  34.634  35.030   0.474
40644W        W12904  31.701   1.861  10.629
40645W        W12905  16.763  37.554   1.919
40646W        W12906  17.433   4.940   0.587
40647W        W12907  25.948  33.182  14.415
40648W        W12908  17.548  43.961   4.582
40649W        W12909  12.444  30.349   5.617
40650W        W12910   4.692  40.076   5.156
40651W        W12911  41.800   6.494  13.475
40652W        W12912  15.299  30.531  13.536
40653W        W12913  17.625  40.415   2.823
40654W        W12914  24.559  41.911   1.153
40655W        W12915  29.158   3.173  11.309
40656W        W12916  27.734  29.709   3.930
40657W        W12917  31.982  12.223  12.293
40658W        W12918  37.664  28.588  14.730
40659W        W12919  40.576  42.903  13.433
40660W        W12920  23.285   1.559  11.498
40661W        W12921  34.021   2.807   3.832
40662W        W12922  18.028  35.238   0.068
40663W        W12923  40.812  27.975  12.207
40664W        W12924   7.714  24.995  12.607
40665W        W12925  10.865   1.345  13.450
40666W        W12926  15.577  41.888  13.073
40667W        W12927  41.443  23.972   2.691
40668W        W12928   4.098   9.262  12.160
40669W        W12929  41.442  34.620   4.703
40670W        W12930  15.262  23.215   2.849
40671W        W12931  10.871  37.326   0.336
40672W        W12932  25.271  35.578   4.652
40673W        W12933  34.824   3.616  10.510
40674W        W12934  37.879  28.760  11.131
40675W        W12935  34.389  23.777  10.711
40676W        W12936  18.534  17.571  13.947
40677W        W12937  21.911  10.295   0.490
40678W        W12938  11.781   8.284   2.296
40679W        W12939  24.437  21.214   4.619
40680W        W12940  34.069   9.855  14.788
40681W        W12941  40.894  33.686  10.916
40682W        W12942  33.923  43.997  11.951
40683W        W12943  43.314  39.906  12.826
40684W        W12944  10.258  22.964   3.695
40685W        W12945  25.411   0.268  12.009
40686W        W12946  34.923  31.610  14.109
40687W        W12947  25.226   2.446   1.850
40688W        W12948  28.192  24.672   0.076
40689W        W12949  41.831   3.678   4.293
40690W        W12950  41.286  24.546  12.142
40691W        W12951  37.149  32.059  12.213
40692W        W12952  39.057   7.198  11.032
40693W        W12953   6.824  44.789   1.279
40694W        W12954   5.835   5.656   0.535
40695W        W12955  16.893   1.501   1.165
40696W        W12956  21.944  19.107   4.527
40697W        W12957  32.078  12.184  11.786
40698W        W12958  35.911   5.928   3.951
40699W        W12959  18.682  28.619   4.663
40700W        W12960  32.844  30.826   0.020
40701W        W12961  43.375  35.096   3.650
40702W        W12962  31.549  40.378   4.556
40703W        W12963  15.817  14.422   0.428
40704W        W12964  41.583  16.272   4.609
40705W        W12965  24.165  35.647   4.331
40706W        W12966  29.229  37.919   1.721
40707W        W12967  30.665  20.312  12.797
40708W        W12968  37.076  13.811  12.015
40709W        W12969  17.586  21.489   3.333
40710W        W12970   6.320   2.865   2.950
40711W        W12971  28.634  41.568  11.090
40712W        W12972  16.042  36.963  12.798
40713W        W12973  16.679   4.989   4.793
40714W        W12974  20.183  44.721   2.733
40715W        W12975  40.429   1.976  13.493
40716W        W12976  21.186   0.886  13.099
40717W        W12977  18.795  38.416  11.086
40718W        W12978   7.448  31.181  13.171
40719W        W12979  12.287  39.060  13.829
40720W        W12980  20.831  33.906   0.929
40721W        W12981  40.844  24.727  14.977
40722W        W12982  31.377  21.574  12.057
40723W        W12983   8.177  44.142  11.061
40724W        W12984  30.421   0.458   2.800
40725W        W12985  35.430  17.812  12.991
40726W        W12986  44.711   9.348  11.600
40727W        W12987  23.648  36.346   3.743
40728W        W12988  11.385  32.667  14.287
40729W        W12989   5.251  22.309  12.669
40730W        W12990  36.783  23.722   3.645
40731W        W12991  11.921  23.205  14.106
40732W        W12992  27.530  39.797  10.253
40733W        W12993  22.234   8.935   1.300
40734W        W12994  31.162  29.547   1.717
40735W        W12995   4.794   4.439  13.937
40736W        W12996   5.526   5.253  13.829
40737W        W12997  12.442   6.945   0.382
40738W        W12998   1.512  24.230   2.400
40739W        W12999   1.296  26.160   4.634
40740W        W13000  13.286   5.154   4.285
40741W        W13001  37.306   5.480   0.491
40742W        W13002  36.780  40.291  11.154
40743W        W13003  41.357  14.024  12.036
40744W        W13004   6.247  14.042   1.213
40745W        W13005  19.549  28.811   4.212
40746W        W13006  11.239   3.588  13.022
40747W        W13007  40.986   8.981   4.039
40748W        W13008  33.206  21.210  14.900
40749W        W13009   9.592  10.904   0.439
40750W        W13010   9.741  19.104   2.153
40751W        W13011  10.501  26.092   4.785
40752W        W13012   0.834  33.148  10.661
40753W        W13013  27.726   6.810  10.508
40754W        W13014  39.271  18.071  11.522
40755W        W13015  16.967  23.659   1.670
40756W        W13016  28.551  12.824  12.815
40757W        W13017  19.134  15.403  10.720
40758W        W13018  35.638  24.621  11.969
40759W        W13019   2.765  21.998   2.326
40760W        W13020   1.597   9.279  12.104
40761W        W13021   8.879  41.325   2.199
40762W        W13022  20.749  10.110   2.316
40763W        W13023  20.839  30.504   4.199
40764W        W13024  29.011  34.503  13.829
40765W        W13025  38.439  27.084   4.220
40766W        W13026   0.485  25.866   3.368
40767W        W13027  41.501  40.070   3.266
40768W        W13028  25.210  19.565  11.457
40769W        W13029  42.395   3.468  10.948
40770W        W13030  21.647  27.526   1.384
40771W        W13031   1.955  20.274  11.579
40772W        W13032  14.666   1.196   4.157
40773W        W13033  37.885  20.474  14.969
40774W        W13034  21.030  29.126  10.792
40775W        W13035   2.513  18.741  12.860
40776W        W13036   3.426  42.795  11.686
40777W        W13037  24.851  20.191  13.519
40778W        W13038  22.376   2.005   5.118
40779W        W13039  28.988  43.461  14.076
40780W        W13040  35.018   3.536  12.460
40781W        W13041  42.082  43.332   2.005
40782W        W13042   2.914  11.434  11.976
40783W        W13043  17.014  23.690  11.824
40784W        W13044  11.665  41.994  12.486
40785W        W13045  27.405  19.043  11.951
40786W        W13046   6.237  43.362   2.316
40787W        W13047  41.920   5.903  10.662
40788W        W13048   6.240  43.310  14.921
40789W        W13049   3.182   4.927   4.438
40790W        W13050  38.482  13.257   4.807
40791W        W13051  16.130   7.845   1.798
40792W        W13052  36.442  35.479   1.826
40793W        W13053  15.231  17.179   1.959
40794W        W13054  44.735  40.965   3.132
40795W        W13055  10.874  25.986   4.430
40796W        W13056  27.637  39.996   5.426
40797W        W13057  23.493  15.785   4.476
40798W        W13058  11.234  41.360  12.373
40799W        W13059  31.874  44.308  11.474
40800W        W13060   7.230  12.619  10.706
40801W        W13061  16.658  21.342  10.675
40802W        W13062   8.345  13.733  11.818
40803W        W13063  37.413  42.982  13.539
40804W        W13064  24.382  19.144  13.895
40805W        W13065  31.616  43.892  11.623
40806W        W13066   6.260  30.645  14.253
40807W        W13067  10.330  24.884  13.878
40808W        W13068  15.222  39.859   4.096
40809W        W13069  27.521   5.729  12.513
40810W        W13070  26.753   2.367  11.141
40811W        W13071  20.474  43.987  12.149
40812W        W13072  22.597  38.050  13.457
40813W        W13073  44.265  20.966   4.168
40814W        W13074   9.155   2.446   0.128
40815W        W13075  23.908   1.693  11.816
40816W        W13076  19.992  33.579  12.918
40817W        W13077   7.668  30.122  13.976
40818W        W13078  20.013  15.543  13.907
40819W        W13079  21.006   6.687  12.422
40820W        W13080   1.275  30.901  13.027
40821W        W13081  10.912  38.931   0.220
40822W        W13082  27.897  39.361  10.148
40823W        W13083  43.000  40.444   0.031
40824W        W13084  31.228  22.291   4.192
40825W        W13085  11.587  23.542   0.471
40826W        W13086  18.373  34.754  12.665
40827W        W13087  26.048  17.281  13.860
40828W        W13088  22.186  27.497  13.736
40829W        W13089  33.303  25.382  11.565
40830W        W13090  31.535   3.674   4.474
40831W        W13091  44.207  13.715  13.753
40832W        W13092  26.976   0.237  12.608
40833W        W13093  26.516  25.790   4.366
40834W        W13094   1.727  20.728  11.611
40835W        W13095   5.668  20.147   4.404
40836W        W13096  21.735  18.683  14.360
40837W        W13097   6.022  31.090  11.652
40838W        W13098  29.269   2.052   2.788
40839W        W13099  29.458   0.855  10.683
40840W        W13100  39.842  41.173   4.171
40841W        W13101  21.823   2.822  13.821
40842W        W13102  29.356  20.628   4.654
40843W        W13103   3.910  27.964   3.676
40844W        W13104  16.312  13.165  11.542
40845W        W13105  42.288  42.927  11.940
40846W        W13106  40.848  16.221   2.968
40847W        W13107  44.446  44.910  13.806
40848W        W13108  42.332  25.991  12.689
40849W        W13109   6.663   0.722   3.907
40850W        W13110  40.829  37.395  11.531
40851W        W13111  28.999  38.496  12.277
40852W        W13112  41.296   8.853   2.297
40853W        W13113  16.618  10.725  14.148
40854W        W13114  42.307   7.778   4.285
40855W        W13115  35.042  27.678  12.986
40856W        W13116  32.046  23.912   5.019
40857W        W13117  42.395  22.693   1.330
40858W        W13118  29.941   5.691   0.774
40859W        W13119  17.654  12.413   3.210
40860W        W13120   6.826  30.775   3.168
40861W        W13121   3.616  10.629  11.983
40862W        W13122  26.955  23.700   4.411
40863W        W13123  21.238  33.275  13.567
40864W        W13124  39.047   1.266  10.988
40865W        W13125  10.659  34.525  12.315
40866W        W13126  40.449   6.710   3.753
40867W        W13127  43.885  19.728   1.870
40868W        W13128  33.199  38.114   4.126
40869W        W13129  21.118  19.473   4.709
40870W        W13130  36.607   4.926   2.903
40871W        W13131  34.799   1.243  12.037
40872W        W13132  39.954  21.979  11.219
40873W        W13133   9.283  42.957   4.622
40874W        W13134  42.169  32.033  14.066
40875W        W13135   3.271   9.120   1.462
40876W        W13136  28.122  39.065   3.776
40877W        W13137   0.910  13.604  12.899
40878W        W13138   6.754  39.842  14.926
40879W        W13139  19.026   2.010  11.953
40880W        W13140  19.986   4.097  10.880
40881W        W13141   7.329  28.917   1.203
40882W        W13142   7.929  33.624  10.727
40883W        W13143   1.757  14.130  11.586
40884W        W13144  32.868  30.011  12.822
40885W        W13145   3.178  41.447  14.113
40886W        W13146  29.993  21.381   1.435
40887W        W13147  25.478  31.020   2.418
40888W        W13148  31.055   7.117   0.752
40889W        W13149   3.348  42.601  12.462
40890W        W13150  30.783  36.904  11.892
40891W        W13151  26.521  10.597  13.852
40892W        W13152  11.408   5.164  12.631
40893W        W13153   7.753   9.736   4.018
40894W        W13154  10.276  39.796   1.359
40895W        W13155  42.527   9.319   1.729
40896W        W13156  32.766  37.527  14.463
40897W        W13157  15.035  22.772  11.484
40898W        W13158  42.888  11.480  10.487
40899W        W13159  33.887  25.697   3.196
40900W        W13160   6.556  32.825   3.616
40901W        W13161   5.097  28.079  11.058
40902W        W13162   4.480  15.333   3.823
40903W        W13163   4.247  22.876  13.768
40904W        W13164   2.981  20.037   0.418
40905W        W13165  13.756  21.971   0.215
40906W        W13166  30.867  44.085  11.120
40907W        W13167  21.708  21.733  11.535
40908W        W13168  33.036  30.473  13.045
40909W        W13169  20.707  36.326   2.418
40910W        W13170  24.556  17.578   2.508
40911W        W13171  37.641  16.134   3.215
40912W        W13172  38.520   2.581  10.790
40913W        W13173  34.513  40.395  11.503
40914W        W13174  26.952  33.882  13.481
40915W        W13175   3.921  24.130   1.931
40916W        W13176  25.954  32.023   0.445
40917W        W13177  18.391  41.175  10.532
40918W        W13178   8.617  36.808  12.773
40919W        W13179   7.295  26.143   1.236
40920W        W13180   1.369   1.620  10.501
40921W        W13181  28.882   0.704  11.885
40922W        W13182  31.940  35.292   2.178
40923W        W13183   5.420  39.762   3.636
40924W        W13184   7.171   4.304  14.672
40925W        W13185  42.556   8.444  12.874
40926W        W13186  37.732  18.632   4.320
40927W        W13187   4.315  37.614   3.649
40928W        W13188   4.773  37.348  11.895
40929W        W13189   8.287  20.680  11.251
40930W        W13190  41.028  41.016  11.620
40931W        W13191  17.564  39.674  12.913
40932W        W13192  30.559  24.130   1.400
40933W        W13193  12.409  15.778  13.853
40934W        W13194   7.594  14.687  14.860
40935W        W13195  33.143  24.645  12.972
40936W        W13196  43.709   5.186  14.880
40937W        W13197  22.196  30.496  12.197
40938W        W13198   0.734   5.163   3.355
40939W        W13199  44.799  26.342   1.904
40940W        W13200   0.233  21.642   2.164
40941W        W13201  42.186  35.368  12.486
40942W        W13202  30.006   4.748  12.074
40943W        W13203   7.493  16.969   5.058
40944W        W13204  33.469  33.867   3.643
40945W        W13205  13.840  14.656   2.158
40946W        W13206   3.881  38.964  11.147
40947W        W13207  20.603  31.522  12.519
40948W        W13208  20.151  40.872   4.154
40949W        W13209  20.022  11.302   4.142
40950W        W13210  23.084  33.785  13.009
40951W        W13211   1.444  10.452   1.887
40952W        W13212  16.502  27.534  14.486
40953W        W13213  14.586   8.281   1.711
40954W        W13214  17.414   6.963   5.038
40955W        W13215  36.895  36.473   4.591
40956W        W13216   5.729  37.829  12.531
40957W        W13217   2.829   5.291   1.274
40958W        W13218  37.036  36.361   1.701
40959W        W13219  30.896  12.550  14.451
40960W        W13220  43.253  19.639   1.364
40961W        W13221  35.845   4.038  11.792
40962W        W13222  28.521  38.126   3.274
40963W        W13223  31.121  21.602   1.813
40964W        W13224  41.565   5.699   2.260
40965W        W13225  16.674  22.589   4.302
40966W        W13226  40.136  36.455   1.415
40967W        W13227  31.219  11.586  14.468
40968W        W13228  31.600  28.682  12.692
40969W        W13229  41.051  42.789   0.999
40970W        W13230   4.682  43.207  10.156
40971W        W13231  21.026   7.216  14.024
40972W        W13232  36.788   1.848  13.340
40973W        W13233   0.041  30.030  14.474
40974W        W13234  25.100  44.001  14.535
40975W        W13235  40.414   2.705   4.642
40976W        W13236  20.766   3.231   4.184
40977W        W13237   0.726  22.741  12.451
40978W        W13238   7.628  16.670   1.195
40979W        W13239   9.897  19.752   4.880
40980W        W13240  17.572  42.585   4.786
40981W        W13241  42.188  36.341   2.242
40982W        W13242  28.971  28.031   1.984
40983W        W13243   1.612  15.871   5.173
40984W        W13244  39.024  10.763  12.884
40985W        W13245   5.424   1.939   4.042
40986W        W13246  13.542  29.165   1.036
40987W        W13247  41.560   2.925   3.224
40988W        W13248   8.596   2.977  14.594
40989W        W13249  26.443   6.740  10.965
40990W        W13250   3.990  12.136  12.821
40991W        W13251   2.253  13.705   3.362
40992W        W13252   1.120  16.728  14.183
40993W        W13253  20.479  24.539  12.033
40994W        W13254  27.578  39.275  14.863
40995W        W13255  23.585  10.060   5.059
40996W        W13256  42.495  19.512   0.570
40997W        W13257  37.888   0.214   3.616
40998W        W13258  15.619  28.342  11.996
40999W        W13259  12.766  36.791   3.225
41000W        W13260  44.904   0.401   0.482
41001W        W13261  38.515   5.000   0.877
41002W        W13262   8.857  13.407   4.615
41003W        W13263  10.662  17.044   4.771
41004W        W13264   5.324  20.657   0.187
41005W        W13265  44.345  27.882  11.817
41006W        W13266  35.042  34.433   2.236
41007W        W13267  35.810   3.760   4.745
41008W        W13268  36.891  30.594  14.503
41009W        W13269  22.001  19.361  14.164
41010W        W13270  43.257  28.574  10.718
41011W        W13271  39.471   8.390   1.456
41012W        W13272  43.831   3.339  10.367
41013W        W13273  17.166  31.260   4.397
41014W        W13274  21.214  26.123   0.238
41015W        W13275   3.244  13.534   1.864
41016W        W13276  37.537  19.979  10.663
41017W        W13277  11.621  35.717  11.241
41018W        W13278   9.650  10.466  11.724
41019W        W13279  14.377  30.665  12.965
41020W        W13280  19.053  44.791  12.595
41021W        W13281  26.034  24.616   3.032
41022W        W13282  37.478  38.630  14.465
41023W        W13283   4.180  11.781   0.001
41024W        W13284  33.692  33.264  13.725
41025W        W13285  41.262  21.897  11.539
41026W        W13286  16.313   1.711   3.176
41027W        W13287  42.296  28.583   3.057
41028W        W13288  20.557  35.473  12.528
41029W        W13289  17.675  14.562   0.352
41030W        W13290  34.517  43.956  13.627
41031W        W13291  25.684  22.196   1.731
41032W        W13292  14.907  37.450   4.567
41033W        W13293   1.957  19.551  12.911
41034W        W13294  36.503  24.985  13.781
41035W        W13295   5.948  24.515   4.196
41036W        W13296  16.999  37.443   0.863
41037W        W13297  44.006  17.197  13.099
41038W        W13298   4.621  31.190   0.442
41039W        W13299   1.035  26.694  11.140
41040W        W13300  10.718  12.330   4.324
41041W        W13301  31.960  11.829   2.810
41042W        W13302  44.949  42.368  14.016
41043W        W13303   7.940   7.664  11.686
41044W        W13304  15.213  12.822   0.648
41045W        W13305  10.931  13.648   4.849
41046W        W13306  12.637  14.662  13.379
41047W        W13307   4.412   8.413  14.462
41048W        W13308  17.826   1.333   3.152
41049W        W13309   0.521  16.029  12.863
41050W        W13310  13.359   6.393  12.924
41051W        W13311  35.107  13.592  10.670
41052W        W13312  13.814  19.229   3.787
41053W        W13313   8.201  12.888   4.900
41054W        W13314  41.346  32.961  14.602
41055W        W13315  29.604  11.161   4.607
41056W        W13316  26.141  29.442  11.191
41057W        W13317   1.008   5.684  14.430
41058W        W13318   6.130  39.271   2.740
41059W        W13319  32.944  44.342  12.525
41060W        W13320  39.050   6.706   0.692
41061W        W13321  18.556  13.846   4.613
41062W        W13322  38.814  11.792  11.116
41063W        W13323   2.716   5.766   3.652
41064W        W13324  18.833  35.888  11.906
41065W        W13325   1.299  42.006  10.570
41066W        W13326  22.915  22.528  11.445
41067W        W13327  33.969   3.946   1.995
41068W        W13328  20.252  17.266   1.898
41069W        W13329  40.026  24.606   2.175
41070W        W13330   9.841  31.848   2.382
41071W        W13331  34.117  41.364  12.626
41072W        W13332  22.590  13.373   0.402
41073W        W13333  34.104   0.341  13.940
41074W        W13334   5.227  10.348  10.429
41075W        W13335  43.370  15.238   0.919
41076W        W13336   1.726  38.583   3.635
41077W        W13337  42.266  34.051  11.616
41078W        W13338  22.770  32.108   3.723
41079W        W13339  29.207  38.641   1.335
41080W        W13340  27.499  10.445   4.498
41081W        W13341  25.530  10.945  13.985
41082W        W13342   3.970   3.710  13.530
41083W        W13343  40.442   5.289   4.895
41084W        W13344   9.224  23.037  14.525
41085W        W13345  32.855   9.724   0.332
41086W        W13346  30.647  22.121  10.801
41087W        W13347  11.484  17.380   1.434
41088W        W13348  33.409  24.031   0.521
41089W        W13349  21.766  22.315   5.054
41090W        W13350   5.167   4.776  14.914
41091W        W13351   0.259   7.657   4.090
41092W        W13352  22.909  26.849  13.114
41093W        W13353  15.058  22.328   2.736
41094W        W13354  26.395  32.592  12.951
41095W        W13355  35.163  18.716  13.576
41096W        W13356  22.100   6.299  12.143
41097W        W13357  24.679   8.373   3.730
41098W        W13358   0.175  12.220   1.843
41099W        W13359  26.159  13.899   0.097
41100W        W13360   1.802  38.318   0.321
41101W        W13361  40.587  25.245  14.115
41102W        W13362  26.003  15.335  10.978
41103W        W13363  40.509  22.691  12.779
41104W        W13364  13.118  26.886   4.214
41105W        W13365   9.880  10.243   1.846
41106W        W13366  19.090   0.839  13.387
41107W        W13367  28.954  32.748  10.723
41108W        W13368  18.754  28.409  13.890
41109W        W13369  30.611  25.045   1.362
41110W        W13370  24.694  38.687  11.624
41111W        W13371   8.828  11.610   0.280
41112W        W13372  35.324  33.891   0.935
41113W        W13373  21.087  39.404  11.567
41114W        W13374   4.848  34.298  13.040
41115W        W13375  28.906  32.561   3.342
41116W        W13376  19.630  38.800  14.802
41117W        W13377   8.185   8.732   1.711
41118W        W13378  38.819   3.946   3.331
41119W        W13379  21.480  20.052  14.275
41120W        W13380  19.059  13.867  11.561
41121W        W13381   8.152   0.389  11.610
41122W        W13382  44.833   8.284  11.231
41123W        W13383  31.545   1.487   0.832
41124W        W13384  12.606  40.218  12.400
41125W        W13385   6.850   5.450   2.309
41126W        W13386  37.927  38.483   2.840
41127W        W13387   8.416  19.057   1.394
41128W        W13388   0.284  39.306  12.952
41129W        W13389  29.719  13.252   0.286
41130W        W13390  31.984  23.396   2.195
41131W        W13391   6.760  23.706   4.144
41132W        W13392  12.063  29.721   4.955
41133W        W13393  10.530  22.782  14.619
41134W        W13394   4.225  37.268   1.871
41135W        W13395  19.620   1.466  14.902
41136W        W13396  10.716  16.440   2.825
41137W        W13397  12.840  42.495  13.558
41138W        W13398  41.790  34.867  11.136
41139W        W13399  33.069   2.834  10.728
41140W        W13400  40.398  40.466  12.944
41141W        W13401  21.127   9.761   1.326
41142W        W13402  27.894  40.353   0.877
41143W        W13403  14.043   1.140   5.060
41144W        W13404  44.976  34.321  11.869
41145W        W13405  34.890  21.776  10.893
41146W        W13406  30.250  17.687   0.398
41147W        W13407  13.558  30.953   5.564
41148W        W13408  23.946  24.184  11.862
41149W        W13409  42.911   6.224  13.981
41150W        W13410  28.019  38.039   4.586
41151W        W13411  15.653  35.547  13.417
41152W        W13412  11.893   4.616   2.637
41153W        W13413  30.995  23.695  12.045
41154W        W13414  44.551  17.555  12.616
41155W        W13415  22.264  24.984   1.429
41156W        W13416  15.718  16.241   4.649
41157W        W13417  12.652  26.910   0.849
41158W        W13418  28.094  39.301   0.709
41159W        W13419  29.514  28.205  13.758
41160W        W13420  19.430  17.629   1.869
41161W        W13421  23.000  17.113  12.132
41162W        W13422   7.363   8.257  14.645
41163W        W13423  38.634   2.458  13.447
41164W        W13424  43.997   9.775  13.522
41165W        W13425  10.802  33.954   3.546
41166W        W13426  25.188  32.728  12.354
41167W        W13427  33.027  27.190  13.015
41168W        W13428  23.281  11.846  14.467
41169W        W13429  23.735  26.638  12.079
41170W        W13430  10.654  10.008   4.065
41171W        W13431  33.742  25.229  11.030
41172W        W13432  31.492  37.330  10.345
41173W        W13433   9.719  43.853  13.363
41174W        W13434  40.454  38.261  13.389
41175W        W13435   5.601   2.159  12.081
41176W        W13436  38.030  38.970  12.897
41177W        W13437  25.380  43.374   4.187
41178W        W13438  26.540  13.114   2.197
41179W        W13439  30.226  41.655  12.012
41180W        W13440  28.103  20.214   2.620
41181W        W13441  28.402  30.180   3.116
41182W        W13442  36.576  22.810   1.476
41183W        W13443  28.617  22.836   0.785
41184W        W13444  30.472  34.530   1.979
41185W        W13445  21.209  23.304  12.382
41186W        W13446  13.720  29.094   3.283
41187W        W13447   3.835  19.122  14.528
41188W        W13448  11.604   4.699  11.231
41189W        W13449  28.298  11.579  12.600
41190W        W13450  19.917   9.842   3.676
41191W        W13451  14.030   5.197  13.980
41192W        W13452  35.794  44.417  11.909
41193W        W13453  21.219  31.179  11.520
41194W        W13454   5.261  40.996  14.882
41195W        W13455  23.661  18.559   3.959
41196W        W13456   6.235   2.209  10.722
41197W        W13457  38.444  39.287   4.264
41198W        W13458  31.880  16.657   3.507
41199W        W13459  31.873  26.626  10.920
41200W        W13460   5.718  32.927   0.843
41201W        W13461  20.038  27.567   2.927
41202W        W13462  41.131  22.526  11.050
41203W        W13463   0.900  40.114  14.092
41204W        W13464  44.997  16.190  13.998
41205W        W13465   1.380  23.641  11.908
41206W        W13466  31.900  30.483  11.594
41207W        W13467  33.335  16.722   3.262
41208W        W13468   9.664  33.890  13.823
41209W        W13469  15.583  44.738  14.870
41210W        W13470  11.765  39.895   0.569
41211W        W13471  27.241  41.802   0.539
41212W        W13472   3.972   0.542   4.196
41213W        W13473  10.251  13.599  13.295
41214W        W13474  33.321   3.416   3.175
41215W        W13475   7.480   4.043  13.752
41216W        W13476  38.118  19.058  12.691
41217W        W13477  37.979   7.936   1.141
41218W        W13478  38.370  35.782  13.248
41219W        W13479  29.581  38.266   1.807
41220W        W13480  28.618  44.732   3.622
41221W        W13481  15.987  43.198   1.387
41222W        W13482  15.043  19.688   1.754
41223W        W13483  20.951  31.843  13.869
41224W        W13484  19.120  36.909  14.024
41225W        W13485   2.752  37.266  11.972
41226W        W13486  29.460   1.466  11.411
41227W        W13487  20.749  26.730   0.053
41228W        W13488  19.764   8.740  13.242
41229W        W13489  37.553  30.674   3.161
41230W        W13490  43.286  40.009   4.578
41231W        W13491  39.427   2.068  12.702
41232W        W13492  14.438  31.648   3.413
41233W        W13493   4.674  32.572  11.953
41234W        W13494  30.986  22.078   4.594
41235W        W13495  42.842  43.219  13.854
41236W        W13496  39.932   2.653   0.018
41237W        W13497  15.735  20.884   4.698
41238W        W13498  12.833  23.625  12.074
41239W        W13499  21.052  44.080  14.485
41240W        W13500  25.947   8.351  13.951
41241W        W13501  11.287  44.961  10.478
41242W        W13502  14.941   5.731   0.036
41243W        W13503  43.572  30.023   3.173
41244W        W13504  20.749  32.006  13.351
41245W        W13505  35.137  41.655   1.153
41246W        W13506  21.468   6.358  13.454
41247W        W13507  27.430  28.435  11.902
41248W        W13508  17.083  44.850   3.547
41249W        W13509   0.532  31.431  11.751
41250W        W13510  19.157   5.249   1.338
41251W        W13511  31.126  16.698   0.312
41252W        W13512   3.629  37.553  11.063
41253W        W13513  11.583  25.095  10.806
41254W        W13514  25.446  29.950  11.942
41255W        W13515   1.804  21.555   3.290
41256W        W13516  30.495  25.457  14.326
41257W        W13517  17.159   9.072   2.820
41258W        W13518  14.822  35.774   2.441
41259W        W13519  24.830  35.469  11.977
41260W        W13520  21.607  24.748   1.719
41261W        W13521  41.940  26.440  14.498
41262W        W13522  41.252  14.455   3.094
41263W        W13523  35.584  43.758   4.252
41264W        W13524   4.534   4.927  14.430
41265W        W13525  17.281   8.355   3.203
41266W        W13526  23.300  27.068   4.247
41267W        W13527  13.507  13.770  12.850
41268W        W13528   7.981  36.543  14.062
41269W        W13529   2.342   6.355  11.439
41270W        W13530  38.896  40.523  11.586
41271W        W13531  34.098  27.196   3.595
41272W        W13532   7.945   6.335  11.909
41273W        W13533  15.722  38.050   1.495
41274W        W13534  33.826  33.552   3.179
41275W        W13535  26.577  22.832  11.505
41276W        W13536  12.825  19.675   2.151
41277W        W13537  42.416   4.211   2.923
41278W        W13538  37.555   9.243   3.130
41279W        W13539  42.659   4.899   4.113
41280W        W13540  32.104   8.780  10.638
41281W        W13541  34.038  33.602   2.722
41282W        W13542  15.372   1.900  11.682
41283W        W13543  31.537  43.718   3.675
41284W        W13544  16.296   7.309   3.328
41285W        W13545  35.100  34.370  13.841
41286W        W13546  44.827  41.084   4.737
41287W        W13547   2.763  24.356  11.164
41288W        W13548  17.715  24.653  14.969
41289W        W13549  30.822  22.566   4.475
41290W        W13550  41.284  19.210  11.521
41291W        W13551  40.102  36.374  13.570
41292W        W13552  11.707   0.082   1.218
41293W        W13553   3.379   2.350  14.157
41294W        W13554  13.354  26.196   3.194
41295W        W13555  30.737   5.321  11.964
41296W        W13556  37.378  13.066   2.789
41297W        W13557  39.004  31.881   3.294
41298W        W13558  12.802   0.171   1.150
41299W        W13559  29.051  24.890   2.265
41300W        W13560  31.129  11.575   0.960
41301W        W13561  44.753  31.946  11.503
41302W        W13562  19.377  24.342   0.322
41303W        W13563  10.120  35.595   0.773
41304W        W13564  29.567  33.367   3.201
41305W        W13565  32.492  16.210  11.863
41306W        W13566  27.525  27.389   1.235
41307W        W13567   3.247   7.435  14.994
41308W        W13568  44.739   7.239  11.117
41309W        W13569  27.417  37.930   0.533
41310W        W13570  30.591  22.677   2.364
41311W        W13571   9.324  44.663   3.304
41312W        W13572  20.037  16.759   2.713
41313W        W13573  31.214  20.709  10.651
41314W        W13574  15.944  26.021  14.858
41315W        W13575  40.263  11.716  13.509
41316W        W13576  31.542  40.506  14.432
41317W        W13577  36.532  30.561  10.568
41318W        W13578  30.674  35.141   1.377
41319W        W13579  13.668   8.840  11.848
41320W        W13580  37.641  27.970   4.185
41321W        W13581   8.125  11.209   4.344
41322W        W13582  43.349  24.254  12.588
41323W        W13583  27.488   7.788  13.481
41324W        W13584  32.060  17.154   4.895
41325W        W13585  18.984  39.621  11.541
41326W        W13586  19.311  32.855  13.631
41327W        W13587  23.654  30.930  11.869
41328W        W13588  22.742  10.902  13.075
41329W        W13589  41.247  23.165   0.235
41330W        W13590  38.027  39.572  13.554
41331W        W13591   9.183  37.733   0.755
41332W        W13592  10.817  25.544  10.588
41333W        W13593  33.145  22.692  12.962
41334W        W13594   6.114   5.836  13.411
41335W        W13595  10.974  32.985   3.912
41336W        W13596  30.605   9.618   4.527
41337W        W13597  34.074   2.925   1.213
41338W        W13598  33.396  41.321  14.892
41339W        W13599   7.755  36.640  10.777
41340W        W13600  39.597   2.533  12.573
41341W        W13601  29.039  37.796   0.544
41342W        W13602  43.301  22.764   1.359
41343W        W13603  27.148  11.176   0.858
41344W        W13604  33.436   7.785   0.468
41345W        W13605  18.083  34.884  11.434
41346W        W13606  40.400  26.107  10.601
41347W        W13607  44.956   9.172  14.881
41348W        W13608  22.042  35.063   2.774
41349W        W13609   7.317  22.285  13.443
41350W        W13610  28.642  31.449  13.311
41351W        W13611  29.218  13.378   0.133
41352W        W13612   9.418  14.035   0.826
41353W        W13613  24.577  11.531  14.101
41354W        W13614  24.893  25.198  14.001
41355W        W13615  11.865  23.077   3.392
41356W        W13616  16.943  44.969  14.808
41357W        W13617   1.456  39.922   1.285
41358W        W13618   7.451  17.570  12.112
41359W        W13619  27.194  32.006  12.425
41360W        W13620  27.596  32.069   3.312
41361W        W13621   0.438  34.514  13.587
41362W        W13622  18.260  44.865   4.449
41363W        W13623  27.405  14.729   0.443
41364W        W13624  11.526  18.132   0.325
41365W        W13625  42.290   8.229   0.296
41366W        W13626  32.695  35.356  14.301
41367W        W13627  32.038  32.302   3.679
41368W        W13628  12.897  32.511   0.577
41369W        W13629   8.646  28.219  10.560
41370W        W13630  11.555  25.668   4.237
41371W        W13631  44.117  20.693   1.956
41372W        W13632  31.911  36.742   2.244
41373W        W13633   9.455  11.218  12.393
41374W        W13634  35.883  17.213   1.824
41375W        W13635  17.813  23.315   4.429
41376W        W13636   1.443  11.651  10.697
41377W        W13637  37.529  43.470   3.538
41378W        W13638  32.345  40.859  13.382
41379W        W13639   2.899  28.006   2.488
41380W        W13640  15.951   0.698  12.012
41381W        W13641  31.420  30.659   2.473
41382W        W13642  29.038  35.611   4.619
41383W        W13643   8.774  20.543  13.408
41384W        W13644  13.535   6.006   3.170
41385W        W13645  44.909  20.244  10.694
41386W        W13646  37.458  33.772   3.623
41387W        W13647  28.368  41.723  12.372
41388W        W13648  37.562  19.757   2.112
41389W        W13649  23.605  11.195   1.967
41390W        W13650  11.307  29.384   3.196
41391W        W13651   6.664  34.858   1.119
41392W        W13652  44.210  42.526   3.768
41393W        W13653   6.407   3.469   0.321
41394W        W13654  37.084   9.310   2.895
41395W        W13655  26.402  22.219   2.079
41396W        W13656  38.556  14.651  13.295
41397W        W13657  43.500  41.039  10.684
41398W        W13658  24.509  27.662  13.953
41399W        W13659  22.543   0.823   3.726
41400W        W13660  27.000  19.722   2.395
41401W        W13661  40.862  37.807   0.875
41402W        W13662  34.534  32.376  14.456
41403W        W13663  37.479   9.770   0.542
41404W        W13664  32.914  39.428  10.682
41405W        W13665  17.016   0.761   4.194
41406W        W13666  30.254   3.829  11.914
41407W        W13667  12.735  29.523   1.743
41408W        W13668  34.951   8.169  12.475
41409W        W13669   8.752  28.380  12.988
41410W        W13670  21.147  28.438   3.563
41411W        W13671   2.964  31.039   0.957
41412W        W13672  35.553  20.572  11.138
41413W        W13673  40.218   9.134   1.965
41414W        W13674  42.288  17.482  11.100
41415W        W13675   1.924  13.147   1.102
41416W        W13676  19.325  43.777   3.764
41417W        W13677  40.855  38.469  11.108
41418W        W13678   4.937  23.959  13.876
41419W        W13679   3.814  41.854   3.258
41420W        W13680   3.321  33.114   0.520
41421W        W13681  10.232  23.761  13.560
41422W        W13682  31.762  35.397   0.764
41423W        W13683  23.918   5.015  11.194
41424W        W13684  24.426  10.331  10.687
41425W        W13685  29.471  32.662   4.202
41426W        W13686   6.401   2.879  12.564
41427W        W13687  19.367   8.364   5.565
41428W        W13688  15.724  26.714   1.432
41429W        W13689  27.201  39.602  14.946
41430W        W13690   0.420  22.595  10.601
41431W        W13691   3.724   0.625   3.229
41432W        W13692  24.655  36.970   1.769
41433W        W13693  11.242  34.800  14.741
41434W        W13694   4.360   5.214   1.552
41435W        W13695  12.579  33.052   1.315
41436W        W13696  16.224  40.903  14.036
41437W        W13697   6.242  25.475   9.878
41438W        W13698  34.417  31.532  14.003
41439W        W13699  43.747  11.448  13.386
41440W        W13700   0.505   4.766  14.985
41441W        W13701  15.135   4.384   1.196
41442W        W13702  25.555  31.110   3.873
41443W        W13703   7.211  30.686   4.247
41444W        W13704  26.148   6.084  13.452
41445W        W13705   7.962  30.338   2.775
41446W        W13706  26.219  43.110   3.157
41447W        W13707  38.418  28.473  11.638
41448W        W13708   6.636  16.640   0.354
41449W        W13709  23.967  14.134   0.775
41450W        W13710  14.729  42.301   0.685
41451W        W13711  29.944  29.163   4.173
41452W        W13712  40.126  30.519  14.735
41453W        W13713  27.346  20.502   0.216
41454W        W13714  41.435  11.697  14.972
41455W        W13715  44.807  37.536   3.808
41456W        W13716  39.330   5.999  13.059
41457W        W13717   0.698  16.388   1.517
41458W        W13718   4.857  18.496   2.788
41459W        W13719  39.845  42.432   0.005
41460W        W13720  20.566  30.083   4.084
41461W        W13721  24.184  34.338   2.548
41462W        W13722  27.306  39.521   2.368
41463W        W13723  36.969  23.945  14.052
41464W        W13724  10.282  25.216   2.231
41465W        W13725  18.592   1.840  12.182
41466W        W13726  25.756  32.198   0.908
41467W        W13727  14.876  18.210  12.918
41468W        W13728  42.003  22.206   2.517
41469W        W13729   7.667  34.415  11.217
41470W        W13730  19.192  20.702   4.149
41471W        W13731  13.261  29.494  14.871
41472W        W13732  20.987  15.116  10.787
41473W        W13733  31.035  41.490   4.681
41474W        W13734   9.623  31.909  11.830
41475W        W13735  35.400  16.633   2.309
41476W        W13736  27.499  10.442  11.140
41477W        W13737  34.893   0.933   5.159
41478W        W13738  19.053   7.457  10.235
41479W        W13739  21.226   1.620  13.679
41480W        W13740  10.402   5.293   0.784
41481W        W13741   5.722  37.825   0.374
41482W        W13742  39.348  19.967  11.883
41483W        W13743  14.778  35.157   4.932
41484W        W13744  29.600  10.686   3.738
41485W        W13745  30.429   7.679  13.931
41486W        W13746  25.405  18.510  11.094
41487W        W13747  15.081  42.330  10.599
41488W        W13748  22.022  34.510  11.227
41489W        W13749  43.929  19.200   1.779
41490W        W13750  10.249  32.441  14.164
41491W        W13751   4.713   2.997   0.390
41492W        W13752   8.665  31.164  11.551
41493W        W13753  38.504   2.254  14.335
41494W        W13754   1.383  37.995   0.423
41495W        W13755  25.814  10.691  10.631
41496W        W13756  14.937  43.254   1.003
41497W        W13757  28.044  19.238  12.367
41498W        W13758  38.623  35.130   2.077
41499W        W13759  38.399  24.202  13.042
41500W        W13760  13.834  33.876  11.234
41501W        W13761  13.181  18.973  14.006
41502W        W13762  18.589  12.731  12.509
41503W        W13763  10.675   4.141  13.440
41504W        W13764  18.781  40.657   1.618
41505W        W13765   6.406   9.072  11.220
41506W        W13766  21.279  13.227   4.979
41507W        W13767  24.947  37.912  14.687
41508W        W13768  35.999   5.204   0.857
41509W        W13769  34.519   7.013   1.911
41510W        W13770  29.154  24.252  11.101
41511W        W13771  38.528  17.179   1.924
41512W        W13772  23.690   4.889  13.322
41513W        W13773  43.377  21.613   4.131
41514W        W13774  38.854  38.427   1.776
41515W        W13775   3.030  29.630  11.990
41516W        W13776  19.149  39.606  13.902
41517W        W13777  34.846   8.141   1.147
41518W        W13778  11.615   9.205   3.867
41519W        W13779   9.343   8.573   5.077
41520W        W13780  37.889  35.293  12.454
41521W        W13781   2.853   4.208  12.399
41522W        W13782  39.660  23.687   0.415
41523W        W13783   7.156  31.544  11.165
41524W        W13784  36.974  21.754  10.765
41525W        W13785  16.254  15.748   3.794
41526W        W13786  35.569  23.247  14.186
41527W        W13787  16.871  27.845  10.570
41528W        W13788  23.073  20.255   3.706
41529W        W13789  14.657  12.379   2.891
41530W        W13790   7.470  17.095  12.782
41531W        W13791  24.444   3.482   2.386
41532W        W13792  27.749  16.784  10.675
41533W        W13793  41.130  40.100   0.393
41534W        W13794  40.382  43.839  11.596
41535W        W13795  10.788  31.819  14.777
41536W        W13796  20.596  30.387   2.682
41537W        W13797  30.389   8.584  14.004
41538W        W13798  37.664  41.296   2.435
41539W        W13799  16.630  13.489  11.248
41540W        W13800   5.894  35.402  13.922
41541W        W13801  42.332   4.474  13.109
41542W        W13802  40.457   8.337  11.029
41543W        W13803  17.529  13.062   2.815
41544W        W13804  10.866  29.182   1.385
41545W        W13805  42.360  16.830   0.461
41546W        W13806  38.136  41.972  10.750
41547W        W13807   3.188  24.655  11.113
41548W        W13808  21.107  19.382   2.781
41549W        W13809  33.988  44.489  12.576
41550W        W13810  20.119  10.258  14.840
41551W        W13811  43.515   5.900   2.118
41552W        W13812  13.667   9.585   0.668
41553W        W13813  38.871  14.466   9.755
41554W        W13814  39.961  32.449   0.075
41555W        W13815  12.330  30.465   2.878
41556W        W13816  35.415   7.198   2.945
41557W        W13817   1.964  26.688  14.860
41558W        W13818  34.808  24.250  13.030
41559W        W13819  19.775  21.646   0.091
41560W        W13820  14.591  24.122  11.118
41561W        W13821  35.462  10.208  13.149
41562W        W13822  21.603  42.829   3.559
41563W        W13823   6.680  22.506  10.995
41564W        W13824  23.735   3.705   1.307
41565W        W13825   6.859  35.576  13.570
41566W        W13826  44.391  25.600  12.118
41567W        W13827   4.019   6.714   4.576
41568W        W13828  43.501  13.905  14.413
41569W        W13829  26.626   9.355   4.376
41570W        W13830  33.879  24.166   1.409
41571W        W13831  23.429  31.092  12.537
41572W        W13832   8.248  29.335  14.827
41573W        W13833  31.393  36.423   3.199
41574W        W13834  10.385  38.498   3.258
41575W        W13835  27.655  34.306   2.244
41576W        W13836  22.240   5.192   0.438
41577W        W13837  19.607  31.347  11.989
41578W        W13838  42.393   9.883  14.166
41579W        W13839  34.133  25.465  14.456
41580W        W13840  25.394   2.126  10.350
41581W        W13841   8.136  13.723   1.664
41582W        W13842  17.402  31.590   2.437
41583W        W13843  25.292  11.424   2.388
41584W        W13844   8.219  17.683   4.584
41585W        W13845  19.787  20.794  12.461
41586W        W13846  15.137   5.360   1.706
41587W        W13847  29.003  19.781  11.899
41588W        W13848   0.737   9.868  11.102
41589W        W13849  34.430   1.064   1.840
41590W        W13850  31.604  33.457   4.633
41591W        W13851  25.286  35.634  12.867
41592W        W13852  25.427  19.591   4.126
41593W        W13853  33.526  27.089  11.168
41594W        W13854  32.994  43.938  10.675
41595W        W13855  10.778   3.351  11.541
41596W        W13856  10.235  12.066   4.260
41597W        W13857  44.205  41.818   2.426
41598W        W13858  21.124   7.425  14.540
41599W        W13859  44.242  36.075   9.725
41600W        W13860   5.297  33.037  14.899
41601W        W13861   4.988  17.941  10.629
41602W        W13862  23.167   3.003  13.953
41603W        W13863  39.494  38.418  13.297
41604W        W13864  15.535  10.560  11.398
41605W        W13865  19.657  26.414  14.339
41606W        W13866  40.227  38.942   3.179
41607W        W13867  16.229  11.276  13.796
41608W        W13868  35.011  19.719  14.996
41609W        W13869  30.612   7.077   4.860
41610W        W13870  13.321   6.689   3.030
41611W        W13871  25.360  17.721   1.949
41612W        W13872  19.733  37.459  10.718
41613W        W13873  44.865  28.109  14.692
41614W        W13874  35.043   8.602   2.454
41615W        W13875  43.052  30.130   3.202
41616W        W13876   7.735  10.077  11.560
41617W        W13877  27.464   5.503   1.860
41618W        W13878  10.082  30.682  14.433
41619W        W13879  22.035   9.452   0.359
41620W        W13880  20.272  25.701  14.238
41621W        W13881   2.025  30.080  14.520
41622W        W13882   7.154  38.352   3.112
41623W        W13883   0.038  11.282   0.811
41624W        W13884  32.463  17.065   0.312
41625W        W13885  24.187   5.842   4.822
41626W        W13886   9.342  34.315  13.962
41627W        W13887  24.118  20.977  14.679
41628W        W13888  41.286   7.449  14.889
41629W        W13889   3.387  43.777  13.425
41630W        W13890  35.792  16.341   1.638
41631W        W13891  29.117  22.509   2.988
41632W        W13892   0.833  14.538  10.532
41633W        W13893  11.598  14.858   3.319
41634W        W13894  31.487   3.526  11.624
41635W        W13895  39.129  26.396   2.047
41636W        W13896   0.784  33.065   0.758
41637W        W13897  11.316   1.790   1.405
41638W        W13898  44.217  44.919   4.811
41639W        W13899  14.637  44.237  14.982
41640W        W13900  41.801  27.664  13.718
41641W        W13901  22.057   3.913  10.771
41642W        W13902   9.628  25.310   2.766
41643W        W13903   6.216  33.688  12.704
41644W        W13904  40.295  20.042  11.999
41645W        W13905  18.555  44.191   1.581
41646W        W13906  22.053  10.627   2.823
41647W        W13907   3.547  22.629  14.542
41648W        W13908   5.812  36.083  14.391
41649W        W13909   4.364  10.846  13.046
41650W        W13910  30.564  38.486   4.015
41651W        W13911   5.440  37.881  14.959
41652W        W13912  18.721  22.282  12.020
41653W        W13913   8.230  33.711   1.170
41654W        W13914  13.752  16.765  14.536
41655W        W13915   5.967   1.327   0.864
41656W        W13916  31.463   8.226   4.545
41657W        W13917  44.890  37.621   2.419
41658W        W13918   7.882  16.324  12.978
41659W        W13919  42.939  33.013   3.964
41660W        W13920  32.667  22.742   0.226
41661W        W13921  10.765  39.415  13.445
41662W        W13922  25.408   3.435  11.570
41663W        W13923  18.063  17.794  14.025
41664W        W13924   7.860   4.214  12.425
41665W        W13925  33.223  15.400   0.744
41666W        W13926  13.727   5.109   0.558
41667W        W13927  36.701   6.637   0.897
41668W        W13928  24.549  18.645  13.853
41669W        W13929   1.177  20.350   1.178
41670W        W13930  42.515  31.036   3.188
41671W        W13931  12.348  31.551   3.787
41672W        W13932  22.309   1.634   2.725
41673W        W13933   6.135   3.148   4.244
41674W        W13934  20.180  32.543  13.612
41675W        W13935  43.651  23.910   4.094
41676W        W13936  32.145  34.917   4.106
41677W        W13937  42.542   0.913   1.270
41678W        W13938  36.576   4.178  13.570
41679W        W13939  10.902  12.333   1.215
41680W        W13940   0.486  12.415   1.427
41681W        W13941  11.773  41.434   0.335
41682W        W13942  42.923  31.994   1.329
41683W        W13943  23.530   3.518  11.544
41684W        W13944  31.602  42.580   0.460
41685W        W13945  21.396   0.240   4.160
41686W        W13946  12.340  41.389  13.524
41687W        W13947  22.171  37.382  12.461
41688W        W13948  32.141   9.453   2.355
41689W        W13949  18.353  16.657  14.339
41690W        W13950   5.879  25.111   1.633
41691W        W13951  20.224  36.383   4.339
41692W        W13952   4.734  26.193   0.178
41693W        W13953  10.262   9.673   4.124
41694W        W13954   8.201  39.427   4.285
41695W        W13955  29.108  40.119  13.414
41696W        W13956   9.727  37.933  12.422
41697W        W13957   0.220  20.275  13.862
41698W        W13958  24.561  25.556  12.400
41699W        W13959  34.049  14.294  13.903
41700W        W13960  36.069   3.318   4.926
41701W        W13961  15.950  38.778   4.102
41702W        W13962   6.909   5.427  14.942
41703W        W13963  13.853   3.182   2.734
41704W        W13964  34.473  11.626  13.426
41705W        W13965  15.252  11.158   3.934
41706W        W13966  41.911  32.448  13.940
41707W        W13967  28.075  44.290  12.377
41708W        W13968  29.615  27.682   2.741
41709W        W13969   5.877  17.297  11.570
41710W        W13970  16.818   0.937  13.331
41711W        W13971  26.088  15.726  13.723
41712W        W13972  39.268   3.604   9.994
41713W        W13973  18.259  30.069  13.962
41714W        W13974  18.793  26.097   1.357
41715W        W13975  35.673  12.705  12.098
41716W        W13976  42.048  17.668   2.785
41717W        W13977   0.500  32.388   0.865
41718W        W13978   0.705  38.187  13.513
41719W        W13979  41.406  18.244   3.274
41720W        W13980   1.629  19.048  14.871
41721W        W13981  11.888  25.666  14.263
41722W        W13982  42.359  40.068   4.595
41723W        W13983  17.071  20.241  13.945
41724W        W13984  43.021  11.055   4.523
41725W        W13985  13.453  13.109   3.208
41726W        W13986  35.007  42.100  13.367
41727W        W13987   2.993  19.734  12.091
41728W        W13988  12.041   6.087   0.022
41729W        W13989   2.947  31.568  11.576
41730W        W13990   3.337  32.796  11.290
41731W        W13991  44.021  44.852   2.308
41732W        W13992  31.044  11.347  14.017
41733W        W13993  42.565  10.273  10.588
41734W        W13994  39.358   8.084   1.037
41735W        W13995  12.578  30.581  12.475
41736W        W13996  18.125  21.102  11.344
41737W        W13997  11.148   1.498   1.816
41738W        W13998  36.063  40.824  14.793
41739W        W13999  32.395   2.439  14.735
41740W        W14000   9.794  33.421  12.518
41741W        W14001   9.260  31.221  12.027
41742W        W14002  25.749   3.367   3.783
41743W        W14003  35.970   6.229   0.461
41744W        W14004   4.881  44.171  10.394
41745W        W14005  15.803  11.574   1.760
41746W        W14006  13.823   6.985   0.106
41747W        W14007  20.678  23.245   3.300
41748W        W14008  41.975  17.620   2.273
41749W        W14009   3.357  39.469   3.723
41750W        W14010  37.392   6.808  11.658
41751W        W14011  10.374  19.411  13.618
41752W        W14012  15.857  27.217   1.399
41753W        W14013  44.283   6.267   2.370
41754W        W14014  31.911   3.736   2.416
41755W        W14015  19.832  30.774  11.279
41756W        W14016  30.913  25.803   1.650
41757W        W14017   1.231  37.360  13.306
41758W        W14018   6.793   4.207   3.714
41759W        W14019  37.135   9.258   1.132
41760W        W14020   0.938  19.513  11.112
41761W        W14021  35.140  41.760  11.473
41762W        W14022  39.282  36.996   0.209
41763W        W14023   9.825  15.367   1.213
41764W        W14024  40.135   2.566   3.478
41765W        W14025  25.609  41.869  13.401
41766W        W14026  28.224  22.392  14.120
41767W        W14027  11.933   7.217   4.108
41768W        W14028  36.985  22.781  10.673
41769W        W14029  38.856  18.651  11.884
41770W        W14030  28.362  23.501   4.004
41771W        W14031  16.268  40.919   4.991
41772W        W14032  19.707   5.383   2.525
41773W        W14033  11.778  23.010   4.867
41774W        W14034   5.393   5.375   2.188
41775W        W14035   3.244  39.752   0.991
41776W        W14036  21.507  37.552  13.126
41777W        W14037  36.166  22.649   3.764
41778W        W14038  39.912   5.606   4.178
41779W        W14039  21.032  29.761   4.117
41780W        W14040  19.046  22.306  12.950
41781W        W14041  32.456  29.108   4.602
41782W        W14042  41.725  41.916   3.825
41783W        W14043  19.022   7.657  13.748
41784W        W14044   5.498  37.945  13.454
41785W        W14045  16.101   6.439   1.484
41786W        W14046   6.940  16.233   3.788
41787W        W14047  40.289   0.818   4.221
41788W        W14048   8.169  12.671   1.756
41789W        W14049  18.185   5.260  14.973
41790W        W14050  22.476  36.112  10.845
41791W        W14051  36.024  10.920   0.114
41792W        W14052  19.267  14.080   3.775
41793W        W14053  24.168  11.558  11.156
41794W        W14054  42.935  21.620  12.735
41795W        W14055   8.342  23.043  13.870
41796W        W14056  37.440   5.391  10.472
41797W        W14057  21.807   9.989   0.893
41798W        W14058  26.235   9.752  14.569
41799W        W14059  36.960   2.150   3.788
41800W        W14060   3.497  44.979  10.948
41801W        W14061   6.167  10.355   3.192
41802W        W14062  19.500  40.395  11.885
41803W        W14063  17.530  11.880  12.845
41804W        W14064  11.716  36.001  10.805
41805W        W14065  32.389   0.129  10.988
41806W        W14066  18.827   9.150   2.333
41807W        W14067  31.056   1.905  10.374
41808W        W14068  24.269  21.486   0.340
41809W        W14069  17.096  24.472  10.422
41810W        W14070  32.677  13.315   2.178
41811W        W14071  16.721   9.436  11.407
41812W        W14072  39.937  42.919   4.517
41813W        W14073  31.429  17.801  11.191
41814W        W14074  14.114  38.114   3.122
41815W        W14075  36.363  20.543   5.039
41816W        W14076  33.165   8.077   1.703
41817W        W14077  38.203  21.629  12.452
41818W        W14078  29.969  40.078   3.180
41819W        W14079   7.307  23.097   3.091
41820W        W14080  27.949   9.556  12.897
41821W        W14081  36.138  31.608   2.147
41822W        W14082  32.533  11.500  14.966
41823W        W14083   6.472   0.546  14.365
41824W        W14084  23.651  11.325  12.600
41825W        W14085  37.466   6.874  10.126
41826W        W14086  20.690  25.074   4.557
41827W        W14087   3.269  39.190   4.225
41828W        W14088  27.561   2.817   0.300
41829W        W14089  20.241   9.181  12.498
41830W        W14090  18.755   8.236  10.275
41831W        W14091  29.933  14.825  12.315
41832W        W14092  21.004  21.251   5.104
41833W        W14093  44.788  40.415  13.904
41834W        W14094  12.495  22.985  11.234
41835W        W14095  41.815  17.079  14.057
41836W        W14096  21.750  37.722   3.351
41837W        W14097  21.505  32.038   4.261
41838W        W14098  42.927   1.742  14.512
41839W        W14099  27.327  33.793   4.342
41840W        W14100  13.079  31.057   5.746
41841W        W14101  13.813  13.196   4.708
41842W        W14102   2.175   7.446  13.513
41843W        W14103   5.733  39.602   0.328
41844W        W14104   2.509  37.995   1.367
41845W        W14105  30.602   0.344  10.988
41846W        W14106  27.217  21.695  12.094
41847W        W14107  10.362  41.604   4.111
41848W        W14108  40.381  37.830   3.305
41849W        W14109  19.012  17.794   1.063
41850W        W14110   9.437   9.930   1.789
41851W        W14111  15.199  15.623  13.793
41852W        W14112  29.463   5.104  13.325
41853W        W14113  40.887  24.964  12.666
41854W        W14114  44.367  43.801  11.604
41855W        W14115  33.571  21.307   3.751
41856W        W14116  16.246  41.443   0.918
41857W        W14117  38.874  17.302  11.721
41858W        W14118  35.175  35.078  14.658
41859W        W14119  23.722   9.769   3.245
41860W        W14120  13.878  35.520   4.094
41861W        W14121  36.745  19.645  12.445
41862W        W14122   1.931  28.122   1.562
41863W        W14123  25.783  26.625  11.057
41864W        W14124  32.855   3.024  12.095
41865W        W14125  41.349   8.700   2.798
41866W        W14126   0.898  44.469   0.417
41867W        W14127  41.482  39.014   3.155
41868W        W14128   9.232  14.341   4.491
41869W        W14129  16.244   9.912   4.224
41870W        W14130   1.962  25.775  10.622
41871W        W14131   2.856  32.258   2.909
41872W        W14132  40.790   9.559  11.506
41873W        W14133  23.840  15.864   4.024
41874W        W14134  31.837  31.298   0.852
41875W        W14135  30.935  14.344  12.838
41876W        W14136   3.617   0.757  12.811
41877W        W14137   0.413  35.448   3.092
41878W        W14138   2.971  32.084   1.646
41879W        W14139  20.662   7.906  13.827
41880W        W14140  12.726  28.404  11.036
41881W        W14141   8.630  36.297   3.029
41882W        W14142  43.349   1.335  12.392
41883W        W14143  39.785  36.185  11.129
41884W        W14144  17.719   8.599   3.356
41885W        W14145  32.977  33.052   3.629
41886W        W14146   0.473  44.449   2.620
41887W        W14147   0.247  25.003  14.546
41888W        W14148   7.912  22.113   1.128
41889W        W14149  22.220  44.858   3.356
41890W        W14150  30.012  12.582  13.455
41891W        W14151  39.729  20.999  13.973
41892W        W14152  34.063  18.776  14.547
41893W        W14153   2.811   7.023   0.815
41894W        W14154  21.782  15.124   4.342
41895W        W14155   8.388   1.557  13.070
41896W        W14156  32.569  28.296   3.980
41897W        W14157  10.507   3.176   2.085
41898W        W14158  13.218  24.274   0.788
41899W        W14159  28.521   9.338  12.585
41900W        W14160  17.752   7.851   2.595
41901W        W14161  39.009  38.552   3.823
41902W        W14162   9.057   3.878   2.850
41903W        W14163  39.740  44.491   1.282
41904W        W14164  33.517  22.106  14.359
41905W        W14165  28.137   5.693  11.542
41906W        W14166   3.696  19.175   1.008
41907W        W14167  25.478   3.199  10.266
41908W        W14168  36.077  29.003   0.933
41909W        W14169   9.389  26.535   0.425
41910W        W14170  28.518   1.874   1.194
41911W        W14171  12.371  43.596  11.096
41912W        W14172  41.339  24.927  13.042
41913W        W14173   7.477  18.841  13.937
41914W        W14174  32.520  11.231   3.114
41915W        W14175  39.823  13.625  12.508
41916W        W14176   3.005   7.279   4.140
41917W        W14177  14.562  21.813   1.235
41918W        W14178  21.489   8.836   3.955
41919W        W14179  43.238  30.480  11.053
41920W        W14180  41.028  43.697   3.772
41921W        W14181  27.899  12.177  13.507
41922W        W14182  24.145  16.767  11.604
41923W        W14183  39.485   3.151   1.725
41924W        W14184  18.708   8.365  14.610
41925W        W14185  44.837  14.017   0.883
41926W        W14186  39.010  25.559   2.347
41927W        W14187  27.632  24.777  11.435
41928W        W14188  27.346  16.662   2.342
41929W        W14189  40.027  20.421   4.613
41930W        W14190   4.601   6.013   3.203
41931W        W14191  18.485   3.983  14.406
41932W        W14192  22.720  37.463   3.330
41933W        W14193  25.681  26.938  13.559
41934W        W14194  10.785  32.573   3.632
41935W        W14195   5.762  17.322   2.770
41936W        W14196  43.996  10.277  13.276
41937W        W14197   8.676  11.222   0.912
41938W        W14198  32.463  32.819   0.108
41939W        W14199  18.340  10.184  14.415
41940W        W14200  27.176  29.347  13.995
41941W        W14201  20.007   6.721  13.536
41942W        W14202   4.811  39.904   1.738
41943W        W14203  43.909  32.530   3.068
41944W        W14204  19.317  44.497   4.346
41945W        W14205   8.941   9.585  12.417
41946W        W14206  12.153   3.851   4.953
41947W        W14207  16.174  32.344   2.859
41948W        W14208  34.616  18.120  14.835
41949W        W14209  35.461  38.984   2.631
41950W        W14210   4.251  18.026   0.890
41951W        W14211   9.924  12.799  10.751
41952W        W14212  20.847  44.490   1.099
41953W        W14213   6.277   1.846  11.554
41954W        W14214  28.457  43.966  14.307
41955W        W14215  35.744   4.359  12.379
41956W        W14216   0.187  28.640  12.356
41957W        W14217  13.890  32.506   0.736
41958W        W14218  27.558  16.070  14.873
41959W        W14219  38.108  33.868   2.879
41960W        W14220  20.945   9.448  13.013
41961W        W14221  43.963  19.427   4.629
41962W        W14222  31.609  25.681  12.500
41963W        W14223   6.170  43.001  12.819
41964W        W14224  14.743  41.681   4.109
41965W        W14225  13.015  33.277  12.105
41966W        W14226  15.761  22.036   3.165
41967W        W14227  38.540  10.600  12.956
41968W        W14228  10.793  19.249   4.765
41969W        W14229  12.285  19.281  14.457
41970W        W14230  28.974   5.829   4.670
41971W        W14231  20.728   6.830  10.844
41972W        W14232  44.382  14.667   3.933
41973W        W14233  36.964  15.387   0.672
41974W        W14234   4.455  30.713  13.910
41975W        W14235  29.073   5.352   4.959
41976W        W14236   1.697   8.852  13.008
41977W        W14237  20.298   9.370   2.256
41978W        W14238  19.230  17.147   1.845
41979W        W14239  34.308   1.570   1.897
41980W        W14240  27.985  29.687  10.312
41981W        W14241  16.182  15.156  10.710
41982W        W14242  13.735  38.100  11.407
41983W        W14243   3.270  24.762   1.331
41984W        W14244   2.266  42.462   3.383
41985W        W14245  44.588   4.531   2.370
41986W        W14246   1.686  37.028   1.357
41987W        W14247  14.215  35.417   2.677
41988W        W14248  37.939  10.627  14.284
41989W        W14249  36.446  18.684   0.900
41990W        W14250  26.706  18.789  11.194
41991W        W14251  20.534  21.465  12.395
41992W        W14252  43.970  39.331   3.598
41993W        W14253  32.498  43.876  11.999
41994W        W14254  33.372   6.379  12.933
41995W        W14255  13.861  22.734  11.073
41996W        W14256   7.865   8.362  14.690
41997W        W14257  40.548  29.029  10.285
41998W        W14258  32.965  39.936  11.247
41999W        W14259  26.589  37.766   0.768
42000W        W14260  13.627   5.993   2.334
42001W        W14261  12.760  20.747  13.412
42002W        W14262  35.558  12.058  12.560
42003W        W14263  20.520  26.103  12.403
42004W        W14264  31.003  21.178  12.103
42005W        W14265  10.135  26.249   3.467
42006W        W14266  11.818  34.996  13.993
42007W        W14267  42.785  23.050   0.445
42008W        W14268   9.656   2.697   3.301
42009W        W14269   0.725  14.821   2.229
42010W        W14270  27.531  31.148  13.854
42011W        W14271   7.740  12.379  11.155
42012W        W14272   8.102   6.679   0.364
42013W        W14273  20.547  40.040  11.112
42014W        W14274  42.541  22.006  12.136
42015W        W14275  10.392  36.402  12.985
42016W        W14276  41.465  16.495  14.780
42017W        W14277  40.968  16.559  14.935
42018W        W14278  44.417  26.166  10.699
42019W        W14279  13.648  43.723   1.992
42020W        W14280  14.121   3.888   2.760
42021W        W14281  27.395  22.797  14.348
42022W        W14282  43.488   6.695   4.992
42023W        W14283  32.397  11.397  12.605
42024W        W14284  24.101  32.596  13.780
42025W        W14285   6.248   4.994   4.704
42026W        W14286   1.037  20.557   2.682
42027W        W14287  29.419   6.140   4.714
42028W        W14288   2.753  42.870   0.373
42029W        W14289  20.818  25.815   3.179
42030W        W14290  34.087   2.472   1.525
42031W        W14291  42.781  44.500   3.770
42032W        W14292  24.064  17.604  13.494
42033W        W14293  20.202  35.435  11.647
42034W        W14294  28.213  24.142  12.117
42035W        W14295  18.835   2.489  11.084
42036W        W14296  19.953  16.757   0.702
42037W        W14297  18.072   7.345  13.303
42038W        W14298  13.628  43.301   1.697
42039W        W14299  14.987  21.733  13.452
42040W        W14300  43.925  37.938  14.246
42041W        W14301   1.780  19.337   1.712
42042W        W14302  27.212  39.739   3.730
42043W        W14303   6.778  42.757  10.610
42044W        W14304  28.130  42.332  11.986
42045W        W14305  14.806  34.372   3.721
42046W        W14306  34.625  37.338   1.381
42047W        W14307   0.158  29.425   0.506
42048W        W14308  39.239  13.793  11.715
42049W        W14309   8.188  44.984   4.481
42050W        W14310  10.935  23.984   0.277
42051W        W14311   4.399   6.025  13.067
42052W        W14312  23.629  39.778   1.714
42053W        W14313  28.197   0.690  11.655
42054W        W14314  14.295  15.228  14.290
42055W        W14315  15.064  26.653   4.637
42056W        W14316   6.353  26.012   1.329
42057W        W14317   7.106   9.860  12.223
42058W        W14318  14.070  42.220   1.262
42059W        W14319   6.321  22.745  12.028
42060W        W14320  36.465  35.804   0.753
42061W        W14321  21.504  17.402   4.139
42062W        W14322  24.003  16.973  12.112
42063W        W14323  38.121  39.439   0.378
42064W        W14324  40.883  12.866  12.394
42065W        W14325  32.877  27.910   3.747
42066W        W14326  29.378  14.101   4.484
42067W        W14327  22.191  27.508  13.221
42068W        W14328   6.993  33.060   3.592
42069W        W14329  18.814   7.464  11.533
42070W        W14330  15.584  17.512   2.167
42071W        W14331  30.238  40.494   3.363
42072W        W14332  43.813   0.691   4.133
42073W        W14333  28.980  40.615  11.149
42074W        W14334  27.193  18.932  11.347
42075W        W14335  14.596  25.657  11.534
42076W        W14336   8.465   1.794   2.595
42077W        W14337  23.941  32.549   1.277
42078W        W14338  38.833  35.104   5.029
42079W        W14339   5.074  22.854  14.355
42080W        W14340   0.929  32.078  11.932
42081W        W14341  37.986  12.832  13.058
42082W        W14342  44.520  10.699   1.378
42083W        W14343  34.611  10.641  11.576
42084W        W14344   1.444  32.540  12.526
42085W        W14345  17.878   9.153  10.513
42086W        W14346  23.959  31.497   3.217
42087W        W14347  41.305  29.224   1.785
42088W        W14348  14.647  33.055  13.392
42089W        W14349  26.027  27.084  11.107
42090W        W14350  37.836  19.512  10.530
42091W        W14351   9.405  24.182   0.349
42092W        W14352  32.426   4.257   3.462
42093W        W14353  29.427  35.466   1.708
42094W        W14354   1.773  16.646  11.696
42095W        W14355   5.393  10.732  13.006
42096W        W14356  25.459  41.077   2.928
42097W        W14357  28.582   9.806   4.248
42098W        W14358  22.135  18.672   1.869
42099W        W14359  22.159   0.987  12.087
42100W        W14360  16.583  16.808  13.795
42101W        W14361  34.130  33.965  11.934
42102W        W14362  14.750  31.229  11.522
42103W        W14363  21.070   5.501   2.650
42104W        W14364  19.810   7.156   3.236
42105W        W14365  39.414   1.227   0.775
42106W        W14366   1.036  10.538  12.444
42107W        W14367  14.766   2.243   3.225
42108W        W14368  21.017  42.492   2.310
42109W        W14369  11.494   2.226   3.609
42110W        W14370   7.360   1.935   1.653
42111W        W14371   8.964  32.588   2.820
42112W        W14372  34.337  36.350   2.821
42113W        W14373  29.136  18.179  12.889
42114W        W14374  35.334  18.122  12.465
42115W        W14375  41.494   3.183   1.851
42116W        W14376   1.396  34.027   4.388
42117W        W14377   0.827  36.279  12.344
42118W        W14378   8.169  15.266   0.225
42119W        W14379  36.402   7.187  13.470
42120W        W14380  40.040   6.027   0.844
42121W        W14381  38.632  25.061   4.608
42122W        W14382  42.460   8.765   1.710
42123W        W14383  43.733  12.847  12.533
42124W        W14384  20.177   6.552  12.157
42125W        W14385  13.802  33.901  13.522
42126W        W14386  30.336  40.855   4.712
42127W        W14387  20.944  33.670   0.435
42128W        W14388  13.026  33.922  11.791
42129W        W14389  41.636  39.933   0.405
42130W        W14390  34.647  42.625   0.796
42131W        W14391  43.825  22.141   1.853
42132W        W14392  13.852   4.917   3.136
42133W        W14393  35.245  22.517   3.269
42134W        W14394  10.770  41.120   4.463
42135W        W14395   4.990   8.847  12.345
42136W        W14396  22.201  18.804  14.102
42137W        W14397   0.991  21.471  12.040
42138W        W14398  35.549  40.605  12.409
42139W        W14399  33.912  40.481   3.675
42140W        W14400  39.611  22.206   2.910
42141W        W14401  31.337  19.246   1.686
42142W        W14402   0.589  38.019  14.330
42143W        W14403  20.811  13.709   3.440
42144W        W14404  23.789  44.323  13.329
42145W        W14405  24.412  30.544  10.243
42146W        W14406  14.569  44.012   4.422
42147W        W14407  13.636  29.724   0.139
42148W        W14408  24.039  39.421  11.811
42149W        W14409   8.904  37.189   1.661
42150W        W14410  14.103  32.858   3.311
42151W        W14411  36.120   1.683   1.272
42152W        W14412  38.347  30.155   4.119
42153W        W14413  28.439  20.505   4.874
42154W        W14414  13.320  33.393   2.764
42155W        W14415  22.780   3.674  11.181
42156W        W14416  10.327  13.159   4.171
42157W        W14417  18.987  28.187   1.616
42158W        W14418   2.849  41.601   4.143
42159W        W14419  34.985  28.042   3.130
42160W        W14420  18.666   0.801   2.876
42161W        W14421   4.953  28.750   4.104
42162W        W14422  15.826   1.030   2.809
42163W        W14423  23.049  26.664  12.638
42164W        W14424  32.042   6.556   3.154
42165W        W14425  38.593  26.293  14.023
42166W        W14426  21.214  43.294   1.674
42167W        W14427  41.538   5.208  11.653
42168W        W14428  13.744  39.900   0.530
42169W        W14429  37.894  20.422   1.264
42170W        W14430  31.845  37.110  14.396
42171W        W14431  41.935   6.140  13.843
42172W        W14432  25.791  14.195  10.620
42173W        W14433  17.392  38.764   3.159
42174W        W14434  33.853  17.182   2.886
42175W        W14435   3.344  19.375  13.421
42176W        W14436   6.140  25.754  11.087
42177W        W14437  14.768   3.459  12.008
42178W        W14438  22.077  36.003   1.437
42179W        W14439  29.162  21.158   4.622
42180W        W14440  32.084  24.369  11.066
42181W        W14441  11.442  22.117   3.700
42182W        W14442  11.889  15.113   1.848
42183W        W14443  27.957   3.585  11.620
42184W        W14444  26.606  18.261  14.706
42185W        W14445  10.575   9.152  12.528
42186W        W14446  23.475  25.043  12.120
42187W        W14447  13.614  21.485   2.455
42188W        W14448  15.734  36.136  12.553
42189W        W14449   5.672  14.197  13.595
42190W        W14450  14.637   1.451  13.061
42191W        W14451  25.747  27.368   1.798
42192W        W14452  22.910  42.502  13.388
42193W        W14453   3.460   7.458  14.469
42194W        W14454  36.505   2.143  12.423
42195W        W14455  32.030  25.538   2.300
42196W        W14456  24.422  22.845   0.227
42197W        W14457   8.313  37.063  11.574
42198W        W14458  17.587  19.969  12.034
42199W        W14459  10.272  18.612  11.757
42200W        W14460  38.367  27.764   2.974
42201W        W14461  32.550  24.477   0.963
42202W        W14462   1.038  30.603   0.349
42203W        W14463  27.691   9.354  11.193
42204W        W14464   7.095   0.280  11.622
42205W        W14465  18.212  18.887  11.483
42206W        W14466  21.589  38.314  12.395
42207W        W14467  37.699   1.055   4.199
42208W        W14468  20.137   0.202  11.681
42209W        W14469   7.193  27.662   9.764
42210W        W14470  18.726  18.781   4.559
42211W        W14471  35.154  32.854  11.093
42212W        W14472  11.788  26.181  14.258
42213W        W14473  26.483  11.677  13.036
42214W        W14474   0.690   8.894   0.389
42215W        W14475  12.243  27.419  13.985
42216W        W14476  32.574  42.293  11.668
42217W        W14477  19.973  26.954  11.056
42218W        W14478   8.957   6.250  12.030
42219W        W14479   8.863   1.353  13.112
42220W        W14480   4.287  10.810  11.180
42221W        W14481  10.142   4.350  12.575
42222W        W14482  16.010  36.401   2.310
42223W        W14483  12.687  26.442   1.696
42224W        W14484  40.324   0.629  13.062
42225W        W14485  12.168  36.014   3.151
42226W        W14486  44.211   2.545   4.096
42227W        W14487  28.383  23.539  11.945
42228W        W14488   9.199  18.363   2.874
42229W        W14489  44.536  13.814   1.284
42230W        W14490  24.956  10.827  11.133
42231W        W14491   9.565  18.818  13.260
42232W        W14492   2.904  17.125  11.795
42233W        W14493   0.358  21.692   1.636
42234W        W14494  31.197   0.483  12.191
42235W        W14495  29.721  10.811  10.688
42236W        W14496  18.589  24.960   0.861
42237W        W14497  37.805  24.306   3.180
42238W        W14498   5.947  20.274   0.453
42239W        W14499  38.822   7.295  13.496
42240W        W14500   5.903   7.227   1.350
42241W        W14501   3.811  41.040   4.287
42242W        W14502   3.193  17.552  11.978
42243W        W14503  37.520  28.931   3.084
42244W        W14504  35.308  11.143  11.621
42245W        W14505  30.194  43.472   2.587
42246W        W14506  35.055  11.829   1.553
42247W        W14507  24.808  36.958  11.155
42248W        W14508  33.641  20.633   2.959
42249W        W14509  24.434  16.157  12.888
42250W        W14510   8.952   9.239   4.084
42251W        W14511  44.294  20.595  12.070
42252W        W14512  31.139   3.447  14.928
42253W        W14513  39.854  30.729   2.172
42254W        W14514   4.578  35.646  11.240
42255W        W14515  42.073  25.915   0.865
42256W        W14516  25.267  44.906   2.314
42257W        W14517   7.679  21.108  14.837
42258W        W14518  44.247   1.183  12.359
42259W        W14519  15.070  34.354  14.985
42260W        W14520  17.811  35.576  11.046
42261W        W14521  13.674   1.318   2.142
42262W        W14522  23.277  19.721   1.730
42263W        W14523  26.165  40.174   2.110
42264W        W14524   7.361  17.026   3.723
42265W        W14525  36.477  20.346  12.670
42266W        W14526  42.897   9.443  11.040
42267W        W14527   8.828  42.278  14.711
42268W        W14528  22.198   2.917  11.876
42269W        W14529  35.829  35.988  11.909
42270W        W14530  43.999   5.752   4.575
42271W        W14531  32.358  40.560  12.949
42272W        W14532   4.141  10.629  12.631
42273W        W14533  21.038  13.733  12.547
42274W        W14534  25.510  28.398  11.216
42275W        W14535   3.829  20.769   3.228
42276W        W14536   7.967   1.039   1.342
42277W        W14537   7.456  17.245  11.609
42278W        W14538  10.118  19.962  14.994
42279W        W14539  35.069  21.256   5.463
42280W        W14540  31.078  35.918  11.886
42281W        W14541   4.432  32.421   2.163
42282W        W14542  27.154  26.492  12.483
42283W        W14543  38.469  37.804   4.084
42284W        W14544  34.839  24.534  12.425
42285W        W14545  21.573  40.451  13.312
42286W        W14546  36.207  27.581   2.649
42287W        W14547   0.163  33.051  12.340
42288W        W14548  29.669   4.257   4.410
42289W        W14549  42.495  31.083  12.489
42290W        W14550  44.247   0.931   1.983
42291W        W14551  22.303  10.967  11.564
42292W        W14552   9.599  27.422  10.747
42293W        W14553   0.829  16.355   0.504
42294W        W14554   9.250  10.763  12.341
42295W        W14555   2.882   6.165   2.781
42296W        W14556   8.716  22.227  13.767
42297W        W14557  43.315  16.239  10.600
42298W        W14558  19.081   9.769   1.152
42299W        W14559  42.583  13.636  14.326
42300W        W14560  43.856   2.471   1.344
42301W        W14561  30.964  35.637  14.925
42302W        W14562   9.653  39.348   4.190
42303W        W14563  11.797  27.207  14.540
42304W        W14564  33.060  31.690   3.191
42305W        W14565  12.825  30.352  11.607
42306W        W14566  23.772  39.746  14.499
42307W        W14567  27.682  20.231   3.874
42308W        W14568  27.487  38.624   1.176
42309W        W14569  12.559  29.836  11.643
42310W        W14570  19.023  36.860   1.714
42311W        W14571  12.772  38.257  11.581
42312W        W14572  43.747  16.819  13.847
42313W        W14573  35.522  42.490   0.194
42314W        W14574  27.455   8.881  12.089
42315W        W14575  41.558  28.459  12.847
42316W        W14576   3.969  42.482   0.876
42317W        W14577  31.638  26.706   1.321
42318W        W14578  15.311  41.498  14.274
42319W        W14579   5.248   8.838  10.987
42320W        W14580  25.422   3.571   0.232
42321W        W14581  44.820  24.974   1.377
42322W        W14582  17.624  41.448  13.456
42323W        W14583  24.464  18.832   1.329
42324W        W14584  16.567  12.406   0.322
42325W        W14585   3.836  43.836   1.330
42326W        W14586   9.139  37.401  14.947
42327W        W14587  41.745  21.154   3.703
42328W        W14588   5.488  24.718   1.858
42329W        W14589  33.496   8.122  14.298
42330W        W14590  20.272  42.430  14.069
42331W        W14591   5.082  37.737   3.768
42332W        W14592   7.851  18.077   1.986
42333W        W14593   4.628   6.185  11.500
42334W        W14594  18.686  43.492  13.531
42335W        W14595  10.637  38.793  12.352
42336W        W14596  36.325  44.960  13.476
42337W        W14597   7.176  28.362   1.634
42338W        W14598   4.516  29.794  11.084
42339W        W14599  11.972  34.787  11.187
42340W        W14600  13.698  13.619  11.055
42341W        W14601   2.343  36.270  10.235
42342W        W14602  22.956   3.203  11.212
42343W        W14603   7.765  34.602  11.676
42344W        W14604  15.748   2.386   3.397
42345W        W14605  42.545  33.894  12.489
42346W        W14606  13.676  44.692  10.921
42347W        W14607  36.859  24.625  12.448
42348W        W14608   5.833  33.162  14.432
42349W        W14609  42.789  42.831  12.629
42350W        W14610  44.455  10.154  13.487
42351W        W14611  43.262  15.235  10.711
42352W        W14612  29.517  29.186  13.991
42353W        W14613   8.829  39.058  11.663
42354W        W14614  28.681  10.824  12.366
42355W        W14615  37.661  40.593  14.348
42356W        W14616  12.778  28.979   2.565
42357W        W14617  39.241  10.239   1.717
42358W        W14618   1.867  10.368  12.816
42359W        W14619   0.698  17.717  11.377
42360W        W14620   9.833  10.949  13.206
42361W        W14621  33.045  35.849  14.446
42362W        W14622  39.845   5.537  12.485
42363W        W14623  37.958  38.723  12.051
42364W        W14624  38.381   4.118  13.773
42365W        W14625  36.519  34.960  12.048
42366W        W14626  11.712  33.563  12.105
42367W        W14627   1.668  37.031   4.079
42368W        W14628  22.542   2.177  10.447
42369W        W14629  39.919   8.867   0.822
42370W        W14630  25.375  31.908  10.678
42371W        W14631  20.955   2.245  11.973
42372W        W14632  30.509  20.554  10.649
42373W        W14633  26.058  14.668  12.636
42374W        W14634  18.686  28.610   3.729
42375W        W14635  20.578  31.142   2.432
42376W        W14636   7.282  12.756  13.815
42377W        W14637  18.772  11.700  11.225
42378W        W14638  44.888  38.986   2.866
42379W        W14639   2.720  10.054  12.554
42380W        W14640  13.594   2.368  12.876
42381W        W14641  31.843   7.551  10.578
42382W        W14642   5.691  10.202   0.030
42383W        W14643  35.486  39.446   1.496
42384W        W14644  14.832   8.892   3.830
42385W        W14645  22.151  40.693   0.271
42386W        W14646  28.159  17.323  13.100
42387W        W14647  10.449  41.684   1.288
42388W        W14648  42.139  37.688  11.176
42389W        W14649   9.336   0.949   0.497
42390W        W14650   7.312  14.400   4.250
42391W        W14651  38.448  38.536   0.914
42392W        W14652   1.245  24.476   3.388
42393W        W14653  28.655   1.374  10.883
42394W        W14654  33.570  31.973  12.794
42395W        W14655  35.398  16.283  13.069
42396W        W14656   4.412  39.084   2.377
42397W        W14657  40.914  19.296  12.810
42398W        W14658  35.397  12.262  12.069
42399W        W14659  10.165  27.500  12.818
42400W        W14660  13.609   3.531   0.994
42401W        W14661  21.042  21.744   2.768
42402W        W14662   8.813  43.687   0.300
42403W        W14663   3.620  19.218   4.904
42404W        W14664  23.972  37.855   2.889
42405W        W14665  28.143  41.942   2.850
42406W        W14666  24.612  23.695   4.176
42407W        W14667   3.590   3.172   1.274
42408W        W14668  17.444  35.130  14.700
42409W        W14669  27.410  28.670   2.855
42410W        W14670  10.907  10.774   3.196
42411W        W14671  10.198  21.047  13.852
42412W        W14672  25.187  29.003  10.700
42413W        W14673  23.609  39.581  13.551
42414W        W14674  20.788   1.873   2.970
42415W        W14675  11.718  26.560   1.879
42416W        W14676  39.771   6.408  14.193
42417W        W14677  36.903   6.327   1.278
42418W        W14678  43.474  24.673  11.255
42419W        W14679  19.166  15.360   4.629
42420W        W14680  43.303   0.812  13.473
42421W        W14681   3.265  13.297   1.041
42422W        W14682  17.156  12.562  12.165
42423W        W14683  26.746  23.639   1.684
42424W        W14684  37.144   0.823  10.684
42425W        W14685  15.319   4.182  14.278
42426W        W14686  17.489   3.793  10.741
42427W        W14687  42.861  27.282  13.879
42428W        W14688   8.887   5.677   2.626
42429W        W14689  28.559  10.819   0.772
42430W        W14690  41.519   1.946  13.394
42431W        W14691   4.706  39.067  13.350
42432W        W14692   9.262  30.740   0.002
42433W        W14693  29.204  37.915   2.662
42434W        W14694  21.523  34.970   2.050
42435W        W14695  41.966  18.815  10.987
42436W        W14696  43.010  26.874  10.976
42437W        W14697  36.442  20.324  14.845
42438W        W14698  43.576  23.221  13.151
42439W        W14699  43.432  23.675   2.621
42440W        W14700   3.037  41.922   2.729
42441W        W14701  19.895  40.659  14.338
42442W        W14702  15.414  41.044  11.164
42443W        W14703  14.372   7.796  11.553
42444W        W14704  35.900  11.123   3.210
42445W        W14705  30.385  10.136   3.255
42446W        W14706  29.427  18.024   2.325
42447W        W14707  37.430  26.689  14.407
42448W        W14708   7.818  33.621   1.542
42449W        W14709  19.499  35.407   2.266
42450W        W14710   7.097  15.215  14.191
42451W        W14711  41.541   5.191  10.942
42452W        W14712   8.873  17.159  14.875
42453W        W14713  39.311   1.542  14.553
42454W        W14714  40.143  22.233   2.876
42455W        W14715  42.166  13.728   2.326
42456W        W14716   7.564  43.759   4.046
42457W        W14717  41.742  40.061   2.791
42458W        W14718  12.679  10.295   4.231
42459W        W14719  15.135   4.697  11.917
42460W        W14720   2.971  10.631   4.324
42461W        W14721  21.006  13.747  12.035
42462W        W14722  36.923   9.671  11.087
42463W        W14723  32.437  20.696  14.411
42464W        W14724   6.417  24.508  14.431
42465W        W14725   2.866  37.375  10.682
42466W        W14726  44.744  26.719   4.229
42467W        W14727  29.521  17.306  11.103
42468W        W14728  40.578  21.036  12.144
42469W        W14729  11.267  40.071   4.215
42470W        W14730   7.424  15.558   1.853
42471W        W14731  36.827  34.532  11.998
42472W        W14732   8.701  11.853  13.602
42473W        W14733  13.064  44.132   5.027
42474W        W14734  28.998  18.149  10.998
42475W        W14735   0.998   8.468   0.415
42476W        W14736  12.175  38.439  14.439
42477W        W14737  10.799  11.303   4.117
42478W        W14738  30.472  29.929   2.183
42479W        W14739  35.661   8.039  13.965
42480W        W14740   1.706  28.954   0.699
42481W        W14741   0.358   9.658   0.531
42482W        W14742  39.786  32.477   1.910
42483W        W14743  19.544  44.470   0.372
42484W        W14744  40.336  12.846   9.922
42485W        W14745   0.245  16.936  12.877
42486W        W14746  15.789   5.749   1.156
42487W        W14747  11.591  22.552   5.099
42488W        W14748  13.347  10.331  14.322
42489W        W14749  42.152   2.888   0.530
42490W        W14750   7.144   2.375  11.611
42491W        W14751   1.879  13.363  12.022
42492W        W14752  12.178   5.051  14.999
42493W        W14753  22.427  42.840  14.304
42494W        W14754   8.211  28.691   4.094
42495W        W14755  10.428  34.510  13.362
42496W        W14756  20.248  36.116   0.019
42497W        W14757  27.065  27.176   3.932
42498W        W14758  21.970  24.575  14.876
42499W        W14759  25.941  25.722   3.793
42500W        W14760  14.696   8.842   4.875
42501W        W14761   1.400  31.953   4.684
42502W        W14762  26.502  41.327  14.760
42503W        W14763   1.920  42.817  10.559
42504W        W14764  15.755   7.775  14.416
42505W        W14765  11.355  28.836  14.361
42506W        W14766   0.585  30.069   2.186
42507W        W14767  23.903  29.988  11.014
42508W        W14768  29.085   5.876  12.015
42509W        W14769   9.392  13.233  11.517
42510W        W14770  38.214  36.200  13.535
42511W        W14771  30.526  15.873  11.595
42512W        W14772  39.501  28.488   4.887
42513W        W14773  32.538  16.619   2.779
42514W        W14774  22.346  23.173   2.675
42515W        W14775  32.836   8.779   0.562
42516W        W14776   8.472  39.124   0.846
42517W        W14777   8.368   2.467   3.884
42518W        W14778  15.403  18.079  12.920
42519W        W14779  27.191   9.231   3.669
42520W        W14780  20.216  27.080   2.737
42521W        W14781   0.228  26.697  12.313
42522W        W14782   3.690  38.871   4.175
42523W        W14783  29.464   3.426   0.482
42524W        W14784  11.939  22.213   3.818
42525W        W14785  22.131  27.505   4.508
42526W        W14786  16.069  30.476   1.490
42527W        W14787   0.074   5.252  12.993
42528W        W14788  29.044  41.125  13.387
42529W        W14789  31.653  22.575   0.367
42530W        W14790   5.131  21.193   4.542
42531W        W14791  26.937  24.604  14.527
42532W        W14792  24.163  20.712  11.544
42533W        W14793  38.883  44.110  10.656
42534W        W14794   5.954   8.158   4.736
42535W        W14795   7.270  41.834   3.410
42536W        W14796   2.890  20.689   3.146
42537W        W14797  16.567  14.246  10.566
42538W        W14798  16.727  10.220  13.352
42539W        W14799  44.527  11.339  14.284
42540W        W14800  10.849   3.428   4.072
42541W        W14801  33.986   2.364  11.579
42542W        W14802  36.572  15.150   4.637
42543W        W14803  16.535  15.074   3.694
42544W        W14804  36.542   4.408   4.591
42545W        W14805  34.874  17.884  13.062
42546W        W14806   2.637  34.610   2.100
42547W        W14807  31.520  29.655   1.344
42548W        W14808  18.678  38.232  13.015
42549W        W14809  17.041  13.752   0.325
42550W        W14810  42.809  28.108   5.120
42551W        W14811  43.515  27.799   4.445
42552W        W14812  28.462   9.150   2.239
42553W        W14813   0.608   2.826   4.421
42554W        W14814   1.894  41.847   2.165
42555W        W14815  10.156  24.614   2.622
42556W        W14816  15.163  37.383  13.547
42557W        W14817   8.292   0.745   3.306
42558W        W14818  20.613  35.888  13.769
42559W        W14819  20.637  19.089  11.195
42560W        W14820  32.605  34.079  10.827
42561W        W14821  41.218  30.547  11.698
42562W        W14822  36.611  12.174  10.701
42563W        W14823  24.493  32.074  11.462
42564W        W14824  29.042  31.913  14.363
42565W        W14825   3.819  20.629  13.618
42566W        W14826   2.843  42.733  12.409
42567W        W14827   7.906  22.571  11.601
42568W        W14828  25.143  44.040   2.855
42569W        W14829  13.078   1.937  11.857
42570W        W14830  25.288  26.997  13.887
42571W        W14831  12.717  15.750  14.280
42572W        W14832  36.920  39.515   3.204
42573W        W14833  29.850  39.622   0.976
42574W        W14834  25.287  11.855   4.048
42575W        W14835  34.086  18.314  12.090
42576W        W14836  14.619  26.564   1.804
42577W        W14837  13.098   5.865   2.322
42578W        W14838   0.174  28.058  11.620
42579W        W14839  25.237  26.094   3.316
42580W        W14840   0.228   7.354   3.656
42581W        W14841  44.905  43.723   2.277
42582W        W14842  31.119  32.924  14.785
42583W        W14843  20.591  11.703  13.736
42584W        W14844  41.008   8.820   3.226
42585W        W14845  41.267  14.592  12.879
42586W        W14846  32.448  15.540  10.454
42587W        W14847  33.829  41.344   3.819
42588W        W14848   9.102  26.971   0.356
42589W        W14849  35.917  43.151   1.252
42590W        W14850  32.124  33.273   4.007
42591W        W14851  13.598  27.147  13.511
42592W        W14852  36.609  19.217   2.857
42593W        W14853  43.279  27.033  13.553
42594W        W14854   2.433   8.325   3.750
42595W        W14855  41.433  32.207   2.257
42596W        W14856  11.866  13.184  13.935
42597W        W14857  17.217  13.520  11.904
42598W        W14858  33.824  27.696  13.548
42599W        W14859  41.106   5.769  11.093
42600W        W14860  35.922  30.846   4.154
42601W        W14861  17.211  10.718   1.491
42602W        W14862  28.513  17.065   0.224
42603W        W14863  41.533  34.645  14.448
42604W        W14864   5.667  40.433  12.535
42605W        W14865  28.131  13.038  10.990
42606W        W14866  15.670  35.348  12.906
42607W        W14867  24.528  40.340  14.360
42608W        W14868  16.260   2.724   3.320
42609W        W14869  39.388  31.012   1.242
42610W        W14870   8.943  10.351  10.679
42611W        W14871  24.164  11.512  14.799
42612W        W14872  37.562   8.384   0.224
42613W        W14873  34.873  34.718  12.850
42614W        W14874  34.952  15.787  11.097
42615W        W14875  10.228   1.168   0.116
42616W        W14876  19.845  32.777   0.440
42617W        W14877  44.220   4.317  12.892
42618W        W14878  31.198  27.423   2.665
42619W        W14879  17.507  17.354   3.097
42620W        W14880  44.230  41.021  13.036
42621W        W14881  19.634  40.795   2.351
42622W        W14882  39.385   0.700   0.740
42623W        W14883  35.467  17.757  14.804
42624W        W14884  43.977  20.238  13.459
42625W        W14885   4.230  22.180  12.620
42626W        W14886  43.887  34.402   2.793
42627W        W14887  40.924  10.830   3.882
42628W        W14888   0.246   5.629   0.971
42629W        W14889  41.722   5.648  13.839
42630W        W14890   3.386  30.605   4.127
42631W        W14891  11.560  36.501   3.692
42632W        W14892  22.313  32.148  14.753
42633W        W14893  34.119   1.709  14.440
42634W        W14894   3.874  36.446  12.874
42635W        W14895  13.227  21.288  12.026
42636W        W14896  31.463  36.070  12.685
42637W        W14897  10.735  10.432  13.038
42638W        W14898  20.294  28.307   1.653
42639W        W14899  25.013  33.520   0.294
42640W        W14900   3.235  40.192  13.989
42641W        W14901  32.011  41.723   1.967
42642W        W14902  40.761   4.098  12.698
42643W        W14903  42.996  14.334   3.776
42644W        W14904  18.157  37.487  12.055
42645W        W14905  13.888  31.855  12.568
42646W        W14906  18.156  32.027   2.651
42647W        W14907  35.048   0.254   1.126
42648W        W14908  39.951  44.138  11.555
42649W        W14909  26.153  33.034   1.503
42650W        W14910  21.193  41.764  13.672
42651W        W14911  38.156  18.406   2.248
42652W        W14912   4.316   1.769   0.426
42653W        W14913  20.951  26.675   5.009
42654W        W14914  17.791  34.693  14.832
42655W        W14915  18.644  11.083  10.606
42656W        W14916   4.525  22.507  13.974
42657W        W14917   1.705  22.644   0.825
42658W        W14918   5.379   0.379  13.547
42659W        W14919  34.447  23.990  14.920
42660W        W14920   4.944  21.538   2.717
42661W        W14921   1.564  32.020   4.180
42662W        W14922  36.511   1.410  12.700
42663W        W14923  35.063   2.138  13.904
42664W        W14924  37.260   3.477  12.171
42665W        W14925  32.743   0.972   1.414
42666W        W14926  11.517  27.145  10.954
42667W        W14927  28.139  41.274  13.340
42668W        W14928  16.790  42.348  11.083
42669W        W14929  17.999  13.378  13.904
42670W        W14930   5.506  34.011   4.327
42671W        W14931  16.623  27.628  11.953
42672W        W14932  31.120  22.044  13.480
42673W        W14933  35.837  19.577  13.509
42674W        W14934  44.434  11.251  10.751
42675W        W14935   1.825  37.084  14.901
42676W        W14936  36.230   9.995   2.397
42677W        W14937  14.827   5.561  12.929
42678W        W14938  36.309   2.564  11.130
42679W        W14939  42.140  14.843   2.729
42680W        W14940  22.077  34.372  11.716
42681W        W14941   4.959  38.103   4.099
42682W        W14942  14.672   5.233  13.309
42683W        W14943  44.029  38.445  11.639
42684W        W14944  23.001  33.014  12.487
42685W        W14945  13.390  30.537  10.400
42686W        W14946  17.301  37.820   3.154
42687W        W14947  29.739  38.277  11.709
42688W        W14948   8.401   8.874   4.644
42689W        W14949  40.930  37.592   1.351
42690W        W14950  30.998  38.006  14.259
42691W        W14951  20.129   9.268   2.735
42692W        W14952  17.526  28.602   0.100
42693W        W14953  43.527   0.335   4.781
42694W        W14954  30.562  31.395  11.634
42695W        W14955  10.542  17.303   3.923
42696W        W14956  21.545  24.991   1.252
42697W        W14957  20.228   6.145   2.328
42698W        W14958   5.204  32.577   4.567
42699W        W14959   1.665  32.098   1.444
42700W        W14960  19.572   2.846   1.953
42701W        W14961  44.842   7.929   0.428
42702W        W14962  42.322  13.841   0.858
42703W        W14963   2.735  44.304   0.376
42704W        W14964  25.991  17.064   4.610
42705W        W14965  20.022  37.475  14.560
42706W        W14966  42.832  35.085   1.395
42707W        W14967   0.351  13.220   1.847
42708W        W14968  40.270  22.396   4.516
42709W        W14969  11.238  30.943   2.598
42710W        W14970  32.993  36.091   2.751
42711W        W14971   7.914  40.847  12.534
42712W        W14972  26.195  24.035  10.668
42713W        W14973  17.175  40.763  12.996
42714W        W14974   5.393  10.830   2.218
42715W        W14975   5.838  44.931  11.976
42716W        W14976  21.782  39.368   4.681
42717W        W14977  31.682  40.290  11.038
42718W        W14978  10.340  42.878   1.938
42719W        W14979   5.751  10.007  11.129
42720W        W14980  31.922  22.056  10.939
42721W        W14981  16.300  28.653   3.166
42722W        W14982  30.236  22.954  13.046
42723W        W14983   0.715  17.166   0.437
42724W        W14984   5.385  13.716   2.814
42725W        W14985   5.162   1.786  14.758
42726W        W14986   9.760  32.816   2.161
42727W        W14987  22.058  25.574   4.173
42728W        W14988  44.791  15.760   4.630
42729W        W14989  10.739  30.019  12.054
42730W        W14990  13.130  25.199  12.223
42731W        W14991  38.403   6.768   1.789
42732W        W14992  35.543   4.215  13.359
42733W        W14993  37.613  32.094  11.990
42734W        W14994  19.302  30.436  13.457
42735W        W14995  44.247  15.383  13.644
42736W        W14996  26.543  16.529   3.289
42737W        W14997   0.910  35.745   1.331
42738W        W14998  10.399  31.720   3.097
42739W        W14999   9.351  22.572  10.514
42740W        W15000  44.803  17.520   2.275
42741W        W15001  43.469  36.365  13.540
42742W        W15002  16.630   7.108   9.744
42743W        W15003   5.250  44.315  13.935
42744W        W15004   1.541  30.109  14.350
42745W        W15005  10.258  17.451   3.001
42746W        W15006   6.365  37.831  13.066
42747W        W15007  10.265  35.856   4.619
42748W        W15008  22.494  32.703   2.441
42749W        W15009   2.821   1.810  12.628
42750W        W15010  31.197  16.534  14.637
42751W        W15011  19.583  29.147   2.869
42752W        W15012  15.843  40.459   0.552
42753W        W15013   8.115  33.993  13.986
42754W        W15014   0.584  36.431   4.854
42755W        W15015  14.169  26.076  13.063
42756W        W15016   5.468   6.746  12.227
42757W        W15017  38.137  21.690   1.766
42758W        W15018  32.080  12.833   2.608
42759W        W15019  25.212  31.209  13.879
42760W        W15020  42.744  27.295  14.822
42761W        W15021  16.667  31.293  13.818
42762W        W15022  32.892  27.407  13.456
42763W        W15023  24.428  30.872   4.673
42764W        W15024   5.654  33.806   2.588
42765W        W15025  41.168   1.278   4.152
42766W        W15026  17.746   4.856  14.939
42767W        W15027  43.506  17.798  13.961
42768W        W15028   6.959  27.988   2.390
42769W        W15029  27.300  15.567   4.646
42770W        W15030  15.171  33.138   2.690
42771W        W15031   1.951  19.079  12.330
42772W        W15032  26.530   2.761   2.432
42773W        W15033  23.711  16.288   0.308
42774W        W15034  29.351   7.303   1.386
42775W        W15035  10.253  24.932  12.922
42776W        W15036  33.577  35.340  14.942
42777W        W15037  30.101  43.440   3.850
42778W        W15038  41.997  32.102   2.910
42779W        W15039   9.229  33.671  11.107
42780W        W15040  40.897  23.580  11.159
42781W        W15041  24.266  12.021  14.824
42782W        W15042  13.229  20.234  11.842
42783W        W15043  23.725  23.170   0.827
42784W        W15044  10.068  18.901  14.053
42785W        W15045  25.767  17.862   3.252
42786W        W15046  22.499  25.853   2.690
42787W        W15047  28.695   9.849   3.745
42788W        W15048  26.741   5.942   3.304
42789W        W15049  41.774  16.570  11.169
42790W        W15050  25.536  13.694   3.244
42791W        W15051   4.840  36.495  12.891
42792W        W15052   0.974  42.069   0.814
42793W        W15053  38.619  13.243   3.219
42794W        W15054  38.686  34.425   0.810
42795W        W15055  20.261  25.050   0.789
42796W        W15056   0.208  26.706   0.474
42797W        W15057  28.250  37.517   0.856
42798W        W15058  37.069   6.686   3.325
42799W        W15059   3.914   8.602  14.408
42800W        W15060  21.548   0.060   2.828
42801W        W15061   6.164  43.458  13.286
42802W        W15062  11.059  44.762  12.383
42803W        W15063  28.331  40.347  13.059
42804W        W15064   5.429  27.512   3.893
42805W        W15065  20.648  34.540   1.687
42806W        W15066  11.326  38.007   2.253
42807W        W15067  12.934  19.550   0.835
42808W        W15068  26.189  20.037  11.575
42809W        W15069  39.965  40.991   2.767
42810W        W15070  32.177  14.857  12.522
42811W        W15071  15.624   2.715   0.465
42812W        W15072  12.487   0.027  14.009
42813W        W15073  44.572  40.593   4.676
42814W        W15074  27.921  35.959   4.131
42815W        W15075  33.897  21.967   0.660
42816W        W15076  10.812  12.397   2.078
42817W        W15077  15.954  37.275  11.991
42818W        W15078   9.911  11.663  10.994
42819W        W15079  21.474  18.282  14.596
42820W        W15080  44.742  14.136   2.699
42821W        W15081  33.346   0.823   4.764
42822W        W15082  20.507  19.158  14.441
42823W        W15083  30.481  22.341   0.791
42824W        W15084  24.281  41.436   3.689
42825W        W15085  42.870  24.111  13.762
42826W        W15086  31.967  23.596   3.158
42827W        W15087  42.473  10.210   3.783
42828W        W15088  44.824  30.371  11.118
42829W        W15089  16.057  12.619   1.259
42830W        W15090  44.135  39.167  11.200
42831W        W15091  32.155  44.527  14.848
42832W        W15092  41.514  17.653   2.774
42833W        W15093  37.352  29.886  11.689
42834W        W15094   8.762  26.526  11.130
42835W        W15095  23.642   9.821   1.947
42836W        W15096  17.191   0.254   2.954
42837W        W15097  26.235  28.502   0.788
42838W        W15098  35.778  14.272   3.746
42839W        W15099  15.229   7.892   2.212
42840W        W15100  15.851  17.136  13.609
42841W        W15101   5.845  12.809  13.490
42842W        W15102  34.422  36.055   3.666
42843W        W15103  13.549   6.343  12.424
42844W        W15104  44.717  19.718  12.440
42845W        W15105  33.602  11.195  12.089
42846W        W15106   1.162  25.079  14.008
42847W        W15107  26.690  35.518   4.969
42848W        W15108  11.413  36.184  12.345
42849W        W15109  26.491  17.024  10.907
42850W        W15110   5.758  29.659   4.119
42851W        W15111  28.629  21.017   3.275
42852W        W15112   9.095  19.293   0.319
42853W        W15113  14.255   3.270   3.819
42854W        W15114  35.897  21.710  14.749
42855W        W15115  40.407  39.022   0.987
42856W        W15116  25.302  32.212   1.404
42857W        W15117  31.964  17.271   2.884
42858W        W15118  44.720  23.770  13.138
42859W        W15119   9.380  43.405  13.885
42860W        W15120  19.715  30.905  10.730
42861W        W15121  12.917  37.049   2.809
42862W        W15122  44.316  27.096   4.400
42863W        W15123   9.637  14.368  11.004
42864W        W15124  40.694  15.411  12.629
42865W        W15125  35.406  34.907   1.684
42866W        W15126  40.576   6.778   0.731
42867W        W15127  18.783   7.642   0.500
42868W        W15128   8.913   2.840  13.732
42869W        W15129  27.841   4.645   1.785
42870W        W15130   9.335  27.916  13.993
42871W        W15131   3.383  25.091   0.411
42872W        W15132  27.161   8.256   0.456
42873W        W15133  29.841  41.980  11.915
42874W        W15134   3.251  41.967   4.018
42875W        W15135  27.160   3.269   4.588
42876W        W15136  20.248   1.844   5.086
42877W        W15137   6.947  43.523   4.674
42878W        W15138  25.522  13.749  12.909
42879W        W15139  14.970  17.003   0.611
42880W        W15140  40.027  31.955   3.229
42881W        W15141  42.276  16.227  12.322
42882W        W15142   0.689  21.686   0.765
42883W        W15143  26.931  28.128  14.763
42884W        W15144  27.389  40.006  11.654
42885W        W15145  38.897  15.458   4.862
42886W        W15146  14.339  32.507  13.791
42887W        W15147  30.733  11.179  14.756
42888W        W15148  18.777  37.819  14.824
42889W        W15149  44.841  37.429   4.658
42890W        W15150  41.509  22.766  13.054
42891W        W15151  16.768  41.421  14.040
42892W        W15152  13.222  14.229  13.015
42893W        W15153  15.043  42.836  11.596
42894W        W15154  11.334  43.040   3.008
42895W        W15155  11.738  10.469   1.836
42896W        W15156   2.519   6.912   3.544
42897W        W15157  17.766  15.771   3.691
42898W        W15158  13.724   0.612  13.538
42899W        W15159  40.889  22.259   1.766
42900W        W15160  28.104   5.685   5.063
42901W        W15161  37.625  41.571   3.384
42902W        W15162  41.436  20.528   2.162
42903W        W15163  11.754  18.468  12.449
42904W        W15164  18.743  41.923   3.302
42905W        W15165  11.908  11.075   2.900
42906W        W15166  40.868  43.579   2.585
42907W        W15167   6.217  12.334  12.033
42908W        W15168  30.555  12.448  14.053
42909W        W15169  26.728  19.233  13.607
42910W        W15170  19.938  36.020  10.639
42911W        W15171  10.700  20.545  11.657
42912W        W15172  34.934  13.309  13.313
42913W        W15173  18.551   2.057  11.212
42914W        W15174  42.841  43.935   4.865
42915W        W15175   6.868  24.754  14.485
42916W        W15176  28.649  21.670   0.435
42917W        W15177   5.246  43.219   4.301
42918W        W15178  33.948  34.372   4.256
42919W        W15179   9.296  29.476   0.930
42920W        W15180   3.828  31.737  14.022
42921W        W15181  10.877  28.928  13.029
42922W        W15182  26.781  36.133   2.265
42923W        W15183  13.555  19.297  10.779
42924W        W15184  20.925   0.302   0.532
42925W        W15185  12.778  19.432   5.000
42926W        W15186  17.792  16.197  13.893
42927W        W15187  12.970   8.726   2.123
42928W        W15188   7.599  28.770   2.831
42929W        W15189   1.186   6.620  14.475
42930W        W15190  21.063  11.209   2.287
42931W        W15191  24.635  19.329  12.553
42932W        W15192  18.659  29.657   2.834
42933W        W15193  38.270  43.246  14.805
42934W        W15194  44.916   8.481   4.195
42935W        W15195   3.590   5.762   2.347
42936W        W15196  29.254  14.168   3.287
42937W        W15197  35.036  12.212   3.267
42938W        W15198  38.938  10.683   0.737
42939W        W15199   2.381  37.009   3.318
42940W        W15200   8.233  29.155   3.740
42941W        W15201   1.540   2.557   1.507
42942W        W15202  28.856   4.163  10.582
42943W        W15203  33.925   5.863  10.458
42944W        W15204  18.071  13.795   2.838
42945W        W15205  43.916   8.241  12.570
42946W        W15206  17.307   1.624   4.234
42947W        W15207  44.282   9.156   1.237
42948W        W15208  13.245   5.424   0.260
42949W        W15209   4.647  16.021  12.255
42950W        W15210   6.213  13.831   3.220
42951W        W15211  21.607  15.934   4.002
42952W        W15212  24.070  19.520  11.996
42953W        W15213   9.028  30.005   4.142
42954W        W15214   8.786  30.571  14.715
42955W        W15215  24.163  17.838  10.764
42956W        W15216   1.252  10.418  11.251
42957W        W15217  11.856  11.604  12.323
42958W        W15218   2.265  17.403  14.757
42959W        W15219  26.480  27.440  11.982
42960W        W15220   5.273  22.806  11.646
42961W        W15221   9.809   3.213  13.080
42962W        W15222   2.401  40.204  14.959
42963W        W15223  40.381  42.276  11.573
42964W        W15224  16.609  30.104  11.605
42965W        W15225  41.886  10.084   9.836
42966W        W15226   0.128  26.621  10.122
42967W        W15227  19.839  39.412  14.402
42968W        W15228  32.667  22.666   4.450
42969W        W15229   7.111  43.738   1.311
42970W        W15230  32.010   1.863  11.424
42971W        W15231  10.607  43.806   0.237
42972W        W15232  29.589  28.429   0.883
42973W        W15233  29.120   5.124   2.412
42974W        W15234   6.400   3.445  14.773
42975W        W15235  16.057  22.697  11.615
42976W        W15236   1.407   4.653  11.328
42977W        W15237   3.992  44.920   3.801
42978W        W15238  13.897  34.592   3.170
42979W        W15239  28.849  25.063   1.823
42980W        W15240   4.716  13.697   0.371
42981W        W15241  30.926  20.052  13.140
42982W        W15242  24.842  14.195  11.928
42983W        W15243   8.912   3.878   5.248
42984W        W15244  26.545  13.904  12.505
42985W        W15245   4.271  40.647  10.723
42986W        W15246  21.879  15.221  12.502
42987W        W15247  10.207  26.438  13.962
42988W        W15248  33.688  40.006   3.659
42989W        W15249  11.122  23.169   4.017
42990W        W15250  34.016  44.370   4.816
42991W        W15251  37.317  20.216  14.319
42992W        W15252   5.749  27.226  11.133
42993W        W15253  15.295  27.564  13.581
42994W        W15254  21.536  24.662  13.563
42995W        W15255   6.279   0.201   4.737
42996W        W15256  12.862   5.192   4.570
42997W        W15257  15.856  38.776  13.357
42998W        W15258  42.001   5.428  11.562
42999W        W15259  33.569  23.181  10.835
43000W        W15260  37.663  21.559   1.882
43001W        W15261  25.515  17.997  11.170
43002W        W15262  25.075   7.474  11.973
43003W        W15263   8.243   9.574   0.940
43004W        W15264  34.960  12.851  13.531
43005W        W15265   5.138   0.487   2.201
43006W        W15266  35.005  31.106  13.339
43007W        W15267  34.887   7.647  11.862
43008W        W15268  14.617   1.699   4.152
43009W        W15269  36.048  21.104  12.180
43010W        W15270   4.830  30.642   2.650
43011W        W15271  34.561  18.928   1.501
43012W        W15272  40.257  26.586   2.749
43013W        W15273  20.067  41.280   0.863
43014W        W15274  39.453  14.536  10.730
43015W        W15275  20.535  28.495  14.479
43016W        W15276  26.410  36.454  12.981
43017W        W15277  21.145   8.578  11.998
43018W        W15278  29.131   2.218  11.624
43019W        W15279  16.708  18.110  10.342
43020W        W15280   2.220  10.183   9.954
43021W        W15281  25.940  27.658   2.439
43022W        W15282  23.179  40.427  14.814
43023W        W15283  36.014  44.720  13.899
43024W        W15284   2.212  11.564  13.147
43025W        W15285  13.744  17.159   4.387
43026W        W15286  35.541  44.090  12.388
43027W        W15287   9.072  36.695  11.517
43028W        W15288  44.597  16.609  14.573
43029W        W15289  30.076  13.381  11.725
43030W        W15290  21.207  10.718   2.386
43031W        W15291  30.622  29.952   0.717
43032W        W15292   8.383  33.351  10.709
43033W        W15293  44.773  33.064  12.942
43034W        W15294  13.240  38.516  12.320
43035W        W15295  42.550  36.291   0.913
43036W        W15296  38.397  23.423   1.256
43037W        W15297  23.073   2.284  14.706
43038W        W15298  19.525  20.514   3.325
43039W        W15299  44.419  36.030   0.509
43040W        W15300  18.630  38.842   3.151
43041W        W15301  39.267  13.982   3.571
43042W        W15302  23.539  41.606   4.170
43043W        W15303  34.080  14.780   3.796
43044W        W15304  11.930  34.403  10.717
43045W        W15305  42.158  43.772  13.448
43046W        W15306  17.207  44.334   3.361
43047W        W15307  24.184  41.453  12.439
43048W        W15308   0.008  22.106  14.392
43049W        W15309  18.406   9.747   0.596
43050W        W15310  14.669  30.221   4.626
43051W        W15311   9.409  15.741   2.016
43052W        W15312   9.608  21.615  11.648
43053W        W15313  32.532  26.920   0.841
43054W        W15314   2.925   4.441   4.434
43055W        W15315  32.118  20.594  12.941
43056W        W15316  40.017  21.702  14.734
43057W        W15317  37.355  18.093  14.948
43058W        W15318  29.529  27.263   4.264
43059W        W15319  19.772   0.887   0.467
43060W        W15320  13.743  33.014   2.025
43061W        W15321  44.833  18.022   0.978
43062W        W15322  16.526  29.180  11.391
43063W        W15323   4.750  10.845   1.256
43064W        W15324  26.454   6.418   4.642
43065W        W15325  13.870  35.090  13.535
43066W        W15326  11.767  43.040   4.747
43067W        W15327  16.998  18.736   4.229
43068W        W15328  39.530  21.979  12.136
43069W        W15329  21.425  31.059   1.486
43070W        W15330  31.018  20.952   2.665
43071W        W15331  13.452  22.554   0.299
43072W        W15332  17.844  40.290   1.790
43073W        W15333  42.716  10.665  14.387
43074W        W15334  35.075  38.727  11.971
43075W        W15335   9.884   9.857  12.868
43076W        W15336  36.514  40.481  11.556
43077W        W15337  38.628  41.878  14.857
43078W        W15338  29.237  31.989  10.169
43079W        W15339  10.271  29.923   2.798
43080W        W15340  30.120  26.580  11.788
43081W        W15341  13.317   8.079  11.597
43082W        W15342  29.206  40.930   0.230
43083W        W15343  27.528  14.577  13.166
43084W        W15344  16.644  29.827  11.172
43085W        W15345  30.169  31.446   0.256
43086W        W15346  22.915  14.630   4.128
43087W        W15347  31.012  42.406  12.461
43088W        W15348  30.207  41.855  10.653
43089W        W15349  14.845  38.354   2.420
43090W        W15350   5.474  13.094  10.633
43091W        W15351   0.762  35.301  11.030
43092W        W15352  15.594  39.114  13.741
43093W        W15353  20.169  13.224  13.062
43094W        W15354   3.974  19.598   4.956
43095W        W15355  27.762  34.664   3.101
43096W        W15356  14.895  33.359   1.366
43097W        W15357  27.004  18.256   3.909
43098W        W15358  37.440  13.333   0.598
43099W        W15359   1.263  17.292   2.835
43100W        W15360  15.299  16.492   4.064
43101W        W15361  26.916  41.388   2.813
43102W        W15362  12.053  25.952  13.843
43103W        W15363  11.836  26.011   1.186
43104W        W15364  41.525  26.979   4.788
43105W        W15365  11.689   4.780   3.687
43106W        W15366  43.027  20.915   1.558
43107W        W15367  44.227  27.502  12.162
43108W        W15368  23.671  23.808   2.189
43109W        W15369  15.552  26.089   1.262
43110W        W15370  28.014   9.294  10.814
43111W        W15371  24.646  17.844   4.891
43112W        W15372  37.348  24.868  13.379
43113W        W15373  16.812  33.330   1.328
43114W        W15374   1.445  23.984  10.696
43115W        W15375  12.873  27.942   0.654
43116W        W15376  29.892  31.526   1.148
43117W        W15377  20.175  40.501   2.196
43118W        W15378  31.023  30.424   2.782
43119W        W15379  31.140   3.751  12.374
43120W        W15380  44.035  31.555  10.489
43121W        W15381  17.608  20.474   3.249
43122W        W15382   6.689  14.062   1.481
43123W        W15383   2.274  17.111  10.607
43124W        W15384  42.031  21.003  11.913
43125W        W15385  32.507  14.992  14.770
43126W        W15386  21.550  28.210  10.179
43127W        W15387  40.002  34.179  12.844
43128W        W15388  23.914   1.451   0.321
43129W        W15389  43.560  43.796  11.136
43130W        W15390  14.035   8.701  13.976
43131W        W15391  19.442  10.197  13.768
43132W        W15392  17.718  26.434  13.419
43133W        W15393  38.929   1.625   3.149
43134W        W15394  30.986   0.830  10.418
43135W        W15395  11.411  21.609  11.878
43136W        W15396  40.597  34.382  14.667
43137W        W15397   0.741  10.988   4.081
43138W        W15398  17.655   9.794   4.715
43139W        W15399  18.765  34.008   3.686
43140W        W15400  17.199  29.057   3.093
43141W        W15401   0.258   3.756  12.584
43142W        W15402  44.353  34.605   2.691
43143W        W15403  20.999  23.572   0.445
43144W        W15404  39.210  27.330   1.842
43145W        W15405  42.764  37.713  11.268
43146W        W15406  33.279  36.178   9.927
43147W        W15407   0.241  32.602  13.203
43148W        W15408  39.834   9.891  12.034
43149W        W15409   3.518  41.570   5.093
43150W        W15410  18.322  29.667  11.128
43151W        W15411  16.281   5.226   3.172
43152W        W15412  29.243  42.445   0.840
43153W        W15413  19.174  34.789   2.061
43154W        W15414   7.510   3.784   0.440
43155W        W15415  11.350  20.817  11.942
43156W        W15416  26.367  12.182   3.690
43157W        W15417  10.228  25.556  14.804
43158W        W15418  30.779  38.070  14.740
43159W        W15419  24.571  23.452   2.260
43160W        W15420  11.686   6.932  14.911
43161W        W15421   0.867  20.181  10.691
43162W        W15422  14.561   6.268  14.403
43163W        W15423  34.534  32.681   2.689
43164W        W15424  31.070  40.462   3.279
43165W        W15425  10.949  36.969  14.937
43166W        W15426  10.126  39.317  10.687
43167W        W15427  22.177   4.219   2.314
43168W        W15428  33.142  23.977  13.421
43169W        W15429  40.632  11.568  13.925
43170W        W15430   3.824   2.475  13.905
43171W        W15431  19.990  25.260  14.332
43172W        W15432  17.046   1.312   2.726
43173W        W15433  11.444   2.103   0.446
43174W        W15434   0.743  40.433  12.865
43175W        W15435  30.483  17.669  11.174
43176W        W15436   5.666   9.625   3.339
43177W        W15437   3.677   2.094   3.311
43178W        W15438  21.698  29.324  11.572
43179W        W15439  35.431   3.483   2.765
43180W        W15440  14.194  36.903  12.867
43181W        W15441  24.082  13.908   1.736
43182W        W15442  42.860  39.756   3.280
43183W        W15443  42.500   8.659  13.375
43184W        W15444  27.011  39.922   1.228
43185W        W15445   4.964  21.050   2.319
43186W        W15446   7.404  13.616   0.362
43187W        W15447  28.270  23.620   4.984
43188W        W15448  10.571  11.352   4.998
43189W        W15449  22.050  15.789   1.801
43190W        W15450  22.366  10.893   0.204
43191W        W15451  25.888  44.500   0.336
43192W        W15452  16.124   1.441  10.711
43193W        W15453  12.134   9.193   1.789
43194W        W15454  32.037  27.208  10.769
43195W        W15455  32.437  24.922  14.033
43196W        W15456  30.035   3.697   3.330
43197W        W15457  11.612   1.780   2.704
43198W        W15458  40.918  32.090  13.412
43199W        W15459  38.026  28.871   4.606
43200W        W15460   6.327   5.910   2.759
43201W        W15461  17.167  29.941  14.555
43202W        W15462  32.128  18.328  12.865
43203W        W15463  28.001   0.575   0.756
43204W        W15464   6.772   0.300   1.202
43205W        W15465  40.988   6.069  12.483
43206W        W15466  23.590   2.835  14.248
43207W        W15467  29.092  26.507   1.927
43208W        W15468   6.618  43.862   1.158
43209W        W15469   0.011  34.573  13.299
43210W        W15470  39.640  37.947   0.347
43211W        W15471   5.617  38.672   0.749
43212W        W15472   6.984  16.301   4.750
43213W        W15473   6.749  21.792   0.528
43214W        W15474  32.673  28.131   1.417
43215W        W15475   6.285  24.473  13.581
43216W        W15476  15.046   4.343  14.758
43217W        W15477  34.445  41.623  13.879
43218W        W15478  20.999  22.012  10.200
43219W        W15479  37.434   5.323   3.978
43220W        W15480  37.005  43.323  12.903
43221W        W15481  39.432  34.146  13.498
43222W        W15482  23.419  26.746   2.205
43223W        W15483  32.268   7.626  10.872
43224W        W15484  40.420  16.222   4.159
43225W        W15485  12.150  30.860  12.281
43226W        W15486  35.663  36.291  11.311
43227W        W15487  13.660  20.219   4.066
43228W        W15488  25.626  33.632  11.029
43229W        W15489  43.852  31.578   4.265
43230W        W15490   1.859  41.026   2.427
43231W        W15491  27.636  29.561   2.959
43232W        W15492  41.838  44.306   4.507
43233W        W15493   7.017  31.943  10.870
43234W        W15494  44.491   4.339  14.248
43235W        W15495  23.767   0.910  11.497
43236W        W15496  35.790   7.695  11.079
43237W        W15497  24.906   9.831   1.175
43238W        W15498  14.817   5.342  13.784
43239W        W15499  18.640  17.533   4.125
43240W        W15500  23.020   2.775  12.575
43241W        W15501  24.555  32.550   2.583
43242W        W15502   6.840  29.220   5.094
43243W        W15503  22.530  20.620  11.576
43244W        W15504  27.945   7.187   4.149
43245W        W15505  13.811   0.309  13.105
43246W        W15506  12.813  12.789  12.660
43247W        W15507  16.685   7.683   5.198
43248W        W15508   4.488  20.825  13.946
43249W        W15509   2.978  30.403  12.062
43250W        W15510   5.408  37.113   1.084
43251W        W15511  26.205   0.977   0.865
43252W        W15512  17.229  10.656   2.018
43253W        W15513  30.975  27.445  14.749
43254W        W15514  18.168  27.636  11.368
43255W        W15515  18.516  22.147  10.526
43256W        W15516   2.571  12.499  13.492
43257W        W15517  40.878  16.696  11.276
43258W        W15518  33.062  11.301   1.806
43259W        W15519  29.665  24.251  11.139
43260W        W15520  43.355  30.448   3.914
43261W        W15521  30.020  37.992  10.346
43262W        W15522  18.034  39.778  11.110
43263W        W15523  28.033  14.334   0.873
43264W        W15524  19.158   4.117   0.308
43265W        W15525  35.984  23.017   1.536
43266W        W15526  27.380  42.090  11.033
43267W        W15527  14.178  44.748  10.865
43268W        W15528  30.716  41.054  10.475
43269W        W15529  24.016   2.871  13.558
43270W        W15530  44.413  32.513   3.348
43271W        W15531  10.756  23.257  12.424
43272W        W15532  38.360  30.560  13.342
43273W        W15533  40.055  37.595  12.133
43274W        W15534   5.341  34.130   2.862
43275W        W15535  16.125  41.467   2.393
43276W        W15536  10.645  30.912  10.852
43277W        W15537  20.837  25.223   1.861
43278W        W15538   5.970   5.879   1.730
43279W        W15539  22.090   2.030   2.440
43280W        W15540  17.182  42.041  12.099
43281W        W15541  31.204  24.971  14.328
43282W        W15542  29.960  26.136  12.002
43283W        W15543  26.643   1.094  12.385
43284W        W15544  23.167  23.439  11.198
43285W        W15545  17.117  15.846   2.383
43286W        W15546  18.701  28.173  10.838
43287W        W15547   8.717  25.789   0.965
43288W        W15548  16.068  14.185  10.573
43289W        W15549   0.952   8.465   1.523
43290W        W15550  17.244   3.755  12.074
43291W        W15551   4.609  39.736  10.339
43292W        W15552  11.382  30.919  14.857
43293W        W15553  26.091   2.271   2.357
43294W        W15554  40.001   4.276  11.851
43295W        W15555  40.224  41.056   1.927
43296W        W15556  18.841   6.348  13.988
43297W        W15557  10.995  11.181  11.177
43298W        W15558  22.120  40.367  11.511
43299W        W15559  10.892  37.545   2.888
43300W        W15560  33.141  21.335   4.027
43301W        W15561  34.991  27.543   3.937
43302W        W15562  29.528  13.185  13.763
43303W        W15563  30.460  10.632   3.422
43304W        W15564  42.231   8.442  13.810
43305W        W15565  17.472  12.889   0.221
43306W        W15566  19.263  16.884  13.855
43307W        W15567   3.354  20.775  12.438
43308W        W15568   3.795  31.287   0.484
43309W        W15569  22.146   2.448   1.886
43310W        W15570  34.520  42.613   1.693
43311W        W15571  26.547   6.160   0.240
43312W        W15572  42.346  16.314  14.657
43313W        W15573   8.348   4.890  12.550
43314W        W15574   3.019   3.959   2.662
43315W        W15575   9.270  26.398   4.891
43316W        W15576  41.834  38.995   0.060
43317W        W15577  22.844  16.440   0.119
43318W        W15578  40.034  39.791  12.006
43319W        W15579  12.326  10.798   2.713
43320W        W15580  11.555  19.462  12.419
43321W        W15581  14.618  28.138  13.839
43322W        W15582  31.460  35.143  13.001
43323W        W15583  41.643   3.986  14.955
43324W        W15584  41.391  14.850   4.348
43325W        W15585  27.157  43.503   4.850
43326W        W15586  37.617  18.307   1.200
43327W        W15587  33.968  41.363   4.705
43328W        W15588  44.098  14.737  14.831
43329W        W15589   3.451   3.771  13.524
43330W        W15590  13.276  31.280   5.304
43331W        W15591   2.690  36.605   2.391
43332W        W15592   6.237  16.717   2.386
43333W        W15593  17.647   6.245   2.900
43334W        W15594  29.409  33.588  11.119
43335W        W15595  37.383   2.267   0.517
43336W        W15596  28.350  37.909  11.991
43337W        W15597  15.472  20.386  12.381
43338W        W15598   8.580  25.242   0.023
43339W        W15599  15.926  25.047  11.616
43340W        W15600  40.176   6.359   1.813
43341W        W15601   2.558   1.567   4.249
43342W        W15602  34.297  24.982   2.686
43343W        W15603  12.103  19.895  10.270
43344W        W15604  36.091   6.906  14.434
43345W        W15605  29.305  35.053  12.980
43346W        W15606  22.115  32.936  13.401
43347W        W15607  14.090  10.211  10.647
43348W        W15608  20.936  19.733   3.210
43349W        W15609  37.079   9.715   0.238
43350W        W15610  22.782  44.746   3.058
43351W        W15611  38.682  32.899  14.697
43352W        W15612  35.424  11.075   2.716
43353W        W15613   4.791  22.124  12.494
43354W        W15614  14.519   4.905   4.508
43355W        W15615  31.122  26.359   9.891
43356W        W15616  37.081   5.432  11.089
43357W        W15617  34.056  16.622   1.796
43358W        W15618  33.651  14.660   4.175
43359W        W15619  36.932  17.299   2.866
43360W        W15620   6.915  13.502   2.802
43361W        W15621  39.024   7.090   4.672
43362W        W15622  31.944  25.132  11.611
43363W        W15623  44.214  39.554   4.585
43364W        W15624   7.199   9.692   0.974
43365W        W15625  28.667  27.001  14.141
43366W        W15626  31.661  27.889  14.494
43367W        W15627  12.743   5.046  14.064
43368W        W15628  31.685  43.468  12.974
43369W        W15629   4.236  34.559   4.153
43370W        W15630  25.604  41.418   2.392
43371W        W15631   4.733  23.107  10.965
43372W        W15632  41.801  43.238  11.105
43373W        W15633  27.740   7.420   3.668
43374W        W15634  39.795  30.745  13.797
43375W        W15635  11.532  37.914  14.716
43376W        W15636  14.135  28.982  14.965
43377W        W15637  19.327  36.043   3.450
43378W        W15638  26.261  18.151  10.740
43379W        W15639   5.181   7.710  13.434
43380W        W15640   3.798  12.225   0.662
43381W        W15641   5.485  21.559   4.928
43382W        W15642  18.994  22.186   2.390
43383W        W15643  35.849  25.554  13.884
43384W        W15644  36.322   3.481  13.950
43385W        W15645  29.982  30.520  10.664
43386W        W15646   1.117  33.274  14.802
43387W        W15647  27.633  33.610  14.600
43388W        W15648   7.879   7.877  12.571
43389W        W15649   6.652  11.828   2.181
43390W        W15650   0.840  18.038  12.136
43391W        W15651  25.203  35.400   4.183
43392W        W15652  41.525  16.169   2.295
43393W        W15653   7.201  10.670   0.558
43394W        W15654  37.027  28.381   1.623
43395W        W15655  32.164  18.230  14.282
43396W        W15656  35.543   7.321  11.576
43397W        W15657  25.550  11.325   4.798
43398W        W15658   2.897  29.091  14.020
43399W        W15659   0.762   6.675  12.545
43400W        W15660  40.698  17.905  12.822
43401W        W15661  27.640   8.672  13.981
43402W        W15662  29.785  17.780   3.771
43403W        W15663  43.401   1.203  10.556
43404W        W15664  11.028   3.218  14.469
43405W        W15665  16.696  39.514   1.341
43406W        W15666  31.832  13.327  11.392
43407W        W15667   0.947  35.412  13.074
43408W        W15668   1.069   4.010   0.140
43409W        W15669  40.082  22.386   3.906
43410W        W15670  38.934  44.360   0.270
43411W        W15671   2.737  25.156  14.038
43412W        W15672  18.216  41.606   1.250
43413W        W15673   2.875  10.853   2.142
43414W        W15674  40.041  38.876  11.016
43415W        W15675  20.715  29.655  12.877
43416W        W15676  30.779  30.868   4.163
43417W        W15677  25.540   5.891  13.840
43418W        W15678  19.498  17.775  12.896
43419W        W15679  26.222  12.410  12.015
43420W        W15680  14.351  40.813   0.052
43421W        W15681  12.282   7.457   3.740
43422W        W15682   5.455  26.661   0.773
43423W        W15683   9.406  14.813  14.205
43424W        W15684   4.762  16.795   4.533
43425W        W15685  18.487  22.737   4.132
43426W        W15686  16.049  20.878   1.133
43427W        W15687  30.010   0.116   2.885
43428W        W15688  25.990   8.914   0.438
43429W        W15689   6.666   7.446   0.857
43430W        W15690  34.293   8.714   3.200
43431W        W15691  20.231  11.154  11.097
43432W        W15692  10.693  16.636  12.899
43433W        W15693  26.012  13.756  11.684
43434W        W15694  32.728  28.184  13.998
43435W        W15695  15.615  23.057  12.807
43436W        W15696  35.342  15.748  10.745
43437W        W15697   6.836  41.580   3.671
43438W        W15698   7.881  28.444   0.651
43439W        W15699  41.593   1.645   2.848
43440W        W15700  43.751  32.491   0.041
43441W        W15701  40.818  44.897  13.894
43442W        W15702  10.575  12.283  12.549
43443W        W15703  35.721  21.238   2.976
43444W        W15704  22.162   0.295   4.520
43445W        W15705  30.973   8.925   2.816
43446W        W15706  24.063  31.665  13.352
43447W        W15707   5.333   4.901   3.130
43448W        W15708  30.963   0.359   3.698
43449W        W15709  19.770  11.216   3.692
43450W        W15710  43.174  23.169  10.624
43451W        W15711  28.166  21.934  11.477
43452W        W15712   7.299  44.714   1.449
43453W        W15713   9.724   1.275   4.922
43454W        W15714   0.797  28.000  13.376
43455W        W15715  35.888   1.324   2.142
43456W        W15716   7.329  28.693   3.722
43457W        W15717   9.306  39.938   2.649
43458W        W15718  28.300   4.633   2.188
43459W        W15719  33.810  10.736   2.168
43460W        W15720  40.592  35.212  10.647
43461W        W15721   3.313   3.390  13.962
43462W        W15722  32.433  33.057  13.992
43463W        W15723  41.766  17.049  12.664
43464W        W15724   4.353   5.740  10.539
43465W        W15725  27.563  28.018  13.098
43466W        W15726  25.902  40.284   4.291
43467W        W15727   5.869  27.533   3.641
43468W        W15728  26.044  38.592   3.170
43469W        W15729  11.845  15.185   3.652
43470W        W15730   0.253  21.559  10.559
43471W        W15731  27.669  23.241  12.933
43472W        W15732   4.453   5.993  10.990
43473W        W15733  23.909  21.177   3.650
43474W        W15734  21.612  16.695   0.474
43475W        W15735  22.652  11.798   0.227
43476W        W15736  37.323  10.363  14.362
43477W        W15737  14.732   0.490   1.731
43478W        W15738  30.853   8.792   5.111
43479W        W15739  17.698  17.295  14.281
43480W        W15740  10.159  37.596   4.641
43481W        W15741  42.756  44.954   4.679
43482W        W15742  32.595  37.933  13.419
43483W        W15743  44.249  25.772   2.328
43484W        W15744  28.788   2.141  12.973
43485W        W15745  39.207  19.022  11.100
43486W        W15746  30.522   1.301   1.781
43487W        W15747  19.900  10.892  12.095
43488W        W15748  44.248  41.039   1.832
43489W        W15749  16.756  44.820   1.872
43490W        W15750  14.026  43.170   4.437
43491W        W15751  43.609  25.125   9.996
43492W        W15752   3.385  35.882  12.460
43493W        W15753   4.496  40.767   1.578
43494W        W15754  32.104  36.212  13.262
43495W        W15755  22.326  26.288   3.850
43496W        W15756  33.383  22.061   1.337
43497W        W15757  15.990  21.709   4.660
43498W        W15758  29.061  21.481  11.697
43499W        W15759   6.610   1.412  13.738
43500W        W15760  37.854  42.791  12.890
43501W        W15761  11.015  14.186   3.722
43502W        W15762  16.303   8.333  14.473
43503W        W15763  21.266  29.656   5.312
43504W        W15764   4.833  38.715   3.156
43505W        W15765  29.663  38.567   0.485
43506W        W15766  28.978  36.677  12.057
43507W        W15767  23.974  43.878   1.403
43508W        W15768  15.648  33.915  13.745
43509W        W15769  14.659  21.841  11.698
43510W        W15770  37.847   8.819   4.541
43511W        W15771   1.956  21.810   3.743
43512W        W15772   4.455  21.831   3.577
43513W        W15773  23.744   8.398  11.085
43514W        W15774  29.878   2.256  14.924
43515W        W15775  12.849  20.233   3.757
43516W        W15776   7.181  19.255  13.796
43517W        W15777  12.349   6.458   1.478
43518W        W15778  18.744  44.195  12.302
43519W        W15779   7.721   5.407   0.434
43520W        W15780  38.558  24.151   4.739
43521W        W15781  29.900  37.050  12.045
43522W        W15782  37.293  13.716  10.638
43523W        W15783  27.055   6.690   1.256
43524W        W15784  36.440  24.223  12.903
43525W        W15785  31.634  42.561   2.600
43526W        W15786  14.501  43.445   1.283
43527W        W15787  27.606  41.985   1.316
43528W        W15788  42.447  12.083  11.613
43529W        W15789  23.220  43.473  11.657
43530W        W15790  11.220  26.617   9.862
43531W        W15791  26.732  18.321   2.890
43532W        W15792  30.534  42.574  11.160
43533W        W15793  30.564  28.899   2.232
43534W        W15794  21.727  20.240   4.414
43535W        W15795   7.087  40.860   2.644
43536W        W15796  31.337  26.724  14.426
43537W        W15797  38.053   8.110   0.495
43538W        W15798  14.771  13.656   1.651
43539W        W15799  14.702   8.152  12.572
43540W        W15800  34.904  15.489  13.018
43541W        W15801  16.808  30.636  14.298
43542W        W15802  27.157   8.697   0.192
43543W        W15803  19.024  37.143  11.655
43544W        W15804  36.003  27.536   3.132
43545W        W15805  35.941  41.179   2.780
43546W        W15806  11.123  10.129  13.242
43547W        W15807  21.169   2.484   4.436
43548W        W15808  43.714  43.923   0.939
43549W        W15809   3.370  10.560   2.172
43550W        W15810  33.721  31.871  11.578
43551W        W15811  17.738   7.441   2.262
43552W        W15812  44.458  22.168  12.979
43553W        W15813  44.941  10.387  14.701
43554W        W15814  38.020   4.840   0.943
43555W        W15815   6.189  39.746   2.892
43556W        W15816  44.373   8.380  12.373
43557W        W15817   0.673   9.611   3.240
43558W        W15818  19.219  44.762   3.315
43559W        W15819  31.526  15.113   0.273
43560W        W15820   1.666  31.988   2.291
43561W        W15821   0.248  13.135  12.027
43562W        W15822  11.904  35.165   3.072
43563W        W15823  44.986   3.914   3.826
43564W        W15824  30.219   1.372  14.855
43565W        W15825  31.910  23.512   3.666
43566W        W15826  19.569   1.176  14.002
43567W        W15827  30.524   8.199   1.794
43568W        W15828  26.493  30.834  13.329
43569W        W15829  24.683  14.257   0.286
43570W        W15830   5.655  18.824  10.672
43571W        W15831  43.010  15.941   4.149
43572W        W15832  39.426  30.580   2.687
43573W        W15833  31.829   9.120   0.927
43574W        W15834  18.550   7.932   9.527
43575W        W15835   7.380  17.717  11.239
43576W        W15836  10.095  18.995  14.952
43577W        W15837  43.300  44.256  13.422
43578W        W15838  34.431  10.706  14.994
43579W        W15839  24.664  35.847   1.381
43580W        W15840   7.450  40.311  15.000
43581W        W15841  34.480   8.196   3.271
43582W        W15842   0.917   2.849   3.089
43583W        W15843  35.897  22.936   1.021
43584W        W15844   6.775  21.270   4.095
43585W        W15845  39.404  44.912  10.650
43586W        W15846  35.053   2.331   4.119
43587W        W15847  24.059  36.083  13.227
43588W        W15848   1.197  35.548  14.996
43589W        W15849   3.592  22.563   3.766
43590W        W15850  28.047  29.864  12.007
43591W        W15851  42.489  39.365  11.608
43592W        W15852  21.234  28.976  12.416
43593W        W15853  35.260  28.585  14.764
43594W        W15854  25.175   2.968  14.523
43595W        W15855  16.622  10.062   1.745
43596W        W15856   6.552  32.764   2.738
43597W        W15857  22.018  12.318  14.334
43598W        W15858  19.508  29.259   2.313
43599W        W15859   5.889  20.327   3.984
43600W        W15860  44.882  13.786  11.547
43601W        W15861  14.677  32.104   3.496
43602W        W15862  43.245  28.133  14.438
43603W        W15863   9.678  11.822   3.218
43604W        W15864  10.642  33.834  10.683
43605W        W15865  43.198  27.456   3.553
43606W        W15866  20.246  19.483   1.708
43607W        W15867   0.168  37.039   2.395
43608W        W15868  21.024  26.592  12.858
43609W        W15869  37.805  41.801  12.046
43610W        W15870   4.935   3.902   2.443
43611W        W15871  44.730  40.053   0.919
43612W        W15872  13.162  30.045  14.016
43613W        W15873  29.220  34.452   1.401
43614W        W15874   2.406  19.147  14.524
43615W        W15875  27.671   9.994   2.268
43616W        W15876  32.527  13.788   1.367
43617W        W15877  34.990  25.639   4.130
43618W        W15878  28.890  29.187  14.592
43619W        W15879  38.529  10.743  10.691
43620W        W15880  31.073   5.137   0.620
43621W        W15881  11.367  34.847   2.191
43622W        W15882  31.966   0.344   2.759
43623W        W15883  38.384   0.186   1.669
43624W        W15884  37.354  40.830   3.141
43625W        W15885  12.052   5.474  10.671
43626W        W15886  22.635  30.431   4.559
43627W        W15887  31.564  44.274  10.695
43628W        W15888   8.969  20.922  14.796
43629W        W15889   8.523   3.460  12.969
43630W        W15890  35.081  42.236  14.442
43631W        W15891  36.780  10.883  13.531
43632W        W15892  24.710  23.012   4.721
43633W        W15893  23.912  27.882  14.405
43634W        W15894  15.696  27.425   3.635
43635W        W15895  31.526  27.583   3.533
43636W        W15896  39.605  26.497   1.830
43637W        W15897  40.621  13.101   0.944
43638W        W15898  20.304  20.693  13.808
43639W        W15899  43.072  11.426  13.475
43640W        W15900  30.545  28.938  11.023
43641W        W15901  41.364   9.250  13.897
43642W        W15902  25.014   9.250  11.657
43643W        W15903  43.971  24.103   4.527
43644W        W15904  14.875  24.846  12.457
43645W        W15905  11.868  15.825   2.229
43646W        W15906  44.376  22.608   5.501
43647W        W15907  41.982  41.419   3.087
43648W        W15908  22.539  25.532  12.871
43649W        W15909  41.393  31.620   1.923
43650W        W15910   8.346  17.630   0.970
43651W        W15911  39.250  18.554  14.826
43652W        W15912  31.176  35.128  14.945
43653W        W15913  23.085   2.812  12.069
43654W        W15914  17.722  43.676  11.015
43655W        W15915  25.684  18.777  11.483
43656W        W15916   9.418  39.358  11.498
43657W        W15917   2.792  36.848   4.191
43658W        W15918  35.659   6.527   0.750
43659W        W15919  38.517   2.439   2.211
43660W        W15920  21.893   5.872   3.655
43661W        W15921  39.890  12.295   2.278
43662W        W15922  40.026  18.763  14.434
43663W        W15923  40.687  39.584  14.332
43664W        W15924  28.723  40.862   0.473
43665W        W15925  21.680  39.526  11.889
43666W        W15926  15.154  28.439   0.333
43667W        W15927   0.507  12.166  12.379
43668W        W15928  32.594  23.959   1.047
43669W        W15929  30.287  41.212   3.294
43670W        W15930  43.363   9.392  12.602
43671W        W15931   9.301   7.364  12.902
43672W        W15932  27.709  36.562  11.522
43673W        W15933   6.385  20.019   1.359
43674W        W15934   2.873  27.036  11.999
43675W        W15935  33.468  40.853  14.445
43676W        W15936  35.020   2.278  13.413
43677W        W15937  22.023  26.615   2.584
43678W        W15938  38.683  12.250  10.940
43679W        W15939  34.167  25.820   2.734
43680W        W15940  35.404  23.263   3.534
43681W        W15941  23.124  37.006  14.382
43682W        W15942  15.138  12.189  13.058
43683W        W15943  39.874  40.577   3.776
43684W        W15944  14.349  24.320   3.637
43685W        W15945   4.943  12.836  12.169
43686W        W15946  12.605  28.453   2.819
43687W        W15947  15.179  15.590  12.448
43688W        W15948  26.124  39.042   0.809
43689W        W15949  14.960   9.134   1.134
43690W        W15950  36.480  41.325  12.952
43691W        W15951  38.820  22.109  14.179
43692W        W15952   2.092  14.217  14.971
43693W        W15953  43.904  22.741   3.306
43694W        W15954  22.153  15.210  11.963
43695W        W15955   2.314   8.933  10.438
43696W        W15956   5.696  25.539   0.408
43697W        W15957  39.289  36.508  12.187
43698W        W15958   4.787  25.699  13.399
43699W        W15959  12.775  36.209   1.768
43700W        W15960  35.519  25.027   3.257
43701W        W15961  43.754  41.958   2.628
43702W        W15962  38.568  42.417   2.846
43703W        W15963   1.969   4.934  10.699
43704W        W15964  12.748  37.473  12.639
43705W        W15965  31.212   6.340  13.602
43706W        W15966  33.052  24.194   2.759
43707W        W15967  11.348  17.275  13.092
43708W        W15968   4.790  32.900   3.155
43709W        W15969  10.702   1.129  10.698
43710W        W15970  37.034  34.121  13.041
43711W        W15971  29.976  44.849  12.943
43712W        W15972  28.447  30.394  12.517
43713W        W15973  19.203  40.273  13.505
43714W        W15974  40.908  21.643  13.804
43715W        W15975  18.618  34.602   0.296
43716W        W15976  20.823   7.878  14.346
43717W        W15977   5.196   1.438   4.169
43718W        W15978  15.798  34.532  12.443
43719W        W15979  27.941  11.939   2.758
43720W        W15980  36.433  14.825  10.691
43721W        W15981  40.519  36.763  13.356
43722W        W15982   4.628  28.200   5.621
43723W        W15983  23.878   7.165   1.369
43724W        W15984  21.371  19.976  13.553
43725W        W15985  31.136   1.261   0.163
43726W        W15986  23.907  12.968   4.778
43727W        W15987  41.506  18.696  11.700
43728W        W15988  37.566  14.721  11.726
43729W        W15989  40.580   5.678   2.313
43730W        W15990   6.508  27.632   0.863
43731W        W15991  40.566   1.249  13.932
43732W        W15992  11.337  35.457   2.432
43733W        W15993   6.157  37.530  14.457
43734W        W15994  32.046  22.235  11.638
43735W        W15995  25.531  19.476  11.062
43736W        W15996  37.800  28.936   1.257
43737W        W15997  13.794   4.304  11.897
43738W        W15998   8.660  25.776  12.931
43739W        W15999   9.734  41.815  11.409
43740W        W16000  25.857  44.539   4.731
43741W        W16001  28.869  10.573   0.427
43742W        W16002  40.567  42.019  12.533
43743W        W16003   4.171  44.751  14.479
43744W        W16004  37.800  38.051   0.394
43745W        W16005  44.062   1.228   2.367
43746W        W16006  15.566   0.849  11.115
43747W        W16007  25.002  22.472   3.404
43748W        W16008   4.524   0.844  11.528
43749W        W16009  26.176  41.470   4.659
43750W        W16010   0.419  26.664  14.999
43751W        W16011  22.733   4.686  13.286
43752W        W16012   5.582  18.703   3.229
43753W        W16013  32.529  13.190   4.658
43754W        W16014  12.795   0.697   2.429
43755W        W16015  23.614  16.463  14.068
43756W        W16016  14.189  25.000   0.710
43757W        W16017  34.840  26.241  12.925
43758W        W16018   2.395  26.834  12.944
43759W        W16019  18.299  42.718   0.405
43760W        W16020  33.464  27.491  13.871
43761W        W16021  40.527  33.702   4.233
43762W        W16022   1.338   7.607   2.821
43763W        W16023  31.052  44.107  14.927
43764W        W16024  27.042  17.316   1.772
43765W        W16025  41.412  20.680  10.711
43766W        W16026  11.299  29.457  11.139
43767W        W16027   0.315   9.809   4.224
43768W        W16028  18.810  17.068   2.167
43769W        W16029  34.025  37.317   0.405
43770W        W16030  19.521   5.362  12.089
43771W        W16031  35.040  21.725   9.501
43772W        W16032  27.981   5.948  13.834
43773W        W16033   4.150   0.381   3.348
43774W        W16034  19.511  17.155  14.904
43775W        W16035  26.512  15.583  14.044
43776W        W16036  43.194   6.536  14.497
43777W        W16037  40.055  35.821   2.740
43778W        W16038  22.479  43.981  11.992
43779W        W16039  12.851   1.282  11.906
43780W        W16040  15.694   1.855   0.951
43781W        W16041  34.568  11.269   4.051
43782W        W16042  24.506  13.784  12.128
43783W        W16043   5.947  41.833   0.634
43784W        W16044  37.837  20.187   2.254
43785W        W16045  39.956  33.574  14.786
43786W        W16046  28.934   7.177   0.408
43787W        W16047  34.365   7.122   1.384
43788W        W16048  33.106   1.779  10.742
43789W        W16049   9.679  37.805   3.910
43790W        W16050   7.510  26.869   1.794
43791W        W16051  40.340   2.949   3.183
43792W        W16052  32.375  42.977  14.598
43793W        W16053  35.900  18.539   5.568
43794W        W16054  41.849  36.469  11.642
43795W        W16055   6.018  20.088  12.374
43796W        W16056  32.764  36.609  12.840
43797W        W16057  39.702  20.081  12.823
43798W        W16058  20.737  19.634   1.802
43799W        W16059  29.314   0.816  11.187
43800W        W16060  23.521  17.113  14.720
43801W        W16061  44.185  26.955   0.105
43802W        W16062  32.065  37.504   4.175
43803W        W16063  13.730  19.631  13.286
43804W        W16064  30.498  28.474  13.094
43805W        W16065  26.213  21.572   3.646
43806W        W16066  15.253  37.302   3.698
43807W        W16067  43.039  14.825   5.139
43808W        W16068   7.754   0.930  13.382
43809W        W16069  20.214  19.638  14.303
43810W        W16070  11.849  14.634  11.558
43811W        W16071  29.607  41.734  10.495
43812W        W16072   4.742  18.580  12.121
43813W        W16073  43.073  10.254  10.725
43814W        W16074  15.221  23.973  12.785
43815W        W16075  21.702  33.531  10.757
43816W        W16076  39.164  38.071   3.798
43817W        W16077  38.171  19.477  14.855
43818W        W16078  28.679  30.606  14.234
43819W        W16079  34.159  20.637   2.854
43820W        W16080  40.429   3.228   4.633
43821W        W16081   7.106   8.760   4.119
43822W        W16082  41.514  34.829  13.854
43823W        W16083  12.697   8.156   4.627
43824W        W16084  25.017   4.249  13.913
43825W        W16085  12.618   6.142   1.796
43826W        W16086  28.205   5.502   3.284
43827W        W16087  27.938  14.752   4.629
43828W        W16088  41.840  14.302  10.796
43829W        W16089  15.129  39.070   1.943
43830W        W16090  20.545  34.582   1.168
43831W        W16091  30.667  42.470   0.325
43832W        W16092   7.894  38.791   2.168
43833W        W16093  32.642  38.945   1.336
43834W        W16094  16.067  28.477   4.671
43835W        W16095  20.698   6.946   4.631
43836W        W16096  23.489  13.056  11.217
43837W        W16097  39.390  27.869  10.566
43838W        W16098  15.046  16.373   3.618
43839W        W16099   1.964  22.616   5.092
43840W        W16100  28.647  18.985   2.859
43841W        W16101  34.986   1.258   1.660
43842W        W16102  40.458  11.784   0.140
43843W        W16103  31.761   4.629  11.502
43844W        W16104  21.301  39.432   2.253
43845W        W16105  24.973  42.256   2.754
43846W        W16106  10.253  31.614  14.925
43847W        W16107  38.357  39.788  12.763
43848W        W16108  15.053  22.604  14.410
43849W        W16109  10.254  25.748   2.220
43850W        W16110  30.516  16.329   0.787
43851W        W16111   7.002  33.999   2.717
43852W        W16112   9.032  42.441  13.887
43853W        W16113  44.385  19.286  13.431
43854W        W16114  42.993  37.822   3.816
43855W        W16115  37.490  20.545   5.118
43856W        W16116  40.490  38.123   4.659
43857W        W16117  40.564   7.270  12.127
43858W        W16118   1.274  28.985   1.263
43859W        W16119  38.005  44.848   1.542
43860W        W16120   1.771  14.159  10.736
43861W        W16121  15.059  17.959  11.454
43862W        W16122  30.523  44.403  11.726
43863W        W16123  35.178  19.545   1.932
43864W        W16124   5.837  15.302   1.625
43865W        W16125  27.593  30.474   5.570
43866W        W16126   2.817  15.195  11.558
43867W        W16127  17.117  26.598   3.239
43868W        W16128  22.517  41.591   2.225
43869W        W16129  44.307  25.606  11.604
43870W        W16130  37.313  12.918  14.289
43871W        W16131  11.640  44.303   4.584
43872W        W16132   9.218  16.117  14.655
43873W        W16133   6.895  24.402  10.518
43874W        W16134   2.563  37.569   2.423
43875W        W16135  12.110  12.756  13.252
43876W        W16136  29.525  42.732   1.731
43877W        W16137  31.676  25.497  14.966
43878W        W16138  42.842  34.629   2.428
43879W        W16139  19.762  17.854   2.671
43880W        W16140  19.108  16.901  10.944
43881W        W16141   8.882   6.214  10.632
43882W        W16142  26.154  23.176   0.503
43883W        W16143  17.551  26.979   3.822
43884W        W16144  23.174  18.781  11.965
43885W        W16145  16.556  17.288   1.880
43886W        W16146   0.356   3.818   3.157
43887W        W16147  10.751   6.148  12.613
43888W        W16148  27.202  10.796   3.654
43889W        W16149  24.483  40.462  12.869
43890W        W16150  10.035  41.757   4.986
43891W        W16151  42.417  10.733  14.818
43892W        W16152  31.211  16.990  14.864
43893W        W16153  21.959  24.241   3.626
43894W        W16154   4.296  30.618  13.406
43895W        W16155   5.981  21.361   2.138
43896W        W16156  39.299   3.673  12.018
43897W        W16157  33.015  24.972   3.604
43898W        W16158  40.635   1.388  11.558
43899W        W16159  15.864   9.273  11.252
43900W        W16160  34.815  37.940   3.272
43901W        W16161   2.519   5.887   1.206
43902W        W16162   8.928  30.926  11.127
43903W        W16163  11.551  44.794   3.940
43904W        W16164   0.757  44.297  14.017
43905W        W16165  26.709  21.996   0.771
43906W        W16166  32.865  27.383   1.626
43907W        W16167  30.425  12.289  13.566
43908W        W16168  28.152   4.283   3.216
43909W        W16169  20.778  34.541  12.895
43910W        W16170   9.293  15.230  11.700
43911W        W16171   9.715  18.503   4.079
43912W        W16172  15.164  12.770  10.488
43913W        W16173  33.976  10.124  10.309
43914W        W16174  12.317   1.609  12.528
43915W        W16175  11.393   3.796  12.546
43916W        W16176   2.020  26.960  11.588
43917W        W16177  33.598  23.022   0.368
43918W        W16178   1.318   1.816   2.645
43919W        W16179  36.596   5.234   1.877
43920W        W16180  41.502  18.814  11.209
43921W        W16181  42.833  37.923  12.273
43922W        W16182  18.479   3.721  11.613
43923W        W16183  24.182   2.003  10.924
43924W        W16184  10.243  14.209  12.113
43925W        W16185  37.271  13.192  10.629
43926W        W16186  30.015  26.122  11.135
43927W        W16187  38.438  40.988   0.940
43928W        W16188  28.987  31.064  11.935
43929W        W16189  13.599  23.484   2.893
43930W        W16190   3.850   3.004  10.585
43931W        W16191   3.292  11.261   2.893
43932W        W16192  31.675   6.909  11.706
43933W        W16193  21.521   2.968  13.389
43934W        W16194  41.191   9.161   0.474
43935W        W16195  21.191  44.769   4.052
43936W        W16196   3.948  38.619  12.489
43937W        W16197  13.549  15.427  10.436
43938W        W16198  37.357   1.921   4.611
43939W        W16199  33.552  32.542   1.932
43940W        W16200  37.499  12.230   1.699
43941W        W16201  37.955  38.012   1.412
43942W        W16202  22.993  11.353  13.009
43943W        W16203  30.864  39.911  13.530
43944W        W16204  13.696  29.893  11.921
43945W        W16205  35.484   7.577  12.015
43946W        W16206  15.694  25.507  10.746
43947W        W16207   8.147  35.470  14.409
43948W        W16208  18.291  27.555  13.731
43949W        W16209   4.534  26.729  14.840
43950W        W16210  25.042  16.948  12.531
43951W        W16211  30.960  41.854   2.792
43952W        W16212  19.164  18.165  12.986
43953W        W16213  37.552  21.130  13.776
43954W        W16214  17.290  20.836   2.869
43955W        W16215  13.682   9.647  12.335
43956W        W16216   5.219  27.522   4.367
43957W        W16217   2.999  27.654  14.054
43958W        W16218  40.254  42.804   1.687
43959W        W16219   0.324  25.644   1.737
43960W        W16220   0.777  25.261   3.851
43961W        W16221   6.936  37.418  14.966
43962W        W16222  43.316  14.308   2.267
43963W        W16223   1.463  31.383   3.993
43964W        W16224   4.780  23.325  10.448
43965W        W16225  21.956  23.076  14.071
43966W        W16226  28.427  31.990  13.068
43967W        W16227  15.419  13.806  14.212
43968W        W16228   8.816  25.188  10.726
43969W        W16229   1.473  25.557   1.163
43970W        W16230  31.644  36.903  11.744
43971W        W16231  13.235  17.374   3.778
43972W        W16232   6.212  10.243   1.428
43973W        W16233  19.443  20.599   4.691
43974W        W16234  29.113  10.321   0.836
43975W        W16235  25.522  32.933   3.787
43976W        W16236   8.174  29.458   3.262
43977W        W16237  24.150  22.039   0.372
43978W        W16238  14.137  23.108   2.394
43979W        W16239  21.674  42.335   3.686
43980W        W16240  25.182  10.814   3.051
43981W        W16241  30.157  10.727  13.346
43982W        W16242  33.537   4.173   4.516
43983W        W16243  10.675  37.907   2.195
43984W        W16244  35.222   9.749  12.442
43985W        W16245  42.000  41.551   1.430
43986W        W16246  13.749  40.861   2.391
43987W        W16247  14.027  44.951   3.200
43988W        W16248  44.458   2.776  14.884
43989W        W16249  37.140   2.344   1.771
43990W        W16250   4.430  35.031  13.553
43991W        W16251  28.827  44.859  13.737
43992W        W16252  43.527   5.000   0.313
43993W        W16253  30.727  21.640   4.734
43994W        W16254  31.381  22.817   0.747
43995W        W16255   1.361  36.843   3.629
43996W        W16256  21.113  12.127  12.579
43997W        W16257  20.914  41.870  12.443
43998W        W16258  36.141  20.692   0.845
43999W        W16259  21.369   0.356   0.819
44000W        W16260  31.161  20.711   2.221
44001W        W16261  17.842  25.090   4.076
44002W        W16262  31.904  19.292   0.655
44003W        W16263   9.612  24.264   3.701
44004W        W16264  16.898   7.304  14.991
44005W        W16265   4.801  26.777   5.044
44006W        W16266  14.656  33.534  10.707
44007W        W16267  26.419  10.211   1.759
44008W        W16268  18.879  28.472   2.145
44009W        W16269   9.396  11.850  10.754
44010W        W16270  36.147  18.775   3.757
44011W        W16271  14.365  35.984   0.768
44012W        W16272  34.344  30.245  12.831
44013W        W16273  44.680   0.920  14.443
44014W        W16274  41.239  25.613  10.743
44015W        W16275   9.223  16.200   0.168
44016W        W16276  43.397  30.457   3.403
44017W        W16277  19.254  43.611  14.847
44018W        W16278  31.925  43.359  11.034
44019W        W16279  18.603  22.760  11.314
44020W        W16280  18.811   8.772   9.979
44021W        W16281   3.211  37.020   1.322
44022W        W16282  27.855  11.299   4.093
44023W        W16283  22.397  13.681  14.359
44024W        W16284  13.865  13.851   2.518
44025W        W16285  30.698   0.502   3.263
44026W        W16286  15.791  41.513  12.058
44027W        W16287  11.268   7.792   2.759
44028W        W16288  35.431   9.238   1.962
44029W        W16289  18.516  18.565   0.187
44030W        W16290   4.344  36.661  14.517
44031W        W16291   2.062   9.876  10.735
44032W        W16292  16.218   7.674  10.659
44033W        W16293  15.959   1.261   0.330
44034W        W16294   8.709  37.118  14.178
44035W        W16295   9.840  22.673   1.250
44036W        W16296  27.996  24.599  11.928
44037W        W16297  14.468  26.075   1.622
44038W        W16298   0.859  42.503  11.569
44039W        W16299  12.655  31.919  13.344
44040W        W16300  21.725  18.880   4.105
44041W        W16301  36.515  12.692  10.641
44042W        W16302  35.601  22.677   1.450
44043W        W16303  22.447  33.116  14.314
44044W        W16304  36.232   8.966  11.133
44045W        W16305  15.314  15.817   1.761
44046W        W16306   9.668  38.811  14.445
44047W        W16307  34.816  32.064   2.724
44048W        W16308  26.599   9.407  14.810
44049W        W16309  14.294  25.083  13.305
44050W        W16310  42.330  43.464   2.778
44051W        W16311  23.135  24.141  12.099
44052W        W16312   5.804  31.638   2.701
44053W        W16313   6.327  31.779   0.410
44054W        W16314  42.079  28.939  14.764
44055W        W16315  34.927  25.173  11.356
44056W        W16316  17.568   7.166   3.541
44057W        W16317  32.583   9.156   4.627
44058W        W16318  15.510  34.035   3.674
44059W        W16319  13.291  10.379  11.151
44060W        W16320  15.939  22.634   0.318
44061W        W16321   1.449  35.962   4.577
44062W        W16322  19.013  44.558  14.432
44063W        W16323  16.781  33.144   0.852
44064W        W16324  38.189  34.478  11.571
44065W        W16325  44.733  13.192   2.931
44066W        W16326  35.999  35.572   0.782
44067W        W16327  32.561  14.842   1.276
44068W        W16328  14.754  39.543   0.312
44069W        W16329   0.859  33.922   3.202
44070W        W16330  16.920   7.343   4.141
44071W        W16331   5.910  14.598  14.477
44072W        W16332   8.137  21.589   2.377
44073W        W16333  41.958  22.994  13.000
44074W        W16334  24.541  32.163  12.423
44075W        W16335  36.972   2.394  11.623
44076W        W16336   5.700  30.571  10.810
44077W        W16337   8.423  10.748  11.725
44078W        W16338  19.762  38.319  11.693
44079W        W16339   2.936   2.793   4.671
44080W        W16340  18.579  40.823   3.412
44081W        W16341   6.896  30.451   1.795
44082W        W16342  33.719  34.627  12.417
44083W        W16343  11.186   4.622   3.657
44084W        W16344  41.526  23.475   3.801
44085W        W16345  10.545  16.334   1.927
44086W        W16346  12.279   8.409   2.419
44087W        W16347  24.293  11.603   2.334
44088W        W16348  22.366   0.356   3.416
44089W        W16349  35.465  44.887  13.008
44090W        W16350  28.571  27.157   4.568
44091W        W16351  40.892  26.014  11.351
44092W        W16352  31.979   6.142  12.053
44093W        W16353  20.789  23.190   4.149
44094W        W16354   5.715  38.924  10.388
44095W        W16355  30.225   1.269  13.482
44096W        W16356   1.458  27.556  12.010
44097W        W16357  26.466  26.484  11.942
44098W        W16358  26.172  31.474  14.309
44099W        W16359   9.161  26.177  11.637
44100W        W16360   6.005  29.523  12.558
44101W        W16361  42.039  17.964   0.282
44102W        W16362  43.820  36.169  13.909
44103W        W16363  37.376  35.121  13.924
44104W        W16364  38.638  29.005   0.863
44105W        W16365   7.858  42.599   2.807
44106W        W16366  39.398  20.509  11.062
44107W        W16367  42.577  14.241   3.130
44108W        W16368  16.399  41.100  10.987
44109W        W16369  39.778  44.915  13.778
44110W        W16370  17.711   4.829  13.527
44111W        W16371   0.765  11.849  14.327
44112W        W16372  37.142  17.280   4.671
44113W        W16373   6.584  27.736   5.158
44114W        W16374  10.058  36.919   0.282
44115W        W16375  17.089   3.230  13.539
44116W        W16376   9.161   1.338   2.637
44117W        W16377  22.080  40.797   2.898
44118W        W16378  29.462  32.678   5.121
44119W        W16379  11.984  27.400   2.482
44120W        W16380  39.538  22.221  13.477
44121W        W16381  38.868  28.500  11.076
44122W        W16382   8.672  21.001   3.661
44123W        W16383  44.129  24.067   2.694
44124W        W16384   5.388   3.941  11.092
44125W        W16385  34.068  44.470  13.094
44126W        W16386  21.618   0.387  14.405
44127W        W16387   6.688  26.713   0.373
44128W        W16388   1.888   6.509   1.858
44129W        W16389  22.756  38.139   2.240
44130W        W16390  42.452  43.339  11.669
44131W        W16391  22.891  39.987  11.499
44132W        W16392  16.743  13.842  10.888
44133W        W16393  18.825   4.227  12.462
44134W        W16394   1.972  17.212   3.210
44135W        W16395  40.262   4.325   1.994
44136W        W16396   2.916  39.282   4.966
44137W        W16397  27.820   4.775   2.276
44138W        W16398  36.804  38.983   3.161
44139W        W16399  19.358   4.903   4.789
44140W        W16400   9.768  20.685   3.922
44141W        W16401  21.453  10.867  13.900
44142W        W16402  22.068  37.548   2.421
44143W        W16403  17.361  35.819   2.388
44144W        W16404  15.683  12.572   1.711
44145W        W16405   6.931  39.532   0.586
44146W        W16406  32.960   9.921   2.150
44147W        W16407   8.361   3.415   5.147
44148W        W16408  37.538  32.959  13.519
44149W        W16409  27.608  24.150   1.017
44150W        W16410  43.038  24.494   0.505
44151W        W16411  16.849  42.881  14.481
44152W        W16412  23.724  23.474  11.189
44153W        W16413   8.905  30.702   4.244
44154W        W16414  32.099  22.280   0.479
44155W        W16415  10.668   4.438  10.396
44156W        W16416  19.039  33.038   2.637
44157W        W16417   1.195   3.283   4.174
44158W        W16418  26.736  30.387  11.962
44159W        W16419   0.333  29.660   1.856
44160W        W16420  40.301  39.595   2.904
44161W        W16421   7.949  38.437  14.952
44162W        W16422  16.711   3.752  14.896
44163W        W16423  41.562  43.434   4.606
44164W        W16424  18.264  38.284  13.334
44165W        W16425   0.648  30.663   5.053
44166W        W16426  40.623  22.067   4.735
44167W        W16427  18.444  41.271   3.657
44168W        W16428  39.845   2.705   1.382
44169W        W16429  13.770   0.628   0.454
44170W        W16430  33.520  35.944   1.763
44171W        W16431   4.559  31.806   3.537
44172W        W16432   2.833  35.453  11.605
44173W        W16433   8.259  20.045  12.957
44174W        W16434  29.575  40.495  14.988
44175W        W16435  27.509  41.425   0.753
44176W        W16436  33.415  34.808  11.508
44177W        W16437   5.611  25.705   9.824
44178W        W16438  23.315   2.782   3.768
44179W        W16439  43.807   2.758   3.680
44180W        W16440  18.822  14.723   2.188
44181W        W16441  28.764  15.596  13.436
44182W        W16442  23.439   1.209   0.423
44183W        W16443  42.083   3.259   3.732
44184W        W16444  38.955  10.846  10.392
44185W        W16445  23.690  24.725  13.070
44186W        W16446  27.686  25.994  10.652
44187W        W16447  39.294  30.731  13.696
44188W        W16448   4.544  35.386   3.708
44189W        W16449   4.706  42.922   4.998
44190W        W16450  34.916  27.158  12.892
44191W        W16451   3.112  18.695  14.405
44192W        W16452  33.601  40.597   1.706
44193W        W16453  18.713  15.586  12.004
44194W        W16454   7.378  27.592   1.401
44195W        W16455  27.719  38.146   2.296
44196W        W16456  24.013  27.565   4.276
44197W        W16457  12.896  38.990   4.463
44198W        W16458  25.185  12.765   4.216
44199W        W16459   2.171  25.248  10.619
44200W        W16460  14.364  39.820  12.347
44201W        W16461  40.379   6.868  11.424
44202W        W16462  31.402  40.813  14.961
44203W        W16463  20.100   5.929   0.969
44204W        W16464   1.873   8.705  14.914
44205W        W16465  23.819  11.146   4.693
44206W        W16466  16.676  28.469  13.997
44207W        W16467  31.185  23.732  12.525
44208W        W16468  34.165  38.617  11.952
44209W        W16469  13.213  31.429  14.273
44210W        W16470   1.307  32.779  14.786
44211W        W16471  32.847   4.390  10.937
44212W        W16472   4.746  21.178  14.521
44213W        W16473  23.146  19.081   1.334
44214W        W16474  24.103  24.231   4.602
44215W        W16475  17.086  31.138  10.995
44216W        W16476  35.129  33.959   0.453
44217W        W16477  36.724   9.163  11.176
44218W        W16478  16.058  28.991   1.026
44219W        W16479  27.088  29.458   2.813
44220W        W16480  14.593   5.908   3.798
44221W        W16481  11.834   9.177   0.448
44222W        W16482  12.807  36.839   0.316
44223W        W16483  36.244  15.352  14.624
44224W        W16484   7.436   9.432  14.691
44225W        W16485   6.111  43.569  14.475
44226W        W16486  38.424   1.275   4.545
44227W        W16487  18.558  22.033   3.221
44228W        W16488  13.883  41.914   3.749
44229W        W16489  14.628  32.925   1.531
44230W        W16490  23.296   2.303   2.855
44231W        W16491  19.306  36.520   4.616
44232W        W16492  31.699  18.529  12.496
44233W        W16493  18.088  18.132  14.469
44234W        W16494   4.015  32.993  12.083
44235W        W16495   8.289  25.194   0.451
44236W        W16496  36.607  12.697  14.791
44237W        W16497  34.274   9.427   1.282
44238W        W16498  30.746  30.438  12.971
44239W        W16499  29.649  11.649  14.418
44240W        W16500   3.658  29.543   1.423
44241W        W16501  44.320  29.477   2.445
44242W        W16502   3.114  29.546  14.005
44243W        W16503  36.933   7.455   9.615
44244W        W16504   3.269   2.382  13.159
44245W        W16505  32.576  15.092  11.633
44246W        W16506  14.792  20.651  14.807
44247W        W16507  39.140   5.736   3.759
44248W        W16508  17.620  41.059   0.439
44249W        W16509  22.579  30.202   1.332
44250W        W16510  11.116  12.400  12.460
44251W        W16511  19.106   2.772   1.671
44252W        W16512  40.420  23.273  14.856
44253W        W16513  30.629  15.378  11.443
44254W        W16514  23.286  23.438   0.791
44255W        W16515  35.271   1.816  10.837
44256W        W16516  39.342  43.896  10.558
44257W        W16517  24.626  27.513   3.420
44258W        W16518   7.951   3.902   1.333
44259W        W16519  29.841  17.311  13.374
44260W        W16520  38.347  43.189  13.303
44261W        W16521  34.991   5.964   0.268
44262W        W16522   3.175  11.594   4.691
44263W        W16523  32.534  24.061  14.975
44264W        W16524   5.032  10.665  11.704
44265W        W16525  23.505  22.131  12.854
44266W        W16526  20.658  15.627  11.396
44267W        W16527  12.836  12.347   0.728
44268W        W16528  41.331  15.119  10.962
44269W        W16529  12.320  22.211   0.228
44270W        W16530  32.848  31.606  10.512
44271W        W16531  19.748  32.995   3.210
44272W        W16532  22.499  27.651   2.684
44273W        W16533   5.846  15.796   2.223
44274W        W16534  37.521  14.588  12.214
44275W        W16535  17.488  17.777  14.231
44276W        W16536  11.632  27.421  10.403
44277W        W16537  15.282  14.147   2.876
44278W        W16538  42.361  31.913  11.795
44279W        W16539  29.883  32.485   1.631
44280W        W16540  43.102  31.547   0.180
44281W        W16541  15.668   3.195   1.897
44282W        W16542  11.056  42.269   3.241
44283W        W16543  35.466  28.030  13.948
44284W        W16544  23.180  23.070   3.749
44285W        W16545  21.623  10.186  12.745
44286W        W16546  36.835  12.640  13.421
44287W        W16547  44.930   5.915   5.037
44288W        W16548   0.267   3.216   2.581
44289W        W16549  42.721  43.892   0.649
44290W        W16550  35.147  25.637  14.318
44291W        W16551  14.661  38.916   4.292
44292W        W16552  25.151  34.467  12.525
44293W        W16553  33.769  13.560  11.521
44294W        W16554  34.615   5.712   1.255
44295W        W16555  36.836  21.904   4.060
44296W        W16556  31.053  31.774   3.264
44297W        W16557  43.455  28.525  13.158
44298W        W16558  32.113  31.079   4.518
44299W        W16559  13.824  14.041  14.299
44300W        W16560   2.712  39.930   0.291
44301W        W16561  38.550  42.356  11.527
44302W        W16562  35.236  25.082   2.375
44303W        W16563  41.805  35.667   0.488
44304W        W16564  15.603  12.548  10.225
44305W        W16565  23.290  19.085  13.968
44306W        W16566  24.377  18.868  12.952
44307W        W16567  10.286  12.650   4.298
44308W        W16568   1.467  13.148   2.630
44309W        W16569  11.692  20.784   1.035
44310W        W16570  30.041  10.418   2.343
44311W        W16571  21.552  22.425   4.597
44312W        W16572  40.344  25.959   2.176
44313W        W16573   2.940  23.533   1.423
44314W        W16574   5.748  32.552   4.575
44315W        W16575   9.057   1.345  13.741
44316W        W16576   1.230  17.097  11.083
44317W        W16577  24.570  39.902   3.286
44318W        W16578  44.496  38.401   2.139
44319W        W16579  13.823  16.156   1.396
44320W        W16580  44.093  24.062  11.822
44321W        W16581  39.777  28.504  12.376
44322W        W16582  43.553  41.105  13.784
44323W        W16583  23.817  43.352   1.369
44324W        W16584  14.683   5.232   3.076
44325W        W16585  13.632  35.960   2.958
44326W        W16586  39.514   4.840  10.949
44327W        W16587  33.490  18.829   4.676
44328W        W16588  44.717  23.249  11.596
44329W        W16589  38.765  18.260   0.962
44330W        W16590  26.100  20.570  10.744
44331W        W16591  14.277  38.554  11.044
44332W        W16592  32.245  36.274  14.575
44333W        W16593  23.754  22.609  12.900
44334W        W16594  21.830   7.999  13.430
44335W        W16595   6.250  18.487   1.617
44336W        W16596   3.946  18.078  14.686
44337W        W16597  44.461  37.831  11.127
44338W        W16598   9.712  28.104   4.103
44339W        W16599  38.176  32.956  14.670
44340W        W16600  28.561  32.484  13.124
44341W        W16601  31.108   6.165   4.628
44342W        W16602   5.972  38.900   4.523
44343W        W16603   7.906   5.910   0.844
44344W        W16604  41.290  13.379   3.702
44345W        W16605  21.018  21.481  12.573
44346W        W16606  10.178   8.761   4.155
44347W        W16607  24.510  12.804   3.452
44348W        W16608   1.467   5.450   0.021
44349W        W16609  43.952  28.469   1.665
44350W        W16610  14.209  25.754   4.217
44351W        W16611  33.639  10.197   3.657
44352W        W16612  38.546  32.100   4.217
44353W        W16613  30.454  42.938   1.213
44354W        W16614  30.924  22.868   0.983
44355W        W16615  14.557  14.248   1.219
44356W        W16616  43.692   5.457  12.059
44357W        W16617  43.331  34.867   2.307
44358W        W16618  40.126  35.354  12.006
44359W        W16619  41.859   9.362   0.925
44360W        W16620  20.449  14.524   2.852
44361W        W16621  23.588   2.995  10.509
44362W        W16622  20.710  33.260   4.121
44363W        W16623   8.262   9.417  10.936
44364W        W16624  24.613  13.824  14.076
44365W        W16625  27.481  12.863  13.210
44366W        W16626  13.825  10.012   0.455
44367W        W16627   4.452  24.497  12.922
44368W        W16628   5.496  43.842  13.871
44369W        W16629   0.975  43.496   2.754
44370W        W16630  26.776  11.802  10.858
44371W        W16631  34.030   1.197  10.610
44372W        W16632  43.886   1.382  14.595
44373W        W16633  17.534   3.890   4.304
44374W        W16634  39.876  31.608  13.465
44375W        W16635  23.948  23.510  14.774
44376W        W16636   5.793  21.062  14.383
44377W        W16637  12.857   6.599   4.575
44378W        W16638   1.994   6.322  11.073
44379W        W16639   5.918  19.184  10.942
44380W        W16640   6.310  35.014   2.225
44381W        W16641  23.582  41.375   0.882
44382W        W16642  34.028  37.492   3.284
44383W        W16643  21.210   8.217  10.985
44384W        W16644  34.093  24.844  10.919
44385W        W16645   2.506  14.617  10.762
44386W        W16646  20.944  13.638  13.866
44387W        W16647  35.485  40.617  11.535
44388W        W16648   9.552  35.885  12.896
44389W        W16649  36.445  33.601  14.331
44390W        W16650  39.371   5.005   1.317
44391W        W16651  23.697  33.874   1.153
44392W        W16652  22.982  27.761   1.872
44393W        W16653  34.704   8.712  10.773
44394W        W16654  35.983  24.079  14.939
44395W        W16655  44.850   3.432   3.989
44396W        W16656  36.636  27.691   0.737
44397W        W16657  29.585  42.105   4.594
44398W        W16658   7.761  34.938   1.795
44399W        W16659  19.680  20.061  13.692
44400W        W16660  21.034  19.865  10.212
44401W        W16661  13.689  21.547  11.963
44402W        W16662  41.867  36.085  14.655
44403W        W16663   5.218  25.541   4.640
44404W        W16664  38.864  41.133   2.384
44405W        W16665  19.397  14.764   0.828
44406W        W16666   4.273   7.351  12.096
44407W        W16667  11.222  22.764  13.507
44408W        W16668  38.572  38.265  14.970
44409W        W16669  29.774  21.408  14.311
44410W        W16670   5.688  15.234   4.611
44411W        W16671  32.948  33.556   4.578
44412W        W16672  13.245   7.695  13.869
44413W        W16673  18.056  24.036   4.926
44414W        W16674  33.702  21.065  14.993
44415W        W16675  28.216  33.212  10.399
44416W        W16676  44.086  23.117  13.138
44417W        W16677  23.458   2.331   2.363
44418W        W16678  29.918  14.344  13.560
44419W        W16679  38.869   8.482  13.878
44420W        W16680   0.251  40.937   3.114
44421W        W16681  19.508  15.609   0.865
44422W        W16682  38.928  15.074  13.969
44423W        W16683  43.363  17.567  10.643
44424W        W16684  12.953  35.461   0.019
44425W        W16685  31.392  37.392  14.407
44426W        W16686  26.542  32.443  10.717
44427W        W16687  23.075  34.439   4.077
44428W        W16688  26.589  10.161   0.401
44429W        W16689  19.662  31.485  14.747
44430W        W16690  38.084  26.178   4.688
44431W        W16691  42.420  15.358  13.988
44432W        W16692  32.197  18.701  12.514
44433W        W16693   1.970  36.567  14.807
44434W        W16694  13.282  19.521   1.278
44435W        W16695  43.169   3.402  14.837
44436W        W16696   1.845  27.734  13.089
44437W        W16697  37.399  18.401   4.029
44438W        W16698   3.043   5.781  14.261
44439W        W16699  22.053  21.280   5.094
44440W        W16700  18.195  10.871  14.801
44441W        W16701   3.016   8.885  13.543
44442W        W16702  20.819   3.863  13.964
44443W        W16703   8.900  25.502   2.275
44444W        W16704   5.439  37.184  13.024
44445W        W16705  19.801  38.052  12.131
44446W        W16706  29.951  28.871   1.721
44447W        W16707  18.263  14.516  10.717
44448W        W16708  38.099  30.917  10.784
44449W        W16709  39.403  27.216   1.141
44450W        W16710  42.365   3.052  14.395
44451W        W16711  22.142  12.806   0.791
44452W        W16712  34.871  24.219   1.378
44453W        W16713   6.868   1.389   2.680
44454W        W16714  11.258  35.741   1.657
44455W        W16715  40.460  25.924   4.827
44456W        W16716  15.169  31.123  11.024
44457W        W16717  34.588  34.832   4.905
44458W        W16718   8.409  28.005   0.066
44459W        W16719  18.434  39.149   4.105
44460W        W16720  43.345  38.536   1.832
44461W        W16721  13.142  42.798  11.649
44462W        W16722  23.720  33.737   3.108
44463W        W16723   7.379  10.172  10.568
44464W        W16724  15.879   5.459  13.092
44465W        W16725   9.626  39.905  12.093
44466W        W16726   9.065  28.083   9.972
44467W        W16727   8.202  12.354   3.651
44468W        W16728  36.478  10.349  10.206
44469W        W16729  22.493  19.175   4.652
44470W        W16730  20.535   4.179  11.556
44471W        W16731   5.376  23.068  12.052
44472W        W16732  22.198   1.863  10.897
44473W        W16733  38.505  35.636  13.720
44474W        W16734  37.503   6.679   4.255
44475W        W16735  35.272   5.334   1.379
44476W        W16736  13.169   6.654  14.801
44477W        W16737   4.234   0.314   1.443
44478W        W16738  24.091  11.410  14.299
44479W        W16739  20.073  39.036  12.035
44480W        W16740  13.418  44.450  11.563
44481W        W16741  19.965  10.953   0.304
44482W        W16742  29.422   7.521   2.334
44483W        W16743   8.986   9.356   1.583
44484W        W16744  28.733  40.418   1.884
44485W        W16745  31.422  36.985   3.659
44486W        W16746  12.762   1.487   0.718
44487W        W16747  29.948  22.765   2.288
44488W        W16748  16.163  14.434   4.639
44489W        W16749  11.392  38.361  13.063
44490W        W16750  40.490  27.941  11.096
44491W        W16751  24.267   0.268  14.436
44492W        W16752  23.064   3.246   3.758
44493W        W16753  12.619  43.316  12.916
44494W        W16754   2.203  37.282  12.554
44495W        W16755   9.574   0.418  11.471
44496W        W16756  11.168  28.912  10.524
44497W        W16757  34.758  17.087   3.126
44498W        W16758   0.999  30.078  10.887
44499W        W16759  10.841  22.455  12.655
44500W        W16760  28.586  27.551   0.185
44501W        W16761  44.014   7.895  13.765
44502W        W16762  35.312   2.189   2.217
44503W        W16763  22.113  39.358  12.111
44504W        W16764  28.806  35.185  12.956
44505W        W16765  42.736  22.172   1.766
44506W        W16766  18.216  40.057  11.499
44507W        W16767   2.319  16.726   0.566
44508W        W16768   1.294   9.941   1.863
44509W        W16769  17.600  43.076   5.021
44510W        W16770  24.644  43.009   0.184
44511W        W16771  30.683  10.335   2.820
44512W        W16772  14.934  17.267  12.042
44513W        W16773  41.360  10.755  13.340
44514W        W16774  43.511  14.550  13.653
44515W        W16775  38.933  38.553  10.070
44516W        W16776  39.334  40.498   1.173
44517W        W16777  27.220  44.511   3.606
44518W        W16778  36.784   4.838  14.804
44519W        W16779  22.154  25.647  13.813
44520W        W16780  26.189   5.031  13.123
44521W        W16781  36.415   0.956   3.798
44522W        W16782  20.979  36.958   3.241
44523W        W16783  24.176  15.565   3.200
44524W        W16784  11.098  24.542  13.718
44525W        W16785  18.800  24.481   4.712
44526W        W16786  23.057  13.601   2.694
44527W        W16787  15.657  30.802  12.763
44528W        W16788  36.595  24.709  12.890
44529W        W16789  33.468   2.219  10.408
44530W        W16790   7.364  37.155   0.615
44531W        W16791   1.767  42.061  11.676
44532W        W16792  41.086  35.978   4.190
44533W        W16793  21.785  14.759  13.995
44534W        W16794   7.662   9.864  12.039
44535W        W16795  32.067  11.797  12.555
44536W        W16796   4.374  32.597   3.287
44537W        W16797  33.484  18.783   1.295
44538W        W16798  38.437  43.546   0.266
44539W        W16799   8.346   8.757  13.911
44540W        W16800   1.216  25.895  12.810
44541W        W16801  22.597  22.576   2.701
44542W        W16802  39.543  25.003   3.133
44543W        W16803  12.656  12.555   1.819
44544W        W16804  29.234  40.381   1.947
44545W        W16805  14.187  13.852   3.324
44546W        W16806  27.274   3.075  11.871
44547W        W16807  39.122  36.487   3.257
44548W        W16808  41.367  21.213   2.324
44549W        W16809  44.520  27.349   3.399
44550W        W16810  26.062  38.769   2.257
44551W        W16811  31.463  36.462   3.720
44552W        W16812  19.019  40.754   0.247
44553W        W16813  28.563  27.496   2.683
44554W        W16814  15.287  29.394  14.804
44555W        W16815  37.209  35.282   1.246
44556W        W16816  29.748  30.616   0.352
44557W        W16817  28.943  34.008   1.253
44558W        W16818  36.513   5.119  12.645
44559W        W16819  28.578  34.640   4.098
44560W        W16820  41.201   0.730   0.377
44561W        W16821   6.443  17.135   2.049
44562W        W16822  16.342  25.010   2.782
44563W        W16823  15.106  24.207  13.231
44564W        W16824   2.965  24.611  13.869
44565W        W16825   6.839  13.639  13.569
44566W        W16826  25.262  17.978  13.496
44567W        W16827   7.751  14.315   4.555
44568W        W16828  33.401  19.231   9.665
44569W        W16829  25.567  40.086  14.218
44570W        W16830   8.942  36.817  13.811
44571W        W16831  39.552  28.171   4.497
44572W        W16832  28.664   4.283   4.328
44573W        W16833   6.975  44.822  12.850
44574W        W16834  17.754  37.802  11.948
44575W        W16835   1.883  19.163  14.401
44576W        W16836  13.382  41.216  11.173
44577W        W16837  13.517  44.983  14.858
44578W        W16838  32.212  16.110   0.365
44579W        W16839  12.247  35.434  12.932
44580W        W16840  15.524  14.294   5.522
44581W        W16841  10.663   0.702   4.673
44582W        W16842   3.206  29.979   0.228
44583W        W16843   9.109  21.273  12.025
44584W        W16844  42.434  17.452  11.990
44585W        W16845  26.051   9.797  12.205
44586W        W16846  38.075  11.682  11.540
44587W        W16847  35.413  32.237   0.976
44588W        W16848  25.065  43.658  14.927
44589W        W16849  44.237  34.902   0.473
44590W        W16850  27.324  26.931   0.530
44591W        W16851  26.392  36.436   1.061
44592W        W16852   8.220  39.770   4.657
44593W        W16853  13.506   1.214  11.214
44594W        W16854  26.089  14.374   3.647
44595W        W16855   1.463  25.492   1.677
44596W        W16856   5.218  30.450   3.772
44597W        W16857  18.422  17.775   1.840
44598W        W16858  23.087  17.498   1.347
44599W        W16859  16.813  22.926   2.443
44600W        W16860  27.259  35.045  14.943
44601W        W16861  18.609  32.905   2.890
44602W        W16862  43.245   0.055   1.889
44603W        W16863  17.170  22.976  11.155
44604W        W16864  18.395  10.112   2.376
44605W        W16865  18.259   6.088  11.609
44606W        W16866  22.809  33.141   3.111
44607W        W16867  24.602  20.236  11.674
44608W        W16868  26.752  11.756  11.552
44609W        W16869  37.127  26.705  13.566
44610W        W16870  13.724  24.009   4.150
44611W        W16871  21.587  30.533  14.872
44612W        W16872  38.368  22.560   0.706
44613W        W16873  41.507  36.411   0.999
44614W        W16874  14.360  10.679   1.926
44615W        W16875  43.370  33.811   4.117
44616W        W16876   0.767  40.868   4.280
44617W        W16877  43.743  36.979   1.202
44618W        W16878  25.287  16.779   0.050
44619W        W16879  16.831  31.113  11.570
44620W        W16880  37.519  18.659  13.309
44621W        W16881  30.783  21.619  14.169
44622W        W16882  40.922  40.407  12.969
44623W        W16883  20.781   5.805  11.020
44624W        W16884  19.773  37.000   1.855
44625W        W16885  27.261  21.139  13.804
44626W        W16886  29.666   4.209  12.885
44627W        W16887  42.782  41.427  13.480
44628W        W16888   9.301  42.561  12.474
44629W        W16889  41.511  37.577   0.147
44630W        W16890   1.778  26.215  13.138
44631W        W16891  35.818  29.106   4.031
44632W        W16892  16.383  39.701  13.352
44633W        W16893  29.234  33.147   5.103
44634W        W16894  29.614  25.519  14.334
44635W        W16895  29.506  36.899  13.348
44636W        W16896  28.959  33.962  12.405
44637W        W16897  11.508   5.444  13.579
44638W        W16898  18.288   3.802   3.802
44639W        W16899  14.300  17.082   1.623
44640W        W16900  42.821   3.608   0.889
44641W        W16901  40.496  18.997  14.474
44642W        W16902  27.624  39.017  11.415
44643W        W16903  26.106  23.384  12.023
44644W        W16904   7.862  13.793   4.639
44645W        W16905  25.173   7.517   3.687
44646W        W16906  24.970  25.160   0.339
44647W        W16907   3.719  12.444   4.038
44648W        W16908  31.879  19.759  12.009
44649W        W16909   9.311  22.202  12.462
44650W        W16910   8.716  14.525   1.742
44651W        W16911  41.896  16.014  14.967
44652W        W16912  44.577  12.345  12.093
44653W        W16913   7.660  16.539  13.583
44654W        W16914  39.298  24.607   3.358
44655W        W16915  41.023  20.781   2.309
44656W        W16916  33.122  13.758   4.200
44657W        W16917  39.541   4.749  12.208
44658W        W16918  14.128  18.740  13.021
44659W        W16919  33.952   7.693   4.740
44660W        W16920  26.037  35.494   2.613
44661W        W16921  23.563  37.474   3.617
44662W        W16922  13.305  36.780   0.515
44663W        W16923  36.104  44.817   2.782
44664W        W16924  22.587  39.539  11.793
44665W        W16925  40.933  26.611   0.328
44666W        W16926  34.514  41.980  14.282
44667W        W16927  19.024   1.998  11.022
44668W        W16928   9.200  31.860  12.983
44669W        W16929  31.543  12.413   2.255
44670W        W16930  35.981  36.155   4.456
44671W        W16931  15.586  42.442   3.681
44672W        W16932   3.411  42.440   0.988
44673W        W16933   8.517  13.339   1.290
44674W        W16934  23.169  17.795   1.772
44675W        W16935  38.453  36.418   0.877
44676W        W16936   0.349  42.672   4.072
44677W        W16937  34.339  28.436  12.941
44678W        W16938  31.593   1.635  13.822
44679W        W16939   2.966  25.924   3.203
44680W        W16940  31.431  21.657  12.974
44681W        W16941  11.080   8.128   0.059
44682W        W16942  27.121   7.783  12.472
44683W        W16943  29.707  39.888   2.760
44684W        W16944  39.928   7.783  11.859
44685W        W16945  17.582   5.112   4.696
44686W        W16946   6.756  19.652   0.447
44687W        W16947  22.754  12.848  12.041
44688W        W16948  42.998  27.856   2.512
44689W        W16949  42.422  13.965   2.716
44690W        W16950   0.414  13.833  12.418
44691W        W16951  42.351  26.749   2.838
44692W        W16952  40.460  34.364   1.227
44693W        W16953  37.405  25.725   1.214
44694W        W16954  11.284   2.452   3.183
44695W        W16955  20.697   8.314  11.054
44696W        W16956  15.327  41.774   4.888
44697W        W16957  37.329  44.092   4.615
44698W        W16958   3.836  26.810   0.304
44699W        W16959  23.684  27.168  13.040
44700W        W16960   8.709  11.629  12.673
44701W        W16961   7.163  42.761   0.674
44702W        W16962  14.635  38.063   2.813
44703W        W16963   6.815  33.169  12.128
44704W        W16964  43.397  40.418   3.719
44705W        W16965  35.408  11.269   0.896
44706W        W16966  15.080   8.148   0.266
44707W        W16967   2.488  22.641   1.404
44708W        W16968  31.646  37.799   4.310
44709W        W16969  19.058   9.166   3.265
44710W        W16970  27.012  38.589  11.380
44711W        W16971  37.792  43.924   1.830
44712W        W16972  32.181   9.689  10.638
44713W        W16973  27.980  43.575   1.283
44714W        W16974  19.904   1.309  10.881
44715W        W16975   4.450   2.339  11.058
44716W        W16976  24.301  36.427  11.999
44717W        W16977  38.011   2.698  10.501
44718W        W16978  38.034  17.088   1.745
44719W        W16979   8.333  21.526  12.887
44720W        W16980  23.582   0.189   0.348
44721W        W16981  33.157  35.746  12.398
44722W        W16982  40.071  44.744  10.788
44723W        W16983  18.124  12.139   0.423
44724W        W16984  44.923  21.727   1.235
44725W        W16985  15.862  27.008  10.960
44726W        W16986  42.009  35.878  13.719
44727W        W16987  41.226   0.544   1.540
44728W        W16988   6.357  25.633   0.969
44729W        W16989  26.785  16.188  12.463
44730W        W16990  34.534   4.675  11.279
44731W        W16991   3.918  21.734  10.649
44732W        W16992  15.475  38.477   0.549
44733W        W16993  33.839  43.568   3.901
44734W        W16994  24.977  44.978  12.285
44735W        W16995   7.315  21.986  11.618
44736W        W16996  41.463  34.896  14.912
44737W        W16997  32.377   3.204   4.706
44738W        W16998   2.737  21.773   4.320
44739W        W16999  31.805  33.994  14.937
44740W        W17000  37.117  19.570   2.299
44741W        W17001   0.353  10.076  12.807
44742W        W17002  43.676  40.473   0.676
44743W        W17003  31.650   6.461  14.450
44744W        W17004  11.681  10.697   0.945
44745W        W17005  42.846  34.475  11.682
44746W        W17006  21.189  15.905   0.093
44747W        W17007  28.775  12.693  14.160
44748W        W17008  12.239  15.266  13.859
44749W        W17009  27.799  36.391   1.259
44750W        W17010  27.473  15.113  12.759
44751W        W17011   0.758   4.276  10.787
44752W        W17012  17.637  44.496   2.840
44753W        W17013   8.896  32.600  11.694
44754W        W17014  22.994   1.979  11.539
44755W        W17015   2.737  28.044   4.356
44756W        W17016  10.950  40.939  14.356
44757W        W17017   0.277   9.302   2.246
44758W        W17018  33.049   1.757   2.685
44759W        W17019  18.609   8.840  14.825
44760W        W17020  39.490  43.802   0.970
44761W        W17021  20.688   3.418  13.522
44762W        W17022  14.162  25.101   4.424
44763W        W17023  37.088  30.163   0.846
44764W        W17024  39.046  16.780  10.586
44765W        W17025  36.000  42.396   4.426
44766W        W17026   9.795   8.400   3.408
44767W        W17027   1.272   4.097   0.946
44768W        W17028  10.946  13.708   3.401
44769W        W17029  37.249  24.786   3.303
44770W        W17030  44.456  10.427  10.402
44771W        W17031  27.037  32.996  12.629
44772W        W17032  11.871  16.058  13.419
44773W        W17033   8.703  25.682  10.629
44774W        W17034   5.305  18.843   4.160
44775W        W17035  11.788   1.921  14.531
44776W        W17036   5.274  23.255  12.938
44777W        W17037   1.204  20.598  11.243
44778W        W17038  43.321  14.096  10.786
44779W        W17039   5.889  37.983  14.328
44780W        W17040   2.914  14.085  12.866
44781W        W17041   4.474  19.261   2.442
44782W        W17042  41.921   7.330   0.699
44783W        W17043  10.640   4.086   2.527
44784W        W17044  18.530  31.678   2.754
44785W        W17045  36.115  39.921  14.919
44786W        W17046  10.710   6.888   4.004
44787W        W17047  38.076  37.004   2.735
44788W        W17048  23.610  26.690  10.259
44789W        W17049  33.339   7.685   2.000
44790W        W17050  36.918  19.820  12.004
44791W        W17051   4.357   1.022   0.925
44792W        W17052   2.970  25.523  13.328
44793W        W17053  22.585   9.514   4.547
44794W        W17054   5.189  13.246  11.020
44795W        W17055   1.062  18.797  13.328
44796W        W17056  43.030  20.053   5.010
44797W        W17057  28.104  31.035  10.288
44798W        W17058  19.675  21.804  10.641
44799W        W17059  11.242  42.759  13.434
44800W        W17060  38.444  26.236  12.154
44801W        W17061  10.478  39.658  10.541
44802W        W17062  18.052   8.529  13.876
44803W        W17063  16.913   4.276   3.659
44804W        W17064  20.345  26.169  14.443
44805W        W17065  26.635   0.009   2.374
44806W        W17066   4.395  44.923   3.361
44807W        W17067  12.103  35.164   0.390
44808W        W17068  36.536  40.515   0.599
44809W        W17069  14.977  23.871  14.715
44810W        W17070  43.522  40.517   3.224
44811W        W17071  41.446   5.834  12.530
44812W        W17072  14.189  44.370  12.731
44813W        W17073  24.053  14.365   4.049
44814W        W17074   6.931  22.618  14.483
44815W        W17075  21.694  18.262  12.998
44816W        W17076  37.889  32.355  12.440
44817W        W17077  25.675  19.590   1.162
44818W        W17078  28.540  29.574   4.075
44819W        W17079  12.907   0.934   9.874
44820W        W17080  33.989  29.452  14.592
44821W        W17081  14.612  14.048  10.638
44822W        W17082   3.717  12.163   3.611
44823W        W17083  39.845  22.167  14.505
44824W        W17084   4.110   4.833   2.276
44825W        W17085  35.434  25.823  12.639
44826W        W17086   0.396   9.384   0.049
44827W        W17087  34.833  17.861   1.304
44828W        W17088  29.060  19.574  12.340
44829W        W17089  11.912  27.049  11.290
44830W        W17090  20.941  33.992  13.603
44831W        W17091  17.202   9.733   4.491
44832W        W17092  22.263  19.161  12.154
44833W        W17093  43.281  43.578  11.521
44834W        W17094  23.354   7.373   0.712
44835W        W17095  20.590  34.819   2.099
44836W        W17096  21.745  33.843  12.467
44837W        W17097  31.430  43.363  12.535
44838W        W17098  30.651  41.789  13.446
44839W        W17099  40.425   9.891   1.487
44840W        W17100  30.170   7.441  11.530
44841W        W17101  35.507  15.584  11.737
44842W        W17102   9.120   9.502   3.655
44843W        W17103  16.555  36.073  11.444
44844W        W17104  38.395  29.599  13.486
44845W        W17105  17.541   1.789  11.209
44846W        W17106  12.294  23.161   3.096
44847W        W17107  31.428   5.431   1.897
44848W        W17108  19.168   9.733  13.905
44849W        W17109  39.792  29.051   1.431
44850W        W17110  11.943   1.515  11.541
44851W        W17111   5.258  33.319  14.421
44852W        W17112  22.459  10.135   1.813
44853W        W17113   5.462  21.635  14.483
44854W        W17114  13.721   5.913  14.442
44855W        W17115  34.967  20.772   4.946
44856W        W17116  21.149   8.127   1.485
44857W        W17117  12.558  10.256  13.972
44858W        W17118  41.542   8.797   4.664
44859W        W17119  29.361  43.949   1.297
44860W        W17120  37.014  22.094   4.505
44861W        W17121  25.686   3.149   0.186
44862W        W17122  39.218  33.318   4.966
44863W        W17123  31.500  12.185   4.622
44864W        W17124  27.037  35.393  11.186
44865W        W17125   7.677  12.599  14.544
44866W        W17126  17.254   9.026   3.836
44867W        W17127  35.894  30.497  12.588
44868W        W17128  22.091  21.782   1.736
44869W        W17129   9.449  29.927  13.009
44870W        W17130  39.145  11.917   2.576
44871W        W17131  40.395   6.199  13.771
44872W        W17132   6.720  18.852  12.205
44873W        W17133  40.290  30.673  13.940
44874W        W17134  14.549  21.452  14.317
44875W        W17135  31.041  10.781  13.020
44876W        W17136  17.104  25.188   3.201
44877W        W17137   1.905  28.421   2.373
44878W        W17138   9.948   2.323  12.982
44879W        W17139  10.245   1.430   2.807
44880W        W17140  16.508  11.221  12.493
44881W        W17141  24.663   6.758  13.357
44882W        W17142  19.264  11.650   2.055
44883W        W17143  26.094   3.694  11.106
44884W        W17144  32.410  17.834   1.291
44885W        W17145  38.054  10.675   9.848
44886W        W17146  32.069  21.536   1.857
44887W        W17147  39.283  38.077   4.309
44888W        W17148  31.981   9.414  11.068
44889W        W17149   1.971   6.746  13.895
44890W        W17150   5.580  14.876  11.604
44891W        W17151  11.554  37.297   0.439
44892W        W17152  12.315  17.729  13.367
44893W        W17153   5.457  12.568   3.673
44894W        W17154  15.512   3.530   0.735
44895W        W17155  31.658  19.007  11.684
44896W        W17156  42.396  40.867   2.828
44897W        W17157  14.021  15.857   3.323
44898W        W17158  29.437  15.200   0.494
44899W        W17159  34.636  16.752   2.725
44900W        W17160  24.680  28.314  14.543
44901W        W17161  10.083  34.400   0.574
44902W        W17162  17.642  43.942  12.062
44903W        W17163  33.658   8.393  11.550
44904W        W17164  35.264  10.718  14.415
44905W        W17165  13.628  18.123   3.392
44906W        W17166   0.309  40.374  13.853
44907W        W17167   4.934  31.664   2.702
44908W        W17168   9.379  20.676   3.564
44909W        W17169  15.178  41.055  13.995
44910W        W17170  11.729  30.303   1.447
44911W        W17171   3.726  18.197   3.040
44912W        W17172  22.484   4.976   4.992
44913W        W17173  11.431  28.941   4.151
44914W        W17174  31.949  28.975  10.685
44915W        W17175  19.214  13.096   0.491
44916W        W17176   8.230   5.290  12.862
44917W        W17177  32.983  19.431  11.030
44918W        W17178  35.594  17.929   0.830
44919W        W17179  28.566  16.082  11.558
44920W        W17180  13.972  40.834   0.409
44921W        W17181  15.400  30.677   2.759
44922W        W17182  21.035   9.146  12.103
44923W        W17183  20.872   2.838   3.175
44924W        W17184  40.476  19.089  12.196
44925W        W17185  28.495   8.550  11.218
44926W        W17186   4.401  31.956  10.866
44927W        W17187  35.918  21.970  14.241
44928W        W17188  27.535   9.749   1.285
44929W        W17189  41.348  37.804  11.797
44930W        W17190  21.451   4.465  11.767
44931W        W17191  12.792  44.040  11.597
44932W        W17192   1.776  30.871  11.514
44933W        W17193   2.839  43.304   2.421
44934W        W17194  22.654  13.722   2.302
44935W        W17195   4.190  20.646   2.125
44936W        W17196  22.122  13.034  13.566
44937W        W17197  12.915  12.622  11.225
44938W        W17198  43.031  41.243  10.492
44939W        W17199   9.676  35.186   2.710
44940W        W17200  40.380  36.608   4.262
44941W        W17201  29.063  37.128  13.506
44942W        W17202  11.819  23.788   1.811
44943W        W17203  40.393  43.062  11.173
44944W        W17204  26.751  28.680  12.408
44945W        W17205  33.633  23.017   2.721
44946W        W17206  35.115  15.447  12.042
44947W        W17207  35.154  18.749   3.857
44948W        W17208  19.217  14.607   3.771
44949W        W17209  41.935  28.637  11.114
44950W        W17210  31.553  19.261   2.157
44951W        W17211  28.888  14.116  11.102
44952W        W17212  14.780   4.154   4.234
44953W        W17213   2.869  38.555  13.113
44954W        W17214   2.299  34.908   1.762
44955W        W17215  18.350  41.029   4.530
44956W        W17216  26.009  29.812   4.092
44957W        W17217   1.574   6.897  11.688
44958W        W17218  13.383  34.717  12.785
44959W        W17219  12.390  11.705   1.736
44960W        W17220  28.373  15.480  10.085
44961W        W17221  14.644  13.003  12.050
44962W        W17222   3.264  26.976   0.747
44963W        W17223  34.117  37.844   0.389
44964W        W17224   1.127  39.814   0.871
44965W        W17225  19.085   6.426  14.476
44966W        W17226  12.889   5.831  13.487
44967W        W17227  27.393   7.483   1.468
44968W        W17228  28.884  17.151   4.320
44969W        W17229  39.438  10.636  10.985
44970W        W17230  40.413   6.839   1.732
44971W        W17231   1.173  32.967  12.449
44972W        W17232  24.678   6.236  13.485
44973W        W17233  14.889  15.626   0.943
44974W        W17234  11.843  33.614   2.687
44975W        W17235  43.381   5.305  11.660
44976W        W17236  29.990  23.849   1.267
44977W        W17237  25.225  16.763  11.372
44978W        W17238  43.656  22.248   2.888
44979W        W17239  14.825  23.964   0.790
44980W        W17240  11.404   1.333  12.144
44981W        W17241  40.348   1.326  14.409
44982W        W17242   5.137  21.076   0.876
44983W        W17243   2.582  17.660  13.442
44984W        W17244  17.527  29.951  10.839
44985W        W17245   6.893  37.071   0.413
44986W        W17246  10.600  30.048   2.402
44987W        W17247  14.258   3.466   0.268
44988W        W17248  41.274  18.983  12.551
44989W        W17249  18.937  44.181   3.798
44990W        W17250  25.962  39.840  14.450
44991W        W17251  33.419  31.486   2.174
44992W        W17252   8.162  40.994   0.673
44993W        W17253  22.005  13.344   1.505
44994W        W17254  26.776  39.568   2.340
44995W        W17255  28.615  18.976  14.939
44996W        W17256   7.473  40.971  11.579
44997W        W17257  10.853   7.299  14.036
44998W        W17258  41.518  20.702   1.171
44999W        W17259   5.657  24.226  14.793
45000W        W17260  29.717  42.547   1.068
45001W        W17261  19.411  28.086  11.442
45002W        W17262   5.336   9.865  10.580
45003W        W17263   9.131   7.474   0.330
45004W        W17264  33.444  14.218  14.424
45005W        W17265  25.112  22.281  12.470
45006W        W17266   5.421  13.216   0.421
45007W        W17267  33.925  34.404   1.419
45008W        W17268  28.967  37.998  13.018
45009W        W17269  42.165  41.642  12.563
45010W        W17270  34.263  28.002  13.297
45011W        W17271  38.692  16.351  12.581
45012W        W17272  13.643  30.182  13.347
45013W        W17273  36.152  26.172  12.431
45014W        W17274  13.702  22.488   1.867
45015W        W17275   8.592  21.574   1.045
45016W        W17276   1.970  28.235  10.734
45017W        W17277  10.598   0.905   3.679
45018W        W17278  26.730   1.200  10.569
45019W        W17279  43.389   7.788   0.129
45020W        W17280   6.794   3.543  11.941
45021W        W17281  35.696  28.030  12.020
45022W        W17282  30.990  40.122   2.401
45023W        W17283  28.403  18.363  11.579
45024W        W17284   7.725  20.026   0.848
45025W        W17285  42.526  19.138   0.189
45026W        W17286  12.896  11.275   1.214
45027W        W17287  35.591   4.119  14.472
45028W        W17288  14.083  34.608  14.613
45029W        W17289   9.131   4.297  11.459
45030W        W17290  13.243  18.657   0.696
45031W        W17291  31.635  27.145  14.549
45032W        W17292  33.183  21.776  12.162
45033W        W17293  34.289  44.500  14.739
45034W        W17294  38.931  39.706   2.175
45035W        W17295  33.021  15.802   0.323
45036W        W17296  17.251  19.599   1.343
45037W        W17297  23.748  42.781  14.875
45038W        W17298  25.351  36.433   3.219
45039W        W17299  27.957  44.119  11.156
45040W        W17300  28.586   8.940  12.945
45041W        W17301  10.339  31.903   4.076
45042W        W17302  39.295   4.911  14.417
45043W        W17303  19.465  29.986   0.196
45044W        W17304  25.975  21.773   1.812
45045W        W17305  17.782  33.480   4.284
45046W        W17306  14.329  17.242   3.578
45047W        W17307   8.317  13.043  11.597
45048W        W17308  18.590  14.714  13.829
45049W        W17309  36.986  28.872   1.725
45050W        W17310   0.418  42.037   1.828
45051W        W17311  37.850  36.279  11.081
45052W        W17312  39.935  37.924   1.297
45053W        W17313  20.513   1.844   1.939
45054W        W17314  22.093   7.600   3.639
45055W        W17315  14.543  30.005  14.204
45056W        W17316  17.084   5.410  12.011
45057W        W17317  31.150   0.342   0.309
45058W        W17318  15.848  33.571  11.514
45059W        W17319  43.812   9.360   3.906
45060W        W17320  29.081  31.635  10.600
45061W        W17321  40.876  41.808   1.161
45062W        W17322  35.290  36.977   2.362
45063W        W17323   8.624  13.329  11.923
45064W        W17324  15.734  18.754   3.216
45065W        W17325  36.950  28.527  14.400
45066W        W17326  24.069  19.651   0.557
45067W        W17327   0.060  39.516   2.175
45068W        W17328  20.281  12.821  10.665
45069W        W17329  26.958  25.055   3.197
45070W        W17330   7.542  12.833   5.015
45071W        W17331  10.064   8.858  11.931
45072W        W17332  20.291  19.093  12.972
45073W        W17333  10.694  28.888  10.770
45074W        W17334  16.717  34.869   1.342
45075W        W17335  26.916  24.779  12.443
45076W        W17336  16.855  16.645  14.548
45077W        W17337  40.940  35.853   2.732
45078W        W17338   5.938  34.886  10.930
45079W        W17339  20.215  19.075   2.601
45080W        W17340   1.428  38.162  14.065
45081W        W17341  43.073   8.761  14.225
45082W        W17342  19.093   6.335   0.355
45083W        W17343   2.778   1.182  13.410
45084W        W17344   3.415  34.578   2.785
45085W        W17345  24.305  33.509  11.551
45086W        W17346  35.765  39.401  12.950
45087W        W17347  43.157  19.235   3.581
45088W        W17348  18.101  14.018  12.396
45089W        W17349  27.366   1.749   1.228
45090W        W17350  40.964  42.156   1.537
45091W        W17351  32.392  32.360  12.270
45092W        W17352  33.274  33.108   2.659
45093W        W17353  24.715  25.704  11.880
45094W        W17354  41.581  32.003   3.275
45095W        W17355  11.411  37.957  13.425
45096W        W17356  20.956  29.553   0.419
45097W        W17357  37.881  18.156  11.776
45098W        W17358  31.565  32.444   3.822
45099W        W17359   0.772  17.852   2.340
45100W        W17360  11.945  42.687  14.848
45101W        W17361  20.194   1.767  13.115
45102W        W17362   4.484  41.414   3.354
45103W        W17363  12.727  37.840   4.308
45104W        W17364  25.540   3.897  10.878
45105W        W17365   6.156  35.195   1.237
45106W        W17366  34.573   5.427   0.036
45107W        W17367  12.301   8.896   1.239
45108W        W17368  28.581  22.280  12.607
45109W        W17369  35.149   3.228   4.216
45110W        W17370  19.395  20.270  11.691
45111W        W17371   0.907  27.957  14.848
45112W        W17372  31.826  18.775  12.952
45113W        W17373  40.295  24.134   4.115
45114W        W17374  34.326   4.366   4.245
45115W        W17375  33.413  28.000  12.983
45116W        W17376   2.451  29.122  12.289
45117W        W17377  13.686  32.985  14.462
45118W        W17378  17.628  29.886   1.953
45119W        W17379  36.858   9.720  13.060
45120W        W17380  34.362  31.020  11.968
45121W        W17381   8.212  38.830  10.836
45122W        W17382  10.180  43.898   3.458
45123W        W17383   9.818   2.011  13.367
45124W        W17384  13.119  43.575   1.515
45125W        W17385   1.599   2.560   0.289
45126W        W17386  24.733  14.085  10.751
45127W        W17387   5.351  39.747   1.403
45128W        W17388  22.187   9.220   4.392
45129W        W17389  34.897  33.903   4.598
45130W        W17390   0.321   2.240   0.344
45131W        W17391   2.683  44.294  13.523
45132W        W17392  15.263  18.495  12.468
45133W        W17393  40.336   8.590   4.581
45134W        W17394  11.256   2.765  11.914
45135W        W17395  26.967   9.335   2.683
45136W        W17396  24.980  18.810   1.823
45137W        W17397   2.001   9.700   1.433
45138W        W17398   1.812  41.543   4.052
45139W        W17399   4.778  14.084   3.592
45140W        W17400   9.186  10.535   3.748
45141W        W17401  21.035  14.650   4.496
45142W        W17402  25.992  10.806   1.211
45143W        W17403  32.029   2.161   3.413
45144W        W17404  31.453  14.067  14.373
45145W        W17405  15.842  18.570   0.617
45146W        W17406  14.749  26.107   3.534
45147W        W17407   0.292   8.172  13.804
45148W        W17408  31.377  28.701   0.266
45149W        W17409  40.815  41.991  11.568
45150W        W17410  27.916   9.726  12.422
45151W        W17411  10.942  41.466   1.976
45152W        W17412  29.845  40.857   4.894
45153W        W17413  34.967  21.517  11.567
45154W        W17414  28.202  31.132  12.511
45155W        W17415  35.061  35.111   3.762
45156W        W17416  29.327   1.765  14.678
45157W        W17417  42.990  19.678   1.834
45158W        W17418  39.596   8.783  14.284
45159W        W17419   8.533  37.432   1.324
45160W        W17420  29.072   9.391   3.832
45161W        W17421  42.417  21.729   1.840
45162W        W17422  13.146  43.205   4.237
45163W        W17423   5.783  26.588   0.358
45164W        W17424  32.742  38.385   2.486
45165W        W17425  32.798   7.140   4.535
45166W        W17426   5.218  13.815  12.248
45167W        W17427  38.217  19.732   4.894
45168W        W17428   9.484   8.834   2.386
45169W        W17429  13.453  19.818  14.128
45170W        W17430   5.364  20.624   0.718
45171W        W17431   9.475  19.638  11.496
45172W        W17432   7.320  44.374   4.723
45173W        W17433  17.872   5.222   1.921
45174W        W17434  34.791   2.086  11.421
45175W        W17435   1.033   0.851   0.697
45176W        W17436  22.705   2.984   0.447
45177W        W17437   9.427   9.913   0.219
45178W        W17438   5.643  28.470   4.620
45179W        W17439  38.099   9.352   0.959
45180W        W17440  12.339   7.643  11.486
45181W        W17441  24.634   4.777  13.468
45182W        W17442  35.893  10.609  13.750
45183W        W17443  34.613  36.686   3.081
45184W        W17444  23.620   4.048  11.557
45185W        W17445  20.813  19.349   1.353
45186W        W17446  29.607  13.821  13.539
45187W        W17447  25.582  21.954   0.402
45188W        W17448  32.428  33.267  11.766
45189W        W17449  24.470  23.714   1.288
45190W        W17450  22.720  41.263  14.440
45191W        W17451  16.688   4.899  11.621
45192W        W17452  44.362  34.655  13.411
45193W        W17453  26.984  13.652  14.410
45194W        W17454  31.120  44.859   3.803
45195W        W17455  27.690  26.377  11.013
45196W        W17456  25.472  40.380  13.796
45197W        W17457  26.577  43.557  11.157
45198W        W17458  28.958  25.248   0.021
45199W        W17459  16.617   6.284   2.756
45200W        W17460  38.384  15.277  14.945
45201W        W17461   8.231  20.742  14.971
45202W        W17462  24.070  25.660  14.028
45203W        W17463  31.121  12.875   1.691
45204W        W17464  18.278   0.378  12.023
45205W        W17465  10.172   2.827  11.596
45206W        W17466  22.023  17.768  13.436
45207W        W17467  29.228  13.867   1.817
45208W        W17468  42.678  39.570   0.886
45209W        W17469  20.031  43.334   3.041
45210W        W17470  35.537  33.951  10.769
45211W        W17471   4.629  27.746   4.106
45212W        W17472  43.920  42.457  10.694
45213W        W17473  32.444  31.300   3.743
45214W        W17474  41.453   0.908  11.821
45215W        W17475  26.430  11.838  14.526
45216W        W17476  29.077  16.439  12.507
45217W        W17477  22.648  29.992  11.941
45218W        W17478   4.977  33.040   4.493
45219W        W17479   8.633   4.313   9.946
45220W        W17480  17.206   0.679  12.550
45221W        W17481  27.514  27.080   3.689
45222W        W17482  22.703   7.304  12.304
45223W        W17483  13.284  28.530  12.874
45224W        W17484  25.171  41.142   3.619
45225W        W17485  17.125  14.160  14.924
45226W        W17486  27.468  16.616   3.502
45227W        W17487   5.856  37.980  10.630
45228W        W17488  19.113  29.110   4.258
45229W        W17489  16.167  36.329   0.285
45230W        W17490  24.210  37.807   0.735
45231W        W17491  43.764  14.200  11.054
45232W        W17492  27.093  31.085   4.763
45233W        W17493  19.781  40.006  11.459
45234W        W17494   0.880  35.162   4.515
45235W        W17495  15.738  32.679  11.627
45236W        W17496  28.147   0.032   3.637
45237W        W17497  37.750  11.423  12.921
45238W        W17498  14.866  37.588  14.777
45239W        W17499  18.295  43.972   2.335
45240W        W17500  26.588  16.074  11.193
45241W        W17501   3.578  38.489   1.952
45242W        W17502   2.478  24.709  14.022
45243W        W17503  19.343  21.734  11.373
45244W        W17504   9.580  11.312   3.288
45245W        W17505   0.710  38.850  14.969
45246W        W17506  37.947   8.110  14.991
45247W        W17507  31.416  23.519  10.929
45248W        W17508  17.761  26.656   0.466
45249W        W17509   4.310  39.978  13.405
45250W        W17510  12.229  43.283   0.112
45251W        W17511   7.815  29.216  10.813
45252W        W17512   2.174  14.076  13.445
45253W        W17513  44.457  32.901   2.217
45254W        W17514  11.763  41.803   0.924
45255W        W17515  14.751  41.317  11.144
45256W        W17516  42.389  39.528  12.500
45257W        W17517   5.717  22.959   0.869
45258W        W17518  37.876  28.976  11.630
45259W        W17519   3.501   3.455  14.899
45260W        W17520  11.270  29.989  12.928
45261W        W17521  37.225  15.003  11.972
45262W        W17522   3.987  41.413   3.462
45263W        W17523  14.064  17.984   1.892
45264W        W17524  36.953  21.031   4.166
45265W        W17525  28.313  27.223  11.126
45266W        W17526  26.973  41.849  10.872
45267W        W17527  30.637  33.328  11.700
45268W        W17528  22.224  17.140   4.878
45269W        W17529  32.351   2.857   0.888
45270W        W17530  37.666  20.581   0.838
45271W        W17531   8.650  29.906   2.345
45272W        W17532   1.495  10.960  13.418
45273W        W17533  13.896   7.198   1.288
45274W        W17534  26.996  35.547   3.170
45275W        W17535  41.401  22.609  10.612
45276W        W17536  21.951   1.987  14.575
45277W        W17537  11.753  35.789  12.007
45278W        W17538  27.074  10.168  14.982
45279W        W17539  44.855   0.635  14.869
45280W        W17540  42.459  30.556  13.952
45281W        W17541  26.113  22.595  14.855
45282W        W17542  19.821  28.493  11.218
45283W        W17543  28.509  25.359  10.714
45284W        W17544  19.220   0.912   4.970
45285W        W17545  37.577  23.668   1.225
45286W        W17546  10.136  30.471  13.933
45287W        W17547   0.219  34.673   1.768
45288W        W17548   2.699   3.454  11.133
45289W        W17549  20.054  43.424  14.291
45290W        W17550  32.615  12.572   0.801
45291W        W17551  23.044  11.222   0.766
45292W        W17552  18.710   4.899   0.428
45293W        W17553  17.312  18.075  11.604
45294W        W17554   8.685  25.210  11.660
45295W        W17555   4.414   9.826  10.679
45296W        W17556  40.236  32.059   3.689
45297W        W17557  35.414  22.093  12.509
45298W        W17558   3.959  39.452   0.024
45299W        W17559  27.642  18.367   3.119
45300W        W17560   2.118  15.735   3.338
45301W        W17561  11.111  30.007   2.229
45302W        W17562  40.041   8.876  12.445
45303W        W17563  40.310  40.695  11.614
45304W        W17564  36.797  34.222  12.589
45305W        W17565  13.643  13.356  12.548
45306W        W17566  36.869   5.176  13.020
45307W        W17567  36.550  41.737  13.253
45308W        W17568  40.826  37.064  10.674
45309W        W17569   8.149  30.729  13.085
45310W        W17570  29.559  42.783  12.573
45311W        W17571  34.968  38.981   0.932
45312W        W17572  31.549   0.764  12.617
45313W        W17573  24.531  11.612   4.537
45314W        W17574  44.385  38.886   2.223
45315W        W17575   7.206  30.957  13.550
45316W        W17576  34.777   2.274   2.091
45317W        W17577  42.992  37.727   5.107
45318W        W17578   2.225  23.634   4.918
45319W        W17579   5.356  17.580   3.629
45320W        W17580  27.047  34.840  13.002
45321W        W17581  28.915   8.847  13.993
45322W        W17582  26.137   9.912   0.462
45323W        W17583  13.135  16.635   4.267
45324W        W17584  23.105   0.646  13.495
45325W        W17585  33.011  20.057  14.073
45326W        W17586  20.739  29.461  11.055
45327W        W17587  29.956  29.394   5.435
45328W        W17588  20.225  34.248   1.787
45329W        W17589   1.023   1.652  13.812
45330W        W17590  18.243  12.901  13.493
45331W        W17591  42.430   8.606  14.411
45332W        W17592   2.843   6.616  14.878
45333W        W17593   9.248  12.929   2.343
45334W        W17594  19.709  31.194   3.717
45335W        W17595   1.219  24.702   2.403
45336W        W17596  40.717  44.504   3.718
45337W        W17597  14.346  33.281  11.810
45338W        W17598   9.324  36.118  13.516
45339W        W17599  38.478   9.654  11.602
45340W        W17600  27.788  31.086  10.699
45341W        W17601  34.289  18.778   3.338
45342W        W17602  11.202  23.470  14.469
45343W        W17603  38.960  28.449   3.405
45344W        W17604   9.406  42.579  11.956
45345W        W17605   3.532  27.062   1.180
45346W        W17606  19.750  31.944   4.891
45347W        W17607  26.592  23.050   1.843
45348W        W17608  43.675  19.990  14.836
45349W        W17609  22.292   6.851  12.079
45350W        W17610  13.644  21.762   4.219
45351W        W17611  12.555  26.081  13.827
45352W        W17612  35.225  22.722  12.973
45353W        W17613  24.566   8.131  14.154
45354W        W17614   9.389   7.947   2.309
45355W        W17615  24.193  40.931   3.800
45356W        W17616  21.346   6.733   1.745
45357W        W17617   4.063   8.783  12.484
45358W        W17618   9.255  29.493   0.175
45359W        W17619  39.915  10.049   4.565
45360W        W17620  44.355  10.638  12.083
45361W        W17621  26.787   3.695  13.932
45362W        W17622   4.416  40.079  11.599
45363W        W17623   7.650   8.114   0.107
45364W        W17624  19.280  17.085   5.092
45365W        W17625  19.703  32.086   3.874
45366W        W17626   6.259  10.885  11.893
45367W        W17627   6.207  30.143   3.386
45368W        W17628   4.110  38.483  11.984
45369W        W17629  44.197  35.093   4.190
45370W        W17630  13.610  15.572   2.595
45371W        W17631  17.578  41.735  13.947
45372W        W17632   2.802  27.410  14.469
45373W        W17633   2.761   3.239  14.782
45374W        W17634  14.430  42.160  12.113
45375W        W17635   4.978  20.225  12.405
45376W        W17636  15.188  35.150   4.152
45377W        W17637  39.347  23.780  11.038
45378W        W17638  42.741  30.559   0.298
45379W        W17639  44.868   1.648   0.753
45380W        W17640  14.806  28.679  11.094
45381W        W17641  23.640   0.256  11.013
45382W        W17642   4.274  31.541   0.676
45383W        W17643   3.899  29.565  12.778
45384W        W17644  31.389  14.314   0.541
45385W        W17645  30.989   2.166  14.037
45386W        W17646  30.154  33.485  11.594
45387W        W17647  16.679   3.284   1.906
45388W        W17648  18.890  28.741   1.686
45389W        W17649   0.421  43.563  14.475
45390W        W17650  40.411  43.848   2.740
45391W        W17651  31.501  35.814  13.545
45392W        W17652  39.178  18.542  10.926
45393W        W17653   7.801  11.337   2.763
45394W        W17654   1.887   6.186   0.030
45395W        W17655  44.329   8.721   4.191
45396W        W17656  18.101  38.457   1.228
45397W        W17657  31.945   4.484   3.312
45398W        W17658   9.361  42.727  13.094
45399W        W17659  36.659  25.554  12.574
45400W        W17660  17.013  30.305  10.722
45401W        W17661  40.377  28.474   3.896
45402W        W17662  16.045  38.306   1.850
45403W        W17663  37.583   7.750   1.921
45404W        W17664  20.771  14.194  12.491
45405W        W17665   4.966  34.866  11.880
45406W        W17666  31.721  20.709  12.069
45407W        W17667   0.702  27.756   2.408
45408W        W17668  43.831   4.943   1.800
45409W        W17669   5.843  10.204   4.139
45410W        W17670  36.070  20.335  11.991
45411W        W17671   3.807   4.459   1.486
45412W        W17672   9.761  32.493  11.067
45413W        W17673   4.622  41.664  12.367
45414W        W17674   0.939  14.904   3.630
45415W        W17675   0.341  27.103   2.859
45416W        W17676  38.403  16.090   3.885
45417W        W17677  12.613  15.328   0.672
45418W        W17678  32.871   1.688   1.978
45419W        W17679  33.995   6.472   2.776
45420W        W17680  44.890  36.077   1.333
45421W        W17681  23.810   3.922  12.441
45422W        W17682   3.970  18.730   1.917
45423W        W17683  37.347   9.745   2.916
45424W        W17684   2.412  26.052   1.391
45425W        W17685   7.917  12.384  12.447
45426W        W17686   2.543  42.064  14.667
45427W        W17687  25.749  37.988  12.595
45428W        W17688  18.471  16.989   4.168
45429W        W17689  10.626  41.482   2.940
45430W        W17690  40.221  30.599  11.708
45431W        W17691  30.056   8.952   1.938
45432W        W17692  13.359  40.821   2.757
45433W        W17693  42.980  26.897   2.705
45434W        W17694  22.748   6.430   5.233
45435W        W17695  24.396  27.644  11.113
45436W        W17696  43.955  42.008   3.088
45437W        W17697  11.245  38.838  11.711
45438W        W17698  37.351  37.692  12.585
45439W        W17699  36.923  36.058   0.752
45440W        W17700  14.084  32.358  13.334
45441W        W17701   2.937  26.614   5.018
45442W        W17702  24.211  26.741   3.855
45443W        W17703  19.440  25.778  12.547
45444W        W17704   2.129  22.036  13.511
45445W        W17705  33.101  21.076   3.039
45446W        W17706  27.788  27.880   4.098
45447W        W17707   6.159  25.468  13.534
45448W        W17708  30.995  33.428  14.799
45449W        W17709  21.592  35.941   4.121
45450W        W17710  40.629  34.500   3.519
45451W        W17711  43.772  24.276   3.629
45452W        W17712  37.863  10.632  12.788
45453W        W17713  40.982  25.812  13.388
45454W        W17714  40.076  25.473  12.919
45455W        W17715  16.532   0.539  10.796
45456W        W17716   3.156  37.638   2.732
45457W        W17717   6.525  25.886  11.587
45458W        W17718  25.124   7.227  10.691
45459W        W17719  18.081  22.201  10.826
45460W        W17720  19.146  40.097  13.981
45461W        W17721   5.359  26.601  12.481
45462W        W17722  16.815   0.008   4.806
45463W        W17723  19.148   3.425  13.542
45464W        W17724  31.277  31.631  12.197
45465W        W17725  26.509  14.716  11.589
45466W        W17726  29.820  25.630  11.110
45467W        W17727  31.002  26.002  14.910
45468W        W17728  38.109  16.166  10.798
45469W        W17729  21.685  30.666  13.924
45470W        W17730  13.127  13.343   0.934
45471W        W17731  18.581  12.331   4.264
45472W        W17732   0.246  30.479  14.321
45473W        W17733  14.512  27.094  12.379
45474W        W17734   0.984  18.143  14.002
45475W        W17735  25.467   8.021  13.982
45476W        W17736  21.532  15.547  14.894
45477W        W17737  43.360   0.291  13.459
45478W        W17738  18.303  40.014  12.492
45479W        W17739  37.979  44.642  10.462
45480W        W17740  39.495  24.725  12.948
45481W        W17741  14.508  39.043   2.669
45482W        W17742  31.438  27.217   0.451
45483W        W17743   4.635  10.093   2.357
45484W        W17744  40.695  17.996   0.857
45485W        W17745   1.304  31.924   3.696
45486W        W17746  33.514   6.727   4.783
45487W        W17747  22.248   1.154  13.507
45488W        W17748  22.614   1.210  13.932
45489W        W17749  20.649   9.644  11.430
45490W        W17750  20.168  13.323  11.606
45491W        W17751  22.316  29.721   2.117
45492W        W17752   5.403  20.728  14.193
45493W        W17753  21.777  34.854  14.941
45494W        W17754  31.043  23.904  13.336
45495W        W17755  36.291  10.242  13.732
45496W        W17756  31.820   8.549  12.405
45497W        W17757  22.723  30.523  12.048
45498W        W17758  10.186  17.240   1.046
45499W        W17759  13.202  27.638  11.100
45500W        W17760  21.096  40.791  13.117
45501W        W17761   0.869  44.791  11.747
45502W        W17762   6.683  34.496  11.428
45503W        W17763   8.767  18.282  10.761
45504W        W17764  26.464  14.446  14.980
45505W        W17765   3.788  15.873  13.074
45506W        W17766  21.616  30.909   3.219
45507W        W17767   7.452  39.887   4.187
45508W        W17768  35.994  20.504   4.093
45509W        W17769  37.393  31.722   4.340
45510W        W17770  38.713  13.340  12.880
45511W        W17771  35.818  15.470  14.909
45512W        W17772  16.742  14.342  13.098
45513W        W17773  39.826  44.953  14.341
45514W        W17774   5.181  16.157   2.723
45515W        W17775   4.759  17.098   0.405
45516W        W17776  13.103  43.838  13.386
45517W        W17777   7.111  23.267  12.044
45518W        W17778  33.343  42.859   0.446
45519W        W17779  44.907  29.265   4.634
45520W        W17780  25.560  38.259  14.051
45521W        W17781  37.276  25.579  12.553
45522W        W17782  31.922   0.026  10.814
45523W        W17783  28.078  37.356   1.908
45524W        W17784  29.891  27.578  14.500
45525W        W17785  35.974  14.177   3.205
45526W        W17786  33.559   2.002   2.674
45527W        W17787  29.697  17.549   2.370
45528W        W17788  40.045   7.721   5.065
45529W        W17789  40.569   0.366  13.975
45530W        W17790   1.056  15.368   3.469
45531W        W17791  16.177  21.188   4.551
45532W        W17792   9.223  39.008   3.101
45533W        W17793  24.108   2.524   3.406
45534W        W17794  32.378   0.954  13.816
45535W        W17795  39.771  33.724   2.515
45536W        W17796  42.272   9.845   4.109
45537W        W17797  38.361  32.603  12.435
45538W        W17798  29.192  31.403  13.328
45539W        W17799  13.956   5.582  12.690
45540W        W17800   2.940  34.501   2.996
45541W        W17801  19.725  16.021   3.148
45542W        W17802  36.597  10.185  12.318
45543W        W17803  40.803  16.353  12.939
45544W        W17804  13.920  44.365  13.459
45545W        W17805  17.326  36.378   4.514
45546W        W17806  10.731   4.437   2.898
45547W        W17807  21.569   2.502  10.659
45548W        W17808  18.146  10.318  13.526
45549W        W17809  21.265  43.523   0.674
45550W        W17810  33.491  37.550  13.118
45551W        W17811   6.538  43.823  13.415
45552W        W17812  21.008  13.217  14.211
45553W        W17813  25.555  17.021   3.636
45554W        W17814  42.791   5.535   4.682
45555W        W17815  13.065  44.057  12.923
45556W        W17816  41.946  18.391   1.216
45557W        W17817  42.280  15.283  10.751
45558W        W17818  28.108  10.425  13.168
45559W        W17819  31.662  39.679  13.964
45560W        W17820  17.872  34.454  13.465
45561W        W17821  44.740  24.538   4.411
45562W        W17822  16.327  29.129  14.279
45563W        W17823   5.860  24.599   3.709
45564W        W17824   8.718  12.880  13.610
45565W        W17825  30.769  44.203   0.463
45566W        W17826  32.162   1.280  14.157
45567W        W17827  44.087  41.109  14.849
45568W        W17828   2.423   9.306   4.990
45569W        W17829   3.934  27.864   0.469
45570W        W17830  44.871  38.948   4.763
45571W        W17831  23.346   6.403   3.406
45572W        W17832   7.806   3.799  14.770
45573W        W17833   8.567  15.376  11.963
45574W        W17834  38.172  42.840   4.166
45575W        W17835   6.861  28.571  12.581
45576W        W17836  27.214  26.645   2.376
45577W        W17837  25.201   6.383   4.137
45578W        W17838   1.479  39.425   1.181
45579W        W17839  21.251  15.332   3.978
45580W        W17840   1.290  42.216  14.259
45581W        W17841   8.812  26.721   3.246
45582W        W17842  43.409  38.380  10.860
45583W        W17843   9.318  19.210  14.445
45584W        W17844   3.792  27.676   1.449
45585W        W17845  14.105  26.416  14.804
45586W        W17846  15.062  27.931   0.525
45587W        W17847  37.466  27.546   1.925
45588W        W17848  26.250   9.964   4.169
45589W        W17849   0.090   0.844   0.275
45590W        W17850  37.946  18.145   4.234
45591W        W17851  25.410  29.105   4.010
45592W        W17852  33.788  20.399   3.798
45593W        W17853  12.291  17.020  10.671
45594W        W17854  36.345  13.593  13.914
45595W        W17855  41.162  13.374  12.809
45596W        W17856   1.254  18.808   5.012
45597W        W17857  40.577  16.770  14.383
45598W        W17858   3.772  21.527   2.385
45599W        W17859   8.134   7.144  11.660
45600W        W17860  25.224   0.956   1.852
45601W        W17861  14.694  23.947  13.407
45602W        W17862  40.661  39.482   4.194
45603W        W17863  19.262  18.530  13.444
45604W        W17864  44.643  27.766   9.945
45605W        W17865  28.456   3.809   4.258
45606W        W17866  19.552  25.027   1.047
45607W        W17867  23.920  27.621  11.289
45608W        W17868   7.856  23.608  14.476
45609W        W17869  43.065  24.692  11.716
45610W        W17870  20.453  16.235   0.472
45611W        W17871  37.766  44.552  11.800
45612W        W17872  42.931   3.320   2.188
45613W        W17873  31.818  17.681   4.270
45614W        W17874  11.913  24.246   2.542
45615W        W17875  13.111   0.692   3.177
45616W        W17876  33.786  41.813   2.750
45617W        W17877  24.641  12.128  12.226
45618W        W17878  25.203  31.197   1.349
45619W        W17879  31.441  11.104   3.729
45620W        W17880  44.304   6.979   4.011
45621W        W17881   3.147   8.742   4.587
45622W        W17882  25.911  29.310   4.043
45623W        W17883  42.316   3.314   0.260
45624W        W17884  15.479  35.601   0.949
45625W        W17885  20.163  15.794   1.418
45626W        W17886  31.172  24.117   1.343
45627W        W17887  24.693  44.311  14.422
45628W        W17888  37.902   5.955  13.797
45629W        W17889  12.415  22.499   3.997
45630W        W17890  21.761  26.028   2.335
45631W        W17891  39.562  43.911  12.685
45632W        W17892  21.028  11.087   4.148
45633W        W17893   7.905  20.906  10.203
45634W        W17894  17.695  14.552  14.799
45635W        W17895  12.420  27.601  13.317
45636W        W17896  26.993  30.979   1.714
45637W        W17897  25.037  12.370  12.022
45638W        W17898  19.079  20.071   4.031
45639W        W17899   1.245  26.526   2.072
45640W        W17900  25.219  38.403   4.006
45641W        W17901  21.804  43.042  10.718
45642W        W17902  25.476  23.572   1.248
45643W        W17903  26.587  18.540  14.254
45644W        W17904  28.063   7.282   5.190
45645W        W17905  11.910  35.282  11.161
45646W        W17906  37.542  12.457   2.157
45647W        W17907  29.926  43.889  14.418
45648W        W17908  15.862  15.968   3.109
45649W        W17909   6.162  11.815   2.389
45650W        W17910  43.630   5.605  14.019
45651W        W17911  35.890  40.153  11.141
45652W        W17912  30.199   9.398   2.688
45653W        W17913  43.537   8.683   3.115
45654W        W17914  36.749  29.192  13.562
45655W        W17915  24.004  39.256  13.760
45656W        W17916   1.158  30.804   5.140
45657W        W17917  38.637  36.042  10.663
45658W        W17918  26.066  19.962  13.498
45659W        W17919  16.071  23.631  11.643
45660W        W17920  19.537  11.945  12.946
45661W        W17921  31.607  36.479  11.450
45662W        W17922  24.637  10.716   4.734
45663W        W17923  11.656   8.804   2.917
45664W        W17924  12.074  11.961  12.002
45665W        W17925   5.354  11.962   4.157
45666W        W17926   7.694  21.987   4.707
45667W        W17927  29.455  16.174   3.572
45668W        W17928   3.647   7.790   2.263
45669W        W17929  32.656  23.696  11.020
45670W        W17930  34.616  28.373   2.350
45671W        W17931  24.640  25.881   1.795
45672W        W17932  35.836  40.236  12.046
45673W        W17933   5.820  27.039  13.874
45674W        W17934  31.489  35.781   4.296
45675W        W17935  44.749  35.595   1.834
45676W        W17936  31.916  25.575  12.917
45677W        W17937   3.270  44.191   2.326
45678W        W17938   9.246  18.079   1.433
45679W        W17939  13.141  43.954  14.252
45680W        W17940  38.582  36.045   4.663
45681W        W17941  30.267  30.964   4.240
45682W        W17942   2.799  22.297   4.218
45683W        W17943  38.045  27.708  14.848
45684W        W17944  43.506  32.847   1.320
45685W        W17945  12.823   0.932   4.147
45686W        W17946   3.689   7.700  14.866
45687W        W17947  42.986   1.675   2.931
45688W        W17948  26.980  35.887  11.860
45689W        W17949  35.133  21.926  11.307
45690W        W17950  34.620  35.752  14.169
45691W        W17951   6.809  38.142   4.929
45692W        W17952   6.351  20.009   2.244
45693W        W17953  34.846   2.827   3.666
45694W        W17954  24.742  21.778   1.016
45695W        W17955  35.965  18.509   2.854
45696W        W17956   8.287  33.005  14.370
45697W        W17957  29.220   2.674  11.446
45698W        W17958  28.768  29.940  12.534
45699W        W17959  34.817  39.788   4.519
45700W        W17960  22.681   4.290  12.416
45701W        W17961  31.071  29.895   2.915
45702W        W17962  10.467  24.847  11.031
45703W        W17963  21.651  12.022  10.191
45704W        W17964  12.879  27.433  14.922
45705W        W17965  19.421  42.965   4.441
45706W        W17966  21.512   6.835   3.979
45707W        W17967  11.085  42.294  11.617
45708W        W17968  31.424  35.533  13.983
45709W        W17969  30.517  41.308  14.868
45710W        W17970   5.303  35.144  11.599
45711W        W17971  11.940  38.065   0.727
45712W        W17972  17.196  24.745   2.814
45713W        W17973   8.286  10.288  11.015
45714W        W17974  33.604  22.000   0.246
45715W        W17975  40.394  22.252  11.065
45716W        W17976   9.942   3.920   1.768
45717W        W17977  42.492  14.426   3.621
45718W        W17978  14.354  14.051  10.198
45719W        W17979  10.894  42.506   4.145
45720W        W17980  29.660  14.151  12.664
45721W        W17981  21.072  44.458   0.225
45722W        W17982  27.692   9.676  10.643
45723W        W17983  14.918  18.608  14.372
45724W        W17984  37.090  15.202  13.483
45725W        W17985   8.893  31.585  12.468
45726W        W17986   9.661  33.832  12.237
45727W        W17987  43.425  29.021  13.710
45728W        W17988   2.945  36.502   4.540
45729W        W17989  13.617  44.381   4.634
45730W        W17990  42.119  16.073   3.166
45731W        W17991  25.809  26.601   3.637
45732W        W17992   0.212  28.197  12.104
45733W        W17993  24.695  16.189  10.377
45734W        W17994  44.456  30.101   4.793
45735W        W17995  26.546  42.286   1.795
45736W        W17996  15.301  41.073   0.852
45737W        W17997  36.517  29.115   1.799
45738W        W17998  35.376   2.700  13.512
45739W        W17999  26.512  32.493  14.815
45740W        W18000  13.878  19.092   4.292
45741W        W18001   7.918  33.573  10.178
45742W        W18002  22.489  30.577  13.899
45743W        W18003  25.406  13.176   4.011
45744W        W18004  23.369  25.364   0.566
45745W        W18005  30.623  16.799   0.996
45746W        W18006  32.420  17.807  14.483
45747W        W18007  37.401   3.448   0.981
45748W        W18008  14.117   2.436  10.717
45749W        W18009  17.581  16.060  13.433
45750W        W18010  32.108   1.415   1.882
45751W        W18011  27.918  31.610  11.457
45752W        W18012  16.324  44.271   3.004
45753W        W18013   0.973  35.782  11.162
45754W        W18014  16.610   8.436   3.643
45755W        W18015  33.540  33.603  10.023
45756W        W18016  40.797  29.901  12.959
45757W        W18017  22.053  13.047  13.033
45758W        W18018  10.432  33.039   9.805
45759W        W18019   1.441  24.826   0.478
45760W        W18020  39.408  18.856   3.149
45761W        W18021  22.106  42.752  12.394
45762W        W18022  12.690  37.511  13.139
45763W        W18023  42.983  31.540  14.377
45764W        W18024   5.790  36.261  12.366
45765W        W18025  41.049   3.130  14.972
45766W        W18026  34.403  22.240   3.662
45767W        W18027  32.992  40.513   3.627
45768W        W18028  34.676  10.321   3.787
45769W        W18029  14.048  20.499   4.245
45770W        W18030   8.583  15.281  12.474
45771W        W18031  39.850   1.754   3.683
45772W        W18032   6.819  18.658   3.454
45773W        W18033   6.195  42.494   2.785
45774W        W18034  42.811  43.772   4.367
45775W        W18035   0.451  19.260   3.652
45776W        W18036  44.755   8.987   4.237
45777W        W18037  36.103   1.754  12.896
45778W        W18038  19.161   1.767   1.270
45779W        W18039  38.090  39.876  11.475
45780W        W18040  32.112  20.677   3.740
45781W        W18041  26.042  21.298   0.495
45782W        W18042   7.421  40.513  11.839
45783W        W18043   3.791  16.491   1.731
45784W        W18044   0.682  18.237  14.865
45785W        W18045  32.139  11.338  11.179
45786W        W18046   5.617  40.569  10.421
45787W        W18047  41.080  40.800   2.372
45788W        W18048  15.645  42.823  14.014
45789W        W18049  20.606  23.957  11.533
45790W        W18050  40.812  41.264  11.192
45791W        W18051  35.750  27.944  11.141
45792W        W18052  16.302  18.292  11.918
45793W        W18053  37.070  27.900  11.702
45794W        W18054  37.853  40.601   0.579
45795W        W18055  14.485  38.365   0.365
45796W        W18056  39.081   5.834  11.144
45797W        W18057  41.034   0.233  14.241
45798W        W18058  21.237   5.271   0.388
45799W        W18059  21.699  21.636   9.774
45800W        W18060  42.834  40.536   3.688
45801W        W18061  18.494  43.931  10.395
45802W        W18062  21.559  11.047  13.024
45803W        W18063  21.279  26.286  10.584
45804W        W18064  25.015  40.460   2.378
45805W        W18065  12.761  41.366  12.450
45806W        W18066   1.753  24.466  10.948
45807W        W18067   0.048  40.981  12.499
45808W        W18068  33.861   9.701   3.706
45809W        W18069  32.728   9.696  12.965
45810W        W18070   4.653  20.057  13.883
45811W        W18071  17.669  39.519   2.925
45812W        W18072  34.200  14.087  14.906
45813W        W18073  35.874  38.142   1.638
45814W        W18074  28.851  16.131   3.579
45815W        W18075   8.360   5.472  13.321
45816W        W18076  26.615  31.320   4.779
45817W        W18077  30.507  34.979   4.341
45818W        W18078  42.868   2.753  12.565
45819W        W18079  20.251  36.879   3.775
45820W        W18080  10.852  13.882  14.468
45821W        W18081  16.523  37.010   0.332
45822W        W18082  26.537  17.803  11.316
45823W        W18083  20.214   9.224  14.872
45824W        W18084  20.353   3.780  12.188
45825W        W18085  23.297  22.021   2.203
45826W        W18086  19.256  11.622   1.032
45827W        W18087  35.043  24.919   3.533
45828W        W18088  40.036   1.446  10.750
45829W        W18089  23.778   9.260   4.755
45830W        W18090  43.248  32.627   0.927
45831W        W18091  13.643  25.190   2.203
45832W        W18092  21.107  42.427   4.597
45833W        W18093  25.641  39.544  13.487
45834W        W18094  10.406  26.705  13.172
45835W        W18095  34.885  29.013  12.385
45836W        W18096   9.739   7.910   3.276
45837W        W18097  16.682  37.027   0.817
45838W        W18098  41.487   7.837  12.022
45839W        W18099  38.888  37.855   1.531
45840W        W18100  27.002  34.269  11.939
45841W        W18101  34.058  24.106   3.639
45842W        W18102  43.458  22.932   3.157
45843W        W18103  33.167  24.613   2.415
45844W        W18104  44.363  40.832   0.702
45845W        W18105  24.558   4.391  12.535
45846W        W18106   4.929  19.265  12.427
45847W        W18107   1.414  34.845  11.091
45848W        W18108  26.904  21.732   4.221
45849W        W18109  23.311  12.803  14.417
45850W        W18110  43.013  17.176  11.682
45851W        W18111  28.622  37.036  12.177
45852W        W18112  38.973  26.892   1.959
45853W        W18113  24.066  16.342  14.915
45854W        W18114  14.756  26.684  11.678
45855W        W18115  38.522  26.024   3.348
45856W        W18116  25.058  38.396  13.986
45857W        W18117  32.554   6.413  14.328
45858W        W18118  44.385  39.638  11.236
45859W        W18119  23.617  26.583   3.177
45860W        W18120  27.704   2.499   3.454
45861W        W18121  17.430  19.001  11.563
45862W        W18122  34.934   0.323   4.511
45863W        W18123  33.411  13.712  12.094
45864W        W18124   8.709   1.486  14.522
45865W        W18125  15.231  21.489  11.046
45866W        W18126   7.258   1.550  11.997
45867W        W18127  12.584  29.691   5.071
45868W        W18128  39.861  11.166   2.432
45869W        W18129  39.838   1.936  13.968
45870W        W18130  19.118  40.557   4.873
45871W        W18131  19.080  34.121  10.473
45872W        W18132   0.967  30.882  14.890
45873W        W18133  43.541   2.210   1.823
45874W        W18134  15.105  35.958  11.353
45875W        W18135  14.458  14.671  11.880
45876W        W18136  32.973   3.035  11.189
45877W        W18137  37.009   0.911   3.078
45878W        W18138  39.761   5.840   1.855
45879W        W18139   0.842  14.720   4.854
45880W        W18140   1.818  31.866   3.745
45881W        W18141  22.235  16.855   2.661
45882W        W18142   6.976  16.919  11.641
45883W        W18143  32.961  30.540   4.850
45884W        W18144  27.092  18.484  11.028
45885W        W18145  14.406  39.420  14.473
45886W        W18146   0.020  30.888   3.559
45887W        W18147  18.982   1.561  10.749
45888W        W18148  11.483   6.903   1.221
45889W        W18149  33.622  27.960  13.986
45890W        W18150  22.324  26.103  13.924
45891W        W18151  36.944   0.573  12.880
45892W        W18152  21.180  30.137  11.661
45893W        W18153  37.639  28.479   3.309
45894W        W18154  39.823   9.822   0.028
45895W        W18155  18.990   4.724  13.111
45896W        W18156  43.186  22.529   2.260
45897W        W18157  34.419  15.217  11.141
45898W        W18158   9.837   0.699   1.992
45899W        W18159  20.799  26.914   5.451
45900W        W18160  39.003  27.956  10.229
45901W        W18161  24.168  41.314   5.042
45902W        W18162  17.305  32.413  14.490
45903W        W18163  15.100   2.002  12.121
45904W        W18164  34.001   3.110   3.383
45905W        W18165  20.950  43.788   1.841
45906W        W18166  17.007  10.300  11.518
45907W        W18167  43.939  29.095   0.482
45908W        W18168  14.944  27.139  13.339
45909W        W18169  28.995  12.948  14.971
45910W        W18170  18.508  30.036  10.784
45911W        W18171   8.164  29.490  12.162
45912W        W18172  20.792  29.616   3.322
45913W        W18173   8.145   8.691   0.862
45914W        W18174  31.275  19.119  12.425
45915W        W18175  37.351  36.011  11.923
45916W        W18176   2.277  41.594  10.034
45917W        W18177   3.070  44.817  12.904
45918W        W18178  17.616  25.198   4.534
45919W        W18179   4.056  42.454   3.805
45920W        W18180  27.679  13.759   1.847
45921W        W18181   0.662  14.669   3.284
45922W        W18182   5.326   7.829   4.023
45923W        W18183  25.502   3.896   4.132
45924W        W18184  22.045  21.556   3.229
45925W        W18185  30.049  28.290  13.292
45926W        W18186  44.683   6.739  10.978
45927W        W18187  26.116   0.330  14.455
45928W        W18188   0.858  20.040   3.307
45929W        W18189   0.412  30.998  13.140
45930W        W18190  17.665  14.943  11.109
45931W        W18191  36.802   3.915  14.815
45932W        W18192   5.958  17.697  14.896
45933W        W18193  39.084   1.531   2.223
45934W        W18194  38.755  40.279   0.320
45935W        W18195   6.297  29.337   3.850
45936W        W18196  44.764  22.071  14.851
45937W        W18197  37.970  33.434   4.609
45938W        W18198   8.327  27.317   2.845
45939W        W18199   0.328  10.682   1.893
45940W        W18200  27.008  32.290   3.219
45941W        W18201  33.024  43.682   2.873
45942W        W18202  15.818  34.091   0.814
45943W        W18203  22.525  22.081  12.132
45944W        W18204  13.809  43.068   3.207
45945W        W18205   1.795  28.470   0.462
45946W        W18206  15.321  11.227   3.430
45947W        W18207   9.719  39.044  10.508
45948W        W18208  42.390   2.653   1.915
45949W        W18209  23.496  32.029   2.746
45950W        W18210  44.682  21.478  14.882
45951W        W18211  43.536  27.204   2.795
45952W        W18212  19.283  17.738  11.985
45953W        W18213   6.144   5.904   2.232
45954W        W18214  10.543  37.449   2.421
45955W        W18215   2.932  36.131  12.504
45956W        W18216  18.916  20.206  11.499
45957W        W18217  33.392  40.921   2.655
45958W        W18218   2.478  27.551  14.855
45959W        W18219   7.652  11.096  14.914
45960W        W18220   0.459  22.200  10.917
45961W        W18221  31.902  17.645  13.848
45962W        W18222  30.902  10.700   3.148
45963W        W18223  17.816   3.830  12.477
45964W        W18224  17.331  20.809   0.741
45965W        W18225  24.655  32.972   4.535
45966W        W18226  29.066  18.669  11.138
45967W        W18227  32.923   8.230  11.004
45968W        W18228  28.864  27.838   0.538
45969W        W18229   0.495  25.318  11.990
45970W        W18230  15.568  28.966  14.765
45971W        W18231  21.928  10.424   1.235
45972W        W18232  41.860  41.534  12.049
45973W        W18233  33.191  30.242  11.729
45974W        W18234  38.964  42.380   3.240
45975W        W18235  34.929  38.463  12.395
45976W        W18236  36.458  42.469   0.062
45977W        W18237   8.655   8.626  11.217
45978W        W18238  25.734  15.324   4.648
45979W        W18239  40.353  35.523   1.968
45980W        W18240  33.619  37.295  14.436
45981W        W18241  32.126  11.777  10.514
45982W        W18242  22.235  32.467   3.266
45983W        W18243  41.406  37.566   2.715
45984W        W18244  10.519   2.782   3.350
45985W        W18245   4.345  18.826   3.927
45986W        W18246  34.496   5.820   2.572
45987W        W18247   2.520  27.982  11.661
45988W        W18248  14.110   2.915   3.266
45989W        W18249   8.806  13.670  12.966
45990W        W18250  40.237  24.491   0.858
45991W        W18251   5.252  33.030  11.442
45992W        W18252  32.890   8.761   2.188
45993W        W18253   9.856  44.101  14.275
45994W        W18254  44.739  16.646  14.066
45995W        W18255  17.389  31.159  14.932
45996W        W18256  31.411  12.800   1.247
45997W        W18257  15.303  37.870   0.779
45998W        W18258  43.996  32.972   1.249
45999W        W18259  14.335  18.351  10.165
46000W        W18260   0.348  35.800  11.466
46001W        W18261   5.792  11.070  14.817
46002W        W18262  13.554   6.902  12.576
46003W        W18263  26.736  27.207  10.686
46004W        W18264  44.402  36.540   1.955
46005W        W18265  30.667  17.593   1.368
46006W        W18266  28.138  23.235  11.104
46007W        W18267  19.044  39.451   2.659
46008W        W18268   2.541  24.645   3.667
46009W        W18269  35.422  41.923  12.013
46010W        W18270  37.646   8.907  12.560
46011W        W18271   3.844   4.249   4.279
46012W        W18272  34.706  25.207   1.702
46013W        W18273  36.356  31.737  14.314
46014W        W18274   3.324  24.591  10.496
46015W        W18275  38.683  25.459  11.622
46016W        W18276  16.629  14.912  12.432
46017W        W18277  40.701  24.744   1.702
46018W        W18278  29.704   7.462  13.442
46019W        W18279  18.715  28.342   4.197
46020W        W18280   7.418  11.389  14.039
46021W        W18281  41.990  21.556  10.572
46022W        W18282  34.002  10.114  12.057
46023W        W18283   4.013  28.944  14.448
46024W        W18284   9.622   0.390  14.955
46025W        W18285  20.044  20.502   3.647
46026W        W18286   2.358  14.242  11.121
46027W        W18287  21.358   0.313  11.240
46028W        W18288  26.303  10.033   0.929
46029W        W18289  17.076  43.743   2.854
46030W        W18290   7.262   3.399   0.207
46031W        W18291   5.575  41.411  14.785
46032W        W18292  13.191  40.333   0.988
46033W        W18293  28.894  32.772   9.893
46034W        W18294  31.851  28.641   0.488
46035W        W18295  19.075   4.271   3.717
46036W        W18296  10.826   6.618   1.877
46037W        W18297  40.817  31.789  14.841
46038W        W18298   2.679   1.513  11.503
46039W        W18299   9.714  29.951  12.171
46040W        W18300  24.665  35.653  10.722
46041W        W18301  29.897  25.118   2.733
46042W        W18302  11.440  43.547   3.669
46043W        W18303  15.085   9.377   3.663
46044W        W18304  11.317  36.579  11.215
46045W        W18305  14.752  11.398   0.316
46046W        W18306  41.018  26.054   2.745
46047W        W18307  23.902  14.668  14.575
46048W        W18308  11.360  30.018  13.861
46049W        W18309   8.266  12.390   3.139
46050W        W18310  12.398   3.757  12.430
46051W        W18311   1.774   9.815   0.679
46052W        W18312  17.973   0.467  12.913
46053W        W18313  37.146  36.250   4.209
46054W        W18314   1.489  15.124  13.272
46055W        W18315  22.167  29.631   4.715
46056W        W18316  10.056  40.922  11.175
46057W        W18317  10.305  33.608  12.493
46058W        W18318   3.885   8.334  12.808
46059W        W18319  41.887  32.402   0.588
46060W        W18320  33.032  34.066   3.826
46061W        W18321   4.745   4.822  10.865
46062W        W18322   0.246  42.894   4.549
46063W        W18323  19.588  28.134  10.954
46064W        W18324  15.360  40.407  10.769
46065W        W18325  12.145   3.860  13.924
46066W        W18326   4.177  39.828  11.201
46067W        W18327  16.499  17.148  11.068
46068W        W18328  18.699  26.991   3.303
46069W        W18329  33.405  15.945  14.211
46070W        W18330  20.986  43.829  10.327
46071W        W18331  41.286  34.079  11.578
46072W        W18332  30.903   2.113  14.619
46073W        W18333  10.789  11.115  10.708
46074W        W18334  28.646  22.742   2.229
46075W        W18335  14.746  20.473   3.708
46076W        W18336  19.312  31.444   2.368
46077W        W18337  32.138  25.709  12.486
46078W        W18338  18.080  39.629   4.267
46079W        W18339  25.089  18.114   0.316
46080W        W18340  15.364  35.905  13.807
46081W        W18341  17.958  12.302  10.681
46082W        W18342  20.807  17.801  14.260
46083W        W18343  32.084   7.888  13.050
46084W        W18344  44.837  26.936  11.996
46085W        W18345  39.360   5.854  10.701
46086W        W18346  17.389  25.573  10.944
46087W        W18347  31.434  14.400   3.450
46088W        W18348   3.601  23.997  14.254
46089W        W18349   4.481  18.103   0.428
46090W        W18350  42.617  19.538   4.210
46091W        W18351   5.041   7.282  12.580
46092W        W18352   7.910  21.528   4.870
46093W        W18353  43.806  17.375   1.729
46094W        W18354  37.566  24.105   2.711
46095W        W18355  35.519   8.782   2.209
46096W        W18356   6.217  44.206  13.309
46097W        W18357  38.588   9.169   4.642
46098W        W18358  12.123  16.262   1.856
46099W        W18359   0.002  43.386   4.457
46100W        W18360  15.679  31.381   3.859
46101W        W18361  13.821   6.512  11.649
46102W        W18362   1.190  44.375   3.775
46103W        W18363  24.201  26.967  10.588
46104W        W18364  40.817   5.749   1.337
46105W        W18365  34.905  23.618   3.815
46106W        W18366  42.574  43.345  12.600
46107W        W18367  43.753  39.978  14.391
46108W        W18368   4.792  44.014  12.685
46109W        W18369   7.157  23.195   0.807
46110W        W18370   2.676  19.461   1.282
46111W        W18371  14.046  20.537  13.634
46112W        W18372  27.987  18.800   3.088
46113W        W18373   1.763   5.370   2.814
46114W        W18374   8.645  44.441   3.385
46115W        W18375  22.991  13.799  12.890
46116W        W18376  20.259  28.081   4.134
46117W        W18377   7.701   9.146   0.029
46118W        W18378  33.363  29.473   0.874
46119W        W18379  38.397  21.929   4.251
46120W        W18380  29.384  42.171  11.191
46121W        W18381  32.358  27.928   4.936
46122W        W18382  31.107  30.960   5.486
46123W        W18383   9.923  37.129  11.395
46124W        W18384   6.404   9.321   0.721
46125W        W18385  32.728   7.416  13.997
46126W        W18386  36.044  24.029   2.766
46127W        W18387  42.753  34.638   4.137
46128W        W18388  13.600   2.998  13.517
46129W        W18389  26.712  19.840  12.996
46130W        W18390  22.770  33.545   2.223
46131W        W18391  10.739  13.320   0.465
46132W        W18392   5.789   4.647   0.469
46133W        W18393  19.003  11.370   4.170
46134W        W18394   1.311  42.002   3.274
46135W        W18395  15.663  11.776   4.518
46136W        W18396   7.112  37.571   0.762
46137W        W18397  25.943  28.188   0.253
46138W        W18398  21.184  39.351  10.666
46139W        W18399  28.010   9.715   1.053
46140W        W18400  29.957  40.502   3.805
46141W        W18401   3.669  20.031   3.618
46142W        W18402  43.392  44.451   0.226
46143W        W18403   7.170  17.163  12.029
46144W        W18404  43.195  30.350  14.534
46145W        W18405   7.234   0.426   4.893
46146W        W18406  36.912  34.988   1.884
46147W        W18407   4.451  13.093  10.429
46148W        W18408  40.596   2.887  13.276
46149W        W18409  42.716  22.561  13.761
46150W        W18410  43.712  30.582   0.239
46151W        W18411  40.610  24.265  12.462
46152W        W18412  25.121  36.961  10.691
46153W        W18413   0.570  15.742   4.185
46154W        W18414  44.901  13.098   4.036
46155W        W18415  36.780  22.737  11.216
46156W        W18416   4.873  31.781  12.143
46157W        W18417  29.240   7.622  11.033
46158W        W18418  14.295  22.185   1.573
46159W        W18419  14.368  15.999  13.799
46160W        W18420  38.098  27.052   3.319
46161W        W18421  38.490  28.471   3.725
46162W        W18422  14.942  13.625  14.322
46163W        W18423  28.138  35.092   0.844
46164W        W18424   8.849  27.555  13.130
46165W        W18425  23.533  17.212  12.884
46166W        W18426   0.932  44.086  11.499
46167W        W18427  36.947  19.324  11.130
46168W        W18428  15.434  27.976   2.299
46169W        W18429  10.892  25.206   2.241
46170W        W18430  15.721  44.964   0.336
46171W        W18431   7.292  28.533  12.325
46172W        W18432   0.492  32.671  10.654
46173W        W18433  23.215   8.851  14.721
46174W        W18434   0.944  24.834   3.614
46175W        W18435  27.588   3.650  13.363
46176W        W18436  20.182   5.764   3.618
46177W        W18437  16.845  21.120  12.456
46178W        W18438  41.753  18.085   2.930
46179W        W18439  42.509  26.189   0.757
46180W        W18440  32.464  21.324  12.592
46181W        W18441  37.137  14.257   4.665
46182W        W18442  26.965  34.643  10.584
46183W        W18443  41.596  18.608  12.486
46184W        W18444   6.424   7.956   4.812
46185W        W18445  43.931  21.825   4.188
46186W        W18446  25.394   7.115  14.275
46187W        W18447  20.587  14.056  14.024
46188W        W18448   5.220  16.352   0.996
46189W        W18449  21.597  36.007   0.294
46190W        W18450  39.376   3.473  10.736
46191W        W18451  20.769  17.030   4.581
46192W        W18452  37.124  19.879   1.876
46193W        W18453  20.876  42.427  12.073
46194W        W18454  10.314  31.838   2.595
46195W        W18455  34.803  10.004   3.374
46196W        W18456  23.610  18.753  13.726
46197W        W18457  18.530  12.450  14.179
46198W        W18458  14.029  19.670  14.278
46199W        W18459  37.554  40.523   3.532
46200W        W18460  41.430   9.815   2.320
46201W        W18461   3.447  21.550  11.403
46202W        W18462  22.196  15.511   0.814
46203W        W18463  12.373  14.338  11.073
46204W        W18464   5.826  33.912   3.697
46205W        W18465   7.285   4.485  12.510
46206W        W18466  17.548   5.660  10.377
46207W        W18467  40.970  21.501   2.967
46208W        W18468  13.801   1.532  14.336
46209W        W18469  12.744  42.298   4.593
46210W        W18470   0.551   8.363  11.976
46211W        W18471  31.022  34.706   0.261
46212W        W18472  12.722  29.939   0.309
46213W        W18473  19.383   1.672  13.993
46214W        W18474  31.926  32.493   4.201
46215W        W18475  41.672   9.202   2.188
46216W        W18476  37.098  22.005  13.003
46217W        W18477  44.922  32.728   4.064
46218W        W18478   5.807   2.793   3.036
46219W        W18479  40.413  15.217  10.448
46220W        W18480  21.481   6.759   4.492
46221W        W18481  13.872  41.076  12.125
46222W        W18482  38.053  31.145   3.734
46223W        W18483  30.999  44.367   3.632
46224W        W18484  14.679   8.286  12.069
46225W        W18485  27.726  28.379   4.166
46226W        W18486  38.409  20.539   4.685
46227W        W18487  27.097  24.143  11.925
46228W        W18488  15.033  17.708  10.469
46229W        W18489  27.980  36.610   0.810
46230W        W18490   8.486   0.807   2.189
46231W        W18491   1.862  34.104   4.113
46232W        W18492   7.019  32.093   2.423
46233W        W18493   6.378  10.593   2.742
46234W        W18494  42.864   5.006   4.576
46235W        W18495   3.778  26.620   1.365
46236W        W18496   1.392   1.995   3.813
46237W        W18497  15.044  32.811   2.308
46238W        W18498  40.480  31.634   1.424
46239W        W18499  15.989   9.690  11.573
46240W        W18500  34.099   6.954   0.183
46241W        W18501  14.664  38.407   4.465
46242W        W18502  31.311  33.183   4.329
46243W        W18503   6.915  39.372   0.101
46244W        W18504   2.674  30.366   1.741
46245W        W18505  22.457  36.589   0.651
46246W        W18506  20.053  34.462   3.700
46247W        W18507  32.099  28.965   4.249
46248W        W18508   5.362  42.888  12.922
46249W        W18509  33.773  44.654   1.371
46250W        W18510   4.002  10.423   1.576
46251W        W18511  27.696  30.948   2.288
46252W        W18512  19.325  10.825  13.403
46253W        W18513  39.461  40.773  13.875
46254W        W18514  36.079   4.201   4.624
46255W        W18515  33.918   1.269  14.786
46256W        W18516  26.998  30.168   1.269
46257W        W18517  21.245  26.077  11.053
46258W        W18518   5.752  11.242  11.536
46259W        W18519  19.203  12.199   0.841
46260W        W18520  30.944  14.404   3.621
46261W        W18521  22.507  17.293  12.662
46262W        W18522  10.093  27.010   3.349
46263W        W18523  14.513   2.063   2.790
46264W        W18524  10.369  39.025   0.914
46265W        W18525  35.534  26.088  11.268
46266W        W18526  11.946  28.372   0.446
46267W        W18527  39.845  22.626   4.322
46268W        W18528  42.276  32.469   1.572
46269W        W18529  24.777  10.878   3.383
46270W        W18530  15.667  38.632   2.021
46271W        W18531  31.788  19.556   3.112
46272W        W18532  32.474   6.876   3.305
46273W        W18533  29.142  22.031  12.554
46274W        W18534  28.356   6.998  14.898
46275W        W18535  34.843  32.468  14.018
46276W        W18536  38.887  26.498  13.044
46277W        W18537  30.104  15.735   2.834
46278W        W18538   5.588  27.083  12.484
46279W        W18539  20.945  37.999   4.561
46280W        W18540  23.647  28.539   4.933
46281W        W18541   6.674  27.253   2.415
46282W        W18542  36.534  21.551  14.144
46283W        W18543   2.799  36.035   1.310
46284W        W18544  37.030   6.466  12.391
46285W        W18545   7.292  37.059  12.462
46286W        W18546   4.732  15.935   2.819
46287W        W18547  40.008   4.822   3.671
46288W        W18548  42.894  28.828   3.645
46289W        W18549   1.066  28.451  14.854
46290W        W18550  43.686  27.672   2.120
46291W        W18551  11.477  15.118  14.499
46292W        W18552  10.233  32.243   9.857
46293W        W18553  37.805  39.912   4.124
46294W        W18554   0.234   5.202  12.518
46295W        W18555  33.618  15.324  11.072
46296W        W18556   7.845  16.522   3.216
46297W        W18557  38.860  28.865   1.830
46298W        W18558  31.600   7.355  14.942
46299W        W18559  23.244  21.198  14.366
46300W        W18560  18.567   1.251  10.679
46301W        W18561  31.489  16.810  11.216
46302W        W18562  38.039  24.179   4.643
46303W        W18563  20.683  35.663  11.117
46304W        W18564  42.009  25.557   0.318
46305W        W18565  13.847  36.057  10.700
46306W        W18566  41.886  21.420   4.145
46307W        W18567   1.139   9.915   3.198
46308W        W18568  25.573  39.655   2.894
46309W        W18569   8.873  11.406   3.788
46310W        W18570  42.536  20.224  10.440
46311W        W18571  38.770  12.326   2.679
46312W        W18572  21.494  12.109  13.427
46313W        W18573  39.033   3.712  11.101
46314W        W18574   9.858  21.048   0.641
46315W        W18575  35.907  11.612  12.894
46316W        W18576  43.004  40.595   2.331
46317W        W18577  39.131  31.088  14.490
46318W        W18578  23.466  13.095   4.527
46319W        W18579  35.811   0.017  13.521
46320W        W18580   5.300  20.935  13.728
46321W        W18581  18.771   3.006  11.145
46322W        W18582  21.201   5.433  13.380
46323W        W18583  10.759  28.312   1.212
46324W        W18584  42.365  24.311   2.319
46325W        W18585   0.900  23.659  12.574
46326W        W18586  23.955   5.436   1.925
46327W        W18587  23.929  22.420   1.407
46328W        W18588  33.081  39.511  13.391
46329W        W18589  24.381   5.144  12.126
46330W        W18590  11.235  15.429  12.581
46331W        W18591  18.179  28.470  14.291
46332W        W18592  29.528  33.682   0.843
46333W        W18593  28.370   9.438   4.533
46334W        W18594   9.136  14.680  12.320
46335W        W18595  11.746  26.372   3.656
46336W        W18596  12.276  28.568   2.281
46337W        W18597  32.907  20.501  12.613
46338W        W18598  31.387  35.404   3.962
46339W        W18599  25.910   7.872   4.866
46340W        W18600  16.833  35.436  12.553
46341W        W18601   5.676  34.610   2.208
46342W        W18602   8.689  41.655  13.016
46343W        W18603  34.681   9.444  14.522
46344W        W18604   0.814  32.345   4.590
46345W        W18605  14.412  30.811   5.770
46346W        W18606  11.796  15.545   4.555
46347W        W18607   4.496  15.074   2.426
46348W        W18608  10.782   9.328   2.275
46349W        W18609  25.939   7.048   2.531
46350W        W18610  41.746  35.112  12.432
46351W        W18611  30.096  40.844  13.921
46352W        W18612  27.259  12.389  13.044
46353W        W18613   9.439  40.401   1.847
46354W        W18614  41.952   0.934  13.925
46355W        W18615  17.885  44.296  12.902
46356W        W18616  16.586  42.650  10.709
46357W        W18617   0.250   1.921   2.420
46358W        W18618  17.805  32.586  13.489
46359W        W18619  10.402   0.430   9.925
46360W        W18620  38.250  30.935   0.502
46361W        W18621  32.606   8.884   3.408
46362W        W18622  36.685  33.597   3.150
46363W        W18623  28.638  19.816   4.102
46364W        W18624  30.163  23.609  14.942
46365W        W18625  22.813  22.299   4.230
46366W        W18626  39.128  14.246   1.849
46367W        W18627  41.442  40.313  11.852
46368W        W18628  13.381   8.822  13.390
46369W        W18629  11.380  18.847  14.066
46370W        W18630   0.812  19.896   0.685
46371W        W18631   0.340   1.490   2.145
46372W        W18632   8.681  40.467  14.991
46373W        W18633  17.012   6.324  12.978
46374W        W18634   7.655  24.895   3.352
46375W        W18635  35.006  22.278  10.920
46376W        W18636   9.085   7.869   3.059
46377W        W18637   3.924  22.968   1.370
46378W        W18638  37.395  29.007  11.395
46379W        W18639  35.347  25.174  14.289
46380W        W18640  26.676  26.001  12.030
46381W        W18641  33.469  20.843   4.735
46382W        W18642   7.909  30.560  13.770
46383W        W18643  17.067  41.933   1.399
46384W        W18644   3.994   7.160   2.315
46385W        W18645  30.527  18.044   2.750
46386W        W18646  43.402  12.078  10.592
46387W        W18647  32.018  23.943   2.220
46388W        W18648  39.833  17.143   0.969
46389W        W18649  16.837  14.244   0.367
46390W        W18650   3.935  41.940  12.901
46391W        W18651  31.713  29.489  11.518
46392W        W18652   6.854  17.169   2.896
46393W        W18653  38.890  20.508  11.559
46394W        W18654  21.191  34.633   1.783
46395W        W18655  10.811   8.489   4.831
46396W        W18656  19.237  34.532  13.602
46397W        W18657  31.675  22.484  11.890
46398W        W18658  20.548  35.414  13.496
46399W        W18659   4.907  37.795   1.237
46400W        W18660   1.123  14.292  14.980
46401W        W18661  11.385  38.900  13.003
46402W        W18662   0.392  34.131  12.812
46403W        W18663  42.682  34.693  10.190
46404W        W18664  27.389  41.011   5.450
46405W        W18665   8.612   4.918  14.013
46406W        W18666   2.495  42.535   1.077
46407W        W18667   4.434  43.210  14.223
46408W        W18668  38.516  28.683   3.185
46409W        W18669  17.697  16.439   4.022
46410W        W18670  24.189  30.220  12.840
46411W        W18671  29.952  30.239  11.564
46412W        W18672  34.467  40.263  10.897
46413W        W18673   6.486  30.488  13.779
46414W        W18674  37.052  15.334   2.795
46415W        W18675  28.641  34.266   1.991
46416W        W18676  13.572  40.128  12.267
46417W        W18677  26.014   6.560  13.658
46418W        W18678   0.670  32.177   5.054
46419W        W18679  14.010  35.914   2.578
46420W        W18680  26.133  40.862  12.397
46421W        W18681  35.018  44.807   0.833
46422W        W18682  28.387  25.563   1.246
46423W        W18683  16.977  42.422   3.982
46424W        W18684   0.290  17.173  12.416
46425W        W18685   5.226  27.561  11.756
46426W        W18686  18.739   0.084  13.614
46427W        W18687  29.376  13.773  10.648
46428W        W18688  44.376  24.993   3.536
46429W        W18689  22.179   2.719   3.267
46430W        W18690   7.350  29.029  11.575
46431W        W18691  13.031   3.293  11.520
46432W        W18692  44.868  11.132  11.446
46433W        W18693   1.145  25.655   2.412
46434W        W18694  35.595  42.237   4.128
46435W        W18695  44.346   4.721  12.546
46436W        W18696  41.294  32.374  13.102
46437W        W18697  10.237  26.986  12.780
46438W        W18698  36.646   8.387   5.503
46439W        W18699  40.282  25.938   3.893
46440W        W18700  39.303  21.331  13.772
46441W        W18701  23.265  19.243   4.366
46442W        W18702  20.831   6.170   4.180
46443W        W18703   3.372  37.835   0.950
46444W        W18704   8.772  42.763  14.900
46445W        W18705  34.663  10.165   5.046
46446W        W18706  18.136  18.174  11.901
46447W        W18707  18.911   5.795  10.980
46448W        W18708  41.069   0.013   2.151
46449W        W18709  24.297   4.811   0.499
46450W        W18710  16.210  16.337   5.000
46451W        W18711  17.137  12.659   4.740
46452W        W18712   3.684  14.222   0.796
46453W        W18713  12.408  24.285   1.669
46454W        W18714   0.276  16.188  14.819
46455W        W18715   1.829   0.786  14.315
46456W        W18716  30.435   7.777  12.345
46457W        W18717  39.446  41.642  14.314
46458W        W18718  29.679  12.693   0.848
46459W        W18719  37.056  17.678  12.941
46460W        W18720  30.866  22.644   3.974
46461W        W18721   3.380  18.855  13.379
46462W        W18722  15.374  28.748   5.085
46463W        W18723  27.454  29.137   2.675
46464W        W18724   2.265  36.073   3.668
46465W        W18725  16.070  33.146  14.355
46466W        W18726  44.303   6.263  13.804
46467W        W18727   7.588  10.764  11.874
46468W        W18728  33.885   6.420   4.583
46469W        W18729  22.652   9.233   1.323
46470W        W18730   0.861  38.970  10.676
46471W        W18731  15.869   5.743  12.110
46472W        W18732  23.132  34.990   1.932
46473W        W18733  40.829  31.391  13.995
46474W        W18734  12.236  21.798   1.810
46475W        W18735   4.513  12.363   1.906
46476W        W18736  11.418  42.340   2.840
46477W        W18737   1.960  28.094   4.908
46478W        W18738  16.572   9.922  11.551
46479W        W18739  12.700  30.255   1.236
46480W        W18740  18.234   9.599  12.872
46481W        W18741  39.831  23.153  13.142
46482W        W18742  36.978  15.749  14.255
46483W        W18743   4.287   5.859  13.931
46484W        W18744   5.638  32.086  13.038
46485W        W18745  21.497  15.786  11.953
46486W        W18746   9.739  28.201  14.743
46487W        W18747  24.676   5.127   0.334
46488W        W18748  17.191  34.411   4.366
46489W        W18749   4.788   8.349   1.927
46490W        W18750  26.235   3.468  10.673
46491W        W18751   9.838  36.825   2.011
46492W        W18752   8.307  21.944   3.638
46493W        W18753  18.274   6.477   3.545
46494W        W18754  22.983  15.805  13.406
46495W        W18755  24.629  21.752  13.684
46496W        W18756  21.830  27.092   3.842
46497W        W18757   6.938  14.281   2.309
46498W        W18758  28.694   2.455  13.553
46499W        W18759   9.866   1.232   1.350
46500W        W18760  37.783  32.149  14.424
46501W        W18761   5.399  24.428  13.371
46502W        W18762  41.554   8.482  14.799
46503W        W18763  33.520  13.109   3.662
46504W        W18764  38.558  37.944   2.663
46505W        W18765   0.710  24.896  13.812
46506W        W18766  36.845  24.639   3.629
46507W        W18767  20.088  31.862   1.990
46508W        W18768   3.642  18.576   0.904
46509W        W18769  36.695  13.115   0.489
46510W        W18770   7.517  40.410  12.686
46511W        W18771  43.098  21.257   0.596
46512W        W18772   5.823  29.927   5.040
46513W        W18773  36.180   7.577  10.762
46514W        W18774  11.827  28.723  13.205
46515W        W18775  24.614  26.305   2.740
46516W        W18776  38.469  26.994   1.813
46517W        W18777   6.259   1.738   4.658
46518W        W18778   2.313  25.290  14.860
46519W        W18779  18.360  18.769   0.704
46520W        W18780  31.648  24.533  11.530
46521W        W18781  42.363  19.759   3.358
46522W        W18782  35.381  13.904  11.471
46523W        W18783   6.352   7.706  11.555
46524W        W18784  19.481   0.421   5.025
46525W        W18785  43.418  12.593   2.743
46526W        W18786  44.784  29.432   9.968
46527W        W18787  28.919  12.181   4.260
46528W        W18788  32.709  37.098  12.031
46529W        W18789  37.565  39.979   3.681
46530W        W18790  39.767   5.253  11.147
46531W        W18791  15.557   7.330  12.846
46532W        W18792   0.225   6.290   2.189
46533W        W18793  43.517  19.034   3.258
46534W        W18794  44.746   5.780  11.213
46535W        W18795  35.332  23.605   0.079
46536W        W18796  31.500   2.575  11.077
46537W        W18797  28.505  29.844   4.525
46538W        W18798  15.372  31.931  13.694
46539W        W18799  22.134   7.241   1.358
46540W        W18800  38.977  16.118   0.093
46541W        W18801  35.910   4.643  11.140
46542W        W18802  28.678  31.912   4.535
46543W        W18803  40.513  17.561   3.773
46544W        W18804   4.911  30.022  14.368
46545W        W18805  20.795  40.999   1.866
46546W        W18806  35.625   8.058  12.917
46547W        W18807  41.474  14.240  14.820
46548W        W18808  23.608  25.536  14.761
46549W        W18809  34.477  42.733   2.220
46550W        W18810  16.709  33.999  13.752
46551W        W18811  25.976   2.753   2.186
46552W        W18812  18.963  30.107  10.510
46553W        W18813   0.986  33.993   0.751
46554W        W18814   2.474  38.449   3.782
46555W        W18815  44.920  42.727  13.061
46556W        W18816  34.687  12.575  12.102
46557W        W18817  22.997  19.987  12.924
46558W        W18818  29.970   7.210   2.240
46559W        W18819  37.262  16.986  13.958
46560W        W18820  27.647   3.982   1.300
46561W        W18821  37.493  35.757  11.475
46562W        W18822  25.241  34.148   0.306
46563W        W18823  16.661  20.571  11.103
46564W        W18824  13.331   5.295   4.809
46565W        W18825   1.261  31.974   2.642
46566W        W18826  34.465  31.655   0.420
46567W        W18827  23.261   8.972   2.819
46568W        W18828  11.176  20.082  13.090
46569W        W18829   6.217  12.203   1.276
46570W        W18830   3.343  20.437  10.591
46571W        W18831  44.322  42.232  13.638
46572W        W18832  20.729  37.540   1.791
46573W        W18833  15.865  44.426   4.712
46574W        W18834  40.440   2.286  12.626
46575W        W18835  18.249  12.335   3.826
46576W        W18836  18.032  37.736  10.670
46577W        W18837  15.230  31.049  13.760
46578W        W18838   1.608  40.343   2.841
46579W        W18839  43.062   0.037  11.517
46580W        W18840  35.139  26.938   2.209
46581W        W18841   5.953  17.689   0.902
46582W        W18842  22.920   9.529  12.010
46583W        W18843  39.952  12.143  12.421
46584W        W18844   3.301  11.590   2.147
46585W        W18845  15.555   9.132  14.780
46586W        W18846  44.560  40.966  12.650
46587W        W18847  23.100  31.393   3.294
46588W        W18848  37.942  25.553  11.967
46589W        W18849  10.596  17.475  14.785
46590W        W18850  35.652   5.884  10.986
46591W        W18851  40.204   7.043  13.718
46592W        W18852  22.498  13.228   3.565
46593W        W18853  15.708  30.045   0.394
46594W        W18854  22.700  41.744  13.835
46595W        W18855  15.789  43.921   3.228
46596W        W18856   9.857  40.713   1.773
46597W        W18857   9.631  35.324   3.279
46598W        W18858   0.877  38.951  11.182
46599W        W18859   5.359  27.636  10.210
46600W        W18860  11.947  36.319   0.510
46601W        W18861  19.620   7.206  10.199
46602W        W18862  42.550  12.100  14.432
46603W        W18863  15.558  18.926   4.122
46604W        W18864  25.701  35.599   0.253
46605W        W18865  37.033  35.478   1.860
46606W        W18866  10.579   0.844  14.269
46607W        W18867  28.972   3.174  13.575
46608W        W18868  34.562  33.382  14.544
46609W        W18869  39.453  33.036  13.927
46610W        W18870  14.901  17.313  13.884
46611W        W18871  11.345  22.695  14.606
46612W        W18872  35.140  13.511  12.478
46613W        W18873  35.039  30.962   0.247
46614W        W18874   3.715  36.050  11.486
46615W        W18875  12.629  24.483   0.435
46616W        W18876  28.511  16.498   3.840
46617W        W18877  13.608   9.679   0.076
46618W        W18878   3.952  30.403   3.243
46619W        W18879  31.368   2.262   2.868
46620W        W18880   9.228  43.523   1.299
46621W        W18881   0.432  30.639   1.488
46622W        W18882  21.083   7.236   0.428
46623W        W18883   2.972  36.538   1.389
46624W        W18884  11.592  38.718   1.853
46625W        W18885  23.377  42.048   2.110
46626W        W18886  12.621  28.360  14.886
46627W        W18887  20.489  37.056   0.905
46628W        W18888  29.512  19.725  12.540
46629W        W18889  34.468  27.865   4.442
46630W        W18890  43.317  20.819  11.168
46631W        W18891  12.439  35.929   1.155
46632W        W18892  14.236   7.294   0.832
46633W        W18893   5.220   6.789  10.756
46634W        W18894  13.126  37.665   0.929
46635W        W18895  15.854  10.129   3.643
46636W        W18896  29.453  29.263  14.773
46637W        W18897  11.282   6.796   4.670
46638W        W18898  30.945  20.692  14.396
46639W        W18899  10.358  23.090   1.974
46640W        W18900  21.739  34.898   0.830
46641W        W18901   2.812  26.084   4.085
46642W        W18902  40.453  44.339  11.628
46643W        W18903  42.454   6.918  13.964
46644W        W18904  42.827  43.053   3.832
46645W        W18905   6.231   7.659   1.468
46646W        W18906  14.650  11.860   2.902
46647W        W18907  23.487  20.653  14.531
46648W        W18908   3.430  30.184  12.615
46649W        W18909  18.535  14.362   3.132
46650W        W18910  33.560  31.700   0.344
46651W        W18911  33.605  35.134  11.157
46652W        W18912  21.527  42.050   0.525
46653W        W18913  39.562  42.766  10.668
46654W        W18914  27.021  27.944   2.829
46655W        W18915   3.355  12.252   0.925
46656W        W18916  23.737   8.912  14.769
46657W        W18917  36.767  35.848  11.095
46658W        W18918  37.116  12.344  13.830
46659W        W18919  12.358  34.079  12.344
46660W        W18920  14.662  41.838  14.314
46661W        W18921  27.491  39.479  11.616
46662W        W18922  36.637  26.593   0.294
46663W        W18923  24.788   6.733   4.046
46664W        W18924  40.331  24.712  12.442
46665W        W18925  27.393  13.412   0.479
46666W        W18926   3.471  37.127   1.965
46667W        W18927  33.467  30.673   4.726
46668W        W18928  17.570  41.276  10.336
46669W        W18929  35.315  11.583  13.500
46670W        W18930  36.593  38.494   3.182
46671W        W18931   2.569   9.791  10.805
46672W        W18932  25.567  12.724  14.751
46673W        W18933  44.735  34.428   0.862
46674W        W18934  14.895   0.424   4.501
46675W        W18935  22.090  18.627  10.340
46676W        W18936   1.198  31.826   1.350
46677W        W18937  43.243  37.461   2.823
46678W        W18938  15.593  34.195   4.620
46679W        W18939  30.649  11.599   2.741
46680W        W18940  14.734  31.949  14.381
46681W        W18941  34.409  17.864   4.712
46682W        W18942  20.429  22.806  13.546
46683W        W18943   9.605   8.624  11.974
46684W        W18944   1.913   1.765   0.906
46685W        W18945  16.359  25.819  11.958
46686W        W18946  14.072   2.543   4.487
46687W        W18947  24.543   3.756  10.717
46688W        W18948  32.180  12.309  13.485
46689W        W18949  36.958  39.927   4.650
46690W        W18950  24.715   5.588  12.077
46691W        W18951  43.699  11.668   0.821
46692W        W18952  38.648  23.502   4.057
46693W        W18953  15.431  27.884  11.946
46694W        W18954  38.486  24.403  11.763
46695W        W18955  30.818  35.918   2.843
46696W        W18956  23.699   2.133  12.000
46697W        W18957  20.926  37.540   3.763
46698W        W18958  38.981   2.822   0.868
46699W        W18959  33.790  20.275  11.095
46700W        W18960  33.376  26.110  13.250
46701W        W18961  25.854  21.979   4.535
46702W        W18962   3.806  32.476  13.426
46703W        W18963  26.039  10.109   4.614
46704W        W18964  39.061  37.200  11.684
46705W        W18965   8.692  13.145   3.191
46706W        W18966  44.446  38.402  12.885
46707W        W18967  28.548  18.367  11.078
46708W        W18968  32.671  17.377  13.538
46709W        W18969  14.264  15.205   1.545
46710W        W18970  28.933  41.397  14.428
46711W        W18971  23.948  38.948  13.025
46712W        W18972  13.370  29.200  10.292
46713W        W18973  23.781  34.007  12.027
46714W        W18974  11.761  39.210   1.877
46715W        W18975   0.427  31.903   3.236
46716W        W18976   3.034  33.987   0.504
46717W        W18977  38.783  44.471   1.117
46718W        W18978  28.036  11.943  12.983
46719W        W18979  21.312  12.371  12.997
46720W        W18980  22.556   0.440   0.269
46721W        W18981   5.838  27.642   2.652
46722W        W18982  19.677  35.508  12.192
46723W        W18983   6.710   6.328   1.831
46724W        W18984  17.666   5.836   3.652
46725W        W18985   6.726  38.994   1.453
46726W        W18986  28.931  20.998  13.439
46727W        W18987   6.769  37.600  11.908
46728W        W18988  16.854  19.936  14.953
46729W        W18989  28.001   5.041   3.394
46730W        W18990  39.758  39.649  14.612
46731W        W18991   6.142  27.961   0.246
46732W        W18992  23.653  22.089   0.186
46733W        W18993   7.791  31.847  14.289
46734W        W18994  10.073  42.814   1.461
46735W        W18995   5.231  23.045   1.722
46736W        W18996  34.531  15.589   0.313
46737W        W18997  26.270  32.960  10.736
46738W        W18998  35.194  28.097   1.693
46739W        W18999  13.043  37.828  12.385
46740W        W19000  14.682  11.663  11.916
46741W        W19001  31.872  23.034   1.327
46742W        W19002  36.521  25.225  11.187
46743W        W19003   8.378  40.918  14.317
46744W        W19004   0.103  14.341  14.744
46745W        W19005   5.196  34.237   0.911
46746W        W19006  15.680  41.497   3.675
46747W        W19007  29.732  31.048   4.283
46748W        W19008  25.174   4.978   0.448
46749W        W19009  21.249  42.766  13.960
46750W        W19010   6.149   8.468   1.963
46751W        W19011  25.096   9.841   3.152
46752W        W19012  20.309  40.107  13.439
46753W        W19013  16.516  35.963  10.946
46754W        W19014  30.396  18.787  11.932
46755W        W19015  20.915   9.893  12.594
46756W        W19016  39.898  40.305  11.002
46757W        W19017  32.363  31.962   1.657
46758W        W19018  33.856  16.349  10.641
46759W        W19019  29.619  39.037   5.139
46760W        W19020  32.319  18.793  13.078
46761W        W19021   2.486   8.519  11.153
46762W        W19022   5.096  14.800   0.763
46763W        W19023  42.342  30.344   2.704
46764W        W19024  22.944   1.821  12.480
46765W        W19025  34.631  28.362  13.446
46766W        W19026  41.461  21.760   0.077
46767W        W19027  14.355  34.910   0.458
46768W        W19028   6.102  16.386   0.895
46769W        W19029  29.431  30.631   1.757
46770W        W19030  32.098  32.763  14.310
46771W        W19031  38.329  36.842   1.177
46772W        W19032  12.281  39.048   0.376
46773W        W19033   1.651  40.296  13.363
46774W        W19034  26.411  30.014  12.907
46775W        W19035   3.797  32.332  13.971
46776W        W19036   7.473  30.509   2.931
46777W        W19037  41.226   2.775   2.799
46778W        W19038   1.861  32.117   0.961
46779W        W19039  34.062   4.818   0.347
46780W        W19040  39.446  15.585   1.313
46781W        W19041  21.911  19.556  12.082
46782W        W19042  23.728  21.046  14.279
46783W        W19043   1.693  27.537  14.355
46784W        W19044   5.866  12.752   4.455
46785W        W19045  32.659  13.147   3.652
46786W        W19046  36.847  12.594  11.454
46787W        W19047   5.673  19.129  14.777
46788W        W19048  21.985   6.346  10.739
46789W        W19049  24.817  12.282   2.054
46790W        W19050  11.599   7.130   0.742
46791W        W19051  38.365  10.639   0.535
46792W        W19052  30.150  25.410   1.821
46793W        W19053  26.011  22.341   0.328
46794W        W19054  13.580  23.326  12.347
46795W        W19055  38.912   1.941  12.627
46796W        W19056  43.346  27.552  12.655
46797W        W19057   1.772  38.941  12.093
46798W        W19058  40.848  35.316   3.730
46799W        W19059  12.628  35.165  13.557
46800W        W19060   1.972   1.690  14.356
46801W        W19061  39.468  16.400  12.088
46802W        W19062  32.482  28.498  14.396
46803W        W19063   6.796  44.313  13.394
46804W        W19064  17.043  21.117  14.858
46805W        W19065   3.507  13.795   3.826
46806W        W19066  38.520  25.670  11.131
46807W        W19067  27.570  13.180  10.701
46808W        W19068  36.478  22.146   4.348
46809W        W19069  34.021  34.862   4.077
46810W        W19070  16.533  27.696   1.527
46811W        W19071  18.626  21.205  11.464
46812W        W19072   6.881   9.576  13.626
46813W        W19073   4.272   0.452  14.929
46814W        W19074   0.339  23.542  10.501
46815W        W19075  38.537  26.298   0.955
46816W        W19076  40.181  19.227   1.681
46817W        W19077  22.324  35.317   2.390
46818W        W19078  29.635  39.583  14.933
46819W        W19079  23.784  32.913  13.087
46820W        W19080   3.668  29.447  13.894
46821W        W19081   7.269  18.327  14.927
46822W        W19082   5.621  41.540   1.414
46823W        W19083  37.837  19.035  13.165
46824W        W19084  41.843  10.785  13.553
46825W        W19085   0.487   1.095  12.930
46826W        W19086  37.000   3.655   2.145
46827W        W19087  14.665  27.151  10.884
46828W        W19088  36.398  14.660   4.693
46829W        W19089   1.288  12.917  12.563
46830W        W19090  15.635  15.879  11.167
46831W        W19091  38.551  38.399   4.588
46832W        W19092  36.437   4.865  11.937
46833W        W19093  26.671  13.198   3.607
46834W        W19094  12.849   8.922  13.446
46835W        W19095  31.401   3.747  13.068
46836W        W19096  13.308  27.944   1.353
46837W        W19097   6.610   1.760  14.897
46838W        W19098   8.881  39.602  10.803
46839W        W19099  25.553   6.500  13.909
46840W        W19100  39.062   1.880   0.808
46841W        W19101  36.500  24.697   1.853
46842W        W19102   3.804  41.891  11.621
46843W        W19103  36.842   6.143  12.036
46844W        W19104  23.597   2.212  12.848
46845W        W19105  12.340  15.767   4.728
46846W        W19106  19.655  38.013   4.197
46847W        W19107  35.393  35.163   1.208
46848W        W19108  35.569   4.215   4.553
46849W        W19109  41.408   1.871   1.743
46850W        W19110  22.915  28.554   9.849
46851W        W19111  13.762  18.307   4.656
46852W        W19112   3.069  44.488   5.048
46853W        W19113  25.463  23.889  14.724
46854W        W19114   8.627  15.417   4.101
46855W        W19115  10.095  35.939   0.366
46856W        W19116  20.540  11.578   2.768
46857W        W19117  44.812  13.876  14.404
46858W        W19118  28.108  10.135  12.153
46859W        W19119  31.202  22.701   0.142
46860W        W19120  41.946  22.701   3.720
46861W        W19121  41.711  35.520   3.744
46862W        W19122  32.117  32.134   3.190
46863W        W19123  25.030   9.583  12.512
46864W        W19124   1.742  17.098  11.905
46865W        W19125   4.672  14.317  13.494
46866W        W19126  40.765  11.454  11.205
46867W        W19127  37.099  34.510  10.704
46868W        W19128  22.549  14.897  11.875
46869W        W19129  41.786  22.502   0.405
46870W        W19130  15.770  30.317  12.859
46871W        W19131   7.399  38.661   2.788
46872W        W19132  30.056  26.147   0.935
46873W        W19133  24.553  13.046  14.013
46874W        W19134  26.927  37.269  13.383
46875W        W19135   1.037  30.070  14.481
46876W        W19136   0.081  29.815   1.388
46877W        W19137   3.935   2.323  11.153
46878W        W19138  38.913   4.793   1.480
46879W        W19139  14.445  23.519   2.403
46880W        W19140  31.996   9.919   1.659
46881W        W19141  35.599  24.109  11.941
46882W        W19142  36.965  19.535  13.349
46883W        W19143   0.740  42.312   4.097
46884W        W19144  22.086  11.220  13.454
46885W        W19145  27.309   4.923   2.166
46886W        W19146   7.208   3.024  14.835
46887W        W19147  10.354  42.937   2.460
46888W        W19148  10.172  29.174   2.084
46889W        W19149  23.907  39.768   2.720
46890W        W19150  24.743  18.040  14.373
46891W        W19151   3.682  37.464   2.760
46892W        W19152  11.486  28.847  11.829
46893W        W19153   7.222   6.733   2.134
46894W        W19154  15.832   2.835   3.606
46895W        W19155  18.174  12.749  14.533
46896W        W19156   3.118  33.526   0.757
46897W        W19157  35.378  23.584  13.161
46898W        W19158  39.406   5.497  13.005
46899W        W19159  13.559  30.251  11.575
46900W        W19160  18.424  27.357   1.202
46901W        W19161  42.493  16.657   3.044
46902W        W19162  17.661   4.914  14.026
46903W        W19163  33.005  14.614   1.435
46904W        W19164  22.043  42.858   4.368
46905W        W19165  16.600  28.448   4.518
46906W        W19166  40.322  40.211  12.091
46907W        W19167   5.424  44.791   2.205
46908W        W19168  27.124  30.086   0.234
46909W        W19169   8.063  24.461  12.920
46910W        W19170  23.563  18.570  14.227
46911W        W19171  21.586  33.584   4.580
46912W        W19172  27.894  17.239  13.563
46913W        W19173   5.298   8.192  13.569
46914W        W19174  33.309   4.742  11.737
46915W        W19175  29.019   9.349   1.421
46916W        W19176  23.118  32.663   1.788
46917W        W19177  22.564  24.056  11.418
46918W        W19178   2.906  16.652   4.444
46919W        W19179   1.299  24.088  11.664
46920W        W19180  17.705  18.146   2.738
46921W        W19181  31.619   3.554  10.765
46922W        W19182  26.606  32.119  12.956
46923W        W19183  24.674  40.258  10.445
46924W        W19184  20.139   1.469   2.802
46925W        W19185  31.166   2.924  11.218
46926W        W19186  13.662  44.793   2.851
46927W        W19187  17.559  22.934   1.254
46928W        W19188  24.128  40.703  14.387
46929W        W19189  42.737  38.377  14.008
46930W        W19190   0.917  19.729   2.461
46931W        W19191   1.292  18.997  14.504
46932W        W19192  32.913  29.640   1.075
46933W        W19193  22.041  30.713   2.812
46934W        W19194  34.084  16.724   1.273
46935W        W19195  35.010  44.308   3.154
46936W        W19196  40.205  22.775   1.387
46937W        W19197  15.333   7.749   3.161
46938W        W19198  44.396   4.290   1.289
46939W        W19199   6.039  35.328   3.572
46940W        W19200   1.227  36.429  13.595
46941W        W19201  29.849  23.580  13.736
46942W        W19202  13.427  27.309   9.849
46943W        W19203  23.062  15.222   3.680
46944W        W19204   2.925  16.671  12.068
46945W        W19205  19.067  24.569  14.080
46946W        W19206  20.351  15.368   0.472
46947W        W19207   6.630   2.682   4.635
46948W        W19208  10.379  15.361   0.324
46949W        W19209  10.841  15.323   0.096
46950W        W19210   3.627   0.023  11.677
46951W        W19211  25.097   6.418   1.722
46952W        W19212  11.892   0.975  11.590
46953W        W19213  33.856  15.928   4.192
46954W        W19214  16.745   1.817  11.413
46955W        W19215   5.232  36.656  12.133
46956W        W19216   2.524   8.674  12.553
46957W        W19217  12.067  31.066   0.426
46958W        W19218  35.692  38.456   0.841
46959W        W19219  21.696  23.986  13.912
46960W        W19220   4.936   2.556  11.068
46961W        W19221   4.235  32.909   0.956
46962W        W19222  42.940   7.518  11.372
46963W        W19223   1.516  20.775  10.849
46964W        W19224   1.000  20.595  13.722
46965W        W19225  23.931  23.671  10.740
46966W        W19226  16.243  18.007   0.479
46967W        W19227  40.451   3.857   1.174
46968W        W19228  36.672  19.555   0.224
46969W        W19229  28.322  34.610  14.349
46970W        W19230  21.576  35.676   1.170
46971W        W19231  15.004  26.112   1.707
46972W        W19232  36.292  22.226  13.313
46973W        W19233  36.356  30.011  11.672
46974W        W19234  37.590  31.219   0.944
46975W        W19235  28.708  16.102   4.079
46976W        W19236  14.441   0.426  11.607
46977W        W19237   7.655  37.979   0.247
46978W        W19238  19.909   1.717  14.051
46979W        W19239  12.161  41.728   2.371
46980W        W19240  38.845  40.401   3.766
46981W        W19241  21.725  23.003  12.646
46982W        W19242  20.070   9.737  14.936
46983W        W19243  21.944  26.539  12.309
46984W        W19244  26.320   8.858   3.722
46985W        W19245   0.724   6.331   2.346
46986W        W19246  40.564  14.284   2.600
46987W        W19247  34.153   3.061  14.854
46988W        W19248  41.373   7.931   1.231
46989W        W19249   6.198   1.275  10.846
46990W        W19250  19.548  43.536  13.549
46991W        W19251  18.095  30.196  14.999
46992W        W19252  40.487  44.309   4.145
46993W        W19253  41.128  37.314  11.082
46994W        W19254   0.008   0.457   4.523
46995W        W19255  41.379  19.774  10.836
46996W        W19256  26.462  19.158  10.866
46997W        W19257  22.630  23.918  13.355
46998W        W19258  35.019  21.640  10.003
46999W        W19259  28.001  36.274  11.028
47000W        W19260  14.184  21.780  10.512
47001W        W19261  19.909  24.861   2.922
47002W        W19262  11.834  23.260   1.853
47003W        W19263  32.537  23.582  14.771
47004W        W19264  10.273  30.603   0.617
47005W        W19265  28.219   9.869  13.233
47006W        W19266  17.734  40.827   3.137
47007W        W19267  19.953  19.721   3.166
47008W        W19268   4.237  14.686   2.630
47009W        W19269   6.845  23.342   0.345
47010W        W19270  44.996  44.973   4.255
47011W        W19271   5.269  28.387  10.709
47012W        W19272  17.799   9.321  14.466
47013W        W19273  28.064  41.286  14.349
47014W        W19274  13.022   9.209   1.952
47015W        W19275   5.689  27.770   0.405
47016W        W19276   8.083   2.885   3.795
47017W        W19277   6.770  17.642  10.977
47018W        W19278  20.382   1.205  12.554
47019W        W19279  25.785   5.710  13.410
47020W        W19280  43.702  44.697  10.876
47021W        W19281   6.422  38.782   2.390
47022W        W19282  18.442  39.969   0.190
47023W        W19283  26.709  35.353   0.447
47024W        W19284  36.300  28.953  13.763
47025W        W19285  33.543  29.508  11.236
47026W        W19286  16.854  16.346  10.698
47027W        W19287  25.199  35.865  14.639
47028W        W19288  32.417   0.041   2.742
47029W        W19289   3.878   1.411   4.617
47030W        W19290  25.682  36.071  14.551
47031W        W19291  22.054  30.149   2.319
47032W        W19292  38.485  16.097  14.288
47033W        W19293   4.425   1.950  11.416
47034W        W19294  17.309   6.567   1.628
47035W        W19295  31.520  22.974  14.066
47036W        W19296   2.778  32.745   2.781
47037W        W19297  37.585  23.666  14.515
47038W        W19298  25.666  16.637  11.644
47039W        W19299  44.696   8.072   3.277
47040W        W19300  19.777   5.759   9.932
47041W        W19301   4.607  22.409  10.523
47042W        W19302   0.943  34.086   4.633
47043W        W19303  32.476   5.235  11.413
47044W        W19304  13.629  27.765  11.895
47045W        W19305  14.140  14.719  10.661
47046W        W19306  43.589   6.909  11.532
47047W        W19307  37.121   0.274  11.628
47048W        W19308  37.610  14.262   1.764
47049W        W19309  40.318   5.022  10.636
47050W        W19310   5.009   6.910  13.924
47051W        W19311   6.387  31.190  12.447
47052W        W19312   3.039  37.477   1.186
47053W        W19313  25.273  37.421  11.407
47054W        W19314  17.525  18.189  11.048
47055W        W19315   5.812  41.499  13.826
47056W        W19316  20.491  40.715  10.521
47057W        W19317  24.594  34.640   2.590
47058W        W19318   7.398  23.775  12.866
47059W        W19319  13.535  25.068   1.314
47060W        W19320  22.724  10.848   0.602
47061W        W19321   7.825  30.525  10.971
47062W        W19322  12.824  15.009   1.754
47063W        W19323  18.687  19.452  12.076
47064W        W19324   5.697   3.970   4.122
47065W        W19325   2.169   3.400   3.188
47066W        W19326  43.878  34.842  13.252
47067W        W19327  28.749  33.555   3.302
47068W        W19328  29.871  44.151  12.469
47069W        W19329   7.862   9.692   3.499
47070W        W19330   8.949  20.250   0.218
47071W        W19331  25.269  28.605  14.688
47072W        W19332  14.160  34.030   3.729
47073W        W19333  11.843  22.720  11.955
47074W        W19334  16.276   0.680  12.418
47075W        W19335  36.575   8.691   1.817
47076W        W19336  15.636  36.650  12.587
47077W        W19337  22.297  33.298   3.221
47078W        W19338  18.100  18.062  13.294
47079W        W19339   2.858  20.654   1.726
47080W        W19340  18.569  10.671   1.817
47081W        W19341   8.445  19.403  11.148
47082W        W19342  15.303  30.082  11.033
47083W        W19343  30.852  28.534  11.175
47084W        W19344  35.137  17.906   4.094
47085W        W19345  19.821  32.936  13.624
47086W        W19346  27.591  19.879  12.579
47087W        W19347  33.817  12.295  12.030
47088W        W19348  39.429  34.200   1.421
47089W        W19349  12.254  10.907   3.724
47090W        W19350   9.379  14.244  10.570
47091W        W19351  19.384  40.788  14.372
47092W        W19352   2.310  43.064  10.811
47093W        W19353  10.206   3.362   0.764
47094W        W19354  13.280  10.679   1.818
47095W        W19355  27.037   1.393   2.327
47096W        W19356   9.843  13.188  14.384
47097W        W19357  42.391   3.949  11.180
47098W        W19358   3.408  23.281  14.860
47099W        W19359  10.439  38.861  11.060
47100W        W19360   8.247  28.470  11.030
47101W        W19361  15.024   4.940  14.036
47102W        W19362   7.447  21.294   1.903
47103W        W19363  30.199  33.418  10.695
47104W        W19364  21.883  28.884  11.804
47105W        W19365  26.422  24.023  12.898
47106W        W19366  24.973  39.459  13.909
47107W        W19367  21.221  40.308  10.619
47108W        W19368  40.026  12.136  13.302
47109W        W19369  21.682  13.128   4.654
47110W        W19370  26.655  37.237   0.457
47111W        W19371  33.434  27.087   4.862
47112W        W19372  23.251   8.413   3.924
47113W        W19373  44.787  17.350  13.538
47114W        W19374  27.994  30.199  12.806
47115W        W19375  20.192  24.607   3.392
47116W        W19376  42.722   4.462   1.118
47117W        W19377  36.842  15.281  12.961
47118W        W19378  18.250   5.612   9.804
47119W        W19379  28.186  32.674   0.282
47120W        W19380  23.240  16.124  14.192
47121W        W19381  14.593  43.950   1.277
47122W        W19382   9.946  41.147  12.490
47123W        W19383  17.925   8.323   3.756
47124W        W19384  41.761  24.962  11.161
47125W        W19385  24.169  39.977  11.058
47126W        W19386  43.900  35.467   1.054
47127W        W19387   7.954  16.763   2.245
47128W        W19388  14.311  23.575  13.403
47129W        W19389  30.705  30.963  14.305
47130W        W19390  30.031  17.320   3.095
47131W        W19391  37.862  30.102   4.574
47132W        W19392  42.961  21.410   1.406
47133W        W19393  33.909  37.272  11.575
47134W        W19394  18.109   2.729   4.588
47135W        W19395  26.135  36.465   3.741
47136W        W19396   6.696  38.550  13.561
47137W        W19397   0.040  22.144   3.282
47138W        W19398  31.855  31.090  11.980
47139W        W19399   6.430  17.041  10.949
47140W        W19400  33.716   4.120   0.820
47141W        W19401  44.684  33.137   3.135
47142W        W19402  41.316  38.774  11.988
47143W        W19403   7.216  19.635  13.401
47144W        W19404  19.405  24.101  12.031
47145W        W19405  33.640  44.558  11.610
47146W        W19406  20.188  38.230  12.478
47147W        W19407  12.883   9.697   2.024
47148W        W19408  35.659  42.976  13.879
47149W        W19409  40.284   9.095   4.551
47150W        W19410   1.931   6.745  10.723
47151W        W19411  44.288   1.457  10.905
47152W        W19412  12.697  43.250   1.300
47153W        W19413  43.524  42.993  13.043
47154W        W19414  33.374  42.930  10.760
47155W        W19415   0.745  38.708  13.611
47156W        W19416  19.722  17.161   3.640
47157W        W19417  42.456  16.170  11.848
47158W        W19418  23.676  25.151   3.380
47159W        W19419  41.777  22.269  12.358
47160W        W19420   8.269   4.286   4.544
47161W        W19421   7.908   8.907  14.125
47162W        W19422  22.490  19.202  14.239
47163W        W19423   6.416  24.237   4.190
47164W        W19424   4.231  22.229   2.273
47165W        W19425  10.806  42.978   4.342
47166W        W19426  43.475  39.345   3.851
47167W        W19427  44.091   1.918  11.124
47168W        W19428  19.107  18.157  14.508
47169W        W19429   4.940  42.144   2.736
47170W        W19430   4.557  24.694  14.176
47171W        W19431   7.795  20.770   1.806
47172W        W19432  40.436  16.260  12.002
47173W        W19433  41.484  40.116   4.722
47174W        W19434  35.747  15.130  13.644
47175W        W19435  38.448  35.050   1.025
47176W        W19436  12.543  30.696  13.927
47177W        W19437  34.531  18.618   4.197
47178W        W19438  21.583  43.246  11.164
47179W        W19439   2.807   4.899   3.596
47180W        W19440  32.166  17.091  12.380
47181W        W19441   5.433  37.998   2.845
47182W        W19442  29.873  31.372  13.304
47183W        W19443  43.435   6.720   0.767
47184W        W19444   5.976  10.208   0.494
47185W        W19445  20.801   0.936   1.335
47186W        W19446  39.327  15.649   4.561
47187W        W19447  21.225  16.309  11.101
47188W        W19448  40.040   2.954  12.042
47189W        W19449  39.908  25.008  13.065
47190W        W19450  27.504  19.426   4.667
47191W        W19451  37.555  42.370   3.344
47192W        W19452  22.192  21.173  10.136
47193W        W19453   7.233  35.073  13.866
47194W        W19454  28.542  22.768  12.464
47195W        W19455  38.753   7.934  12.593
47196W        W19456  35.026  21.511  10.496
47197W        W19457  44.681  36.175  14.360
47198W        W19458  32.625  41.336  11.242
47199W        W19459   6.919  27.979  13.420
47200W        W19460  16.258  17.514   0.629
47201W        W19461   0.380  33.544  10.950
47202W        W19462  23.948  21.083   0.197
47203W        W19463  43.085  24.094   2.794
47204W        W19464  29.639  43.996  10.719
47205W        W19465  39.078  22.074  13.311
47206W        W19466  36.001  26.604   4.878
47207W        W19467  42.373  12.065  13.126
47208W        W19468  15.032  17.013  11.125
47209W        W19469  11.240   0.073   0.452
47210W        W19470  19.214  39.544  12.950
47211W        W19471  38.035  17.148   4.158
47212W        W19472   2.243  22.643  14.940
47213W        W19473  12.823  23.681  14.218
47214W        W19474  19.653  33.704   4.043
47215W        W19475  20.282  41.331   4.324
47216W        W19476  39.463   2.699   3.802
47217W        W19477  35.133  33.680   4.168
47218W        W19478  42.987  43.427   3.398
47219W        W19479  21.778   4.713   3.163
47220W        W19480  10.029  27.531   4.674
47221W        W19481  16.433  43.364   2.872
47222W        W19482  21.678  43.027   1.687
47223W        W19483   7.904  13.675   2.250
47224W        W19484  18.478   3.290  14.992
47225W        W19485  38.996  36.129   4.211
47226W        W19486   2.111  33.485   3.299
47227W        W19487  16.035  40.883   0.325
47228W        W19488  15.553  41.240  12.430
47229W        W19489  27.318  18.200  11.860
47230W        W19490  42.019   2.418  11.416
47231W        W19491   7.978  22.199  10.963
47232W        W19492   9.132  29.182  11.946
47233W        W19493  27.972   6.608  14.771
47234W        W19494   0.258  18.298   2.954
47235W        W19495   1.191  37.496  10.506
47236W        W19496  34.098  11.368  10.991
47237W        W19497  34.050  26.476  13.544
47238W        W19498  20.536  29.027  10.687
47239W        W19499   6.089   3.861  14.569
47240W        W19500  17.570   4.695  12.907
47241W        W19501  10.854  15.450   2.943
47242W        W19502   7.923  14.929   3.770
47243W        W19503  35.196  18.602   9.929
47244W        W19504  24.893  30.989   0.964
47245W        W19505  25.031  43.010   1.282
47246W        W19506   4.700  35.859   2.614
47247W        W19507   0.806  22.388   3.719
47248W        W19508  35.355  14.700   2.931
47249W        W19509  13.351  30.930   1.419
47250W        W19510  18.110  37.900  14.368
47251W        W19511   6.514  37.531   3.067
47252W        W19512  26.198  17.085  12.912
47253W        W19513  30.405   3.309  12.630
47254W        W19514  29.155   0.123  14.032
47255W        W19515  31.569  23.455  13.811
47256W        W19516   7.369  39.571  14.355
47257W        W19517  31.530  19.201   4.362
47258W        W19518  26.712  16.481  12.021
47259W        W19519  16.612  40.925  11.417
47260W        W19520  23.030  26.224   3.714
47261W        W19521  22.655   5.871   3.256
47262W        W19522   3.318  37.332  13.255
47263W        W19523   0.500  12.791   2.672
47264W        W19524  33.456  30.030   3.167
47265W        W19525   8.696  28.361   3.968
47266W        W19526  19.969   6.819   4.956
47267W        W19527  29.617  25.159  11.054
47268W        W19528  33.312  19.040   5.116
47269W        W19529  26.753  42.323  11.586
47270W        W19530  41.642  21.501  12.438
47271W        W19531  34.628  23.166  14.499
47272W        W19532  18.304  32.939   0.123
47273W        W19533  19.282  11.833   4.160
47274W        W19534  34.435   7.319  10.685
47275W        W19535  10.910  13.033   2.842
47276W        W19536  22.592  38.377   3.640
47277W        W19537  33.090  26.539  13.045
47278W        W19538   1.282   8.337   3.653
47279W        W19539  40.741  38.571   2.135
47280W        W19540  27.602  37.845   4.835
47281W        W19541  20.195   7.108   4.577
47282W        W19542   3.232  20.637   4.021
47283W        W19543  38.988  43.914  13.510
47284W        W19544  43.328  40.890   2.916
47285W        W19545   4.507  27.035  13.334
47286W        W19546   7.709   6.033  14.066
47287W        W19547  38.250  23.206  11.099
47288W        W19548   6.572  23.969  14.427
47289W        W19549  36.603   6.233  13.405
47290W        W19550  20.523  25.037   0.317
47291W        W19551   5.306  42.680   4.190
47292W        W19552  29.231  26.039  14.289
47293W        W19553  26.452  20.767   4.629
47294W        W19554   9.361  34.051  14.391
47295W        W19555  26.981  32.820  12.104
47296W        W19556   3.929  20.028  14.675
47297W        W19557  11.719  30.625   4.145
47298W        W19558   1.732  16.546  13.518
47299W        W19559  22.991  29.429  11.536
47300W        W19560  24.509  10.776  12.392
47301W        W19561  42.042  19.758  13.191
47302W        W19562  13.837   8.824   3.576
47303W        W19563   8.914  14.786   0.379
47304W        W19564  34.482  27.118  12.042
47305W        W19565   6.834  34.998   4.587
47306W        W19566  23.225  19.306   0.844
47307W        W19567  12.136  11.627   4.519
47308W        W19568  17.780  41.547   0.492
47309W        W19569  38.169  14.407  11.096
47310W        W19570  18.074  22.658   4.452
47311W        W19571   2.433  25.642  10.850
47312W        W19572  10.604  34.079  14.899
47313W        W19573  27.881  38.069   3.878
47314W        W19574  34.133  31.183  13.068
47315W        W19575  23.159  16.985  10.888
47316W        W19576  43.234  14.252  12.084
47317W        W19577   7.663  41.048   0.944
47318W        W19578  11.241  16.646  10.776
47319W        W19579  28.903  13.765   2.216
47320W        W19580   5.268  33.320   2.625
47321W        W19581  35.809  34.129   0.794
47322W        W19582  37.327  22.595   4.299
47323W        W19583  23.968   7.238  12.995
47324W        W19584  40.036   2.202  11.473
47325W        W19585   5.484  18.127   0.285
47326W        W19586  34.410   1.482  14.825
47327W        W19587  27.595  23.034   4.141
47328W        W19588  18.656  20.973   4.700
47329W        W19589   2.862  12.851  11.200
47330W        W19590  39.345  31.944   2.606
47331W        W19591  43.914   5.961  11.639
47332W        W19592  33.393  41.073   1.770
47333W        W19593  17.253  43.000   2.122
47334W        W19594  29.847  15.327  14.858
47335W        W19595  38.380  18.208   2.899
47336W        W19596   6.198  14.170   0.348
47337W        W19597  42.587  40.748  10.687
47338W        W19598  23.756  29.133  14.778
47339W        W19599  31.883  13.775   2.993
47340W        W19600   7.150  43.507   1.799
47341W        W19601  20.592   5.625   1.887
47342W        W19602  30.909  29.847   2.446
47343W        W19603  11.279  20.193  11.171
47344W        W19604  43.288   8.650  11.979
47345W        W19605  22.815  24.355  13.549
47346W        W19606  17.607  16.449  12.984
47347W        W19607  29.131  27.118  13.912
47348W        W19608  42.026  25.372  14.428
47349W        W19609  27.623  16.611  14.883
47350W        W19610  15.001  10.654   4.158
47351W        W19611  32.831  26.188   1.479
47352W        W19612  27.101  34.327   2.763
47353W        W19613   1.134  29.601  12.655
47354W        W19614  30.983  32.464  12.650
47355W        W19615   4.681  24.349   1.839
47356W        W19616   7.251  19.826  11.565
47357W        W19617  39.206   6.975  12.751
47358W        W19618   1.320  42.590  13.524
47359W        W19619  30.244  42.482  14.364
47360W        W19620  14.967  15.549  14.914
47361W        W19621  30.614  13.841  13.892
47362W        W19622  26.213  38.026  13.338
47363W        W19623   8.685  35.888  11.349
47364W        W19624  12.938  10.818  12.292
47365W        W19625  42.382  26.675  14.372
47366W        W19626   2.479  29.089  10.077
47367W        W19627  19.485  39.411  12.513
47368W        W19628   6.664  20.174  12.173
47369W        W19629   1.829  44.380   0.032
47370W        W19630  22.038   1.876   4.669
47371W        W19631  11.257   0.466  10.626
47372W        W19632   7.783  10.675   0.414
47373W        W19633  43.554  13.517   4.586
47374W        W19634   0.740  14.644   2.752
47375W        W19635   4.788  25.107  11.584
47376W        W19636   5.855  26.207  11.997
47377W        W19637  27.372  18.186  11.340
47378W        W19638  34.990  18.799   1.235
47379W        W19639  32.390   4.928   1.258
47380W        W19640  41.019  19.593   1.990
47381W        W19641  33.218  31.924   3.896
47382W        W19642  17.803  28.219   4.494
47383W        W19643  13.569  29.961  11.149
47384W        W19644  30.155  34.598   4.282
47385W        W19645   3.030  37.509  12.868
47386W        W19646  22.089  37.050   2.184
47387W        W19647  42.724  29.103  12.923
47388W        W19648  25.754  39.437  12.023
47389W        W19649   7.083  15.311   0.929
47390W        W19650  35.482  18.740   5.793
47391W        W19651   0.821  21.290   1.858
47392W        W19652  39.744  15.491   3.151
47393W        W19653  41.358  25.462  11.599
47394W        W19654  33.665  38.781  12.335
47395W        W19655  38.507  34.130   1.199
47396W        W19656  21.728  29.533   4.451
47397W        W19657  25.039  21.811   4.659
47398W        W19658  25.985  32.461  14.726
47399W        W19659  36.954  16.130  12.492
47400W        W19660  20.616   0.230   1.846
47401W        W19661  40.028  29.665   4.160
47402W        W19662  33.174  13.133   1.433
47403W        W19663  27.027  28.148  12.693
47404W        W19664   5.396  26.453   2.161
47405W        W19665   2.261  29.767   4.076
47406W        W19666  37.394  42.312  14.761
47407W        W19667  31.058  23.263  12.325
47408W        W19668  12.325  33.059  11.525
47409W        W19669  30.662  40.220   5.041
47410W        W19670  44.829  23.659  10.662
47411W        W19671  24.317  11.010   3.642
47412W        W19672  25.181  34.469   4.528
47413W        W19673  28.250  30.648  12.940
47414W        W19674  27.607  15.290   4.971
47415W        W19675  44.793  11.907   1.722
47416W        W19676  27.514   5.083  12.136
47417W        W19677  38.865  42.055   2.175
47418W        W19678  13.909  44.420  11.324
47419W        W19679   1.882  39.565   1.490
47420W        W19680  38.063  40.305   4.343
47421W        W19681  14.371   8.733  13.582
47422W        W19682   0.860  36.337  13.952
47423W        W19683  42.808  28.604   3.178
47424W        W19684  13.003  23.565  13.731
47425W        W19685   5.496   0.198   0.497
47426W        W19686  37.398  13.785   1.451
47427W        W19687  18.072  40.951   4.082
47428W        W19688  40.256  32.548  10.692
47429W        W19689  31.023   2.686   2.051
47430W        W19690   3.214  10.168  11.915
47431W        W19691  14.225  21.187   0.268
47432W        W19692   1.253   1.312  14.902
47433W        W19693  12.260  43.892   4.656
47434W        W19694  14.395   8.368   3.130
47435W        W19695  11.656  10.258   3.235
47436W        W19696  12.220   1.907   1.396
47437W        W19697  14.184  13.704  10.547
47438W        W19698  17.828  28.874   1.839
47439W        W19699  14.269   8.922   2.211
47440W        W19700  30.151  29.882   1.474
47441W        W19701  18.561  34.660  14.451
47442W        W19702  11.405  36.846  14.486
47443W        W19703  12.173  14.911   2.813
47444W        W19704  24.490   6.978   3.671
47445W        W19705  19.548  44.212   3.887
47446W        W19706  30.063  13.659   0.863
47447W        W19707  32.944  15.491  11.559
47448W        W19708  19.941  11.393  14.802
47449W        W19709   3.216  25.506   3.667
47450W        W19710  33.894  18.445   0.379
47451W        W19711  44.896   9.461   0.316
47452W        W19712  25.567  22.984   2.206
47453W        W19713  26.648  32.374   1.019
47454W        W19714  43.594  33.078   4.648
47455W        W19715   1.201  30.597   2.815
47456W        W19716  30.027  38.603   3.361
47457W        W19717   4.186  37.345   0.970
47458W        W19718   4.374  18.319   4.119
47459W        W19719  30.663  40.172  12.600
47460W        W19720  37.413  40.379   0.368
47461W        W19721   0.112  22.011  11.742
47462W        W19722  41.921  18.071  11.478
47463W        W19723   8.828   2.730   2.298
47464W        W19724  31.203  19.023  11.430
47465W        W19725  37.002  31.660   4.012
47466W        W19726  23.485  43.921  11.709
47467W        W19727  28.654   6.336   1.108
47468W        W19728  27.252  12.917   0.450
47469W        W19729  17.831  27.035  14.835
47470W        W19730  31.007   3.200   1.969
47471W        W19731  28.016  38.393   0.682
47472W        W19732  27.181  39.301  10.682
47473W        W19733  30.822  30.081   3.661
47474W        W19734  21.459  42.951   0.314
47475W        W19735  43.523  11.461  10.497
47476W        W19736  43.862   2.127   2.224
47477W        W19737  27.579  11.190   3.668
47478W        W19738  38.621  26.410  12.597
47479W        W19739  10.798  29.623   1.638
47480W        W19740  24.721  17.480  12.069
47481W        W19741  10.623  43.382   3.140
47482W        W19742   0.782  17.712   3.276
47483W        W19743  22.171   4.353   3.785
47484W        W19744  36.577   2.997   3.795
47485W        W19745  14.862  30.466   0.351
47486W        W19746   6.030  36.450   3.635
47487W        W19747  25.442  41.291   4.309
47488W        W19748  27.870   4.956  14.230
47489W        W19749   8.943  14.877  14.477
47490W        W19750  26.820   7.608   2.613
47491W        W19751  38.497  42.952   2.925
47492W        W19752  37.431   6.892   1.791
47493W        W19753  22.678   4.306   4.338
47494W        W19754   5.428  10.812   1.014
47495W        W19755  21.761  40.032  13.617
47496W        W19756  38.176  11.335   1.897
47497W        W19757   7.351  42.779   1.164
47498W        W19758   3.417  12.174   4.410
47499W        W19759  13.659  13.174  12.013
47500W        W19760   0.691  22.682   0.847
47501W        W19761  41.698  29.005  14.420
47502W        W19762  17.170   4.758  14.276
47503W        W19763  21.679  41.917  13.631
47504W        W19764   7.679  43.542   3.336
47505W        W19765  29.728  23.279  12.598
47506W        W19766  17.864  32.987   3.307
47507W        W19767  44.452  37.806  12.941
47508W        W19768  20.569  16.229  13.426
47509W        W19769   7.469  10.792   2.350
47510W        W19770  34.057  41.341  14.117
47511W        W19771  34.522  17.499   0.442
47512W        W19772  25.277   5.582  13.471
47513W        W19773   5.341   1.506  11.512
47514W        W19774  29.991  38.541   1.890
47515W        W19775  17.074  10.020   4.062
47516W        W19776   7.563  18.655   1.006
47517W        W19777   2.612  19.663   0.431
47518W        W19778   4.484  32.131  12.122
47519W        W19779   8.930  20.156   2.861
47520W        W19780  41.093   1.273  13.950
47521W        W19781   0.463   1.413  11.117
47522W        W19782  25.488  34.825   2.350
47523W        W19783  34.476  19.699  12.667
47524W        W19784  14.847  20.989   3.715
47525W        W19785   4.667  39.640   3.475
47526W        W19786  30.108  13.842  13.634
47527W        W19787  20.927   6.377  10.169
47528W        W19788   0.248   6.778   4.224
47529W        W19789  37.983  34.698   3.669
47530W        W19790  35.611  23.713   1.813
47531W        W19791  10.413   5.331  12.458
47532W        W19792  14.201  29.431  14.297
47533W        W19793  31.887  22.477   2.598
47534W        W19794   9.636   2.024  11.304
47535W        W19795   3.731  39.867   0.234
47536W        W19796  28.622   1.180  14.268
47537W        W19797   5.951  26.074   4.728
47538W        W19798  35.980  24.325  12.207
47539W        W19799   5.458  17.261  12.799
47540W        W19800  34.878  41.598  13.320
47541W        W19801  13.246  18.961  14.742
47542W        W19802  39.347  35.261  10.770
47543W        W19803  26.425  24.259   3.205
47544W        W19804  13.076   9.719  14.973
47545W        W19805  14.936  30.882   2.891
47546W        W19806  26.537   6.245  10.788
47547W        W19807  38.812   6.933  10.257
47548W        W19808  40.984  30.691   3.788
47549W        W19809  19.533   0.422   0.404
47550W        W19810  33.901  39.675  14.910
47551W        W19811  39.324  20.070   1.436
47552W        W19812  29.568   1.297  14.835
47553W        W19813  22.515  25.778   5.487
47554W        W19814  11.436  22.518   0.174
47555W        W19815  22.726  34.005   1.440
47556W        W19816   0.477  24.699   0.936
47557W        W19817  16.251  26.915  14.477
47558W        W19818  41.132   8.070   3.798
47559W        W19819  24.482  40.420   2.421
47560W        W19820  18.273  37.965   1.406
47561W        W19821  36.024  38.412  13.105
47562W        W19822  11.680  44.143  11.472
47563W        W19823  44.999   1.037  11.876
47564W        W19824  19.163  20.509   2.764
47565W        W19825  29.633  29.108  13.467
47566W        W19826   5.000   3.667   4.878
47567W        W19827   6.009   5.982   0.907
47568W        W19828  15.062  19.183   4.911
47569W        W19829  10.883   7.320  12.136
47570W        W19830   2.987  27.195  10.728
47571W        W19831  19.340  26.013  14.389
47572W        W19832   9.235  44.871  10.907
47573W        W19833   9.881  13.084   2.876
47574W        W19834  33.627  42.324  14.714
47575W        W19835  13.461  35.117   2.416
47576W        W19836  23.737   5.307   1.414
47577W        W19837  27.255   5.407   0.863
47578W        W19838  10.411  10.866   1.580
47579W        W19839  11.761  34.365  13.876
47580W        W19840   6.639  12.540   2.971
47581W        W19841  18.115  10.621  12.782
47582W        W19842  25.697   3.767  11.891
47583W        W19843  35.141   5.426   3.680
47584W        W19844  22.767  22.121   2.904
47585W        W19845   5.094   8.892   3.399
47586W        W19846  17.678  10.881   0.420
47587W        W19847  31.880  35.889  14.922
47588W        W19848  44.405   1.818   2.864
47589W        W19849  18.289  14.225  11.977
47590W        W19850  44.199  42.897  13.828
47591W        W19851  29.323   1.354   5.029
47592W        W19852   2.976  33.831  11.157
47593W        W19853  19.203  19.631   4.300
47594W        W19854   7.775  29.722  11.548
47595W        W19855  11.305  33.982  13.383
47596W        W19856  28.377  39.241  14.932
47597W        W19857   5.994  41.020  13.151
47598W        W19858  24.863  34.889  14.415
47599W        W19859  30.339  27.682   0.251
47600W        W19860  11.219  35.754  10.706
47601W        W19861  29.168  14.921   1.238
47602W        W19862  12.084  37.892  10.712
47603W        W19863  10.320  24.441  14.119
47604W        W19864   4.783  34.058   0.639
47605W        W19865  26.150  28.654   0.299
47606W        W19866  28.439   0.467  14.910
47607W        W19867  27.337  17.748  12.125
47608W        W19868  34.511  19.399  14.007
47609W        W19869  41.586  36.063  11.450
47610W        W19870  39.733  19.326   1.431
47611W        W19871   9.660  21.573  14.913
47612W        W19872  10.905  12.323  11.571
47613W        W19873  18.867  18.979   2.355
47614W        W19874  26.934  36.774   3.646
47615W        W19875  39.320   8.159   2.769
47616W        W19876  36.079  19.344  10.982
47617W        W19877  25.145  34.443  13.551
47618W        W19878  14.621  20.694  11.236
47619W        W19879  15.054  27.534   1.422
47620W        W19880  39.095  38.379   3.335
47621W        W19881  30.588  39.200  12.960
47622W        W19882   5.842  19.615   4.484
47623W        W19883   1.828  13.859  12.935
47624W        W19884  44.448   0.755  12.583
47625W        W19885  31.408  38.938   1.872
47626W        W19886  35.581  31.725  13.799
47627W        W19887  32.387  32.482  12.796
47628W        W19888  11.927  43.325  11.133
47629W        W19889  40.708  21.154  14.004
47630W        W19890  43.074  17.582  14.722
47631W        W19891   7.224   2.952  12.969
47632W        W19892  16.229  36.063   0.882
47633W        W19893  25.532  22.756   4.715
47634W        W19894   7.241  31.568  12.114
47635W        W19895  28.609   9.574  11.106
47636W        W19896  36.272  33.832   0.782
47637W        W19897  22.254   4.325  10.497
47638W        W19898  41.966  27.653   4.150
47639W        W19899  28.049  42.105  11.517
47640W        W19900  19.278  21.510   2.910
47641W        W19901  33.882  16.287   3.760
47642W        W19902  29.985  15.623  10.490
47643W        W19903  28.152  16.655  11.528
47644W        W19904  36.631  15.295   1.839
47645W        W19905  25.412  19.491   0.150
47646W        W19906  40.570   6.223  13.278
47647W        W19907  16.205  34.102  13.039
47648W        W19908  18.686  39.393   3.595
47649W        W19909  18.259  39.456   0.826
47650W        W19910  12.049  17.664  11.923
47651W        W19911   4.363  33.229   3.170
47652W        W19912   6.225  17.193   1.568
47653W        W19913  43.355  41.956  12.027
47654W        W19914   1.696   6.963  12.983
47655W        W19915   0.929  17.674   1.888
47656W        W19916   0.483  23.955  13.540
47657W        W19917  15.638  12.547  13.929
47658W        W19918  42.947   2.561   5.045
47659W        W19919  18.570  32.030   3.896
47660W        W19920  42.560  11.145  11.486
47661W        W19921   4.639  10.414  11.973
47662W        W19922  35.133  35.684   0.938
47663W        W19923   0.371  20.028  10.631
47664W        W19924  25.048   9.339  12.996
47665W        W19925  37.630  39.470   3.537
47666W        W19926  17.269  28.580  14.121
47667W        W19927  33.509  43.988   1.605
47668W        W19928   4.551  17.069   3.351
47669W        W19929  20.225  41.983  13.371
47670W        W19930   7.104  37.608  11.023
47671W        W19931  37.670  29.756   3.657
47672W        W19932   3.385  14.238   2.469
47673W        W19933  27.510  32.631   4.034
47674W        W19934  43.995  15.857   0.961
47675W        W19935  38.527  23.989  14.816
47676W        W19936  15.776  39.088   2.326
47677W        W19937  18.614   8.311  10.760
47678W        W19938   2.521  21.403   1.927
47679W        W19939  39.841  19.982   3.903
47680W        W19940  26.515  33.418   1.363
47681W        W19941  25.624  33.050  11.888
47682W        W19942  19.117  40.107   3.154
47683W        W19943  15.550  21.752   2.330
47684W        W19944   2.309  35.168  13.768
47685W        W19945  43.721  30.498   2.307
47686W        W19946  13.145  38.878   1.706
47687W        W19947  15.690  28.968   4.719
47688W        W19948  11.148   7.303   2.962
47689W        W19949  23.058  41.458   1.211
47690W        W19950  19.126   8.835  12.434
47691W        W19951  34.987   5.217  14.734
47692W        W19952  15.291   2.464  11.109
47693W        W19953  27.759  34.486   4.892
47694W        W19954   4.888  25.285   0.251
47695W        W19955  41.344  21.418   0.447
47696W        W19956  13.570  25.247  12.516
47697W        W19957  28.793  20.277  12.987
47698W        W19958  16.768  17.741  13.483
47699W        W19959   0.233  15.257  13.397
47700W        W19960   3.342  39.344  11.051
47701W        W19961  14.421  13.600  14.444
47702W        W19962  35.304  37.858   2.449
47703W        W19963  43.940  28.003  12.103
47704W        W19964  27.721  39.698   4.631
47705W        W19965  19.133  19.186  12.068
47706W        W19966  39.751  15.119   3.980
47707W        W19967  15.421  25.679  11.155
47708W        W19968   8.064   5.929   3.678
47709W        W19969  32.563  38.071  12.924
47710W        W19970  11.090  32.281   5.036
47711W        W19971  35.346   4.519   0.984
47712W        W19972  33.115  10.220   0.384
47713W        W19973  43.855  44.408  12.788
47714W        W19974  36.047  20.526  12.901
47715W        W19975  41.518  34.155  12.345
47716W        W19976  21.266  20.059   3.633
47717W        W19977   9.870  25.911  14.640
47718W        W19978   0.277   5.694   0.461
47719W        W19979  36.431   6.466  12.946
47720W        W19980  29.141  16.632   2.926
47721W        W19981  30.739   8.544  10.147
47722W        W19982   7.350  43.551  12.267
47723W        W19983  26.430  14.384   1.828
47724W        W19984  11.545  22.710  11.083
47725W        W19985   6.419  20.057  14.366
47726W        W19986  29.905  28.463   4.479
47727W        W19987  23.732  31.946  13.082
47728W        W19988  20.174  44.225  12.497
47729W        W19989  39.170   6.422   1.104
47730W        W19990  23.114   7.472   1.890
47731W        W19991  21.039  39.201  12.888
47732W        W19992  19.534  44.351  14.326
47733W        W19993  36.029  22.467   0.310
47734W        W19994   8.581  44.477  11.568
47735W        W19995  41.957  24.327   0.031
47736W        W19996  41.323  13.801   4.267
47737W        W19997  30.387  22.723  11.567
47738W        W19998  39.459  41.110  14.407
47739W        W19999  29.197   2.373   4.595
47740W        W20000  21.518  36.483  13.586
47741W        W20001  34.116  42.425   1.995
47742W        W20002  35.803  37.324  10.702
47743W        W20003   9.672  12.363  12.078
47744W        W20004  44.051  38.155  11.222
47745W        W20005  11.623   6.186   2.687
47746W        W20006  28.262  27.368  12.606
47747W        W20007  26.178  36.503   4.251
47748W        W20008  23.366   3.685  12.577
47749W        W20009   1.677   8.951   5.032
47750W        W20010  20.539  22.159   2.339
47751W        W20011  20.776  40.275  14.545
47752W        W20012  15.136  12.875  11.948
47753W        W20013   7.726  35.994  11.545
47754W        W20014  17.629  25.578   4.876
47755W        W20015   8.965  39.938  14.293
47756W        W20016  16.082  19.277   1.419
47757W        W20017  23.131  31.960  11.532
47758W        W20018  32.003  42.591  10.599
47759W        W20019  43.497  33.696   0.012
47760W        W20020  15.803  22.179  13.262
47761W        W20021  13.405   3.495   0.534
47762W        W20022  32.841  35.401  11.055
47763W        W20023  31.548   6.934   3.792
47764W        W20024   8.884   9.281   2.092
47765W        W20025  26.201  24.511  13.780
47766W        W20026   4.666  41.322  11.990
47767W        W20027  19.210  24.049  14.027
47768W        W20028  31.167  32.980   3.468
47769W        W20029   1.699  38.213   1.698
47770W        W20030  11.591  35.266  11.544
47771W        W20031  14.613  27.095  11.403
47772W        W20032   6.896  40.928  14.496
47773W        W20033  24.701  44.688  11.926
47774W        W20034  11.574  20.170  11.588
47775W        W20035  17.030  12.683  13.945
47776W        W20036   5.769  42.776  14.405
47777W        W20037  37.490  19.852  11.996
47778W        W20038  32.901  44.595  13.418
47779W        W20039  21.692   5.193  14.516
47780W        W20040  32.157  20.088  13.012
47781W        W20041   8.841  33.116   1.534
47782W        W20042  13.594  43.785  13.552
47783W        W20043  35.342  21.468   3.405
47784W        W20044   6.334  30.358  14.669
47785W        W20045  20.744  40.557   0.862
47786W        W20046  13.080  26.613  12.152
47787W        W20047   4.932  38.038  14.159
47788W        W20048  25.571  36.976  12.462
47789W        W20049  15.630  28.505   5.466
47790W        W20050  12.141  32.639   3.504
47791W        W20051  37.823  32.299   0.850
47792W        W20052  10.207   1.331  12.866
47793W        W20053  43.055  33.538  14.816
47794W        W20054  19.836  30.060  12.111
47795W        W20055  40.474  26.703  13.563
47796W        W20056   1.005  13.028  11.370
47797W        W20057  11.800  18.259   3.746
47798W        W20058   8.254  31.695  13.831
47799W        W20059  41.549  42.051   0.807
47800W        W20060   9.802  22.352   1.725
47801W        W20061  25.447   4.193  12.111
47802W        W20062  14.091   4.174  13.842
47803W        W20063  36.476  21.117   4.569
47804W        W20064   1.299   5.829   3.575
47805W        W20065   4.467  12.328  12.031
47806W        W20066  17.624   8.272  10.620
47807W        W20067  29.558  15.350  10.702
47808W        W20068  21.787  40.309   0.914
47809W        W20069  32.903  23.149  11.958
47810W        W20070   5.439  20.033   2.250
47811W        W20071   6.328  28.934  13.944
47812W        W20072  25.415  27.456  10.486
47813W        W20073  13.185  30.005   0.037
47814W        W20074  33.507  36.802  12.358
47815W        W20075  36.310   9.163   1.755
47816W        W20076  30.161  30.450   0.041
47817W        W20077  25.223  21.203  14.491
47818W        W20078  23.690   9.348  13.349
47819W        W20079  43.942   3.409   1.072
47820W        W20080  21.162  21.765   1.793
47821W        W20081  25.245  21.197  11.271
47822W        W20082  21.331  34.124   3.451
47823W        W20083   3.223  21.169   0.924
47824W        W20084  18.835  27.237   3.737
47825W        W20085  15.975  28.608  14.746
47826W        W20086   8.290  17.002  10.539
47827W        W20087   8.349  34.433  10.573
47828W        W20088  20.509  26.384   5.022
47829W        W20089  30.318  15.753  14.548
47830W        W20090  40.548  28.382   1.202
47831W        W20091  15.263   6.460   4.232
47832W        W20092  40.315   0.218   3.727
47833W        W20093  19.937   2.268   0.290
47834W        W20094   7.670  12.072  10.724
47835W        W20095  21.615  32.586   2.470
47836W        W20096  31.380   5.680  13.812
47837W        W20097  25.327  40.607   2.762
47838W        W20098   9.391  37.022   2.815
47839W        W20099  44.881  20.073   2.281
47840W        W20100  42.242  21.019   3.662
47841W        W20101  42.948   7.285  13.550
47842W        W20102  20.746  18.145  11.083
47843W        W20103  38.667  25.853   2.849
47844W        W20104  10.054  26.597   2.196
47845W        W20105  38.831  20.281   4.592
47846W        W20106  40.808  32.247   0.078
47847W        W20107  42.054  18.345  11.909
47848W        W20108  10.782  37.932   0.271
47849W        W20109  33.952   0.405  12.379
47850W        W20110  41.999   0.927   1.410
47851W        W20111  37.109  26.081   0.962
47852W        W20112  25.438  18.189  12.512
47853W        W20113  10.735   0.176   2.824
47854W        W20114  27.705  42.399  11.229
47855W        W20115  44.990  11.772   0.941
47856W        W20116   5.222  17.529   4.840
47857W        W20117  16.366  12.108  12.194
47858W        W20118   0.070  27.528  11.225
47859W        W20119  22.536  10.894   3.833
47860W        W20120  23.710  14.893  12.513
47861W        W20121  30.618  31.950  11.541
47862W        W20122  29.439  17.275   0.779
47863W        W20123  27.647  19.554   1.335
47864W        W20124  12.348  40.760   3.070
47865W        W20125  37.608   1.970   4.159
47866W        W20126  39.774  17.387  13.025
47867W        W20127   5.853  36.531  10.877
47868W        W20128  41.640  44.674  13.416
47869W        W20129  32.865   2.852   0.868
47870W        W20130   8.729  24.691  14.326
47871W        W20131  35.931  38.096   1.126
47872W        W20132  18.611  23.982   1.217
47873W        W20133  11.616   5.492   3.152
47874W        W20134  29.684  19.151   1.479
47875W        W20135  27.991  20.985  14.511
47876W        W20136   7.777  37.638  11.842
47877W        W20137   3.101   6.574   1.692
47878W        W20138  22.562  13.968  12.011
47879W        W20139  22.053  26.189  10.127
47880W        W20140   3.501  36.605   1.269
47881W        W20141  32.159  18.656   1.733
47882W        W20142  44.508  39.047   3.227
47883W        W20143  25.157  28.437   0.191
47884W        W20144  12.392  29.450   5.479
47885W        W20145   0.338   5.935  10.898
47886W        W20146  19.196  19.822  14.300
47887W        W20147  32.494  34.470   4.638
47888W        W20148  40.118  11.954   1.184
47889W        W20149  12.685   9.857  13.661
47890W        W20150  20.030   7.586  12.019
47891W        W20151  25.546  14.673  10.654
47892W        W20152  20.622  27.707   0.276
47893W        W20153  39.468  15.614  10.704
47894W        W20154  36.069  18.625  11.971
47895W        W20155  22.155  21.800   1.211
47896W        W20156   0.405  17.586   1.040
47897W        W20157  28.947  23.200   1.821
47898W        W20158   7.415  38.623   3.480
47899W        W20159   8.179  17.104   3.792
47900W        W20160  23.780   1.665   4.958
47901W        W20161  43.612   8.774   1.208
47902W        W20162  34.843  14.995  13.158
47903W        W20163  10.583   8.858  11.807
47904W        W20164  26.524  32.361   2.413
47905W        W20165  27.237  33.376  11.530
47906W        W20166  25.253  34.021   4.236
47907W        W20167  20.004   6.853  10.178
47908W        W20168  33.522  41.477   4.422
47909W        W20169  41.033  39.833  12.529
47910W        W20170   2.192  43.947  11.917
47911W        W20171  14.568   9.177   0.133
47912W        W20172  33.606  28.708  10.743
47913W        W20173  28.797   7.212  13.213
47914W        W20174  19.541   0.214  11.893
47915W        W20175  15.557  26.519   3.201
47916W        W20176  10.173  39.398   2.890
47917W        W20177   0.249   6.726   3.092
47918W        W20178  35.583  13.207  14.279
47919W        W20179   8.673  19.618   4.072
47920W        W20180  12.838  41.511  13.567
47921W        W20181   4.922  22.821  10.531
47922W        W20182  39.867  37.024  14.377
47923W        W20183  21.470  43.232  14.858
47924W        W20184  38.892  15.591  11.021
47925W        W20185  12.871  29.668  12.467
47926W        W20186  33.351  44.533   0.426
47927W        W20187  43.422  32.634  12.888
47928W        W20188  15.625  40.953   1.257
47929W        W20189   0.169   6.768  12.421
47930W        W20190  25.919  43.055  14.281
47931W        W20191  36.639  43.273   0.623
47932W        W20192  23.744  21.508  14.002
47933W        W20193  11.772   1.782   3.531
47934W        W20194  15.372   3.681  14.327
47935W        W20195  18.781   7.255   3.108
47936W        W20196  38.617  32.399  12.830
47937W        W20197  44.911  30.159   3.227
47938W        W20198  35.918  37.578   4.111
47939W        W20199  20.029  25.836   2.746
47940W        W20200   4.293  10.603   1.181
47941W        W20201  29.921   2.393  11.062
47942W        W20202  25.291   4.661  14.072
47943W        W20203  33.081  36.815  10.439
47944W        W20204   7.843  24.206  14.261
47945W        W20205  17.605  19.300  13.485
47946W        W20206  33.040  33.396  13.091
47947W        W20207  37.852   9.773   3.654
47948W        W20208  40.261   6.425  12.852
47949W        W20209   2.169  44.132   3.652
47950W        W20210  39.860   8.968   3.593
47951W        W20211  35.515  38.258   4.189
47952W        W20212   0.337  43.994   2.372
47953W        W20213  10.232  29.135   4.652
47954W        W20214   0.268  32.839   2.806
47955W        W20215  14.259  25.602   0.409
47956W        W20216   0.988   5.639  14.943
47957W        W20217  24.149  22.268  10.669
47958W        W20218  36.979  16.684  13.270
47959W        W20219  39.478  22.093   0.892
47960W        W20220  34.820  22.820   3.266
47961W        W20221   1.768  24.200  13.527
47962W        W20222  28.509  21.876  11.106
47963W        W20223  14.687  22.809   1.295
47964W        W20224  15.662   9.742   4.928
47965W        W20225  15.412   6.537   5.058
47966W        W20226   6.265  19.255   2.814
47967W        W20227  35.980  40.909  12.367
47968W        W20228  37.253  13.058   4.162
47969W        W20229  32.576  12.632  13.578
47970W        W20230  25.133  15.740   1.872
47971W        W20231  38.856  37.259   4.981
47972W        W20232   1.916  27.209  12.080
47973W        W20233  36.863  23.203  11.006
47974W        W20234  35.658  40.517  13.565
47975W        W20235  25.112  16.254  11.176
47976W        W20236  25.184  35.447  11.533
47977W        W20237  32.926  30.133   1.754
47978W        W20238  36.357  34.503   1.442
47979W        W20239  21.251  33.136   1.729
47980W        W20240  11.091   0.841  14.326
47981W        W20241  11.736  15.771   3.141
47982W        W20242  44.759  39.686  12.363
47983W        W20243  20.076  22.023  13.414
47984W        W20244   3.943  25.561  14.956
47985W        W20245   5.453   6.905   4.074
47986W        W20246  11.432   1.756  12.428
47987W        W20247  14.237  38.349   4.156
47988W        W20248  32.112  34.894  11.062
47989W        W20249   5.724  29.531   3.108
47990W        W20250  40.989  26.194   4.782
47991W        W20251  19.077  34.260   2.048
47992W        W20252   1.462  18.838  11.561
47993W        W20253  12.375   2.160   4.055
47994W        W20254  14.719  37.123   0.906
47995W        W20255  23.011  26.751   1.790
47996W        W20256  33.176   9.313   0.453
47997W        W20257  36.092  37.265  12.129
47998W        W20258  41.523  37.177   2.318
47999W        W20259  25.744  41.978   1.661
48000W        W20260  20.814  12.793  11.526
48001W        W20261  44.942  19.546   3.683
48002W        W20262  34.663  39.640   3.598
48003W        W20263  29.043  44.549   1.838
48004W        W20264   1.220  25.642   4.540
48005W        W20265   4.268  23.778   4.693
48006W        W20266  43.042  14.761  10.676
48007W        W20267  18.766   0.667  10.356
48008W        W20268  42.230  15.403  14.843
48009W        W20269   5.635   9.507  11.221
48010W        W20270  44.912  10.703   4.794
48011W        W20271  20.750  10.387  14.420
48012W        W20272   8.346  30.300   1.793
48013W        W20273  34.364  10.708   1.925
48014W        W20274  31.360  17.262   2.292
48015W        W20275  20.821  36.870  12.028
48016W        W20276  39.087  22.237   3.694
48017W        W20277  28.928  37.665   1.402
48018W        W20278  37.530  33.929  12.980
48019W        W20279  16.197  42.850   3.226
48020W        W20280   0.252   2.293   1.719
48021W        W20281  12.340  34.916   0.748
48022W        W20282   4.343  44.799   1.341
48023W        W20283  17.982  34.045   3.218
48024W        W20284   4.219   7.428  14.348
48025W        W20285   3.061  15.553  14.046
48026W        W20286  20.085  32.473   3.205
48027W        W20287  14.695  18.347   1.823
48028W        W20288  42.341  37.342   1.747
48029W        W20289  19.986   3.711  13.125
48030W        W20290  33.143  39.548   4.076
48031W        W20291  29.033  36.429  14.773
48032W        W20292  11.092  32.122   0.085
48033W        W20293  40.919   6.921   2.917
48034W        W20294  28.883  26.348  12.990
48035W        W20295  40.456  26.103  12.821
48036W        W20296  25.817   1.760   1.287
48037W        W20297  20.830  25.258  12.945
48038W        W20298   7.345   2.748  13.906
48039W        W20299   0.025  31.622  14.300
48040W        W20300  27.393   5.247   2.893
48041W        W20301  40.317  29.523   0.669
48042W        W20302  44.924  28.211  10.620
48043W        W20303  27.654   6.368   3.158
48044W        W20304  44.262  39.956  14.454
48045W        W20305  30.991   7.263   3.846
48046W        W20306  21.748  27.193  14.473
48047W        W20307   2.637  15.202   0.612
48048W        W20308  28.228   3.426   5.035
48049W        W20309  27.854  10.784   2.808
48050W        W20310  18.639  30.682   2.855
48051W        W20311  24.734  13.856   4.593
48052W        W20312  40.105  25.954   4.397
48053W        W20313   8.853  25.624   3.222
48054W        W20314   7.382  29.621  13.780
48055W        W20315   3.805  38.345  14.080
48056W        W20316   3.622  32.628   0.430
48057W        W20317   7.077  12.578  12.152
48058W        W20318   8.733  29.339   3.696
48059W        W20319  33.076  39.133   3.185
48060W        W20320  11.349  15.909   1.393
48061W        W20321  39.351  33.068  11.698
48062W        W20322  21.974  14.260   2.101
48063W        W20323  33.410  29.934  14.820
48064W        W20324  23.635  37.276   0.738
48065W        W20325  21.084  44.460   3.110
48066W        W20326  15.698   3.184  10.492
48067W        W20327  25.703  36.660   4.112
48068W        W20328  31.046  11.935   2.731
48069W        W20329  31.510  27.902   4.341
48070W        W20330   6.043   7.295  10.817
48071W        W20331  16.772  16.374  12.422
48072W        W20332   2.280  13.333  12.341
48073W        W20333  41.661   7.979  14.039
48074W        W20334  36.302  14.695   3.789
48075W        W20335  23.806  16.818   4.281
48076W        W20336   8.400  34.843   2.390
48077W        W20337  38.942   5.625   0.878
48078W        W20338  23.721   2.237   3.157
48079W        W20339  42.243  22.383   0.037
48080W        W20340  41.989  40.311  14.538
48081W        W20341  41.468  31.588   3.875
48082W        W20342  38.916  32.121   2.340
48083W        W20343  34.004  20.167  10.628
48084W        W20344  25.523  20.044   3.871
48085W        W20345  27.949  37.028  11.572
48086W        W20346   4.079   7.347  12.574
48087W        W20347  17.953  28.029   3.650
48088W        W20348  20.347  17.824  11.119
48089W        W20349  32.423  37.551   1.266
48090W        W20350  41.822  29.582   0.998
48091W        W20351  39.057   6.137   0.681
48092W        W20352  31.137  28.258   1.452
48093W        W20353  29.836  29.185  12.960
48094W        W20354  41.897  13.775   2.803
48095W        W20355   2.975   9.911  13.470
48096W        W20356   5.401  28.062  14.527
48097W        W20357  18.556  41.791   4.366
48098W        W20358  22.486  18.723   0.873
48099W        W20359  44.120   3.699  14.797
48100W        W20360  40.848  39.369   1.037
48101W        W20361  15.736  41.911   2.382
48102W        W20362  24.482  25.431  14.282
48103W        W20363  11.414  22.066   2.811
48104W        W20364  21.830  26.228   3.670
48105W        W20365   4.218   4.215   1.762
48106W        W20366  32.110  12.630  13.049
48107W        W20367  25.158   8.651   5.101
48108W        W20368  31.603  42.026  13.538
48109W        W20369   7.213  25.409  13.920
48110W        W20370  40.061  42.010   1.483
48111W        W20371  25.668  25.128  13.496
48112W        W20372  42.785   5.733   3.150
48113W        W20373  35.036  14.732  14.757
48114W        W20374  41.898  40.819   0.797
48115W        W20375  15.083  16.265   0.917
48116W        W20376  29.699  28.737   4.078
48117W        W20377  41.816   0.843   4.506
48118W        W20378  12.849  42.476  11.282
48119W        W20379  14.580   8.361  14.344
48120W        W20380  11.190  36.923   0.405
48121W        W20381  31.624  32.159   3.380
48122W        W20382  44.236  43.379   0.440
48123W        W20383  17.964  24.888   3.213
48124W        W20384   2.040   4.403  12.576
48125W        W20385   5.284  29.394   4.630
48126W        W20386  10.241  22.135   2.026
48127W        W20387   7.888  40.457  10.811
48128W        W20388  39.457  16.582  11.518
48129W        W20389  36.765  41.766  11.964
48130W        W20390   2.018  35.622   1.796
48131W        W20391   5.198  41.297  14.443
48132W        W20392  15.349  36.882  14.611
48133W        W20393  28.195  42.893  13.941
48134W        W20394   6.446  28.173   0.598
48135W        W20395  34.502   0.532  11.630
48136W        W20396  35.352  20.869   5.628
48137W        W20397   9.633  15.084   0.794
48138W        W20398  34.926  11.808   2.058
48139W        W20399   5.630  29.244  12.832
48140W        W20400  36.013  15.185  11.132
48141W        W20401  38.559  24.719  13.035
48142W        W20402   4.751  32.679  12.465
48143W        W20403  32.728  16.661   4.142
48144W        W20404   9.591  25.539   0.442
48145W        W20405  13.235  22.237   2.680
48146W        W20406  17.758  21.011  14.277
48147W        W20407   9.491  28.603   0.921
48148W        W20408  41.891   8.579   0.240
48149W        W20409  23.257   1.390   2.731
48150W        W20410  42.835  43.528  12.110
48151W        W20411  28.456  20.480  10.556
48152W        W20412  29.193  43.740  12.909
48153W        W20413  13.101  13.913   2.734
48154W        W20414  26.195  15.762   1.741
48155W        W20415   8.419  24.200   2.252
48156W        W20416  16.236  31.768  13.461
48157W        W20417  41.862  21.932   4.209
48158W        W20418  41.896  17.032   0.499
48159W        W20419   7.153   7.399   4.204
48160W        W20420  37.132   5.811   1.278
48161W        W20421  15.183  35.633   1.834
48162W        W20422  44.735   6.937   1.196
48163W        W20423  25.716  32.481   0.479
48164W        W20424  14.038  27.373   2.864
48165W        W20425  21.742  18.070  11.261
48166W        W20426  26.456  19.063   3.539
48167W        W20427  16.190  19.046   2.377
48168W        W20428  38.559  36.579  11.721
48169W        W20429  10.402  13.099   2.854
48170W        W20430  32.217  31.933  14.814
48171W        W20431  17.691  18.261   2.219
48172W        W20432   8.721  38.018  14.474
48173W        W20433  33.349   0.517  12.502
48174W        W20434  15.342  43.921   1.797
48175W        W20435  38.925  12.017  14.542
48176W        W20436  38.237  14.200  11.953
48177W        W20437  15.375   0.316   0.520
48178W        W20438  18.198  15.766  10.537
48179W        W20439  32.729  16.214   0.515
48180W        W20440  17.326  23.310   4.639
48181W        W20441  30.870  28.684   1.220
48182W        W20442  33.052  10.697  14.237
48183W        W20443  36.912  22.511   2.594
48184W        W20444   8.404  10.469  12.138
48185W        W20445   6.661  10.349  13.920
48186W        W20446  26.680  29.414  14.903
48187W        W20447   5.933  13.036   1.877
48188W        W20448  12.425  28.192   0.554
48189W        W20449  35.966  23.252   4.568
48190W        W20450  14.567  29.618   0.336
48191W        W20451   6.728  24.437  12.383
48192W        W20452  44.234   1.284  12.884
48193W        W20453  17.887  19.562   0.627
48194W        W20454   5.050   7.228  11.612
48195W        W20455  13.949  22.623   2.386
48196W        W20456  23.869  10.631  11.090
48197W        W20457  39.370   5.206  14.013
48198W        W20458  23.878  23.084  14.360
48199W        W20459   5.938   4.742  12.636
48200W        W20460  16.882  13.190   4.905
48201W        W20461  33.148  16.779  14.946
48202W        W20462  31.587  20.053  12.313
48203W        W20463  39.288   6.749   4.017
48204W        W20464  14.722  35.057   4.407
48205W        W20465   0.972   5.068   1.933
48206W        W20466  10.774  25.576  12.925
48207W        W20467  30.530  20.318   0.826
48208W        W20468   1.421  15.133   3.752
48209W        W20469  32.033  40.301  12.389
48210W        W20470   5.396  21.216  13.307
48211W        W20471  10.250  44.320   4.297
48212W        W20472  21.299  13.028  11.951
48213W        W20473  10.204  41.829   1.763
48214W        W20474  26.970  11.948  13.031
48215W        W20475  12.753   3.259   0.400
48216W        W20476  26.431   4.988  13.576
48217W        W20477   5.051  34.415   1.389
48218W        W20478  43.727  37.470  11.491
48219W        W20479  44.509  43.964   1.366
48220W        W20480  41.926  15.041   3.162
48221W        W20481  39.347   9.793  14.261
48222W        W20482  19.286  32.124   4.191
48223W        W20483  38.318  17.120  12.052
48224W        W20484   2.909  41.486   0.908
48225W        W20485  22.580   5.141  10.684
48226W        W20486  42.279   1.139   4.530
48227W        W20487  12.627  39.235  11.927
48228W        W20488   1.177  39.011  14.047
48229W        W20489  27.049  10.140  13.057
48230W        W20490  17.166   5.676   3.355
48231W        W20491  11.263  34.488  12.931
48232W        W20492  25.929  31.388   2.937
48233W        W20493   1.443  26.099  13.605
48234W        W20494  11.716  21.211  11.988
48235W        W20495  42.970  30.412   0.922
48236W        W20496  12.772  15.327  10.239
48237W        W20497  36.969  19.372   1.841
48238W        W20498  15.776  21.068  11.087
48239W        W20499   0.457  31.945  11.732
48240W        W20500  38.422  40.997  14.454
48241W        W20501  32.122   5.641  12.107
48242W        W20502  13.882  15.612  12.955
48243W        W20503  36.894  30.083   3.196
48244W        W20504  17.988  35.882   4.972
48245W        W20505  28.116  30.385   4.150
48246W        W20506  20.687  17.181   0.994
48247W        W20507   2.310   8.198   0.377
48248W        W20508  20.456  30.875   2.877
48249W        W20509  26.071  39.879  13.548
48250W        W20510  43.581  17.129  13.368
48251W        W20511  19.501  15.156  14.209
48252W        W20512  29.478  17.734   1.031
48253W        W20513  39.031  31.656   1.179
48254W        W20514   0.853   0.727  12.645
48255W        W20515  41.472  38.357  14.728
48256W        W20516  14.196  42.773   2.196
48257W        W20517  12.212  42.350  11.508
48258W        W20518  40.855  12.440   1.384
48259W        W20519   0.240  33.638   0.361
48260W        W20520  11.528   3.404  14.381
48261W        W20521  19.976   3.214   4.709
48262W        W20522  19.743   8.075   3.259
48263W        W20523  41.362   6.488  13.169
48264W        W20524  18.034  35.811   3.200
48265W        W20525  22.729  12.311   2.406
48266W        W20526  21.476  44.805   0.076
48267W        W20527  30.719  22.776  11.955
48268W        W20528   4.151  13.642  12.682
48269W        W20529   6.853  33.350   4.851
48270W        W20530   4.461  32.990   3.626
48271W        W20531  17.798  24.564  11.642
48272W        W20532  15.630  40.398  14.025
48273W        W20533  12.311  25.487  14.537
48274W        W20534  44.887  33.253   4.074
48275W        W20535  37.614  15.159  14.301
48276W        W20536  24.596  18.427  13.381
48277W        W20537  32.574  27.467   3.696
48278W        W20538   4.506   5.954  14.427
48279W        W20539   6.447  44.242   5.050
48280W        W20540  27.449  42.340  13.189
48281W        W20541  23.019  10.886   3.601
48282W        W20542  16.506  33.994   3.936
48283W        W20543   6.320   0.103   0.414
48284W        W20544  44.799  13.262   4.525
48285W        W20545  16.433   3.869   2.703
48286W        W20546  44.595   4.669   2.945
48287W        W20547  11.925  36.608  12.432
48288W        W20548  29.346   4.378  11.495
48289W        W20549  12.651  38.968   1.281
48290W        W20550  24.714   5.810   4.869
48291W        W20551   4.220  31.451   3.656
48292W        W20552   2.481  15.062   4.720
48293W        W20553  41.420   6.175   0.964
48294W        W20554  21.401  28.366   1.161
48295W        W20555  13.651   1.182  11.710
48296W        W20556   0.862  42.538  12.469
48297W        W20557  30.806  12.266  14.888
48298W        W20558  18.973  34.054   1.078
48299W        W20559  25.938  16.164  12.579
48300W        W20560  25.957  40.545  12.781
48301W        W20561   4.392  25.466  13.653
48302W        W20562  36.110  43.681   1.350
48303W        W20563  27.964  33.905   2.913
48304W        W20564  35.503   8.673   1.147
48305W        W20565  44.980   6.380   0.376
48306W        W20566   6.790  43.863   3.733
48307W        W20567  37.917   1.229   4.655
48308W        W20568   3.681   6.212  11.487
48309W        W20569  10.426  18.932   0.801
48310W        W20570  28.009  32.338  11.323
48311W        W20571   2.237  43.294   4.294
48312W        W20572  30.019  37.125   3.842
48313W        W20573  27.551  18.823   2.806
48314W        W20574  39.397  34.690  10.624
48315W        W20575  44.002  21.578   2.830
48316W        W20576  27.326  44.348  11.937
48317W        W20577  39.397  25.194  13.252
48318W        W20578  15.318  37.533  12.590
48319W        W20579  16.724  13.671  11.752
48320W        W20580  33.836  41.058  13.243
48321W        W20581  29.184  20.090   1.993
48322W        W20582  39.239   1.093   0.299
48323W        W20583  14.811  14.385   2.867
48324W        W20584  29.134   4.274   3.658
48325W        W20585  34.570  41.732   2.313
48326W        W20586   4.047  42.887  11.609
48327W        W20587   6.238  13.388   4.132
48328W        W20588  37.965  15.141   0.506
48329W        W20589  44.970  17.404   1.269
48330W        W20590  23.758  18.084   0.778
48331W        W20591  15.165  13.366   1.883
48332W        W20592  16.232   4.935  12.426
48333W        W20593  42.225   6.260  13.334
48334W        W20594  28.063   8.462  13.483
48335W        W20595  23.213  29.510   4.579
48336W        W20596   8.776  22.157  12.437
48337W        W20597  35.349   2.951   2.740
48338W        W20598  33.601   0.480   1.716
48339W        W20599  37.051  22.016   2.701
48340W        W20600  37.973  36.015  11.528
48341W        W20601  17.115  10.533  14.053
48342W        W20602  21.123   8.343   0.025
48343W        W20603  25.675  37.296  10.083
48344W        W20604  18.769  39.290   2.219
48345W        W20605   7.621   4.458   2.597
48346W        W20606  16.892  22.804   2.943
48347W        W20607  40.968   8.130   2.465
48348W        W20608   6.237  25.947   1.837
48349W        W20609  37.297  36.595  14.991
48350W        W20610  24.019  27.611  12.617
48351W        W20611  42.742   2.000  13.497
48352W        W20612  43.756  31.978  10.678
48353W        W20613  39.349  40.852   4.211
48354W        W20614  44.817  20.247   3.932
48355W        W20615   5.901  44.441  10.744
48356W        W20616  16.327  42.875   0.282
48357W        W20617  34.801  13.281  12.811
48358W        W20618   3.382   1.810   4.159
48359W        W20619  24.244  17.633   4.142
48360W        W20620  34.999  25.951   1.199
48361W        W20621  10.399   7.925  14.484
48362W        W20622  27.043  40.221   3.642
48363W        W20623  14.414  27.573  11.519
48364W        W20624   2.401  29.135  13.950
48365W        W20625  15.588  22.242   0.242
48366W        W20626  42.046  29.930  13.495
48367W        W20627  14.824  14.089  13.456
48368W        W20628  38.606  19.800  13.799
48369W        W20629  44.506   2.841   0.685
48370W        W20630  34.393   5.934  11.762
48371W        W20631  35.560   2.480  12.574
48372W        W20632   8.819  31.484   1.270
48373W        W20633  33.177  42.460   2.343
48374W        W20634   9.635  23.424   2.500
48375W        W20635  21.474  33.170   0.808
48376W        W20636  40.699  14.652  12.150
48377W        W20637  15.751   9.684  14.390
48378W        W20638  18.749  19.071   4.978
48379W        W20639  36.554  14.045   0.032
48380W        W20640  18.748  38.827  14.845
48381W        W20641  29.465   7.010   2.201
48382W        W20642   4.344  30.072   2.326
48383W        W20643  35.786  30.407  11.256
48384W        W20644  38.049  13.267  14.289
48385W        W20645  22.797  10.904   1.115
48386W        W20646  28.159  32.410   0.722
48387W        W20647  34.821  30.093  13.859
48388W        W20648  12.254  27.390  11.525
48389W        W20649   5.312  29.834   2.932
48390W        W20650  12.626   1.755   1.696
48391W        W20651  38.169  11.907  14.708
48392W        W20652  17.574  41.713   3.648
48393W        W20653  22.201  27.967  10.205
48394W        W20654   2.256  21.804  11.470
48395W        W20655  25.029   7.218   2.778
48396W        W20656   5.304  30.639   1.869
48397W        W20657   8.892  38.801  12.115
48398W        W20658  43.387  25.971  12.574
48399W        W20659   0.708  30.434   2.580
48400W        W20660  41.823   7.831   0.991
48401W        W20661  42.307  13.625   1.335
48402W        W20662  38.727  18.673  14.804
48403W        W20663  36.260   1.491   0.426
48404W        W20664  18.800  19.566   5.050
48405W        W20665  40.502  19.833   1.022
48406W        W20666  26.634  28.470   1.122
48407W        W20667  30.058  30.972   4.704
48408W        W20668  18.157  10.829  10.489
48409W        W20669  27.588  27.184  12.326
48410W        W20670  25.109  26.095  13.796
48411W        W20671  39.840  11.607   4.284
48412W        W20672  28.901   7.168  11.489
48413W        W20673  25.273  42.054   1.433
48414W        W20674  19.436  15.668   1.852
48415W        W20675  25.074  24.168   4.098
48416W        W20676  13.048   7.709  14.842
48417W        W20677  43.694  42.524  12.846
48418W        W20678  39.232   9.135  11.023
48419W        W20679   4.763  27.886   1.913
48420W        W20680  23.112  28.743  14.089
48421W        W20681  23.891  35.926   2.808
48422W        W20682  15.695  25.542   3.388
48423W        W20683  36.256  21.688  10.594
48424W        W20684  18.756  13.074   2.704
48425W        W20685  17.084  44.360  13.354
48426W        W20686  14.001  41.634  14.493
48427W        W20687  22.685   6.826  11.113
48428W        W20688   9.363  10.844  11.446
48429W        W20689   4.669   2.291   4.160
48430W        W20690  41.014  17.037   4.257
48431W        W20691  36.640  10.795  11.483
48432W        W20692  17.143  40.384  12.470
48433W        W20693   7.763  25.885  12.991
48434W        W20694   1.748  40.657   1.603
48435W        W20695  25.545   2.235  12.883
48436W        W20696  39.796  32.447  11.605
48437W        W20697   9.439  19.568   4.734
48438W        W20698   0.476  30.143   1.239
48439W        W20699  10.762   8.411  14.758
48440W        W20700  38.019   7.431   1.244
48441W        W20701  35.345  25.659   2.422
48442W        W20702  32.624  36.359   0.442
48443W        W20703   2.831  10.640   3.732
48444W        W20704  29.156  29.820  13.474
48445W        W20705  43.490  27.830   0.797
48446W        W20706  15.883   9.246  13.518
48447W        W20707   0.842  32.900  14.564
48448W        W20708  14.626  38.559  12.878
48449W        W20709  29.012  38.266  11.051
48450W        W20710   3.770  43.327   1.518
48451W        W20711  35.194  35.897  10.759
48452W        W20712   7.288  34.478   4.380
48453W        W20713  28.990  10.661  11.568
48454W        W20714  27.190   1.333   0.327
48455W        W20715   8.604  22.538   1.491
48456W        W20716  27.190  13.134  12.849
48457W        W20717  34.013  41.697  10.932
48458W        W20718  20.516  14.570   4.130
48459W        W20719  31.695   7.310   2.444
48460W        W20720  23.151  15.654  10.649
48461W        W20721  13.077  33.929  13.888
48462W        W20722  37.488  32.134   4.643
48463W        W20723  16.288  10.751  12.474
48464W        W20724  26.216  16.061   4.884
48465W        W20725  20.117  16.380   3.076
48466W        W20726  15.860   8.668  11.030
48467W        W20727  30.842  12.788   3.127
48468W        W20728  18.757  26.016   2.262
48469W        W20729  37.226  12.305  14.465
48470W        W20730  33.313  18.628  13.372
48471W        W20731  13.071  34.846   1.743
48472W        W20732  14.819   7.221  12.352
48473W        W20733  38.514  39.348   1.541
48474W        W20734  32.270  14.125  12.982
48475W        W20735  14.437  23.036  13.385
48476W        W20736  26.438  16.833  10.066
48477W        W20737  39.365  35.548  13.507
48478W        W20738  32.163   2.656   3.326
48479W        W20739  23.251  35.616   2.498
48480W        W20740  31.939  31.942   2.098
48481W        W20741  27.188  20.749  11.018
48482W        W20742  12.635  19.023   0.373
48483W        W20743   8.264   0.515  12.119
48484W        W20744  40.910   8.457   4.097
48485W        W20745   0.317  36.780  11.121
48486W        W20746  23.637   4.300  14.035
48487W        W20747  20.623  14.272   1.110
48488W        W20748  26.513   8.673  14.365
48489W        W20749   1.853  40.012   3.211
48490W        W20750  13.524  11.670  14.068
48491W        W20751  34.958   4.293   1.794
48492W        W20752  44.607  40.922  13.941
48493W        W20753  42.306  40.574   4.491
48494W        W20754   4.693   2.085   0.706
48495W        W20755  44.549  18.291   2.155
48496W        W20756   6.919  21.660  12.687
48497W        W20757  42.037  13.266  11.655
48498W        W20758  26.160  15.307  13.385
48499W        W20759   6.178  34.143   1.789
48500W        W20760  11.961  11.659  12.860
48501W        W20761   4.928  30.318  12.342
48502W        W20762  43.711  23.171   2.739
48503W        W20763  31.123   8.792  12.925
48504W        W20764  20.124   8.357  11.533
48505W        W20765  10.687  32.571   3.092
48506W        W20766  12.157  42.233   2.346
48507W        W20767  37.468   6.950  10.635
48508W        W20768  26.611  10.664   0.481
48509W        W20769   5.325  36.195  13.924
48510W        W20770  24.472  36.580   4.586
48511W        W20771   2.316  13.742   0.015
48512W        W20772  30.152   2.311  11.535
48513W        W20773   3.914  30.080  12.434
48514W        W20774  28.082   0.819   4.547
48515W        W20775  44.393  26.699   0.503
48516W        W20776   4.537  37.346  12.925
48517W        W20777  43.426  19.549  13.577
48518W        W20778  40.557  43.899  14.927
48519W        W20779  41.377   5.385  14.833
48520W        W20780  20.525  37.644   2.759
48521W        W20781  34.076   7.163  13.619
48522W        W20782  40.725  20.551  12.010
48523W        W20783   8.173  39.207   1.841
48524W        W20784  36.027   9.775  11.908
48525W        W20785  26.554  25.672  14.961
48526W        W20786   5.427  43.468   2.716
48527W        W20787  11.680  43.121  11.591
48528W        W20788  16.734  19.139  10.405
48529W        W20789  20.479   9.655   2.782
48530W        W20790  44.526  39.352  10.830
48531W        W20791  44.653  12.702  14.877
48532W        W20792  38.059  24.297  14.924
48533W        W20793  43.809  36.802  12.533
48534W        W20794  16.916   2.268   2.231
48535W        W20795   7.890   2.389  14.450
48536W        W20796  27.417  19.912   2.686
48537W        W20797   7.709  13.144  14.526
48538W        W20798   0.352   6.927  11.733
48539W        W20799   9.873  20.250   3.680
48540W        W20800  24.555  30.338   1.991
48541W        W20801  31.465  16.820   3.760
48542W        W20802  34.958  44.229  14.844
48543W        W20803  38.441  41.426  11.448
48544W        W20804  36.048  13.803   1.337
48545W        W20805  27.119   9.096  13.248
48546W        W20806  10.561  18.795   4.595
48547W        W20807  42.425  25.977  14.890
48548W        W20808  23.454  26.177   0.155
48549W        W20809   2.338   4.671  13.171
48550W        W20810  18.523  40.809   0.302
48551W        W20811  38.732  13.175   1.309
48552W        W20812  18.661  37.264   1.034
48553W        W20813  17.691   6.688   4.724
48554W        W20814   1.148   0.760   4.082
48555W        W20815   5.377  27.880  10.672
48556W        W20816  35.388  11.112   1.853
48557W        W20817  34.811  36.418   2.624
48558W        W20818  22.574   2.699   0.886
48559W        W20819  39.584  18.839  10.756
48560W        W20820  21.211  25.402   0.963
48561W        W20821   2.433  14.244  11.942
48562W        W20822   9.627  14.884  13.597
48563W        W20823  19.946  42.923   0.229
48564W        W20824  26.014  42.749  10.178
48565W        W20825   0.257  25.562   3.004
48566W        W20826  35.643  21.289   5.434
48567W        W20827  23.532   1.674  13.764
48568W        W20828  10.316  29.927   3.769
48569W        W20829  25.627   0.273   2.323
48570W        W20830  33.968  29.053   3.820
48571W        W20831  33.927  40.808   4.660
48572W        W20832  42.484  35.093  12.831
48573W        W20833  41.776  19.883   1.367
48574W        W20834  33.050  12.376  13.359
48575W        W20835  21.706  10.012   2.338
48576W        W20836   5.626  17.459  14.056
48577W        W20837  20.525  38.326  14.407
48578W        W20838  22.604   1.726  13.965
48579W        W20839   8.035  40.335  12.629
48580W        W20840  25.759  42.720  12.100
48581W        W20841  11.721  20.939   3.314
48582W        W20842  22.252  13.562  12.445
48583W        W20843  27.853   5.498  12.140
48584W        W20844  42.190  27.635   1.353
48585W        W20845   1.977   6.262   2.822
48586W        W20846  42.256  31.656   2.216
48587W        W20847  28.499  16.220   4.524
48588W        W20848  35.025  20.992  12.493
48589W        W20849   6.316  40.890   0.379
48590W        W20850  36.103  18.377  10.245
48591W        W20851  17.135  40.783   1.545
48592W        W20852   4.349  34.349   2.274
48593W        W20853  36.937   0.994   4.872
48594W        W20854  11.958  22.594   0.262
48595W        W20855  41.016   7.348   1.767
48596W        W20856  26.578  32.558   4.493
48597W        W20857  37.886  10.651  13.293
48598W        W20858   5.931   3.751  13.837
48599W        W20859  14.649  24.972   4.210
48600W        W20860   1.549  44.478  12.481
48601W        W20861  29.572  26.342   3.264
48602W        W20862  21.293  10.458  11.830
48603W        W20863  21.463  14.803   0.829
48604W        W20864  18.524  16.570  11.627
48605W        W20865  40.253  21.726  11.600
48606W        W20866  32.364   5.234  12.316
48607W        W20867  35.644  16.720   2.749
48608W        W20868  32.595  13.185   4.157
48609W        W20869  44.148   1.575   3.243
48610W        W20870  37.972  25.565  13.421
48611W        W20871  37.796   4.417   3.798
48612W        W20872  31.394   1.507  12.923
48613W        W20873   3.039  40.733  11.440
48614W        W20874  11.279   4.358   4.117
48615W        W20875  37.356  25.924  13.400
48616W        W20876  33.387   7.187  14.511
48617W        W20877  22.930  41.907   3.817
48618W        W20878  43.870  33.431  11.834
48619W        W20879  33.985  33.684  13.561
48620W        W20880   7.709  40.870  10.532
48621W        W20881  23.616  28.739   4.468
48622W        W20882  36.060  44.452   5.090
48623W        W20883   2.119  44.714   4.358
48624W        W20884  17.764  19.972  10.735
48625W        W20885  43.891  20.176  12.516
48626W        W20886   5.767  21.066   2.797
48627W        W20887  41.210   9.444  13.423
48628W        W20888  36.217  14.161  12.842
48629W        W20889  28.151  38.422   2.181
48630W        W20890   2.674  42.252  12.370
48631W        W20891  36.324   4.223   0.746
48632W        W20892  16.011  16.846  13.161
48633W        W20893  21.166  14.937   4.927
48634W        W20894  18.142   9.746   4.933
48635W        W20895  18.442  32.430  14.950
48636W        W20896  19.016  16.789   3.780
48637W        W20897  12.649  32.911   2.301
48638W        W20898  10.162  41.002   2.107
48639W        W20899   0.661  27.726   4.237
48640W        W20900  33.642  21.970   2.785
48641W        W20901  36.076  36.742   4.602
48642W        W20902  44.741  10.433   2.646
48643W        W20903   8.722   3.194   1.313
48644W        W20904   4.812  35.157  12.826
48645W        W20905  39.557  31.965   1.631
48646W        W20906  24.263  15.986  11.159
48647W        W20907  37.786  22.112  10.966
48648W        W20908  13.563  15.032   5.062
48649W        W20909  13.067   4.292  10.676
48650W        W20910  28.134   3.788   4.677
48651W        W20911   4.697  13.242   0.058
48652W        W20912   5.210  29.588  14.308
48653W        W20913  29.997  38.806   4.801
48654W        W20914  13.751  20.452   4.676
48655W        W20915  41.007  36.487  14.121
48656W        W20916  44.604  23.939   1.821
48657W        W20917  32.004  40.899   0.952
48658W        W20918  11.136  13.242   3.254
48659W        W20919  10.667  12.747  11.514
48660W        W20920  19.633  13.290  13.803
48661W        W20921   4.171  10.294   2.450
48662W        W20922  27.668  38.014   3.371
48663W        W20923  35.072  28.389  10.684
48664W        W20924   2.036  21.688  14.297
48665W        W20925  34.895  22.060   3.747
48666W        W20926  18.373  19.520  11.211
48667W        W20927  27.973  32.189  13.531
48668W        W20928  10.672   1.186   3.261
48669W        W20929   3.772  10.769  14.522
48670W        W20930   4.469  22.602   0.569
48671W        W20931  22.646  36.347   1.094
48672W        W20932  19.787   3.968   1.175
48673W        W20933   9.752  38.128   2.275
48674W        W20934   1.358  18.984   2.989
48675W        W20935  14.658  22.002  10.637
48676W        W20936   6.233  34.833   0.836
48677W        W20937  12.209  29.578   4.142
48678W        W20938  44.990  42.307   2.063
48679W        W20939  32.377   1.459   3.755
48680W        W20940  32.910  18.721  11.537
48681W        W20941  28.455   3.116   3.795
48682W        W20942  27.089  17.072   0.300
48683W        W20943  16.570  34.683   0.862
48684W        W20944  12.251  10.120  14.923
48685W        W20945  36.996  33.513   3.548
48686W        W20946  23.152  32.139  14.511
48687W        W20947   5.814  16.177  14.061
48688W        W20948   6.719  32.507  13.434
48689W        W20949  28.693  40.423  14.684
48690W        W20950  28.090  24.995  11.599
48691W        W20951  29.211  25.783   1.424
48692W        W20952   1.844  31.176   3.221
48693W        W20953   7.811  17.964   4.654
48694W        W20954  39.460  33.336  13.021
48695W        W20955  25.896   8.600   2.797
48696W        W20956  41.237  20.089   1.956
48697W        W20957  22.724   6.264   2.371
48698W        W20958   4.821  25.210   4.384
48699W        W20959   1.909  35.051   1.052
48700W        W20960  28.744  34.921   3.153
48701W        W20961  38.515  27.936  14.887
48702W        W20962  24.647  15.517   1.877
48703W        W20963  18.673  28.511  10.459
48704W        W20964  32.177  39.406   0.135
48705W        W20965  14.248  17.538   5.129
48706W        W20966  34.791  28.998  10.056
48707W        W20967  20.689   0.795   3.233
48708W        W20968  17.589  39.853   4.613
48709W        W20969   2.216  10.342   1.335
48710W        W20970  34.346  19.292   3.203
48711W        W20971  32.007  28.956  12.957
48712W        W20972   3.123   5.273  13.452
48713W        W20973   9.791  28.874   4.647
48714W        W20974  12.390  27.163  11.073
48715W        W20975  15.020  26.002   1.115
48716W        W20976  26.280  26.710  10.222
48717W        W20977   7.736  35.060  10.590
48718W        W20978   8.190  22.387   0.757
48719W        W20979  39.699  10.537   5.230
48720W        W20980  27.385   3.180   1.722
48721W        W20981  44.236   4.512  13.771
48722W        W20982   3.144  43.016  10.848
48723W        W20983  10.911  22.453  14.438
48724W        W20984  13.265   0.912   1.289
48725W        W20985  28.446  22.328   4.654
48726W        W20986  19.058  34.044  10.982
48727W        W20987  38.490   1.772   4.412
48728W        W20988  32.011  36.006  13.753
48729W        W20989  44.762   2.762  12.019
48730W        W20990  37.388  12.939   2.280
48731W        W20991  24.523  25.177  12.927
48732W        W20992  25.210  37.541   3.651
48733W        W20993  32.863  27.432   3.178
48734W        W20994  34.677  31.007   3.323
48735W        W20995  10.599  44.069   2.562
48736W        W20996  18.945  21.700   0.419
48737W        W20997   8.756   9.792  11.590
48738W        W20998  18.073  33.757  10.444
48739W        W20999  37.360   9.936   1.063
48740W        W21000  19.805   6.263   3.276
48741W        W21001   3.122  15.320   0.769
48742W        W21002   6.812   3.985  10.779
48743W        W21003  21.789  16.456   0.035
48744W        W21004  30.704  44.502   2.383
48745W        W21005  37.426  11.290  13.401
48746W        W21006  21.172   7.725  10.707
48747W        W21007   7.732  14.126  13.452
48748W        W21008  12.100  13.581   0.701
48749W        W21009  44.878  11.021  10.939
48750W        W21010  23.131  39.572   3.218
48751W        W21011  23.488  34.580  11.942
48752W        W21012  39.790  16.257   1.934
48753W        W21013  18.601  32.755  12.375
48754W        W21014   0.006   3.681  10.772
48755W        W21015   8.450  19.589   3.175
48756W        W21016  13.632  44.010  14.764
48757W        W21017   0.227  14.179  12.029
48758W        W21018   9.318  13.831  12.383
48759W        W21019  36.693  14.396   2.731
48760W        W21020   5.019  28.704  14.404
48761W        W21021  43.794   2.501   0.412
48762W        W21022  13.171   8.185  12.505
48763W        W21023   4.263  37.335   4.082
48764W        W21024  23.360   1.787  14.245
48765W        W21025  34.311  35.985  12.887
48766W        W21026  28.461   4.065  12.762
48767W        W21027  41.535  37.772  14.001
48768W        W21028  10.549   5.331   3.246
48769W        W21029  38.297  24.157   3.294
48770W        W21030  14.047  22.410  14.542
48771W        W21031  18.278  40.605   4.838
48772W        W21032   7.278   1.929   1.141
48773W        W21033  18.908  43.918   0.048
48774W        W21034   8.281  28.083  12.693
48775W        W21035  13.810   5.803   1.882
48776W        W21036  35.580   7.425   3.394
48777W        W21037  23.103  38.936   0.170
48778W        W21038  11.745  40.519  10.693
48779W        W21039  12.897  37.004  12.436
48780W        W21040  22.643  16.980   4.219
48781W        W21041   8.977  23.207   1.950
48782W        W21042  41.385  23.103  10.758
48783W        W21043   4.427  41.557  14.991
48784W        W21044  11.715  43.048   0.229
48785W        W21045  22.275  11.763  10.530
48786W        W21046  13.643   6.619  13.637
48787W        W21047   8.339   3.795  14.775
48788W        W21048  44.893  32.502  14.371
48789W        W21049  27.749  42.436   2.243
48790W        W21050  22.075  33.462  12.285
48791W        W21051   5.265   9.409  14.052
48792W        W21052  14.548  41.363  13.054
48793W        W21053  25.102  13.984  11.103
48794W        W21054  28.275  13.604  13.957
48795W        W21055   3.267  14.058  12.038
48796W        W21056  31.389   9.753   3.915
48797W        W21057  19.037  30.145  11.010
48798W        W21058  12.545  22.173  14.237
48799W        W21059  10.075  12.614   2.773
48800W        W21060  41.375  23.254   1.388
48801W        W21061  43.757   7.186   3.660
48802W        W21062  17.006   5.127  11.027
48803W        W21063  19.124  34.138  13.320
48804W        W21064   5.962  10.722   4.886
48805W        W21065  41.819  18.802  12.070
48806W        W21066  26.895  23.015   4.643
48807W        W21067  21.096   6.645   3.682
48808W        W21068  14.563  43.503   0.746
48809W        W21069   6.064  38.200   0.316
48810W        W21070  36.047  41.539   4.604
48811W        W21071  37.814  23.511  11.097
48812W        W21072  31.590  39.598   0.444
48813W        W21073   6.477  24.381   0.390
48814W        W21074  36.127   4.696   2.889
48815W        W21075   0.803  36.181   0.343
48816W        W21076  18.233  34.323   0.511
48817W        W21077  39.605  28.592  14.809
48818W        W21078  20.652   1.668  13.406
48819W        W21079   4.564  26.692   4.177
48820W        W21080  39.953  26.962   1.836
48821W        W21081  26.571  25.484  11.975
48822W        W21082   2.665  24.489  14.968
48823W        W21083  26.562  18.645  10.719
48824W        W21084  42.002  35.426  14.024
48825W        W21085  19.657   1.031  11.250
48826W        W21086  14.288  39.853   0.376
48827W        W21087  19.560   1.880  14.427
48828W        W21088   2.809   7.895   3.717
48829W        W21089  27.453  32.610  12.000
48830W        W21090  13.166   3.919   2.049
48831W        W21091  44.606  24.039  11.937
48832W        W21092  23.438  37.528  12.907
48833W        W21093  41.146  13.845  10.597
48834W        W21094  30.128  38.405  13.012
48835W        W21095  36.300  43.761  13.888
48836W        W21096  28.453  13.219   4.208
48837W        W21097  40.306   7.478   2.455
48838W        W21098  13.309  26.544  10.226
48839W        W21099   9.961   6.416  12.064
48840W        W21100  31.691   3.265  13.812
48841W        W21101  19.066  15.194   2.926
48842W        W21102  23.692  25.241   0.988
48843W        W21103  43.350  37.327  10.579
48844W        W21104  10.312   2.201  13.322
48845W        W21105  36.994  25.156   0.839
48846W        W21106  35.904  28.851   2.013
48847W        W21107  25.939  24.509  12.513
48848W        W21108  21.966  10.857  14.827
48849W        W21109  17.214  36.634  10.680
48850W        W21110   0.906  40.471   3.978
48851W        W21111  35.360  20.545   5.216
48852W        W21112  21.299  34.945  13.265
48853W        W21113  41.036  26.654   3.106
48854W        W21114   1.393  21.776   0.325
48855W        W21115  21.211  39.802   0.818
48856W        W21116  44.223  20.718   1.434
48857W        W21117  29.623  17.492  12.060
48858W        W21118  16.520  37.918  13.303
48859W        W21119  34.484  14.817   4.585
48860W        W21120  14.532  24.104  11.991
48861W        W21121  15.246  39.024   4.653
48862W        W21122  16.274  35.577  13.120
48863W        W21123  17.068  25.620   4.062
48864W        W21124  16.791  22.659  12.459
48865W        W21125  33.471   7.306   2.797
48866W        W21126  38.676  11.166   1.875
48867W        W21127  19.272  38.543   1.685
48868W        W21128  28.124  26.116  10.896
48869W        W21129  35.025  36.118  14.257
48870W        W21130  21.613   1.354  13.405
48871W        W21131  43.220   5.325  14.915
48872W        W21132   8.273  13.175   0.842
48873W        W21133  16.775   4.795   3.706
48874W        W21134   4.860  29.466  10.597
48875W        W21135  26.509  29.024  14.566
48876W        W21136   6.364  40.789  12.827
48877W        W21137  10.768  10.388   2.226
48878W        W21138  30.737  25.473  14.834
48879W        W21139   6.222  43.945   2.804
48880W        W21140  31.116  26.509   2.416
48881W        W21141  27.572  32.425   2.182
48882W        W21142  16.398  44.164   3.499
48883W        W21143  11.672  34.411   2.174
48884W        W21144  10.230   6.277  14.781
48885W        W21145  42.026  33.867  11.090
48886W        W21146  23.522   4.793  14.361
48887W        W21147   0.623  19.913  11.068
48888W        W21148   7.441  18.339  12.468
48889W        W21149  21.543  17.977   2.662
48890W        W21150  40.895  33.048  11.024
48891W        W21151   2.242  13.583   2.371
48892W        W21152  33.077   6.704   2.831
48893W        W21153  10.213  32.025   1.592
48894W        W21154  37.989   0.852   1.912
48895W        W21155  22.439   3.241  11.150
48896W        W21156   9.322  13.613   4.816
48897W        W21157  22.233  15.699   2.721
48898W        W21158  17.587  31.573  12.529
48899W        W21159  34.892  28.021   2.634
48900W        W21160   4.232  23.796   1.338
48901W        W21161  28.721  13.186   1.578
48902W        W21162  18.268  31.567   2.307
48903W        W21163  38.021  23.752  14.885
48904W        W21164  38.333   1.728   1.845
48905W        W21165  24.513  29.919   0.826
48906W        W21166  42.282  15.690  12.010
48907W        W21167  27.926  23.457  14.077
48908W        W21168  12.123  28.305   5.464
48909W        W21169  10.257  36.033  14.298
48910W        W21170  14.175  29.658  13.833
48911W        W21171   1.522  31.544   2.512
48912W        W21172   5.660   1.850  10.937
48913W        W21173  29.938  22.269   2.159
48914W        W21174  37.764  37.472   4.189
48915W        W21175  42.221  23.682   1.236
48916W        W21176   7.230  31.061  10.939
48917W        W21177  20.498  16.355  12.541
48918W        W21178  13.441  19.720   0.836
48919W        W21179  11.139  21.560  14.025
48920W        W21180  27.969  14.332  14.808
48921W        W21181  26.883  43.373  11.697
48922W        W21182  17.113  34.833  13.248
48923W        W21183  10.831  37.145   4.986
48924W        W21184  12.574  16.563   1.821
48925W        W21185  30.639   1.751   4.145
48926W        W21186  14.656   2.675   1.216
48927W        W21187  38.393  23.918   1.668
48928W        W21188  34.921  24.211   2.248
48929W        W21189  40.974  19.638   0.421
48930W        W21190  33.285  35.335  10.810
48931W        W21191  15.631  12.556  11.171
48932W        W21192   3.411  33.341   4.613
48933W        W21193  27.536  43.347   1.182
48934W        W21194  11.651  20.752  10.330
48935W        W21195  31.179   3.595  10.500
48936W        W21196  17.702  29.627   4.855
48937W        W21197  40.293  31.541  12.491
48938W        W21198   4.299  10.094  13.791
48939W        W21199  10.901  41.380   3.420
48940W        W21200   0.153  34.185  14.493
48941W        W21201  17.109   4.683  14.830
48942W        W21202  10.173  32.471   5.245
48943W        W21203  13.326  44.468   4.184
48944W        W21204  12.276  23.378   2.640
48945W        W21205  15.317  37.798  14.856
48946W        W21206   8.875   1.648   2.324
48947W        W21207  31.011  41.009   1.953
48948W        W21208  21.057  19.711  13.888
48949W        W21209  22.652  24.182   4.198
48950W        W21210  33.344  32.570  14.850
48951W        W21211   3.699  30.671  11.527
48952W        W21212   4.738   2.452  14.010
48953W        W21213   2.659  25.622  13.780
48954W        W21214  42.360   2.456   4.213
48955W        W21215  19.056  22.018  13.820
48956W        W21216  15.652  27.118   2.334
48957W        W21217  13.283  39.360   5.054
48958W        W21218  29.970  14.643  10.452
48959W        W21219  41.958  34.864  12.017
48960W        W21220   2.552   0.651   0.161
48961W        W21221   1.981   9.690   4.288
48962W        W21222  33.304  21.604  14.043
48963W        W21223  19.494   3.810  14.369
48964W        W21224   5.783  33.564  10.966
48965W        W21225   3.489  33.482   2.772
48966W        W21226   7.178   5.954  11.078
48967W        W21227  24.542  19.484   0.370
48968W        W21228  39.369   1.195   1.696
48969W        W21229  21.450   6.242   1.882
48970W        W21230   7.919  29.048  12.249
48971W        W21231  39.003   4.859   3.737
48972W        W21232   7.905  33.336   4.128
48973W        W21233  43.925   3.482   1.584
48974W        W21234  10.702  12.269  13.079
48975W        W21235  41.722  15.604  12.021
48976W        W21236  32.124   3.273   1.734
48977W        W21237  37.859  34.003   4.585
48978W        W21238  19.578  15.212   1.659
48979W        W21239  36.498   5.328  12.199
48980W        W21240  38.966  17.188   4.152
48981W        W21241  20.442  36.524  11.907
48982W        W21242  20.957   3.007   4.611
48983W        W21243  16.550  37.321   2.346
48984W        W21244  43.069  35.089   4.081
48985W        W21245  11.722  20.544   2.895
48986W        W21246  37.486   4.413   3.088
48987W        W21247  14.156  20.524  14.643
48988W        W21248  36.426  44.009   1.623
48989W        W21249  12.147  26.585  10.407
48990W        W21250  32.691  31.682   0.774
48991W        W21251  11.792  39.595   2.382
48992W        W21252   3.875  12.429   4.537
48993W        W21253  14.659  14.328  13.889
48994W        W21254   1.826   0.263  12.123
48995W        W21255  14.234  25.075  14.636
48996W        W21256  43.209  18.230   3.605
48997W        W21257   0.850  35.915  14.892
48998W        W21258  23.601   5.330  13.869
48999W        W21259  42.823  14.542   2.169
49000W        W21260  29.426  22.757  14.801
49001W        W21261  15.827  44.088  11.464
49002W        W21262  12.537  13.568  11.115
49003W        W21263  41.995  29.004   5.109
49004W        W21264  35.824  40.094   0.325
49005W        W21265  30.142  19.311  14.401
49006W        W21266  34.881  33.088   1.418
49007W        W21267  14.850  24.601  11.201
49008W        W21268  33.939  28.195  11.551
49009W        W21269   7.160  30.068   0.782
49010W        W21270  13.882  33.356  14.775
49011W        W21271  11.680   1.653  14.969
49012W        W21272  27.187   1.529  11.176
49013W        W21273  41.066   9.691   4.904
49014W        W21274   0.395  30.053   3.130
49015W        W21275  34.302   5.754   4.080
49016W        W21276  20.953  27.725   2.683
49017W        W21277  11.660   6.998  14.382
49018W        W21278  40.324  41.249  10.294
49019W        W21279  10.710   6.158  10.571
49020W        W21280  31.995  11.474   0.475
49021W        W21281  42.972  38.831  14.508
49022W        W21282  18.035  37.385  14.402
49023W        W21283  38.284  23.047   3.664
49024W        W21284  43.425  13.038  11.577
49025W        W21285  17.338  14.414   3.556
49026W        W21286   4.221  10.441  13.422
49027W        W21287  32.048  15.728  14.988
49028W        W21288  29.051   3.620   1.882
49029W        W21289  14.739   5.847   2.477
49030W        W21290  28.061   6.346   1.861
49031W        W21291   3.524  22.061   3.636
49032W        W21292  16.659  13.392   3.304
49033W        W21293  23.657  20.756   3.802
49034W        W21294  16.283  26.055  13.976
49035W        W21295  26.839  34.720  14.829
49036W        W21296   3.922   8.875   1.186
49037W        W21297   6.151  12.105   3.724
49038W        W21298  23.638  44.585   4.184
49039W        W21299   6.896   6.452   0.831
49040W        W21300  25.574  30.516   1.153
49041W        W21301  16.780  28.093  12.428
49042W        W21302   5.226  22.933   0.207
49043W        W21303  25.009  19.685   0.550
49044W        W21304  23.041  13.262  14.464
49045W        W21305   8.944  21.658  12.324
49046W        W21306   5.924   7.091   3.877
49047W        W21307  24.112  17.090  13.592
49048W        W21308  19.302   5.709   0.319
49049W        W21309  44.070  14.108   3.245
49050W        W21310   1.573  17.203  11.434
49051W        W21311   8.986   2.433   0.950
49052W        W21312  26.632  16.637   1.795
49053W        W21313   9.669  43.658  12.886
49054W        W21314  33.501   4.398  14.129
49055W        W21315  41.419  22.943  13.824
49056W        W21316   0.808  39.391   4.314
49057W        W21317   1.409  37.956  13.567
49058W        W21318  43.664  30.828  14.792
49059W        W21319  22.511  28.512  14.956
49060W        W21320  23.933  41.274  12.020
49061W        W21321  22.542  30.190  12.410
49062W        W21322   0.241   3.235   2.060
49063W        W21323  28.935  35.715  13.669
49064W        W21324  27.537  21.793   1.332
49065W        W21325  12.756   2.867  14.091
49066W        W21326   5.759  40.070  13.843
49067W        W21327   4.362  14.106   0.277
49068W        W21328  38.927   7.156  11.532
49069W        W21329  31.346  25.796  12.930
49070W        W21330  24.878  40.945   4.669
49071W        W21331  42.383  15.874   4.721
49072W        W21332  13.621  15.413  13.893
49073W        W21333  29.952  43.388  12.045
49074W        W21334  18.594  36.901  14.132
49075W        W21335  26.156   5.834  14.390
49076W        W21336  17.483   3.519   3.410
49077W        W21337  29.299  26.569   3.631
49078W        W21338  40.527  25.526  11.149
49079W        W21339  18.827  42.199   4.138
49080W        W21340   9.144  36.070   2.786
49081W        W21341  11.336  36.603   4.615
49082W        W21342  42.387  30.870  14.375
49083W        W21343  25.671  24.580   4.520
49084W        W21344  42.876   2.200   3.078
49085W        W21345  19.681  28.538   0.863
49086W        W21346  28.533  41.309   3.592
49087W        W21347   6.830  28.690   5.031
49088W        W21348   2.927  22.830  13.098
49089W        W21349  36.645  25.739  11.217
49090W        W21350  25.285   1.683  10.613
49091W        W21351  18.512  38.700   4.370
49092W        W21352  29.150  13.213  11.278
49093W        W21353  20.673  13.995  14.553
49094W        W21354  17.481   7.304   2.699
49095W        W21355  20.237   3.259  10.580
49096W        W21356  20.364   9.974  12.470
49097W        W21357  22.978  35.732   2.930
49098W        W21358  38.059  27.301  11.151
49099W        W21359  42.235  18.569  14.962
49100W        W21360  13.662  31.728   1.282
49101W        W21361  23.913  26.613  11.565
49102W        W21362   6.437  20.076   0.456
49103W        W21363  38.125  24.003  13.489
49104W        W21364  14.248  14.848   2.460
49105W        W21365  31.431   6.383   2.391
49106W        W21366  32.515   7.850  13.796
49107W        W21367  18.795  31.525   2.318
49108W        W21368   8.866  35.429   1.337
49109W        W21369  35.379  29.444  13.349
49110W        W21370  18.116   1.782   3.774
49111W        W21371  13.305  27.074  10.848
49112W        W21372  35.881  42.524  13.969
49113W        W21373  34.043  23.515   0.713
49114W        W21374  22.111  19.712   0.910
49115W        W21375  20.812  24.591  12.426
49116W        W21376  22.059   9.270  13.054
49117W        W21377  13.091  42.417   0.289
49118W        W21378  39.032  19.418   4.575
49119W        W21379   2.433  44.986   0.388
49120W        W21380  19.277  39.469  11.151
49121W        W21381  28.428  39.526   0.387
49122W        W21382  10.242  15.603   3.071
49123W        W21383  18.737  33.114   1.881
49124W        W21384  33.806  12.746   3.248
49125W        W21385   2.443  43.442   0.591
49126W        W21386   9.845  43.226   1.224
49127W        W21387  33.117  22.480  13.855
49128W        W21388  16.382   2.609   0.774
49129W        W21389  30.047  34.517   0.310
49130W        W21390  41.400  24.739   3.175
49131W        W21391   4.059   4.982  13.739
49132W        W21392  35.727  19.351  14.440
49133W        W21393  18.904   2.388   3.369
49134W        W21394  18.104  36.540   4.261
49135W        W21395  18.731  36.821  11.920
49136W        W21396  28.612  26.320  12.549
49137W        W21397  43.952  36.106   3.743
49138W        W21398  42.668  36.089   2.273
49139W        W21399  36.752  14.316   0.834
49140W        W21400   0.082   4.773   4.302
49141W        W21401  40.324   7.110   2.818
49142W        W21402  42.438  35.765  13.967
49143W        W21403  12.278  12.673   0.297
49144W        W21404  36.189  21.537   1.775
49145W        W21405  37.276   2.804  12.938
49146W        W21406  32.987  34.864  14.513
49147W        W21407   8.876  18.029   0.763
49148W        W21408  21.999   7.335  12.039
49149W        W21409  27.402   7.534  11.658
49150W        W21410  20.284  38.973   3.748
49151W        W21411  33.098  24.669  11.444
49152W        W21412  22.645   6.704  14.417
49153W        W21413   4.910  31.371   1.309
49154W        W21414  20.757  32.521  12.443
49155W        W21415  31.418  40.950  12.137
49156W        W21416  10.715  33.520   1.685
49157W        W21417  44.465  27.092  12.388
49158W        W21418  36.754  26.670  10.990
49159W        W21419  42.832  16.197  12.887
49160W        W21420   4.301  29.592  12.424
49161W        W21421   7.331  27.398  13.941
49162W        W21422  30.202  31.567  12.956
49163W        W21423  44.985  13.044  12.496
49164W        W21424  19.473  29.834  13.017
49165W        W21425   9.411   1.798  13.583
49166W        W21426  35.546  33.531   4.486
49167W        W21427  26.738  27.002  14.855
49168W        W21428   3.587  43.679  14.322
49169W        W21429  17.964  10.168   4.093
49170W        W21430  14.349  33.713  12.091
49171W        W21431  18.583  37.894   3.186
49172W        W21432  26.136   7.977  11.154
49173W        W21433  38.567   4.161   1.012
49174W        W21434  35.971  39.565   4.064
49175W        W21435  21.591   4.168   1.888
49176W        W21436  30.511   3.288   2.183
49177W        W21437  40.201  13.250  12.985
49178W        W21438   0.982  23.347  14.052
49179W        W21439  18.609  26.594  11.880
49180W        W21440  39.084  19.283   2.453
49181W        W21441  40.484  31.836   0.948
49182W        W21442   1.457  13.401   3.095
49183W        W21443   1.464  38.134  12.231
49184W        W21444  33.836   1.280  11.627
49185W        W21445   1.816  29.885  12.361
49186W        W21446  20.623  18.596  11.371
49187W        W21447  17.108  14.516  11.865
49188W        W21448  20.702  24.536  14.493
49189W        W21449  20.933  23.731  10.592
49190W        W21450  12.263  20.830   1.807
49191W        W21451  10.842  36.011  13.940
49192W        W21452  27.209   4.332   3.718
49193W        W21453  17.710  36.469   0.211
49194W        W21454  40.445  33.417   1.467
49195W        W21455  15.085  25.106   0.002
49196W        W21456  22.160  24.229  10.639
49197W        W21457  16.761  36.074   2.806
49198W        W21458  40.869  30.756  11.113
49199W        W21459  20.698  11.227   0.550
49200W        W21460  36.784  32.505  14.474
49201W        W21461  17.100  30.771   1.732
49202W        W21462  15.654  35.499   3.690
49203W        W21463   5.544  17.827   5.114
49204W        W21464  10.848  30.275  12.942
49205W        W21465  29.936  10.146  11.588
49206W        W21466  44.489  36.668   2.498
49207W        W21467   4.647  33.018  12.877
49208W        W21468   9.390  22.055   1.793
49209W        W21469   7.661   1.437  13.527
49210W        W21470  12.221  24.096  10.651
49211W        W21471  15.759  17.555   0.717
49212W        W21472  29.143  27.585  11.518
49213W        W21473  15.400  43.653   2.337
49214W        W21474  35.493   5.713   0.209
49215W        W21475   7.292  19.556   1.193
49216W        W21476  12.260  10.772  12.867
49217W        W21477   3.023  40.524  13.197
49218W        W21478  16.417  41.846   5.057
49219W        W21479  12.705   7.760   3.674
49220W        W21480  32.635  39.906   2.804
49221W        W21481   9.851   9.723   2.013
49222W        W21482  40.415  38.825   4.951
49223W        W21483  20.443  33.900   2.276
49224W        W21484  43.883  12.887   1.747
49225W        W21485  42.765  38.857  11.479
49226W        W21486  23.520  19.837   1.183
49227W        W21487  27.028  44.985  12.140
49228W        W21488   3.890  34.647   2.126
49229W        W21489  12.365   3.002   0.001
49230W        W21490  21.923  12.351   0.256
49231W        W21491  28.838   3.131  12.685
49232W        W21492  34.880  25.274  14.996
49233W        W21493  42.552  31.148  13.381
49234W        W21494   4.945  33.893   3.197
49235W        W21495  16.857  17.564  13.002
49236W        W21496   7.181  33.537  12.063
49237W        W21497  24.808  19.334  13.603
49238W        W21498  13.864   2.893  10.652
49239W        W21499  10.543  23.677  11.661
49240W        W21500  30.172   8.758  12.045
49241W        W21501  29.568  19.578  13.042
49242W        W21502   2.532  28.522  12.875
49243W        W21503  19.671   4.854   0.326
49244W        W21504  32.378  36.639   3.171
49245W        W21505  43.891  31.282  14.690
49246W        W21506  33.093  14.556  11.250
49247W        W21507  40.888  42.733   4.643
49248W        W21508  19.996  32.453   0.030
49249W        W21509  36.202  35.786   4.756
49250W        W21510  29.459  34.606   2.808
49251W        W21511  33.537   8.580   0.052
49252W        W21512  12.826   6.608  11.980
49253W        W21513  29.749  30.987  13.632
49254W        W21514   4.646  11.650  11.601
49255W        W21515  11.803  39.453  14.457
49256W        W21516  24.086   9.586  12.458
49257W        W21517   0.662  38.430   0.936
49258W        W21518  25.026  16.083  13.861
49259W        W21519   0.984  13.933   3.804
49260W        W21520   1.753  23.695  10.396
49261W        W21521  34.000  35.044  14.630
49262W        W21522  18.228  12.400   1.441
49263W        W21523  35.435  22.594   2.782
49264W        W21524  10.882  12.640  11.036
49265W        W21525  33.661  24.036  13.288
49266W        W21526  11.111  41.050   0.667
49267W        W21527  42.813  14.478   0.273
49268W        W21528  25.193   2.043  13.457
49269W        W21529   6.342  13.331  14.332
49270W        W21530  43.473  22.709  11.240
49271W        W21531  17.495   2.874  14.403
49272W        W21532  32.578  26.446  12.967
49273W        W21533  12.179  42.727   2.247
49274W        W21534  18.165  10.613   0.270
49275W        W21535  43.736  13.807  13.552
49276W        W21536  19.749  39.158  11.517
49277W        W21537   8.886  32.439  12.184
49278W        W21538  44.992   8.323   1.443
49279W        W21539  33.571   1.640  14.962
49280W        W21540  13.128   3.761   1.085
49281W        W21541  36.810  39.795  10.227
49282W        W21542  30.828  12.580  13.540
49283W        W21543  10.006  28.594   0.982
49284W        W21544   8.139  36.685   4.293
49285W        W21545  32.666  17.314  14.447
49286W        W21546   2.406  20.614   1.940
49287W        W21547  28.640  25.104   1.070
49288W        W21548  31.690  14.233  10.933
49289W        W21549   8.832   5.653   1.538
49290W        W21550   3.551  28.617  13.027
49291W        W21551  21.616  21.034   3.140
49292W        W21552  30.710   2.980  10.958
49293W        W21553  11.708  10.871  13.619
49294W        W21554  34.197  44.253  10.701
49295W        W21555  26.004  34.889  13.022
49296W        W21556  23.908  24.190  14.065
49297W        W21557  35.995  27.151  14.779
49298W        W21558  35.845  35.004   1.394
49299W        W21559   4.225   6.402  13.982
49300W        W21560  44.568  43.985  12.072
49301W        W21561  15.523  33.143  10.885
49302W        W21562  14.276  40.675  13.562
49303W        W21563   2.493  32.651   3.785
49304W        W21564  44.555  27.679  13.106
49305W        W21565  19.689  10.753  14.369
49306W        W21566  27.648  17.435   3.050
49307W        W21567   3.947  23.019  13.372
49308W        W21568   0.707  40.074   2.703
49309W        W21569   0.781   9.874  13.052
49310W        W21570  41.535  38.781   3.624
49311W        W21571  30.561  27.504  11.696
49312W        W21572  19.000  18.164  12.027
49313W        W21573  41.236  21.163   3.675
49314W        W21574  34.894  40.333   5.236
49315W        W21575  19.695   4.921  13.393
49316W        W21576  21.256  41.916  12.846
49317W        W21577  21.067  43.364  12.380
49318W        W21578  29.460  25.550   3.759
49319W        W21579  39.344  28.596  11.183
49320W        W21580  15.758  17.658  13.773
49321W        W21581  44.337  12.222   2.893
49322W        W21582  33.814  34.634  11.064
49323W        W21583  25.083  44.891   4.824
49324W        W21584  26.409  10.064   5.011
49325W        W21585  22.589  22.892   1.659
49326W        W21586  37.539  39.547  12.390
49327W        W21587  44.780  35.344   0.979
49328W        W21588  10.814  33.419   3.636
49329W        W21589  27.092   1.096   2.768
49330W        W21590  44.252  26.922  13.245
49331W        W21591  38.363   2.326  10.355
49332W        W21592  37.889  16.039   1.770
49333W        W21593  17.138  23.704  12.363
49334W        W21594  20.256  34.105   2.752
49335W        W21595  16.217  14.651   1.343
49336W        W21596  39.768  22.690  13.363
49337W        W21597  23.761  22.204  13.305
49338W        W21598  24.624  39.381   3.234
49339W        W21599   9.199  32.532   2.306
49340W        W21600  14.024   6.939  13.516
49341W        W21601  33.140  38.018  12.064
49342W        W21602  13.293  21.693  11.675
49343W        W21603   9.120  38.126  10.652
49344W        W21604  34.751  15.082  12.105
49345W        W21605  20.204  40.971  12.198
49346W        W21606  38.454  26.761  13.074
49347W        W21607  31.926   4.748   1.456
49348W        W21608  35.649   4.899  13.837
49349W        W21609  39.022   1.443   1.113
49350W        W21610  25.566  32.362   4.538
49351W        W21611  39.824  23.569   3.206
49352W        W21612  27.030  11.684  14.866
49353W        W21613  24.542  41.809  12.632
49354W        W21614  24.244  35.717  12.935
49355W        W21615   7.980  40.852  11.563
49356W        W21616  10.137  24.418  11.964
49357W        W21617   4.902  17.801  14.766
49358W        W21618  27.493   1.000   1.283
49359W        W21619  18.710  39.396  12.950
49360W        W21620   6.875   7.631  11.545
49361W        W21621  35.733  20.863  11.890
49362W        W21622  25.842  36.158   4.040
49363W        W21623  25.604  39.477  14.435
49364W        W21624  32.554  32.067  13.077
49365W        W21625   7.533  12.169   4.523
49366W        W21626  24.437   2.445   1.431
49367W        W21627  38.559  38.815   0.024
49368W        W21628   6.609  22.288  13.119
49369W        W21629  10.217  16.056   1.285
49370W        W21630  40.353  16.060   3.666
49371W        W21631  30.770  14.885   0.463
49372W        W21632  41.007  37.532   4.177
49373W        W21633  41.812  35.047   3.550
49374W        W21634  35.395  20.618  11.627
49375W        W21635  34.659   9.908  11.622
49376W        W21636   8.553  43.239   0.616
49377W        W21637  34.446   5.293  11.438
49378W        W21638  10.325   0.423  10.482
49379W        W21639  41.443  23.980   3.703
49380W        W21640  10.878  42.931   3.229
49381W        W21641  15.684  11.003   3.717
49382W        W21642   1.411  16.801   0.045
49383W        W21643   1.908  21.315  13.365
49384W        W21644  22.552  41.297   1.330
49385W        W21645  20.663  40.438   3.809
49386W        W21646  20.406   1.411  11.088
49387W        W21647  10.763  12.756  12.399
49388W        W21648  19.001  11.726   3.708
49389W        W21649  20.708   7.953   4.464
49390W        W21650  26.177  39.472   9.908
49391W        W21651  27.324  42.787  11.101
49392W        W21652  21.028  37.480   4.600
49393W        W21653  24.561   1.909   4.592
49394W        W21654   8.646  15.071   2.573
49395W        W21655  11.473  13.827  12.102
49396W        W21656  21.303  23.015  10.927
49397W        W21657  23.279  12.842   0.318
49398W        W21658  39.806   3.570  14.020
49399W        W21659   9.752  12.584  14.560
49400W        W21660  30.424  41.599  13.895
49401W        W21661  11.155   6.921  12.353
49402W        W21662  35.963  20.555  14.067
49403W        W21663  16.620  42.203   4.314
49404W        W21664  14.902  34.096  10.641
49405W        W21665   1.261   7.294   1.039
49406W        W21666  41.486  10.013   4.110
49407W        W21667  37.698   2.335   0.940
49408W        W21668  39.987   4.316  10.380
49409W        W21669   7.675  19.626   1.849
49410W        W21670  12.854  39.850  12.640
49411W        W21671  26.171  32.466   0.224
49412W        W21672  26.012   8.832  14.321
49413W        W21673  39.263  17.153   4.570
49414W        W21674  44.755  19.385  12.060
49415W        W21675  10.158   5.855   1.484
49416W        W21676  14.925   4.436   2.838
49417W        W21677   9.681  15.295   3.603
49418W        W21678  21.189   4.044   2.222
49419W        W21679  11.869  33.665  13.090
49420W        W21680  35.492  30.185  11.628
49421W        W21681  21.770  11.816  12.427
49422W        W21682   8.873  31.299  13.372
49423W        W21683   3.391  22.574  12.551
49424W        W21684  33.643  17.099  14.027
49425W        W21685   8.872  20.735   0.295
49426W        W21686  40.559  22.111   4.195
49427W        W21687  35.471  22.047   3.344
49428W        W21688  35.317   7.528  11.144
49429W        W21689  41.309  24.491  14.962
49430W        W21690  16.849  23.646   5.044
49431W        W21691   4.850   0.065   3.522
49432W        W21692  14.979  16.223   0.227
49433W        W21693  25.111  25.925  12.821
49434W        W21694   2.409  44.572  10.317
49435W        W21695  42.006  30.025  11.600
49436W        W21696   3.453  22.947   0.799
49437W        W21697  21.607  35.802   2.910
49438W        W21698  34.465  33.199   0.446
49439W        W21699  29.131   8.843  14.948
49440W        W21700  38.262   4.018  14.821
49441W        W21701  13.641  44.032   2.403
49442W        W21702  38.391  25.770   0.858
49443W        W21703  16.364  26.947  10.785
49444W        W21704  30.963  18.746  10.490
49445W        W21705  12.060  18.133   2.234
49446W        W21706  32.713   2.328  12.469
49447W        W21707  33.839  19.193   3.896
49448W        W21708  21.857   6.584   1.788
49449W        W21709  33.501  17.652   1.904
49450W        W21710  27.112   5.788  13.445
49451W        W21711   6.329  41.389   3.752
49452W        W21712  28.568  17.144  10.712
49453W        W21713  19.697  43.414   3.908
49454W        W21714  15.448   0.111   2.839
49455W        W21715  22.817  23.628  14.747
49456W        W21716  33.400  42.844  14.554
49457W        W21717  20.388  30.111  11.185
49458W        W21718  39.330  26.195   0.792
49459W        W21719  44.548  29.430  12.184
49460W        W21720  16.376  10.696  13.433
49461W        W21721   5.304  28.992   1.449
49462W        W21722  19.284  36.427  12.732
49463W        W21723  28.229  27.886  14.174
49464W        W21724  37.833   8.744   2.562
49465W        W21725   2.901   3.943   3.171
49466W        W21726  32.543  31.159  12.479
49467W        W21727  20.769  19.871  12.829
49468W        W21728  18.295  27.118  12.987
49469W        W21729  27.962  11.394   0.276
49470W        W21730   3.719  44.537   0.522
49471W        W21731  42.563  13.862  12.980
49472W        W21732  42.640  14.337   1.738
49473W        W21733  14.658  19.045   2.374
49474W        W21734  39.634  28.844  11.833
49475W        W21735  43.501   4.820   3.169
49476W        W21736  35.068  42.395  14.958
49477W        W21737  33.351  33.363   0.864
49478W        W21738  31.027  18.181  13.834
49479W        W21739  18.321  17.245   2.135
49480W        W21740  12.168  11.256  12.617
49481W        W21741   4.619  11.801  10.283
49482W        W21742   2.738  23.786   4.859
49483W        W21743  26.221  32.028  14.979
49484W        W21744  10.095  43.391   1.662
49485W        W21745  15.178   7.435   1.910
49486W        W21746  37.372  35.568   3.603
49487W        W21747  13.817  10.718   1.917
49488W        W21748   3.009  15.858   1.220
49489W        W21749   6.703   2.510   0.514
49490W        W21750  33.912  16.706  13.827
49491W        W21751   4.279   5.474  12.997
49492W        W21752  29.547  16.903  10.778
49493W        W21753  42.040   4.315  10.689
49494W        W21754   0.745   7.953  14.540
49495W        W21755  41.551  11.300  13.586
49496W        W21756  12.905  38.347   2.305
49497W        W21757  18.095  25.916  12.160
49498W        W21758  19.777  38.675  11.320
49499W        W21759  12.717  23.503   4.878
49500W        W21760  31.118  17.092  11.438
49501W        W21761  23.981  10.755  13.774
49502W        W21762   7.463  13.210  13.687
49503W        W21763  16.910   4.500   2.784
49504W        W21764  25.478   2.152   3.626
49505W        W21765   3.337   2.767  11.830
49506W        W21766  14.401  41.246   4.141
49507W        W21767  20.911  37.383   2.961
49508W        W21768  41.593  42.854  11.410
49509W        W21769  37.107  20.653  10.333
49510W        W21770  36.624  39.330  10.946
49511W        W21771  44.047  26.457   0.847
49512W        W21772  19.681  14.859  12.864
49513W        W21773   4.304   5.775   4.450
49514W        W21774   6.261  17.167  11.882
49515W        W21775  14.090  25.058   2.444
49516W        W21776  28.069  26.117   0.719
49517W        W21777  16.705  15.839   2.030
49518W        W21778   0.083  14.650  13.965
49519W        W21779  31.869  17.012  10.910
49520W        W21780  27.686  19.652  14.292
49521W        W21781  12.528   5.891  14.945
49522W        W21782   6.938  21.279  13.992
49523W        W21783  22.008   3.221   4.568
49524W        W21784  42.223  30.475   4.084
49525W        W21785  35.276  29.993   0.236
49526W        W21786   2.312   4.213  11.605
49527W        W21787   9.854  19.138   3.646
49528W        W21788  43.349  28.472   3.194
49529W        W21789  36.015   2.278  12.435
49530W        W21790  31.079  14.094   3.202
49531W        W21791  11.172   8.826   5.040
49532W        W21792  27.613  12.862   0.826
49533W        W21793  32.541  42.499   2.685
49534W        W21794   4.981  25.123  12.066
49535W        W21795  22.700   8.844   2.802
49536W        W21796  23.605  25.652   3.189
49537W        W21797  25.639  26.600  13.956
49538W        W21798  44.847  31.725  10.095
49539W        W21799  12.484  13.810   4.585
49540W        W21800   7.621  31.010   1.733
49541W        W21801  37.064  10.446  13.503
49542W        W21802  37.836   8.863   3.551
49543W        W21803  28.887  35.440   2.764
49544W        W21804   4.033  13.707  11.372
49545W        W21805  23.372   2.969  10.991
49546W        W21806  11.432  42.297  14.392
49547W        W21807  37.618  34.793  13.111
49548W        W21808  26.638   0.316  11.910
49549W        W21809  19.680   8.786   2.565
49550W        W21810   3.452  13.088   2.021
49551W        W21811  42.772  26.779  11.736
49552W        W21812   2.334  25.495   3.532
49553W        W21813   2.262  16.001  11.417
49554W        W21814  17.643  25.692   0.706
49555W        W21815   7.281  14.178  13.208
49556W        W21816  34.346  38.899  14.120
49557W        W21817  21.940   8.419  13.072
49558W        W21818  26.936  30.968  14.457
49559W        W21819  17.658  42.235  12.050
49560W        W21820   2.367   5.885   0.277
49561W        W21821  24.173  37.456  14.295
49562W        W21822  20.084   4.689  12.571
49563W        W21823  39.144  26.547   1.552
49564W        W21824  39.386   0.058   3.210
49565W        W21825  40.836  24.498   2.600
49566W        W21826  43.534   6.457   0.314
49567W        W21827   8.186  24.457   0.021
49568W        W21828  12.449  22.603   2.227
49569W        W21829  13.729  13.602   3.368
49570W        W21830  25.098  22.507  14.950
49571W        W21831  11.104  10.877  14.861
49572W        W21832  15.563   8.723  12.806
49573W        W21833  28.118  17.620  10.911
49574W        W21834  36.127  35.994  13.569
49575W        W21835  21.755  38.831   1.828
49576W        W21836  24.274  10.831  12.844
49577W        W21837  41.740  31.300  13.916
49578W        W21838   6.877  31.879  14.448
49579W        W21839  41.762  13.756  12.269
49580W        W21840  14.538  29.005   2.851
49581W        W21841  37.954  11.733  10.712
49582W        W21842   5.974  12.641   0.926
49583W        W21843   1.791  27.013   2.729
49584W        W21844  36.419  29.179  10.663
49585W        W21845  34.053   4.170   4.642
49586W        W21846   0.510   0.915  12.019
49587W        W21847  42.540  19.596   2.518
49588W        W21848  12.740  43.592  14.381
49589W        W21849  43.508   2.831  11.060
49590W        W21850  33.910  33.583   3.666
49591W        W21851  36.605  33.189  11.821
49592W        W21852   7.894  41.332   4.669
49593W        W21853  35.857  33.682   1.055
49594W        W21854  14.795   0.846   0.928
49595W        W21855  40.890   9.962  10.229
49596W        W21856  25.248   3.336  10.734
49597W        W21857  32.871  31.362   4.635
49598W        W21858  38.447  39.431  12.382
49599W        W21859   2.711  14.168   4.597
49600W        W21860  39.518  39.640   1.629
49601W        W21861  28.617  33.613   0.496
49602W        W21862   6.670  42.781  12.052
49603W        W21863  35.096  39.492   4.182
49604W        W21864   3.196  23.148  12.812
49605W        W21865  26.703   8.348  10.424
49606W        W21866  26.421  21.682   4.357
49607W        W21867  18.500  36.530   0.883
49608W        W21868  22.517  44.434   3.364
49609W        W21869  20.201   4.358   4.443
49610W        W21870   9.139   1.935   0.058
49611W        W21871   2.271  19.351  10.716
49612W        W21872  36.314  11.403  13.240
49613W        W21873  26.364   4.496   4.098
49614W        W21874  19.947  29.121   2.502
49615W        W21875  24.983  14.371   4.112
49616W        W21876  35.682  41.524  12.710
49617W        W21877  18.606  27.649  12.002
49618W        W21878   9.916  33.491  13.054
49619W        W21879   0.844  33.084   4.342
49620W        W21880  12.733  33.100   4.450
49621W        W21881  22.198  39.647   1.053
49622W        W21882  10.153  43.864  11.195
49623W        W21883  29.832  22.544   4.857
49624W        W21884  44.783  16.880   0.443
49625W        W21885  18.723   7.127   0.452
49626W        W21886  35.613  23.925  14.398
49627W        W21887  36.005  25.179  11.049
49628W        W21888  40.322  10.706  12.624
49629W        W21889  23.528  31.848  14.737
49630W        W21890  17.271   6.368   9.984
49631W        W21891   3.920  13.166   2.847
49632W        W21892  20.335  25.119   4.993
49633W        W21893  25.124  16.067   1.186
49634W        W21894  42.442  41.632   3.328
49635W        W21895   1.224  13.843   4.493
49636W        W21896  21.108   4.758   0.476
49637W        W21897  27.234  29.998  13.304
49638W        W21898  38.636  12.727  14.931
49639W        W21899  37.313  19.752   4.518
49640W        W21900  19.373  22.927  14.801
49641W        W21901  12.461  37.725   0.108
49642W        W21902   6.918  16.257   1.532
49643W        W21903  29.425  11.309   1.725
49644W        W21904  23.789  10.687   3.320
49645W        W21905   3.408   4.162   1.368
49646W        W21906  41.891   0.485   0.465
49647W        W21907  28.101  42.945  12.796
49648W        W21908   8.779  21.059   4.657
49649W        W21909  16.120   8.318   2.319
49650W        W21910   7.259  36.416  10.698
49651W        W21911  16.896  26.421   2.170
49652W        W21912   7.350   5.669   3.726
49653W        W21913  36.187  33.056  11.118
49654W        W21914  44.352  22.368   4.591
49655W        W21915  10.664  33.297  10.704
49656W        W21916  29.552  20.087   1.071
49657W        W21917  22.213   6.012  11.728
49658W        W21918   2.212  32.204   3.634
49659W        W21919   9.240  15.230   1.913
49660W        W21920  12.459   3.361   1.409
49661W        W21921  24.643  33.743   3.180
49662W        W21922  10.192  10.847  13.858
49663W        W21923  28.066  10.515   3.681
49664W        W21924   0.964  11.949   3.194
49665W        W21925  23.478  43.141   3.228
49666W        W21926  20.855  12.100  13.080
49667W        W21927  34.067  33.439  11.535
49668W        W21928   7.211  21.648  11.250
49669W        W21929   5.899  19.213  10.416
49670W        W21930  15.762   5.235  12.445
49671W        W21931   9.304  20.479   4.556
49672W        W21932  26.027  30.916  13.537
49673W        W21933  39.261  26.911  12.434
49674W        W21934   4.660  40.304   3.347
49675W        W21935  18.218  22.384  13.158
49676W        W21936   9.252  26.205   3.506
49677W        W21937  19.115  37.794  14.408
49678W        W21938   5.328  42.021  13.244
49679W        W21939  42.998  21.501   3.726
49680W        W21940  34.575  41.061  11.206
49681W        W21941  22.212   5.707   0.697
49682W        W21942  28.961   6.073   1.424
49683W        W21943  14.184  36.233   0.345
49684W        W21944   6.226   1.016  14.471
49685W        W21945  37.333  22.686   2.904
49686W        W21946   3.288  21.167   0.016
49687W        W21947  27.000   9.258   3.205
49688W        W21948  19.551  15.790  13.959
49689W        W21949  26.144   4.514  12.994
49690W        W21950  44.204   5.109  14.755
49691W        W21951  24.441  33.502  12.386
49692W        W21952  18.557  28.884  11.454
49693W        W21953  18.131  28.068   4.118
49694W        W21954  13.986  28.943   2.849
49695W        W21955  11.623   6.467  14.276
49696W        W21956  11.549  27.681   2.040
49697W        W21957  18.159  26.514   0.076
49698W        W21958   8.773  29.106   2.868
49699W        W21959   5.672  12.321  13.564
49700W        W21960   6.920  12.193   4.269
49701W        W21961  15.203   7.673  11.519
49702W        W21962  41.034  44.798   4.788
49703W        W21963   9.705  10.266  14.769
49704W        W21964   7.272  19.273  14.848
49705W        W21965  20.133  38.026  13.401
49706W        W21966  43.068  40.943  14.846
49707W        W21967  39.788  21.642   4.617
49708W        W21968  44.734  18.546   4.364
49709W        W21969  22.221  24.836  11.851
49710W        W21970   9.085  44.195   3.235
49711W        W21971  29.698  21.134   1.804
49712W        W21972  15.785  23.035  11.913
49713W        W21973  43.961   3.682   4.772
49714W        W21974  39.348  20.154   3.090
49715W        W21975  21.177  20.973  11.966
49716W        W21976   2.441  43.813   4.488
49717W        W21977  44.413  28.357   2.877
49718W        W21978  13.892  35.971  12.056
49719W        W21979  24.110  24.080  13.328
49720W        W21980  22.455  29.764   1.622
49721W        W21981  15.974   5.891  11.363
49722W        W21982  38.088   9.762   4.118
49723W        W21983   7.348  24.428  10.744
49724W        W21984   7.635  27.007  13.060
49725W        W21985  39.740  37.070  12.930
49726W        W21986  23.975  44.482   2.252
49727W        W21987  22.638   0.538  10.705
49728W        W21988  37.700  29.091  14.904
49729W        W21989  22.307  31.731   1.317
49730W        W21990  32.083  19.865   4.073
49731W        W21991  43.892  41.503   3.331
49732W        W21992  12.885   0.939  12.687
49733W        W21993  38.930  35.571   1.972
49734W        W21994  19.905  42.418   0.043
49735W        W21995  13.653  36.303  11.105
49736W        W21996  43.702  30.119   1.884
49737W        W21997  18.288  26.575   2.661
49738W        W21998  40.342  37.385  13.787
49739W        W21999  19.647  38.329   0.036
49740W        W22000  14.304  35.008   3.596
49741W        W22001   1.194   8.979   0.365
49742W        W22002   9.883   0.413  12.407
49743W        W22003   6.874  24.509  11.025
49744W        W22004  14.384  42.526   3.224
49745W        W22005  38.404  30.678   4.110
49746W        W22006   0.285  21.095   3.101
49747W        W22007  21.249  31.850   0.494
49748W        W22008  43.230  24.993   4.151
49749W        W22009  31.978  44.969   4.235
49750W        W22010  23.890  44.400   4.593
49751W        W22011  29.953  19.227  10.694
49752W        W22012  35.930  21.675   2.698
49753W        W22013  25.405  14.408   2.712
49754W        W22014  26.259  11.406   0.267
49755W        W22015   9.079  29.123   1.736
49756W        W22016  30.751   8.142   2.295
49757W        W22017   0.723  43.030   2.811
49758W        W22018  40.520  23.514   1.733
49759W        W22019  27.019   6.564  11.869
49760W        W22020  18.726  30.605   2.357
49761W        W22021  40.926  37.845   4.719
49762W        W22022  30.100  23.590  11.856
49763W        W22023  38.805  23.235   4.879
49764W        W22024  35.791  34.041  11.217
49765W        W22025  23.674  28.442  10.114
49766W        W22026   9.668  37.548  11.233
49767W        W22027  33.477  34.949   2.823
49768W        W22028   8.739   3.803  10.786
49769W        W22029  16.765  41.263   0.862
49770W        W22030  12.273  10.635  14.296
49771W        W22031  32.281   3.640   4.953
49772W        W22032  16.642   8.066  13.207
49773W        W22033  12.246  31.014  11.785
49774W        W22034  28.956   3.735   1.277
49775W        W22035  15.815  30.036  12.436
49776W        W22036  35.754  29.574  14.992
49777W        W22037  21.764   6.443   3.219
49778W        W22038  29.827  43.098  13.381
49779W        W22039  42.556   6.363   3.599
49780W        W22040  26.055  31.329  13.834
49781W        W22041  20.842  12.317  11.085
49782W        W22042  39.971  12.146  11.529
49783W        W22043  27.571  15.301  10.561
49784W        W22044   8.384  18.504   1.312
49785W        W22045  30.057   5.809   3.606
49786W        W22046  35.540  24.015   4.485
49787W        W22047  42.945  37.212  11.103
49788W        W22048   7.812  32.050  13.098
49789W        W22049  16.863  34.408  13.455
49790W        W22050  30.183  20.620  14.835
49791W        W22051   4.392   4.377   2.256
49792W        W22052  19.281   4.717   4.083
49793W        W22053  28.742  11.601  11.188
49794W        W22054  22.040  32.555   2.762
49795W        W22055  25.215  38.913   1.697
49796W        W22056  16.361  20.068  14.839
49797W        W22057  28.221   1.419   0.290
49798W        W22058  40.061  34.782  13.844
49799W        W22059  19.229  41.553  14.846
49800W        W22060  27.838   5.320  12.632
49801W        W22061  36.628  19.636  14.216
49802W        W22062   8.482  37.871   4.617
49803W        W22063  31.600  10.653   1.485
49804W        W22064  10.641   6.368   0.392
49805W        W22065   5.843  20.011   1.787
49806W        W22066  14.763   2.953  14.046
49807W        W22067   8.116  14.255   1.510
49808W        W22068  36.811   9.761  12.523
49809W        W22069   8.696   2.227  12.502
49810W        W22070  20.928  18.842   0.072
49811W        W22071  34.583  40.242  14.371
49812W        W22072   3.363   5.305   1.217
49813W        W22073  30.132   9.625  13.369
49814W        W22074  25.983  41.841  11.629
49815W        W22075  21.759   3.146   0.212
49816W        W22076   3.083   5.239   1.733
49817W        W22077  10.387  18.254  10.716
49818W        W22078   5.185  43.851  10.691
49819W        W22079  24.330  35.484  12.092
49820W        W22080  17.577  32.626  10.642
49821W        W22081  28.576  22.684  13.864
49822W        W22082   7.832  10.926  11.083
49823W        W22083   8.422  29.135   0.291
49824W        W22084   7.849  12.829   3.710
49825W        W22085   1.865  38.122  14.842
49826W        W22086  35.614  30.684  11.659
49827W        W22087  25.954  37.578  11.847
49828W        W22088  27.370  20.458  12.916
49829W        W22089   2.771  10.209  14.839
49830W        W22090  14.771  26.267   4.783
49831W        W22091  13.352  40.101   2.334
49832W        W22092   8.354   3.199  12.487
49833W        W22093   8.290  30.501   4.069
49834W        W22094  19.251   0.014  13.045
49835W        W22095  37.289  18.651  10.739
49836W        W22096  35.505  31.073   2.213
49837W        W22097   5.388   8.904   4.464
49838W        W22098  36.075  11.159  11.961
49839W        W22099  36.824  33.837  13.644
49840W        W22100  11.319   1.213   2.211
49841W        W22101  36.525   0.404   1.837
49842W        W22102  28.432  27.903   2.400
49843W        W22103  11.428  40.922  12.501
49844W        W22104  39.633  21.325   2.620
49845W        W22105  42.179  42.923   2.864
49846W        W22106  27.617   9.720  13.832
49847W        W22107  14.070  42.959  11.632
49848W        W22108  19.022  25.534  12.919
49849W        W22109  38.370  35.587   3.901
49850W        W22110  38.496  23.976  10.681
49851W        W22111  16.614  44.850   3.850
49852W        W22112  12.525  40.008  14.795
49853W        W22113  10.442  23.870  14.851
49854W        W22114  44.932  31.049   0.429
49855W        W22115  29.927  15.757   4.055
49856W        W22116  33.035  11.043   0.270
49857W        W22117   9.560  41.889   4.018
49858W        W22118   8.810  36.360  11.163
49859W        W22119  21.743  14.900   0.278
49860W        W22120  26.071  29.406  13.408
49861W        W22121  12.104  42.328  13.764
49862W        W22122  29.452   8.601  10.307
49863W        W22123  35.047   3.607   2.431
49864W        W22124  27.404  13.687   2.285
49865W        W22125  23.449  25.304   1.983
49866W        W22126  36.436  16.585   2.345
49867W        W22127  20.961  16.114   3.314
49868W        W22128  16.231  19.555  14.816
49869W        W22129  40.567   0.242   4.748
49870W        W22130  12.752  10.650  13.062
49871W        W22131  26.992  10.934   1.296
49872W        W22132  23.289  30.132  13.787
49873W        W22133  44.289  38.236   0.787
49874W        W22134  29.408   5.277   3.724
49875W        W22135  38.322  12.815  14.468
49876W        W22136  43.420  40.420  14.190
49877W        W22137  19.177  29.424   3.560
49878W        W22138   9.088  22.122  14.892
49879W        W22139   1.003   5.843   4.003
49880W        W22140  21.427  32.217  10.908
49881W        W22141  18.748  42.443   3.355
49882W        W22142   7.786  41.528   3.267
49883W        W22143   2.908  37.819   3.195
49884W        W22144  38.649  32.000   1.344
49885W        W22145   3.989  20.638   0.867
49886W        W22146  26.704  11.769   4.557
49887W        W22147  18.157  33.123  13.115
49888W        W22148  35.711  29.452  12.027
49889W        W22149  29.231   9.598  13.435
49890W        W22150  28.527  16.652   1.306
49891W        W22151  24.183  43.544   3.661
49892W        W22152  17.317  10.864   2.488
49893W        W22153  43.358  29.127  12.313
49894W        W22154   2.844  24.581  14.415
49895W        W22155  42.579  18.908  14.726
49896W        W22156   0.502  40.929   1.251
49897W        W22157  31.886  27.449   1.868
49898W        W22158  15.607  30.428   1.736
49899W        W22159  44.454  23.056  12.034
49900W        W22160  14.635  25.738  14.434
49901W        W22161  37.285  16.061  13.938
49902W        W22162   9.873  43.207  11.210
49903W        W22163  15.774  10.911   3.209
49904W        W22164  37.451  11.550  11.016
49905W        W22165  12.282  17.668  12.378
49906W        W22166   1.918  27.020   4.224
49907W        W22167   7.905  10.255  10.543
49908W        W22168  35.526  35.377   0.769
49909W        W22169  24.300  44.235  13.399
49910W        W22170   5.768  12.302  12.478
49911W        W22171  32.036  42.687   5.344
49912W        W22172  23.769  44.495  11.892
49913W        W22173   1.649  26.218  11.946
49914W        W22174  43.214  20.992  12.647
49915W        W22175   9.676  29.461  13.079
49916W        W22176  16.121   5.461  14.460
49917W        W22177   1.469  35.347   3.671
49918W        W22178  40.751  28.879   1.278
49919W        W22179  42.073  25.086   2.849
49920W        W22180  41.003  32.155   0.979
49921W        W22181  17.734  38.064  10.939
49922W        W22182  28.683   1.428  13.727
49923W        W22183  23.151  30.935  10.622
49924W        W22184  13.856  14.845   1.352
49925W        W22185  36.024   4.019  13.470
49926W        W22186  39.292  34.624  12.674
49927W        W22187  34.924  20.580  10.620
49928W        W22188  16.134  23.496   2.692
49929W        W22189  12.821  41.211  10.780
49930W        W22190  34.720   1.757   3.328
49931W        W22191  30.991  36.457   0.041
49932W        W22192  24.193  20.946   4.226
49933W        W22193  41.275  17.184   2.603
49934W        W22194   5.967  17.201   3.235
49935W        W22195  19.203   5.361   1.878
49936W        W22196  18.925  36.844  14.547
49937W        W22197   6.816  37.588  13.018
49938W        W22198  24.366  21.046  12.548
49939W        W22199  40.824   2.896   2.423
49940W        W22200  42.239   9.418  10.468
49941W        W22201  38.301  36.424  14.887
49942W        W22202  24.516   2.829   3.210
49943W        W22203  26.958  14.722  13.119
49944W        W22204  12.844  14.278   1.398
49945W        W22205  40.375  41.564  11.127
49946W        W22206  19.180  17.138  10.485
49947W        W22207   4.248  32.038  14.048
49948W        W22208  35.927   7.169   3.104
49949W        W22209  26.041   2.476  14.819
49950W        W22210  16.815  43.898   3.641
49951W        W22211   6.955  10.188   2.785
49952W        W22212  13.743  11.930   2.684
49953W        W22213  27.630  43.079  13.836
49954W        W22214   5.854  27.788  10.278
49955W        W22215  32.532  11.057   1.770
49956W        W22216  24.664  41.456  10.279
49957W        W22217  40.017  42.464  10.713
49958W        W22218  28.055  15.192  10.749
49959W        W22219   2.207  25.963   1.873
49960W        W22220   4.315  41.048  13.378
49961W        W22221   6.634   3.796   4.216
49962W        W22222   7.619  32.059  14.887
49963W        W22223  37.138  25.729  11.294
49964W        W22224   9.326  29.856  13.869
49965W        W22225  31.596  24.270   2.057
49966W        W22226  37.103  23.635   0.402
49967W        W22227  14.769   2.688  10.718
49968W        W22228  15.669  35.788   1.676
49969W        W22229  19.672  36.290  14.543
49970W        W22230  40.985  36.280   0.864
49971W        W22231  30.624  31.866   3.576
49972W        W22232   5.942  31.961  12.646
49973W        W22233   7.362  13.549  12.003
49974W        W22234  32.175  10.773   4.392
49975W        W22235  44.453  27.376  14.852
49976W        W22236   2.323  35.943  10.663
49977W        W22237   8.305  32.819  14.871
49978W        W22238  25.806  16.476  12.171
49979W        W22239  35.623  35.033   3.816
49980W        W22240  10.542  28.612  14.844
49981W        W22241  25.391  33.321  10.627
49982W        W22242  20.579  21.195   3.307
49983W        W22243  43.352   8.859  13.759
49984W        W22244  27.960   4.379  13.657
49985W        W22245  30.927  15.652  10.648
49986W        W22246  28.607   7.479  14.876
49987W        W22247  16.352  40.891   1.713
49988W        W22248  44.349  40.971   4.401
49989W        W22249   0.864   7.661  13.836
49990W        W22250  33.467  34.139   4.133
49991W        W22251  42.885  42.949   0.727
49992W        W22252  21.762   0.676   0.673
49993W        W22253  20.330  25.030   1.771
49994W        W22254  24.939  34.423   2.275
49995W        W22255   7.295  12.662   3.612
49996W        W22256  18.684  35.446  10.532
49997W        W22257  30.573  20.103   2.295
49998W        W22258  30.043  14.230   3.694
49999W        W22259  18.264  11.388  12.056
50000W        W22260   7.538  38.532   1.877
50001W        W22261  19.577   8.923   0.989
50002W        W22262  29.721  35.495   1.304
50003W        W22263  20.967  24.671  14.955
50004W        W22264  35.714   2.869   3.315
50005W        W22265  40.416   2.924   4.189
50006W        W22266  19.633  30.181   2.867
50007W        W22267  11.531   9.815   4.657
50008W        W22268  14.145  30.857  10.524
50009W        W22269  26.496  11.361   3.867
50010W        W22270  27.021  14.272   1.793
50011W        W22271   1.365  18.689   0.128
50012W        W22272  32.970  27.705  10.583
50013W        W22273  31.579  27.543   4.723
50014W        W22274  33.641   1.852   2.181
50015W        W22275  24.689   1.177   4.714
50016W        W22276  23.591  31.135   4.087
50017W        W22277   8.253  37.134  13.381
50018W        W22278  22.839  38.936  10.629
50019W        W22279  22.029  34.078   3.861
50020W        W22280  10.053  34.726  11.493
50021W        W22281  10.919  17.872  14.871
50022W        W22282  44.035  36.894  14.313
50023W        W22283  30.399  20.644   1.244
50024W        W22284  13.419  38.563   1.389
50025W        W22285  35.947  44.057   3.187
50026W        W22286   6.757   4.203  11.244
50027W        W22287  39.467  22.067   4.635
50028W        W22288  44.270  17.065   0.470
50029W        W22289  40.001  33.395  12.459
50030W        W22290  41.704  30.253  10.282
50031W        W22291   3.304  37.113   2.685
50032W        W22292   4.575  38.028   1.548
50033W        W22293  34.710  24.691   0.470
50034W        W22294  15.370  27.964   4.689
50035W        W22295  32.400  22.332  12.845
50036W        W22296  38.899   0.280   1.524
50037W        W22297  38.538  35.095  14.533
50038W        W22298  16.207  23.568  13.484
50039W        W22299  39.558  42.105   0.953
50040W        W22300  28.169  18.052  11.244
50041W        W22301   9.266  29.006  10.406
50042W        W22302  34.496  30.956  13.356
50043W        W22303  26.539  19.733   5.081
50044W        W22304   7.206   0.942   0.865
50045W        W22305  39.781  22.841   0.265
50046W        W22306  43.270   1.665   0.685
50047W        W22307  21.001  28.035   0.425
50048W        W22308  23.568  22.952  12.485
50049W        W22309  13.228  31.410  10.581
50050W        W22310  43.777  28.590   3.538
50051W        W22311  39.969   6.379  10.618
50052W        W22312  17.793  34.005   0.340
50053W        W22313  14.168   1.511   2.244
50054W        W22314  23.576   6.878   3.922
50055W        W22315  26.523   3.878  14.347
50056W        W22316  16.566  23.612   0.694
50057W        W22317  39.034  20.365   1.747
50058W        W22318  17.703  29.258   0.873
50059W        W22319  26.725  39.505  14.448
50060W        W22320  34.277   6.246   2.351
50061W        W22321  18.776  11.526   1.743
50062W        W22322  43.481  26.631  10.912
50063W        W22323  42.938  30.590  14.121
50064W        W22324  18.195   9.246   3.689
50065W        W22325  39.713  25.548  14.997
50066W        W22326  33.285  23.064  14.928
50067W        W22327  11.185  12.186  11.995
50068W        W22328  16.477  36.351  14.440
50069W        W22329  29.447  22.526  11.177
50070W        W22330  31.868  37.627  14.391
50071W        W22331  31.203  42.903  10.812
50072W        W22332  18.817  20.716  13.950
50073W        W22333  38.859  35.033   4.179
50074W        W22334  25.659  26.723  12.527
50075W        W22335   1.184  31.870   5.158
50076W        W22336   4.584  32.499   2.668
50077W        W22337  34.012  22.465   0.781
50078W        W22338  15.322  10.535   4.572
50079W        W22339   5.077  29.935  13.518
50080W        W22340   8.316  12.115   0.891
50081W        W22341  15.882   3.322  11.534
50082W        W22342  36.943   1.295  14.066
50083W        W22343  39.300  15.139   4.721
50084W        W22344  32.165  36.586   0.444
50085W        W22345   6.485  11.134   1.894
50086W        W22346  22.826  23.048   2.762
50087W        W22347  35.561  42.673  11.531
50088W        W22348  39.985  17.608   2.333
50089W        W22349  34.837  41.840  12.858
50090W        W22350  13.907   9.015  13.507
50091W        W22351   3.994  11.162   3.575
50092W        W22352  21.866  10.769   0.324
50093W        W22353  32.611  32.209   2.149
50094W        W22354  42.539  11.205   3.714
50095W        W22355  43.957   3.167   4.762
50096W        W22356  42.307  13.751  13.891
50097W        W22357  36.016  27.708   4.220
50098W        W22358  33.910  33.364  10.676
50099W        W22359  21.136  22.971   3.256
50100W        W22360  38.093   3.377  11.065
50101W        W22361  24.639  44.040   4.836
50102W        W22362  14.786  34.296  12.476
50103W        W22363  26.423  15.942   1.013
50104W        W22364  42.242  26.005   0.367
50105W        W22365   6.266   4.346  14.353
50106W        W22366  27.772  12.426  14.883
50107W        W22367  22.094  28.409   4.536
50108W        W22368  32.667  16.667  10.632
50109W        W22369  44.312  40.347   3.585
50110W        W22370  36.145  43.516   2.345
50111W        W22371  35.132  16.801   4.515
50112W        W22372  44.501  34.636   4.128
50113W        W22373  43.246  21.196  13.781
50114W        W22374  44.222   4.649  11.581
50115W        W22375  14.167  32.931   1.762
50116W        W22376  22.018  31.366  14.489
50117W        W22377  21.477   9.449  12.002
50118W        W22378  40.905   4.719  12.017
50119W        W22379  30.701  22.555  14.251
50120W        W22380  22.019  25.130  10.589
50121W        W22381  28.675  22.508   1.752
50122W        W22382  42.093  16.804   3.380
50123W        W22383   3.687  33.518   1.463
50124W        W22384   0.468   8.943   0.939
50125W        W22385  22.666  27.362   2.290
50126W        W22386   7.945  38.981  12.161
50127W        W22387  32.414  43.847   0.534
50128W        W22388  12.609  30.168  10.655
50129W        W22389   7.243  20.802   1.894
50130W        W22390  23.279  36.971   2.862
50131W        W22391  24.074  35.249   2.009
50132W        W22392  41.093   8.389   1.054
50133W        W22393  21.685  37.166   2.460
50134W        W22394  30.403  10.814   4.867
50135W        W22395  36.394  18.015  11.589
50136W        W22396  38.199   0.985   4.200
50137W        W22397  36.385   9.018   0.739
50138W        W22398   7.234  38.123  11.070
50139W        W22399  37.043  33.845   0.375
50140W        W22400  34.856  31.211  12.031
50141W        W22401   5.644  37.529  14.333
50142W        W22402  11.740  11.580   0.785
50143W        W22403   4.811  28.416  12.433
50144W        W22404  16.127  36.877   4.698
50145W        W22405  22.789  33.043  13.879
50146W        W22406  28.041  28.994  12.155
50147W        W22407  29.434  32.173  12.831
50148W        W22408  10.442  20.738  10.370
50149W        W22409  28.580  34.522  14.809
50150W        W22410   3.502  43.954  13.889
50151W        W22411  40.893  14.720  14.349
50152W        W22412   2.990  18.547  10.755
50153W        W22413   0.512  12.953  11.574
50154W        W22414  33.440  33.518   1.853
50155W        W22415  23.461   3.965   0.979
50156W        W22416  13.519  42.030   0.290
50157W        W22417  34.404  28.902   4.406
50158W        W22418  43.963   0.967   2.813
50159W        W22419  24.108  12.832  10.682
50160W        W22420   2.037   7.245  10.746
50161W        W22421  18.282   8.978  10.177
50162W        W22422  34.430  25.010  14.240
50163W        W22423  44.481  41.437   4.530
50164W        W22424  23.708  25.530   4.156
50165W        W22425  32.207  29.036   1.425
50166W        W22426  36.191   7.016  12.594
50167W        W22427  44.911  40.285   4.929
50168W        W22428  33.547  25.426   1.573
50169W        W22429  39.529  12.753   1.467
50170W        W22430  13.091  39.764   4.095
50171W        W22431  10.758  24.099   1.435
50172W        W22432   3.796  17.381  11.494
50173W        W22433  26.769  33.063  10.631
50174W        W22434  18.710  31.850  11.990
50175W        W22435  12.693   3.180   1.897
50176W        W22436  10.815  31.368   0.617
50177W        W22437  25.018  36.063  13.151
50178W        W22438  42.439  32.217   4.850
50179W        W22439  23.767  42.041  10.326
50180W        W22440  40.110  29.012   4.700
50181W        W22441  36.373  25.969  14.938
50182W        W22442  19.647   5.347   1.081
50183W        W22443  17.193  17.630  11.940
50184W        W22444  26.150   8.362   2.213
50185W        W22445  33.673  36.540   1.712
50186W        W22446  40.921   7.460   0.669
50187W        W22447  13.631  30.122  14.762
50188W        W22448  40.676  22.108   1.153
50189W        W22449  34.515  40.413  10.397
50190W        W22450  44.354  33.503   0.973
50191W        W22451  16.023  28.416   2.154
50192W        W22452  39.044   9.145   3.572
50193W        W22453  12.743  33.065  10.793
50194W        W22454  24.955  11.085  11.573
50195W        W22455  42.764  18.926  12.177
50196W        W22456   1.285  15.385   2.973
50197W        W22457  18.082  24.941  12.960
50198W        W22458  41.574   4.728  11.161
50199W        W22459  38.501  28.655  12.426
50200W        W22460  13.708  25.487   0.332
50201W        W22461  16.260  40.857  13.073
50202W        W22462  22.462   9.128   0.394
50203W        W22463  14.624   2.232  14.775
50204W        W22464  18.557  39.042  14.418
50205W        W22465  36.239  16.024  13.930
50206W        W22466  23.568   0.448   1.186
50207W        W22467  39.962   4.282   2.394
50208W        W22468  31.476   9.501   4.965
50209W        W22469  16.859  27.065   3.313
50210W        W22470   6.658  18.583   0.638
50211W        W22471  37.299  26.995  12.428
50212W        W22472   9.446   8.758  13.926
50213W        W22473   5.173  20.757  12.461
50214W        W22474   5.824   5.589  14.589
50215W        W22475   0.777  34.276  14.892
50216W        W22476  32.158  24.539  11.545
50217W        W22477  24.530  36.151  11.573
50218W        W22478  43.370  39.913  14.043
50219W        W22479  12.064   9.705   4.298
50220W        W22480   6.869  25.724  14.177
50221W        W22481   2.757  11.663  10.595
50222W        W22482  24.291  35.123  14.975
50223W        W22483  27.248  29.620   0.795
50224W        W22484  22.849   5.111   0.790
50225W        W22485   3.177  18.886   2.338
50226W        W22486  15.176  34.986   4.658
50227W        W22487  27.897  42.819   3.350
50228W        W22488  33.110  31.260   2.524
50229W        W22489   1.257  12.025   0.984
50230W        W22490   8.688  23.136  14.855
50231W        W22491   8.877  13.330   0.421
50232W        W22492  41.504  24.417  12.925
50233W        W22493   9.803  42.238   4.851
50234W        W22494  42.305  15.922   1.045
50235W        W22495  11.450   4.366  12.103
50236W        W22496   8.817  20.102   2.339
50237W        W22497   6.822  21.456  10.918
50238W        W22498  35.534  10.929   1.388
50239W        W22499  44.047   8.252   1.768
50240W        W22500  29.538  25.244  13.871
50241W        W22501  35.003  42.121   3.736
50242W        W22502  25.989   2.881  12.564
50243W        W22503  27.981  41.448   0.959
50244W        W22504   0.806  24.703  14.761
50245W        W22505  43.228   4.086  12.917
50246W        W22506  39.687  19.772   2.963
50247W        W22507   6.566  15.892   1.641
50248W        W22508   4.908   9.688  14.308
50249W        W22509  11.472  34.478  11.629
50250W        W22510  36.319  26.215   0.454
50251W        W22511  18.735  39.567   1.766
50252W        W22512  20.124  31.264   3.362
50253W        W22513   1.776   1.264  14.063
50254W        W22514  10.735  42.932  13.596
50255W        W22515  24.869  37.832  12.011
50256W        W22516  13.478  21.121  11.621
50257W        W22517  24.197  28.624   0.680
50258W        W22518  16.037  30.819   2.357
50259W        W22519  29.118  38.499   2.316
50260W        W22520  24.469  34.141  10.780
50261W        W22521  15.061  11.088  13.489
50262W        W22522  35.467  33.607   1.373
50263W        W22523  28.155   7.846  12.285
50264W        W22524  17.270  12.394  14.994
50265W        W22525  37.393   8.435  14.736
50266W        W22526   8.677   0.834  12.067
50267W        W22527   9.250  44.421  11.142
50268W        W22528  40.265  24.524  14.539
50269W        W22529  23.513  14.211   1.252
50270W        W22530   5.086  29.050   3.702
50271W        W22531  16.392  11.281   4.873
50272W        W22532   5.293   0.519   4.044
50273W        W22533   1.255  10.301  10.751
50274W        W22534  11.319  41.814  11.672
50275W        W22535  10.931  21.206  10.517
50276W        W22536   3.247  24.381  12.359
50277W        W22537  24.035  32.948   0.971
50278W        W22538  23.883  18.260  10.668
50279W        W22539   2.997  31.841  12.007
50280W        W22540  20.651  26.635   4.587
50281W        W22541  42.967  25.402  14.493
50282W        W22542  35.977   4.991   0.308
50283W        W22543  20.602   6.636   4.225
50284W        W22544  38.143  35.183   3.685
50285W        W22545  43.398  25.487  11.883
50286W        W22546   9.027  35.632   0.846
50287W        W22547  35.873  17.359  12.453
50288W        W22548  38.883  42.466  10.656
50289W        W22549  33.409  29.602  10.219
50290W        W22550  28.083  11.695  13.431
50291W        W22551  15.535  23.691  14.414
50292W        W22552   0.772  21.997   1.514
50293W        W22553  32.177  40.809   2.495
50294W        W22554  17.991  38.605  11.907
50295W        W22555  20.664  10.432   4.797
50296W        W22556  10.629  34.504   2.749
50297W        W22557   5.717  19.023  13.895
50298W        W22558  14.692  27.788  12.787
50299W        W22559  28.593  43.227   2.133
50300W        W22560  11.432  34.833   1.202
50301W        W22561  11.904   2.952   0.239
50302W        W22562  43.023  13.685   4.726
50303W        W22563  40.826   2.584  10.733
50304W        W22564  17.706   5.509   9.749
50305W        W22565   6.707  21.381   1.122
50306W        W22566  23.539  35.354  13.408
50307W        W22567  25.899   4.677   4.316
50308W        W22568  29.487  42.647   2.669
50309W        W22569  33.443  27.113  10.667
50310W        W22570  23.553  30.900  13.541
50311W        W22571  10.887  29.877  13.278
50312W        W22572   3.963  21.145   2.110
50313W        W22573  25.507  15.555  12.457
50314W        W22574  38.579  18.599   1.282
50315W        W22575  10.114  43.569  10.791
50316W        W22576  20.741  43.416  10.583
50317W        W22577   9.630  11.084  14.257
50318W        W22578  11.811  25.683  11.273
50319W        W22579  17.006   0.997   0.950
50320W        W22580  23.638  40.869  14.044
50321W        W22581   9.680  18.217  13.966
50322W        W22582  39.936   3.941  14.376
50323W        W22583  39.136  31.486   4.165
50324W        W22584  33.441   8.383  13.839
50325W        W22585  17.706  26.962   4.828
50326W        W22586  22.171  29.998  10.678
50327W        W22587   1.925  32.827   4.567
50328W        W22588  28.489  20.065  12.602
50329W        W22589  36.434  38.790  14.371
50330W        W22590   3.902   0.827  14.875
50331W        W22591  37.860  31.616   3.721
50332W        W22592   5.426  15.753  13.238
50333W        W22593  21.456  37.642   3.775
50334W        W22594   5.408  19.924  13.586
50335W        W22595  43.465  29.613   1.946
50336W        W22596  34.851  13.818  11.503
50337W        W22597  30.251   8.120   0.030
50338W        W22598   7.454  33.039   1.427
50339W        W22599  42.933  17.234   4.609
50340W        W22600  44.010  28.088  10.519
50341W        W22601   4.788  33.437  12.040
50342W        W22602  39.498  22.653  11.645
50343W        W22603  13.072  44.070   1.677
50344W        W22604  35.953  12.410  12.548
50345W        W22605   6.227  35.520   0.445
50346W        W22606   5.511  39.256   3.613
50347W        W22607  41.617  30.276  11.895
50348W        W22608  23.756   2.030  10.644
50349W        W22609  39.767  37.537  11.242
50350W        W22610  15.345  24.159  11.629
50351W        W22611   8.826  22.242  14.312
50352W        W22612   4.391  12.103  12.490
50353W        W22613  25.404  34.756   0.719
50354W        W22614  25.322  35.634   1.969
50355W        W22615  26.563  23.495  14.580
50356W        W22616  25.186  14.254  14.361
50357W        W22617  18.357  26.191  14.311
50358W        W22618  36.647  22.742  12.969
50359W        W22619  21.334  30.742  13.054
50360W        W22620  31.515  14.639   1.634
50361W        W22621  16.024   9.410  12.615
50362W        W22622  41.820  13.473   1.252
50363W        W22623   5.209  23.222  10.720
50364W        W22624  15.061   3.476  13.038
50365W        W22625  26.177   3.284   1.287
50366W        W22626   1.436   3.706   4.407
50367W        W22627  19.748  32.715  11.060
50368W        W22628  20.799  20.720   4.200
50369W        W22629  41.887  44.876   1.850
50370W        W22630  17.164  19.831   1.793
50371W        W22631   3.997   4.240  11.163
50372W        W22632   7.489   5.877   1.938
50373W        W22633  34.877  33.451  12.796
50374W        W22634  11.613  11.210   3.309
50375W        W22635  27.027   2.215   0.382
50376W        W22636   3.872  38.896   1.798
50377W        W22637  38.750  24.086  12.084
50378W        W22638   9.800  14.089   1.677
50379W        W22639  28.871  43.648  11.025
50380W        W22640  38.450  12.208   1.651
50381W        W22641  26.068  34.004   4.746
50382W        W22642  24.078   4.141  12.926
50383W        W22643  30.744  18.363  11.126
50384W        W22644  15.793  40.149  12.419
50385W        W22645  22.009  41.369  14.964
50386W        W22646  21.610   7.849   1.442
50387W        W22647  14.828  20.018  13.525
50388W        W22648  43.128  34.334   2.095
50389W        W22649   6.397   8.916  13.944
50390W        W22650  22.314   6.573  14.794
50391W        W22651  44.061  25.201   0.824
50392W        W22652  21.144  20.019  12.022
50393W        W22653  32.410   4.670  14.350
50394W        W22654  12.760  33.124   3.935
50395W        W22655  15.048  31.599  11.943
50396W        W22656  21.940  23.980   0.420
50397W        W22657   7.940   9.308   4.258
50398W        W22658  24.705   2.354   1.884
50399W        W22659  42.589  28.590  14.252
50400W        W22660  25.912  33.379  10.688
50401W        W22661  41.799  12.573  11.128
50402W        W22662   9.390  18.144  14.904
50403W        W22663  28.161  33.914  13.063
50404W        W22664  11.369  39.876  11.656
50405W        W22665   5.132  18.932   3.267
50406W        W22666  25.167  21.028   1.389
50407W        W22667  21.682  31.069   1.009
50408W        W22668   9.614  44.817   1.262
50409W        W22669  27.040   7.767   2.185
50410W        W22670   9.293  15.566   2.904
50411W        W22671  41.590   2.275   2.047
50412W        W22672  43.984  35.010  10.865
50413W        W22673  26.525   8.547   5.203
50414W        W22674   1.534  43.410   1.923
50415W        W22675  34.547   0.999  14.916
50416W        W22676   2.794  37.469   3.568
50417W        W22677  37.061  28.412  11.625
50418W        W22678  36.267  37.753   4.610
50419W        W22679  16.253  40.619  11.198
50420W        W22680  35.411   5.751   3.381
50421W        W22681   4.446  21.286   1.377
50422W        W22682  37.482  34.190  10.257
50423W        W22683   9.096  11.383  12.953
50424W        W22684   6.345  31.481   1.430
50425W        W22685  17.331  15.618   1.471
50426W        W22686  33.916  35.874   3.635
50427W        W22687  28.489  38.182   4.432
50428W        W22688  16.110  12.321   1.880
50429W        W22689  34.360  23.664   3.565
50430W        W22690  36.526  30.041   4.766
50431W        W22691   3.286   9.147  12.605
50432W        W22692  17.798  36.900  13.535
50433W        W22693  36.157  26.730   1.305
50434W        W22694  12.319  20.151  14.392
50435W        W22695   2.344  21.164   3.760
50436W        W22696   8.153  26.974  13.817
50437W        W22697  12.685   3.976   3.653
50438W        W22698   3.662  31.910   2.342
50439W        W22699  18.927  25.734  12.439
50440W        W22700  36.974  27.481   0.398
50441W        W22701  35.859  24.670   4.836
50442W        W22702  40.420  24.532   3.029
50443W        W22703  33.931   3.830  10.417
50444W        W22704  36.888  15.827   4.676
50445W        W22705  44.537  11.356  10.250
50446W        W22706  29.085   5.308   0.752
50447W        W22707  31.466   9.153   2.821
50448W        W22708  42.543   7.465  13.926
50449W        W22709   7.822  13.451  12.952
50450W        W22710  35.524  21.534   1.253
50451W        W22711   3.945  15.202  10.807
50452W        W22712   8.391  11.377   0.453
50453W        W22713  18.406  43.888  14.916
50454W        W22714   6.817  13.936   4.798
50455W        W22715  30.234  16.587  12.793
50456W        W22716  36.392  23.908  11.128
50457W        W22717   9.772  43.082   5.100
50458W        W22718  17.720  12.206  14.732
50459W        W22719  11.276  18.624   0.289
50460W        W22720  24.954  13.358   3.865
50461W        W22721  17.507  21.160  12.633
50462W        W22722  35.362   4.682   4.467
50463W        W22723  30.648  11.694   0.803
50464W        W22724  31.980  33.484  11.890
50465W        W22725  29.982  12.067  13.374
50466W        W22726   0.928  30.278  11.356
50467W        W22727  31.453  44.789  10.641
50468W        W22728   5.158  15.241  14.051
50469W        W22729  25.098   1.402   3.063
50470W        W22730  27.899  44.521   2.778
50471W        W22731  16.333  26.644   0.328
50472W        W22732  41.621  25.036  14.473
50473W        W22733  12.273  30.665   5.248
50474W        W22734   3.507  20.004   0.485
50475W        W22735  42.665  36.083   4.216
50476W        W22736  19.219   3.143  12.919
50477W        W22737  18.191   9.381  12.381
50478W        W22738  18.521  11.661   2.583
50479W        W22739  38.887  34.453   3.777
50480W        W22740   4.457   2.589   2.851
50481W        W22741  33.067  25.069   2.222
50482W        W22742  37.458   2.454   1.380
50483W        W22743  16.560  42.954  11.662
50484W        W22744  21.009  33.869   4.019
50485W        W22745  29.634   9.736  12.657
50486W        W22746  29.754  37.344   3.232
50487W        W22747  12.830  40.403   1.363
50488W        W22748  20.947   8.371   2.807
50489W        W22749   1.059   6.430  10.944
50490W        W22750  11.148  16.208   4.779
50491W        W22751  22.521  43.670  14.747
50492W        W22752  18.251  44.334   1.971
50493W        W22753   0.679  12.761   4.495
50494W        W22754  11.629   0.258   4.709
50495W        W22755   3.991  33.298  11.589
50496W        W22756  19.709  28.064  11.873
50497W        W22757  13.476  11.802  11.264
50498W        W22758  26.734  20.594   4.215
50499W        W22759  44.211  36.038   1.936
50500W        W22760  18.630   8.663   3.371
50501W        W22761   6.340  19.841  10.786
50502W        W22762   2.858  33.080   0.805
50503W        W22763   4.561   6.518  13.091
50504W        W22764  35.548  12.078   0.962
50505W        W22765  27.383  32.171   2.852
50506W        W22766  31.660   1.380  12.016
50507W        W22767   0.325  20.969  14.783
50508W        W22768  30.108  35.422   4.904
50509W        W22769  43.167   8.483   3.889
50510W        W22770  25.838  32.777   4.852
50511W        W22771  14.533  16.594   2.297
50512W        W22772  29.574  34.931   3.858
50513W        W22773  19.505  25.905   3.268
50514W        W22774  27.131  18.143   1.295
50515W        W22775  32.478  40.260  10.609
50516W        W22776  42.824   4.320  14.172
50517W        W22777  34.677  44.839   0.425
50518W        W22778  36.618  33.407  10.230
50519W        W22779   2.954  17.526  13.801
50520W        W22780  11.006   5.081  12.977
50521W        W22781  26.910   3.656   0.346
50522W        W22782  14.327   9.218   4.123
50523W        W22783   8.718  29.145  11.652
50524W        W22784   2.569  13.637   1.359
50525W        W22785  31.273  35.011  13.898
50526W        W22786  16.348   6.201   3.393
50527W        W22787   7.718   6.674  13.122
50528W        W22788  31.610  11.826  14.219
50529W        W22789  36.454  10.294  12.821
50530W        W22790  10.099   3.326  12.284
50531W        W22791  43.571  43.274  13.493
50532W        W22792   7.456  22.017  13.894
50533W        W22793  43.320  19.592   0.054
50534W        W22794  19.672  11.811  12.440
50535W        W22795  44.297  26.115   2.797
50536W        W22796  27.117  26.090   0.373
50537W        W22797  42.534   1.794   2.697
50538W        W22798  25.521  36.886  11.636
50539W        W22799  14.840  30.277  11.067
50540W        W22800  35.444  40.269   0.677
50541W        W22801  26.171   9.604   0.048
50542W        W22802   9.218  34.664  14.418
50543W        W22803  27.023  29.674   2.323
50544W        W22804  23.547   4.244   4.607
50545W        W22805  24.855   6.594   1.270
50546W        W22806  11.862  17.776  10.508
50547W        W22807  27.147  26.148   2.284
50548W        W22808  29.069  42.318   2.765
50549W        W22809  25.743  17.047   4.142
50550W        W22810  10.227   8.654   1.265
50551W        W22811  10.194  35.612  14.975
50552W        W22812  43.841   2.543   3.176
50553W        W22813  43.346  17.112  10.889
50554W        W22814  36.629  22.134  10.983
50555W        W22815  26.038  26.481  14.895
50556W        W22816  37.483   6.754  12.176
50557W        W22817   7.981  21.046   5.025
50558W        W22818   3.723  24.718   4.874
50559W        W22819  41.131  30.526  14.394
50560W        W22820  42.590  19.649  11.581
50561W        W22821  27.587  44.523  10.597
50562W        W22822   7.493  38.792   0.803
50563W        W22823   3.682  37.038   4.662
50564W        W22824  36.860  16.808   4.590
50565W        W22825  40.750   0.365  10.621
50566W        W22826  39.246  20.170   0.438
50567W        W22827  39.741  40.003  13.431
50568W        W22828   2.863  35.833   4.168
50569W        W22829  35.453  34.874  11.349
50570W        W22830  44.838   5.770   1.745
50571W        W22831   3.954  10.754   2.818
50572W        W22832  16.524  38.028  10.699
50573W        W22833   2.039  36.054   3.165
50574W        W22834  13.187   8.875   2.773
50575W        W22835  44.006   2.260   3.720
50576W        W22836   8.688   3.730  12.091
50577W        W22837   9.375   5.323   4.615
50578W        W22838   0.448   7.484  12.218
50579W        W22839  22.452  13.068   3.082
50580W        W22840  35.380  18.602   2.960
50581W        W22841  37.504  32.156  14.939
50582W        W22842  33.136  37.024   0.252
50583W        W22843  27.516   8.542   2.928
50584W        W22844  42.216  26.591   3.807
50585W        W22845   1.202  15.549  14.022
50586W        W22846  10.547   7.086  11.815
50587W        W22847  44.242  33.245  14.457
50588W        W22848  38.629  39.275   3.400
50589W        W22849  37.816  11.665  10.191
50590W        W22850  28.875  43.749   1.314
50591W        W22851  34.729  21.304  12.988
50592W        W22852  33.089  20.275   2.240
50593W        W22853  28.994  10.152   3.393
50594W        W22854  23.849  34.818  11.646
50595W        W22855  23.332  39.038  11.432
50596W        W22856  22.447  32.001   1.825
50597W        W22857  19.179   2.276  12.726
50598W        W22858   2.041  35.766  14.541
50599W        W22859  31.464   5.039  11.636
50600W        W22860   4.211  18.500   3.178
50601W        W22861  40.340  28.073  13.029
50602W        W22862  12.737  20.641  13.915
50603W        W22863  22.045  33.369   1.961
50604W        W22864  18.532  18.031  12.209
50605W        W22865  38.475  15.673   2.709
50606W        W22866  42.022  10.814   2.599
50607W        W22867   0.198  13.792   1.932
50608W        W22868  19.359  39.342  14.275
50609W        W22869   9.733  14.203   2.185
50610W        W22870   3.679  34.685   1.344
50611W        W22871  21.660  43.436   0.299
50612W        W22872   9.600   8.878   3.348
50613W        W22873  34.075  18.054  11.163
50614W        W22874  23.978  40.447   3.945
50615W        W22875  27.135  36.414  11.987
50616W        W22876   0.255   7.143  11.226
50617W        W22877  39.550  12.184   1.756
50618W        W22878  42.482  31.396   2.768
50619W        W22879  23.767  33.581   0.709
50620W        W22880  32.957  24.643   1.935
50621W        W22881  30.037  42.903   0.913
50622W        W22882  11.743  40.317   0.866
50623W        W22883   1.180  14.147  13.006
50624W        W22884   3.262  32.151  10.369
50625W        W22885  25.191  13.342  13.014
50626W        W22886  41.893  38.615   0.903
50627W        W22887  13.834  21.588  12.445
50628W        W22888  19.750  20.793  13.278
50629W        W22889  29.859  33.926   0.042
50630W        W22890   0.829  25.628  13.075
50631W        W22891  27.129  22.990  13.944
50632W        W22892  26.147  22.086  12.797
50633W        W22893   8.214  36.930   0.998
50634W        W22894   4.909  20.748   3.414
50635W        W22895  30.205  37.889   0.205
50636W        W22896  27.021   5.252  13.049
50637W        W22897   1.200  29.602   0.355
50638W        W22898  36.089  15.662   3.877
50639W        W22899  12.694  23.770   4.069
50640W        W22900  40.834  16.154  13.809
50641W        W22901  15.652  21.082  11.972
50642W        W22902  31.954   3.404  11.152
50643W        W22903  24.512  20.547  13.370
50644W        W22904  32.190  42.669   4.177
50645W        W22905  21.481  13.137   3.249
50646W        W22906  42.926  22.989   2.226
50647W        W22907  23.137  30.585  10.227
50648W        W22908  38.032  22.203  14.941
50649W        W22909  21.113  26.923  12.372
50650W        W22910   2.782  26.743  10.504
50651W        W22911   4.649  30.320   1.238
50652W        W22912   2.363   1.884   2.678
50653W        W22913   3.447  23.470   0.761
50654W        W22914  33.134  38.295   2.810
50655W        W22915  40.054  11.607  10.754
50656W        W22916  21.461  43.765  11.211
50657W        W22917  34.085   6.899  11.678
50658W        W22918  34.423   2.538   2.963
50659W        W22919  30.626   5.148  10.647
50660W        W22920  30.096   9.392   1.653
50661W        W22921   6.213  25.429   1.877
50662W        W22922  30.907  11.290   2.433
50663W        W22923  33.552  34.688   5.044
50664W        W22924  43.418   4.969   2.134
50665W        W22925  38.007  10.444  11.439
50666W        W22926   6.950  11.192  13.542
50667W        W22927  37.280  21.794  14.888
50668W        W22928  41.337  25.811  13.965
50669W        W22929  38.458  17.859  13.020
50670W        W22930   5.438  32.158  10.697
50671W        W22931   2.389  25.548   4.043
50672W        W22932  26.172  14.344   4.571
50673W        W22933  32.532  26.493   2.705
50674W        W22934  33.150  11.300   2.327
50675W        W22935  33.514  35.162   4.163
50676W        W22936  43.752  42.395  14.796
50677W        W22937  31.947   0.976  12.380
50678W        W22938   4.164   7.708   2.977
50679W        W22939  44.736  37.967  12.106
50680W        W22940  43.727  34.201   4.144
50681W        W22941  15.935  34.593  11.040
50682W        W22942  18.672  30.124  14.873
50683W        W22943  16.324   3.900   0.817
50684W        W22944  43.888  37.452  14.971
50685W        W22945  23.919  29.552   2.242
50686W        W22946  16.642   1.577   3.563
50687W        W22947   9.297   5.336  10.738
50688W        W22948  13.830  28.067  13.422
50689W        W22949  36.185  39.255   3.677
50690W        W22950  22.258  44.247   0.957
50691W        W22951  23.176  19.584   0.377
50692W        W22952  23.185  18.864  14.432
50693W        W22953   4.485  22.549  12.369
50694W        W22954  44.451   1.669   3.743
50695W        W22955  38.849  36.866  12.025
50696W        W22956  30.417   7.999   2.698
50697W        W22957   0.906   4.717  12.548
50698W        W22958  20.428  13.646  13.727
50699W        W22959  15.804  11.418   3.330
50700W        W22960  31.000  20.071   4.165
50701W        W22961  14.267  25.686   3.141
50702W        W22962   4.480  12.834  11.160
50703W        W22963  44.460  26.108  11.600
50704W        W22964  26.974  20.540  12.417
50705W        W22965  36.910   5.443  12.541
50706W        W22966   8.348  17.014  14.099
50707W        W22967   0.009  34.946  10.661
50708W        W22968   9.283  27.667  11.095
50709W        W22969  13.200  19.220   4.585
50710W        W22970  34.357   2.831  13.581
50711W        W22971  21.584  19.039  10.698
50712W        W22972   1.302  38.616  14.374
50713W        W22973  36.857  25.369   4.062
50714W        W22974  36.318  35.686  10.901
50715W        W22975  42.823  32.894   0.975
50716W        W22976  38.456  15.590   3.696
50717W        W22977  32.571  25.966  11.669
50718W        W22978  19.642  25.923   4.184
50719W        W22979  37.034  43.021  11.211
50720W        W22980  18.405   7.924   0.300
50721W        W22981  39.046  27.645   0.706
50722W        W22982  19.992  38.643   0.827
50723W        W22983  44.760  43.564  13.461
50724W        W22984  28.951   5.326  14.810
50725W        W22985  44.527  25.616   4.191
50726W        W22986  18.397  20.180  11.625
50727W        W22987  24.180  30.275   2.582
50728W        W22988  38.725  35.758   2.955
50729W        W22989  26.143  27.163  13.456
50730W        W22990  10.891  16.460  11.118
50731W        W22991  34.386   2.664   3.474
50732W        W22992  44.335  26.488   3.151
50733W        W22993   9.854   7.672   2.323
50734W        W22994  25.113  43.825   1.952
50735W        W22995  15.691  34.833  12.843
50736W        W22996  29.035  39.108  10.703
50737W        W22997  10.184  33.767  13.924
50738W        W22998  15.553  42.205  11.548
50739W        W22999  43.335   1.306  13.325
50740W        W23000  26.955  17.970  11.590
50741W        W23001  22.263   4.894   3.645
50742W        W23002   9.621   5.125   4.188
50743W        W23003  28.034  40.994   2.214
50744W        W23004  27.869  25.995   4.178
50745W        W23005   2.608  44.129   1.103
50746W        W23006  35.529  37.356   1.199
50747W        W23007   7.912  26.947   0.897
50748W        W23008  17.079  31.050  14.089
50749W        W23009  44.422  22.205   0.906
50750W        W23010   2.612   7.878   4.550
50751W        W23011  34.358  39.011  10.344
50752W        W23012  19.496  28.233   2.784
50753W        W23013  16.533  33.930   2.308
50754W        W23014  18.934  20.542   4.582
50755W        W23015  12.290  17.509   0.806
50756W        W23016  20.619  19.163   0.461
50757W        W23017  42.350   0.660   0.809
50758W        W23018   6.765  22.645   1.007
50759W        W23019  41.021  39.978  14.321
50760W        W23020   9.372   4.362  11.895
50761W        W23021   0.677   0.923   1.929
50762W        W23022  19.887  42.937   2.737
50763W        W23023  17.517  13.842  13.126
50764W        W23024  34.998  34.649   5.156
50765W        W23025   6.329  19.481   2.281
50766W        W23026   5.486  32.646   4.139
50767W        W23027   6.206  30.225  13.437
50768W        W23028  34.038  44.979  12.936
50769W        W23029  27.479  13.353   2.689
50770W        W23030  10.230  27.487   2.365
50771W        W23031  10.214  43.000  13.774
50772W        W23032   9.438  37.970  13.356
50773W        W23033  43.708  13.582  14.034
50774W        W23034   6.741  26.679   2.122
50775W        W23035  18.066   7.923  11.542
50776W        W23036   8.273   8.377  12.492
50777W        W23037  26.499   9.869  11.973
50778W        W23038   9.593  24.960  14.929
50779W        W23039  17.881  27.046   3.412
50780W        W23040  30.174  35.347  11.504
50781W        W23041  34.599   8.336   0.153
50782W        W23042  23.468  23.965  11.739
50783W        W23043  35.020   0.462  10.983
50784W        W23044  43.800  42.453   1.399
50785W        W23045  43.555  32.906   0.285
50786W        W23046  18.048  20.139  11.139
50787W        W23047  44.509  39.349   2.789
50788W        W23048  23.191   2.491   3.335
50789W        W23049   7.219  36.420   0.880
50790W        W23050  22.734  33.193   4.557
50791W        W23051  44.728  16.064   4.204
50792W        W23052  26.704  31.590   0.152
50793W        W23053  27.608   1.233  11.256
50794W        W23054  28.179  20.167  13.931
50795W        W23055  30.657  11.735  14.843
50796W        W23056  36.314  21.684  11.102
50797W        W23057  40.987  22.029   3.752
50798W        W23058   5.904  40.927  12.626
50799W        W23059   8.829  24.922  13.374
50800W        W23060  29.868  28.401   3.705
50801W        W23061  11.722  19.520  14.323
50802W        W23062  12.195  30.131  10.007
50803W        W23063  12.663  13.106   4.379
50804W        W23064  21.034  22.671  11.554
50805W        W23065  22.939  43.982  11.788
50806W        W23066   5.918   6.320   1.408
50807W        W23067   0.993   9.860   0.282
50808W        W23068  12.671  19.537   0.374
50809W        W23069  26.223   8.453   0.342
50810W        W23070   5.682  40.130  11.186
50811W        W23071  40.994   0.917  12.064
50812W        W23072  23.289  28.159   4.989
50813W        W23073  36.831  24.532   3.099
50814W        W23074  41.226  22.251   2.173
50815W        W23075   0.768  44.373   3.040
50816W        W23076  39.803  14.068  11.214
50817W        W23077  24.240  15.475  10.250
50818W        W23078  34.045  27.489  12.587
50819W        W23079  34.121  13.225  13.879
50820W        W23080  35.047  18.718  12.171
50821W        W23081  29.876  24.739  11.279
50822W        W23082   2.843  16.364   1.261
50823W        W23083  26.489  34.112  12.011
50824W        W23084  12.730  30.218   9.762
50825W        W23085  30.815  11.764   2.262
50826W        W23086  12.324  24.539   2.107
50827W        W23087  14.750  36.140  13.290
50828W        W23088  27.107  13.534   4.429
50829W        W23089   7.402   3.391   3.128
50830W        W23090  36.379  35.688   0.225
50831W        W23091  14.822  15.210  10.261
50832W        W23092   7.700  36.012   3.597
50833W        W23093   2.276  37.807  14.952
50834W        W23094  31.008  20.158  11.640
50835W        W23095  34.880  23.195   2.297
50836W        W23096  32.616   8.876  12.017
50837W        W23097  25.963  11.563  14.441
50838W        W23098  21.785  25.623   0.766
50839W        W23099   0.516  29.280  10.416
50840W        W23100  44.517  33.812  11.119
50841W        W23101  20.492  34.388  11.639
50842W        W23102  44.026  20.096   3.780
50843W        W23103  11.057   1.398  12.515
50844W        W23104  27.566  10.155  11.555
50845W        W23105  10.225  29.388   2.826
50846W        W23106  16.030  34.951   4.543
50847W        W23107  30.382  26.115  12.907
50848W        W23108  10.142   7.351  13.398
50849W        W23109  27.106   3.810  14.480
50850W        W23110  11.647   3.272  11.314
50851W        W23111  15.663   9.415  13.959
50852W        W23112  14.713  21.967   2.782
50853W        W23113  30.934  25.909   3.024
50854W        W23114   0.531  29.185  13.022
50855W        W23115  42.641  16.106   3.134
50856W        W23116   3.859   1.632  13.040
50857W        W23117  33.862  13.856  11.912
50858W        W23118  21.005  15.201  12.515
50859W        W23119   8.833   9.166  14.367
50860W        W23120  41.834   9.272  11.194
50861W        W23121   3.906  14.734  11.072
50862W        W23122  10.893  16.243   2.327
50863W        W23123  22.616  11.580   4.992
50864W        W23124  22.845   6.358   3.244
50865W        W23125  22.138  29.937  12.121
50866W        W23126  35.108  12.870   0.915
50867W        W23127  21.088  20.534   3.763
50868W        W23128   4.810  18.928   3.706
50869W        W23129  21.639   6.921   2.142
50870W        W23130   8.336  14.956  12.107
50871W        W23131  22.717   3.513   3.269
50872W        W23132   3.313  26.499  10.242
50873W        W23133  20.213  13.787   1.400
50874W        W23134  28.944  14.762   0.795
50875W        W23135  25.660  23.520  12.240
50876W        W23136  28.593   1.761   0.695
50877W        W23137  37.351  16.379   2.774
50878W        W23138  33.010  24.189   1.707
50879W        W23139  38.519  31.725   2.383
50880W        W23140  16.958   2.440   0.393
50881W        W23141   8.129  37.470   4.630
50882W        W23142  13.527  44.227   1.921
50883W        W23143  41.298   1.756  13.827
50884W        W23144  32.137  21.580  12.905
50885W        W23145  18.107  20.739   3.263
50886W        W23146   5.474  25.789  12.841
50887W        W23147  26.566  12.035   4.986
50888W        W23148   8.202   8.961  12.137
50889W        W23149  34.944   8.362  11.104
50890W        W23150  29.610  23.054   1.206
50891W        W23151   8.017  27.364  14.954
50892W        W23152  33.743  22.481   2.667
50893W        W23153  39.993   9.144  14.330
50894W        W23154   4.344  32.447  11.060
50895W        W23155  44.262  25.970  11.144
50896W        W23156  36.215  44.349   2.347
50897W        W23157   8.789  21.200   2.735
50898W        W23158   3.290  37.489   3.702
50899W        W23159  17.933   6.702   0.912
50900W        W23160   8.727  44.336  13.492
50901W        W23161  19.592  34.337  13.255
50902W        W23162  22.193   3.698   1.432
50903W        W23163  27.550  21.222   2.317
50904W        W23164  11.397   8.603   0.932
50905W        W23165  25.121  24.687   4.214
50906W        W23166  13.657  23.986  14.864
50907W        W23167  22.725  23.137  11.073
50908W        W23168  30.438  42.024   0.380
50909W        W23169  12.234  23.872  11.129
50910W        W23170  35.610   5.563   0.994
50911W        W23171  39.404  36.003  14.284
50912W        W23172  44.850  18.154   3.241
50913W        W23173  20.448   7.759   4.054
50914W        W23174  40.876  43.251   4.479
50915W        W23175   0.433  26.501   0.974
50916W        W23176   9.628  41.097   0.613
50917W        W23177  11.939   2.332   1.879
50918W        W23178   0.183   8.354  12.346
50919W        W23179  17.420  31.455   0.362
50920W        W23180  39.505  27.132  11.160
50921W        W23181  23.451  27.626   2.043
50922W        W23182  33.291  22.016  14.842
50923W        W23183  39.903  32.538  12.592
50924W        W23184  15.248  17.127   5.474
50925W        W23185   3.042  12.553   2.830
50926W        W23186  37.842  31.051  12.148
50927W        W23187  17.144  22.936   1.568
50928W        W23188  13.606  39.359   0.985
50929W        W23189  44.269  44.896   4.255
50930W        W23190  42.052  27.469  12.385
50931W        W23191  16.304  11.614  13.383
50932W        W23192  14.248  13.135  14.969
50933W        W23193  15.098  15.376  11.469
50934W        W23194  18.497  41.033   1.839
50935W        W23195  22.606  37.477  14.350
50936W        W23196  33.603   2.922  14.303
50937W        W23197  18.329  27.719   3.538
50938W        W23198   1.068   4.469   4.084
50939W        W23199  21.490  41.328  13.719
50940W        W23200  43.979  41.536  12.947
50941W        W23201  12.346  10.672   4.198
50942W        W23202  36.785  30.093  10.425
50943W        W23203  30.270  34.350   0.805
50944W        W23204  17.635  28.917  11.635
50945W        W23205  39.360  18.470   4.865
50946W        W23206   4.726   3.709   3.890
50947W        W23207  40.785  28.603  13.409
50948W        W23208  10.224  20.470  14.901
50949W        W23209   3.519  18.366  13.586
50950W        W23210  10.394  40.081  14.492
50951W        W23211  22.788  10.887  14.377
50952W        W23212  37.824   9.842  12.263
50953W        W23213  26.095  37.473  11.050
50954W        W23214  13.116  33.054   1.402
50955W        W23215   2.169  26.072  12.495
50956W        W23216  33.607  26.974   1.396
50957W        W23217  38.771   6.764  10.983
50958W        W23218   4.160  10.314   3.868
50959W        W23219  20.706  27.067   1.862
50960W        W23220  18.648  25.993   3.183
50961W        W23221  30.728  18.018   0.861
50962W        W23222   4.657  16.239   0.510
50963W        W23223  10.885   4.747   4.280
50964W        W23224  40.074  41.404  10.736
50965W        W23225  19.652  23.511   1.348
50966W        W23226   4.752  13.741  12.059
50967W        W23227  15.160  29.412   4.441
50968W        W23228  22.599  24.490  10.574
50969W        W23229  42.932   8.977   1.736
50970W        W23230  29.754  38.228   4.079
50971W        W23231   6.027  18.755  12.570
50972W        W23232  22.590  21.347   0.689
50973W        W23233  44.910  17.592   3.358
50974W        W23234  17.998   8.721   2.615
50975W        W23235   7.763  12.108   3.178
50976W        W23236  31.992  22.067  14.545
50977W        W23237   6.316  13.121   3.641
50978W        W23238  15.358  43.189  12.992
50979W        W23239   8.234  24.437   1.815
50980W        W23240  41.007  37.248  12.559
50981W        W23241  18.516  38.818   2.206
50982W        W23242   9.177  29.850   0.570
50983W        W23243  33.884   5.173  13.857
50984W        W23244  34.355  27.373   2.199
50985W        W23245  39.005  44.516  10.048
50986W        W23246  37.185   1.201   4.084
50987W        W23247  21.350  36.085   4.577
50988W        W23248  25.903  21.884  11.875
50989W        W23249  18.126  20.243   3.290
50990W        W23250  11.098   8.254  12.671
50991W        W23251  37.258  35.423   0.651
50992W        W23252  25.688  39.775  13.004
50993W        W23253  44.778  19.197   3.316
50994W        W23254  24.763   8.937  13.903
50995W        W23255  15.125  25.983  10.711
50996W        W23256   8.593   5.922   3.420
50997W        W23257  14.536   3.372   0.700
50998W        W23258  25.341  14.148  11.983
50999W        W23259  41.575  36.977   3.873
51000W        W23260  35.391  16.240   1.936
51001W        W23261  13.523  15.655   1.576
51002W        W23262  13.002  37.224  13.799
51003W        W23263   1.469  13.567  14.052
51004W        W23264  12.368   5.859  11.691
51005W        W23265  24.458  18.761   4.621
51006W        W23266  31.016   6.695  11.121
51007W        W23267  24.016  38.913  11.953
51008W        W23268  44.408  35.025  11.993
51009W        W23269  25.219  42.568   1.458
51010W        W23270  36.276  31.090   1.115
51011W        W23271  33.298  18.084   2.886
51012W        W23272  30.999   4.303   3.319
51013W        W23273  10.871  38.769   4.188
51014W        W23274  16.359  31.765  12.152
51015W        W23275  17.832  11.684  13.306
51016W        W23276  20.721  32.952  14.872
51017W        W23277  34.379   9.813   3.727
51018W        W23278  40.786  26.894   0.818
51019W        W23279  30.817  15.115  12.470
51020W        W23280   9.271  24.238   1.279
51021W        W23281  30.438  12.805  13.273
51022W        W23282  43.162  14.709   4.605
51023W        W23283   4.865  14.163  12.925
51024W        W23284  40.004  34.159  11.141
51025W        W23285   4.399  14.544   4.737
51026W        W23286  10.350  16.198  14.089
51027W        W23287  38.299  32.376  10.700
51028W        W23288  42.459  39.284   2.275
51029W        W23289  41.273  20.943   1.877
51030W        W23290  22.264  32.893  12.908
51031W        W23291  13.770  40.722  13.037
51032W        W23292  43.318   0.525  14.411
51033W        W23293  14.753  39.472   3.568
51034W        W23294  43.704  32.840   0.794
51035W        W23295  31.010  21.235   0.055
51036W        W23296  38.463  44.051   1.205
51037W        W23297   2.927  13.718   0.893
51038W        W23298  29.748  22.199   2.639
51039W        W23299  30.162  32.738   3.759
51040W        W23300  17.999   9.117  12.796
51041W        W23301  27.415  21.241  12.217
51042W        W23302  15.708  24.009   3.670
51043W        W23303  23.485  37.374  14.332
51044W        W23304  13.169   6.950   3.543
51045W        W23305  13.794  25.209  13.393
51046W        W23306   5.139  42.486   1.271
51047W        W23307  33.257  43.944  12.471
51048W        W23308  39.475  16.087   1.546
51049W        W23309  38.822   7.694   0.707
51050W        W23310  34.152  12.065   4.311
51051W        W23311  16.146  41.849   2.035
51052W        W23312  41.112  35.930  13.526
51053W        W23313  26.041  40.582   0.853
51054W        W23314  32.477  42.484  14.507
51055W        W23315  18.318  21.580  12.147
51056W        W23316  35.771  29.490   4.374
51057W        W23317  43.890  40.792   4.555
51058W        W23318  36.636  39.969  14.942
51059W        W23319  24.307  19.699   3.544
51060W        W23320  36.529  22.972  11.667
51061W        W23321  27.923  12.241  12.089
51062W        W23322  29.829  24.658  12.191
51063W        W23323   8.381  43.590   0.969
51064W        W23324  20.132  40.366  11.305
51065W        W23325  15.738   5.275  10.819
51066W        W23326   2.073  40.260  11.563
51067W        W23327  35.202  21.970  13.194
51068W        W23328  44.756   3.148   1.038
51069W        W23329  37.594   2.882   2.307
51070W        W23330  12.451  27.640  12.328
51071W        W23331  34.945  42.408   1.882
51072W        W23332  20.070  11.278   1.250
51073W        W23333   4.718   3.470   1.723
51074W        W23334   3.138   9.847   2.852
51075W        W23335  29.473  35.026  14.956
51076W        W23336  11.163  41.400  14.513
51077W        W23337  13.423  14.712  14.017
51078W        W23338  14.796  30.623  10.287
51079W        W23339  36.939  25.950   1.957
51080W        W23340   9.165  30.575   1.496
51081W        W23341  13.742  16.390  13.911
51082W        W23342  22.781  44.932   1.342
51083W        W23343  26.633  40.653  12.365
51084W        W23344  11.764  28.994   4.554
51085W        W23345  42.382  21.275   2.662
51086W        W23346  42.523  33.637  12.944
51087W        W23347  20.125  29.964  13.480
51088W        W23348   7.899  30.503  14.277
51089W        W23349  28.388  39.163  12.535
51090W        W23350  36.467  36.562   4.254
51091W        W23351  42.662  12.196   4.326
51092W        W23352  11.253  37.264   2.665
51093W        W23353   5.966  37.820   1.267
51094W        W23354  25.498  26.610  11.518
51095W        W23355  41.505   5.384   1.833
51096W        W23356  41.085  32.643  14.914
51097W        W23357  29.637   9.848  12.166
51098W        W23358   4.535   0.743  14.058
51099W        W23359  21.213  44.729   1.378
51100W        W23360  37.843  38.868  10.787
51101W        W23361  28.201   1.305   3.758
51102W        W23362   1.673  17.607   4.981
51103W        W23363  39.996  40.088   2.770
51104W        W23364  38.915   8.948  13.034
51105W        W23365  19.146  33.594   1.201
51106W        W23366  34.370  14.349   3.722
51107W        W23367  17.636  29.681   4.157
51108W        W23368  40.096  34.903   0.314
51109W        W23369  22.009   6.382   0.209
51110W        W23370  30.698  27.064  10.981
51111W        W23371  43.926  17.142   3.159
51112W        W23372  14.314  15.643   1.822
51113W        W23373   2.970   3.019  11.157
51114W        W23374  18.231  27.073  11.451
51115W        W23375  10.365  19.658  11.411
51116W        W23376  15.562  26.405  13.013
51117W        W23377  44.954  40.775  11.698
51118W        W23378  37.996   5.444  13.825
51119W        W23379  42.696  39.998   2.801
51120W        W23380  28.825  40.682  14.245
51121W        W23381   4.905   1.839   3.988
51122W        W23382  36.409  20.040   3.333
51123W        W23383  13.126  34.280  11.408
51124W        W23384  41.995  37.339   0.393
51125W        W23385  21.315  35.243   1.283
51126W        W23386  30.676   8.062   3.416
51127W        W23387  10.147  18.688  10.546
51128W        W23388  31.060  11.368  11.393
51129W        W23389  34.927  37.589  14.995
51130W        W23390  12.176  44.277  13.970
51131W        W23391  11.935  42.966  10.758
51132W        W23392  33.146   8.372  14.789
51133W        W23393  15.966  17.566  11.616
51134W        W23394   3.467  42.051  13.795
51135W        W23395  41.420  13.138  11.131
51136W        W23396  22.927  37.359  11.163
51137W        W23397  36.937  26.750   4.440
51138W        W23398   7.762  44.599   3.169
51139W        W23399  11.897  20.299  10.524
51140W        W23400  19.948  35.086  12.886
51141W        W23401  13.264  16.513  11.114
51142W        W23402   0.359  11.059  13.147
51143W        W23403   4.836  44.856   1.476
51144W        W23404   5.946  32.896  12.164
51145W        W23405  22.092  44.738   0.905
51146W        W23406  23.659  15.070  10.699
51147W        W23407  18.736  39.789  10.657
51148W        W23408  26.087  25.590  11.655
51149W        W23409  25.415   1.790  11.960
51150W        W23410  27.134  40.167  13.949
51151W        W23411   1.700  37.282  12.445
51152W        W23412  41.436  24.586  13.464
51153W        W23413  29.340  30.089   0.302
51154W        W23414   7.237  44.743   0.040
51155W        W23415   1.371  40.750   2.561
51156W        W23416   3.953  37.047   3.323
51157W        W23417  21.205  20.110  13.045
51158W        W23418  25.043   5.111   1.128
51159W        W23419  17.379  24.097  10.639
51160W        W23420  37.866  26.445  14.251
51161W        W23421  25.321  16.124  11.993
51162W        W23422  19.725  28.036   0.994
51163W        W23423  12.809  42.741   1.255
51164W        W23424  38.476  33.330  14.401
51165W        W23425   9.328  21.151  10.713
51166W        W23426  15.658  26.017  11.878
51167W        W23427  39.034  13.322   4.236
51168W        W23428  26.495  27.685  10.683
51169W        W23429   7.769  43.323  13.020
51170W        W23430  20.623  34.871  11.490
51171W        W23431  27.042   8.290   2.934
51172W        W23432  39.411  23.756   4.578
51173W        W23433   0.778  32.412   1.296
51174W        W23434  29.031   3.658  11.222
51175W        W23435  23.160  15.293   2.478
51176W        W23436  26.539  30.888  11.983
51177W        W23437   3.347  15.190  11.566
51178W        W23438  16.630  12.844  10.579
51179W        W23439   4.889  41.315  11.022
51180W        W23440  26.523   4.705   2.719
51181W        W23441  32.656  36.536  12.340
51182W        W23442   4.341  29.194  14.094
51183W        W23443   7.995  12.274   0.505
51184W        W23444   7.176  36.162  12.898
51185W        W23445  17.035  27.982  11.049
51186W        W23446  39.916  12.614   4.620
51187W        W23447  35.929  42.504   4.942
51188W        W23448   5.487  13.580  13.068
51189W        W23449  12.290  16.295  11.985
51190W        W23450   8.702  29.857   1.376
51191W        W23451   4.978  43.673   1.739
51192W        W23452   4.935  42.467  12.532
51193W        W23453  42.051  15.333  14.349
51194W        W23454  19.716  17.616   4.029
51195W        W23455  41.212  16.256  12.464
51196W        W23456   0.416  35.985  12.421
51197W        W23457   4.843  42.198   3.256
51198W        W23458  16.120  39.558   0.361
51199W        W23459  19.766  27.476   4.265
51200W        W23460   2.475  35.950   2.232
51201W        W23461  32.358  26.802   4.394
51202W        W23462  32.937  33.945  13.925
51203W        W23463  23.901  27.150  10.210
51204W        W23464   5.184  29.668   3.391
51205W        W23465   1.472  13.395   1.088
51206W        W23466  20.312   0.869   3.571
51207W        W23467  19.078  44.923   1.821
51208W        W23468  20.452  34.934  10.802
51209W        W23469  26.921   3.746   4.020
51210W        W23470  11.771   7.892  14.548
51211W        W23471  35.640   8.393   0.321
51212W        W23472  44.182  31.518   1.380
51213W        W23473  40.399  30.461  12.693
51214W        W23474   7.827  17.567   0.187
51215W        W23475   8.719  27.230  13.921
51216W        W23476  14.594  26.616   4.407
51217W        W23477   0.306  25.072  13.000
51218W        W23478   3.956  10.230   1.063
51219W        W23479  44.120  18.299  12.436
51220W        W23480  35.364  39.068   9.889
51221W        W23481  21.196   5.265  12.889
51222W        W23482  14.022  23.495   2.046
51223W        W23483  19.222  17.289   3.706
51224W        W23484  18.874  12.721   4.002
51225W        W23485   4.955  23.768   4.017
51226W        W23486  36.591  23.505  11.831
51227W        W23487  35.749  32.234  13.789
51228W        W23488   8.624  21.305   3.235
51229W        W23489   7.406   8.318  11.987
51230W        W23490  32.402  17.443   3.446
51231W        W23491   7.335  34.456  12.139
51232W        W23492  10.657  16.824   3.712
51233W        W23493  43.542   3.926   1.366
51234W        W23494   4.957  30.400   2.202
51235W        W23495  21.009  24.495   2.960
51236W        W23496   3.875  31.846  10.669
51237W        W23497   1.818  39.907   0.694
51238W        W23498  15.665  18.815  14.744
51239W        W23499  30.220  22.197  11.091
51240W        W23500  13.653  24.358  13.568
51241W        W23501   4.898  17.707   0.797
51242W        W23502  12.298  35.452   0.876
51243W        W23503  11.232  37.729   0.472
51244W        W23504  33.651  10.786   1.327
51245W        W23505   3.297  25.563   0.701
51246W        W23506  35.865  18.584   0.053
51247W        W23507  23.737   0.806  13.974
51248W        W23508   6.320  15.740  12.218
51249W        W23509  14.293  18.079  12.283
51250W        W23510   9.847   1.513  10.587
51251W        W23511  43.586   7.817  11.622
51252W        W23512  25.493  40.576   0.376
51253W        W23513  37.516  35.593   3.112
51254W        W23514   0.955  11.081  12.373
51255W        W23515  17.689  32.998  12.381
51256W        W23516   2.526   4.198  14.446
51257W        W23517   1.997   9.600   0.227
51258W        W23518  24.630  41.274  14.891
51259W        W23519  38.042  36.083   0.785
51260W        W23520  29.966  11.048  12.227
51261W        W23521  19.309   8.787   2.176
51262W        W23522   0.425  43.251   0.842
51263W        W23523   4.330  17.529   3.329
51264W        W23524  15.104   3.982   2.969
51265W        W23525  11.783   0.857   5.081
51266W        W23526   3.406  17.865  13.833
51267W        W23527  26.046  32.430   2.219
51268W        W23528   3.886  31.498  12.448
51269W        W23529   8.479  29.141   4.185
51270W        W23530  20.757  41.875   0.397
51271W        W23531  44.958   1.394   4.147
51272W        W23532  14.739   2.341  11.090
51273W        W23533  44.042  44.825   3.225
51274W        W23534  19.664  17.747  12.413
51275W        W23535  41.807  23.064  11.763
51276W        W23536  43.331   0.671   2.255
51277W        W23537  13.399  38.319  13.770
51278W        W23538  29.629  26.967  14.787
51279W        W23539  27.417  35.503   3.917
51280W        W23540  42.909  44.663   1.831
51281W        W23541  41.989   0.114  10.925
51282W        W23542  30.356   9.805   3.635
51283W        W23543  44.408  18.220   1.187
51284W        W23544   5.028  22.678  12.098
51285W        W23545  16.519  38.918  14.238
51286W        W23546  21.105  13.457   3.097
51287W        W23547   0.052   4.713   2.268
51288W        W23548  20.470   4.988  10.763
51289W        W23549  18.784  42.758  10.576
51290W        W23550   3.276  42.892   4.651
51291W        W23551  15.544   6.384  12.808
51292W        W23552  21.430  23.869  10.210
51293W        W23553  32.249  26.771  11.751
51294W        W23554  23.577  27.163   0.377
51295W        W23555  19.549  35.439  14.908
51296W        W23556  28.976  18.297   2.186
51297W        W23557  38.585  37.499   2.369
51298W        W23558  33.371  41.364  14.366
51299W        W23559  14.922  25.382  13.743
51300W        W23560  11.240  29.578   5.438
51301W        W23561  25.072  35.205  14.073
51302W        W23562   4.266  15.814   1.183
51303W        W23563   4.327  29.587   3.131
51304W        W23564   1.915  12.704   2.740
51305W        W23565  39.008  11.976   0.058
51306W        W23566   9.701  26.153   3.742
51307W        W23567  32.147  32.116  14.030
51308W        W23568  21.987  29.493   9.881
51309W        W23569   0.930  10.645   0.708
51310W        W23570  38.436  40.089   3.778
51311W        W23571  23.996  41.987  11.485
51312W        W23572  38.075   5.765  13.314
51313W        W23573  38.545  39.797   3.355
51314W        W23574  28.640  40.218  11.136
51315W        W23575  22.632  13.378   1.827
51316W        W23576  34.090  41.848   3.761
51317W        W23577  44.912  10.419  14.183
51318W        W23578  13.122   9.210   0.124
51319W        W23579  28.990  44.226  11.971
51320W        W23580  42.778   5.972   0.884
51321W        W23581  40.787  22.111   2.375
51322W        W23582  39.023  27.100   3.438
51323W        W23583  13.884   6.458  10.664
51324W        W23584   4.264  31.424  14.688
51325W        W23585  18.242  17.056  10.775
51326W        W23586  19.050   0.661   3.240
51327W        W23587  38.421  14.152  12.446
51328W        W23588  34.606  27.071  14.811
51329W        W23589   2.785  36.584   3.725
51330W        W23590   2.316  31.091   3.833
51331W        W23591  43.449  10.160   2.957
51332W        W23592   2.740  19.103   1.663
51333W        W23593  37.909  17.058  11.693
51334W        W23594   7.391   9.392  11.136
51335W        W23595   1.183  33.434   0.305
51336W        W23596  10.888  40.007  12.621
51337W        W23597  40.227  13.660  14.718
51338W        W23598  25.623  25.655  13.443
51339W        W23599  35.973  22.054   3.150
51340W        W23600  17.229  17.026   2.757
51341W        W23601   8.319  33.845   2.382
51342W        W23602  15.464  30.190   2.621
51343W        W23603  35.538  40.025   2.346
51344W        W23604  21.464  25.573   2.313
51345W        W23605  32.487   0.339   2.205
51346W        W23606  35.580  24.217   1.820
51347W        W23607  41.596  13.220  13.545
51348W        W23608  31.365  42.319  13.882
51349W        W23609  29.311  21.084   4.139
51350W        W23610  32.180  26.278  11.561
51351W        W23611  43.355  42.964  10.824
51352W        W23612  41.963  30.069   1.160
51353W        W23613  36.084  21.536   3.163
51354W        W23614  24.726  19.800  10.622
51355W        W23615   5.502  39.262   1.439
51356W        W23616   5.437  13.338  12.433
51357W        W23617  14.606   6.023  10.180
51358W        W23618  21.601  25.641   4.418
51359W        W23619  11.062  33.559  13.529
51360W        W23620  36.007  39.893   2.122
51361W        W23621  29.538  40.979  11.998
51362W        W23622   3.927  21.530  11.120
51363W        W23623  17.831   6.624  13.501
51364W        W23624  41.524   6.954  11.165
51365W        W23625  34.337  31.970  13.464
51366W        W23626  27.108  36.473   4.177
51367W        W23627  27.576  30.690   5.102
51368W        W23628  36.271  20.380  10.324
51369W        W23629  15.155  10.757   3.646
51370W        W23630  32.977   0.451  13.152
51371W        W23631   5.198  34.071  10.653
51372W        W23632  36.289  42.253  10.589
51373W        W23633   4.327  38.662   4.129
51374W        W23634  31.664  23.904   1.678
51375W        W23635   8.097  28.906   0.763
51376W        W23636  35.226  12.468  14.760
51377W        W23637  30.107  10.883  14.933
51378W        W23638  18.932   0.935   2.452
51379W        W23639  21.720  16.933  12.616
51380W        W23640  23.969   6.074   0.764
51381W        W23641  38.119  28.973   1.703
51382W        W23642  12.311  37.596   4.080
51383W        W23643  10.747  22.574  13.610
51384W        W23644  40.042  39.088  11.472
51385W        W23645  10.487  37.221   2.890
51386W        W23646  26.713  37.614  14.762
51387W        W23647  12.273  26.580   2.371
51388W        W23648  41.383   0.202  11.255
51389W        W23649  44.641   8.594   2.393
51390W        W23650  14.730  28.506   1.796
51391W        W23651  34.450   7.896   0.382
51392W        W23652  10.860   4.303  14.513
51393W        W23653   7.860  38.303   1.479
51394W        W23654  25.902  41.902  12.501
51395W        W23655  41.476  35.070   4.465
51396W        W23656  21.711   5.221  12.822
51397W        W23657  35.373  26.566  11.158
51398W        W23658  15.370   9.233  13.594
51399W        W23659  20.467   3.411  11.053
51400W        W23660  42.325   8.924  14.824
51401W        W23661  15.240  25.482  12.921
51402W        W23662  28.506   3.366  14.977
51403W        W23663   1.021   7.227  10.569
51404W        W23664  23.965  26.771   4.766
51405W        W23665  28.054  28.058   3.671
51406W        W23666  30.012  25.517  12.511
51407W        W23667  19.276  14.235   1.485
51408W        W23668  40.524  37.512  12.343
51409W        W23669  12.909  21.448   3.077
51410W        W23670   3.673  18.275  12.780
51411W        W23671  25.166   4.321  10.453
51412W        W23672   9.318  29.092  12.411
51413W        W23673  15.190  38.293  10.546
51414W        W23674  43.481  39.603   0.860
51415W        W23675  36.415  14.562   0.023
51416W        W23676  11.825  26.295   2.278
51417W        W23677   8.537  33.955   1.560
51418W        W23678  39.869   0.228  14.815
51419W        W23679  19.851  28.467   1.911
51420W        W23680  16.598  18.288  10.826
51421W        W23681   3.502  13.682  11.718
51422W        W23682   6.186   9.937   1.913
51423W        W23683  36.013  22.140   3.697
51424W        W23684  27.532  41.928   3.729
51425W        W23685  21.182  32.306  11.677
51426W        W23686  22.526  19.152  13.378
51427W        W23687  42.030  13.252   0.129
51428W        W23688  42.302  10.295   1.770
51429W        W23689  13.816  26.610  10.988
51430W        W23690  16.250  40.349  14.701
51431W        W23691  20.677  44.536   2.807
51432W        W23692   4.412  36.894   0.825
51433W        W23693  33.669  21.274  13.375
51434W        W23694  38.311  32.880   0.186
51435W        W23695  36.518  33.257  14.776
51436W        W23696   3.132   1.211   1.181
51437W        W23697  33.711  27.788  11.734
51438W        W23698  21.031  25.895  12.364
51439W        W23699  40.066  31.080   4.540
51440W        W23700   7.453  30.630  13.964
51441W        W23701  26.031  26.679   4.967
51442W        W23702  17.439  28.499   1.894
51443W        W23703  25.187  28.733   1.389
51444W        W23704  25.507   0.830  12.929
51445W        W23705  23.305  42.879   0.175
51446W        W23706  24.004  29.402  13.793
51447W        W23707  13.196   6.648  13.886
51448W        W23708  34.675   2.337   3.750
51449W        W23709  32.904  32.960   0.408
51450W        W23710  24.225   2.023   3.258
51451W        W23711  40.529   3.047  11.946
51452W        W23712  27.092  36.415   0.677
51453W        W23713  11.348  14.692  12.950
51454W        W23714  33.698  39.915  14.484
51455W        W23715  15.053   1.231  12.842
51456W        W23716  36.016  18.079   0.428
51457W        W23717  34.417   3.033   0.789
51458W        W23718   9.964  43.014   0.375
51459W        W23719  12.328  36.559   3.891
51460W        W23720  35.085  33.294  10.377
51461W        W23721  12.431  44.823  14.940
51462W        W23722  21.474  22.767   0.348
51463W        W23723   5.838   9.201   4.542
51464W        W23724   1.355  37.987  14.899
51465W        W23725   2.706  23.798   1.827
51466W        W23726  19.488  17.299  10.911
51467W        W23727  33.390  19.185   0.464
51468W        W23728  40.439  30.945  11.418
51469W        W23729  28.980  42.092  11.746
51470W        W23730  27.503  10.680   0.306
51471W        W23731  43.819  14.211   2.405
51472W        W23732  28.187  19.325   0.049
51473W        W23733  35.727  24.953   2.432
51474W        W23734  19.806  17.078  13.082
51475W        W23735  30.687  23.347   0.782
51476W        W23736  25.416  28.950  11.167
51477W        W23737  27.045  32.826   4.704
51478W        W23738   3.802  16.261  12.117
51479W        W23739  27.517  33.591   0.938
51480W        W23740  29.832   2.811  12.845
51481W        W23741  37.046  17.612  11.991
51482W        W23742  23.098  34.606  14.697
51483W        W23743  28.578   6.727  13.933
51484W        W23744   3.165  18.205   0.028
51485W        W23745  16.808  28.125   1.191
51486W        W23746  10.318  29.177  12.536
51487W        W23747  42.396  14.825   1.815
51488W        W23748  24.691   7.821   1.383
51489W        W23749  35.469   6.672   2.908
51490W        W23750  37.136  41.088   2.425
51491W        W23751  44.422  40.772  13.462
51492W        W23752  42.756  18.511   0.010
51493W        W23753  20.284  35.785   0.809
51494W        W23754  32.207  44.023   4.595
51495W        W23755  34.619   7.639   4.143
51496W        W23756  22.488  44.835  13.484
51497W        W23757  44.402  17.522  13.137
51498W        W23758  12.631   8.632  11.121
51499W        W23759  22.160  24.319  11.169
51500W        W23760  17.276  28.026  14.532
51501W        W23761  28.275  12.494  14.843
51502W        W23762  17.052  24.018  14.878
51503W        W23763   8.660  28.686  14.025
51504W        W23764   1.436  31.050   1.658
51505W        W23765  35.640  26.006   2.178
51506W        W23766  29.253  31.857  12.453
51507W        W23767   1.798   6.479  13.255
51508W        W23768  26.770  31.159   3.119
51509W        W23769  22.159  36.235   0.993
51510W        W23770  42.486  36.741   4.882
51511W        W23771  21.782  41.289   2.805
51512W        W23772   6.804  13.833  10.658
51513W        W23773  24.606  36.469   2.690
51514W        W23774  12.799  35.930  13.997
51515W        W23775  39.335  21.986   3.318
51516W        W23776  39.268  12.382  12.958
51517W        W23777   8.027   7.689  10.735
51518W        W23778  36.800   7.807  13.838
51519W        W23779  27.462  16.417  10.939
51520W        W23780  30.902  41.026   3.885
51521W        W23781   7.018   0.936  14.089
51522W        W23782  25.289   6.724   3.223
51523W        W23783  17.279   3.045  12.591
51524W        W23784  15.795   8.609   3.117
51525W        W23785  40.135  21.666   1.678
51526W        W23786  22.139   6.353  13.893
51527W        W23787   3.333  17.250   0.959
51528W        W23788   7.768  32.024   1.317
51529W        W23789  12.795   1.850  14.321
51530W        W23790   4.694  42.012  10.668
51531W        W23791  38.027  22.023  13.090
51532W        W23792  38.008   8.772  11.099
51533W        W23793  40.758   5.652   0.055
51534W        W23794  18.305  34.961   3.730
51535W        W23795  43.026   3.387   4.843
51536W        W23796   9.619  23.955   0.929
51537W        W23797  15.265  31.362  11.498
51538W        W23798  20.783   1.522  10.730
51539W        W23799  16.163  37.992  12.929
51540W        W23800  10.431  34.859  11.163
51541W        W23801   0.697  24.276   0.024
51542W        W23802  15.807   9.880  14.868
51543W        W23803  44.266  33.654  13.624
51544W        W23804   9.336  28.623   2.351
51545W        W23805  18.169  42.418   0.815
51546W        W23806  26.435  35.603  14.912
51547W        W23807  42.376  25.657  14.162
51548W        W23808  32.042   5.598  11.199
51549W        W23809  37.013   3.005  14.836
51550W        W23810   6.354  30.616  11.060
51551W        W23811  41.526  34.383  14.900
51552W        W23812  14.712  12.697  10.733
51553W        W23813   3.390   8.190  13.645
51554W        W23814  42.118  24.161  12.427
51555W        W23815  18.663  42.226   4.626
51556W        W23816  42.550  23.764   3.200
51557W        W23817  44.675   8.434   5.099
51558W        W23818   5.271  10.919   4.119
51559W        W23819  11.050   5.595  13.398
51560W        W23820  10.859  19.201   3.629
51561W        W23821  42.019  28.637  12.672
51562W        W23822   0.914  12.502   2.646
51563W        W23823  39.929  39.624   1.937
51564W        W23824  34.935  27.346   0.384
51565W        W23825  27.548  44.066  12.930
51566W        W23826  20.076  41.997   1.329
51567W        W23827   1.696   7.400  11.605
51568W        W23828  11.548  23.673  11.658
51569W        W23829   8.320  30.712   1.426
51570W        W23830  23.862  26.072   3.396
51571W        W23831  13.780  15.338   0.202
51572W        W23832   6.710  39.900  13.913
51573W        W23833  37.381  36.876   3.403
51574W        W23834   0.919  32.166  13.706
51575W        W23835  22.658   2.476   3.228
51576W        W23836  31.366  44.252  12.518
51577W        W23837   3.281  22.875  11.386
51578W        W23838  29.527   2.477  12.515
51579W        W23839  22.592  32.220   2.310
51580W        W23840  38.090  41.410   5.030
51581W        W23841   9.978  24.190   4.566
51582W        W23842  13.696  23.192  12.836
51583W        W23843  15.240  14.620   2.651
51584W        W23844  38.348  34.118   3.300
51585W        W23845  22.644  35.475  13.448
51586W        W23846   4.210  42.121  10.450
51587W        W23847   0.769   0.271  10.560
51588W        W23848  29.564  43.172  10.430
51589W        W23849  29.368  26.473  14.553
51590W        W23850  29.766  34.131   1.049
51591W        W23851   7.357  37.293  13.711
51592W        W23852  42.929  17.605  11.957
51593W        W23853  17.216  10.782   4.203
51594W        W23854  38.421   0.751  11.995
51595W        W23855  22.051  23.881  11.515
51596W        W23856   8.597  27.586  14.302
51597W        W23857  37.405   0.415  14.980
51598W        W23858  30.499  13.786  11.910
51599W        W23859  23.289  11.770  10.601
51600W        W23860  10.390  11.883  13.004
51601W        W23861  20.751  18.033   1.981
51602W        W23862   3.869   6.231   4.682
51603W        W23863  15.306  10.093   0.100
51604W        W23864  31.520  41.162   0.413
51605W        W23865   8.786   3.453  12.526
51606W        W23866   6.879  16.502  13.616
51607W        W23867  28.118  40.748  13.326
51608W        W23868  28.482  35.247  11.545
51609W        W23869  16.337   7.984   3.895
51610W        W23870  28.080  18.248  14.583
51611W        W23871  12.361  20.026   1.406
51612W        W23872  16.977  39.171   1.008
51613W        W23873   7.922  10.383  11.930
51614W        W23874   9.111  25.499   0.246
51615W        W23875  44.305  24.950   1.199
51616W        W23876  44.062  15.823  14.935
51617W        W23877  26.952  34.500  11.489
51618W        W23878   5.679  11.697   0.963
51619W        W23879  13.326  39.602   3.226
51620W        W23880  21.170   5.061   2.397
51621W        W23881  35.135  28.234  13.267
51622W        W23882   3.520  35.849  11.951
51623W        W23883   0.444  42.931   2.373
51624W        W23884  21.117  37.919   1.717
51625W        W23885   4.912  11.228  13.542
51626W        W23886  13.694  16.252   3.344
51627W        W23887   7.749  12.698  13.624
51628W        W23888   9.171  36.373   1.893
51629W        W23889  25.532  41.037  11.526
51630W        W23890  11.437  31.006   1.214
51631W        W23891  27.260  42.716  13.904
51632W        W23892   9.179  32.393   3.251
51633W        W23893  38.760  29.485  13.855
51634W        W23894  14.882  19.235  14.907
51635W        W23895   2.296  16.466   1.457
51636W        W23896  34.953  16.817   0.586
51637W        W23897  27.120  22.616   2.824
51638W        W23898  38.927  44.971   1.003
51639W        W23899  21.069  33.869   1.395
51640W        W23900  44.127  12.126   3.743
51641W        W23901  21.607  40.923   3.761
51642W        W23902  19.203  29.220   1.680
51643W        W23903   7.144  33.472   3.334
51644W        W23904  42.205  12.381  12.762
51645W        W23905  11.348  23.514   2.720
51646W        W23906   2.862  32.570   0.876
51647W        W23907  24.439   5.094  11.202
51648W        W23908  37.706  15.794  13.799
51649W        W23909  28.728  28.912   3.853
51650W        W23910  34.394  18.617  12.590
51651W        W23911  29.868  36.558  11.087
51652W        W23912   2.929  31.059  11.555
51653W        W23913   4.972  19.651  13.798
51654W        W23914  32.322  26.582  14.342
51655W        W23915  43.503  20.063  13.460
51656W        W23916  11.890   1.509  13.410
51657W        W23917  15.742  16.853   5.478
51658W        W23918  37.014  26.747  10.545
51659W        W23919  19.817  22.710  10.725
51660W        W23920   4.558   8.704  12.608
51661W        W23921  11.121  18.627   3.689
51662W        W23922   0.483  18.739  10.510
51663W        W23923   2.730  32.024  12.514
51664W        W23924  26.985  35.087   4.741
51665W        W23925  11.306  14.805  10.887
51666W        W23926  42.453  26.473  12.527
51667W        W23927  44.271   7.975  11.140
51668W        W23928  12.668  43.467  11.491
51669W        W23929  25.418  30.436   4.140
51670W        W23930  28.392  32.918  12.366
51671W        W23931   2.710  29.142   0.917
51672W        W23932  36.374  13.846   1.801
51673W        W23933  40.712  28.632  11.540
51674W        W23934   2.880  35.139  14.493
51675W        W23935  23.751  43.671   0.444
51676W        W23936   7.314  12.378   2.267
51677W        W23937  17.828  36.627  11.178
51678W        W23938   1.826  27.581   3.424
51679W        W23939   8.194  36.864   0.001
51680W        W23940  11.176  18.222  13.098
51681W        W23941   2.852  39.893  13.819
51682W        W23942  20.836   1.954  13.801
51683W        W23943  44.512  15.269   0.369
51684W        W23944  22.043  29.880   4.227
51685W        W23945  34.031  35.051   2.777
51686W        W23946   4.561   5.775  13.481
51687W        W23947   1.244  34.365  11.975
51688W        W23948  35.977   3.203  10.793
51689W        W23949  18.503  10.926  12.117
51690W        W23950  40.961   7.790   4.745
51691W        W23951  40.976   4.197   2.751
51692W        W23952   7.857  28.520   3.198
51693W        W23953  20.523   9.689  12.879
51694W        W23954  25.357  22.792  13.837
51695W        W23955  43.958  40.103  14.845
51696W        W23956   4.168  26.709  11.994
51697W        W23957  35.902  25.577  10.723
51698W        W23958  10.632   0.446  11.495
51699W        W23959  42.423  18.717  11.715
51700W        W23960  38.480  37.786  11.125
51701W        W23961  27.962  24.896  12.629
51702W        W23962  22.624  25.889   3.677
51703W        W23963  30.429   4.073  14.744
51704W        W23964   0.438  26.212  10.684
51705W        W23965  16.105  35.844   0.410
51706W        W23966  18.685   2.153  12.595
51707W        W23967  27.649  38.501  14.352
51708W        W23968   7.064  34.576   1.303
51709W        W23969  21.782  13.665  10.721
51710W        W23970  27.738   3.588   4.353
51711W        W23971  44.258   5.002  13.524
51712W        W23972  24.762  37.314   2.308
51713W        W23973  19.753   7.331  13.022
51714W        W23974  42.012  42.135  12.662
51715W        W23975  26.055  37.954   4.425
51716W        W23976  26.018   6.161  13.980
51717W        W23977  21.111  37.004   1.263
51718W        W23978  14.626  32.895  11.989
51719W        W23979   3.058   8.679  12.649
51720W        W23980  12.424  29.355   3.705
51721W        W23981  41.494  25.615   0.374
51722W        W23982  32.471  35.593  13.399
51723W        W23983  24.958  30.364   2.310
51724W        W23984  16.577  43.315  14.565
51725W        W23985  14.071  15.128  13.042
51726W        W23986  12.830  19.017  12.005
51727W        W23987  33.584  16.607   0.825
51728W        W23988  35.379   0.548   4.720
51729W        W23989   6.636   8.273   0.145
51730W        W23990  20.534  11.222   4.150
51731W        W23991  36.526  21.811   1.436
51732W        W23992  33.375  12.713  14.597
51733W        W23993  22.455   2.749   1.444
51734W        W23994  16.578  15.441   4.061
51735W        W23995   5.388  27.971   4.583
51736W        W23996  20.706  44.210   1.951
51737W        W23997  32.099  19.643  14.334
51738W        W23998  36.012  15.135  10.634
51739W        W23999  19.210  35.316  11.864
51740W        W24000   3.861  21.227  12.907
51741W        W24001  26.872   4.367  12.174
51742W        W24002  14.719  32.130  10.351
51743W        W24003   1.033  12.097  13.962
51744W        W24004  16.165   9.948   4.766
51745W        W24005  34.095  40.188  14.153
51746W        W24006  11.578   9.842   4.125
51747W        W24007   6.960  16.731   3.826
51748W        W24008  24.663  41.248  12.471
51749W        W24009  37.423  29.174  14.478
51750W        W24010   4.245  30.464   4.709
51751W        W24011  36.101   4.472  13.165
51752W        W24012  36.365   7.854   4.646
51753W        W24013  10.332  42.187   4.973
51754W        W24014   2.788  20.544   3.628
51755W        W24015   7.765  43.731  11.990
51756W        W24016   5.973  20.465  11.999
51757W        W24017  31.504  17.347  12.129
51758W        W24018   2.613  21.242   0.198
51759W        W24019  40.464  28.894   3.377
51760W        W24020   0.422  16.654   1.163
51761W        W24021  33.896   5.946  14.392
51762W        W24022   1.453  23.306   2.341
51763W        W24023  26.113  38.453  14.852
51764W        W24024  35.973  44.440  14.770
51765W        W24025  36.946  21.309   1.563
51766W        W24026  36.969  39.572  11.549
51767W        W24027  39.881  30.060  10.707
51768W        W24028  16.149  18.174  13.295
51769W        W24029  30.930   7.513   4.862
51770W        W24030  36.992  36.743   1.280
51771W        W24031  11.711  32.533   1.007
51772W        W24032  10.477  33.042   4.951
51773W        W24033  17.035  35.945  12.429
51774W        W24034  31.499  40.432   3.565
51775W        W24035  15.317  30.027  12.328
51776W        W24036  11.875   5.635   0.662
51777W        W24037   8.287   8.955  11.141
51778W        W24038  44.206  23.165   1.352
51779W        W24039  24.798  28.143   4.196
51780W        W24040  21.977  33.579  11.787
51781W        W24041  19.043  31.157  12.876
51782W        W24042  26.121  42.758  11.728
51783W        W24043  21.612  37.399  13.602
51784W        W24044   5.667  16.846   2.624
51785W        W24045   5.741  33.965   4.793
51786W        W24046  44.052  44.363   0.821
51787W        W24047   0.243   3.949  14.022
51788W        W24048   6.290   1.979  13.131
51789W        W24049  42.226  25.130  12.429
51790W        W24050  21.634  18.332   3.582
51791W        W24051  39.438  16.165   2.375
51792W        W24052   3.238  37.391   0.719
51793W        W24053  37.043  18.506   3.234
51794W        W24054   2.683  33.433  10.986
51795W        W24055   7.319  32.640  14.394
51796W        W24056  33.946  38.285   1.770
51797W        W24057  31.105  38.003   4.319
51798W        W24058  27.600  25.213  14.363
51799W        W24059  33.467   5.203   4.589
51800W        W24060  41.328  22.775   2.169
51801W        W24061  18.722  21.234   2.846
51802W        W24062   5.866  25.471  12.640
51803W        W24063   5.796  10.698   0.212
51804W        W24064  21.506  38.533  14.948
51805W        W24065  13.633  26.148  13.899
51806W        W24066   4.681  33.010  14.214
51807W        W24067  44.360  11.607   1.853
51808W        W24068  41.262   5.758   3.674
51809W        W24069   7.129  26.631   1.327
51810W        W24070  41.009  19.790  12.997
51811W        W24071  33.379  27.989   2.853
51812W        W24072  17.235  12.244  12.586
51813W        W24073   2.988   2.849   2.438
51814W        W24074   8.860   8.350   4.107
51815W        W24075  28.564  35.004   2.677
51816W        W24076  12.510   5.732  12.182
51817W        W24077  44.448  13.380  11.099
51818W        W24078  42.447  18.018   2.286
51819W        W24079  31.467  38.825  12.177
51820W        W24080  23.305  25.713   0.936
51821W        W24081  11.132  43.970   3.559
51822W        W24082  28.897  36.644   3.289
51823W        W24083  27.950  16.377  13.107
51824W        W24084  17.991  44.057   3.801
51825W        W24085  22.582  18.276   4.572
51826W        W24086  22.741  39.548  14.873
51827W        W24087   5.587   7.171   1.857
51828W        W24088  39.577  42.004   4.190
51829W        W24089  27.378  15.100  11.431
51830W        W24090  36.086  39.954   0.797
51831W        W24091  40.365  27.409   2.189
51832W        W24092  33.043   4.909   4.591
51833W        W24093  23.546  40.178  12.663
51834W        W24094  29.465  36.910  11.120
51835W        W24095   5.768   6.167   0.467
51836W        W24096  33.988  42.047  13.538
51837W        W24097  43.284  40.920  14.279
51838W        W24098   6.951   5.238   1.846
51839W        W24099  14.608  35.087   0.925
51840W        W24100  24.006  20.205   0.768
51841W        W24101  18.685   5.388  10.589
51842W        W24102  10.189  12.379  12.064
51843W        W24103  20.970  29.401   1.894
51844W        W24104   4.729  21.094  12.575
51845W        W24105   6.809  20.455  11.161
51846W        W24106  34.879   4.630   2.391
51847W        W24107  20.874  28.163   2.399
51848W        W24108  11.156   7.296   0.494
51849W        W24109  15.685  29.604   0.063
51850W        W24110  43.213  28.466  11.703
51851W        W24111  13.755  18.303  10.956
51852W        W24112  30.156  17.444   2.558
51853W        W24113   6.176   1.370  14.018
51854W        W24114  44.285   8.217  11.886
51855W        W24115  43.491   8.913  12.411
51856W        W24116  43.700   5.762   0.770
51857W        W24117   4.322   7.713   3.869
51858W        W24118   5.418  22.756   2.477
51859W        W24119  24.126   5.013   2.150
51860W        W24120  15.133  42.908  14.036
51861W        W24121  34.605  18.100   4.280
51862W        W24122  18.565  11.031  14.039
51863W        W24123  39.014  21.024   0.766
51864W        W24124  26.440  31.594  14.718
51865W        W24125   3.270  34.574  13.836
51866W        W24126  14.067  30.331   9.831
51867W        W24127  33.546  30.926   4.259
51868W        W24128  26.145   7.443   0.205
51869W        W24129  37.121  38.678  11.485
51870W        W24130  34.285  22.659   4.359
51871W        W24131  11.331  18.752  12.839
51872W        W24132  36.770   2.228  14.108
51873W        W24133  29.694  20.105   3.390
51874W        W24134   6.115  22.175  12.991
51875W        W24135  24.182  26.867   1.415
51876W        W24136  25.200  40.033  11.125
51877W        W24137   3.344  23.868  10.602
51878W        W24138  31.394  24.302  13.402
51879W        W24139  31.134  22.068   2.083
51880W        W24140  15.643  14.060   4.145
51881W        W24141  13.621  13.282   4.226
51882W        W24142  12.841  18.511  12.910
51883W        W24143  23.720  44.714   0.486
51884W        W24144   0.634  42.432   1.281
51885W        W24145  16.520  41.892  13.431
51886W        W24146  10.911   3.917  11.165
51887W        W24147  29.702   5.175   3.290
51888W        W24148   8.381  26.180  14.672
51889W        W24149   1.954   7.053   1.974
51890W        W24150  12.277  19.194  13.571
51891W        W24151  39.861   7.299  14.676
51892W        W24152  34.448  32.564  10.658
51893W        W24153  39.369   5.918   4.175
51894W        W24154  22.137  34.453   4.817
51895W        W24155  18.887  14.292   9.895
51896W        W24156  23.486   4.792   2.680
51897W        W24157  14.852  34.891   2.227
51898W        W24158  13.759  13.250  13.436
51899W        W24159  25.750  15.670   2.687
51900W        W24160   3.336   9.355   4.507
51901W        W24161  16.856  31.825  12.093
51902W        W24162  43.086  11.003   3.519
51903W        W24163  37.126  28.485  10.784
51904W        W24164  39.797  32.344   1.385
51905W        W24165  10.312  16.751  13.269
51906W        W24166  19.780  20.120   2.715
51907W        W24167  35.727  44.006  11.599
51908W        W24168  33.366  32.922   1.212
51909W        W24169  17.668  17.600   4.042
51910W        W24170  14.938  14.872  11.960
51911W        W24171  42.427  24.261   3.275
51912W        W24172  21.786  20.431   0.470
51913W        W24173   5.170   2.242   1.461
51914W        W24174  20.009  16.593   3.609
51915W        W24175  43.683  16.886   2.778
51916W        W24176  44.277   6.453  11.149
51917W        W24177  41.984  22.144   0.767
51918W        W24178  30.458  21.083  10.732
51919W        W24179  15.517  21.199   2.283
51920W        W24180  42.818   6.512   0.883
51921W        W24181  26.373   8.745   0.778
51922W        W24182   1.450  17.487  13.301
51923W        W24183   8.741  29.530   0.556
51924W        W24184  37.120  26.109   1.502
51925W        W24185  19.621  41.229   0.593
51926W        W24186  31.154   9.698  12.913
51927W        W24187  36.800  11.766  13.284
51928W        W24188  44.476  18.758   0.018
51929W        W24189  20.658  22.527   1.802
51930W        W24190  37.488  19.603   1.139
51931W        W24191  14.640  10.158   3.333
51932W        W24192  26.988   1.874  13.358
51933W        W24193  37.634  10.768  10.127
51934W        W24194  36.454  27.680   2.200
51935W        W24195  32.664   3.725   1.692
51936W        W24196   7.936  26.438   0.915
51937W        W24197   9.469  24.659  11.193
51938W        W24198  20.505  16.524   2.739
51939W        W24199  11.063  31.047  11.229
51940W        W24200   0.293  33.664  10.456
51941W        W24201  28.422   7.818   2.125
51942W        W24202  13.139  14.206   4.107
51943W        W24203  39.543  44.889   2.358
51944W        W24204  27.526  38.032  11.160
51945W        W24205  38.343  36.857   3.174
51946W        W24206  42.835   8.164   2.164
51947W        W24207   9.226  11.749  11.543
51948W        W24208   9.379   2.636  14.442
51949W        W24209  29.667  32.164   3.375
51950W        W24210  42.039  32.992   2.320
51951W        W24211  43.382  43.711  12.512
51952W        W24212  17.799   2.901   1.036
51953W        W24213  19.226   2.185  13.869
51954W        W24214  18.309  35.029   2.997
51955W        W24215  17.221  42.384   0.433
51956W        W24216  35.921  38.858   0.528
51957W        W24217  19.128  31.441   1.869
51958W        W24218  31.903  41.793   3.718
51959W        W24219  34.038  11.603   1.795
51960W        W24220   5.384  25.491  12.451
51961W        W24221  29.659   2.494  14.002
51962W        W24222   8.150   4.384   2.610
51963W        W24223  30.697  43.345   0.358
51964W        W24224   6.375  21.616  10.643
51965W        W24225  44.843  31.517  12.800
51966W        W24226  40.863   5.757  10.639
51967W        W24227  33.935   4.659   2.233
51968W        W24228  17.738  11.394  12.894
51969W        W24229  21.771   4.283  14.392
51970W        W24230  40.879  38.853   0.903
51971W        W24231   5.520  18.163  13.013
51972W        W24232  17.623   9.308   4.060
51973W        W24233  43.719  32.216  11.589
51974W        W24234  30.121   9.562  13.887
51975W        W24235  30.941  11.143  13.377
51976W        W24236   7.297  24.521   0.487
51977W        W24237  43.957  15.377  12.622
51978W        W24238  38.653  29.076  11.941
51979W        W24239  23.423  26.439  11.695
51980W        W24240   5.725  28.763  11.262
51981W        W24241  19.844  21.235   2.302
51982W        W24242   4.847  36.565   2.332
51983W        W24243  38.141   1.759  12.952
51984W        W24244   6.337   2.739  11.957
51985W        W24245   9.212  30.997  11.555
51986W        W24246  41.544  28.668   2.228
51987W        W24247  15.390  34.011  10.772
51988W        W24248  15.337  28.201   5.145
51989W        W24249   6.821   7.037  14.022
51990W        W24250  25.898  25.522  12.547
51991W        W24251  10.306   7.300  12.853
51992W        W24252  30.838   3.486  11.045
51993W        W24253   4.615  10.877  12.612
51994W        W24254  11.151  22.543   3.671
51995W        W24255   7.065  28.307  14.885
51996W        W24256  23.435  22.593  11.192
51997W        W24257  16.330   2.510  12.525
51998W        W24258  39.332   2.209  11.181
51999W        W24259  33.147  21.693  10.773
52000W        W24260  42.074  18.477  12.407
52001W        W24261  25.416  21.612  13.189
52002W        W24262  44.916  38.696   2.214
52003W        W24263  22.237  17.765   4.211
52004W        W24264  38.077   0.134  12.521
52005W        W24265   3.350  44.533   0.885
52006W        W24266  20.192  22.943   0.897
52007W        W24267  31.909  35.097  12.491
52008W        W24268  16.217   0.321   2.302
52009W        W24269  30.498  35.271   0.912
52010W        W24270  30.984  13.552  13.616
52011W        W24271  14.175  26.381   2.011
52012W        W24272  16.831  17.216  13.450
52013W        W24273  25.834  25.588   3.295
52014W        W24274  32.638  10.148   0.569
52015W        W24275   6.909   1.940  12.484
52016W        W24276   3.073  25.177  12.840
52017W        W24277  44.435  33.121  14.920
52018W        W24278  12.037   4.419   4.774
52019W        W24279  21.261  34.338  13.811
52020W        W24280  33.502  23.635   4.072
52021W        W24281  40.553  32.976  10.626
52022W        W24282  21.664  10.169   2.825
52023W        W24283  30.912  10.521   0.361
52024W        W24284  36.479  37.558  12.845
52025W        W24285  18.188  14.656  14.576
52026W        W24286   9.307   0.411   0.422
52027W        W24287  28.797   2.413   4.272
52028W        W24288  18.822  21.718  11.415
52029W        W24289  22.589  22.497   0.369
52030W        W24290  34.836  24.765  14.938
52031W        W24291  34.140  23.090  13.701
52032W        W24292  34.988  44.273   4.710
52033W        W24293  42.162  35.745  14.412
52034W        W24294   6.374  28.621  12.405
52035W        W24295  37.266  10.645   5.058
52036W        W24296  30.612  33.872  12.938
52037W        W24297   8.172  10.260   4.563
52038W        W24298  40.286  11.740  11.203
52039W        W24299  18.256   2.512  13.882
52040W        W24300  13.386   9.358   2.775
52041W        W24301  16.030  32.930   1.159
52042W        W24302  40.432  29.272   1.568
52043W        W24303  15.849  32.376   4.176
52044W        W24304   5.376  14.748   4.426
52045W        W24305  37.204   0.559   0.732
52046W        W24306  12.083   0.648   3.737
52047W        W24307   4.144  26.641   2.662
52048W        W24308  16.012  25.228   0.397
52049W        W24309  23.629  37.173  11.551
52050W        W24310  13.065  12.123   5.261
52051W        W24311  36.583   4.662  12.409
52052W        W24312  37.145  41.519   3.583
52053W        W24313  18.714  39.672   0.927
52054W        W24314  38.950  17.250  14.792
52055W        W24315  33.620  28.095  12.127
52056W        W24316  32.001  41.491  12.496
52057W        W24317   7.362   7.169   0.878
52058W        W24318   9.230   1.924   4.346
52059W        W24319  24.530  40.009   1.444
52060W        W24320  29.199  25.102  12.884
52061W        W24321  34.458   5.813   3.100
52062W        W24322  11.354  20.129  14.578
52063W        W24323  24.174  15.291   2.285
52064W        W24324   5.252  23.590  12.050
52065W        W24325  39.353  12.022  10.349
52066W        W24326  33.471  33.981  11.168
52067W        W24327  30.517  31.863  10.637
52068W        W24328  26.698  15.697  11.564
52069W        W24329  10.271  28.437   1.944
52070W        W24330   4.622   7.092  14.298
52071W        W24331  30.269   0.935   0.969
52072W        W24332  30.530  25.466   4.983
52073W        W24333  33.943  43.495  11.992
52074W        W24334  18.203   8.299   3.313
52075W        W24335  22.439   1.411   1.340
52076W        W24336   3.555  21.864  11.031
52077W        W24337  33.068  13.773   4.735
52078W        W24338  43.028   5.167   1.066
52079W        W24339  40.516  26.424   4.127
52080W        W24340  26.077  32.418   4.502
52081W        W24341  22.055  44.273  12.565
52082W        W24342  17.158  39.443   2.772
52083W        W24343  29.387  34.880  10.729
52084W        W24344  36.570   3.963   2.787
52085W        W24345  24.722  38.343   4.049
52086W        W24346  29.525  27.547  13.106
52087W        W24347  36.467  25.998  13.500
52088W        W24348  30.233  27.063  12.406
52089W        W24349  29.586  23.609  11.787
52090W        W24350  33.538   9.534  14.850
52091W        W24351  35.852  15.833   1.481
52092W        W24352  11.849  31.606  14.495
52093W        W24353  42.334  41.396   5.096
52094W        W24354  44.242  28.778  10.646
52095W        W24355  26.652  22.929  13.745
52096W        W24356  27.135  15.700  10.787
52097W        W24357   4.880  11.746   4.220
52098W        W24358  34.385   1.485  11.800
52099W        W24359   7.950  17.506   0.679
52100W        W24360  19.520  10.726  13.880
52101W        W24361  29.726  18.820   4.551
52102W        W24362  44.972   4.745   3.808
52103W        W24363  25.164  19.791   1.924
52104W        W24364  37.084   4.175  12.981
52105W        W24365   8.394  21.049  13.057
52106W        W24366   7.708  16.129   4.229
52107W        W24367  19.023  12.180  13.436
52108W        W24368  31.477  11.622   2.739
52109W        W24369  33.093  33.063   3.132
52110W        W24370   9.738   6.031  14.835
52111W        W24371  13.094  11.169   1.794
52112W        W24372  18.292  41.476  14.783
52113W        W24373  32.396   5.544   1.843
52114W        W24374  10.764  16.076   3.201
52115W        W24375  31.013  44.343   4.567
52116W        W24376  22.679  18.724  14.391
52117W        W24377   0.111   8.241   0.820
52118W        W24378   5.726  42.800  13.580
52119W        W24379  44.557  14.218   4.545
52120W        W24380  32.643   4.231  13.391
52121W        W24381   6.321   7.306  14.121
52122W        W24382  28.530  37.762   2.219
52123W        W24383  26.554  43.810   2.814
52124W        W24384  44.855  21.796   1.753
52125W        W24385   9.989  37.961   4.308
52126W        W24386   0.519   0.619   4.515
52127W        W24387  24.997   4.393  13.337
52128W        W24388  12.292  14.494   4.086
52129W        W24389   7.687  31.713   2.917
52130W        W24390   8.717  24.179  14.369
52131W        W24391  31.972  14.280   4.185
52132W        W24392  20.195  25.601  11.387
52133W        W24393  38.794  35.244   2.909
52134W        W24394  11.182   4.676  14.316
52135W        W24395   7.622  14.927  11.605
52136W        W24396  22.990  43.306   1.944
52137W        W24397  15.783  18.071   3.757
52138W        W24398  37.853  15.093  12.968
52139W        W24399  39.566  29.846  13.455
52140W        W24400  19.536  38.858   0.808
52141W        W24401  40.831  12.124  10.637
52142W        W24402  26.380  29.891  14.796
52143W        W24403  15.201  42.029   0.703
52144W        W24404   6.727   8.860  10.857
52145W        W24405  12.682  28.699  13.963
52146W        W24406  17.966  19.974   0.300
52147W        W24407  40.331  10.276  12.939
52148W        W24408  29.484  21.995   2.248
52149W        W24409  12.400   4.861   0.454
52150W        W24410  21.588   1.732  11.156
52151W        W24411  12.378   6.267  12.000
52152W        W24412  36.597  27.601  10.583
52153W        W24413  14.321   4.700  12.620
52154W        W24414  31.996   6.503  14.869
52155W        W24415  34.921   6.940   3.763
52156W        W24416  17.566  13.174   1.324
52157W        W24417  32.762  20.708   2.376
52158W        W24418  21.693   6.954   1.433
52159W        W24419  34.381  34.938   0.972
52160W        W24420  28.285  44.919   1.385
52161W        W24421  29.457  27.941  14.185
52162W        W24422  21.111  43.329   1.153
52163W        W24423  18.516  14.685  13.310
52164W        W24424  22.005  18.701  10.830
52165W        W24425  28.944  40.238   3.868
52166W        W24426  32.108  38.936  14.890
52167W        W24427   1.222  40.954   4.028
52168W        W24428  38.748  12.000  12.036
52169W        W24429  32.535  18.753  14.111
52170W        W24430  42.937  17.821   0.156
52171W        W24431  43.266  41.856   4.705
52172W        W24432  29.968  29.583  12.113
52173W        W24433  22.933  22.156   3.745
52174W        W24434  40.432  27.372   3.319
52175W        W24435  13.732  27.652  13.742
52176W        W24436  25.925  32.631   3.624
52177W        W24437  12.898  38.488   1.387
52178W        W24438  11.069   5.303   2.278
52179W        W24439  23.068  19.682   4.602
52180W        W24440  14.269   4.252   4.093
52181W        W24441  36.588  42.932   1.753
52182W        W24442  26.208  27.517   0.834
52183W        W24443  17.067  30.959  13.597
52184W        W24444   3.721  22.525   0.891
52185W        W24445  26.959  28.283   0.746
52186W        W24446  39.436   0.491  12.865
52187W        W24447  16.292  43.788   3.161
52188W        W24448  35.981  14.177  13.929
52189W        W24449  13.133  16.815   5.172
52190W        W24450  37.656  27.048   3.730
52191W        W24451  12.894   5.460  13.822
52192W        W24452  27.620  23.211   0.750
52193W        W24453  41.539   5.722  14.439
52194W        W24454  28.615   0.077  12.110
52195W        W24455  28.624  40.470  12.103
52196W        W24456  27.424  29.694   1.978
52197W        W24457   4.042   0.012  12.514
52198W        W24458  44.170  29.001  11.136
52199W        W24459  38.175  43.289   0.701
52200W        W24460  41.963   5.935   0.270
52201W        W24461  43.870  10.799  12.131
52202W        W24462  27.493  10.470  14.829
52203W        W24463   7.923  18.672   3.258
52204W        W24464   5.735   1.010  12.452
52205W        W24465   0.872  28.928   2.853
52206W        W24466  14.183  24.661   4.183
52207W        W24467  14.236  33.696  10.950
52208W        W24468   8.099   1.189  12.558
52209W        W24469  25.501  17.341  13.853
52210W        W24470  40.246  36.979  12.968
52211W        W24471  12.574  20.587  14.391
52212W        W24472   4.294  39.977   3.614
52213W        W24473  42.901   8.424   1.708
52214W        W24474  32.967  40.727   1.762
52215W        W24475   4.379  25.241   1.819
52216W        W24476  17.151   8.886   2.000
52217W        W24477  43.921  12.564   0.649
52218W        W24478  21.675  29.551   2.752
52219W        W24479  24.691  40.901  11.077
52220W        W24480  15.492  43.926   2.800
52221W        W24481  41.332   9.783   0.284
52222W        W24482  24.563   1.337  10.539
52223W        W24483  11.653  23.045  12.412
52224W        W24484  16.176  24.751   5.051
52225W        W24485  33.874  25.712   1.262
52226W        W24486  42.310  12.882  14.875
52227W        W24487   2.503  23.684  12.638
52228W        W24488  14.603  29.171   0.077
52229W        W24489  10.811  14.506   2.741
52230W        W24490  18.073  25.851   1.473
52231W        W24491   6.409  25.535   4.153
52232W        W24492  27.115  29.244   4.308
52233W        W24493  39.798  23.054  14.012
52234W        W24494   6.995  30.158  11.042
52235W        W24495   0.456  37.787  13.228
52236W        W24496  17.400   7.328   0.032
52237W        W24497  24.089  33.588  13.957
52238W        W24498   7.346  11.676   0.454
52239W        W24499  28.382  43.880   4.207
52240W        W24500  17.230   3.521   0.722
52241W        W24501  30.053  42.657  14.810
52242W        W24502   0.044  43.351   1.830
52243W        W24503  26.979  38.071  11.315
52244W        W24504  37.228  33.498   4.050
52245W        W24505  16.402  16.690   9.854
52246W        W24506   6.436  36.863  13.407
52247W        W24507   5.685  26.570   1.248
52248W        W24508  18.232   8.442   1.981
52249W        W24509  31.140  15.690  14.741
52250W        W24510   5.756  43.356  13.651
52251W        W24511  11.417  43.933   4.015
52252W        W24512  33.430  39.524  14.283
52253W        W24513  21.213  35.420  13.056
52254W        W24514  43.037  26.990   1.711
52255W        W24515  17.733  42.774   1.695
52256W        W24516  33.662  27.528   3.604
52257W        W24517  27.127  18.730   2.180
52258W        W24518  42.525  33.413  13.943
52259W        W24519   5.436   4.477  14.564
52260W        W24520  25.263  20.747   0.956
52261W        W24521   0.878  17.553   4.573
52262W        W24522  23.853  34.496   0.385
52263W        W24523  39.426  22.525  12.964
52264W        W24524  32.916  13.091  12.303
52265W        W24525  31.091  25.221  10.639
52266W        W24526  33.063  35.358  12.743
52267W        W24527  30.943  23.227  11.826
52268W        W24528  39.347  20.779  11.498
52269W        W24529  29.283  41.371   3.206
52270W        W24530  32.320  13.398  12.550
52271W        W24531  25.866  30.840   5.108
52272W        W24532  29.480   4.661   4.135
52273W        W24533  18.044  44.397  11.037
52274W        W24534  36.078   4.232  10.861
52275W        W24535   2.349  18.387   3.315
52276W        W24536  44.784   6.766   1.702
52277W        W24537  28.554   4.991  13.026
52278W        W24538  24.171   9.208  13.502
52279W        W24539   8.095   1.790  13.422
52280W        W24540   7.180  30.423  12.631
52281W        W24541  21.247   1.943   0.745
52282W        W24542  34.995  42.747  11.671
52283W        W24543  27.193  43.282   2.038
52284W        W24544  27.474  30.644  14.825
52285W        W24545  10.378  42.551  13.491
52286W        W24546  12.316  34.061  13.501
52287W        W24547  43.352  21.617  14.310
52288W        W24548  24.533  13.332  12.904
52289W        W24549  25.713  23.084   5.088
52290W        W24550  13.227  15.834   2.884
52291W        W24551  40.448  39.390  11.550
52292W        W24552  10.384   7.889  12.620
52293W        W24553  15.851  10.802   2.233
52294W        W24554  40.109  11.349   0.560
52295W        W24555  38.803  41.978  13.839
52296W        W24556  30.662   7.842  14.859
52297W        W24557  34.359  40.423  12.882
52298W        W24558   4.577  11.311  12.351
52299W        W24559  34.273  41.684   2.721
52300W        W24560  16.756  26.136  12.536
52301W        W24561  23.257  12.139   4.641
52302W        W24562  32.353   6.498  12.041
52303W        W24563  17.132   2.787   3.087
52304W        W24564  15.292  36.786   3.748
52305W        W24565  14.646   1.751   2.397
52306W        W24566  29.740  26.275  11.553
52307W        W24567  38.466   7.821   3.301
52308W        W24568  23.452  15.575   3.777
52309W        W24569  38.786   9.943  11.985
52310W        W24570  41.935  27.042   5.090
52311W        W24571  24.214  15.369  11.512
52312W        W24572   7.334  24.515  14.432
52313W        W24573  42.214   4.395  11.855
52314W        W24574  16.347  32.104  13.044
52315W        W24575  22.133  31.174   4.635
52316W        W24576  22.579  36.481  12.254
52317W        W24577   1.667  23.184  12.862
52318W        W24578  18.249  30.681   3.204
52319W        W24579  25.102   6.134   1.269
52320W        W24580  23.481   6.864   0.533
52321W        W24581  16.832   3.496   1.436
52322W        W24582  14.828  37.952   1.048
52323W        W24583  18.866  39.463  14.355
52324W        W24584  38.021  29.948  14.518
52325W        W24585   8.162   4.797  14.414
52326W        W24586   2.544   4.284   3.564
52327W        W24587  25.547  25.626  14.910
52328W        W24588  13.139  40.737  10.703
52329W        W24589  32.869   7.743   2.949
52330W        W24590  20.827  25.727  13.612
52331W        W24591  25.582   2.117   3.121
52332W        W24592  37.527  24.436   0.861
52333W        W24593  13.605  30.373   0.840
52334W        W24594   6.309  10.796  12.976
52335W        W24595  31.080  39.332   1.963
52336W        W24596  44.237  34.478  10.264
52337W        W24597  43.295  25.796   3.835
52338W        W24598  21.328   6.252   0.963
52339W        W24599  38.784   9.299  10.835
52340W        W24600   2.678  25.105   1.502
52341W        W24601  24.449  36.787  12.419
52342W        W24602  43.808  11.365   2.779
52343W        W24603  18.668   4.543   2.831
52344W        W24604  29.230   6.371  12.077
52345W        W24605  41.746  17.587  11.423
52346W        W24606  33.403  35.403   3.058
52347W        W24607   1.963  27.245  10.708
52348W        W24608  14.164   9.850  12.350
52349W        W24609  15.537  31.931   2.025
52350W        W24610   2.680  18.227  14.877
52351W        W24611   2.675  44.409  14.023
52352W        W24612  13.687   2.354   2.408
52353W        W24613  14.425  17.781   4.669
52354W        W24614   7.182  36.142   1.336
52355W        W24615  15.996   6.390   1.970
52356W        W24616   0.933  25.254  13.442
52357W        W24617   3.907  24.474   3.936
52358W        W24618  13.329  14.600  14.533
52359W        W24619  39.784  38.079   1.770
52360W        W24620   2.813  41.376   5.070
52361W        W24621   9.565   9.496  11.463
52362W        W24622  28.631  28.941   3.346
52363W        W24623   5.914   3.769   1.398
52364W        W24624   9.611  16.117   4.050
52365W        W24625   1.027  39.982  13.152
52366W        W24626  30.966  21.076   0.914
52367W        W24627   5.258  18.090   3.626
52368W        W24628  26.340   8.196   4.852
52369W        W24629  28.639  31.598  12.811
52370W        W24630  32.657  37.073   3.349
52371W        W24631  39.782  38.024   4.341
52372W        W24632   6.146  20.254   4.611
52373W        W24633  18.104  10.352   2.751
52374W        W24634  16.340  30.748   2.744
52375W        W24635  35.577  17.020  13.730
52376W        W24636  15.327   7.302  14.962
52377W        W24637   6.739  10.713  14.285
52378W        W24638  20.011   7.042   5.494
52379W        W24639   4.465  41.952  11.936
52380W        W24640  13.092  28.342   0.876
52381W        W24641  18.612  36.514   3.587
52382W        W24642   5.691  29.195   5.751
52383W        W24643   9.008  17.034  12.367
52384W        W24644   0.036  33.154  11.081
52385W        W24645  36.519  10.848   4.470
52386W        W24646  26.839   9.079  14.496
52387W        W24647  39.823  42.826  14.075
52388W        W24648  43.309   9.154  11.187
52389W        W24649   3.696  27.921  10.852
52390W        W24650  13.267  20.719  14.751
52391W        W24651   5.276  43.604   3.722
52392W        W24652   7.890   2.460   4.090
52393W        W24653  23.742  11.754  10.912
52394W        W24654  43.786  16.170  12.377
52395W        W24655  11.791   8.694  11.415
52396W        W24656  14.345   9.010  11.024
52397W        W24657  23.932  16.052   1.725
52398W        W24658   4.156  34.641  13.794
52399W        W24659  41.499  43.025   1.174
52400W        W24660   5.973   9.835  13.720
52401W        W24661   2.472  40.777   1.782
52402W        W24662   4.157   7.931   3.441
52403W        W24663  10.614  19.561  12.686
52404W        W24664   3.491  30.640  10.019
52405W        W24665  43.712  14.239  13.208
52406W        W24666  27.027  11.599   2.747
52407W        W24667  16.311  40.378  12.886
52408W        W24668   9.725  20.313  12.914
52409W        W24669  41.366  41.498  14.949
52410W        W24670   3.447  12.482  14.897
52411W        W24671  29.949  42.733   3.423
52412W        W24672  35.946  43.780   3.642
52413W        W24673  31.484  29.901  11.355
52414W        W24674  33.925  27.707  14.549
52415W        W24675   0.874  41.986  14.519
52416W        W24676  23.135  16.563  12.881
52417W        W24677  33.117  40.394  13.359
52418W        W24678  36.342  40.569   3.306
52419W        W24679  44.020  25.060   4.669
52420W        W24680  13.765  36.055   1.484
52421W        W24681  40.544   5.303   1.934
52422W        W24682  41.416   7.305   3.311
52423W        W24683  43.434  33.667   0.890
52424W        W24684  34.960  11.556  11.718
52425W        W24685  13.127  15.170  10.598
52426W        W24686  12.806  18.711  11.586
52427W        W24687  16.191  25.990  11.503
52428W        W24688   4.440  30.539   3.131
52429W        W24689   0.082  25.096   0.923
52430W        W24690  43.627  11.780  12.978
52431W        W24691   4.859   8.467   1.372
52432W        W24692  29.015  34.508  10.782
52433W        W24693   3.724  12.390  12.453
52434W        W24694  15.715   1.065   3.647
52435W        W24695  11.132  14.171  13.945
52436W        W24696  24.499  38.796  12.079
52437W        W24697  31.629  38.172  13.812
52438W        W24698  38.764  22.487  13.432
52439W        W24699  23.932  28.397   4.179
52440W        W24700  30.888  29.215   0.928
52441W        W24701   5.697  26.230   4.289
52442W        W24702  21.939  11.911   4.546
52443W        W24703  22.128  15.553  11.320
52444W        W24704   0.997  21.500   3.926
52445W        W24705  38.255  21.934   3.281
52446W        W24706  11.701  11.561   3.710
52447W        W24707  23.924  14.403  13.790
52448W        W24708  14.312  31.765  10.924
52449W        W24709   3.901  37.730   2.317
52450W        W24710  27.949  14.576  14.029
52451W        W24711   6.678  22.793  13.185
52452W        W24712  23.253  27.062  14.507
52453W        W24713  38.530  19.138   3.375
52454W        W24714  40.425  33.558   1.953
52455W        W24715  39.303  27.229  14.773
52456W        W24716   5.361  22.711  10.761
52457W        W24717   3.936  38.577   3.373
52458W        W24718  35.787  38.297   2.843
52459W        W24719  33.507  33.563   2.785
52460W        W24720  32.648  19.139  14.931
52461W        W24721  11.454  11.818  13.781
52462W        W24722  27.022  26.261   5.037
52463W        W24723   7.345  28.515  12.881
52464W        W24724  25.000   0.087  11.769
52465W        W24725  23.693  38.683  14.422
52466W        W24726  29.710   3.919   2.423
52467W        W24727  20.221  10.119  11.082
52468W        W24728  27.595   0.903  14.392
52469W        W24729  28.409   6.752   2.920
52470W        W24730   4.356  24.965  13.097
52471W        W24731  43.897   6.350  10.455
52472W        W24732  43.544  24.539  13.457
52473W        W24733  35.494  17.844  12.029
52474W        W24734  27.201  36.598  11.508
52475W        W24735   2.992   4.446   3.367
52476W        W24736  34.298   2.010   4.578
52477W        W24737  14.091  10.307  12.568
52478W        W24738  39.991  31.123  11.595
52479W        W24739  40.351   9.201  12.191
52480W        W24740  34.076   8.835  12.360
52481W        W24741  40.090  30.378   0.878
52482W        W24742  11.773  18.778  10.810
52483W        W24743  42.376  12.032   2.685
52484W        W24744  30.432  39.638  11.668
52485W        W24745  42.342  25.915   3.175
52486W        W24746  19.564  35.088   1.835
52487W        W24747  19.008  23.568  12.164
52488W        W24748  14.853  38.275  10.938
52489W        W24749  14.207   0.558   2.897
52490W        W24750  30.498  28.883   0.880
52491W        W24751   1.416   0.831  11.554
52492W        W24752  39.099  27.192  13.901
52493W        W24753  24.476   8.795  13.408
52494W        W24754  33.905  15.245  13.312
52495W        W24755  27.475  36.579  11.065
52496W        W24756  16.159   0.763   0.229
52497W        W24757  17.618  22.750  11.015
52498W        W24758  26.898  30.895  13.001
52499W        W24759  15.829  18.465  11.148
52500W        W24760  43.019   6.704   1.961
52501W        W24761  41.886  10.026  11.620
52502W        W24762  13.042  20.651  11.123
52503W        W24763  13.211   8.800   1.159
52504W        W24764  20.498  25.260  14.410
52505W        W24765  42.385  43.411  13.099
52506W        W24766  14.150  43.435  10.715
52507W        W24767  42.351  32.948  13.787
52508W        W24768  30.853  23.938  12.863
52509W        W24769  26.329  18.751   1.558
52510W        W24770  17.127  34.236  13.922
52511W        W24771  26.463   4.876   1.725
52512W        W24772  24.115  44.053  13.865
52513W        W24773  20.163  19.751   0.822
52514W        W24774   9.925  11.858   1.843
52515W        W24775  25.882  40.145   1.686
52516W        W24776  11.148  27.201   2.721
52517W        W24777   9.470  16.010  14.067
52518W        W24778  24.645  31.433  11.110
52519W        W24779   3.253  34.071  11.522
52520W        W24780  29.572  38.539  14.957
52521W        W24781  40.434  17.784   4.223
52522W        W24782   9.255   6.762  11.000
52523W        W24783  32.999  43.763  13.808
52524W        W24784   2.364  26.508   3.714
52525W        W24785  25.025  20.509  12.573
52526W        W24786  42.605  11.935  11.152
52527W        W24787   4.977  22.045   0.018
52528W        W24788  24.875  21.672   1.784
52529W        W24789  13.691  27.586  11.012
52530W        W24790   8.158  28.592   1.317
52531W        W24791  28.464  24.517   1.092
52532W        W24792  30.377   8.174   3.836
52533W        W24793  40.871  18.780   4.595
52534W        W24794  31.445  13.931  10.602
52535W        W24795  17.928  24.675  13.396
52536W        W24796  10.627   0.388  14.995
52537W        W24797  40.180  14.889   0.945
52538W        W24798  31.642  37.424   1.759
52539W        W24799  11.824   3.454   2.323
52540W        W24800  17.621  27.469   3.103
52541W        W24801  19.433  16.658  14.794
52542W        W24802  42.954  38.340   3.079
52543W        W24803  21.294   3.288   2.794
52544W        W24804   3.489   8.620  11.072
52545W        W24805  16.473  21.627   4.800
52546W        W24806   9.449  34.126  11.173
52547W        W24807  38.591  35.123  11.595
52548W        W24808  40.028  17.470   4.085
52549W        W24809  16.212  33.467   4.599
52550W        W24810  20.751  41.054   0.646
52551W        W24811  10.396  42.953   3.472
52552W        W24812   3.010  14.345   1.690
52553W        W24813  24.498  28.665   2.783
52554W        W24814  16.250   0.842   1.409
52555W        W24815  25.945  34.651   0.976
52556W        W24816  34.552  33.584   2.873
52557W        W24817  44.828   3.310   4.497
52558W        W24818  44.348   3.242   1.359
52559W        W24819  25.871   3.510   0.881
52560W        W24820  23.168  23.929   2.316
52561W        W24821  22.523   6.810  11.597
52562W        W24822  15.854  26.497  12.576
52563W        W24823  24.436  12.057   0.305
52564W        W24824  23.983  41.693   0.796
52565W        W24825  26.529  19.757   2.655
52566W        W24826   7.885  26.940   4.543
52567W        W24827  37.748  11.593   3.253
52568W        W24828  26.771  12.778  10.656
52569W        W24829  32.068  21.989  12.618
52570W        W24830  19.209  26.492  14.021
52571W        W24831  11.979  27.846   1.782
52572W        W24832  10.295  34.705   3.930
52573W        W24833   5.791  29.066   2.850
52574W        W24834  14.587  33.992   0.866
52575W        W24835  43.907  26.589  14.805
52576W        W24836  27.118  33.339   3.018
52577W        W24837  42.975  13.100   4.528
52578W        W24838  25.497   3.034  12.348
52579W        W24839  35.224   2.298   4.599
52580W        W24840   3.284   9.634   0.891
52581W        W24841  33.357  11.223  10.621
52582W        W24842  23.659  17.893  12.006
52583W        W24843  23.565  44.498   0.916
52584W        W24844  23.301  36.153  14.336
52585W        W24845  23.134  28.022   1.425
52586W        W24846  30.591  30.680   2.875
52587W        W24847  36.329  43.933  11.868
52588W        W24848  35.137  24.971  13.668
52589W        W24849  41.896  13.986   1.160
52590W        W24850  23.701  27.158   1.396
52591W        W24851  19.626  35.159   2.733
52592W        W24852   3.970  19.167   3.723
52593W        W24853  21.454  10.322   0.228
52594W        W24854  16.098  23.247  11.063
52595W        W24855   3.817  38.049   1.886
52596W        W24856  20.603  12.246   3.138
52597W        W24857   5.621  24.986   0.704
52598W        W24858  40.055  41.048   3.709
52599W        W24859   6.465  17.116   0.332
52600W        W24860  24.485  44.026   1.423
52601W        W24861  10.315  22.147  10.750
52602W        W24862   8.762   0.936   1.759
52603W        W24863  25.060  17.800   0.744
52604W        W24864  14.331   0.395  12.495
52605W        W24865  30.647  11.681   4.142
52606W        W24866  31.721  15.992  14.215
52607W        W24867  40.310  44.326   2.295
52608W        W24868  10.954  31.448   2.580
52609W        W24869   3.384  28.035   3.755
52610W        W24870  10.849  35.499   1.439
52611W        W24871  27.925  30.405   2.302
52612W        W24872   1.876  35.255   2.507
52613W        W24873  23.521   7.663   2.594
52614W        W24874  11.841  10.695   3.443
52615W        W24875  31.682   2.533  14.446
52616W        W24876  27.487  35.504  15.000
52617W        W24877  26.543  33.499   0.830
52618W        W24878  11.749  36.422   1.679
52619W        W24879   5.968  37.976   1.978
52620W        W24880  37.868  18.156  13.756
52621W        W24881  25.758  15.166  14.828
52622W        W24882  30.017  16.714  14.282
52623W        W24883  17.738   3.046  11.877
52624W        W24884  39.471  40.830  11.038
52625W        W24885  10.641  28.922  13.495
52626W        W24886  15.160  19.177   2.419
52627W        W24887  21.302  27.934  11.556
52628W        W24888  14.129  14.862   3.389
52629W        W24889   1.699  28.970  11.140
52630W        W24890  16.518  15.243  11.092
52631W        W24891  19.297  21.648  11.894
52632W        W24892  16.138  14.528   0.843
52633W        W24893  33.368  16.035   4.107
52634W        W24894  17.762   8.815  13.147
52635W        W24895  11.678  38.324  14.383
52636W        W24896  24.050  42.239  11.962
52637W        W24897  20.761   3.887  11.915
52638W        W24898   1.294  29.871   1.620
52639W        W24899  14.890  28.349   3.334
52640W        W24900  39.515  42.279  11.556
52641W        W24901  30.592  36.960   4.793
52642W        W24902  11.326  18.514   0.816
52643W        W24903  21.204  34.428   4.748
52644W        W24904  43.268  35.475  10.388
52645W        W24905   7.752   4.124  11.897
52646W        W24906  39.076   8.182  11.568
52647W        W24907   0.465   6.028  13.332
52648W        W24908  12.077  17.023   0.841
52649W        W24909  17.602  31.993  11.430
52650W        W24910  28.692  12.838   0.643
52651W        W24911  38.344  25.021  14.259
52652W        W24912  26.338   1.856   2.125
52653W        W24913   1.236  38.830   2.366
52654W        W24914  34.580  39.537   4.107
52655W        W24915  21.679  23.451  13.102
52656W        W24916  13.550   9.349  14.047
52657W        W24917  26.422  41.841  10.688
52658W        W24918  31.114  26.382   2.901
52659W        W24919  22.044  40.577   1.282
52660W        W24920  36.142   5.967   2.645
52661W        W24921   1.305  28.438  12.858
52662W        W24922  41.877  25.925  12.932
52663W        W24923  33.421   6.674   3.886
52664W        W24924  40.019   1.961   0.784
52665W        W24925  43.420  29.618   4.304
52666W        W24926  33.501  21.089   4.274
52667W        W24927  36.243  21.994   0.477
52668W        W24928  40.797  40.566   2.748
52669W        W24929  15.480  24.237   1.294
52670W        W24930  12.252   4.897  12.868
52671W        W24931  17.044  15.865  14.532
52672W        W24932  18.655  43.224  13.972
52673W        W24933  33.623  24.049  10.820
52674W        W24934  23.283  39.389   4.067
52675W        W24935   8.429   1.956  13.787
52676W        W24936  14.793  24.608  13.095
52677W        W24937  28.853  44.147  11.117
52678W        W24938  27.705  33.393   2.425
52679W        W24939   1.396  12.867   4.053
52680W        W24940  44.213  37.287  12.045
52681W        W24941  29.477   9.263  12.508
52682W        W24942  32.157  22.438  11.174
52683W        W24943   5.441  41.757   0.742
52684W        W24944  13.916  10.199  11.652
52685W        W24945  35.927   7.008   0.804
52686W        W24946   3.017  37.317   3.137
52687W        W24947  10.935  20.333  14.777
52688W        W24948  30.750   3.451   5.041
52689W        W24949  16.471  27.996  13.280
52690W        W24950  26.060  32.814  12.068
52691W        W24951  17.693  31.037   3.889
52692W        W24952  17.920  21.897   2.645
52693W        W24953   6.355  19.201   1.813
52694W        W24954  38.817  43.858   0.440
52695W        W24955  15.555  19.481   2.624
52696W        W24956   5.942   7.612  12.931
52697W        W24957  44.037  13.884   1.872
52698W        W24958   4.808  42.304  14.546
52699W        W24959  37.648  17.100   2.438
52700W        W24960  12.877  16.311  13.372
52701W        W24961   5.194  18.160   0.728
52702W        W24962  38.503  34.030   4.159
52703W        W24963  42.281   4.763   2.644
52704W        W24964  30.147  14.525   3.277
52705W        W24965  14.728  10.671  14.811
52706W        W24966   6.818  32.547   4.829
52707W        W24967  15.680  31.107   0.950
52708W        W24968  21.940   5.322  12.363
52709W        W24969  22.195  12.218   2.328
52710W        W24970  12.239  43.439   1.163
52711W        W24971  33.227   0.818   1.558
52712W        W24972  24.760  39.998   2.415
52713W        W24973  32.585  32.590  14.229
52714W        W24974  11.805  38.927   0.627
52715W        W24975  26.566  23.472   4.081
52716W        W24976   2.370  13.243  12.841
52717W        W24977  23.145  40.421  11.407
52718W        W24978  28.221  32.875   4.458
52719W        W24979  33.598  27.009  12.060
52720W        W24980  23.594   4.654   3.250
52721W        W24981  21.773  36.689   3.679
52722W        W24982  44.825  37.858  11.589
52723W        W24983  21.641   1.800   1.966
52724W        W24984  30.847  42.032   1.271
52725W        W24985  35.648  32.385   1.422
52726W        W24986   3.954   6.786   4.066
52727W        W24987   3.346  23.254   1.236
52728W        W24988  16.315  20.551  11.514
52729W        W24989  30.035  13.288   2.702
52730W        W24990   9.394  13.214   2.742
52731W        W24991   1.917  38.280  13.914
52732W        W24992  19.088   5.824   2.149
52733W        W24993  14.630  23.108   0.177
52734W        W24994  35.276  24.701  14.115
52735W        W24995  10.275  21.496   1.855
52736W        W24996  34.799  40.475   4.150
52737W        W24997   1.755   0.504  13.019
52738W        W24998   0.328  18.602  12.056
52739W        W24999  41.358  22.283  12.861
52740W        W25000   7.326  17.211  11.101
52741W        W25001  25.639  40.962  12.494
52742W        W25002  34.771  17.182  11.287
52743W        W25003  14.114  36.786   4.350
52744W        W25004  33.003  27.356   2.123
52745W        W25005  12.191   2.433  13.097
52746W        W25006  14.719   6.337   4.117
52747W        W25007   3.817  15.299  10.303
52748W        W25008  10.564   6.810   3.423
52749W        W25009  31.872  12.330  10.964
52750W        W25010  26.589  44.315   2.824
52751W        W25011   8.753  22.002  10.620
52752W        W25012   4.644  39.053   3.837
52753W        W25013  18.712  41.818   1.229
52754W        W25014   6.442   7.209   1.304
52755W        W25015  14.707   0.925   1.441
52756W        W25016  15.071  28.509   4.220
52757W        W25017  35.886  43.929   1.753
52758W        W25018  10.794   8.208   3.347
52759W        W25019  29.585  40.409   9.955
52760W        W25020  33.055  25.496   1.932
52761W        W25021  28.055   4.897   4.439
52762W        W25022  12.615   7.396   0.541
52763W        W25023  39.446   5.845  12.587
52764W        W25024  39.888   5.510   0.810
52765W        W25025  24.670  24.707   4.477
52766W        W25026  13.009  29.078  13.836
52767W        W25027  17.636   2.014   0.845
52768W        W25028  41.760  15.582  12.868
52769W        W25029  14.284  42.433   4.132
52770W        W25030   9.130  39.841   4.695
52771W        W25031  31.025  35.942  12.421
52772W        W25032  29.454   2.977   1.284
52773W        W25033  10.205  12.815   3.231
52774W        W25034  11.586   2.302   2.769
52775W        W25035  38.098  26.513  13.372
52776W        W25036  18.365  36.512  13.001
52777W        W25037  37.171  21.292   5.133
52778W        W25038   0.291  10.092  10.385
52779W        W25039  41.939  26.436  13.022
52780W        W25040  39.846  31.919   2.752
52781W        W25041  34.348  42.991   0.295
52782W        W25042  26.392  29.515  14.433
52783W        W25043  14.353  40.252  13.269
52784W        W25044  29.032  17.799  14.439
52785W        W25045  38.443  37.847   3.183
52786W        W25046  38.317   9.757   3.240
52787W        W25047  35.485  41.268  13.142
52788W        W25048  10.123   5.482   2.309
52789W        W25049  30.940  27.518  11.094
52790W        W25050  31.538  17.031   2.711
52791W        W25051  30.836  19.976  14.816
52792W        W25052  26.307   3.253  14.505
52793W        W25053  32.002  37.389  14.842
52794W        W25054  12.036  44.759  13.920
52795W        W25055  28.435   6.205  11.569
52796W        W25056  19.172  32.866   1.687
52797W        W25057  28.411  38.856   2.282
52798W        W25058  15.604   7.799  13.504
52799W        W25059  40.941   7.201  14.272
52800W        W25060  22.184  27.681   0.659
52801W        W25061  26.545  17.761  12.815
52802W        W25062  38.836  22.603  12.476
52803W        W25063  14.652  33.871   3.623
52804W        W25064   4.623  40.804   4.628
52805W        W25065  25.070  27.525  11.833
52806W        W25066  35.983  26.066  11.014
52807W        W25067  11.567  34.108   1.257
52808W        W25068  13.779   3.251   0.284
52809W        W25069  22.955   1.408  13.032
52810W        W25070   4.315  18.718   4.454
52811W        W25071   7.404  42.467   4.114
52812W        W25072  37.493  22.119  12.105
52813W        W25073  29.891  19.400  12.413
52814W        W25074  32.834  30.420   4.333
52815W        W25075  34.408  42.256   0.546
52816W        W25076  22.754  40.519  10.691
52817W        W25077   8.310  34.306  14.826
52818W        W25078  32.240  25.750   1.284
52819W        W25079  16.339   2.921  12.888
52820W        W25080  32.842  39.404   4.485
52821W        W25081   0.371  25.050   4.065
52822W        W25082  32.106  33.275  14.327
52823W        W25083  21.119  24.452  13.371
52824W        W25084  29.845  32.403   3.988
52825W        W25085  27.226  21.004   2.736
52826W        W25086   4.757  17.147   0.935
52827W        W25087  34.510   2.396   1.247
52828W        W25088  19.324  10.475  11.277
52829W        W25089  12.357  31.218   1.380
52830W        W25090  12.029   7.960  12.955
52831W        W25091  42.765  18.426  10.860
52832W        W25092  21.819   5.731  11.046
52833W        W25093  24.026  21.329  12.805
52834W        W25094  21.540  12.820   4.112
52835W        W25095   5.227   9.891   3.194
52836W        W25096  20.042  29.904  11.656
52837W        W25097  32.130  24.534   0.540
52838W        W25098  16.402   2.182  11.198
52839W        W25099  37.510   6.136  11.080
52840W        W25100  10.248  37.795   5.123
52841W        W25101  30.942  36.599   4.616
52842W        W25102  33.466   8.485  12.011
52843W        W25103  35.431  33.942   3.296
52844W        W25104  17.124  40.068   0.732
52845W        W25105  12.717  43.873   4.432
52846W        W25106  12.832   2.714   0.437
52847W        W25107  37.518  34.625   0.073
52848W        W25108  11.315  11.248   1.927
52849W        W25109  30.157   8.733  13.286
52850W        W25110  17.379   4.277   2.745
52851W        W25111  32.522   1.687   4.196
52852W        W25112  21.172  36.501  14.913
52853W        W25113  17.287   9.239   1.184
52854W        W25114  43.340  33.436  12.350
52855W        W25115  16.583  15.072   1.653
52856W        W25116  37.952   0.825   2.422
52857W        W25117  39.917  29.541  10.774
52858W        W25118  34.448  42.820  10.792
52859W        W25119   6.645  28.457   4.599
52860W        W25120  19.689   8.265  10.256
52861W        W25121  20.581  27.985  14.455
52862W        W25122  42.291   8.129  14.268
52863W        W25123  43.991  10.668  14.959
52864W        W25124  39.209   9.371  10.554
52865W        W25125   1.549  13.756   2.737
52866W        W25126  38.011  19.966  14.953
52867W        W25127   7.317   2.226   4.338
52868W        W25128   7.854  26.943  12.518
52869W        W25129  13.044  32.884   4.848
52870W        W25130  23.807  36.049  14.941
52871W        W25131   1.895  18.590  14.990
52872W        W25132  17.211   5.790  14.192
52873W        W25133   3.744   8.924  14.788
52874W        W25134  12.071  12.395  12.270
52875W        W25135  35.519  31.981   3.232
52876W        W25136  35.531  23.155   0.709
52877W        W25137   7.264  34.659   0.438
52878W        W25138  40.331  22.725  11.426
52879W        W25139  13.678  38.311   0.984
52880W        W25140  26.729  38.795  13.759
52881W        W25141  39.584  36.163  12.456
52882W        W25142  14.686  22.583   1.768
52883W        W25143  44.295   2.039   4.216
52884W        W25144  35.962  20.144   0.015
52885W        W25145  40.478  18.961   9.912
52886W        W25146  29.122  36.104  14.357
52887W        W25147  10.724  33.930  13.401
52888W        W25148  25.779  40.941  11.079
52889W        W25149  24.043  37.140  12.410
52890W        W25150   1.795  35.987  10.688
52891W        W25151  42.347   0.611   0.248
52892W        W25152  29.465  29.133   2.783
52893W        W25153  13.863   1.840  10.627
52894W        W25154  26.165  25.315   1.507
52895W        W25155  15.049  24.950   2.334
52896W        W25156   9.232  25.567  10.713
52897W        W25157   7.703   6.612   4.661
52898W        W25158  39.618  36.462  14.459
52899W        W25159  19.497  18.058  13.373
52900W        W25160  28.577  39.330   1.392
52901W        W25161  18.040  22.156  13.987
52902W        W25162  23.782  40.317   0.846
52903W        W25163  35.088  17.183   3.573
52904W        W25164  34.170   5.661  14.762
52905W        W25165  21.661  22.063   4.253
52906W        W25166  27.472  14.909   2.382
52907W        W25167  16.124  35.106   2.643
52908W        W25168  40.953  42.784  12.074
52909W        W25169   5.481  41.913  13.822
52910W        W25170  33.153  31.524   1.740
52911W        W25171  44.718  22.026  12.119
52912W        W25172  36.438  23.155   0.154
52913W        W25173   5.390   0.323  12.611
52914W        W25174   2.221   9.819  12.111
52915W        W25175  33.362  17.866  11.240
52916W        W25176  15.095  21.888   4.521
52917W        W25177  41.747  28.062  14.322
52918W        W25178   1.719  41.986   4.633
52919W        W25179  22.546  23.628   4.609
52920W        W25180  43.664  22.662  14.462
52921W        W25181  19.410  10.577   1.399
52922W        W25182  14.821  29.413   1.443
52923W        W25183   5.535  32.093   1.275
52924W        W25184  17.665   7.844  13.114
52925W        W25185  11.776   4.732   3.156
52926W        W25186  10.960  32.741   1.541
52927W        W25187   4.888  24.138   2.273
52928W        W25188  43.363  32.109   2.785
52929W        W25189  37.873   1.900   1.681
52930W        W25190  11.171   9.752  12.210
52931W        W25191  11.615  11.396   0.308
52932W        W25192  41.261  39.141   5.063
52933W        W25193  16.890   3.383   4.606
52934W        W25194  31.952  36.062   1.477
52935W        W25195  40.481  29.687   2.224
52936W        W25196   6.456  11.852   5.014
52937W        W25197  33.659  30.994  11.481
52938W        W25198  11.795   9.751   3.159
52939W        W25199   7.852  14.758  12.051
52940W        W25200  20.560   1.002  14.085
52941W        W25201  38.666  31.516  11.077
52942W        W25202   6.412  23.324   4.063
52943W        W25203  28.413  14.147   1.184
52944W        W25204  14.260  13.897  11.032
52945W        W25205  43.520   6.955   2.182
52946W        W25206  40.964  25.703   4.624
52947W        W25207   6.357  31.397   4.650
52948W        W25208  17.283  30.952   0.408
52949W        W25209  37.250   9.540   5.360
52950W        W25210  39.937  36.168  12.862
52951W        W25211  34.589  40.231  12.439
52952W        W25212  38.434   6.770  14.104
52953W        W25213  32.973  44.760  11.606
52954W        W25214  24.174  37.492   4.485
52955W        W25215  19.982  31.066   2.745
52956W        W25216  10.898  25.488   3.737
52957W        W25217  14.330  16.107   1.597
52958W        W25218  41.467  14.665  11.181
52959W        W25219  13.574  19.772   2.794
52960W        W25220  42.547  10.375  14.007
52961W        W25221  25.463  42.585  10.505
52962W        W25222   1.958  41.442   3.541
52963W        W25223  19.252   1.841  14.857
52964W        W25224   6.815  36.115   3.623
52965W        W25225   8.733  11.096   1.426
52966W        W25226   0.207   8.170   3.203
52967W        W25227  34.425  37.643   2.292
52968W        W25228  39.033  31.176  13.637
52969W        W25229  41.847  28.988  13.928
52970W        W25230  39.787  15.890  12.957
52971W        W25231  24.278  43.496   0.399
52972W        W25232   8.897   9.233   3.160
52973W        W25233   7.582  10.896  13.983
52974W        W25234  33.382  43.305   1.132
52975W        W25235  38.085   9.168   3.898
52976W        W25236   1.806  35.633   2.859
52977W        W25237   2.306  24.643   4.554
52978W        W25238  38.386   9.326  14.791
52979W        W25239  11.296  14.335  11.076
52980W        W25240  24.165   3.755   4.209
52981W        W25241  32.412  31.743   2.211
52982W        W25242  33.327   4.998   5.061
52983W        W25243  37.386   8.564  12.932
52984W        W25244  44.406  21.239   4.631
52985W        W25245  26.508  42.102   3.837
52986W        W25246  43.280  11.287   4.054
52987W        W25247   8.729  33.361   4.910
52988W        W25248  24.071  31.299   2.738
52989W        W25249  15.188  42.501   4.197
52990W        W25250  16.128  30.575  13.798
52991W        W25251  40.022  12.683  11.470
52992W        W25252  33.615  26.200  11.071
52993W        W25253  34.450  12.397   3.381
52994W        W25254  26.416  12.361   2.804
52995W        W25255   1.848  12.696   1.373
52996W        W25256  40.309   9.173   9.817
52997W        W25257  24.966  25.651  14.948
52998W        W25258  16.066  27.564   1.722
52999W        W25259  37.856  35.895  13.297
53000W        W25260  36.944  24.287  12.822
53001W        W25261  12.870   3.987   3.132
53002W        W25262  42.743  22.097  12.609
53003W        W25263  35.028  28.867  10.533
53004W        W25264  11.596  26.307  12.007
53005W        W25265  35.187  21.245   2.917
53006W        W25266  24.800  11.053   4.386
53007W        W25267  22.952  42.549  11.083
53008W        W25268  40.597  19.860  14.339
53009W        W25269  18.787   5.362   4.263
53010W        W25270   1.520   6.845   1.094
53011W        W25271  37.512  18.541   2.636
53012W        W25272  28.600  22.249  11.661
53013W        W25273   8.686  31.040  10.686
53014W        W25274   6.106  41.511   4.221
53015W        W25275  11.622   7.764   3.460
53016W        W25276  41.195  15.957   3.271
53017W        W25277  26.518  10.311   4.509
53018W        W25278  33.344   4.240  11.828
53019W        W25279  25.869  29.112   2.212
53020W        W25280  24.707  32.220  13.372
53021W        W25281  31.362  32.737  12.888
53022W        W25282  36.602  10.663   1.844
53023W        W25283   3.915  17.702   2.845
53024W        W25284  26.755   7.272   2.220
53025W        W25285  19.580  29.659  13.838
53026W        W25286  44.496  21.709   3.694
53027W        W25287  23.586  23.044  10.980
53028W        W25288  15.571  12.245  14.343
53029W        W25289  14.714  14.528  14.365
53030W        W25290  20.270  15.383   4.365
53031W        W25291  41.051  23.244   1.801
53032W        W25292   6.486  13.833   4.097
53033W        W25293  43.452  14.411  11.661
53034W        W25294   6.328   3.029   0.051
53035W        W25295   6.596  17.276  13.896
53036W        W25296  30.241  28.414  11.832
53037W        W25297  42.189   8.607   0.672
53038W        W25298  42.345  19.038   4.634
53039W        W25299  38.085  28.712   0.008
53040W        W25300   0.012  30.675  13.870
53041W        W25301  28.560  28.977  14.986
53042W        W25302   7.250  30.322   3.870
53043W        W25303  11.603  29.881   5.153
53044W        W25304  35.977  35.703   1.929
53045W        W25305  15.021  35.058  11.576
53046W        W25306   0.484   8.154   2.733
53047W        W25307  28.350  25.839  11.304
53048W        W25308  35.002  25.120  13.025
53049W        W25309  42.458  21.970  11.608
53050W        W25310  27.565  28.708  11.486
53051W        W25311  31.324  23.642   2.739
53052W        W25312   0.311  15.727   3.746
53053W        W25313  34.910  12.673  12.629
53054W        W25314  18.368  42.622   1.317
53055W        W25315   3.313  39.710   4.219
53056W        W25316   0.997  39.581   1.314
53057W        W25317  19.602  20.742   3.786
53058W        W25318   9.913   8.737   2.109
53059W        W25319  36.314  11.210  11.497
53060W        W25320   2.137  35.156   3.812
53061W        W25321   7.173  23.173   1.742
53062W        W25322  12.601  27.374  11.916
53063W        W25323  13.914  31.672  13.642
53064W        W25324  12.862  19.174   2.703
53065W        W25325  10.507   1.448   3.692
53066W        W25326   0.528  26.908   3.307
53067W        W25327   6.744  35.807   4.090
53068W        W25328  16.873  41.322   0.352
53069W        W25329   3.240   3.512   4.149
53070W        W25330  36.863  40.993  12.968
53071W        W25331  24.012   3.198   2.270
53072W        W25332  12.634  26.096   2.698
53073W        W25333  26.151  34.145  11.497
53074W        W25334  15.171  19.164   4.379
53075W        W25335  11.601  21.646   1.004
53076W        W25336  36.809   6.959   4.170
53077W        W25337  13.407  32.091  12.476
53078W        W25338  35.870  13.325   1.299
53079W        W25339  39.091  44.822   1.984
53080W        W25340  23.525  20.309   1.969
53081W        W25341  39.606  43.420  12.881
53082W        W25342  24.552  33.653  10.659
53083W        W25343  29.593  28.574  13.405
53084W        W25344  36.093  44.778   3.667
53085W        W25345  16.145   1.779   1.231
53086W        W25346  19.426  37.864  12.445
53087W        W25347  40.259   6.416   4.127
53088W        W25348   4.012  43.004   0.832
53089W        W25349  42.876  19.481   0.917
53090W        W25350  41.926  21.042  10.437
53091W        W25351  24.943   1.157   1.454
53092W        W25352  16.019  44.344   2.078
53093W        W25353  14.885  23.260   1.210
53094W        W25354  18.475  28.155   3.765
53095W        W25355  14.332  34.935   1.364
53096W        W25356  31.546  22.787  11.470
53097W        W25357   0.845  25.626   3.068
53098W        W25358  37.297  42.312   1.736
53099W        W25359  12.945  35.865   1.274
53100W        W25360  39.410  29.522  10.735
53101W        W25361  22.652  27.225  13.405
53102W        W25362  16.713  21.242   4.501
53103W        W25363  41.352  30.584  11.198
53104W        W25364  18.094   7.374  14.385
53105W        W25365  21.700   2.977  11.621
53106W        W25366   4.861   1.573  14.356
53107W        W25367   2.098   3.894  11.956
53108W        W25368  35.340  33.441  13.792
53109W        W25369  28.292  28.609  11.931
53110W        W25370   0.734  21.047  14.435
53111W        W25371  31.061  12.246  12.641
53112W        W25372  17.403  16.905   0.956
53113W        W25373  11.197  13.412  14.329
53114W        W25374  29.654  44.495  10.592
53115W        W25375  23.583   8.349  13.431
53116W        W25376  29.559  38.953   3.694
53117W        W25377   6.899   9.262   0.968
53118W        W25378  18.710  17.210   3.721
53119W        W25379  15.361  21.354  11.505
53120W        W25380   0.280   2.355   3.158
53121W        W25381  16.503  28.131  11.956
53122W        W25382  32.009  13.078   0.232
53123W        W25383  19.292  24.530  12.685
53124W        W25384  37.494   3.198  12.542
53125W        W25385  18.688   6.844   1.420
53126W        W25386  11.082  34.583   0.896
53127W        W25387  35.413   1.625   3.622
53128W        W25388  36.020  10.190  14.566
53129W        W25389  31.460  22.571  12.347
53130W        W25390  24.404  18.045   3.320
53131W        W25391   8.894  31.080   2.713
53132W        W25392  28.510   1.753  10.564
53133W        W25393   6.432  35.787   2.942
53134W        W25394   4.809  32.382   3.126
53135W        W25395  17.197  43.298  12.931
53136W        W25396  28.677  32.346   5.448
53137W        W25397  12.384  39.720  12.439
53138W        W25398  37.797  11.062   3.168
53139W        W25399   3.468  10.252   3.230
53140W        W25400   6.446   3.929  12.627
53141W        W25401  13.312  37.087  11.185
53142W        W25402   4.760  17.166  13.384
53143W        W25403  10.173  31.387  12.043
53144W        W25404  33.554  16.729   4.612
53145W        W25405  30.657  41.599  11.180
53146W        W25406   0.000  19.014   3.739
53147W        W25407   7.668  30.365   4.581
53148W        W25408  40.622  41.419  13.816
53149W        W25409  28.088  10.066  12.783
53150W        W25410  28.942  41.669   4.927
53151W        W25411   5.718  38.589  11.373
53152W        W25412   9.054  13.482   3.048
53153W        W25413   4.458  35.942   4.343
53154W        W25414   3.645  39.007   3.676
53155W        W25415  43.465  35.049   4.706
53156W        W25416   1.334  10.303  13.284
53157W        W25417  44.041  44.839  11.735
53158W        W25418  39.189  10.177   4.123
53159W        W25419  23.717  42.751  13.980
53160W        W25420  17.224  23.419   0.407
53161W        W25421  16.804  43.895  11.382
53162W        W25422   6.498  34.654  13.980
53163W        W25423  11.156  12.375   2.589
53164W        W25424  34.836  33.398  13.954
53165W        W25425   5.260   7.591  11.327
53166W        W25426  43.738  14.611  12.844
53167W        W25427  21.498  40.631  12.837
53168W        W25428  34.437   1.175   3.305
53169W        W25429   5.867  14.606  11.233
53170W        W25430  10.905  36.496   1.381
53171W        W25431  42.135  12.750   4.561
53172W        W25432   3.307   4.716  14.484
53173W        W25433  26.268  30.436   3.285
53174W        W25434  19.535  16.802   2.810
53175W        W25435  44.587  39.764  13.338
53176W        W25436  30.992  36.270  12.871
53177W        W25437  14.045  11.792   0.796
53178W        W25438   7.317  24.046   3.565
53179W        W25439  35.458   7.781  10.703
53180W        W25440  35.822  39.052   1.529
53181W        W25441  27.419   2.344  14.338
53182W        W25442  19.351  28.082   4.651
53183W        W25443  27.440  32.051  10.634
53184W        W25444  29.287  15.667  13.466
53185W        W25445   7.541  27.453  14.764
53186W        W25446  30.861   1.440  12.987
53187W        W25447  27.506  26.860   3.239
53188W        W25448  31.124   9.521  10.944
53189W        W25449  32.068  27.671  14.256
53190W        W25450  23.782  34.035   1.645
53191W        W25451  36.904  39.935  12.856
53192W        W25452   7.016   6.266  13.652
53193W        W25453  19.438   5.364  11.565
53194W        W25454  21.510  34.362   1.480
53195W        W25455  37.597  19.746   4.086
53196W        W25456  14.642  40.994   0.447
53197W        W25457  19.026  21.520  14.522
53198W        W25458  18.953   8.996  11.937
53199W        W25459  12.211  22.032  10.963
53200W        W25460  40.807  38.864   4.184
53201W        W25461  28.141  14.528  10.966
53202W        W25462  19.066  32.632  12.126
53203W        W25463   8.180  18.175   4.333
53204W        W25464  42.339  42.395  10.719
53205W        W25465  30.570   8.849  13.559
53206W        W25466  19.154   7.151  13.752
53207W        W25467  35.120  20.452  13.023
53208W        W25468  15.857   7.664   0.355
53209W        W25469  35.089  35.104  13.569
53210W        W25470   1.891  22.200  14.967
53211W        W25471  30.446  31.330  12.532
53212W        W25472  35.080  28.089   3.653
53213W        W25473  28.524  29.485  10.841
53214W        W25474  12.632  36.054   4.586
53215W        W25475  34.078  20.351   1.372
53216W        W25476   5.693   6.687   0.447
53217W        W25477   5.257  29.914   0.950
53218W        W25478  11.057   3.994   2.832
53219W        W25479  32.375  23.042   4.252
53220W        W25480  33.901  22.590  11.617
53221W        W25481  38.128  11.864   1.970
53222W        W25482  13.826  27.833  12.399
53223W        W25483  41.051  23.090  12.537
53224W        W25484  36.422  43.735  10.883
53225W        W25485  20.007   0.127  13.897
53226W        W25486  39.921  16.359   3.657
53227W        W25487  30.880  24.214  10.678
53228W        W25488  26.625  26.683  12.388
53229W        W25489   1.966  30.178   2.284
53230W        W25490  29.595  26.489  11.999
53231W        W25491  19.214   9.301   5.546
53232W        W25492  39.159  25.907   2.707
53233W        W25493  32.891  24.621  10.968
53234W        W25494  39.040  42.951  12.229
53235W        W25495  42.240  17.311  14.999
53236W        W25496   9.375  35.828  13.934
53237W        W25497  16.278  20.980  10.674
53238W        W25498  25.571  40.402   2.333
53239W        W25499  35.383  32.289   1.849
53240W        W25500  14.487   3.298   3.240
53241W        W25501  28.821  27.308  11.150
53242W        W25502  17.762  13.856  14.073
53243W        W25503  22.607  19.155  14.726
53244W        W25504  18.309  38.082  14.800
53245W        W25505  11.701  19.352  13.344
53246W        W25506  31.645  37.139   0.728
53247W        W25507  24.046  17.649   0.673
53248W        W25508   7.282  11.908  13.467
53249W        W25509  44.697  33.028  13.846
53250W        W25510  35.833  19.129  11.402
53251W        W25511  22.677  30.864   0.047
53252W        W25512   0.935  44.518   4.199
53253W        W25513  44.513  21.602  11.861
53254W        W25514   1.133  36.941   2.094
53255W        W25515  13.909  43.335   3.694
53256W        W25516  26.176  38.792  14.453
53257W        W25517  12.615   5.366  14.918
53258W        W25518  25.459   8.142   0.028
53259W        W25519  18.067  27.508  12.709
53260W        W25520  39.782  30.981   4.061
53261W        W25521  10.477   3.525  11.951
53262W        W25522  34.546  32.002  11.523
53263W        W25523   0.497  26.000   1.207
53264W        W25524  11.754   5.803   2.155
53265W        W25525  40.234  15.165   4.396
53266W        W25526  42.921  13.244  14.446
53267W        W25527  23.767   9.295   3.513
53268W        W25528  30.529  37.829  14.322
53269W        W25529   0.955  23.717  11.566
53270W        W25530  16.139   9.116  13.953
53271W        W25531  44.534  10.092   2.286
53272W        W25532  38.559  12.652   4.093
53273W        W25533  24.179  13.065   1.733
53274W        W25534  18.689  18.206  11.211
53275W        W25535   5.415  40.870  12.439
53276W        W25536  34.099  13.774   3.827
53277W        W25537  18.364   0.242  14.384
53278W        W25538  31.763  44.949   4.713
53279W        W25539  13.918   5.853  13.919
53280W        W25540  39.365  19.296   2.864
53281W        W25541  40.746  41.173   2.420
53282W        W25542  26.413   1.492  14.049
53283W        W25543  39.759  20.459   4.165
53284W        W25544  38.883  44.407   5.050
53285W        W25545  18.053  23.039   1.298
53286W        W25546  21.219  29.609   4.588
53287W        W25547  22.391  22.910  14.392
53288W        W25548  26.205   7.925   0.383
53289W        W25549  19.675  11.342   1.905
53290W        W25550  21.519  35.079  13.851
53291W        W25551  40.628  31.035   0.934
53292W        W25552  24.135  33.325  10.010
53293W        W25553  19.010  32.757   2.158
53294W        W25554   8.403  24.344   3.174
53295W        W25555  26.273  26.084  10.456
53296W        W25556  11.330  40.347  13.821
53297W        W25557  39.549  32.320  12.935
53298W        W25558  11.148  26.961   3.275
53299W        W25559  18.715   6.406   2.135
53300W        W25560  41.077  27.509   2.752
53301W        W25561  22.695  40.271  14.548
53302W        W25562  32.098  29.986  10.685
53303W        W25563  29.653   6.317  13.922
53304W        W25564  25.253   3.740   1.308
53305W        W25565  11.209  43.961   4.491
53306W        W25566   9.794  43.729   3.127
53307W        W25567  44.773  25.803   3.040
53308W        W25568  25.133  11.604  12.428
53309W        W25569  42.315  35.008  11.158
53310W        W25570  44.906  42.834  11.527
53311W        W25571  10.222  32.415  12.018
53312W        W25572  18.566  11.911   0.308
53313W        W25573  31.621  23.545  12.297
53314W        W25574  23.323  13.141  14.883
53315W        W25575  11.779  14.053   5.072
53316W        W25576   7.303  27.913  13.936
53317W        W25577   1.348  24.911  13.045
53318W        W25578  32.296  30.858   3.534
53319W        W25579  35.444  34.910  10.841
53320W        W25580  11.859  36.553  11.162
53321W        W25581   9.141  36.419   2.402
53322W        W25582  38.600   0.781  13.861
53323W        W25583  42.928  32.040  12.066
53324W        W25584   7.290   1.263  14.366
53325W        W25585   5.168  38.777  12.591
53326W        W25586  41.716  10.747   0.351
53327W        W25587  42.025   7.304   4.119
53328W        W25588  41.448   7.169  14.459
53329W        W25589   3.441  37.480  11.527
53330W        W25590  11.462  33.526  10.452
53331W        W25591  22.095  22.858  11.937
53332W        W25592   0.786  34.893  12.849
53333W        W25593  28.514   4.894  12.507
53334W        W25594  31.239  32.565  13.360
53335W        W25595  31.095  40.399   4.817
53336W        W25596  44.750  17.536   0.823
53337W        W25597  16.551  40.055   2.366
53338W        W25598  11.381  13.298  13.002
53339W        W25599   3.277  38.322  12.843
53340W        W25600  34.150  42.497  14.805
53341W        W25601  41.078  36.708  10.968
53342W        W25602   9.571  28.214   3.620
53343W        W25603  37.500  40.351   2.581
53344W        W25604  12.171  36.489   2.901
53345W        W25605   0.570   8.905   4.679
53346W        W25606  13.414  22.183  12.936
53347W        W25607  10.929  36.020   0.638
53348W        W25608  27.398  32.210  12.868
53349W        W25609   6.127   3.301  12.424
53350W        W25610  42.133  41.445  10.437
53351W        W25611  30.838  24.575   1.338
53352W        W25612   2.217  34.675   1.266
53353W        W25613  17.111   2.320   3.405
53354W        W25614  43.834  24.042  12.579
53355W        W25615  18.026   9.738   2.501
53356W        W25616  32.474  15.822  13.413
53357W        W25617  24.058  14.597  13.310
53358W        W25618  27.437  32.967   0.733
53359W        W25619  41.776  27.061  10.513
53360W        W25620   9.608  20.275   4.196
53361W        W25621  23.203  41.265   1.688
53362W        W25622  20.988  41.313  11.612
53363W        W25623  33.768  32.214   5.200
53364W        W25624  29.938  17.964   1.038
53365W        W25625  30.404  28.470   1.295
53366W        W25626   7.411  28.950  11.054
53367W        W25627  28.707  37.881  11.574
53368W        W25628  29.421  36.573   2.677
53369W        W25629   9.360  32.695  11.937
53370W        W25630  37.348  33.426   1.362
53371W        W25631   2.576  38.355   1.745
53372W        W25632  27.506  38.940   2.658
53373W        W25633  31.135  41.412   2.263
53374W        W25634  17.203  43.294  11.346
53375W        W25635  38.160  39.382  11.291
53376W        W25636   0.217  37.064   3.268
53377W        W25637  32.494  14.181  13.446
53378W        W25638  23.139  41.011   4.917
53379W        W25639  15.827  38.783   5.037
53380W        W25640  18.124  36.863   1.884
53381W        W25641  30.177  34.106  14.168
53382W        W25642  16.036   9.600   1.056
53383W        W25643  17.233  27.027  11.047
53384W        W25644  18.608  23.574   3.254
53385W        W25645   2.571  39.329  14.957
53386W        W25646  20.831  27.762  13.305
53387W        W25647   3.939   5.446  13.946
53388W        W25648  33.330  28.844   3.086
53389W        W25649   5.513   2.540  13.423
53390W        W25650  22.193  15.116  14.034
53391W        W25651  13.265   0.682   2.699
53392W        W25652  21.098  42.095  13.296
53393W        W25653   3.969   8.779   2.195
53394W        W25654   9.260  25.128  11.014
53395W        W25655   4.361  21.429   1.902
53396W        W25656  18.204  17.121   0.028
53397W        W25657  15.844  16.147   2.141
53398W        W25658  37.587  33.945   2.726
53399W        W25659  34.813  18.922   5.050
53400W        W25660   9.060  10.168   4.699
53401W        W25661  23.234  44.873  13.932
53402W        W25662  16.294   8.040   4.406
53403W        W25663  26.456  23.702   4.964
53404W        W25664  19.862   6.446   4.153
53405W        W25665   3.507   5.765   0.953
53406W        W25666  33.277   5.837   4.148
53407W        W25667  10.186   1.924   1.937
53408W        W25668  40.355  36.652   3.729
53409W        W25669  24.354  34.810  14.496
53410W        W25670  39.032  13.371  13.456
53411W        W25671   5.595  21.578  11.567
53412W        W25672   7.273  38.235  11.567
53413W        W25673   2.279  21.624   0.288
53414W        W25674  41.331  37.000   2.782
53415W        W25675  41.257   4.764   3.358
53416W        W25676  30.542  21.991  14.457
53417W        W25677  41.497  36.408  14.812
53418W        W25678   4.475  17.089   1.481
53419W        W25679  38.417  39.093  14.578
53420W        W25680   6.824  39.409   4.594
53421W        W25681  39.699   4.217   3.836
53422W        W25682  31.125  29.603  13.314
53423W        W25683  37.480  21.584   0.917
53424W        W25684   7.740  17.373  10.807
53425W        W25685  39.481   4.400  11.638
53426W        W25686  22.690   7.660  13.994
53427W        W25687  16.090  40.569  12.454
53428W        W25688  15.762  39.521  11.146
53429W        W25689  24.480  21.654  14.499
53430W        W25690  25.684  41.278   3.339
53431W        W25691  24.105  32.107  12.143
53432W        W25692  15.524  31.379  11.978
53433W        W25693  29.370  40.522   2.447
53434W        W25694  14.754  25.678   1.884
53435W        W25695   1.259  27.151  11.074
53436W        W25696  22.727  12.169  14.844
53437W        W25697   3.916  35.418   1.705
53438W        W25698  23.857  19.840  13.714
53439W        W25699  29.387  29.929   3.156
53440W        W25700  24.013   0.981   0.561
53441W        W25701   2.097  23.349  10.155
53442W        W25702  31.587  17.821   3.795
53443W        W25703   5.280  34.832   3.308
53444W        W25704  11.962  11.896  13.766
53445W        W25705  30.436  23.704   3.315
53446W        W25706  28.080   6.948  12.066
53447W        W25707  38.156  10.342   2.788
53448W        W25708  33.672  19.281   0.028
53449W        W25709  24.660  44.632  11.106
53450W        W25710  37.102  43.791  11.642
53451W        W25711   7.774  29.632   2.425
53452W        W25712  16.652   8.164  10.723
53453W        W25713  21.156   6.957  12.850
53454W        W25714  14.702  29.442   4.171
53455W        W25715  23.258  14.763  12.196
53456W        W25716  39.115  39.405   3.555
53457W        W25717   0.901  10.118   0.797
53458W        W25718  29.188   6.297  12.996
53459W        W25719  40.699  24.767   4.687
53460W        W25720   8.777  18.155   1.665
53461W        W25721   3.960  27.885  13.078
53462W        W25722  39.864  11.398  11.183
53463W        W25723  36.777  33.723   0.832
53464W        W25724  17.459  30.625   0.932
53465W        W25725  29.976   5.233  13.480
53466W        W25726  22.783  10.286   5.007
53467W        W25727  29.218  31.748  11.565
53468W        W25728   0.043   4.205   2.384
53469W        W25729  29.980  12.872  13.020
53470W        W25730  39.393  33.546  10.611
53471W        W25731  10.182  37.497   0.949
53472W        W25732  41.889  14.831   1.909
53473W        W25733  11.121  17.464  11.977
53474W        W25734  20.408  16.589  14.820
53475W        W25735  20.682   9.932  10.928
53476W        W25736   6.453   4.580   2.187
53477W        W25737  21.736  36.573  12.049
53478W        W25738  42.114  25.220  14.925
53479W        W25739  29.657  30.376   2.159
53480W        W25740  44.445  26.103  12.564
53481W        W25741  24.247  37.602  12.489
53482W        W25742  38.229  18.181  13.367
53483W        W25743  38.982   5.199  12.834
53484W        W25744  19.810  13.086  10.860
53485W        W25745  24.723  31.902   4.717
53486W        W25746  21.211  19.305  10.936
53487W        W25747   3.038  39.243   0.903
53488W        W25748  16.080  24.578  10.560
53489W        W25749  17.108  38.094  12.264
53490W        W25750  17.246   7.608   1.416
53491W        W25751   5.293  26.639  11.473
53492W        W25752  11.754  12.068  10.715
53493W        W25753  34.500  38.203  14.010
53494W        W25754  27.629  22.049   4.444
53495W        W25755  14.991  32.553  12.056
53496W        W25756   7.034  31.582  14.836
53497W        W25757  10.300  19.644  11.912
53498W        W25758  40.933  19.547   0.947
53499W        W25759  41.252  17.740   3.213
53500W        W25760  30.023   3.958   4.174
53501W        W25761  18.059  40.914   3.549
53502W        W25762   1.189  28.502  11.546
53503W        W25763  29.364   7.800   0.497
53504W        W25764  42.826  39.021  10.981
53505W        W25765  20.211   0.797   5.014
53506W        W25766  38.273  20.520   3.276
53507W        W25767  36.397  29.361  12.868
53508W        W25768  14.798   7.682   0.432
53509W        W25769  20.275  22.469  14.777
53510W        W25770  25.235  18.039  10.734
53511W        W25771   1.913  35.655   3.879
53512W        W25772  15.817  41.747  11.578
53513W        W25773  12.078   1.809   1.877
53514W        W25774  30.055  14.507   1.409
53515W        W25775  37.372  27.074   4.172
53516W        W25776  18.213  40.036  13.485
53517W        W25777  10.455   4.765   1.866
53518W        W25778  35.523  12.787   3.842
53519W        W25779  22.952  42.001  13.432
53520W        W25780  23.199   9.375  14.657
53521W        W25781   7.872  42.862   1.588
53522W        W25782   4.677   7.690  13.495
53523W        W25783  20.561  14.554  12.191
53524W        W25784   3.399  28.916   3.844
53525W        W25785  43.141  37.824  13.247
53526W        W25786  19.264  32.037   0.023
53527W        W25787  21.998   4.660  10.160
53528W        W25788  40.816  14.743   2.701
53529W        W25789  18.084   8.302   0.421
53530W        W25790   9.950  11.897  12.047
53531W        W25791   4.950  43.125  13.145
53532W        W25792   0.491  24.030   3.293
53533W        W25793  29.753  16.254  14.369
53534W        W25794  32.636   7.212   3.662
53535W        W25795   2.971   2.812   3.805
53536W        W25796   8.902  42.821   3.236
53537W        W25797  37.447  26.973  13.951
53538W        W25798  41.545  11.868  12.033
53539W        W25799  32.125   2.906   3.788
53540W        W25800  40.150  17.009   5.173
53541W        W25801  37.803  30.189   1.401
53542W        W25802   0.828  44.300   5.043
53543W        W25803   4.689  34.153   0.151
53544W        W25804  30.817  26.026   0.404
53545W        W25805  39.906  35.111   2.307
53546W        W25806  17.534  27.590   0.471
53547W        W25807  33.995  27.048  11.328
53548W        W25808   7.795  37.193   0.878
53549W        W25809  29.774   9.748  11.164
53550W        W25810  24.092   4.380  13.801
53551W        W25811   3.784   6.306   4.154
53552W        W25812  37.324  40.814  12.958
53553W        W25813  29.227  31.009   4.232
53554W        W25814  33.994  24.197  12.007
53555W        W25815  37.595  24.776  12.930
53556W        W25816  28.451  22.595   4.196
53557W        W25817  29.424  16.658   1.619
53558W        W25818  36.106  25.865  14.478
53559W        W25819  42.582  23.782   4.715
53560W        W25820   1.437  32.972  12.913
53561W        W25821  17.328  32.597  11.135
53562W        W25822   6.991  34.624  13.868
53563W        W25823  13.515  10.806  14.233
53564W        W25824  44.338  32.420   2.370
53565W        W25825  31.899   4.911   4.421
53566W        W25826   4.411   2.846  11.194
53567W        W25827  32.850   4.412   1.991
53568W        W25828  36.583  30.151  14.774
53569W        W25829  42.938  10.945  11.142
53570W        W25830  26.592   0.795   3.808
53571W        W25831  20.990  35.067   0.334
53572W        W25832   9.369  25.813  14.799
53573W        W25833  39.288  34.370   3.260
53574W        W25834  39.397   1.192   2.452
53575W        W25835  37.001  14.053   1.206
53576W        W25836   3.666  38.600   4.611
53577W        W25837  36.600  38.061  12.914
53578W        W25838  30.124  18.945   4.133
53579W        W25839  22.216  44.860   2.249
53580W        W25840  28.630  43.253   0.354
53581W        W25841  22.450  14.269   1.717
53582W        W25842  12.926  31.929  12.580
53583W        W25843   8.688  42.535  10.644
53584W        W25844  43.760  44.680   4.054
53585W        W25845  44.690   2.591   2.410
53586W        W25846  19.248   6.799  11.042
53587W        W25847  32.192  15.163  14.330
53588W        W25848  11.898  10.639   3.970
53589W        W25849  36.232   6.734   3.120
53590W        W25850  37.836  29.183   3.671
53591W        W25851  27.555   0.001  11.415
53592W        W25852   0.716   6.629   3.251
53593W        W25853  14.127  37.851   4.161
53594W        W25854  33.974   9.188  14.034
53595W        W25855  15.347  10.060   2.895
53596W        W25856  21.315   3.335  10.343
53597W        W25857  40.038  35.862  13.741
53598W        W25858   7.822  37.521   0.033
53599W        W25859   4.614   8.657  14.874
53600W        W25860  25.881  18.578   4.462
53601W        W25861   7.478  25.646  11.300
53602W        W25862   2.792  26.603   4.256
53603W        W25863   3.253  36.132  10.625
53604W        W25864  17.206   6.664   5.422
53605W        W25865  26.045  29.912   0.714
53606W        W25866  43.521  15.800  14.786
53607W        W25867  42.901  14.837   1.133
53608W        W25868  22.262   9.943   0.333
53609W        W25869   4.749  38.525   1.677
53610W        W25870   1.437  44.235   0.813
53611W        W25871   2.398  28.897   3.939
53612W        W25872  19.767  42.376  13.265
53613W        W25873  10.377  15.640  10.536
53614W        W25874   0.490  42.721   0.821
53615W        W25875  41.348  31.857  10.498
53616W        W25876  17.911  37.031   4.185
53617W        W25877  33.424  25.559  14.977
53618W        W25878  32.177  38.410  11.095
53619W        W25879  38.854  17.325   3.677
53620W        W25880  32.600  12.045   0.808
53621W        W25881  10.231  21.997   3.370
53622W        W25882   0.754  33.598   4.524
53623W        W25883   7.664  33.912   0.580
53624W        W25884  21.244  36.365   2.359
53625W        W25885  14.874   3.986  12.998
53626W        W25886  25.174  37.875  11.609
53627W        W25887  25.026   2.964  13.283
53628W        W25888  40.082  29.941  12.026
53629W        W25889  20.132  14.343   1.343
53630W        W25890  44.346  29.853  11.523
53631W        W25891  33.163  28.588  13.538
53632W        W25892   0.714  32.952   3.237
53633W        W25893  38.440   8.399   5.117
53634W        W25894  13.805  41.470  11.424
53635W        W25895  43.223  32.073   4.616
53636W        W25896  37.875  29.866   3.197
53637W        W25897  15.214  30.913   0.931
53638W        W25898  22.780  13.150   2.685
53639W        W25899   8.803  43.311  11.040
53640W        W25900  20.952  14.394  14.825
53641W        W25901  38.585  11.373  13.986
53642W        W25902  17.752  15.505   0.024
53643W        W25903  17.372  40.963  10.704
53644W        W25904  42.716  30.994   4.851
53645W        W25905  20.118   3.841  12.653
53646W        W25906  26.872  37.891   1.716
53647W        W25907  17.611  16.166   2.766
53648W        W25908  37.784  36.495  14.882
53649W        W25909  41.594   4.196   2.060
53650W        W25910  17.597  40.922   2.286
53651W        W25911  40.383   2.340  14.991
53652W        W25912   4.856  17.555   3.291
53653W        W25913  33.954  31.643  12.335
53654W        W25914  32.893  36.337   4.938
53655W        W25915   5.936  20.819   2.207
53656W        W25916  25.426  36.984   3.710
53657W        W25917  31.858  21.765  14.954
53658W        W25918  30.462  44.874  11.215
53659W        W25919   7.726  36.925  13.788
53660W        W25920  44.209   9.817  13.041
53661W        W25921   7.329   5.228  10.569
53662W        W25922  23.214  11.776  13.167
53663W        W25923  11.890  32.054  13.822
53664W        W25924  11.113  12.401   0.748
53665W        W25925  19.146  19.657  11.402
53666W        W25926  13.804  24.265  11.479
53667W        W25927  39.581  31.643   0.253
53668W        W25928  25.096  17.556  10.484
53669W        W25929  21.980   4.732   1.472
53670W        W25930  23.152  19.242  12.648
53671W        W25931  38.462   3.963  11.012
53672W        W25932  12.975  22.650   0.465
53673W        W25933  43.595   3.942   3.254
53674W        W25934  27.012  17.610  13.020
53675W        W25935  40.112  43.511  13.809
53676W        W25936  21.779  25.062  14.856
53677W        W25937  40.859   9.392  14.518
53678W        W25938  34.402  23.135   4.207
53679W        W25939  30.956  44.278   1.769
53680W        W25940  15.121  24.746   4.862
53681W        W25941  27.998  31.888   9.942
53682W        W25942  15.691   0.567   3.664
53683W        W25943  42.972  21.375  11.851
53684W        W25944  39.430   6.460   3.145
53685W        W25945  34.954  26.510   0.798
53686W        W25946   3.913  36.547  11.523
53687W        W25947  25.307  18.056   3.145
53688W        W25948  14.720   8.296   0.647
53689W        W25949  11.800  14.564   2.836
53690W        W25950  29.119  25.135  10.949
53691W        W25951  37.532  13.389  14.300
53692W        W25952  23.519  22.430  13.835
53693W        W25953   6.907  23.511  10.693
53694W        W25954  16.248  40.079  13.725
53695W        W25955  20.021  26.158  10.720
53696W        W25956  20.445  21.613  12.868
53697W        W25957  29.677  19.236   2.867
53698W        W25958  17.858   0.688  14.867
53699W        W25959  30.559  40.019  10.618
53700W        W25960  18.170  29.694  11.613
53701W        W25961   8.796  12.715   2.432
53702W        W25962  17.136  39.494   4.579
53703W        W25963  24.018  15.015  13.619
53704W        W25964   5.821  28.662  10.262
53705W        W25965  28.423  16.346  11.974
53706W        W25966  13.169  37.807  11.524
53707W        W25967  23.549  41.852  11.197
53708W        W25968  13.821   5.195   3.554
53709W        W25969  11.099  21.685  10.376
53710W        W25970  30.027  35.903  10.632
53711W        W25971  38.837  27.047  14.910
53712W        W25972  10.885  26.224   2.164
53713W        W25973  17.740   6.816  11.009
53714W        W25974  23.749  40.795  12.100
53715W        W25975  38.167   0.408   2.652
53716W        W25976   3.826  10.309   2.069
53717W        W25977  28.443   2.049  13.360
53718W        W25978  17.875   4.256   2.855
53719W        W25979  22.914  20.258   2.842
53720W        W25980  16.096  36.014  14.327
53721W        W25981  37.360  35.802   1.025
53722W        W25982  14.775  23.077   2.241
53723W        W25983  31.483   8.225  12.722
53724W        W25984  20.559  11.730  12.825
53725W        W25985  14.165  38.512  13.537
53726W        W25986  11.540  14.650   1.805
53727W        W25987  30.644  43.958   3.231
53728W        W25988   6.296  35.920   2.444
53729W        W25989   8.249   6.131   3.123
53730W        W25990  42.332  30.995   1.431
53731W        W25991  41.188  34.000   2.910
53732W        W25992  33.019  23.735   1.967
53733W        W25993  25.836  26.771   2.816
53734W        W25994  12.829  36.395  10.813
53735W        W25995   2.682  10.283  10.688
53736W        W25996   0.775  10.044  12.480
53737W        W25997   6.219  38.452  11.735
53738W        W25998   2.868  19.347  11.740
53739W        W25999   3.336  35.559  12.890
53740W        W26000  30.493   9.246   1.959
53741W        W26001  15.069  23.935   2.235
53742W        W26002  13.844  25.551  11.961
53743W        W26003  25.833  13.128  14.876
53744W        W26004  21.421  23.847   0.295
53745W        W26005  12.231  17.215  12.104
53746W        W26006   6.632   6.021   4.121
53747W        W26007  23.569  12.564   3.773
53748W        W26008   9.593  37.127   2.352
53749W        W26009  13.078   9.381  12.949
53750W        W26010  28.473  10.138   2.979
53751W        W26011  42.822  28.598  12.024
53752W        W26012  18.766  21.749   2.822
53753W        W26013  40.945  31.041  14.414
53754W        W26014  13.471  35.977  12.711
53755W        W26015  32.500  13.130   1.715
53756W        W26016  15.477  41.358  10.676
53757W        W26017   6.337  20.603   0.690
53758W        W26018  27.672  22.620   2.767
53759W        W26019  35.493  27.718   3.263
53760W        W26020  21.386  12.729  10.695
53761W        W26021  39.999   3.895  11.224
53762W        W26022  17.177  11.698   0.479
53763W        W26023  39.302  37.432  13.964
53764W        W26024  22.153  10.634   1.677
53765W        W26025   9.096   2.620  10.606
53766W        W26026  14.836  41.437  14.027
53767W        W26027  26.593  39.304  13.747
53768W        W26028   9.307  15.238  14.603
53769W        W26029   6.667  37.042   1.294
53770W        W26030  35.878   7.969   0.041
53771W        W26031  36.727  20.849  11.082
53772W        W26032  10.099   1.101  11.919
53773W        W26033  41.529  20.434  11.701
53774W        W26034  39.136  22.676  12.067
53775W        W26035   6.772  31.039   4.552
53776W        W26036   9.268  36.801   1.633
53777W        W26037  33.436   2.443  14.457
53778W        W26038  12.195  21.088   2.282
53779W        W26039  23.562   9.741   3.742
53780W        W26040  26.637   6.141   2.845
53781W        W26041  31.205  40.409   2.761
53782W        W26042   0.447  12.129   0.985
53783W        W26043  21.177  43.705  10.789
53784W        W26044   8.120  40.085  10.551
53785W        W26045  12.143  35.045   1.719
53786W        W26046  12.652  22.598  11.543
53787W        W26047  37.906  13.893   0.043
53788W        W26048  15.139  31.601  14.454
53789W        W26049  28.636  41.785   0.373
53790W        W26050  25.588  23.536   3.116
53791W        W26051  30.118  21.603   3.834
53792W        W26052  11.867  29.209   4.090
53793W        W26053  14.709  14.823  11.467
53794W        W26054  26.888   0.072   0.941
53795W        W26055  27.193  40.912   0.480
53796W        W26056   4.157  39.106   4.297
53797W        W26057  24.935  14.640   0.512
53798W        W26058  32.713   6.960   0.286
53799W        W26059  31.892  25.209  13.275
53800W        W26060  39.441  10.155  10.182
53801W        W26061  37.129  33.178  11.096
53802W        W26062  15.971   0.837   3.263
53803W        W26063   4.612  29.343  10.092
53804W        W26064  12.141  35.829  13.391
53805W        W26065  37.503  33.018  14.042
53806W        W26066  41.676  42.402   1.771
53807W        W26067  44.265  43.698   4.456
53808W        W26068  39.077  41.272  12.815
53809W        W26069  41.210  18.719  12.117
53810W        W26070  13.758  23.155   0.185
53811W        W26071  35.032  11.350   4.332
53812W        W26072  29.389  37.865  14.347
53813W        W26073  35.206  14.173   2.970
53814W        W26074  16.897  44.042  12.984
53815W        W26075  13.817  17.237   3.484
53816W        W26076  17.895  22.537   1.313
53817W        W26077  37.969  20.583  13.099
53818W        W26078  11.585  35.506  14.515
53819W        W26079  19.481  32.549   1.357
53820W        W26080  44.600  35.139  11.545
53821W        W26081   5.363  29.342   2.786
53822W        W26082  29.951  14.775   3.731
53823W        W26083  33.573  17.647   2.866
53824W        W26084  36.102   0.706  12.004
53825W        W26085  39.317   2.416   2.938
53826W        W26086  26.343   1.556   1.709
53827W        W26087  10.298  13.571  13.818
53828W        W26088  19.823   4.932   0.804
53829W        W26089   4.832   8.836  11.333
53830W        W26090   1.383  29.489  11.650
53831W        W26091  33.651   1.959  12.502
53832W        W26092  12.157  20.237   4.295
53833W        W26093  12.267  23.114  12.637
53834W        W26094  16.719   9.249  10.932
53835W        W26095   6.674   5.908  14.968
53836W        W26096  40.014  19.172  10.722
53837W        W26097   7.837  25.354  14.304
53838W        W26098  25.466  30.176   2.901
53839W        W26099  23.818   2.845   3.831
53840W        W26100  22.516  10.882  11.063
53841W        W26101  30.010   3.767  14.883
53842W        W26102   6.382  12.886   4.088
53843W        W26103  16.115  38.612   0.775
53844W        W26104  33.468   9.880   2.348
53845W        W26105  19.086  38.965   0.494
53846W        W26106  19.057  39.103   3.347
53847W        W26107   8.893  35.987   1.727
53848W        W26108  15.487  15.384  14.924
53849W        W26109   2.802   7.822  10.496
53850W        W26110   8.399  26.225   4.573
53851W        W26111  12.715  28.338  10.150
53852W        W26112  13.586  41.976   1.196
53853W        W26113   5.012  16.620  11.625
53854W        W26114  42.284  41.481  14.753
53855W        W26115  33.872  31.820  11.062
53856W        W26116  31.879  35.729   2.502
53857W        W26117  26.086  27.521   2.926
53858W        W26118  14.318  33.594  14.908
53859W        W26119  24.532   5.331   4.612
53860W        W26120  35.276  24.823  14.664
53861W        W26121   9.389  35.327  11.411
53862W        W26122  23.449  13.220   1.342
53863W        W26123  24.694  44.312   3.584
53864W        W26124  25.997  18.130   0.350
53865W        W26125  39.794   7.793   4.600
53866W        W26126   0.762  36.481   0.768
53867W        W26127  12.528  23.426   1.217
53868W        W26128  25.939   3.429  11.521
53869W        W26129  38.888   1.308  11.466
53870W        W26130  18.318  38.588  14.671
53871W        W26131  30.697  39.993   1.253
53872W        W26132  29.356  41.000   2.284
53873W        W26133   0.064  28.882   1.682
53874W        W26134  30.137  18.812  14.253
53875W        W26135  36.666  35.986  12.448
53876W        W26136   3.158  39.813  11.191
53877W        W26137  32.115  27.181   1.005
53878W        W26138  17.187   4.907   2.655
53879W        W26139  14.622  33.040   1.026
53880W        W26140  36.997  14.735  13.744
53881W        W26141  12.553  42.043  13.560
53882W        W26142  26.555  36.593  11.213
53883W        W26143  38.555  15.757   2.174
53884W        W26144  14.419   9.069  12.154
53885W        W26145   3.490  19.050   0.547
53886W        W26146  25.961  12.595   2.858
53887W        W26147   0.753  29.090   1.202
53888W        W26148   4.920  13.200   3.407
53889W        W26149  31.144   0.049   1.060
53890W        W26150  42.802  42.728  11.701
53891W        W26151  31.349   7.745   3.215
53892W        W26152  15.749  13.246  12.376
53893W        W26153  36.806  14.099   3.142
53894W        W26154  38.176  43.726   1.498
53895W        W26155  43.993  36.515  10.659
53896W        W26156  11.755  24.472  13.773
53897W        W26157  27.838  24.671   5.069
53898W        W26158  37.318  25.251   1.862
53899W        W26159  12.309  21.698   4.528
53900W        W26160  36.292  14.027   0.913
53901W        W26161  24.719  36.771   1.286
53902W        W26162  25.964  44.250  13.626
53903W        W26163   3.271  28.932  11.947
53904W        W26164  16.624   5.309  11.321
53905W        W26165  41.727  16.231  12.436
53906W        W26166  34.434  22.527   0.020
53907W        W26167  31.965   5.755   2.705
53908W        W26168  22.823  28.317   5.089
53909W        W26169  18.354  39.531  14.351
53910W        W26170  38.126  30.590   1.318
53911W        W26171   0.172  12.545   4.592
53912W        W26172  10.353  37.867  13.066
53913W        W26173   5.684  44.469  11.212
53914W        W26174   2.852  30.569  10.663
53915W        W26175  40.674   4.307  13.508
53916W        W26176  18.245  41.236   0.314
53917W        W26177  26.459  12.394  11.556
53918W        W26178  16.676  16.148   2.737
53919W        W26179  22.794   8.256   0.222
53920W        W26180   3.873  27.987   1.889
53921W        W26181  37.351  30.029  12.269
53922W        W26182  35.319  35.006  14.017
53923W        W26183   7.916  42.349   0.717
53924W        W26184  20.661  12.306   4.149
53925W        W26185  15.814   1.837  10.493
53926W        W26186  31.419  14.549  11.237
53927W        W26187  14.492   3.331  12.400
53928W        W26188  28.193  34.989   4.245
53929W        W26189  34.449   4.892   5.052
53930W        W26190  26.982  30.582  13.430
53931W        W26191  38.401  10.948   2.841
53932W        W26192  30.254   9.279   4.652
53933W        W26193  14.966  20.499  12.449
53934W        W26194  24.618  14.328   2.339
53935W        W26195  41.071  22.485   2.615
53936W        W26196  44.699  38.410  14.450
53937W        W26197  11.366  13.227   3.766
53938W        W26198  40.699  26.447  11.166
53939W        W26199  32.108  37.007  10.835
53940W        W26200  43.677  35.966   4.171
53941W        W26201  17.514   3.288  14.736
53942W        W26202  41.340  35.382  14.714
53943W        W26203  43.971  18.229  10.508
53944W        W26204  40.271  31.595   2.232
53945W        W26205  26.621  43.015   4.020
53946W        W26206   4.694  14.385  10.390
53947W        W26207  28.059  27.862  10.302
53948W        W26208  10.222  44.712   0.559
53949W        W26209  40.129  34.341  13.572
53950W        W26210  18.756   1.072  11.145
53951W        W26211  21.711  29.997   0.027
53952W        W26212  16.396  26.531   2.111
53953W        W26213  24.015  31.521  14.226
53954W        W26214   4.894  17.398  10.575
53955W        W26215   8.711   4.411  13.924
53956W        W26216  16.424  23.285  14.472
53957W        W26217  18.238  34.850   2.142
53958W        W26218  30.522  27.468  12.196
53959W        W26219   5.804  22.587  11.521
53960W        W26220  11.379  35.649  14.989
53961W        W26221  36.124  44.989  10.800
53962W        W26222  24.476  25.371   3.232
53963W        W26223  19.542  16.771  12.707
53964W        W26224  41.661   5.840  11.996
53965W        W26225  29.277  34.564   4.560
53966W        W26226   7.398  30.424   0.517
53967W        W26227  19.469  12.816   1.851
53968W        W26228  16.012   3.349  12.750
53969W        W26229  35.464   9.440   2.425
53970W        W26230  24.896  43.188   4.408
53971W        W26231  41.560  31.141   3.644
53972W        W26232  40.801  25.331  10.773
53973W        W26233  10.705  26.427   1.611
53974W        W26234  39.351  16.146   4.200
53975W        W26235  14.282  16.440   4.533
53976W        W26236  44.780   1.363  10.796
53977W        W26237  44.485  25.003  11.914
53978W        W26238  39.156  24.965   4.583
53979W        W26239  35.456  17.673  10.625
53980W        W26240  19.988  15.069  13.227
53981W        W26241  35.018  42.276  12.616
53982W        W26242  34.932  14.478   2.657
53983W        W26243  39.057  14.923   2.332
53984W        W26244  37.482   8.691   5.342
53985W        W26245  44.280  24.896   3.042
53986W        W26246  40.851  34.080  13.059
53987W        W26247   3.094  20.839  14.048
53988W        W26248  39.966  15.352  10.716
53989W        W26249  19.053  15.008  13.964
53990W        W26250  20.460   1.133   4.025
53991W        W26251  24.121   4.193  10.925
53992W        W26252  44.596   5.507   4.220
53993W        W26253  12.612  33.522  12.633
53994W        W26254  40.358   2.422   2.644
53995W        W26255  41.950  34.382  11.091
53996W        W26256   4.809   5.106  10.026
53997W        W26257  37.914  34.352   3.147
53998W        W26258   8.052   8.914   5.068
53999W        W26259  17.192  17.988   2.421
54000W        W26260  21.809  30.418   3.251
54001W        W26261  13.265  31.493   4.238
54002W        W26262  33.856  29.549   2.448
54003W        W26263   5.087   5.820  13.449
54004W        W26264  42.073  11.247   1.440
54005W        W26265  34.258   7.638   1.250
54006W        W26266  36.524  18.033   3.569
54007W        W26267  19.047  15.396   2.435
54008W        W26268   5.443  42.221  11.509
54009W        W26269  35.081  37.077   1.300
54010W        W26270  44.760  31.504   0.232
54011W        W26271  37.505   8.397  14.210
54012W        W26272   8.980  44.185   1.845
54013W        W26273  25.720  16.042  14.485
54014W        W26274   7.188  14.787   0.986
54015W        W26275  37.845  43.309  10.513
54016W        W26276   3.299   2.002  13.787
54017W        W26277   9.297   1.566  11.667
54018W        W26278   9.729  34.668   2.681
54019W        W26279  22.433  44.402  12.906
54020W        W26280  33.918  17.222   3.738
54021W        W26281  41.007  22.630   3.640
54022W        W26282  33.658  28.664  13.408
54023W        W26283   6.364   8.469   4.801
54024W        W26284  26.972  35.631   2.234
54025W        W26285  42.185  33.613   3.745
54026W        W26286  31.692  28.140   0.397
54027W        W26287  14.785  33.626   2.634
54028W        W26288  38.796  26.930  14.380
54029W        W26289  17.971  43.595  12.327
54030W        W26290  17.634  19.790  13.342
54031W        W26291  16.499  37.963   4.107
54032W        W26292  13.549  26.094  11.088
54033W        W26293  37.118  14.725   4.171
54034W        W26294  22.700  36.967  11.453
54035W        W26295   1.542   9.209   1.672
54036W        W26296  24.996   1.926   1.823
54037W        W26297  29.597   4.119  14.922
54038W        W26298  14.610  18.214  14.250
54039W        W26299  39.441   3.873  14.363
54040W        W26300  33.165  20.817  11.145
54041W        W26301   0.901   5.484   2.895
54042W        W26302  28.672   6.668  11.508
54043W        W26303   8.151  42.145  12.007
54044W        W26304   2.974  18.117  11.201
54045W        W26305  13.686  36.434   3.684
54046W        W26306  44.998  40.831   2.182
54047W        W26307   3.301  24.098   2.594
54048W        W26308  10.345   4.349  10.792
54049W        W26309  15.233  41.258   4.925
54050W        W26310  38.449   3.723   2.658
54051W        W26311  37.139  10.771  11.176
54052W        W26312  22.881  29.065  12.880
54053W        W26313   5.758  31.315   2.213
54054W        W26314  23.213  40.330  10.490
54055W        W26315  36.045  41.462  11.497
54056W        W26316  37.744   0.707   1.489
54057W        W26317   4.474  29.586   0.987
54058W        W26318  19.571  23.082   0.241
54059W        W26319  25.734  34.603  14.276
54060W        W26320  13.665  35.455   1.815
54061W        W26321  23.412  20.109  13.805
54062W        W26322  30.498   3.022   3.655
54063W        W26323  19.040  22.310   3.217
54064W        W26324  20.199  37.462   1.455
54065W        W26325  34.408  26.545   3.176
54066W        W26326   1.559   1.957  10.931
54067W        W26327   6.779  15.461  12.547
54068W        W26328  44.247  30.145   0.803
54069W        W26329  41.316  41.629   0.981
54070W        W26330  38.750  38.715  11.081
54071W        W26331   7.713  37.928   2.286
54072W        W26332  12.121  37.973  11.960
54073W        W26333  42.759  18.703  14.062
54074W        W26334  13.050   1.952  13.755
54075W        W26335  17.771  21.783   3.768
54076W        W26336  17.907  23.958  10.681
54077W        W26337  26.001   2.490  12.883
54078W        W26338   0.188  44.251  14.719
54079W        W26339  34.436  17.537   2.424
54080W        W26340  10.317  23.480   2.722
54081W        W26341  20.808  18.072  13.816
54082W        W26342  39.827  13.237   0.499
54083W        W26343  34.299   5.270   1.414
54084W        W26344  17.481   0.334   4.853
54085W        W26345   8.069  38.715   1.701
54086W        W26346  11.449  27.204  14.142
54087W        W26347   7.281  43.571  11.775
54088W        W26348  41.352   7.986  14.848
54089W        W26349  32.577  11.156   0.465
54090W        W26350  15.719  18.122  10.531
54091W        W26351   6.835   1.281   0.686
54092W        W26352  11.585   0.004  14.700
54093W        W26353  36.338  38.977  12.558
54094W        W26354  25.103  13.580   0.824
54095W        W26355  41.489   7.293  12.380
54096W        W26356  13.255  32.160   0.471
54097W        W26357   1.304  42.889   4.536
54098W        W26358  26.214  32.387   0.735
54099W        W26359  28.569  20.548   3.006
54100W        W26360   8.409   2.937   4.193
54101W        W26361  30.994  38.355   0.926
54102W        W26362   7.815   3.467   0.998
54103W        W26363  12.083   5.416   1.344
54104W        W26364  14.612  44.468   3.738
54105W        W26365  17.945   9.921  11.660
54106W        W26366  30.238  25.952   0.461
54107W        W26367  19.236   1.315  11.133
54108W        W26368  17.964  23.137  12.614
54109W        W26369  28.186   8.754   3.344
54110W        W26370  13.105   8.874  11.110
54111W        W26371  30.704  26.706   3.714
54112W        W26372  12.633  39.468   1.506
54113W        W26373  39.687   1.394  10.368
54114W        W26374   1.916  11.866   2.250
54115W        W26375  18.218  12.606   2.302
54116W        W26376  41.448  36.966   1.440
54117W        W26377  35.593  39.030   0.148
54118W        W26378  12.814  12.201  14.803
54119W        W26379  15.000  21.632   5.029
54120W        W26380  25.730   5.899  14.718
54121W        W26381  22.308  29.765   0.293
54122W        W26382   7.854   0.108   1.732
54123W        W26383  31.437  15.010  13.930
54124W        W26384  17.572  37.904   0.431
54125W        W26385  39.569  15.349  12.423
54126W        W26386   6.291  15.343  14.747
54127W        W26387  22.158  40.804  14.252
54128W        W26388   2.974  26.594  14.895
54129W        W26389  11.440  32.393  11.006
54130W        W26390   5.025  33.872  11.981
54131W        W26391   0.401  22.749  14.992
54132W        W26392  12.625   9.418   1.634
54133W        W26393  26.837  35.496   0.924
54134W        W26394  42.377  32.641   0.943
54135W        W26395  42.328  35.802   4.500
54136W        W26396  39.476  21.582   1.427
54137W        W26397   5.203  28.218   9.747
54138W        W26398  34.525  13.883   1.294
54139W        W26399   9.871   5.371   4.690
54140W        W26400  35.858   7.404  12.620
54141W        W26401  39.469  19.082  12.549
54142W        W26402   7.226   3.147  14.273
54143W        W26403   4.040  44.503  13.325
54144W        W26404  32.504  20.933   1.952
54145W        W26405  22.329  38.379   3.188
54146W        W26406   4.305  15.801  11.941
54147W        W26407   8.913  34.170   1.862
54148W        W26408  36.023  35.494   3.777
54149W        W26409  28.857  22.064   1.433
54150W        W26410   6.332  38.384  12.224
54151W        W26411  10.411   3.049  10.710
54152W        W26412  15.714  37.792   3.245
54153W        W26413   0.689  44.219   4.549
54154W        W26414  36.857  33.557  12.113
54155W        W26415  11.627  33.885   2.199
54156W        W26416  43.489  32.598  12.098
54157W        W26417  40.806  13.720   1.903
54158W        W26418   7.572  15.639   4.739
54159W        W26419   4.819  13.295   1.862
54160W        W26420  11.235  38.164   4.781
54161W        W26421  23.801   0.802   4.391
54162W        W26422  27.167  35.582  12.539
54163W        W26423   5.002  18.676  14.942
54164W        W26424  39.304  20.726  12.411
54165W        W26425   4.172  40.373   1.472
54166W        W26426  35.372  23.711   4.066
54167W        W26427  18.019  11.259   4.513
54168W        W26428  20.771  16.590  11.163
54169W        W26429  38.577   2.171  11.622
54170W        W26430  25.136  19.974  14.909
54171W        W26431  44.234  30.520  12.807
54172W        W26432   1.094   5.753   0.956
54173W        W26433  24.116  20.153   3.762
54174W        W26434  41.958   5.348  10.650
54175W        W26435  35.925  19.859  12.148
54176W        W26436  29.026  26.464  11.211
54177W        W26437  41.148  29.453   0.295
54178W        W26438  21.816  38.984  10.624
54179W        W26439  42.040   6.233   2.734
54180W        W26440   1.361   8.210   4.633
54181W        W26441   3.500   6.824   1.459
54182W        W26442  24.423   8.805   3.797
54183W        W26443  21.071  24.192   1.681
54184W        W26444   7.167  28.384   2.144
54185W        W26445  20.757  20.614  13.595
54186W        W26446   2.806  19.802   2.857
54187W        W26447  42.516  18.465  12.152
54188W        W26448  29.500   0.521  13.968
54189W        W26449  42.521  13.579   3.105
54190W        W26450  44.857   8.771   1.929
54191W        W26451   7.431   3.476  12.503
54192W        W26452  36.425  33.110   4.083
54193W        W26453   9.576   6.243   2.672
54194W        W26454  18.472  28.927  14.859
54195W        W26455  28.441  33.201   4.058
54196W        W26456   1.747  30.769  13.187
54197W        W26457  28.154  41.322   3.224
54198W        W26458  30.622  32.984  14.583
54199W        W26459  33.525  28.922   4.052
54200W        W26460  25.242  20.043  12.620
54201W        W26461   2.961  13.000  10.477
54202W        W26462  19.877   1.178   3.175
54203W        W26463  17.845  12.191   2.269
54204W        W26464  36.491  17.118   1.004
54205W        W26465  24.698  40.890   2.337
54206W        W26466  43.969  20.787   0.270
54207W        W26467  34.294  10.262  11.616
54208W        W26468  27.704  14.075  13.124
54209W        W26469  37.528   7.251  12.902
54210W        W26470  44.209  43.684   1.737
54211W        W26471  22.730   5.667  10.621
54212W        W26472  25.163  15.528   0.880
54213W        W26473  33.910  33.030   0.239
54214W        W26474  10.757  29.698   4.017
54215W        W26475   4.143  21.345   3.594
54216W        W26476  33.537  14.182   4.833
54217W        W26477  37.370  39.868   1.709
54218W        W26478  10.385   3.571  10.629
54219W        W26479  35.407  16.575  11.280
54220W        W26480  38.772  42.403   4.670
54221W        W26481  16.970  24.676   3.361
54222W        W26482   3.945  29.414   2.731
54223W        W26483  29.534   0.011   3.587
54224W        W26484  41.800   8.943  14.890
54225W        W26485  25.577  12.279  14.498
54226W        W26486  25.013  43.816   0.914
54227W        W26487  27.807  29.017   2.284
54228W        W26488  10.765  23.199  10.840
54229W        W26489  10.370  30.503   1.959
54230W        W26490  37.584  22.508  11.234
54231W        W26491  17.094  41.196   3.301
54232W        W26492  12.873  31.421  13.337
54233W        W26493  16.332  28.339  10.432
54234W        W26494  21.108  29.453   3.716
54235W        W26495  43.971  26.107   0.466
54236W        W26496  24.888   7.922   3.756
54237W        W26497  10.122   8.637   0.233
54238W        W26498  29.107   7.272   4.892
54239W        W26499  13.117  25.485   2.168
54240W        W26500  23.637  24.294   2.340
54241W        W26501  34.697  38.301  12.945
54242W        W26502  25.868  12.782  12.033
54243W        W26503  26.658  31.122  14.910
54244W        W26504  39.769  40.763   4.512
54245W        W26505  44.985   4.181   3.149
54246W        W26506  31.925   5.134  11.374
54247W        W26507   9.653  31.389   3.228
54248W        W26508  38.474  41.482   4.076
54249W        W26509  37.562  44.943  14.700
54250W        W26510  10.302   7.845  11.158
54251W        W26511   8.734  34.600   4.801
54252W        W26512  43.947  30.622  13.249
54253W        W26513  44.673  35.982  13.547
54254W        W26514  19.681   5.753  11.801
54255W        W26515  35.840  35.901  11.019
54256W        W26516  40.495   4.272  14.009
54257W        W26517  44.824   5.872   0.301
54258W        W26518  11.545  18.656  12.013
54259W        W26519  13.301  38.622  12.865
54260W        W26520  12.790   7.123  12.019
54261W        W26521  41.804   9.210   4.863
54262W        W26522  32.134  36.967   4.211
54263W        W26523  36.028  25.549  13.242
54264W        W26524  32.363  13.076  10.802
54265W        W26525  38.023  42.526   3.155
54266W        W26526  20.558  15.825   3.589
54267W        W26527   3.655  11.357   0.419
54268W        W26528  36.405  29.647  14.825
54269W        W26529  28.248  18.753  12.305
54270W        W26530  30.431   1.396   2.804
54271W        W26531   4.299  20.167  11.126
54272W        W26532   0.282  37.457  12.850
54273W        W26533   7.433  23.989  14.493
54274W        W26534  24.549   4.429   4.140
54275W        W26535  35.766  42.287  12.163
54276W        W26536  15.235   6.167  11.499
54277W        W26537  11.319  37.622  14.210
54278W        W26538  14.094  21.462  10.934
54279W        W26539   9.870  10.831   3.190
54280W        W26540  32.886  21.963  11.144
54281W        W26541  31.409  34.129  11.149
54282W        W26542  37.279   6.568  14.849
54283W        W26543  37.551  11.284   2.753
54284W        W26544   2.887  12.297   0.710
54285W        W26545   5.260   3.484   3.159
54286W        W26546  41.146  40.615   1.855
54287W        W26547  11.734  29.206  13.092
54288W        W26548  35.979  42.753  13.516
54289W        W26549  36.502   5.668  14.878
54290W        W26550  42.359   3.657   0.645
54291W        W26551  21.545   4.972   1.279
54292W        W26552  27.795  30.211  12.310
54293W        W26553  42.399  20.501  10.878
54294W        W26554  36.844   0.395   3.805
54295W        W26555  39.971  39.298   1.015
54296W        W26556   5.284  41.460  13.013
54297W        W26557  23.873  35.464  11.178
54298W        W26558   1.702  41.536  14.034
54299W        W26559  15.250  36.901  14.085
54300W        W26560  36.473   0.040  14.274
54301W        W26561  27.042  27.926   1.776
54302W        W26562  12.765  34.485   2.452
54303W        W26563  11.846   6.495   3.331
54304W        W26564  17.780  35.385  10.567
54305W        W26565  25.651  35.989   1.266
54306W        W26566   8.197  28.421  10.291
54307W        W26567  32.683  21.185   4.194
54308W        W26568  25.883  31.093   2.103
54309W        W26569   4.990  33.897  11.104
54310W        W26570  18.911   2.230  11.520
54311W        W26571  10.612  31.377  13.939
54312W        W26572  14.538  27.462  13.241
54313W        W26573  38.880  42.540   3.729
54314W        W26574   4.865  35.877   1.640
54315W        W26575   4.267  39.135   0.365
54316W        W26576  24.219   1.518   4.706
54317W        W26577  23.259  33.084   2.847
54318W        W26578  34.621  41.535  12.493
54319W        W26579   8.343  41.168  13.454
54320W        W26580  27.777  33.610   4.723
54321W        W26581  38.822  26.039   2.264
54322W        W26582  33.637  17.647  13.382
54323W        W26583   7.634   9.561  11.591
54324W        W26584  39.383  25.066   3.617
54325W        W26585  41.562  30.606   1.706
54326W        W26586  36.619  36.966  12.664
54327W        W26587  17.666   4.732   1.852
54328W        W26588   4.785  38.996  11.006
54329W        W26589  38.138   2.400  13.518
54330W        W26590  21.260  35.939   0.753
54331W        W26591  43.335  34.508  11.910
54332W        W26592  23.728  10.755   0.823
54333W        W26593  34.442  12.837   1.336
54334W        W26594  34.181  23.045  12.773
54335W        W26595  24.688  15.420   1.367
54336W        W26596  22.786   4.802  13.802
54337W        W26597   4.799   0.973   0.331
54338W        W26598  13.679  42.466  10.614
54339W        W26599  42.023  24.942  11.998
54340W        W26600  15.409  23.755   3.348
54341W        W26601  19.223  44.136  14.691
54342W        W26602   2.934   8.256  12.940
54343W        W26603   2.660  36.922  11.591
54344W        W26604  24.704  35.845  11.206
54345W        W26605  28.430  22.976  14.901
54346W        W26606   9.746  43.602   2.630
54347W        W26607   1.755  40.336   4.230
54348W        W26608  40.831  42.516  11.537
54349W        W26609   2.628  36.311   4.121
54350W        W26610  22.694  31.145   4.008
54351W        W26611   1.384  19.526   1.428
54352W        W26612  21.083  25.586  10.869
54353W        W26613  40.455  15.857  12.491
54354W        W26614  33.640   2.953   2.543
54355W        W26615  41.294  29.199  13.050
54356W        W26616  15.549  36.712  11.282
54357W        W26617  20.518  44.515   0.254
54358W        W26618  24.706  17.686   4.370
54359W        W26619  38.365  13.135   2.754
54360W        W26620  23.049  13.640   4.248
54361W        W26621  11.382  36.157  10.428
54362W        W26622  13.136  42.917   0.438
54363W        W26623  29.103  10.849   0.804
54364W        W26624  19.620  25.461   1.377
54365W        W26625  41.002  22.307   0.304
54366W        W26626  22.811   3.285   4.184
54367W        W26627  36.972  27.584   2.139
54368W        W26628   6.460  24.089   2.217
54369W        W26629  12.435  42.882  14.847
54370W        W26630  24.018  32.075   0.549
54371W        W26631  42.558   9.663   0.692
54372W        W26632  18.580  32.106  12.944
54373W        W26633  40.057  37.854   4.749
54374W        W26634  19.857  19.414  10.753
54375W        W26635  35.229   1.347   2.683
54376W        W26636  19.190  26.693  10.155
54377W        W26637  21.172  20.586  12.834
54378W        W26638   4.639  39.351   4.702
54379W        W26639  23.516  33.220  12.476
54380W        W26640  27.592  32.141   9.666
54381W        W26641  36.920  24.499   2.098
54382W        W26642  12.341  25.202   3.310
54383W        W26643  32.351  16.228   1.376
54384W        W26644  15.819  27.244   0.265
54385W        W26645  36.538  15.247  10.980
54386W        W26646   7.237  39.891   3.721
54387W        W26647   2.208  28.804   4.426
54388W        W26648  12.521   6.206   2.703
54389W        W26649  21.372  38.094   3.355
54390W        W26650  23.234  26.086  10.597
54391W        W26651   3.689   7.772   3.218
54392W        W26652  38.412  37.039   4.829
54393W        W26653  33.857  38.824   0.868
54394W        W26654  30.092  29.335  13.390
54395W        W26655  23.941  13.715   0.288
54396W        W26656   7.344  42.388  13.982
54397W        W26657  30.544   2.409  12.387
54398W        W26658  20.070  14.013  13.953
54399W        W26659   1.414  39.433  14.291
54400W        W26660  33.491  19.959   2.223
54401W        W26661  12.828  16.842  14.546
54402W        W26662  33.021  14.487  12.274
54403W        W26663  15.213  41.435   2.925
54404W        W26664  11.384  36.925  10.523
54405W        W26665  37.554  27.410  10.969
54406W        W26666  23.147  13.862  13.405
54407W        W26667  43.376   2.791  13.783
54408W        W26668  43.415   4.573  10.627
54409W        W26669   7.448  32.437  11.619
54410W        W26670  16.279   7.231   4.596
54411W        W26671  44.222  37.223   1.309
54412W        W26672  37.119  29.837   3.636
54413W        W26673  31.504  40.865   0.843
54414W        W26674  42.644  35.538  12.640
54415W        W26675  39.451   4.733   4.616
54416W        W26676  17.281   5.140   0.009
54417W        W26677   2.856  43.040  11.969
54418W        W26678  19.580   1.797  12.036
54419W        W26679  22.221   8.384   3.941
54420W        W26680  22.478  19.576   3.311
54421W        W26681  18.867  26.928  14.797
54422W        W26682  11.576   7.145  12.201
54423W        W26683  36.969  43.905  11.144
54424W        W26684  18.645  38.916  12.052
54425W        W26685  41.386  37.309   1.839
54426W        W26686  28.172  19.536   1.324
54427W        W26687  31.639   0.401   4.419
54428W        W26688  16.210  28.033   1.859
54429W        W26689  11.920  12.785  11.175
54430W        W26690   2.216   9.379   2.733
54431W        W26691  35.786   1.896   4.535
54432W        W26692  37.166  20.631   0.913
54433W        W26693  36.549  36.366   1.973
54434W        W26694   6.709   5.709   4.975
54435W        W26695  28.863  43.368   0.800
54436W        W26696  27.613  37.903  14.523
54437W        W26697  15.412  38.934  11.460
54438W        W26698  13.844  32.506   0.200
54439W        W26699   3.974  27.163   1.406
54440W        W26700   2.270  26.725  13.906
54441W        W26701   3.451  30.056   1.525
54442W        W26702  17.511  42.872  13.433
54443W        W26703  33.581  10.497   0.879
54444W        W26704  15.622   8.461   3.585
54445W        W26705  39.496  39.049   4.589
54446W        W26706  23.604   3.262  12.762
54447W        W26707  42.055   5.794  14.224
54448W        W26708  33.605  23.453   0.046
54449W        W26709  16.236   0.707   2.834
54450W        W26710  17.360   7.305   4.589
54451W        W26711  29.581  15.758  11.591
54452W        W26712  32.449   9.281  14.028
54453W        W26713  43.530  44.853  10.378
54454W        W26714   8.234   1.833   4.571
54455W        W26715   5.577  10.180   4.586
54456W        W26716  17.668  44.471   4.627
54457W        W26717  43.259   8.181   2.939
54458W        W26718  16.297   3.394  11.240
54459W        W26719  34.795   0.740   0.911
54460W        W26720  24.519  21.055  13.455
54461W        W26721  39.083   3.874   1.639
54462W        W26722  34.499  28.230   0.019
54463W        W26723  14.203  27.226   0.775
54464W        W26724  44.434   0.788   2.992
54465W        W26725  26.173  23.200  11.565
54466W        W26726  37.130   8.422  13.425
54467W        W26727  14.827  14.890   0.442
54468W        W26728  37.195  13.788  14.407
54469W        W26729  39.644  37.547   4.724
54470W        W26730  17.627  22.870   2.613
54471W        W26731  14.697  34.945  13.033
54472W        W26732  23.951  22.638  13.535
54473W        W26733  40.849  39.804   0.728
54474W        W26734   7.354  18.182   4.715
54475W        W26735   2.245  42.189   1.922
54476W        W26736   6.343  22.498   1.240
54477W        W26737  22.602   7.031  10.630
54478W        W26738  13.571  21.172  14.744
54479W        W26739  38.713  10.675   5.399
54480W        W26740  17.262   7.870   1.885
54481W        W26741  33.821  11.688  12.022
54482W        W26742  23.106  26.595  14.999
54483W        W26743  27.171  39.934  12.624
54484W        W26744   5.245  35.320   1.502
54485W        W26745  18.090  10.893  13.858
54486W        W26746   6.252  21.470   0.084
54487W        W26747  15.267  15.926  12.875
54488W        W26748  27.262   9.964  13.495
54489W        W26749  41.491  23.543  11.913
54490W        W26750  27.219  14.735   1.936
54491W        W26751  26.163  26.979  14.334
54492W        W26752  26.964  39.090   2.357
54493W        W26753  20.301  41.026  14.336
54494W        W26754  30.757  29.073   4.503
54495W        W26755  17.040  36.887  14.052
54496W        W26756  41.505  38.846  10.221
54497W        W26757  20.095  42.961   2.257
54498W        W26758  26.509   9.711  11.460
54499W        W26759  24.941  31.002   3.684
54500W        W26760   8.281  28.129   0.538
54501W        W26761  23.051  38.045   4.221
54502W        W26762  24.187  33.927   2.926
54503W        W26763  21.152  27.937   4.333
54504W        W26764  27.665  41.728   2.759
54505W        W26765   6.604   4.451  13.912
54506W        W26766   1.179  34.363  11.122
54507W        W26767  26.155  10.255   2.226
54508W        W26768  34.100  25.363   2.343
54509W        W26769  25.791  28.895  10.354
54510W        W26770  19.011  32.629  13.991
54511W        W26771  26.021  15.070  12.953
54512W        W26772  33.388  44.545   3.430
54513W        W26773   8.758  11.623   4.264
54514W        W26774  32.128   8.189  11.463
54515W        W26775  31.382  44.413   2.683
54516W        W26776   6.846  40.495   4.547
54517W        W26777  38.976  30.085  14.692
54518W        W26778  35.401  26.631  12.093
54519W        W26779  26.452  33.912   3.155
54520W        W26780  41.023  32.044   1.986
54521W        W26781  14.062   9.292   3.666
54522W        W26782  16.695   1.227   2.372
54523W        W26783  42.604   3.949   3.332
54524W        W26784   0.517  19.108   0.414
54525W        W26785   7.289  16.932  14.915
54526W        W26786  10.155  42.697   4.999
54527W        W26787   2.022  33.939   2.207
54528W        W26788  17.249  20.640   3.839
54529W        W26789  28.037   9.418  14.018
54530W        W26790  15.378  18.740   0.772
54531W        W26791  37.730   2.263  14.552
54532W        W26792  33.390   4.313   0.456
54533W        W26793  39.240  18.808  13.976
54534W        W26794  27.927  35.220   3.250
54535W        W26795   6.462  28.011   3.757
54536W        W26796   4.543   5.498   1.953
54537W        W26797  21.350  22.459   4.120
54538W        W26798  35.104  30.362   3.671
54539W        W26799   6.182  28.902  11.090
54540W        W26800   4.397  29.150  12.718
54541W        W26801  31.436  21.665   2.231
54542W        W26802   1.592  14.913  12.449
54543W        W26803  35.666  35.256  12.960
54544W        W26804  38.605  18.374  13.054
54545W        W26805   5.940  12.511  14.434
54546W        W26806  31.398  13.544  11.524
54547W        W26807  14.764  41.985  12.471
54548W        W26808  27.397  24.003  14.972
54549W        W26809  13.394  33.734   4.056
54550W        W26810   8.599  25.702  12.083
54551W        W26811  44.995  12.691   0.760
54552W        W26812  43.541  30.631  12.354
54553W        W26813  26.759  37.244   2.888
54554W        W26814  12.564  27.948   2.950
54555W        W26815  34.535  30.943   1.820
54556W        W26816  11.214  36.398  14.308
54557W        W26817  27.401  32.412   1.712
54558W        W26818  37.883  29.513  13.446
54559W        W26819  30.577  12.105   3.132
54560W        W26820  22.434   5.313   2.873
54561W        W26821  19.784   7.515  11.554
54562W        W26822  18.518  21.504  14.439
54563W        W26823  27.002  24.797   2.772
54564W        W26824  18.516  25.007  13.431
54565W        W26825  40.756  31.254  11.139
54566W        W26826  18.135  31.897   0.499
54567W        W26827  21.049   6.242  11.116
54568W        W26828   0.229  25.625   0.873
54569W        W26829  37.851   8.815  11.598
54570W        W26830  25.470  24.032   2.329
54571W        W26831  20.118  23.704   3.738
54572W        W26832  10.899  23.066  13.849
54573W        W26833  39.745  36.043  13.325
54574W        W26834  22.827  34.258   0.398
54575W        W26835   8.211  33.637  12.480
54576W        W26836  29.987   5.728  12.112
54577W        W26837  41.408  40.410  13.827
54578W        W26838  40.426  18.505  13.384
54579W        W26839  15.873  25.710   4.184
54580W        W26840   0.729   6.664   1.924
54581W        W26841  39.836  43.866  11.981
54582W        W26842  42.203  19.429  12.437
54583W        W26843  25.533   2.375  14.083
54584W        W26844  36.815   0.168  14.885
54585W        W26845  31.150  41.761  13.494
54586W        W26846  19.167  22.556  12.507
54587W        W26847  38.069   2.673   0.748
54588W        W26848  38.619  16.588  14.455
54589W        W26849  22.321   7.632  14.344
54590W        W26850  24.155  24.621  12.072
54591W        W26851   0.313  10.210   1.392
54592W        W26852  23.266  31.157  13.925
54593W        W26853  33.502  36.566  11.205
54594W        W26854  26.394  40.849  14.941
54595W        W26855  17.255  23.552  14.326
54596W        W26856  21.454   0.373   3.250
54597W        W26857  16.545   7.113   1.771
54598W        W26858  21.647  25.612   1.833
54599W        W26859  38.797  43.972  11.948
54600W        W26860  37.943  10.760   3.548
54601W        W26861  26.497  35.591   2.899
54602W        W26862  24.029  33.496  11.099
54603W        W26863  25.802   8.462  11.962
54604W        W26864  12.378  24.967   0.418
54605W        W26865  12.822  30.019  12.042
54606W        W26866  38.784  26.951  13.547
54607W        W26867  34.024  30.619   4.216
54608W        W26868  33.482  24.476   2.815
54609W        W26869   9.145  40.822  11.051
54610W        W26870  12.863  41.753   2.833
54611W        W26871   3.495  23.591   2.675
54612W        W26872  43.914  30.601  13.923
54613W        W26873  23.132  29.939  10.602
54614W        W26874  42.455  43.862   2.451
54615W        W26875   6.359  30.398  12.973
54616W        W26876  26.470  33.085  13.888
54617W        W26877  11.561  44.743  12.284
54618W        W26878  15.686  32.867   1.532
54619W        W26879  29.613  36.934   2.351
54620W        W26880  14.366   8.603  12.397
54621W        W26881  27.493  44.518   2.399
54622W        W26882  41.077  20.267   3.733
54623W        W26883  15.341  12.666  12.945
54624W        W26884  32.878   0.975  11.101
54625W        W26885  16.059   9.130  13.044
54626W        W26886   9.844  38.574   1.034
54627W        W26887  39.914  38.823   2.387
54628W        W26888  10.901  31.921   2.821
54629W        W26889  29.488  42.846   0.159
54630W        W26890   0.902  14.102  13.845
54631W        W26891  10.900  17.791   4.649
54632W        W26892  25.649  11.763   0.918
54633W        W26893  14.058  19.137  10.682
54634W        W26894  12.189  31.352  11.127
54635W        W26895  31.395   8.602   4.157
54636W        W26896  32.658  21.993   3.659
54637W        W26897  22.519  17.853  14.822
54638W        W26898   6.674  20.620  12.517
54639W        W26899  39.862  23.526  10.511
54640W        W26900  34.118   9.633   0.793
54641W        W26901   7.749  19.158   2.763
54642W        W26902   9.288  20.692   4.084
54643W        W26903  43.441  13.356  14.420
54644W        W26904  11.699  34.938  13.491
54645W        W26905  14.627  10.757   3.828
54646W        W26906   7.364  16.618  13.990
54647W        W26907   6.353  23.414   3.091
54648W        W26908  32.757   8.926   4.196
54649W        W26909  20.291  22.526  10.206
54650W        W26910   9.841  10.028   0.526
54651W        W26911  20.080  10.112   1.952
54652W        W26912  26.962  11.277  10.365
54653W        W26913  18.765  17.304  12.732
54654W        W26914  28.954   3.243  12.203
54655W        W26915  10.282  27.721   2.839
54656W        W26916  42.369  18.116  13.044
54657W        W26917  41.005  17.233   0.446
54658W        W26918  36.374   6.337   2.349
54659W        W26919  42.531  21.134  14.927
54660W        W26920   1.198   3.849   1.397
54661W        W26921  43.377  43.454   0.268
54662W        W26922  31.174  31.877  13.952
54663W        W26923  15.155  44.882  14.616
54664W        W26924  15.693  29.206   3.765
54665W        W26925  15.260  34.687  14.594
54666W        W26926  30.555  27.476  10.707
54667W        W26927  37.942  37.798   4.882
54668W        W26928   9.361  34.485  10.671
54669W        W26929  19.636  36.916   4.402
54670W        W26930  40.556   2.297  11.527
54671W        W26931  19.509   8.274   5.086
54672W        W26932  34.783  18.335   0.299
54673W        W26933  32.694  10.706   4.270
54674W        W26934  24.047   8.463  14.509
54675W        W26935  25.220  41.933  13.010
54676W        W26936  44.495  15.340  14.404
54677W        W26937  27.525  42.946  11.979
54678W        W26938  31.455  32.924   1.905
54679W        W26939  22.551  19.754  10.497
54680W        W26940  31.460   5.623   1.373
54681W        W26941  22.104  26.656   3.577
54682W        W26942  31.389   9.226  13.033
54683W        W26943   6.337  39.254  11.446
54684W        W26944   6.579  30.329   4.986
54685W        W26945  28.113   8.852  14.304
54686W        W26946  44.421  20.258  12.496
54687W        W26947  40.525   9.916   2.392
54688W        W26948  40.764  15.723   1.381
54689W        W26949  24.461  10.663  11.132
54690W        W26950  22.900  11.509  13.528
54691W        W26951  29.876   9.179  13.123
54692W        W26952  13.778  16.570   2.935
54693W        W26953   9.218  43.051   1.132
54694W        W26954  22.614  34.112  10.790
54695W        W26955  36.909  21.173  13.371
54696W        W26956  18.871  26.220  14.305
54697W        W26957  43.732   0.906   3.691
54698W        W26958  32.101  19.629  13.280
54699W        W26959  17.584   9.294  13.052
54700W        W26960   4.475   8.844   4.106
54701W        W26961  16.298  35.550  14.480
54702W        W26962  30.645  34.190  13.911
54703W        W26963  43.466  44.236   3.797
54704W        W26964  31.625  11.321  14.673
54705W        W26965  18.420   9.433   4.552
54706W        W26966  43.362  44.408  10.571
54707W        W26967  40.206  21.304   4.611
54708W        W26968  43.021  35.756  11.088
54709W        W26969  21.584  40.462   1.482
54710W        W26970   3.002   4.889  11.974
54711W        W26971  28.096  18.623  13.288
54712W        W26972  32.308  39.924   1.912
54713W        W26973  38.752  10.507  11.925
54714W        W26974   5.287  29.199   0.357
54715W        W26975  23.174  37.431  11.601
54716W        W26976   2.415  22.673   4.816
54717W        W26977   2.379  24.595  11.810
54718W        W26978  42.468  41.813  11.457
54719W        W26979  12.266   9.100   3.168
54720W        W26980  35.557  34.138   1.306
54721W        W26981  43.012  29.483   2.842
54722W        W26982   5.795  21.520  13.416
54723W        W26983  26.462  25.927  12.814
54724W        W26984  28.556  14.223   3.823
54725W        W26985  40.009  29.531   2.766
54726W        W26986  21.247   8.704  11.173
54727W        W26987  31.036  44.251   1.237
54728W        W26988  20.687  39.242  12.037
54729W        W26989  19.649  39.799  14.719
54730W        W26990  28.004  19.217   1.752
54731W        W26991  29.210   3.797   2.929
54732W        W26992  44.705  29.686  10.613
54733W        W26993  28.521  23.989   1.256
54734W        W26994   0.882   6.917   2.851
54735W        W26995  19.612  12.663   2.908
54736W        W26996  25.442   1.254  11.991
54737W        W26997  12.773   1.539  13.498
54738W        W26998  29.176   5.091   3.301
54739W        W26999  29.673  24.204   4.442
54740W        W27000  16.187  20.355   2.812
54741W        W27001  44.869  23.280  13.481
54742W        W27002  26.134  10.640   1.687
54743W        W27003  11.664  35.530   3.349
54744W        W27004  44.715  38.864   1.773
54745W        W27005  25.058   1.440  12.975
54746W        W27006   5.307   8.633  12.693
54747W        W27007  23.822  16.618  14.535
54748W        W27008  12.828  27.947  13.322
54749W        W27009   6.837  24.143   3.873
54750W        W27010  44.664   6.070  14.378
54751W        W27011  13.830  34.001   2.918
54752W        W27012  20.251   3.862  14.859
54753W        W27013   6.105   5.959   4.072
54754W        W27014  23.152  36.405   1.010
54755W        W27015  38.816  43.041  13.155
54756W        W27016  33.175  28.849  12.263
54757W        W27017  10.619  40.746   2.342
54758W        W27018  42.731  12.093   1.180
54759W        W27019   3.832   9.182   4.563
54760W        W27020   2.859   8.751   1.427
54761W        W27021  25.540  22.795   0.623
54762W        W27022  41.979  36.469   3.359
54763W        W27023  14.706   5.724  13.459
54764W        W27024  17.548  28.864   3.430
54765W        W27025  17.614  14.956  12.435
54766W        W27026   8.671  40.032   4.533
54767W        W27027  22.502  19.609  13.608
54768W        W27028  13.389  15.149  13.416
54769W        W27029  25.611   4.031   0.507
54770W        W27030   4.048  35.993   0.846
54771W        W27031  16.188  38.380  11.004
54772W        W27032  27.438  24.976   3.594
54773W        W27033   0.813  33.373  11.699
54774W        W27034  15.913  28.551  11.006
54775W        W27035  35.476  44.264   4.274
54776W        W27036  37.402   6.118  13.878
54777W        W27037  13.927  41.991  12.124
54778W        W27038  33.407   0.124   2.205
54779W        W27039  31.467  24.486  12.884
54780W        W27040  16.113   6.346   2.927
54781W        W27041  13.734  27.259   0.027
54782W        W27042  13.678  13.267   2.740
54783W        W27043  10.753  34.607  11.818
54784W        W27044  18.602  18.050  14.441
54785W        W27045   0.471   3.784   3.664
54786W        W27046  27.992  11.167  10.714
54787W        W27047  37.345  44.824  11.956
54788W        W27048   1.390  25.398  12.865
54789W        W27049   6.380  23.547  10.717
54790W        W27050  38.348  36.810   2.336
54791W        W27051  40.369   8.756   1.033
54792W        W27052  18.891  19.163   3.012
54793W        W27053  27.453  20.653  13.884
54794W        W27054  19.673   9.732  13.789
54795W        W27055   9.353  38.562  14.785
54796W        W27056  38.971  24.786   3.715
54797W        W27057  16.540  18.998   4.204
54798W        W27058   8.391  24.935   0.897
54799W        W27059  22.248  36.804  12.985
54800W        W27060  18.112  39.267   0.360
54801W        W27061  28.673  13.201   0.268
54802W        W27062  36.320  43.038   2.198
54803W        W27063  15.488  11.997   4.965
54804W        W27064  15.664  17.187  10.634
54805W        W27065  29.648   9.327  11.995
54806W        W27066  34.264  30.484   2.393
54807W        W27067   5.101  41.339   0.672
54808W        W27068   6.651  21.966   4.685
54809W        W27069  16.195  10.337   1.830
54810W        W27070  36.432  42.071  14.748
54811W        W27071  19.529  21.128  14.834
54812W        W27072  11.792   2.953  14.333
54813W        W27073  31.546  26.014  12.072
54814W        W27074  33.067   0.058  12.207
54815W        W27075  29.117  40.886  10.721
54816W        W27076  26.280  19.270   2.846
54817W        W27077  44.785   2.696   1.350
54818W        W27078   5.821   9.131  10.940
54819W        W27079   4.350  29.674  13.591
54820W        W27080   4.697   4.476  14.762
54821W        W27081  19.583  19.828  14.627
54822W        W27082  34.389  44.638  10.397
54823W        W27083   0.261   9.239   1.516
54824W        W27084  27.676  10.764   3.381
54825W        W27085  17.703  44.897  11.719
54826W        W27086  43.950  44.919  12.899
54827W        W27087  12.696  24.136  14.994
54828W        W27088  37.019  18.748   2.772
54829W        W27089   8.096   7.877  11.208
54830W        W27090  43.340  39.984   3.186
54831W        W27091  29.354   5.621   1.986
54832W        W27092  36.805  42.500   2.022
54833W        W27093   5.477  37.099  12.127
54834W        W27094  14.797  14.281  11.980
54835W        W27095  36.201  20.530   3.246
54836W        W27096  44.958   7.936   2.821
54837W        W27097  34.439  29.448  14.347
54838W        W27098   4.871  43.468  10.552
54839W        W27099  44.464   4.800  13.065
54840W        W27100  16.720   4.797  13.184
54841W        W27101  41.279  40.789  14.608
54842W        W27102   2.394   3.264   2.718
54843W        W27103   4.720  40.915  14.792
54844W        W27104   4.856  16.430  14.205
54845W        W27105  32.277  40.423   1.771
54846W        W27106  13.911  28.850   3.705
54847W        W27107  35.510   2.201  13.515
54848W        W27108  10.839  35.529   0.068
54849W        W27109  42.728  26.113  13.004
54850W        W27110   1.770   6.041   1.680
54851W        W27111  22.933  41.297  12.011
54852W        W27112  14.096  44.677   4.586
54853W        W27113  44.450  31.016  12.657
54854W        W27114  13.078  35.913   2.080
54855W        W27115  28.095  34.124   1.779
54856W        W27116  30.937  10.873  12.025
54857W        W27117   8.454  41.756   2.796
54858W        W27118  35.512  31.536   2.949
54859W        W27119  12.315  29.402   1.275
54860W        W27120  43.361  20.463   1.686
54861W        W27121   1.477   4.850  14.788
54862W        W27122  38.345  26.176   2.473
54863W        W27123  24.456  22.161   4.566
54864W        W27124   5.768   1.814  13.352
54865W        W27125  15.864   6.438   2.474
54866W        W27126   3.388  10.084   2.361
54867W        W27127  13.072  26.244  13.828
54868W        W27128  32.859  11.611  13.065
54869W        W27129   9.090  35.148  14.509
54870W        W27130  42.354  18.564   4.849
54871W        W27131  37.173  31.919  11.187
54872W        W27132   7.430  31.264   2.796
54873W        W27133  23.462  19.557   3.141
54874W        W27134  33.967  33.008   4.235
54875W        W27135  26.750  29.126   3.945
54876W        W27136  30.446   3.717   1.247
54877W        W27137  13.292  42.523  13.801
54878W        W27138  19.610  30.024  13.462
54879W        W27139   0.887  33.297   2.376
54880W        W27140  40.469  16.421   2.672
54881W        W27141   0.553  39.299  10.027
54882W        W27142  27.064  44.813   0.510
54883W        W27143  42.306  26.758   4.297
54884W        W27144  12.784  17.117  13.256
54885W        W27145  42.562  34.140  12.030
54886W        W27146  39.570  14.996   2.274
54887W        W27147   0.737  24.171  11.689
54888W        W27148   1.476  44.475   4.191
54889W        W27149  24.986  20.757   3.659
54890W        W27150  32.481  22.101  10.839
54891W        W27151  23.773  27.962   3.284
54892W        W27152  41.419   5.693   1.365
54893W        W27153  29.516  23.708  11.289
54894W        W27154  13.679  18.926   0.532
54895W        W27155  16.663  42.899   1.391
54896W        W27156  24.759  36.142   4.648
54897W        W27157  15.556  30.476  14.829
54898W        W27158  30.032  19.116   1.906
54899W        W27159  10.628  24.543   2.805
54900W        W27160  40.267  32.675  11.783
54901W        W27161   6.240  20.801  14.298
54902W        W27162  10.071  38.917   4.496
54903W        W27163  26.860  24.283  14.959
54904W        W27164   4.338   8.415   3.318
54905W        W27165  23.645  33.106  14.935
54906W        W27166   9.823  12.214   4.557
54907W        W27167  38.140   5.934   3.423
54908W        W27168   1.972   6.689  12.117
54909W        W27169  21.552  23.159  14.392
54910W        W27170   8.035  13.440   1.222
54911W        W27171  40.341  27.824   4.638
54912W        W27172   6.720  13.532  14.053
54913W        W27173  26.071  25.456  13.592
54914W        W27174  28.044  34.473  13.123
54915W        W27175  38.025  42.862   0.999
54916W        W27176   9.266  25.722   4.428
54917W        W27177  24.637   9.899  12.525
54918W        W27178   8.767  30.963   2.208
54919W        W27179  28.133  44.715   1.851
54920W        W27180  43.241   1.844  12.409
54921W        W27181  33.751  37.307  10.839
54922W        W27182  43.095  22.425  11.047
54923W        W27183  39.557  12.784   2.295
54924W        W27184  17.151  21.690   4.223
54925W        W27185  17.970  26.589   3.611
54926W        W27186  42.778  42.232   4.248
54927W        W27187  34.827   2.812   4.176
54928W        W27188  16.983   0.882   3.247
54929W        W27189   6.001  10.068  12.096
54930W        W27190   8.760  21.088  10.120
54931W        W27191   2.972  26.476   3.139
54932W        W27192  11.450  31.358   2.398
54933W        W27193  20.020  20.610  12.876
54934W        W27194  40.850  28.782   3.692
54935W        W27195  15.951  17.053   4.031
54936W        W27196  24.615  20.722   4.001
54937W        W27197  39.257  19.100   1.470
54938W        W27198  44.676  33.995  14.520
54939W        W27199  20.122  27.758   2.419
54940W        W27200   2.291  43.060   0.987
54941W        W27201  15.133  16.549   2.673
54942W        W27202  24.486  10.328   0.390
54943W        W27203   5.333   0.083  11.937
54944W        W27204  12.923   4.663   0.407
54945W        W27205  44.260  37.259  12.952
54946W        W27206  21.210  21.273  14.000
54947W        W27207  26.444  13.802   2.355
54948W        W27208  16.452  36.993  12.024
54949W        W27209   4.451  44.450   2.663
54950W        W27210  32.472  40.981  14.219
54951W        W27211  11.914  12.883  12.219
54952W        W27212   8.700  44.691   1.317
54953W        W27213  21.991  21.407  11.881
54954W        W27214  34.049  35.961  13.376
54955W        W27215  43.871  12.478  14.766
54956W        W27216  33.485  21.224   2.217
54957W        W27217  37.367  28.160   1.266
54958W        W27218  11.444   0.768   0.778
54959W        W27219  26.203   7.734  12.794
54960W        W27220   4.242  37.597  14.383
54961W        W27221   3.328   7.792   4.685
54962W        W27222   9.444  42.940   3.710
54963W        W27223  11.254  28.401   0.955
54964W        W27224  40.752   9.852   3.032
54965W        W27225   2.993  27.125   0.301
54966W        W27226   4.003  37.512   1.426
54967W        W27227  13.550  23.835  11.660
54968W        W27228  24.023  30.650   3.572
54969W        W27229  23.927  21.187  11.520
54970W        W27230  15.283   5.492  10.697
54971W        W27231  24.399  38.427  14.219
54972W        W27232  36.028  25.571   3.127
54973W        W27233   8.835  30.136   1.813
54974W        W27234  43.913  23.537   3.847
54975W        W27235  20.191  15.020  12.014
54976W        W27236  40.791  11.703   0.543
54977W        W27237   7.506  31.081   4.071
54978W        W27238  30.168  16.913  12.390
54979W        W27239  20.066  38.144   0.901
54980W        W27240  35.129   4.049  12.549
54981W        W27241  11.712   7.185  11.065
54982W        W27242   4.683  11.719  14.849
54983W        W27243  30.116  36.777  14.961
54984W        W27244  19.010  20.529  11.974
54985W        W27245  41.889  37.027   1.784
54986W        W27246  21.248   4.927  11.283
54987W        W27247   7.750  27.963  13.358
54988W        W27248   6.167  34.493  11.582
54989W        W27249  16.485  41.019   3.637
54990W        W27250   1.553  20.759  14.791
54991W        W27251  37.394   7.075  14.868
54992W        W27252   7.306  36.768  13.551
54993W        W27253  31.913  36.616   1.416
54994W        W27254  30.053   4.266   2.597
54995W        W27255  43.681  29.371  12.792
54996W        W27256  11.231  11.897  10.652
54997W        W27257  13.672  38.965   3.904
54998W        W27258  14.365  11.680  14.184
54999W        W27259  38.616  40.992  14.945
55000W        W27260   1.323  38.539   0.360
55001W        W27261  13.232  17.341  13.405
55002W        W27262  44.383  34.164   4.917
55003W        W27263  20.008  17.090  10.819
55004W        W27264  35.129  10.685  11.515
55005W        W27265  10.162  13.915   3.680
55006W        W27266   4.405  13.795   1.252
55007W        W27267  24.642  15.263  10.556
55008W        W27268  24.998  12.225   2.901
55009W        W27269  13.278  33.584   0.721
55010W        W27270  11.604  11.626  14.804
55011W        W27271   6.655  37.033   3.275
55012W        W27272  34.002  20.485  12.501
55013W        W27273   3.858   5.775  10.733
55014W        W27274  20.753  22.666  13.911
55015W        W27275  41.629  20.616  11.213
55016W        W27276  28.991  20.978   3.706
55017W        W27277  19.101   8.554   1.714
55018W        W27278  27.217  18.227  12.369
55019W        W27279  18.744  32.427   3.598
55020W        W27280  11.865  26.968   4.580
55021W        W27281  22.113  14.771   4.607
55022W        W27282  20.902  28.037  12.557
55023W        W27283  23.321  36.399  11.832
55024W        W27284  40.108   7.227  11.098
55025W        W27285  33.974  43.836   4.807
55026W        W27286  21.019  31.416   1.411
55027W        W27287  25.930  10.664  13.293
55028W        W27288  33.400  31.362   4.524
55029W        W27289  40.279  30.316   4.195
55030W        W27290  14.116  22.022  12.356
55031W        W27291  42.003  26.164  10.575
55032W        W27292   2.004  25.764  14.412
55033W        W27293  22.020  41.296  11.491
55034W        W27294  25.391  40.931   4.667
55035W        W27295  19.290   4.951   0.759
55036W        W27296  13.149  36.067  11.088
55037W        W27297  20.213  27.110  10.638
55038W        W27298  42.840  14.655  14.370
55039W        W27299  22.799  40.582   4.956
55040W        W27300   8.168  11.913   2.252
55041W        W27301  14.601  13.556  10.828
55042W        W27302  13.907  24.617   2.905
55043W        W27303  36.474   4.722   1.313
55044W        W27304   9.274   9.380  11.055
55045W        W27305  37.844  37.598   1.080
55046W        W27306  32.950  24.195   0.703
55047W        W27307  25.467   2.741   0.472
55048W        W27308   7.862  29.904  12.046
55049W        W27309  18.133  44.317   2.896
55050W        W27310   5.723  17.085   1.322
55051W        W27311  20.444  33.582   2.713
55052W        W27312   6.162  25.604   3.684
55053W        W27313  42.512  27.903   2.310
55054W        W27314  12.403   1.021  13.952
55055W        W27315  26.973  20.457  10.642
55056W        W27316   0.292  30.399   0.095
55057W        W27317  25.307  22.090  13.410
55058W        W27318  11.238  26.220   3.624
55059W        W27319  10.273   9.216   2.448
55060W        W27320  37.889  41.810  11.182
55061W        W27321  37.269  11.666   3.071
55062W        W27322  31.619  34.483  13.889
55063W        W27323  39.807   9.795   0.570
55064W        W27324  28.873  19.055  13.443
55065W        W27325  24.939  39.956   1.791
55066W        W27326  13.216  29.693   3.413
55067W        W27327   0.895  27.178  12.877
55068W        W27328   7.215  36.925  14.036
55069W        W27329  33.816  19.704  10.481
55070W        W27330  39.374  23.380  10.687
55071W        W27331  28.420  22.046   3.322
55072W        W27332  38.399  16.806   1.087
55073W        W27333  21.999  11.317   2.250
55074W        W27334  26.924  19.082  11.760
55075W        W27335  39.273  15.614   0.260
55076W        W27336  25.199  44.740  13.471
55077W        W27337  21.265   5.799  12.292
55078W        W27338  26.665  22.245  14.384
55079W        W27339  44.725  44.724  10.631
55080W        W27340  17.324  33.888  10.514
55081W        W27341  20.988  21.302  11.587
55082W        W27342   2.449  17.867   3.252
55083W        W27343  18.941  18.575   0.514
55084W        W27344  37.819  43.393   3.100
55085W        W27345  31.007  24.369   4.624
55086W        W27346  21.255  15.805  11.113
55087W        W27347  26.626   1.943   0.826
55088W        W27348  15.237  44.753   0.495
55089W        W27349  22.003  13.789   4.187
55090W        W27350   8.957  14.609   2.723
55091W        W27351  23.571  42.407  12.070
55092W        W27352  35.321   1.443  10.456
55093W        W27353   7.366   7.235  13.632
55094W        W27354   2.532  28.038  10.229
55095W        W27355  27.501  14.748   4.340
55096W        W27356  10.165  26.277  13.336
55097W        W27357  29.583  22.388   0.642
55098W        W27358  34.884  40.666   1.454
55099W        W27359  43.898   9.172   4.882
55100W        W27360  39.729   9.316  10.628
55101W        W27361  28.457   6.953   3.420
55102W        W27362   6.792   0.027  12.385
55103W        W27363  18.521  38.516   3.894
55104W        W27364  10.074   6.140   2.010
55105W        W27365  15.845  38.354  13.074
55106W        W27366  14.099  32.983   0.207
55107W        W27367  31.685   6.946   1.700
55108W        W27368  32.950  33.390   1.737
55109W        W27369  29.015  26.140  14.780
55110W        W27370  32.507  36.104  10.476
55111W        W27371  27.637  40.477   3.282
55112W        W27372  31.152  35.054  12.072
55113W        W27373  30.162   1.264   4.578
55114W        W27374   9.736  32.221  10.162
55115W        W27375  29.006   8.517   2.521
55116W        W27376  14.532  42.534  14.697
55117W        W27377  13.261   5.786   4.615
55118W        W27378  37.826  16.781  13.484
55119W        W27379  24.458   8.599  12.926
55120W        W27380   5.163  17.805   1.635
55121W        W27381  16.082  12.051  14.305
55122W        W27382   0.826   6.817  13.099
55123W        W27383  11.210  30.623   4.446
55124W        W27384   8.518   7.652  10.934
55125W        W27385  40.559  23.781  14.925
55126W        W27386  17.905  42.864  14.417
55127W        W27387  35.821  33.466   2.995
55128W        W27388  12.177  42.792   0.304
55129W        W27389  27.070   9.379  14.130
55130W        W27390  13.739   8.218  10.668
55131W        W27391   0.398  12.393   0.541
55132W        W27392  19.010   0.442   0.303
55133W        W27393  28.235   2.699  12.109
55134W        W27394   1.759   2.932   1.112
55135W        W27395  42.554  36.067   0.238
55136W        W27396   2.002  15.340   2.387
55137W        W27397  17.276  39.930  10.710
55138W        W27398  10.269  17.608  13.525
55139W        W27399  27.320  40.604  11.893
55140W        W27400  19.439  31.065   4.138
55141W        W27401  35.137  37.400   4.548
55142W        W27402  25.559  10.354  14.750
55143W        W27403  16.187  24.777  12.071
55144W        W27404  10.287  20.217   4.579
55145W        W27405  44.281  11.967   0.361
55146W        W27406  35.452  35.598  11.914
55147W        W27407  11.131  24.968  11.945
55148W        W27408  19.992  12.814   0.019
55149W        W27409  26.052   1.801   4.217
55150W        W27410  38.427  11.377   1.441
55151W        W27411  30.955  32.837   4.359
55152W        W27412  36.411  44.175  14.832
55153W        W27413  39.861  39.325  11.916
55154W        W27414  38.463   6.917  11.654
55155W        W27415  18.194  22.072   3.612
55156W        W27416  16.949  17.174  12.036
55157W        W27417  35.384  30.465  12.658
55158W        W27418  19.720  24.993  12.914
55159W        W27419  41.036   4.657  13.993
55160W        W27420   2.486  42.862  14.935
55161W        W27421  28.106  17.748   4.614
55162W        W27422   5.886  24.238  11.156
55163W        W27423  21.133  33.012  12.090
55164W        W27424  22.415  14.482  10.516
55165W        W27425   0.939   1.958   1.621
55166W        W27426  17.302  11.697   4.022
55167W        W27427  38.077  18.156  12.279
55168W        W27428  19.166  10.957  11.351
55169W        W27429  19.735  18.963   0.003
55170W        W27430  15.236  34.501   3.461
55171W        W27431  17.806  29.755   0.760
55172W        W27432   5.964  44.480   0.864
55173W        W27433  18.042  29.607  13.886
55174W        W27434  31.047   9.181   4.577
55175W        W27435  44.397  21.296   2.640
55176W        W27436   0.327  27.436   3.299
55177W        W27437  22.685  11.303   0.374
55178W        W27438  32.754  19.173   5.118
55179W        W27439  20.919  42.370   2.797
55180W        W27440  13.730  15.948   3.762
55181W        W27441  14.767  15.789   0.435
55182W        W27442  36.821  41.018   2.941
55183W        W27443  24.731  37.028  12.965
55184W        W27444  33.639  21.189  13.908
55185W        W27445  43.328  16.635   4.102
55186W        W27446  26.662  19.366   4.702
55187W        W27447  19.643   4.238   3.696
55188W        W27448  17.136  10.362   3.305
55189W        W27449  42.803   6.715   3.309
55190W        W27450  33.503   3.921   2.639
55191W        W27451  27.167  36.072  13.810
55192W        W27452  24.683  27.225  11.981
55193W        W27453  43.911   3.399  14.398
55194W        W27454  44.802  23.766   3.581
55195W        W27455   7.727  18.029  13.531
55196W        W27456  29.111  39.365  11.654
55197W        W27457  28.004  21.669  10.947
55198W        W27458   3.697  42.939   0.428
55199W        W27459   2.433   4.697  14.300
55200W        W27460  42.113  25.510   1.193
55201W        W27461  18.307  40.518   4.317
55202W        W27462  32.796  24.121  14.268
55203W        W27463  44.319  23.712  11.445
55204W        W27464   3.051  24.806   1.832
55205W        W27465  20.194  26.495  11.640
55206W        W27466  21.019  10.439   1.984
55207W        W27467  24.461  14.251   3.681
55208W        W27468  41.946  19.283  13.028
55209W        W27469  20.149  23.724   4.598
55210W        W27470   3.983  13.215  10.629
55211W        W27471   0.596  24.425   3.769
55212W        W27472  44.253   6.702   3.085
55213W        W27473  21.433  10.289   0.732
55214W        W27474  43.805  28.640   0.305
55215W        W27475   2.612  42.744   5.083
55216W        W27476  43.371  14.659   1.301
55217W        W27477  36.074   2.944   4.545
55218W        W27478  15.617  37.078   0.240
55219W        W27479  31.578   1.475   1.818
55220W        W27480  14.906  19.492  10.742
55221W        W27481  40.506  32.063   5.002
55222W        W27482  18.811   7.319   1.295
55223W        W27483  28.553  31.167   4.032
55224W        W27484  43.600  14.483   4.742
55225W        W27485   0.998   4.263  14.675
55226W        W27486  27.376   6.437   2.166
55227W        W27487  14.612  10.181  13.497
55228W        W27488   7.951  41.492   3.914
55229W        W27489  37.935  27.004   2.813
55230W        W27490  35.813  23.693  14.000
55231W        W27491  29.002  27.636  10.626
55232W        W27492  36.530  25.100   3.753
55233W        W27493  10.839   4.452  10.878
55234W        W27494  18.676  19.319  13.946
55235W        W27495  38.653  16.507   0.351
55236W        W27496   5.757  17.686  12.902
55237W        W27497  42.983  17.320   3.532
55238W        W27498  39.016  31.082  11.196
55239W        W27499  36.447  10.313   0.301
55240W        W27500  27.561  28.744   1.918
55241W        W27501  26.625  11.376  13.421
55242W        W27502  17.658  18.056  13.819
55243W        W27503  43.495  26.622   3.438
55244W        W27504   2.015  19.656   2.057
55245W        W27505  26.075  27.904  14.838
55246W        W27506   3.170  21.689   0.010
55247W        W27507  40.356  23.779  13.609
55248W        W27508   1.941  25.210   2.328
55249W        W27509  30.171  41.951  12.440
55250W        W27510  43.955  20.212  14.374
55251W        W27511  29.825  18.160  12.184
55252W        W27512  22.050  38.327  12.166
55253W        W27513   1.735  36.550   4.334
55254W        W27514  44.630  16.544  10.305
55255W        W27515  28.439   3.197  12.348
55256W        W27516   6.797  12.702  14.002
55257W        W27517   7.209  12.133   3.675
55258W        W27518  28.003  20.477  14.339
55259W        W27519   9.749  37.723   0.264
55260W        W27520  23.937  15.795  11.541
55261W        W27521  40.262  40.550   2.799
55262W        W27522  42.003  29.102   3.671
55263W        W27523  17.254   0.699  13.446
55264W        W27524  15.911  20.715  12.424
55265W        W27525  21.743   4.396  10.564
55266W        W27526  33.444  24.200   2.373
55267W        W27527   9.218   1.316  10.790
55268W        W27528  44.731   3.356   2.559
55269W        W27529   6.112  11.082   2.731
55270W        W27530   2.794  18.004   2.292
55271W        W27531   8.924   2.189   5.162
55272W        W27532  24.778  39.089  11.296
55273W        W27533   9.382  38.580   3.343
55274W        W27534  29.707  20.220   1.964
55275W        W27535  21.224  29.496  13.164
55276W        W27536  39.275  38.034  10.722
55277W        W27537  11.660  43.789  11.025
55278W        W27538  34.349  40.530   4.459
55279W        W27539  19.597   9.310  14.082
55280W        W27540  32.964  14.687  14.530
55281W        W27541  10.404  28.568   3.801
55282W        W27542  35.450  29.949  11.179
55283W        W27543  33.370   4.367  10.945
55284W        W27544  37.873  41.531   0.218
55285W        W27545  10.112  39.442   3.408
55286W        W27546  36.850   1.508   2.278
55287W        W27547  28.315  15.591   3.324
55288W        W27548  38.563  25.056  12.527
55289W        W27549  35.333  26.369  14.399
55290W        W27550  37.000  17.223  11.675
55291W        W27551   3.866   2.328  14.839
55292W        W27552   5.779   4.716   2.721
55293W        W27553   1.506  34.482   4.138
55294W        W27554  10.579  22.423   4.267
55295W        W27555  32.672  38.819  12.541
55296W        W27556   8.847  21.815   1.425
55297W        W27557  37.798  19.229   0.660
55298W        W27558   1.788  40.473  11.204
55299W        W27559  36.006  13.683   4.089
55300W        W27560  44.563   3.854   3.131
55301W        W27561  33.026  10.936  11.024
55302W        W27562  32.871  37.522   0.959
55303W        W27563   8.969  21.306  14.464
55304W        W27564  32.138  42.517   0.845
55305W        W27565   6.617  42.815  13.037
55306W        W27566  29.412  13.590   4.595
55307W        W27567  16.770   9.612  10.582
55308W        W27568  41.776  17.618  14.940
55309W        W27569   3.182  22.024  12.407
55310W        W27570  19.536  39.334   0.984
55311W        W27571  38.934  15.723  11.928
55312W        W27572   1.018  21.282   5.016
55313W        W27573  39.929  29.164   4.229
55314W        W27574  36.286  18.871   5.524
55315W        W27575  39.278  38.601  10.529
55316W        W27576   3.687  10.776   1.819
55317W        W27577  24.071  15.262  13.152
55318W        W27578  20.268   8.835   2.139
55319W        W27579  20.157  36.279   2.986
55320W        W27580  39.120  26.143   4.745
55321W        W27581  19.078  43.508  13.895
55322W        W27582  14.529  21.253   2.429
55323W        W27583   1.402  41.913   1.055
55324W        W27584   6.187  31.568   0.860
55325W        W27585   2.291  13.659  13.145
55326W        W27586  33.852  30.744  14.535
55327W        W27587  25.131   7.491   1.559
55328W        W27588  44.441  23.557  11.921
55329W        W27589  32.417  32.463   4.004
55330W        W27590  13.720  17.085   2.972
55331W        W27591   0.021  31.497  10.544
55332W        W27592  23.466  15.317  12.360
55333W        W27593   4.275  41.477   2.872
55334W        W27594  44.503   3.413  11.914
55335W        W27595  16.702   2.492   1.367
55336W        W27596   5.811  27.233   0.299
55337W        W27597  37.503   7.103   4.576
55338W        W27598  20.170  21.995  14.985
55339W        W27599  24.814  25.184   1.266
55340W        W27600  29.240  12.810   1.796
55341W        W27601   4.079  35.633  11.131
55342W        W27602  42.729   8.433   1.214
55343W        W27603  36.029  18.272   3.592
55344W        W27604   0.448  18.014   0.268
55345W        W27605  23.463  24.991  14.039
55346W        W27606  20.690   0.159  13.363
55347W        W27607   1.271   7.680  10.653
55348W        W27608   4.010   1.850   4.860
55349W        W27609  25.164  40.426  10.498
55350W        W27610   2.670  29.015   4.375
55351W        W27611  30.645  25.244   2.232
55352W        W27612  16.059  35.608   2.707
55353W        W27613  12.559  44.043  12.055
55354W        W27614   8.785  19.036   2.196
55355W        W27615  21.939  26.472   1.342
55356W        W27616   0.419   5.651  12.384
55357W        W27617  37.541  32.975   3.228
55358W        W27618  36.589   1.033   2.307
55359W        W27619  11.379  17.558  13.528
55360W        W27620  12.431  17.344   2.830
55361W        W27621  12.148  16.770  13.488
55362W        W27622   6.253  40.545  11.901
55363W        W27623  16.554  23.529  11.696
55364W        W27624   1.470  41.995   4.184
55365W        W27625   1.903  13.304  13.894
55366W        W27626  37.376  44.589   4.464
55367W        W27627  23.233  21.990   4.153
55368W        W27628  25.460  20.788  14.309
55369W        W27629  36.341   3.311  14.445
55370W        W27630  33.436   5.780   0.314
55371W        W27631  23.073  23.074   1.682
55372W        W27632  21.023   9.663  12.116
55373W        W27633  33.604   3.996   1.610
55374W        W27634   3.483  35.004   4.091
55375W        W27635  44.991  21.311   4.704
55376W        W27636   4.199  19.079  12.905
55377W        W27637   3.686  11.906  11.007
55378W        W27638  18.754  21.057  12.955
55379W        W27639  37.929   9.274  12.991
55380W        W27640  43.287   0.371   1.385
55381W        W27641  33.560  18.570  12.538
55382W        W27642  16.683  24.098   3.351
55383W        W27643   9.633  26.643   4.589
55384W        W27644  24.288  12.303   0.713
55385W        W27645  39.416   2.512   0.188
55386W        W27646  38.945  11.296  11.231
55387W        W27647  37.339  23.156   3.760
55388W        W27648  44.537   0.757   4.715
55389W        W27649  24.118   5.275  13.901
55390W        W27650  11.090  16.266  13.000
55391W        W27651  43.361  16.026   1.915
55392W        W27652  18.652  40.268   2.477
55393W        W27653  22.364  15.858  12.554
55394W        W27654  28.213  28.574   2.598
55395W        W27655   2.170  18.531   1.508
55396W        W27656  21.906  36.456  13.961
55397W        W27657  40.057  29.406  13.944
55398W        W27658  15.226  22.074   0.561
55399W        W27659  36.016  22.097   2.126
55400W        W27660  34.653  30.620   3.669
55401W        W27661  29.206  42.405  13.101
55402W        W27662  37.495  14.205   4.230
55403W        W27663   7.698  21.315  11.970
55404W        W27664   6.834  43.768  12.994
55405W        W27665  28.397  28.513   0.240
55406W        W27666   4.403  30.011   4.946
55407W        W27667  35.487  19.162  13.454
55408W        W27668  40.908  17.669   2.204
55409W        W27669  40.726  44.841   2.849
55410W        W27670   4.980   4.679  14.375
55411W        W27671  12.933  34.399   1.470
55412W        W27672  20.725  33.120   1.679
55413W        W27673  37.982  21.406  13.835
55414W        W27674  11.294  37.419  11.176
55415W        W27675   5.381  24.433   3.618
55416W        W27676  42.741  23.310   4.208
55417W        W27677   2.676  44.698  13.200
55418W        W27678   7.392  19.045   4.076
55419W        W27679   2.110  22.404  14.226
55420W        W27680   3.760   7.858   1.271
55421W        W27681  14.781  12.878  12.580
55422W        W27682  40.674  15.602  12.085
55423W        W27683   2.629  19.111   0.115
55424W        W27684  37.386  37.138   4.345
55425W        W27685   1.978  20.970  10.686
55426W        W27686  14.286  26.492  11.643
55427W        W27687  20.831  23.693  11.954
55428W        W27688   4.245  44.038  11.981
55429W        W27689  44.747  13.200   2.419
55430W        W27690   4.401  30.067   3.398
55431W        W27691  29.069  44.715  14.695
55432W        W27692  38.287  15.539   0.400
55433W        W27693  36.636  13.610   0.808
55434W        W27694  30.100   0.891  14.661
55435W        W27695  32.693  22.578   1.228
55436W        W27696  19.016  21.096  14.818
55437W        W27697  41.873  38.975  11.420
55438W        W27698  31.071   1.281   1.714
55439W        W27699  23.503   6.687   1.005
55440W        W27700  21.710  22.481   9.748
55441W        W27701   6.831   5.387  11.196
55442W        W27702  31.548  25.513  10.778
55443W        W27703  33.561  14.677   1.794
55444W        W27704   5.406  14.658   2.668
55445W        W27705  24.931   1.677  13.857
55446W        W27706  24.068  31.986  10.590
55447W        W27707   6.074  41.362   3.272
55448W        W27708  30.455  29.536   1.192
55449W        W27709   7.066  16.960   4.274
55450W        W27710   2.027  40.546  14.771
55451W        W27711  13.267  39.163  13.532
55452W        W27712  38.298  30.095   0.461
55453W        W27713  29.660  15.743   0.155
55454W        W27714  33.088  14.189   3.907
55455W        W27715  24.131   0.386  12.239
55456W        W27716  11.892   0.476  13.510
55457W        W27717  35.931  29.122  12.895
55458W        W27718  22.700  27.735  13.423
55459W        W27719  15.615  18.705  11.566
55460W        W27720  26.403  43.994  13.578
55461W        W27721   0.105  24.581   3.887
55462W        W27722  24.928  16.172   3.643
55463W        W27723   4.253  38.345   1.809
55464W        W27724  35.089  14.264  14.483
55465W        W27725  41.044  26.976  11.908
55466W        W27726  16.523  29.030   0.796
55467W        W27727  19.085  13.262  14.668
55468W        W27728  18.232   7.244   2.238
55469W        W27729  44.065  15.845  13.578
55470W        W27730  22.492  25.094  12.617
55471W        W27731  31.643   4.171  13.922
55472W        W27732  24.492   6.177  12.995
55473W        W27733   9.279   5.392  13.308
55474W        W27734  35.559  26.187  11.788
55475W        W27735  39.483  18.687   4.272
55476W        W27736   0.243  32.546  11.090
55477W        W27737  44.539  13.962   3.148
55478W        W27738  25.500   0.753  11.902
55479W        W27739  31.469  42.271   1.732
55480W        W27740  25.742  14.031   4.526
55481W        W27741  42.541  14.474   2.630
55482W        W27742  19.442  10.664  12.140
55483W        W27743  42.283  28.127   4.421
55484W        W27744   9.824   9.290  11.041
55485W        W27745  27.124  32.592  13.498
55486W        W27746  35.279  31.802   1.814
55487W        W27747  12.824   9.916  11.499
55488W        W27748  44.850  26.020  14.989
55489W        W27749  37.349  40.985  14.246
55490W        W27750  34.532  41.063   1.745
55491W        W27751  26.110   5.973   3.770
55492W        W27752  34.146  17.652  13.522
55493W        W27753  37.397  38.347   2.831
55494W        W27754  37.107  30.169  13.525
55495W        W27755  23.205  14.721   4.570
55496W        W27756  34.361  37.321  13.837
55497W        W27757  38.364  30.920  12.111
55498W        W27758  23.199  34.919   3.288
55499W        W27759   7.242   6.756  13.865
55500W        W27760  23.270  30.600   2.373
55501W        W27761  18.394   3.367  10.237
55502W        W27762  42.725  25.118   5.066
55503W        W27763   4.406  36.287   2.314
55504W        W27764  11.327  18.070  13.553
55505W        W27765   0.898   8.474   4.655
55506W        W27766  34.197  21.119  10.718
55507W        W27767  44.004  14.253  12.587
55508W        W27768  22.577  15.656  14.773
55509W        W27769   0.028  18.509   2.334
55510W        W27770  22.937  24.090   1.316
55511W        W27771  30.430  10.731   1.223
55512W        W27772  12.236  35.167  11.588
55513W        W27773  35.411  28.689  11.579
55514W        W27774  15.679   6.670  11.076
55515W        W27775  14.950  10.080   2.008
55516W        W27776  12.267   5.818  11.197
55517W        W27777   3.964  15.999   1.757
55518W        W27778  44.566  23.558  14.741
55519W        W27779  12.551   3.821   4.286
55520W        W27780   8.744  43.941  14.841
55521W        W27781  37.559  17.812  12.029
55522W        W27782  11.999  13.893  12.920
55523W        W27783   4.004  27.782  14.949
55524W        W27784  27.884  19.832   4.570
55525W        W27785  29.509   0.992   4.630
55526W        W27786   0.432  19.197   1.435
55527W        W27787  10.379   6.278   3.663
55528W        W27788  40.914   8.116  14.555
55529W        W27789   3.913  13.387   4.286
55530W        W27790   1.289  16.091  11.069
55531W        W27791  27.598   6.188   4.234
55532W        W27792  18.618  27.769   1.466
55533W        W27793   5.208   1.639  11.026
55534W        W27794  19.340  19.202  11.579
55535W        W27795  10.829  15.620   4.181
55536W        W27796   8.845   4.335   2.726
55537W        W27797  13.274  17.571  11.181
55538W        W27798  36.465  22.730  14.366
55539W        W27799  23.384   8.045   3.039
55540W        W27800  27.229  29.421  11.922
55541W        W27801  43.359  18.262  11.687
55542W        W27802   6.363  39.314   3.797
55543W        W27803  10.820  17.003  11.941
55544W        W27804  41.778  28.122   4.139
55545W        W27805  22.523  20.878   1.939
55546W        W27806   3.450  39.739  10.749
55547W        W27807  16.807  11.685  11.308
55548W        W27808   8.228  39.945  11.624
55549W        W27809   4.347   1.429  14.465
55550W        W27810  25.533  12.324  12.181
55551W        W27811  32.349   9.204   0.927
55552W        W27812   8.719  21.608  13.626
55553W        W27813  20.195  26.123   2.357
55554W        W27814  32.944  17.731  14.519
55555W        W27815  17.227  42.138   3.582
55556W        W27816  38.086  20.468  10.849
55557W        W27817  29.482  29.684  11.933
55558W        W27818  30.385   1.758   1.514
55559W        W27819  27.890   3.340   1.767
55560W        W27820   9.325  19.271   1.867
55561W        W27821   0.878  23.891  10.717
55562W        W27822  32.623  29.735  12.434
55563W        W27823   0.495  42.042   2.699
55564W        W27824   9.130   3.328   0.032
55565W        W27825   7.478  28.034   2.370
55566W        W27826  14.453  20.636  12.486
55567W        W27827  37.959  26.468  12.874
55568W        W27828  20.451  44.529  13.944
55569W        W27829   3.775  13.295  14.632
55570W        W27830  32.549   2.984   2.645
55571W        W27831   2.904   6.347   4.923
55572W        W27832  16.431  17.260   4.221
55573W        W27833  21.423  41.834  11.039
55574W        W27834  42.016  37.939   3.587
55575W        W27835   9.824  35.575  12.065
55576W        W27836  39.807  32.682   4.571
55577W        W27837   8.521   0.861   4.957
55578W        W27838  41.174   5.258  14.314
55579W        W27839  15.856  20.807  14.836
55580W        W27840  30.999  28.451   2.638
55581W        W27841   3.989   7.016   1.420
55582W        W27842  20.227  38.802  12.473
55583W        W27843  33.287  26.228   4.283
55584W        W27844  23.298   8.821   1.897
55585W        W27845  22.309  19.871  12.007
55586W        W27846  20.514  26.665  10.257
55587W        W27847   3.439  17.439  13.529
55588W        W27848   2.939  42.587   0.776
55589W        W27849   1.504  24.609  11.717
55590W        W27850  16.817  15.383   4.936
55591W        W27851  26.405  21.016   3.711
55592W        W27852  42.645   3.588   9.717
55593W        W27853  42.527  28.247  13.804
55594W        W27854  30.452   4.926  11.095
55595W        W27855  29.922  43.377   0.798
55596W        W27856  22.227   5.041  12.045
55597W        W27857  40.093  21.137  12.208
55598W        W27858  36.004  44.816   0.127
55599W        W27859  42.336  16.390  12.794
55600W        W27860  10.233  22.390   0.870
55601W        W27861  36.079   6.008  12.440
55602W        W27862  32.227  24.170  11.880
55603W        W27863  11.162  13.226   0.946
55604W        W27864  20.683  37.781   1.337
55605W        W27865  11.147   9.072  12.845
55606W        W27866  30.431  13.100  11.509
55607W        W27867   4.201  27.182   4.958
55608W        W27868  30.050  21.713   4.846
55609W        W27869  35.392  28.533  12.921
55610W        W27870  26.289  35.109  13.848
55611W        W27871  43.384  18.040  14.953
55612W        W27872  37.499  18.722   1.483
55613W        W27873  23.614   4.282  11.110
55614W        W27874  32.120  12.660   4.418
55615W        W27875  38.973  13.381  12.416
55616W        W27876  39.482  32.612  14.894
55617W        W27877  13.369  20.096   4.887
55618W        W27878  22.544  24.474  13.993
55619W        W27879  37.919  34.416  11.136
55620W        W27880  30.853  27.583   0.235
55621W        W27881  18.773  13.118  11.855
55622W        W27882  30.941  43.325  10.697
55623W        W27883  18.009  15.360   2.854
55624W        W27884   5.946   7.950   0.203
55625W        W27885  31.231  37.555   4.537
55626W        W27886  38.097  40.602  13.621
55627W        W27887  10.877  41.477  13.239
55628W        W27888  25.095  12.082  14.486
55629W        W27889  43.473  26.201   2.681
55630W        W27890  13.116  31.084   2.920
55631W        W27891  37.083  29.146   3.242
55632W        W27892  28.381  21.519  12.884
55633W        W27893  17.354  43.127   3.858
55634W        W27894   9.328  33.242   9.984
55635W        W27895   3.806  18.144   3.549
55636W        W27896  13.873   4.281   4.500
55637W        W27897   1.758   5.263  14.617
55638W        W27898  41.996  12.551   0.865
55639W        W27899  17.374   7.412  13.288
55640W        W27900  19.407  28.433   0.391
55641W        W27901   1.203  26.641  13.798
55642W        W27902   5.159  41.977   0.333
55643W        W27903  34.832  28.008   4.103
55644W        W27904  20.997  33.369   1.282
55645W        W27905  37.427  17.010  11.430
55646W        W27906  38.313  22.722  13.717
55647W        W27907   7.373   7.913   2.309
55648W        W27908  16.065   7.663   0.841
55649W        W27909  36.645  36.989  10.644
55650W        W27910   7.077  27.936   5.442
55651W        W27911   4.754  20.744  12.184
55652W        W27912  15.135  20.487  14.355
55653W        W27913  36.333  20.617   3.719
55654W        W27914  39.076  37.322  12.191
55655W        W27915  43.808   7.805   1.613
55656W        W27916  43.672  25.571   1.610
55657W        W27917  13.700  11.623   0.455
55658W        W27918  15.708   9.088   2.878
55659W        W27919  22.722  33.862  12.203
55660W        W27920  26.725  15.061  10.856
55661W        W27921   7.377  44.487  12.178
55662W        W27922  19.559  39.405   4.974
55663W        W27923   3.446  26.414  12.544
55664W        W27924  16.565  27.679   1.011
55665W        W27925  43.243   7.144   1.772
55666W        W27926  14.124   1.493  14.940
55667W        W27927   2.932  35.516   1.342
55668W        W27928  32.556   9.668   0.786
55669W        W27929   4.919  42.954  11.652
55670W        W27930  12.707  15.332  11.702
55671W        W27931  19.627   4.144  13.959
55672W        W27932   7.134  28.112  12.574
55673W        W27933  43.211  28.653   0.483
55674W        W27934   3.657  11.812  11.547
55675W        W27935  38.864  31.747   3.772
55676W        W27936  44.868  21.013   0.052
55677W        W27937   0.015  15.857  13.167
55678W        W27938  26.399  33.353   4.193
55679W        W27939   8.223  36.619  13.505
55680W        W27940  41.267   7.175  11.549
55681W        W27941  39.137   3.473   1.961
55682W        W27942  37.468   2.204  11.621
55683W        W27943  30.705   0.328   4.192
55684W        W27944  29.901   7.457   0.246
55685W        W27945  12.719   9.709   2.529
55686W        W27946   5.761  15.799   3.207
55687W        W27947  34.441  23.213   3.190
55688W        W27948  24.151  13.561  13.381
55689W        W27949   7.106  16.416  11.659
55690W        W27950   7.939  12.533   4.107
55691W        W27951   4.027  32.007   1.505
55692W        W27952  44.725  12.710   3.211
55693W        W27953  44.060  28.193   4.077
55694W        W27954   5.798   3.620   4.526
55695W        W27955   6.186  37.411  11.243
55696W        W27956   2.859  22.754   2.717
55697W        W27957  14.336  40.572  10.725
55698W        W27958  20.213  15.069   0.877
55699W        W27959  17.267  37.507   1.806
55700W        W27960   1.979  27.575  13.913
55701W        W27961  42.962  39.999   1.163
55702W        W27962  42.889  12.089   1.908
55703W        W27963  35.842  35.612  12.238
55704W        W27964  31.686  34.567  12.411
55705W        W27965  22.101   8.334   0.338
55706W        W27966  23.884   6.674   4.288
55707W        W27967  25.879   5.449   1.898
55708W        W27968  23.298   5.259  13.451
55709W        W27969  42.422  22.462   3.564
55710W        W27970   9.350  31.031   1.311
55711W        W27971  37.555  22.096   1.257
55712W        W27972   4.663  15.645  13.032
55713W        W27973  40.595  32.391   2.632
55714W        W27974  33.758   7.320   4.327
55715W        W27975   2.357  12.102  11.188
55716W        W27976  32.382   8.311  13.041
55717W        W27977  19.599  27.416   3.236
55718W        W27978  29.887  34.744  10.719
55719W        W27979  21.045  39.408   1.671
55720W        W27980  31.090  43.433   3.736
55721W        W27981  15.646  14.392  11.535
55722W        W27982  29.510  44.634   5.104
55723W        W27983  37.287  34.067  12.555
55724W        W27984   2.162  34.888   5.168
55725W        W27985  42.972  37.855  12.766
55726W        W27986  26.122  30.089   2.140
55727W        W27987  11.056   5.859  14.624
55728W        W27988   9.076  29.442  11.144
55729W        W27989   6.819   5.628   3.697
55730W        W27990  33.042   1.877   3.901
55731W        W27991   9.105  12.654   1.755
55732W        W27992  18.667   1.639  12.652
55733W        W27993  28.757  22.922   1.400
55734W        W27994  34.556  11.760   1.683
55735W        W27995   7.844  15.626  11.915
55736W        W27996   8.785  30.126  11.625
55737W        W27997  27.832   5.473   4.556
55738W        W27998  10.259  33.561   1.088
55739W        W27999  41.075  26.468  14.385
55740W        W28000  36.645   4.194  12.691
55741W        W28001   9.331  39.509   1.427
55742W        W28002  42.463  26.708   1.979
55743W        W28003  25.276  14.252  12.883
55744W        W28004  38.864   3.514  10.636
55745W        W28005  20.649  25.483   2.757
55746W        W28006   6.668  23.052  11.819
55747W        W28007  20.019  11.637   2.762
55748W        W28008   1.475  40.415  14.806
55749W        W28009  43.333  43.412  13.935
55750W        W28010  35.472   6.716  13.846
55751W        W28011   3.879   9.360   1.586
55752W        W28012  10.079  33.305   4.657
55753W        W28013  25.092   7.945  11.379
55754W        W28014  27.495  23.342  10.507
55755W        W28015   3.196  43.532   3.177
55756W        W28016   2.936  30.063  11.659
55757W        W28017  37.460  33.573   0.199
55758W        W28018  21.697  37.183   3.830
55759W        W28019  30.161  32.332  12.448
55760W        W28020  19.269   7.285   2.235
55761W        W28021  40.884  36.409   1.609
55762W        W28022  24.813   2.394  13.526
55763W        W28023   7.493  18.115  14.443
55764W        W28024  32.046  11.596  13.032
55765W        W28025  39.063  43.547  12.030
55766W        W28026  12.586  42.941  13.564
55767W        W28027  28.401  14.216  12.347
55768W        W28028  17.832  42.794   2.853
55769W        W28029  31.093  23.022  14.423
55770W        W28030   5.793  41.425   0.946
55771W        W28031   1.097   2.507  13.105
55772W        W28032   5.315  11.204  11.819
55773W        W28033   2.779  36.967  13.961
55774W        W28034  21.649  35.600  10.968
55775W        W28035  12.680  12.214   1.387
55776W        W28036  24.183  10.107   3.756
55777W        W28037  14.360  43.085   3.032
55778W        W28038  19.518  22.686  11.161
55779W        W28039   1.365  20.305  10.719
55780W        W28040  35.562  19.594  11.522
55781W        W28041  44.811  39.418  10.401
55782W        W28042  17.115  29.451   3.405
55783W        W28043   4.736   1.979   0.195
55784W        W28044   2.416  34.454  14.486
55785W        W28045  19.501  11.325   2.392
55786W        W28046  20.670   4.348  14.090
55787W        W28047  32.455  43.177   3.051
55788W        W28048   5.893   1.296  12.902
55789W        W28049  14.663  26.445   0.832
55790W        W28050  13.347   7.448  13.419
55791W        W28051  34.514  29.127   3.482
55792W        W28052  24.980  15.678   2.373
55793W        W28053   7.462  41.355  11.927
55794W        W28054  35.646  40.059   4.652
55795W        W28055   3.738  21.760  14.188
55796W        W28056  25.673  16.872  14.665
55797W        W28057  24.935   4.279   0.065
55798W        W28058  29.915  20.338  12.652
55799W        W28059  14.151  29.955   2.188
55800W        W28060  34.472  12.847  11.642
55801W        W28061  33.367  22.617  14.428
55802W        W28062  22.509  39.396   2.100
55803W        W28063   4.480  25.931  11.634
55804W        W28064  36.081  36.826   3.699
55805W        W28065  19.344  21.016   5.052
55806W        W28066   3.026   3.704   1.299
55807W        W28067  18.493   3.304  13.624
55808W        W28068  28.790   8.190   2.187
55809W        W28069  28.486  31.138  12.071
55810W        W28070  34.541  28.860  13.521
55811W        W28071  42.453  10.629  12.377
55812W        W28072  36.839  12.403   3.720
55813W        W28073  35.852   9.705   2.218
55814W        W28074  25.016  24.978  11.056
55815W        W28075  22.098  36.329  14.966
55816W        W28076  39.525  15.703   0.765
55817W        W28077  43.535  39.551   2.846
55818W        W28078  18.082   0.987   1.937
55819W        W28079  22.662  35.460  14.324
55820W        W28080  29.648  40.168  12.581
55821W        W28081  34.057  28.702   2.332
55822W        W28082  16.719  22.046  14.491
55823W        W28083  35.566  13.726   0.033
55824W        W28084  16.817   5.355  13.901
55825W        W28085   3.316  29.266   1.871
55826W        W28086  41.553  13.598   4.700
55827W        W28087   5.442  38.983  12.200
55828W        W28088   8.437  28.532   0.856
55829W        W28089  39.847  43.966  13.855
55830W        W28090  18.045  33.550  13.918
55831W        W28091  15.317  19.213   1.927
55832W        W28092   3.492  26.950   4.665
55833W        W28093  42.271  30.990  12.975
55834W        W28094  34.171  25.940   0.865
55835W        W28095  12.232   7.770  10.621
55836W        W28096   9.656   4.884   4.678
55837W        W28097   1.748   4.744   2.253
55838W        W28098  13.202  26.567  12.682
55839W        W28099  14.572  39.044   3.799
55840W        W28100  25.198  13.107   1.954
55841W        W28101  15.854  30.959   2.866
55842W        W28102   9.783  34.668   0.908
55843W        W28103  33.641  34.243  10.742
55844W        W28104   2.400  26.161  11.388
55845W        W28105   0.218  43.890   0.437
55846W        W28106  16.683  12.868   1.468
55847W        W28107  13.165  17.853  13.361
55848W        W28108  20.998  19.717  13.286
55849W        W28109  17.356  23.312  10.180
55850W        W28110  41.894   2.696   4.317
55851W        W28111  25.260  26.882   2.200
55852W        W28112  13.709  44.181  10.907
55853W        W28113   0.330  36.347   0.502
55854W        W28114   1.310  23.638   1.945
55855W        W28115  14.610  11.823   0.038
55856W        W28116  21.948  14.683   0.708
55857W        W28117  14.778   0.018  14.012
55858W        W28118  29.790  11.331  14.822
55859W        W28119   6.713   3.352  14.105
55860W        W28120   9.972  16.674   2.310
55861W        W28121  42.086  28.325  11.851
55862W        W28122  33.640  18.755   3.678
55863W        W28123  19.076  15.960   3.359
55864W        W28124   9.757  34.555  13.793
55865W        W28125   8.005  30.938   4.045
55866W        W28126  14.157  15.808  13.369
55867W        W28127  15.919  33.751  12.766
55868W        W28128   3.458  42.097   2.990
55869W        W28129   2.930  14.887  11.943
55870W        W28130   3.791   6.451   1.848
55871W        W28131  31.121  31.604   0.482
55872W        W28132  20.604  40.625  14.183
55873W        W28133   3.382  43.538  11.043
55874W        W28134  37.941   0.854  11.698
55875W        W28135  32.070  33.001  12.077
55876W        W28136  41.275  16.628  11.594
55877W        W28137  38.471  32.903  12.910
55878W        W28138  28.562  32.528   9.585
55879W        W28139   0.686  17.047   2.776
55880W        W28140  44.824  12.830  10.645
55881W        W28141  27.574  41.471  12.108
55882W        W28142  23.986   2.193   2.391
55883W        W28143  24.048  14.169   1.292
55884W        W28144  23.970  34.344   4.211
55885W        W28145   9.136  20.461  14.580
55886W        W28146  39.350  34.025   4.555
55887W        W28147  11.613   5.683  12.371
55888W        W28148  30.448  43.286   0.817
55889W        W28149   0.384  34.893  11.057
55890W        W28150  15.154   1.840  11.214
55891W        W28151  39.643  10.283  10.653
55892W        W28152  23.182  39.442  12.470
55893W        W28153   5.262   0.948  12.226
55894W        W28154   7.168  42.769   2.926
55895W        W28155  35.087   7.955  12.936
55896W        W28156  44.539  15.719   0.111
55897W        W28157  30.162  32.227  11.601
55898W        W28158  14.195  39.077   3.122
55899W        W28159  13.283  40.500  12.060
55900W        W28160  16.808  29.080   1.230
55901W        W28161  41.348  37.092  10.633
55902W        W28162  20.963  42.775  12.443
55903W        W28163  22.700   7.770   1.938
55904W        W28164  23.436   2.654  14.719
55905W        W28165   0.744   3.730   1.621
55906W        W28166  16.237  24.233   0.441
55907W        W28167  29.037   3.864   0.083
55908W        W28168  27.942  32.948  12.633
55909W        W28169  34.162  22.202   4.535
55910W        W28170  35.596   7.118   3.801
55911W        W28171  19.522   4.144  14.872
55912W        W28172  17.010  38.825  11.119
55913W        W28173   5.434  10.749  10.701
55914W        W28174  44.803   1.888   4.091
55915W        W28175  23.022  21.311   2.779
55916W        W28176   4.406  24.548   0.570
55917W        W28177  33.495  42.732  12.937
55918W        W28178  22.683  32.337  10.160
55919W        W28179  20.633  19.520   0.865
55920W        W28180  20.170   7.332  14.021
55921W        W28181   0.384  17.066  14.307
55922W        W28182  30.915  24.908   1.775
55923W        W28183  12.688  41.614  11.617
55924W        W28184   0.731  11.241  10.431
55925W        W28185  15.398  31.179   2.840
55926W        W28186   8.309  32.370  10.549
55927W        W28187  21.755   2.684   3.624
55928W        W28188  35.048  23.095   3.870
55929W        W28189  35.112  33.097   0.963
55930W        W28190  32.924  24.516   3.346
55931W        W28191  21.326  38.028  14.756
55932W        W28192  11.193  27.369   4.098
55933W        W28193  27.340   5.563  12.055
55934W        W28194  15.240  11.188  12.992
55935W        W28195   0.571  12.629  13.533
55936W        W28196  14.696  21.032  12.147
55937W        W28197  31.792   2.464   3.778
55938W        W28198  11.896   4.147  11.366
55939W        W28199  28.073  18.034   1.412
55940W        W28200  13.517  23.647   2.129
55941W        W28201   2.263  42.576  12.361
55942W        W28202  30.886   5.074   2.811
55943W        W28203  21.088  16.500  11.558
55944W        W28204   4.250  44.905  14.968
55945W        W28205  25.905  25.431   2.418
55946W        W28206  22.529  31.487   1.739
55947W        W28207  14.463  29.969   0.967
55948W        W28208   8.040  43.836  13.550
55949W        W28209  39.535  12.814  13.052
55950W        W28210  19.335  27.858   1.280
55951W        W28211  14.799  41.257   0.882
55952W        W28212  43.394  40.245   1.431
55953W        W28213   3.857  28.453   2.763
55954W        W28214  35.622   0.710   2.268
55955W        W28215  10.375  25.568  11.577
55956W        W28216   2.449  18.354  12.510
55957W        W28217  37.119  40.417   4.669
55958W        W28218  32.434  30.148   4.567
55959W        W28219  10.654  43.792  11.262
55960W        W28220  27.472  17.307  12.359
55961W        W28221  21.060  13.694  14.373
55962W        W28222   7.484  44.012  11.520
55963W        W28223  25.052  22.770   0.386
55964W        W28224   4.758   7.443  11.204
55965W        W28225   5.403  39.520   4.127
55966W        W28226  33.376   8.300  12.810
55967W        W28227  11.691  40.495  12.451
55968W        W28228  44.518  38.855  10.934
55969W        W28229  26.905  26.553   1.952
55970W        W28230   8.433   1.314  11.714
55971W        W28231  20.325  12.617   1.298
55972W        W28232   0.881  39.434  10.941
55973W        W28233  36.868  18.352  14.940
55974W        W28234  40.859  29.937   0.256
55975W        W28235  25.782  21.999   3.635
55976W        W28236  37.338  41.840  14.517
55977W        W28237  24.189  13.877  11.388
55978W        W28238  26.634  28.730  11.499
55979W        W28239  39.770  34.296   0.798
55980W        W28240  37.864  44.739  12.883
55981W        W28241  19.512  27.234  13.393
55982W        W28242  44.427  18.089  13.964
55983W        W28243   3.328  13.796  13.599
55984W        W28244  33.101  14.159   2.880
55985W        W28245  19.944  43.414  10.951
55986W        W28246  19.673  12.613   4.730
55987W        W28247  13.201  16.031  11.287
55988W        W28248  26.082  34.151  14.379
55989W        W28249   9.778  13.491  11.181
55990W        W28250  37.477  39.321   2.563
55991W        W28251  43.208  11.197   2.122
55992W        W28252  21.297  17.318  11.199
55993W        W28253  16.656   1.384  10.676
55994W        W28254  13.673  16.460   3.820
55995W        W28255   0.860   5.073   4.653
55996W        W28256  44.386   7.706  11.981
55997W        W28257  10.556   3.751   0.818
55998W        W28258  22.837  34.809  11.388
55999W        W28259  16.173  34.463   1.902
56000W        W28260  29.375  10.190  12.540
56001W        W28261  23.082  15.535   4.189
56002W        W28262  25.560  27.630   3.395
56003W        W28263   1.756  14.349   5.003
56004W        W28264  27.938  10.227  14.850
56005W        W28265  16.800   6.197  11.601
56006W        W28266  13.290   8.355   3.418
56007W        W28267  20.555  31.366  11.013
56008W        W28268  21.711  30.970  14.631
56009W        W28269  28.452  17.204   0.719
56010W        W28270   3.748  12.793  14.369
56011W        W28271  33.135  10.361  13.297
56012W        W28272   4.448  33.129   4.487
56013W        W28273  31.922  35.171   5.113
56014W        W28274  23.012   4.935  14.487
56015W        W28275  40.649  33.615   3.654
56016W        W28276  10.388  12.311   1.269
56017W        W28277  44.808  23.979  11.134
56018W        W28278  35.539  21.077  12.391
56019W        W28279  41.742  18.450  13.386
56020W        W28280  34.134  18.205   5.057
56021W        W28281  16.541  21.109   3.098
56022W        W28282  43.512  21.161   2.842
56023W        W28283  41.721  31.954  14.898
56024W        W28284  33.410   4.934   1.309
56025W        W28285   6.154  15.837  14.876
56026W        W28286  31.089  24.499   3.181
56027W        W28287  33.120   4.137  10.544
56028W        W28288   3.072  35.390  11.138
56029W        W28289   6.215   0.943   4.030
56030W        W28290  29.069  41.913  14.520
56031W        W28291  30.804  16.786   1.800
56032W        W28292  44.372  43.830   3.086
56033W        W28293  18.518   0.694   1.857
56034W        W28294   8.813  38.792   3.368
56035W        W28295  19.750  42.827  12.944
56036W        W28296  40.271  11.867   4.109
56037W        W28297  22.299  41.592   0.333
56038W        W28298  39.566  41.396  12.094
56039W        W28299  20.506  35.791   1.284
56040W        W28300   4.216   9.149  14.880
56041W        W28301   7.112  15.149   1.775
56042W        W28302   0.299  13.843   5.030
56043W        W28303  13.055  41.720   0.816
56044W        W28304  10.273  44.246  14.639
56045W        W28305  38.891  30.539   4.854
56046W        W28306  21.541  17.365  13.514
56047W        W28307  40.839  26.143   2.266
56048W        W28308  38.872  27.076  13.059
56049W        W28309   6.971   5.785   1.914
56050W        W28310   3.657  18.838   4.570
56051W        W28311  22.412  14.071  14.035
56052W        W28312  11.684  43.269   2.713
56053W        W28313  32.736  30.411   2.704
56054W        W28314   9.182   3.230   1.780
56055W        W28315  18.672  25.748  14.357
56056W        W28316   9.833  25.124  11.979
56057W        W28317  31.689  10.901  10.405
56058W        W28318  17.988  20.050   3.768
56059W        W28319  43.783  15.277   4.525
56060W        W28320   1.457  28.553   0.906
56061W        W28321  37.065  13.010  11.254
56062W        W28322  27.646  41.885  12.965
56063W        W28323  33.193  25.164  12.073
56064W        W28324  18.671  26.315   1.835
56065W        W28325   2.154  38.795   2.865
56066W        W28326  11.832  18.558   2.399
56067W        W28327  36.191  44.506  10.973
56068W        W28328  30.636  40.456   4.526
56069W        W28329  41.395  20.907  11.596
56070W        W28330  11.331  21.565  11.362
56071W        W28331  27.531  41.512  14.794
56072W        W28332  17.478  19.793   0.401
56073W        W28333  39.507  41.462   1.303
56074W        W28334  33.466  39.401  14.784
56075W        W28335  11.569   4.439   2.258
56076W        W28336  27.921  41.394   4.164
56077W        W28337   3.487  27.214   0.330
56078W        W28338  11.269  39.031   2.123
56079W        W28339  26.274  15.337   4.672
56080W        W28340  34.803  34.235  13.016
56081W        W28341  22.238  24.724  10.845
56082W        W28342  42.794  39.844  12.868
56083W        W28343  33.355  39.947  13.528
56084W        W28344  18.694  37.885  11.195
56085W        W28345  37.320  14.813  14.533
56086W        W28346  23.087  41.973  11.417
56087W        W28347  23.257  40.097   9.909
56088W        W28348  23.205  42.401   3.646
56089W        W28349  40.881  18.548  10.592
56090W        W28350  38.910   8.056   3.358
56091W        W28351  41.052  41.893   0.637
56092W        W28352  36.843  43.346  13.404
56093W        W28353  31.556  27.694   3.036
56094W        W28354  14.857  32.094  13.858
56095W        W28355  16.293  39.608  11.157
56096W        W28356   2.007  37.943  13.508
56097W        W28357  13.980  21.893   1.236
56098W        W28358   1.297  36.458   4.614
56099W        W28359  19.629  33.822  12.653
56100W        W28360  12.541  44.250  12.916
56101W        W28361   7.385   0.709  13.025
56102W        W28362  44.928  10.619   2.213
56103W        W28363  18.076  38.440   3.657
56104W        W28364   3.313  42.441   3.404
56105W        W28365  37.164  11.322  10.524
56106W        W28366  17.850  11.653   0.866
56107W        W28367   6.803  18.225   2.331
56108W        W28368  42.397  12.893   0.819
56109W        W28369  15.242  16.349   4.872
56110W        W28370   8.977  38.141  12.890
56111W        W28371   4.324  36.800   4.062
56112W        W28372  21.926  40.641   3.395
56113W        W28373  22.059  15.503   3.602
56114W        W28374  28.020   1.708   1.761
56115W        W28375  42.704  32.965  14.191
56116W        W28376   2.288  18.002   4.521
56117W        W28377  16.820  36.160   4.531
56118W        W28378  41.484   5.648  10.734
56119W        W28379  13.275   7.180  13.893
56120W        W28380   6.225  44.277   2.349
56121W        W28381   7.635  21.110  10.608
56122W        W28382  18.108  14.183  14.858
56123W        W28383  22.164  11.294   0.487
56124W        W28384  31.918  43.930  12.910
56125W        W28385   6.311  27.510  10.863
56126W        W28386  11.772   8.259   4.787
56127W        W28387   5.578  16.866   3.131
56128W        W28388  16.353  40.328  10.796
56129W        W28389  13.667  24.441   0.575
56130W        W28390  40.417  35.636   0.445
56131W        W28391  16.505  33.686  11.926
56132W        W28392  44.974   9.976   0.339
56133W        W28393  30.094   7.912   1.323
56134W        W28394  27.971  37.085  14.432
56135W        W28395  37.874  31.948  13.393
56136W        W28396  34.622  18.371   3.241
56137W        W28397  25.931  22.750  14.392
56138W        W28398  15.077   0.607  12.098
56139W        W28399  40.989  15.722   2.836
56140W        W28400  29.285  28.226   3.440
56141W        W28401   8.553  30.679  12.788
56142W        W28402  28.157  36.849   3.692
56143W        W28403  11.706  29.202   1.857
56144W        W28404  39.762  18.610  12.163
56145W        W28405  15.560  24.699   0.700
56146W        W28406  41.881  17.511  14.397
56147W        W28407   4.851  25.949  12.946
56148W        W28408  42.225  23.594  10.340
56149W        W28409  27.286  18.758  12.517
56150W        W28410  17.366  38.427  11.030
56151W        W28411  36.990  16.050  10.759
56152W        W28412   8.450  38.188   0.842
56153W        W28413   1.388  35.307   2.725
56154W        W28414  39.372  15.844  14.327
56155W        W28415   1.336  18.142   2.466
56156W        W28416  14.075   5.478  10.578
56157W        W28417  31.534  14.845  10.837
56158W        W28418   6.759  39.814  12.093
56159W        W28419  17.249  15.361  14.929
56160W        W28420  23.135   8.804  14.229
56161W        W28421  43.477   1.966   4.523
56162W        W28422   4.254  14.725   2.117
56163W        W28423   8.186   2.272  12.543
56164W        W28424   1.041   7.200   4.108
56165W        W28425  42.283   8.268   4.475
56166W        W28426  36.570  34.579   3.206
56167W        W28427  43.897  25.011   2.350
56168W        W28428   5.125  37.518  14.336
56169W        W28429  18.176  32.632  11.598
56170W        W28430  24.940  18.306  12.612
56171W        W28431  20.767  31.461  11.477
56172W        W28432  19.441  30.336  10.464
56173W        W28433  21.069  39.487   5.211
56174W        W28434   9.779  35.400  13.586
56175W        W28435  19.253   9.557   0.222
56176W        W28436   9.074  18.134  11.620
56177W        W28437   8.316  38.538   3.238
56178W        W28438  14.073  32.733  14.194
56179W        W28439   6.588  34.373   1.478
56180W        W28440   8.205  26.055  11.243
56181W        W28441  25.995  22.126  12.304
56182W        W28442   1.998  35.466   0.333
56183W        W28443   5.798   7.133  12.960
56184W        W28444  19.820  39.860   2.678
56185W        W28445  22.197  31.030  10.927
56186W        W28446  18.596  27.471  12.790
56187W        W28447  34.677   0.743   3.201
56188W        W28448  25.751  44.820   2.081
56189W        W28449  14.081   5.688   1.290
56190W        W28450  28.501  39.154  13.538
56191W        W28451  11.324   6.358   0.982
56192W        W28452  37.557   8.113  12.731
56193W        W28453  17.337  13.433  13.435
56194W        W28454  25.037  22.300  10.502
56195W        W28455  30.942  21.442  13.079
56196W        W28456  31.679  25.695  13.345
56197W        W28457   1.140   8.749   2.449
56198W        W28458   0.861   7.979   3.681
56199W        W28459  29.186  19.203  14.374
56200W        W28460  37.332   5.073   0.177
56201W        W28461  19.031   8.060  12.918
56202W        W28462  31.596  37.067  14.854
56203W        W28463  20.361   5.761  12.022
56204W        W28464  27.256  24.064  10.409
56205W        W28465  12.112   1.707   2.686
56206W        W28466   9.311  40.201   4.365
56207W        W28467  29.596  24.544  13.361
56208W        W28468  43.772  21.117  13.851
56209W        W28469  37.506  28.548   0.869
56210W        W28470  35.026  19.349  11.002
56211W        W28471  26.030  36.895  11.665
56212W        W28472   4.729   4.743  10.361
56213W        W28473  40.013  13.068   2.789
56214W        W28474  25.616  26.116  13.759
56215W        W28475  40.283  21.009   0.288
56216W        W28476  21.326  31.374   2.392
56217W        W28477  32.021  27.161  14.033
56218W        W28478  44.512  38.900   1.301
56219W        W28479   5.796  42.708  12.096
56220W        W28480  28.698  36.525  12.830
56221W        W28481  15.559  41.219   4.120
56222W        W28482  25.059  25.400  12.130
56223W        W28483  34.193  27.409  10.496
56224W        W28484  23.565  33.675  14.229
56225W        W28485  36.071  35.551  11.779
56226W        W28486  33.354   9.027  14.892
56227W        W28487   2.849  14.847   0.273
56228W        W28488  11.121  38.851   3.697
56229W        W28489  22.033  12.676  13.931
56230W        W28490  30.324  42.978   3.138
56231W        W28491   0.508  11.899  11.584
56232W        W28492  25.858  42.564   9.623
56233W        W28493  34.573  35.984  13.321
56234W        W28494  18.816  20.108  10.690
56235W        W28495  37.095  24.291  13.650
56236W        W28496  24.523  27.543   4.807
56237W        W28497  10.090  10.403   3.367
56238W        W28498   5.668  23.147  12.596
56239W        W28499  29.959  38.117   3.594
56240W        W28500  42.673  30.576  11.734
56241W        W28501   8.682  19.971   3.666
56242W        W28502  32.581  32.867  12.057
56243W        W28503  37.274  22.682  14.785
56244W        W28504  27.658   5.919  10.978
56245W        W28505   3.362   4.362  13.906
56246W        W28506   3.386  39.288  12.871
56247W        W28507  12.845  27.336  10.939
56248W        W28508  28.923  28.487   3.679
56249W        W28509  40.735  25.381   0.886
56250W        W28510  12.680  40.235   0.290
56251W        W28511  11.695   3.705  11.578
56252W        W28512  24.469  19.425   3.112
56253W        W28513  37.583  20.136   3.742
56254W        W28514  18.558   4.270  14.834
56255W        W28515  26.988   8.866   5.030
56256W        W28516  29.664  31.826  11.044
56257W        W28517  11.446  38.526   3.991
56258W        W28518   2.386  20.898   4.786
56259W        W28519  31.007  25.737  13.903
56260W        W28520  40.544  35.936  12.858
56261W        W28521  38.791  28.748  14.497
56262W        W28522  34.705  13.790   2.181
56263W        W28523  17.447   0.445   0.363
56264W        W28524  18.174  29.092   4.231
56265W        W28525  38.666  29.744   0.443
56266W        W28526  37.622  41.911  14.966
56267W        W28527   2.927  42.826   1.246
56268W        W28528  38.310  20.129  14.484
56269W        W28529  19.336  32.903   0.383
56270W        W28530   7.707  12.992   4.183
56271W        W28531  20.674  30.125  12.587
56272W        W28532   8.319  39.921   2.667
56273W        W28533   2.841   5.633   0.266
56274W        W28534  33.908  22.559   3.591
56275W        W28535  23.960  35.126  14.564
56276W        W28536  42.809  25.764   0.816
56277W        W28537  42.551  33.483   4.092
56278W        W28538  21.101  24.714   1.811
56279W        W28539  36.851  32.493  10.863
56280W        W28540  14.608   6.121  14.970
56281W        W28541  30.068   4.462   3.550
56282W        W28542  10.138   5.664  11.030
56283W        W28543  29.712  29.953  10.627
56284W        W28544  24.989  17.768   2.806
56285W        W28545  26.291   5.808  10.630
56286W        W28546   4.260  32.885   1.923
56287W        W28547  22.446  16.320  14.265
56288W        W28548  11.198  22.147  14.743
56289W        W28549   0.962  41.039   2.735
56290W        W28550  19.127  20.479   3.688
56291W        W28551  14.718  29.852  12.422
56292W        W28552  23.997  41.305   2.675
56293W        W28553  24.837   2.346   4.552
56294W        W28554   1.159   2.199   4.234
56295W        W28555  20.012  33.312   2.836
56296W        W28556  28.745   5.352  12.688
56297W        W28557  44.569   2.975   4.175
56298W        W28558  44.338  13.764   0.801
56299W        W28559   9.205   7.594   2.647
56300W        W28560  24.435  22.275  13.811
56301W        W28561  20.752  36.980  13.055
56302W        W28562  18.262  44.908   3.001
56303W        W28563   3.503  28.006   0.787
56304W        W28564  41.995   1.919  14.916
56305W        W28565   8.605  29.219   2.035
56306W        W28566  32.147   7.627  13.476
56307W        W28567  28.244  33.077   1.159
56308W        W28568  32.057  39.355   3.188
56309W        W28569  28.480  18.465  14.858
56310W        W28570  25.480  32.421  10.697
56311W        W28571  44.431  29.043   0.277
56312W        W28572  10.811  23.092   0.635
56313W        W28573  20.652  18.784  12.708
56314W        W28574  24.719  21.975  12.506
56315W        W28575   2.289  26.747  14.432
56316W        W28576  30.885  15.709   2.429
56317W        W28577  29.574  32.892   4.657
56318W        W28578  29.769  33.128  11.476
56319W        W28579  27.910  38.108  12.172
56320W        W28580  23.927   0.875   3.893
56321W        W28581  27.585  18.648  11.156
56322W        W28582  14.270   0.272   1.546
56323W        W28583   4.434  41.892  12.812
56324W        W28584   6.424  28.456  14.315
56325W        W28585   1.094  40.333   3.019
56326W        W28586  24.949  19.807  11.083
56327W        W28587   6.350  18.615   2.772
56328W        W28588  44.762  24.933   2.786
56329W        W28589  19.616  27.554   1.678
56330W        W28590  41.060   3.356   2.233
56331W        W28591  37.921  27.539   2.707
56332W        W28592  22.565  43.368   2.294
56333W        W28593  38.525   3.432   2.242
56334W        W28594  14.340  13.505  13.930
56335W        W28595   9.863  16.768   4.240
56336W        W28596  23.129   7.929  13.883
56337W        W28597  13.040   1.048   4.935
56338W        W28598  27.720  40.440  13.353
56339W        W28599  24.152  32.642   1.740
56340W        W28600  11.105   2.601  12.863
56341W        W28601  38.549  20.691  10.906
56342W        W28602  21.807  17.120   0.766
56343W        W28603  42.989   4.262  12.072
56344W        W28604  39.018  27.826  12.405
56345W        W28605  25.741  16.708   1.830
56346W        W28606  44.047   6.380   0.396
56347W        W28607   9.027  27.648  14.883
56348W        W28608  43.366  18.294  13.818
56349W        W28609   2.573  40.448  11.471
56350W        W28610   6.503   2.291   1.836
56351W        W28611  31.904  24.493   3.665
56352W        W28612  37.115   4.700  12.999
56353W        W28613  33.161  35.484   1.137
56354W        W28614  26.450  40.761   1.165
56355W        W28615  23.195  12.733   1.446
56356W        W28616  32.266  20.669  10.734
56357W        W28617  44.750  33.784   0.415
56358W        W28618  42.896   1.810   3.417
56359W        W28619   8.753  19.011   5.101
56360W        W28620   0.158  24.707  11.616
56361W        W28621  27.436  44.907  13.964
56362W        W28622  16.237  15.678   1.412
56363W        W28623  12.805  44.415   2.595
56364W        W28624  25.060   3.843  10.678
56365W        W28625   9.574  43.410   1.651
56366W        W28626  29.645   3.131   0.098
56367W        W28627   4.407   4.529  11.088
56368W        W28628  36.425  10.027   5.028
56369W        W28629  43.166  32.680   0.012
56370W        W28630   5.321  25.097  13.828
56371W        W28631  39.982  21.356   3.002
56372W        W28632  29.882   7.703   3.150
56373W        W28633   6.211  35.532   2.100
56374W        W28634  11.989   4.909   1.278
56375W        W28635  32.385  15.501  14.677
56376W        W28636  21.880  14.699  10.741
56377W        W28637  28.577  24.526  11.061
56378W        W28638   5.156   1.401   3.237
56379W        W28639  14.189  27.859   2.686
56380W        W28640  31.568  22.134  12.676
56381W        W28641   4.992  34.362  11.928
56382W        W28642  31.096  17.399  12.958
56383W        W28643  26.988  16.083   0.475
56384W        W28644   5.068  15.783   3.642
56385W        W28645  17.376  23.473  13.816
56386W        W28646  38.563  18.045  10.614
56387W        W28647  15.252  23.738   2.854
56388W        W28648  15.856  36.351  13.003
56389W        W28649   1.050  42.945  14.891
56390W        W28650  17.249  42.379  14.003
56391W        W28651  14.091  37.596   0.824
56392W        W28652  32.505   0.523   0.688
56393W        W28653  19.698  17.224   1.408
56394W        W28654   6.470  37.821  11.435
56395W        W28655  36.821  19.096   4.086
56396W        W28656  27.429  41.334   5.045
56397W        W28657  30.181  44.401  13.513
56398W        W28658  35.280  30.440  11.212
56399W        W28659   3.308  23.145  13.341
56400W        W28660  41.532   0.383  14.048
56401W        W28661   1.674  16.263  11.387
56402W        W28662  10.699  42.985  12.724
56403W        W28663  14.090   8.098  11.036
56404W        W28664  23.240   7.865  12.554
56405W        W28665  20.559  15.799   4.107
56406W        W28666  10.309  11.746  13.908
56407W        W28667   8.793  15.713  12.271
56408W        W28668  39.202  38.923   3.278
56409W        W28669  14.048   8.773   3.118
56410W        W28670  32.337  24.825  10.277
56411W        W28671  40.220  26.609  14.574
56412W        W28672   2.246  35.826  11.499
56413W        W28673  19.744  29.088  12.387
56414W        W28674  26.135  15.759   4.008
56415W        W28675  29.677  15.744  13.117
56416W        W28676  25.902  26.479  13.503
56417W        W28677   2.757  20.401   4.124
56418W        W28678  26.942  13.881   2.241
56419W        W28679  16.859  25.225  12.553
56420W        W28680  37.139  13.735   0.784
56421W        W28681  14.711   0.363  14.406
56422W        W28682  39.753   2.280   3.783
56423W        W28683   3.408  30.356   0.626
56424W        W28684  22.209  29.302  13.354
56425W        W28685  32.943  20.667  14.021
56426W        W28686  31.493  22.673   2.338
56427W        W28687  37.764  33.753  13.888
56428W        W28688  42.985  44.346   2.804
56429W        W28689  25.688  29.724   2.732
56430W        W28690  26.474  11.084  11.114
56431W        W28691  32.620  34.934  11.110
56432W        W28692   2.180  43.738   4.025
56433W        W28693  30.149  41.815  13.353
56434W        W28694   0.968  19.164   4.805
56435W        W28695  37.985   4.695   1.915
56436W        W28696  18.960   1.600   3.020
56437W        W28697  12.031  32.996  14.869
56438W        W28698   6.926  39.472  14.614
56439W        W28699  40.538   8.781  12.447
56440W        W28700  38.107  29.587   2.199
56441W        W28701  24.011  11.780   1.319
56442W        W28702   8.644  21.513  10.443
56443W        W28703  20.223  18.687   4.811
56444W        W28704  38.097  33.881  12.987
56445W        W28705  22.010  33.595  14.940
56446W        W28706  35.965  14.275  13.369
56447W        W28707  29.126  44.564  10.623
56448W        W28708  40.949   3.775   3.998
56449W        W28709  40.125  27.164  13.864
56450W        W28710  19.319  24.871   4.180
56451W        W28711  39.794  33.420   0.257
56452W        W28712  16.076  26.564   3.392
56453W        W28713   1.043  13.642   2.700
56454W        W28714  32.429   1.819  13.319
56455W        W28715  30.590   9.378  13.576
56456W        W28716   7.696   3.226  10.825
56457W        W28717  40.390  27.390   3.846
56458W        W28718   6.044   0.432  10.704
56459W        W28719  25.665  23.793  11.304
56460W        W28720   6.421   4.864  14.360
56461W        W28721  33.798  25.451  11.506
56462W        W28722  26.402  30.870  11.124
56463W        W28723   6.962  20.740   3.245
56464W        W28724  21.382  18.571  12.060
56465W        W28725  40.053  40.729   3.270
56466W        W28726  26.961  25.354  14.988
56467W        W28727  16.746   7.697  13.566
56468W        W28728  40.553  42.990  14.764
56469W        W28729  21.652  20.155   1.973
56470W        W28730  16.349  39.712   2.717
56471W        W28731  17.340  16.701   4.307
56472W        W28732   5.886  15.266   1.118
56473W        W28733   2.184  19.802  11.606
56474W        W28734  37.355  15.876   1.546
56475W        W28735  24.354  37.925  12.096
56476W        W28736   3.427  22.408  11.128
56477W        W28737  13.068  31.009   4.379
56478W        W28738  28.258  25.678  12.840
56479W        W28739  40.991  24.019   3.397
56480W        W28740   4.748   9.208   2.157
56481W        W28741   4.981   3.176  14.827
56482W        W28742   1.206  36.888   3.108
56483W        W28743  21.603  14.569  14.466
56484W        W28744  36.739  30.220  10.921
56485W        W28745  17.505  23.623  11.934
56486W        W28746   7.464  23.970   1.297
56487W        W28747  18.569  10.488  13.033
56488W        W28748  34.059   9.082  13.053
56489W        W28749   1.673  38.956   2.752
56490W        W28750  27.437  22.589   2.288
56491W        W28751  10.587   3.758   4.390
56492W        W28752   1.787  33.841   3.648
56493W        W28753   4.288  44.048   1.861
56494W        W28754  34.467  31.543  12.179
56495W        W28755  10.330   2.195  14.851
56496W        W28756  42.579  35.126   2.743
56497W        W28757  31.934   5.497   3.576
56498W        W28758   2.834  29.846   2.595
56499W        W28759  19.054  29.479  13.787
56500W        W28760  20.958  18.716   1.868
56501W        W28761  36.659  26.120   3.717
56502W        W28762  32.594   2.908   0.413
56503W        W28763  22.217  37.827  10.869
56504W        W28764  23.532   2.669   4.261
56505W        W28765  24.078  22.602  14.553
56506W        W28766  10.640  15.305   2.362
56507W        W28767  41.280  24.180  14.431
56508W        W28768  43.536  24.744   1.714
56509W        W28769  34.014  17.170   2.394
56510W        W28770  16.804  21.087  11.110
56511W        W28771  20.501  26.281   3.194
56512W        W28772   2.720  31.711  13.883
56513W        W28773  22.584  34.318  13.464
56514W        W28774  43.384  38.323  14.816
56515W        W28775  34.205  31.160  11.495
56516W        W28776  15.688   2.204   1.913
56517W        W28777  28.979   5.725   1.043
56518W        W28778  11.491  34.053  11.927
56519W        W28779  36.997   8.884   2.645
56520W        W28780  39.885  38.322   2.220
56521W        W28781  17.294  41.364   0.733
56522W        W28782   5.462  30.208   4.148
56523W        W28783  33.065   3.166   0.511
56524W        W28784   6.375  38.289   1.897
56525W        W28785   0.688  32.920  11.494
56526W        W28786  15.616  36.890  11.985
56527W        W28787  29.889  22.219   3.145
56528W        W28788   0.166  29.438  14.990
56529W        W28789  30.422  20.771   4.117
56530W        W28790  13.700  14.412   0.673
56531W        W28791  43.291  42.742  12.602
56532W        W28792  34.712  44.448  13.420
56533W        W28793   3.651  30.525   1.553
56534W        W28794  17.711   7.118  13.570
56535W        W28795   9.835  24.257  11.267
56536W        W28796  13.260   2.918   1.705
56537W        W28797  16.283  16.179  12.555
56538W        W28798  14.253  31.808  14.510
56539W        W28799  44.021   7.394   4.146
56540W        W28800   9.389  10.027  12.994
56541W        W28801  27.469  34.560  11.475
56542W        W28802  16.869  39.684   4.994
56543W        W28803  20.492  17.182  12.079
56544W        W28804   4.653  36.395   4.092
56545W        W28805  24.050  41.744   0.275
56546W        W28806  32.418   3.930   0.368
56547W        W28807  31.865  35.679   3.825
56548W        W28808  33.999  11.321   0.826
56549W        W28809  38.877   5.953   1.777
56550W        W28810   7.618  33.092  11.558
56551W        W28811  20.099  18.109  11.950
56552W        W28812  31.910  44.467   4.125
56553W        W28813  19.001  12.602   1.800
56554W        W28814  15.535  21.169   3.170
56555W        W28815  34.071  15.172  10.295
56556W        W28816   3.821  36.758   4.210
56557W        W28817   2.361   7.996   2.545
56558W        W28818   8.636   0.416  11.356
56559W        W28819  28.004  26.948   4.377
56560W        W28820  10.823  21.890  14.470
56561W        W28821  41.444  18.308  10.754
56562W        W28822  42.679  23.240  10.627
56563W        W28823  28.509  37.735   0.051
56564W        W28824  43.344  36.358  11.262
56565W        W28825  11.705  44.894   0.205
56566W        W28826  30.188  10.897  10.971
56567W        W28827  11.686   1.314  13.846
56568W        W28828  35.794  36.642  14.402
56569W        W28829  39.474  28.418   2.941
56570W        W28830   0.799  28.079   1.245
56571W        W28831  32.450  11.728  11.314
56572W        W28832  44.663  44.031  11.247
56573W        W28833  30.583   7.326  14.840
56574W        W28834  22.101  22.712   2.757
56575W        W28835  20.147   5.565  10.428
56576W        W28836  14.659  35.389   1.491
56577W        W28837  10.937  29.361  13.436
56578W        W28838  14.020  39.978  11.965
56579W        W28839   0.780  33.824  12.998
56580W        W28840   4.691  24.647  13.355
56581W        W28841  31.596  14.368  14.764
56582W        W28842  37.152  17.028   3.249
56583W        W28843  40.809  44.964   4.376
56584W        W28844  44.570  13.740   4.317
56585W        W28845  20.569  35.852   3.858
56586W        W28846   9.247  28.526  10.704
56587W        W28847  27.950  14.260   1.421
56588W        W28848  44.824   6.930  12.819
56589W        W28849   8.311  17.336  13.687
56590W        W28850   8.628   8.872  14.936
56591W        W28851  29.054   1.560  11.713
56592W        W28852  37.895  43.185   3.792
56593W        W28853   7.114  17.330  12.499
56594W        W28854  26.924  27.159   4.945
56595W        W28855   4.122  25.962  12.486
56596W        W28856  16.808  31.457  14.324
56597W        W28857   7.144   3.886  13.398
56598W        W28858  28.641  10.701  12.849
56599W        W28859  21.514  44.259  11.469
56600W        W28860  42.507  29.943   4.179
56601W        W28861  21.581  10.715   4.603
56602W        W28862   0.872  18.624   4.531
56603W        W28863  24.592  32.949  14.814
56604W        W28864  29.081  44.008  10.680
56605W        W28865  12.554  17.265   0.409
56606W        W28866   8.179  11.083   0.830
56607W        W28867  22.295  17.035  13.852
56608W        W28868   3.613   9.274   1.105
56609W        W28869  25.844  17.525   1.375
56610W        W28870  44.422  11.082   1.945
56611W        W28871  24.142  20.027  14.713
56612W        W28872   6.093  43.837   0.296
56613W        W28873  35.854  14.653  11.981
56614W        W28874   2.228  11.400  13.717
56615W        W28875   0.895  43.211   4.564
56616W        W28876  28.434  40.716  10.427
56617W        W28877  25.584  35.124   1.785
56618W        W28878  26.365   2.303   4.178
56619W        W28879  38.896   7.217   5.495
56620W        W28880  41.856  12.606  14.398
56621W        W28881  11.023   2.892   3.260
56622W        W28882   5.169  32.194   4.193
56623W        W28883  14.556  22.482   2.670
56624W        W28884   0.245  18.198  13.368
56625W        W28885  31.097  34.862   2.830
56626W        W28886  42.595  25.736   4.162
56627W        W28887  16.324  39.949  11.575
56628W        W28888  42.032  36.490  14.955
56629W        W28889  12.407  24.019   0.488
56630W        W28890  28.934  23.434   4.050
56631W        W28891  18.071  25.452  11.971
56632W        W28892  15.386  39.884  13.317
56633W        W28893   5.840   4.837   3.232
56634W        W28894  39.611  24.299  13.272
56635W        W28895  42.774  32.112  11.530
56636W        W28896  14.869   5.731   2.994
56637W        W28897  38.019  20.195   4.758
56638W        W28898  44.331   2.328   1.450
56639W        W28899  37.422  30.013   4.036
56640W        W28900  42.375  38.363  11.829
56641W        W28901  22.500  11.542  11.763
56642W        W28902  24.118  19.209  10.379
56643W        W28903  27.591  36.391   0.541
56644W        W28904  38.226   0.438   0.322
56645W        W28905   6.378  30.664   0.712
56646W        W28906  42.346  39.547   4.577
56647W        W28907   0.777   8.866  13.609
56648W        W28908  16.286  36.871   2.383
56649W        W28909  35.238  33.565   2.225
56650W        W28910  13.652   7.760   3.292
56651W        W28911  40.947  23.800   4.444
56652W        W28912  21.304  11.829  10.540
56653W        W28913   9.380   5.765   2.773
56654W        W28914  39.017  26.137  10.564
56655W        W28915  43.859  21.116  14.898
56656W        W28916  11.110   8.617  13.042
56657W        W28917   4.265  26.904  10.629
56658W        W28918  42.805  21.109   2.339
56659W        W28919   0.649  19.555   3.271
56660W        W28920  26.157  16.759  14.386
56661W        W28921  30.155  32.182   5.683
56662W        W28922  11.308  40.587   0.749
56663W        W28923  10.156  15.853  12.833
56664W        W28924  26.372  42.351  10.429
56665W        W28925  40.185  30.011   3.779
56666W        W28926  30.020  44.780   3.319
56667W        W28927  17.532  23.460  12.630
56668W        W28928  41.849  12.393   4.236
56669W        W28929   4.182   6.272   2.991
56670W        W28930  28.945  42.210   0.437
56671W        W28931  35.165  12.199   4.063
56672W        W28932  26.877  31.573  11.634
56673W        W28933  23.981  19.029   1.199
56674W        W28934  44.483  16.486   3.292
56675W        W28935  42.243  26.772  13.500
56676W        W28936  37.761  38.831  11.290
56677W        W28937  27.238  31.883   4.577
56678W        W28938  40.262  33.041  11.034
56679W        W28939  11.292  36.086  11.086
56680W        W28940   1.007  32.556  11.629
56681W        W28941  22.021  34.729   3.219
56682W        W28942  11.030  28.711  12.580
56683W        W28943  25.346   2.663   3.601
56684W        W28944  36.649  32.171  12.169
56685W        W28945  39.775   2.297   2.348
56686W        W28946  34.143   0.949  10.116
56687W        W28947  23.188  16.597  13.765
56688W        W28948  19.138  34.680   4.446
56689W        W28949  23.615   7.737  13.998
56690W        W28950  25.131  37.374   4.121
56691W        W28951  43.768  37.088  12.981
56692W        W28952  11.252   3.368   0.874
56693W        W28953   7.359  36.125  11.125
56694W        W28954   8.437  21.185   1.636
56695W        W28955  25.137   1.735   3.876
56696W        W28956   9.572   3.959   2.812
56697W        W28957  30.002  43.402   2.111
56698W        W28958  24.060   2.721   4.279
56699W        W28959  22.338  43.955   0.530
56700W        W28960  21.246   2.330  11.123
56701W        W28961  38.295  20.758  12.458
56702W        W28962  31.363   7.313   0.398
56703W        W28963   7.892  24.687  13.563
56704W        W28964  24.464   8.411   2.299
56705W        W28965  36.089  10.707   1.844
56706W        W28966   8.111  37.942  12.061
56707W        W28967  40.078  11.731   2.076
56708W        W28968   1.690  14.728   1.833
56709W        W28969  12.572  10.705  11.819
56710W        W28970  36.631  35.163  13.565
56711W        W28971   8.871  20.893  13.053
56712W        W28972  15.735   3.603   3.396
56713W        W28973  25.159   3.463   2.039
56714W        W28974  21.523  43.718   4.548
56715W        W28975   9.850  39.780  14.764
56716W        W28976   3.191  36.970   4.525
56717W        W28977  27.148   2.756   1.908
56718W        W28978  16.157  31.530  11.450
56719W        W28979   9.758   3.401   4.800
56720W        W28980  11.978  27.297  10.770
56721W        W28981  28.561  20.198   4.463
56722W        W28982   6.907  27.522   3.281
56723W        W28983  35.567  24.537   4.422
56724W        W28984  14.393  14.542   3.774
56725W        W28985  42.412  43.515   4.593
56726W        W28986  16.603  34.878  13.398
56727W        W28987  14.682  24.105   4.875
56728W        W28988  40.405  44.829   4.083
56729W        W28989   2.674  34.891  12.903
56730W        W28990  31.948  42.260  12.141
56731W        W28991  11.530  27.705  14.503
56732W        W28992  28.398  18.829  11.827
56733W        W28993  18.242  38.965  11.617
56734W        W28994  33.694  35.981   0.572
56735W        W28995  32.908   4.513   4.154
56736W        W28996  14.703  24.908   0.788
56737W        W28997  32.729   2.855  12.550
56738W        W28998   3.529  17.033   4.877
56739W        W28999   3.435  38.032  11.141
56740W        W29000   9.301   6.669   2.881
56741W        W29001  18.573  44.454   1.145
56742W        W29002  30.687   2.188   1.463
56743W        W29003  43.952   1.768  13.759
56744W        W29004  17.308  20.775   4.851
56745W        W29005   5.138  29.061  13.044
56746W        W29006   5.174  22.351  10.432
56747W        W29007  38.225  37.484   0.715
56748W        W29008  34.159  41.786  12.327
56749W        W29009  30.165  34.297  14.847
56750W        W29010  39.922   2.984   1.937
56751W        W29011  16.090  34.027  14.827
56752W        W29012  21.706  40.181   1.922
56753W        W29013  36.407   0.893   1.320
56754W        W29014  30.615  43.935   1.193
56755W        W29015  12.256   1.839  14.306
56756W        W29016  30.834  36.062   1.623
56757W        W29017  18.692  12.066  13.842
56758W        W29018  38.452  39.625   2.401
56759W        W29019   6.434  13.581  12.346
56760W        W29020   6.519  19.182  14.467
56761W        W29021  35.867  14.714   2.829
56762W        W29022  33.438  43.823   2.599
56763W        W29023  42.366  41.714   0.215
56764W        W29024   5.211  25.639  10.889
56765W        W29025  42.028  40.346   0.572
56766W        W29026   6.904  11.829   1.724
56767W        W29027   3.300  36.415   2.174
56768W        W29028  35.877  20.626   1.307
56769W        W29029  21.470  28.939  13.308
56770W        W29030  21.714  25.136   2.084
56771W        W29031  30.113  17.765  11.961
56772W        W29032  31.385   9.842  13.353
56773W        W29033  44.973  16.760  10.651
56774W        W29034  33.529   8.307   3.626
56775W        W29035  20.545   8.840  14.393
56776W        W29036  37.659  37.391   4.702
56777W        W29037  17.998  31.662   4.734
56778W        W29038  36.403  19.137   0.019
56779W        W29039  23.060   2.982  10.327
56780W        W29040  17.656  15.232  14.043
56781W        W29041  13.525   2.983  14.360
56782W        W29042  29.469  20.600  13.942
56783W        W29043  14.149  36.554  11.948
56784W        W29044  38.145   5.494   4.711
56785W        W29045   8.171  32.470  11.065
56786W        W29046  26.469   1.084  13.311
56787W        W29047  34.927  29.365  10.397
56788W        W29048  16.785  31.836  12.934
56789W        W29049  30.028   7.455  10.652
56790W        W29050  31.440   0.424   0.755
56791W        W29051  11.669  27.691  10.869
56792W        W29052  43.381  21.954   4.556
56793W        W29053  42.349  28.917  11.155
56794W        W29054  31.416  14.837  13.445
56795W        W29055  41.037   1.797  14.662
56796W        W29056   4.945  38.205  11.465
56797W        W29057  29.029  14.255  13.297
56798W        W29058  26.498   5.820  12.578
56799W        W29059   5.118  20.218  14.987
56800W        W29060  13.191  17.752   1.761
56801W        W29061   4.669  25.321   0.735
56802W        W29062  25.995   8.168  14.970
56803W        W29063  32.751  10.497  11.086
56804W        W29064  26.132   4.461  10.612
56805W        W29065  15.512  21.719  14.524
56806W        W29066  16.743  30.123  14.233
56807W        W29067  42.973  16.675  11.545
56808W        W29068  16.026  44.284  12.689
56809W        W29069  38.419  17.291   0.909
56810W        W29070   8.976   5.432  11.128
56811W        W29071  42.682   8.777   0.805
56812W        W29072   2.187   3.383  11.106
56813W        W29073   1.407  42.393   4.692
56814W        W29074  27.543  26.685  11.544
56815W        W29075  30.056   6.744   4.161
56816W        W29076  19.574  28.524  11.657
56817W        W29077  29.115  42.253  14.932
56818W        W29078   5.868  28.196  14.355
56819W        W29079  39.092  17.180   5.054
56820W        W29080   0.458  10.199   0.512
56821W        W29081   7.342  20.839   0.957
56822W        W29082  12.305  31.538   1.850
56823W        W29083  14.311  29.419   4.501
56824W        W29084   3.263   0.280   3.582
56825W        W29085  32.990  33.576   3.685
56826W        W29086  38.860   6.936  14.362
56827W        W29087  39.473  12.381  11.632
56828W        W29088  28.486  31.568  11.452
56829W        W29089  39.107  11.675   3.296
56830W        W29090  26.577  17.105   1.498
56831W        W29091   2.318   9.950  13.923
56832W        W29092  10.339  24.880   4.907
56833W        W29093  19.565  36.190   4.261
56834W        W29094   9.025   6.715  12.331
56835W        W29095  41.812  12.738  10.293
56836W        W29096   6.517  36.474  14.154
56837W        W29097  20.669  40.091   1.752
56838W        W29098  23.124   4.700   0.913
56839W        W29099  37.510   5.968   0.949
56840W        W29100  42.852  10.096  14.342
56841W        W29101   1.155   2.406  14.394
56842W        W29102  35.133   4.468   2.815
56843W        W29103  10.541   3.833  11.533
56844W        W29104   0.128  33.839  12.484
56845W        W29105   7.892  40.806   0.265
56846W        W29106   4.460  28.610   4.033
56847W        W29107  34.019  21.936  10.709
56848W        W29108  41.337  11.914   3.879
56849W        W29109  44.452   0.572  11.551
56850W        W29110  21.638  33.899   1.283
56851W        W29111  30.190  22.061  10.589
56852W        W29112  44.348  29.869   0.330
56853W        W29113  25.817   3.748   2.176
56854W        W29114  34.875  39.085  10.147
56855W        W29115  23.123  39.457  13.438
56856W        W29116   0.211  31.015   0.867
56857W        W29117  14.545  25.679  13.927
56858W        W29118   6.797  33.132  14.744
56859W        W29119  28.189  31.553  14.245
56860W        W29120  30.105  15.741  12.774
56861W        W29121  24.117  21.657   3.744
56862W        W29122   3.396  35.362  14.471
56863W        W29123   3.386   6.278   5.124
56864W        W29124  31.980   3.639   0.337
56865W        W29125  41.063  24.949   0.878
56866W        W29126  19.304  44.052  10.702
56867W        W29127  31.761  41.015  11.586
56868W        W29128  23.060   9.385   4.082
56869W        W29129   9.783   1.720  13.920
56870W        W29130  31.433  31.139  10.652
56871W        W29131  24.636   7.198   3.181
56872W        W29132  28.558  26.292  11.131
56873W        W29133  19.155  43.299   3.732
56874W        W29134   5.419  18.360   1.180
56875W        W29135  14.753   3.708   1.121
56876W        W29136  36.892  22.516   3.294
56877W        W29137  35.109  44.292   0.640
56878W        W29138   4.301  29.903   1.369
56879W        W29139  21.213   0.832   3.161
56880W        W29140  25.141  38.929   2.665
56881W        W29141   8.399  18.706  11.574
56882W        W29142  42.317   1.119  12.907
56883W        W29143  22.466  20.948  13.499
56884W        W29144   6.320  17.180   2.751
56885W        W29145  32.358  11.934  14.311
56886W        W29146  38.812   8.223   2.799
56887W        W29147   3.983  28.510   3.260
56888W        W29148  15.500  10.113  12.404
56889W        W29149   6.018  42.430   0.269
56890W        W29150  42.719  24.648   4.843
56891W        W29151  22.684  42.077  12.190
56892W        W29152  16.103  42.082  11.032
56893W        W29153   6.038  43.750   4.055
56894W        W29154  26.501  40.935  11.458
56895W        W29155  28.677   6.487   4.117
56896W        W29156  29.424  31.039  14.571
56897W        W29157  31.466  29.591   2.730
56898W        W29158  43.972  41.800  12.478
56899W        W29159  23.953  26.054  14.389
56900W        W29160  39.934   1.177  13.553
56901W        W29161  10.121  25.157  12.453
56902W        W29162  43.765  25.015  13.457
56903W        W29163  38.861  20.334   4.079
56904W        W29164  16.793   9.758   0.296
56905W        W29165  25.680  30.586   2.685
56906W        W29166  17.110  13.621  10.569
56907W        W29167  34.406  13.847  10.687
56908W        W29168  44.057  28.693   2.702
56909W        W29169  20.598  17.883  12.465
56910W        W29170  35.819  27.951  14.340
56911W        W29171  38.094   7.998   5.146
56912W        W29172  37.271   7.381   1.742
56913W        W29173  17.241  13.213  12.946
56914W        W29174  27.090   0.577   2.675
56915W        W29175   0.993  12.324   4.476
56916W        W29176  20.105   2.200  10.619
56917W        W29177   0.144   6.575  14.441
56918W        W29178  17.503   5.344  10.791
56919W        W29179  16.737   3.766   0.428
56920W        W29180  25.046  23.740   2.363
56921W        W29181  19.243  12.841  11.525
56922W        W29182  15.625  19.808  12.432
56923W        W29183  26.149  29.698   1.186
56924W        W29184  27.041  15.258  10.464
56925W        W29185   9.017  42.709  14.459
56926W        W29186  15.277  27.414  14.070
56927W        W29187  21.380  28.863  11.575
56928W        W29188  27.979  44.392  12.878
56929W        W29189  37.055  39.039  13.880
56930W        W29190  40.903  37.578  14.785
56931W        W29191   3.151  34.546   1.984
56932W        W29192   3.394   8.267  12.610
56933W        W29193  29.455   9.160   0.236
56934W        W29194  42.781  38.955   3.842
56935W        W29195  17.792  24.966  12.518
56936W        W29196  10.271  36.802   1.274
56937W        W29197  20.620  26.537   2.746
56938W        W29198  12.414  21.292   0.907
56939W        W29199  20.866   5.822  11.947
56940W        W29200  27.937  21.631   3.264
56941W        W29201  32.070  42.500  12.573
56942W        W29202  24.444   3.934   0.977
56943W        W29203   0.824   4.573   4.529
56944W        W29204  38.576  12.215  14.846
56945W        W29205   9.105  39.847  12.090
56946W        W29206  32.513   2.565  12.911
56947W        W29207  24.894  43.630  11.178
56948W        W29208  16.795   9.046  12.581
56949W        W29209  17.780  17.246   4.970
56950W        W29210  33.688  13.087  10.690
56951W        W29211  40.345   8.901   0.525
56952W        W29212  41.440  39.487  13.637
56953W        W29213  42.195  26.992  12.547
56954W        W29214  32.346  41.378   3.733
56955W        W29215  11.741   2.877   4.818
56956W        W29216  24.762  10.938   2.211
56957W        W29217  33.229  22.451   4.619
56958W        W29218  30.528  12.912  14.320
56959W        W29219  26.631   3.145   4.566
56960W        W29220  10.015  11.157  10.230
56961W        W29221  25.995  36.898  14.936
56962W        W29222   3.487   1.878  11.814
56963W        W29223  33.719   1.256  10.155
56964W        W29224   7.016  16.158   2.416
56965W        W29225   7.845  19.517   0.939
56966W        W29226  44.461  17.302  13.962
56967W        W29227   4.067   1.356   3.663
56968W        W29228  34.517   7.730  10.983
56969W        W29229  14.261  30.518   4.094
56970W        W29230  31.053  29.338  10.590
56971W        W29231  25.929  42.273  11.907
56972W        W29232  32.152  43.906  13.387
56973W        W29233  27.897   5.182   1.918
56974W        W29234  20.076  11.088  14.374
56975W        W29235  39.327  39.554   4.532
56976W        W29236   7.830  20.702   3.750
56977W        W29237  10.067   5.747  12.039
56978W        W29238   0.925  13.771  12.416
56979W        W29239   0.445  25.084  10.962
56980W        W29240   0.034  15.287  14.417
56981W        W29241  32.561  10.707   1.390
56982W        W29242  20.807  11.669   2.260
56983W        W29243  37.352  11.098   4.099
56984W        W29244   1.226  43.716  12.621
56985W        W29245   5.802   7.648  14.264
56986W        W29246  16.540  38.495  11.507
56987W        W29247  32.036  40.568  10.566
56988W        W29248  30.081  39.853   4.561
56989W        W29249   6.386  41.457  11.924
56990W        W29250  37.614  33.999  12.097
56991W        W29251  17.052   3.852  10.402
56992W        W29252  15.303  32.350  11.508
56993W        W29253   5.731  22.160   3.912
56994W        W29254   9.320  31.877   1.650
56995W        W29255  24.281  26.012  11.512
56996W        W29256  26.596  34.606  11.910
56997W        W29257  18.056  20.729  12.090
56998W        W29258  18.551  16.574   0.847
56999W        W29259   7.490   9.071  11.530
57000W        W29260   2.254  44.798   3.820
57001W        W29261  44.051  29.455  12.432
57002W        W29262  32.730  24.639   4.788
57003W        W29263  40.714  23.415  13.511
57004W        W29264  42.450   4.303   3.697
57005W        W29265  16.526   7.196   5.045
57006W        W29266  20.610   0.957  10.925
57007W        W29267   8.182  38.501  13.294
57008W        W29268   9.778   4.461  11.603
57009W        W29269  40.295   5.874   1.912
57010W        W29270  18.347  20.304  12.463
57011W        W29271   4.948  18.418  12.964
57012W        W29272  21.673  30.656   4.111
57013W        W29273  44.745  32.026   0.923
57014W        W29274  16.297  37.514   2.757
57015W        W29275   4.697   3.883   2.901
57016W        W29276  36.464   1.979   3.650
57017W        W29277  37.124  41.454  14.224
57018W        W29278  30.103  21.806  14.221
57019W        W29279  16.771  40.693   0.856
57020W        W29280  40.959   6.711   3.825
57021W        W29281  33.604   4.741  10.243
57022W        W29282  29.337   9.874   2.696
57023W        W29283  43.368   7.704   1.920
57024W        W29284  30.126  10.761   3.824
57025W        W29285  42.795  25.941   3.737
57026W        W29286  41.003  43.849   1.996
57027W        W29287   7.749  39.534   0.934
57028W        W29288  20.677  17.455   3.786
57029W        W29289  43.695  15.816  12.757
57030W        W29290  35.675  14.233   2.792
57031W        W29291  24.132   1.031  11.156
57032W        W29292  30.622  30.355   0.358
57033W        W29293  38.114  32.523  12.902
57034W        W29294  43.014  16.638  12.456
57035W        W29295   9.402  41.136  12.555
57036W        W29296  41.861  34.292   4.620
57037W        W29297   8.589  39.815  11.289
57038W        W29298   6.380  36.862  12.873
57039W        W29299  13.763  23.480  14.792
57040W        W29300  10.922  30.547  11.097
57041W        W29301   7.464  26.642   4.568
57042W        W29302   2.840  32.020   3.387
57043W        W29303   3.433   0.852   1.660
57044W        W29304  12.775  44.240  10.682
57045W        W29305  35.535  25.158   0.601
57046W        W29306  35.497   1.844   3.166
57047W        W29307  34.830  28.994   4.108
57048W        W29308  31.578   1.965   0.638
57049W        W29309  27.191  42.077   0.982
57050W        W29310  27.424  38.988   3.186
57051W        W29311  13.222  23.997  10.770
57052W        W29312  36.473   0.416  11.689
57053W        W29313  20.374  39.881  10.650
57054W        W29314  22.757   0.039  10.663
57055W        W29315  37.939   9.916  10.518
57056W        W29316  42.387  23.976  13.641
57057W        W29317   2.907  28.070  12.044
57058W        W29318  42.362  22.528   1.812
57059W        W29319   3.058  39.431  14.999
57060W        W29320  18.878  35.692  10.052
57061W        W29321   8.636  18.035  11.177
57062W        W29322  15.478  42.870   5.092
57063W        W29323  34.008   1.399   0.738
57064W        W29324  32.435  32.456  14.742
57065W        W29325   2.323  35.433  10.653
57066W        W29326   1.582  18.825  13.247
57067W        W29327  23.692  24.671   1.601
57068W        W29328  42.033   1.664   4.263
57069W        W29329   5.219  36.455  14.353
57070W        W29330  20.827  44.102   1.441
57071W        W29331   9.296  33.926  13.002
57072W        W29332  37.697  20.646  11.125
57073W        W29333  41.529  42.558   0.902
57074W        W29334  18.640   2.335   0.797
57075W        W29335  20.881  10.742   1.497
57076W        W29336  16.185   2.699  13.922
57077W        W29337   9.268  23.528   1.674
57078W        W29338  29.428  31.640   4.109
57079W        W29339  22.053   7.219   0.503
57080W        W29340   3.183  41.988   5.025
57081W        W29341   8.383  14.801   0.417
57082W        W29342   6.922  38.995  11.933
57083W        W29343  15.763   4.777   4.652
57084W        W29344  42.533  12.753  10.494
57085W        W29345  32.616  10.957  14.386
57086W        W29346  43.516  41.250  11.163
57087W        W29347  11.648   7.401   3.077
57088W        W29348  15.778  21.572  11.096
57089W        W29349  44.484  42.391   1.990
57090W        W29350  26.068  19.174  14.368
57091W        W29351  39.419  36.597   3.651
57092W        W29352  30.474  38.901   2.589
57093W        W29353  18.402  15.484  12.467
57094W        W29354  35.808  27.577   2.272
57095W        W29355  19.818   3.239   1.711
57096W        W29356   2.379  35.172  13.226
57097W        W29357  32.710  35.850   4.964
57098W        W29358  20.272  10.789   4.142
57099W        W29359  39.474  28.059  12.455
57100W        W29360   8.423  18.823  14.331
57101W        W29361  19.267  16.356  12.915
57102W        W29362  41.909  40.018  13.869
57103W        W29363  24.921  39.577   2.189
57104W        W29364  28.643  24.479  13.636
57105W        W29365   6.353   7.558  14.575
57106W        W29366  14.172  12.082  10.683
57107W        W29367  11.690  20.607  11.333
57108W        W29368  41.906  27.191  14.766
57109W        W29369  42.068  43.303  14.912
57110W        W29370  13.873  37.861   0.023
57111W        W29371  44.445  33.164   4.624
57112W        W29372  21.945   0.824  14.494
57113W        W29373  15.054  16.088   2.855
57114W        W29374  27.716   1.402  13.522
57115W        W29375  22.116  25.024   0.624
57116W        W29376  10.421   8.322   2.777
57117W        W29377  20.059   5.695   1.824
57118W        W29378  18.300  21.669  13.944
57119W        W29379   9.371  18.130   0.911
57120W        W29380  18.080  44.386   0.979
57121W        W29381  13.540  18.998   3.217
57122W        W29382  31.445  18.090  12.398
57123W        W29383  39.616  32.848   1.617
57124W        W29384   9.561   2.780  14.924
57125W        W29385  40.421  12.636   1.024
57126W        W29386  28.132  18.062  12.597
57127W        W29387  37.066   2.349   3.293
57128W        W29388  14.099  18.209  14.318
57129W        W29389  39.469   5.223   3.081
57130W        W29390  12.773  37.952   1.346
57131W        W29391   2.207   5.875  12.415
57132W        W29392  13.390  37.048  14.124
57133W        W29393  16.730  38.421   4.121
57134W        W29394   8.253  24.641  11.179
57135W        W29395  24.999   7.574  13.755
57136W        W29396   8.325  37.556   3.891
57137W        W29397  15.534  20.675   3.253
57138W        W29398  36.335  41.847   2.974
57139W        W29399  12.638  17.855  11.086
57140W        W29400   6.376  34.261   4.207
57141W        W29401  37.937  31.856  14.834
57142W        W29402   6.393  24.252  11.970
57143W        W29403  41.867  24.801   3.706
57144W        W29404   0.526   9.707  11.559
57145W        W29405  21.215  38.638  12.216
57146W        W29406   8.899   7.703   2.244
57147W        W29407  22.716  21.664   4.938
57148W        W29408   8.234  37.589   3.390
57149W        W29409  29.667   1.738   2.223
57150W        W29410   6.667  39.991  12.579
57151W        W29411   9.309  16.287  13.230
57152W        W29412  36.180   8.132   3.582
57153W        W29413  40.337  19.755   1.510
57154W        W29414  18.898  37.578   1.983
57155W        W29415   5.680  37.137   3.296
57156W        W29416  10.266  32.880   1.951
57157W        W29417   6.204  18.625  13.444
57158W        W29418  12.809  44.511   3.130
57159W        W29419   1.390   3.746  11.245
57160W        W29420   1.808  26.757  10.504
57161W        W29421  20.978   3.852  13.468
57162W        W29422  15.636  42.248   4.158
57163W        W29423  27.245  20.635   4.315
57164W        W29424  18.131   8.196  10.641
57165W        W29425  33.031  44.288   3.114
57166W        W29426   2.715  39.913  10.340
57167W        W29427  38.790  21.647  10.758
57168W        W29428  10.772  21.162  13.338
57169W        W29429  13.927  42.465  14.670
57170W        W29430  14.906  44.202   4.082
57171W        W29431  20.159   9.942   0.483
57172W        W29432  17.241   1.210   4.583
57173W        W29433  15.160  13.180   4.093
57174W        W29434  17.031  30.461   9.963
57175W        W29435   2.815  21.103   3.479
57176W        W29436  24.543  25.489   3.750
57177W        W29437  10.308  30.396  12.919
57178W        W29438  26.205  32.067  13.319
57179W        W29439  29.842  43.023   4.408
57180W        W29440   8.753  30.145  10.730
57181W        W29441  33.357   1.808   3.115
57182W        W29442   5.908  19.067   0.745
57183W        W29443  25.637  24.769   3.647
57184W        W29444  26.888   4.726   4.496
57185W        W29445  17.982  32.633  14.847
57186W        W29446  10.799  20.486   1.111
57187W        W29447  13.924  36.942   1.229
57188W        W29448  42.000  21.418   3.338
57189W        W29449   4.666  27.359   1.964
57190W        W29450  39.842   6.153   3.238
57191W        W29451  25.447  11.304  11.580
57192W        W29452   8.216   9.170  14.982
57193W        W29453  11.792   9.886  13.738
57194W        W29454  32.070  38.892   2.912
57195W        W29455  20.879  28.630  13.372
57196W        W29456  18.346  31.644   3.629
57197W        W29457   6.659  44.136  11.146
57198W        W29458  30.083   5.470  12.557
57199W        W29459  32.461   6.768  14.859
57200W        W29460  13.841  44.458   4.179
57201W        W29461  26.542  18.279   3.379
57202W        W29462   4.672  42.450   0.048
57203W        W29463  38.843  25.076  14.378
57204W        W29464  23.675  22.704   4.130
57205W        W29465  33.859  23.618  11.551
57206W        W29466  13.973  33.017  11.485
57207W        W29467   2.725  15.844  11.241
57208W        W29468  42.987  15.753   1.639
57209W        W29469  41.712   9.436  10.332
57210W        W29470   0.411  24.807  12.094
57211W        W29471  17.430  43.486   4.739
57212W        W29472  31.857   7.372  13.090
57213W        W29473   2.201  43.844  12.947
57214W        W29474  37.669  23.244  14.222
57215W        W29475   8.442   4.057   1.367
57216W        W29476  24.800  41.535   3.641
57217W        W29477  20.152  31.067   0.779
57218W        W29478  29.159  19.729  14.330
57219W        W29479  26.459  42.976  13.510
57220W        W29480   9.393  30.642  12.521
57221W        W29481  43.778  15.130  13.550
57222W        W29482   7.071  27.705   4.983
57223W        W29483  16.213   5.198   4.567
57224W        W29484  44.906  16.834  13.517
57225W        W29485  32.893  17.108  10.759
57226W        W29486  35.725  10.090   2.545
57227W        W29487  38.607  23.584  14.336
57228W        W29488  20.406  26.739  11.231
57229W        W29489   9.472  44.295   1.921
57230W        W29490  20.420  16.704   1.213
57231W        W29491  11.355  14.759  11.391
57232W        W29492  30.740   1.427   1.318
57233W        W29493  22.614   3.489   0.700
57234W        W29494  21.038   7.105   3.403
57235W        W29495  31.847  37.798  12.452
57236W        W29496   9.283   2.464  11.911
57237W        W29497  26.575  28.213   3.775
57238W        W29498  20.093  32.986  12.512
57239W        W29499  16.663  16.706   3.709
57240W        W29500  24.933  42.492  12.163
57241W        W29501  22.542   5.264   3.373
57242W        W29502  13.191   7.797   4.671
57243W        W29503  42.328  28.194   4.949
57244W        W29504  42.758  42.531   2.657
57245W        W29505  24.680  42.865  10.766
57246W        W29506  14.297  36.432  13.348
57247W        W29507  37.583   1.789   0.580
57248W        W29508  33.481  14.410   0.416
57249W        W29509  36.788  31.650   2.810
57250W        W29510  33.548  11.630  13.487
57251W        W29511  30.929   4.812  10.938
57252W        W29512   0.474   2.473  14.889
57253W        W29513  23.746   0.357   2.738
57254W        W29514  17.636  10.560   0.839
57255W        W29515  29.956  20.580  13.742
57256W        W29516  16.716   8.726   3.222
57257W        W29517  22.674   9.941  14.355
57258W        W29518  20.061   4.450   0.728
57259W        W29519   0.020  30.060  12.926
57260W        W29520  41.036   9.586   0.703
57261W        W29521  26.511  40.418  11.458
57262W        W29522  21.541  24.961  10.722
57263W        W29523  26.896  11.475   4.175
57264W        W29524  14.780  31.006   1.881
57265W        W29525  15.275  15.788   0.234
57266W        W29526  25.740  25.718  12.059
57267W        W29527  10.963   0.780  12.922
57268W        W29528  18.094  16.395   1.275
57269W        W29529  36.429  15.475   9.934
57270W        W29530  30.640  21.219  13.789
57271W        W29531  23.804  36.482  11.927
57272W        W29532  29.649   8.103   0.961
57273W        W29533  37.308  23.573  14.937
57274W        W29534   9.168  42.005  11.583
57275W        W29535  15.282  27.257   3.344
57276W        W29536  38.961  44.959  10.967
57277W        W29537  18.353  18.235  14.021
57278W        W29538  39.912  33.553   2.040
57279W        W29539  35.286   5.260   3.208
57280W        W29540  41.739  17.820   1.861
57281W        W29541   1.752   0.344  14.068
57282W        W29542  26.820   0.725   0.421
57283W        W29543  23.955  23.207  11.803
57284W        W29544  40.920  26.195  13.039
57285W        W29545  15.255  41.416   0.471
57286W        W29546  23.859  37.975   4.654
57287W        W29547  11.256  18.234  12.095
57288W        W29548  41.367  36.282  13.815
57289W        W29549  37.962   1.889   3.255
57290W        W29550  24.682  43.762   3.735
57291W        W29551   0.490  18.686   3.245
57292W        W29552  36.268  30.158   2.413
57293W        W29553  12.081  28.519  14.816
57294W        W29554   3.432   0.835  14.645
57295W        W29555  44.346  31.298  11.104
57296W        W29556  25.080  22.190   0.386
57297W        W29557  15.083   6.748  10.629
57298W        W29558  36.130   2.784  12.484
57299W        W29559  31.457  40.139   3.132
57300W        W29560  19.564  41.782   4.063
57301W        W29561   2.909  42.060   1.736
57302W        W29562   6.189   4.768  13.906
57303W        W29563   6.197  44.462  14.163
57304W        W29564  12.330  16.990   1.302
57305W        W29565  21.650  18.240   0.087
57306W        W29566   3.182  32.387   4.566
57307W        W29567  19.589  28.239  13.972
57308W        W29568   8.685  11.816  10.679
57309W        W29569   9.488  15.048  12.404
57310W        W29570  24.286  44.885  14.099
57311W        W29571  17.970  41.947   0.767
57312W        W29572  41.373  25.961  13.042
57313W        W29573  16.602  22.501   3.258
57314W        W29574   3.797  29.403   3.269
57315W        W29575  20.708  14.721   2.484
57316W        W29576   3.788  25.012   2.565
57317W        W29577  30.012  41.253   4.598
57318W        W29578  44.765  30.965  13.535
57319W        W29579  22.166  12.192  12.401
57320W        W29580  13.091   0.419   0.309
57321W        W29581  30.492  41.867  14.874
57322W        W29582  34.335  15.006  13.524
57323W        W29583   2.350  38.594   4.831
57324W        W29584   1.210  23.261  11.608
57325W        W29585  29.123  22.536   1.469
57326W        W29586  32.909   1.781   1.478
57327W        W29587  22.095  15.331  13.572
57328W        W29588  36.887  43.577   3.289
57329W        W29589  24.126   5.033   1.624
57330W        W29590  19.576   9.273   4.762
57331W        W29591  34.355   1.033  13.437
57332W        W29592  23.593  35.613  11.609
57333W        W29593   3.778  20.273   4.080
57334W        W29594  42.634  36.549  12.099
57335W        W29595  42.915   3.950  13.400
57336W        W29596  42.908  33.806   0.753
57337W        W29597  42.937  17.345   2.487
57338W        W29598   5.250  26.944  10.394
57339W        W29599   4.328   7.318  10.463
57340W        W29600  30.138   2.286  14.267
57341W        W29601  26.964  41.804  13.435
57342W        W29602  13.574  18.289   0.496
57343W        W29603  39.703  30.454   0.044
57344W        W29604  28.223  16.769   0.905
57345W        W29605  25.875  42.912   4.712
57346W        W29606  16.951  42.860   3.663
57347W        W29607  37.794  41.011   0.249
57348W        W29608  44.335  18.425   3.114
57349W        W29609  26.548   3.266  11.032
57350W        W29610  43.072  10.300  13.896
57351W        W29611  28.065  42.827   4.145
57352W        W29612  14.262  38.056   4.606
57353W        W29613  33.690  33.102  11.584
57354W        W29614  40.944  30.928   2.993
57355W        W29615  21.108  35.407  12.512
57356W        W29616   5.381  22.202  10.877
57357W        W29617  38.322   8.500  13.148
57358W        W29618  32.005  14.583   2.692
57359W        W29619   2.509   8.662   0.219
57360W        W29620  15.607  31.936  11.163
57361W        W29621  34.204  41.710   1.384
57362W        W29622   9.888  38.359   1.587
57363W        W29623   6.236  11.603   1.910
57364W        W29624  30.702  13.872  11.103
57365W        W29625   7.096  21.311  13.497
57366W        W29626  19.514  11.455  11.539
57367W        W29627   2.297  29.114  14.881
57368W        W29628  10.321  22.311  12.548
57369W        W29629  12.854  40.277   4.195
57370W        W29630  20.725  39.446   4.789
57371W        W29631  39.821  14.629   2.832
57372W        W29632  29.810  22.011  12.773
57373W        W29633   9.448  11.794   2.750
57374W        W29634  27.686  17.553   3.822
57375W        W29635  10.178  13.668   1.755
57376W        W29636  22.437  22.072   3.842
57377W        W29637  33.207   2.725  12.457
57378W        W29638  19.670  18.399   0.752
57379W        W29639  34.357  28.697   3.202
57380W        W29640  31.055  19.010   4.249
57381W        W29641  30.370  25.068   4.694
57382W        W29642   2.941  32.182  13.853
57383W        W29643   8.300  11.408   2.292
57384W        W29644  30.409  34.445  13.541
57385W        W29645   9.136  19.713   2.620
57386W        W29646  20.026  21.207  14.937
57387W        W29647  26.911   5.511  12.601
57388W        W29648  29.532  22.952   4.680
57389W        W29649  28.735   7.232   3.846
57390W        W29650   8.696  40.826   2.273
57391W        W29651  34.795   3.364  11.664
57392W        W29652  32.190  42.846  11.032
57393W        W29653  23.965  37.586  12.935
57394W        W29654  39.809   0.665   2.744
57395W        W29655  36.490  21.948   1.970
57396W        W29656  33.907   9.238   4.794
57397W        W29657   4.382  42.708   4.107
57398W        W29658   1.047   6.198   0.282
57399W        W29659  11.117   3.933   2.282
57400W        W29660  16.138  26.905   2.369
57401W        W29661  15.580  23.707  11.616
57402W        W29662   1.196  33.451  13.010
57403W        W29663   8.781   5.734   4.142
57404W        W29664   6.680   1.827  13.427
57405W        W29665  35.689  43.525  14.508
57406W        W29666  28.489   3.338  10.938
57407W        W29667  20.492  34.861   0.351
57408W        W29668  14.850  41.598   5.019
57409W        W29669  42.057  34.810  12.928
57410W        W29670  30.607  15.369   2.178
57411W        W29671  38.450  28.606   2.619
57412W        W29672  18.203  43.524  12.892
57413W        W29673  17.051  20.406   2.688
57414W        W29674  44.237   5.221  12.446
57415W        W29675  28.442  18.886  10.915
57416W        W29676  18.287   1.735   0.713
57417W        W29677  37.920   9.371  12.476
57418W        W29678   2.220  27.128   0.034
57419W        W29679  28.179  20.776  14.939
57420W        W29680   6.353   6.485   0.851
57421W        W29681   1.213  12.441  10.579
57422W        W29682  20.675  38.033  12.759
57423W        W29683   2.426   1.836   1.179
57424W        W29684  30.317  39.357   1.767
57425W        W29685  20.403  21.271   2.297
57426W        W29686   4.330  23.303   2.718
57427W        W29687  36.326  33.448   1.142
57428W        W29688  20.385   1.928   3.924
57429W        W29689   2.725  40.858   4.117
57430W        W29690  24.215  42.531  14.845
57431W        W29691  36.809  16.374   0.823
57432W        W29692  36.397  28.649   2.230
57433W        W29693  38.078  35.951  14.904
57434W        W29694  33.582  14.636   3.667
57435W        W29695   7.333  18.576   3.804
57436W        W29696  42.899  40.252  12.565
57437W        W29697   4.159   5.003  12.110
57438W        W29698   1.558   4.260  12.564
57439W        W29699  44.628  27.200  12.895
57440W        W29700   0.598  15.609   3.318
57441W        W29701   2.214  20.691   0.414
57442W        W29702  30.710  35.292  13.576
57443W        W29703  16.654  38.790  11.936
57444W        W29704  31.594  15.637  12.372
57445W        W29705  11.151  41.987   0.218
57446W        W29706  27.719   9.842  11.940
57447W        W29707  13.150  40.943  11.564
57448W        W29708  10.893   6.939  10.978
57449W        W29709  19.717   8.589   3.366
57450W        W29710  28.232  13.380  14.946
57451W        W29711  22.571  15.785  11.200
57452W        W29712  20.596  36.571   2.876
57453W        W29713  35.167  22.067  14.558
57454W        W29714  20.104  19.714  13.790
57455W        W29715  29.022  18.062  14.967
57456W        W29716  13.122  40.995  13.309
57457W        W29717  32.863  12.617  14.496
57458W        W29718   3.181  10.766   1.720
57459W        W29719   9.419  25.095   1.522
57460W        W29720  14.833  24.191  11.573
57461W        W29721  30.969  13.809  12.625
57462W        W29722  14.685   5.783  14.577
57463W        W29723  33.024  22.149   4.219
57464W        W29724  42.737  40.132  11.333
57465W        W29725  11.816   7.253   5.041
57466W        W29726  14.464  20.210  14.912
57467W        W29727   9.378  10.417   1.919
57468W        W29728  33.319  40.076   3.179
57469W        W29729  38.813  27.550   2.644
57470W        W29730  23.587  40.512   1.302
57471W        W29731   0.696  38.419   1.885
57472W        W29732  15.807  10.192  14.367
57473W        W29733   4.177   7.410   3.449
57474W        W29734  36.512   7.022  12.159
57475W        W29735  44.466   0.755  10.691
57476W        W29736  13.240  17.030  12.963
57477W        W29737  30.611  39.152   1.373
57478W        W29738   9.912  36.198  11.580
57479W        W29739   7.673  27.622   0.270
57480W        W29740   4.798  37.831  13.065
57481W        W29741  28.989  29.814  12.081
57482W        W29742  24.182  24.774   4.662
57483W        W29743  39.828  41.430  12.539
57484W        W29744   4.331   6.259   2.491
57485W        W29745  31.416  29.084  13.020
57486W        W29746   4.316  18.262   3.623
57487W        W29747  14.613  28.321   3.758
57488W        W29748  28.515  22.737  11.585
57489W        W29749  25.771  21.583   0.900
57490W        W29750  17.070  15.170   1.299
57491W        W29751  30.659  16.265   3.164
57492W        W29752  15.149  24.072  13.712
57493W        W29753  32.038  12.112   1.310
57494W        W29754  28.702  28.183  13.488
57495W        W29755  11.898  21.422   3.239
57496W        W29756  26.909   5.792   0.320
57497W        W29757   7.260   4.489   1.427
57498W        W29758  28.873  44.508   2.709
57499W        W29759  29.620  15.222   0.998
57500W        W29760  27.477  16.903  12.657
57501W        W29761   2.721  30.610   4.519
57502W        W29762  38.373  18.352  11.904
57503W        W29763   9.363  43.991  10.887
57504W        W29764  20.243   0.678  11.584
57505W        W29765  12.889   8.048  12.896
57506W        W29766   1.673  40.299  12.522
57507W        W29767   9.513   9.521   0.580
57508W        W29768  30.149  36.371  11.512
57509W        W29769  19.827  43.858   3.642
57510W        W29770  18.642   5.958   3.431
57511W        W29771  41.380  33.579   2.580
57512W        W29772  12.556   4.350   3.319
57513W        W29773  38.320  40.349  12.802
57514W        W29774  20.695  15.287   0.914
57515W        W29775  12.222  22.135   2.296
57516W        W29776  20.526  35.342   3.329
57517W        W29777  30.968   9.586  12.414
57518W        W29778  23.946  27.662   2.241
57519W        W29779  17.501  24.200   4.853
57520W        W29780  33.846   0.312   2.410
57521W        W29781  26.645   5.736  14.892
57522W        W29782  39.009  10.106  14.961
57523W        W29783  11.575   3.328   1.714
57524W        W29784  41.101   4.137  14.804
57525W        W29785  16.389   8.675   0.177
57526W        W29786  38.943  19.751   0.504
57527W        W29787  41.029  31.705  11.494
57528W        W29788  37.981  10.195  13.049
57529W        W29789  39.774  41.032  12.998
57530W        W29790  44.478  31.049  12.146
57531W        W29791  19.733  21.193   0.854
57532W        W29792  31.470  36.874  13.531
57533W        W29793  20.717   2.178   4.239
57534W        W29794  15.945  42.351   2.239
57535W        W29795  43.288  14.760   0.242
57536W        W29796   8.484  22.778  12.423
57537W        W29797  16.295   3.477   0.504
57538W        W29798  30.749  11.397   0.234
57539W        W29799  43.898  17.148  12.561
57540W        W29800  27.009   2.963   2.371
57541W        W29801  38.744  30.800  11.666
57542W        W29802   8.363  43.821   1.444
57543W        W29803  33.316   4.431   1.580
57544W        W29804   5.354  43.041  11.093
57545W        W29805  24.536   2.414  14.591
57546W        W29806  38.649  43.406   3.622
57547W        W29807  39.599  26.399   9.913
57548W        W29808  36.938  35.763  13.245
57549W        W29809   7.649  40.606  14.132
57550W        W29810  36.536  26.923  11.925
57551W        W29811  39.134  43.506   1.248
57552W        W29812  38.890  42.212  11.926
57553W        W29813   5.121  41.798   3.573
57554W        W29814   3.137  38.565  11.109
57555W        W29815  39.460   9.835  11.428
57556W        W29816  26.754  17.470  11.000
57557W        W29817  39.997  25.998  11.523
57558W        W29818  27.073  44.393  10.726
57559W        W29819  16.856  16.271   2.222
57560W        W29820  30.708  44.514  13.545
57561W        W29821  14.538  40.250  12.561
57562W        W29822   1.203  20.880   1.314
57563W        W29823  29.803  39.938  11.597
57564W        W29824   5.026  23.744   9.930
57565W        W29825  30.021  14.680   0.895
57566W        W29826  42.482  37.968  12.669
57567W        W29827  19.694  10.472  11.701
57568W        W29828  18.563  19.544   2.262
57569W        W29829  16.318   1.770   4.513
57570W        W29830  39.507   9.128  10.192
57571W        W29831  23.033  13.833   3.218
57572W        W29832  31.989  16.595  12.474
57573W        W29833  12.665  20.027  14.014
57574W        W29834   3.237  22.176   2.241
57575W        W29835  40.175  30.627   2.592
57576W        W29836  17.854   3.945  13.434
57577W        W29837  43.093  17.206   0.306
57578W        W29838  34.557  40.089   1.853
57579W        W29839  19.521  18.391  14.245
57580W        W29840  34.923  36.219   3.633
57581W        W29841  40.137  33.932   0.859
57582W        W29842   0.902  34.812  11.053
57583W        W29843   9.094  21.622  10.703
57584W        W29844  11.407  36.634  12.118
57585W        W29845  10.298  43.280  14.408
57586W        W29846  11.590  27.032   4.143
57587W        W29847   8.420  33.613   0.300
57588W        W29848  14.440  15.020   2.967
57589W        W29849  33.016  30.966  12.468
57590W        W29850  16.823  41.390   2.904
57591W        W29851  19.455  44.762   0.786
57592W        W29852   8.132  35.216   4.009
57593W        W29853   5.363  40.631   2.771
57594W        W29854  37.512  19.829  14.731
57595W        W29855  38.374  24.070  14.319
57596W        W29856  28.123  41.744   4.604
57597W        W29857  21.655  40.593  14.316
57598W        W29858  17.673  43.742   4.110
57599W        W29859  15.761  13.907  11.620
57600W        W29860   0.963  37.655  14.375
57601W        W29861   3.370  39.963   1.441
57602W        W29862   4.162  32.989  13.036
57603W        W29863   1.401  37.317  11.979
57604W        W29864  10.097  40.964  10.643
57605W        W29865  10.832  18.508   2.295
57606W        W29866   8.413  20.254   2.859
57607W        W29867   5.743  16.100  14.555
57608W        W29868  30.638   2.505  13.806
57609W        W29869  20.256  19.711  10.966
57610W        W29870  31.423  21.260   0.880
57611W        W29871  44.261   2.173   5.119
57612W        W29872   7.906  33.642   3.704
57613W        W29873   1.285  30.042   3.542
57614W        W29874  43.560  35.207   2.667
57615W        W29875   6.961  39.774   4.211
57616W        W29876  23.975  42.982  11.455
57617W        W29877  27.108  15.175  14.277
57618W        W29878  13.618  37.462  14.333
57619W        W29879   3.687  41.282  14.848
57620W        W29880  19.602  15.377  11.106
57621W        W29881  12.592  23.918   1.328
57622W        W29882  23.007  34.866  11.891
57623W        W29883  29.545   9.954   4.222
57624W        W29884  41.448  32.105   1.698
57625W        W29885  40.887  24.234  12.005
57626W        W29886   4.544  11.168   3.481
57627W        W29887  14.117  37.012  13.370
57628W        W29888  33.421  32.195  14.476
57629W        W29889  11.004  17.710  10.725
57630W        W29890   6.715   7.678   1.306
57631W        W29891  33.619  10.383  13.047
57632W        W29892  28.895  14.078   1.420
57633W        W29893  17.355  38.967   0.720
57634W        W29894  31.865  44.030  14.869
57635W        W29895  20.571   8.837   3.928
57636W        W29896  30.859  30.375   4.673
57637W        W29897  18.281  37.435  13.024
57638W        W29898   3.167  22.111   4.552
57639W        W29899  28.074  40.207   4.632
57640W        W29900  27.959  10.755   0.013
57641W        W29901  23.276  37.917  12.168
57642W        W29902   0.358  36.021   0.059
57643W        W29903  10.392  32.594  13.352
57644W        W29904  44.186  13.594   3.157
57645W        W29905  24.641  42.520  13.228
57646W        W29906   5.035  14.277   2.627
57647W        W29907  24.582  28.852   1.826
57648W        W29908  38.654  40.825  12.004
57649W        W29909  21.927   5.470   2.820
57650W        W29910  19.994  25.072   2.209
57651W        W29911  41.750  44.387  12.035
57652W        W29912  23.684   8.756   4.828
57653W        W29913  37.620  41.899   4.183
57654W        W29914  12.459  38.590  11.130
57655W        W29915  20.546   3.645   3.101
57656W        W29916  22.132  32.463  12.632
57657W        W29917  16.187  34.855   0.130
57658W        W29918  30.332  12.107  14.993
57659W        W29919  12.645  33.360   0.506
57660W        W29920  39.644   6.761  10.734
57661W        W29921  38.903   8.382   0.346
57662W        W29922  32.515  21.776  13.788
57663W        W29923   1.755  16.628   4.443
57664W        W29924  10.824  13.847   0.487
57665W        W29925   5.294  41.242  11.597
57666W        W29926   7.370  44.909   3.391
57667W        W29927  35.508   8.462   4.306
57668W        W29928   4.724   1.836  11.924
57669W        W29929  37.936  13.711  13.070
57670W        W29930  23.908  15.870   0.045
57671W        W29931   9.399   7.295   3.589
57672W        W29932   0.362  32.154  10.753
57673W        W29933  27.878  39.615  13.804
57674W        W29934  33.879  34.652   1.857
57675W        W29935  40.072  39.982   4.647
57676W        W29936  44.547   1.817  12.013
57677W        W29937   6.299  44.008   3.673
57678W        W29938  29.488  44.333   3.789
57679W        W29939  35.087  20.637  14.966
57680W        W29940   6.134  39.015  10.675
57681W        W29941  20.186   6.566  14.017
57682W        W29942   9.359  12.882  13.810
57683W        W29943  13.127  17.875   3.976
57684W        W29944  37.795   0.357   2.269
57685W        W29945   1.026  34.431   0.340
57686W        W29946  33.645  39.548   3.901
57687W        W29947  42.060   8.772   4.730
57688W        W29948  20.930   8.740  14.011
57689W        W29949  17.384  39.133  11.683
57690W        W29950  36.882  43.730   1.866
57691W        W29951  16.106  44.960  14.492
57692W        W29952  15.374  31.511   1.202
57693W        W29953   0.077   2.282   1.200
57694W        W29954  14.602  37.590   0.754
57695W        W29955  13.973  34.941  11.695
57696W        W29956  33.836  40.340   0.694
57697W        W29957   2.944  28.423  14.713
57698W        W29958   9.716  23.410  10.631
57699W        W29959  23.225  44.731  14.842
57700W        W29960  14.792  38.981  12.587
57701W        W29961   7.392  32.113  10.549
57702W        W29962  13.757  24.740  14.569
57703W        W29963   5.185  23.777  12.982
57704W        W29964  39.520  20.262  11.489
57705W        W29965  13.139  14.843   4.825
57706W        W29966   3.828  44.334   1.813
57707W        W29967  29.432  15.086   0.007
57708W        W29968   6.351  21.432   3.353
57709W        W29969  23.079  19.828   0.835
57710W        W29970  18.976  43.479   1.349
57711W        W29971  20.655  31.005  13.452
57712W        W29972  10.645  26.677   0.753
57713W        W29973  31.690  26.559  13.330
57714W        W29974   7.006  22.229  14.806
57715W        W29975  29.473  20.156   3.848
57716W        W29976  22.960  34.547  12.587
57717W        W29977  26.536  15.064  13.938
57718W        W29978  41.336  42.388   2.779
57719W        W29979  31.130   9.353   3.147
57720W        W29980   0.854  37.076  13.547
57721W        W29981  44.208  42.435   0.057
57722W        W29982  22.656  16.198  12.846
57723W        W29983  32.312  43.247  11.407
57724W        W29984  31.927   0.232  12.940
57725W        W29985  12.473  36.827  11.500
57726W        W29986  35.091  39.267   3.727
57727W        W29987  40.465   4.435  12.476
57728W        W29988  16.155  11.313  11.096
57729W        W29989  31.541   6.862  10.802
57730W        W29990  19.942   5.860  10.785
57731W        W29991   6.618  36.817   4.161
57732W        W29992  35.534  13.782   3.865
57733W        W29993   4.943  10.208   2.772
57734W        W29994  38.978  27.125  12.061
57735W        W29995  35.945  32.726   0.658
57736W        W29996  18.514   9.916   4.225
57737W        W29997   0.223   3.000   1.224
57738W        W29998  35.007   8.333  10.588
57739W        W29999  24.561  37.705  11.602
57740W        W30000  10.784  23.023   1.667
57741W        W30001  25.157  18.510   5.021
57742W        W30002  24.108  17.193   1.280
57743W        W30003  19.219  37.058   1.257
57744W        W30004   8.571  11.159   3.422
57745W        W30005  36.864  37.875   0.346
57746W        W30006  28.943  30.353  10.744
57747W        W30007   7.344  43.898   3.572
57748W        W30008  42.999  22.705   0.895
57749W        W30009   7.283   3.716  10.657
57750W        W30010  25.057  32.248  14.048
57751W        W30011  27.150   8.691  14.691
57752W        W30012  11.618   5.861  14.709
57753W        W30013  21.262   2.597   0.559
57754W        W30014  15.693  21.269  14.710
57755W        W30015  26.194  15.205   2.224
57756W        W30016  33.144  19.188   1.400
57757W        W30017  42.959  33.618  12.641
57758W        W30018  30.190  33.662   0.389
57759W        W30019  18.171  27.203   4.449
57760W        W30020  43.473  44.880   1.468
57761W        W30021  27.092  23.327   0.716
57762W        W30022  31.653  15.517   2.747
57763W        W30023  24.488   2.919   2.251
57764W        W30024  38.758  41.513  13.600
57765W        W30025  33.807  32.480  13.947
57766W        W30026  38.812  15.161   3.377
57767W        W30027  30.469  21.153   1.399
57768W        W30028   8.001  20.274   1.242
57769W        W30029  36.537  22.305  14.651
57770W        W30030   0.665  32.473   2.174
57771W        W30031  15.626  44.983  13.810
57772W        W30032  16.189  40.976   4.061
57773W        W30033  20.138  14.645   3.761
57774W        W30034  17.526  25.447  13.743
57775W        W30035  37.998  25.948  14.297
57776W        W30036  42.720  39.592   1.904
57777W        W30037   1.897  39.961  13.912
57778W        W30038  14.641  28.302  12.752
57779W        W30039  32.981  10.268  10.066
57780W        W30040  10.816  41.640   4.338
57781W        W30041   9.820  36.033   2.003
57782W        W30042  18.755   8.905  11.398
57783W        W30043  34.986   9.778  14.278
57784W        W30044   4.918   6.987   4.840
57785W        W30045  23.468  20.270   0.859
57786W        W30046  22.729  28.234  13.290
57787W        W30047  38.044  35.752   0.390
57788W        W30048  27.017  14.658   0.780
57789W        W30049  28.599  30.910  11.609
57790W        W30050  31.030  18.184   0.312
57791W        W30051  37.469  10.147   3.741
57792W        W30052   7.084  19.756   5.027
57793W        W30053  41.743  25.582  10.632
57794W        W30054  15.752   3.305  13.595
57795W        W30055  16.878   5.834  12.925
57796W        W30056  11.767  21.519   0.347
57797W        W30057  26.278   9.325  12.226
57798W        W30058  35.933  18.216  13.498
57799W        W30059   4.975  22.588   5.222
57800W        W30060  42.241  37.761   0.156
57801W        W30061  39.531  30.780  12.269
57802W        W30062  37.582  21.962   2.719
57803W        W30063  32.420  13.652   1.875
57804W        W30064   4.957  18.143   0.267
57805W        W30065  26.170   6.729   4.291
57806W        W30066  21.428  38.626   2.180
57807W        W30067  31.937  23.384  10.999
57808W        W30068  16.454  22.158  12.395
57809W        W30069  41.412  10.843  13.848
57810W        W30070  44.506  39.995   4.536
57811W        W30071  25.193  44.281   2.184
57812W        W30072   7.783  24.047   3.288
57813W        W30073  40.539  16.534   0.797
57814W        W30074   3.279  17.979  12.648
57815W        W30075  16.402   0.795   2.332
57816W        W30076  44.647  24.065   2.549
57817W        W30077  36.042  23.003   4.119
57818W        W30078  37.362   4.731  11.203
57819W        W30079  40.311  40.922   0.690
57820W        W30080   0.223  26.483  14.194
57821W        W30081  40.003   9.849   2.553
57822W        W30082   0.027  25.341   5.025
57823W        W30083  28.148  41.251  14.888
57824W        W30084  22.639  23.009  12.600
57825W        W30085  40.350  12.379   3.203
57826W        W30086  38.055  23.004  14.523
57827W        W30087  22.738  36.015  11.269
57828W        W30088  14.511  32.005   3.022
57829W        W30089  17.547  15.895   3.227
57830W        W30090  40.626  20.014  10.725
57831W        W30091  15.551  13.540  11.096
57832W        W30092  25.849   7.329   2.122
57833W        W30093  35.901  34.025  14.815
57834W        W30094   5.935  29.096  14.272
57835W        W30095  13.715  10.110  12.105
57836W        W30096  42.566  34.996  10.687
57837W        W30097  28.393  11.272  13.412
57838W        W30098  36.462   5.319   3.380
57839W        W30099   6.104   7.774  11.116
57840W        W30100  36.540  15.684   2.228
57841W        W30101  35.866   4.881   3.297
57842W        W30102  29.242  28.602   2.730
57843W        W30103  20.243  34.668  12.010
57844W        W30104  35.404  41.313  14.523
57845W        W30105   4.170  19.843  13.891
57846W        W30106  42.253  29.502  12.785
57847W        W30107  36.261  40.740  11.929
57848W        W30108  35.978  20.996  12.683
57849W        W30109  17.734  11.771  11.501
57850W        W30110   7.656  44.961   0.301
57851W        W30111   6.232  32.393   3.480
57852W        W30112  35.549  29.630   0.499
57853W        W30113  40.707  38.336  14.090
57854W        W30114  26.198   5.008  14.729
57855W        W30115   2.673  41.761   4.769
57856W        W30116  31.705  40.389   0.819
57857W        W30117  16.252  24.068   3.693
57858W        W30118  36.829  21.815   0.187
57859W        W30119  20.574  33.072   1.139
57860W        W30120  40.506  41.634  14.925
57861W        W30121   7.371   7.083   3.874
57862W        W30122  15.100  25.172   0.519
57863W        W30123   9.787  10.477  10.644
57864W        W30124  42.077  23.711   0.749
57865W        W30125  12.350  19.405  11.174
57866W        W30126  44.176  27.548   1.297
57867W        W30127   5.775  40.553   1.749
57868W        W30128  29.412  34.474   3.694
57869W        W30129  20.567   1.043  11.439
57870W        W30130  33.346  14.846  10.199
57871W        W30131   1.079   0.304   2.715
57872W        W30132  36.021  37.894   0.165
57873W        W30133  17.936  34.913   3.343
57874W        W30134  28.939  30.859   1.762
57875W        W30135  14.866  23.657  13.837
57876W        W30136  31.385   4.211  11.394
57877W        W30137   4.989  18.097  12.138
57878W        W30138  11.358  33.083   2.605
57879W        W30139  36.579  27.968  10.201
57880W        W30140  15.175   6.862  14.759
57881W        W30141  42.886   5.703  14.351
57882W        W30142  32.574  42.777  12.616
57883W        W30143  24.708   2.099   1.113
57884W        W30144   2.020  30.130   3.806
57885W        W30145   5.694   7.776   2.754
57886W        W30146  31.934   5.734   1.215
57887W        W30147   6.389   0.035   1.445
57888W        W30148   9.616  11.215   0.859
57889W        W30149  40.955  15.240  14.137
57890W        W30150  38.964  37.295  10.689
57891W        W30151  12.223  37.414  13.375
57892W        W30152  13.658  15.569   3.104
57893W        W30153  10.217  11.654  12.566
57894W        W30154  12.758  36.343   1.253
57895W        W30155  33.991  26.938  10.340
57896W        W30156   8.869  32.891   3.231
57897W        W30157   9.599  35.112  12.142
57898W        W30158  10.749  27.079  12.990
57899W        W30159   8.103  19.930   4.938
57900W        W30160  10.831   1.752   0.286
57901W        W30161  29.685   0.339  11.050
57902W        W30162   2.390  27.820   4.719
57903W        W30163   5.082  40.660   1.189
57904W        W30164  41.895   3.849   0.786
57905W        W30165  20.486  42.043  14.374
57906W        W30166  16.618  26.606  14.923
57907W        W30167  12.265   4.855  14.038
57908W        W30168  17.637  18.146  11.988
57909W        W30169   1.765  43.768   0.552
57910W        W30170  18.281  14.241  12.813
57911W        W30171   0.935  37.544  10.053
57912W        W30172  24.252  10.358   4.199
57913W        W30173  40.852   3.317  13.130
57914W        W30174  17.756  30.277  13.917
57915W        W30175  20.016   8.846  10.725
57916W        W30176  16.166  29.891  12.090
57917W        W30177  42.533  25.561   0.194
57918W        W30178  40.446   8.108   2.862
57919W        W30179   9.103  27.967  10.501
57920W        W30180  34.830  12.700   3.197
57921W        W30181  21.797   3.427   4.155
57922W        W30182  13.911  35.396  11.031
57923W        W30183  44.499   6.759   0.712
57924W        W30184   1.933   7.303  12.514
57925W        W30185  30.488  28.441  10.820
57926W        W30186  42.001  18.481  14.472
57927W        W30187  18.877  11.058   1.963
57928W        W30188  23.594  15.700  13.974
57929W        W30189  26.592  21.266   1.244
57930W        W30190   1.278  33.464  10.461
57931W        W30191  38.874   3.204  12.812
57932W        W30192  18.959  32.475  14.967
57933W        W30193   5.369  33.472  13.144
57934W        W30194  11.699   4.228   0.337
57935W        W30195   3.235   3.248  11.565
57936W        W30196  39.935  25.179  11.132
57937W        W30197   6.419  44.645  13.182
57938W        W30198   6.937  18.842   4.299
57939W        W30199   3.518  21.600  12.438
57940W        W30200  27.111  35.053   0.835
57941W        W30201  22.667  12.220   3.917
57942W        W30202  17.626   6.735   2.723
57943W        W30203  24.022  35.798   1.988
57944W        W30204   0.923   5.689  11.592
57945W        W30205  22.469  35.951  12.053
57946W        W30206  28.906   6.349  13.476
57947W        W30207  28.188  41.972   5.050
57948W        W30208  12.212   3.845  11.628
57949W        W30209  17.771  29.553  13.425
57950W        W30210  12.637  15.838  13.380
57951W        W30211  18.997  18.559   3.293
57952W        W30212   4.330   4.981  12.797
57953W        W30213  17.774  30.130   4.319
57954W        W30214  18.799  17.782   2.741
57955W        W30215  35.856  29.522   0.908
57956W        W30216  14.379  41.012  12.059
57957W        W30217  18.242   0.364   0.765
57958W        W30218  36.550  37.376  12.351
57959W        W30219   1.703   8.007   1.089
57960W        W30220   3.059  28.465   1.603
57961W        W30221  14.561  41.404   1.754
57962W        W30222  38.999   3.562  14.408
57963W        W30223  13.824   4.663   0.287
57964W        W30224  21.732  32.306   3.326
57965W        W30225   7.582  17.616   4.342
57966W        W30226  12.524  15.563  12.128
57967W        W30227  29.938  23.380   2.919
57968W        W30228  20.736   0.336  14.238
57969W        W30229  16.540  16.780   1.495
57970W        W30230  19.778   7.411   2.302
57971W        W30231  40.860  42.926   1.933
57972W        W30232  21.580  25.027  12.417
57973W        W30233   5.587  40.582   1.260
57974W        W30234   4.167  12.874   0.890
57975W        W30235  15.517  39.405  10.711
57976W        W30236   1.454  32.396   2.879
57977W        W30237  30.510  29.035   3.162
57978W        W30238  32.024  23.723  13.554
57979W        W30239  32.583   6.410  13.701
57980W        W30240  20.573  12.335  11.522
57981W        W30241  21.740  23.282   4.087
57982W        W30242  26.230  29.906  13.406
57983W        W30243  30.048   0.555   0.073
57984W        W30244  17.151  30.245   1.854
57985W        W30245  38.136  41.829   1.477
57986W        W30246  36.879   9.117   0.686
57987W        W30247   4.752  19.266   3.326
57988W        W30248  18.137  40.451   3.324
57989W        W30249  22.633  28.092   1.714
57990W        W30250  35.508   6.743   0.266
57991W        W30251   3.895  34.672  14.919
57992W        W30252  19.181  12.847   1.372
57993W        W30253  18.687  25.105  12.949
57994W        W30254  10.840  14.211  13.454
57995W        W30255  23.595  13.743  12.058
57996W        W30256  22.654  37.118  12.003
57997W        W30257  43.084   0.987  10.938
57998W        W30258  40.606   6.487  11.098
57999W        W30259   4.428  25.580   4.088
58000W        W30260  22.232  38.140   2.158
58001W        W30261  10.309   5.188   3.688
58002W        W30262  21.729  22.573   3.699
58003W        W30263  14.838  30.155  10.085
58004W        W30264  38.912  36.028   0.374
58005W        W30265  18.211  21.151  11.852
58006W        W30266  13.655  40.519  12.585
58007W        W30267  24.948   7.061  11.133
58008W        W30268  27.543   1.501  12.594
58009W        W30269  40.607   1.388  14.880
58010W        W30270  12.857  11.709   1.525
58011W        W30271  34.121  42.536  11.110
58012W        W30272  25.111  20.524   1.406
58013W        W30273  27.023  34.267  14.324
58014W        W30274  33.164  17.527  10.495
58015W        W30275  26.854   3.779   3.516
58016W        W30276  43.499   3.345   4.635
58017W        W30277  20.727  35.566   0.524
58018W        W30278  19.101  38.627   3.154
58019W        W30279  16.085  37.837   0.293
58020W        W30280  40.088   9.732   1.061
58021W        W30281  30.001  21.460  13.842
58022W        W30282  12.204  35.031   4.208
58023W        W30283  35.300  23.528   3.092
58024W        W30284  30.959   4.412   1.361
58025W        W30285  29.479  35.804  10.580
58026W        W30286  20.676  43.930   4.238
58027W        W30287  17.808   4.306   4.251
58028W        W30288  25.166   9.153  14.951
58029W        W30289  28.493   9.799   0.875
58030W        W30290  15.386  41.924   3.642
58031W        W30291   8.356  37.421  10.669
58032W        W30292  27.006  30.421   1.738
58033W        W30293  22.835  18.231  13.528
58034W        W30294  37.728   9.398   4.176
58035W        W30295  33.897  28.097   3.726
58036W        W30296   7.314   0.208  13.124
58037W        W30297  30.230  24.563   4.620
58038W        W30298  13.784  18.862  12.652
58039W        W30299  37.923  21.796   4.585
58040W        W30300  37.073  41.602  13.723
58041W        W30301  12.651  25.638  11.409
58042W        W30302  35.835  15.113   3.159
58043W        W30303  13.330  12.873   2.711
58044W        W30304  10.302  44.341  11.114
58045W        W30305   6.697  39.005   0.376
58046W        W30306  26.040  40.216  11.514
58047W        W30307  44.804  29.964  12.433
58048W        W30308   8.298  27.911  10.297
58049W        W30309  31.531  12.113  12.880
58050W        W30310  32.164   7.524   2.358
58051W        W30311  23.998  17.815  13.987
58052W        W30312  26.550  15.653   4.992
58053W        W30313   8.898   9.769  12.903
58054W        W30314  24.535  29.357   1.630
58055W        W30315  41.955   1.446  11.695
58056W        W30316   0.338  10.650  14.341
58057W        W30317   3.316  11.071  12.028
58058W        W30318  28.691  33.379  10.500
58059W        W30319  11.772   0.272   9.975
58060W        W30320   1.043   9.694  10.727
58061W        W30321  15.662   2.088  12.859
58062W        W30322  26.518   7.210   5.074
58063W        W30323  17.816  10.664  11.492
58064W        W30324  37.787  25.176   0.490
58065W        W30325  41.216  44.405   2.108
58066W        W30326  19.639  30.443  10.923
58067W        W30327  24.465  19.856  11.973
58068W        W30328  34.008   5.916   3.666
58069W        W30329  43.749   6.280   4.838
58070W        W30330  39.410  14.544  12.610
58071W        W30331  20.154  44.787   3.349
58072W        W30332  36.104  34.014  14.296
58073W        W30333   5.680  16.607  14.623
58074W        W30334  32.059  26.660   0.787
58075W        W30335  42.883  21.040   4.638
58076W        W30336  42.477  14.467   0.895
58077W        W30337  21.052   9.748  13.834
58078W        W30338  24.232  10.133  12.331
58079W        W30339  13.702  33.125  12.001
58080W        W30340   2.548  42.876   2.291
58081W        W30341  11.883  31.551  10.332
58082W        W30342  38.566  41.333  14.057
58083W        W30343  21.985  42.356   0.738
58084W        W30344  41.750   2.799   3.776
58085W        W30345   9.291   9.051   2.832
58086W        W30346  35.262  10.211  12.167
58087W        W30347  29.127  31.791   5.123
58088W        W30348   6.341  22.498   0.273
58089W        W30349  34.410  18.890  10.264
58090W        W30350  23.516  34.806  13.398
58091W        W30351  17.134  22.918   0.566
58092W        W30352  10.204  15.278  11.469
58093W        W30353   5.924  15.707   3.699
58094W        W30354  41.597  16.899  14.496
58095W        W30355   6.989  36.584  14.339
58096W        W30356  32.424  39.782   0.874
58097W        W30357   9.815  15.251   4.494
58098W        W30358  21.137  20.905   2.698
58099W        W30359   1.894  17.198  10.992
58100W        W30360   5.218   7.316   2.847
58101W        W30361  26.337  32.141   2.844
58102W        W30362  16.133   9.315   3.746
58103W        W30363   4.636   2.519   1.593
58104W        W30364   9.641  35.885   1.242
58105W        W30365   5.552  15.639  11.517
58106W        W30366   3.132   3.681  12.065
58107W        W30367  43.882  13.531   0.912
58108W        W30368  32.903  19.308   2.329
58109W        W30369  14.298   6.544  12.512
58110W        W30370  36.262  11.591   2.742
58111W        W30371  10.190   2.971   1.092
58112W        W30372   7.318   0.334  14.013
58113W        W30373  18.105   8.932   1.756
58114W        W30374   4.958  19.158   1.044
58115W        W30375  34.167   8.096  12.629
58116W        W30376  23.474  22.676  13.336
58117W        W30377   6.933  42.222   1.758
58118W        W30378  33.359  16.879  12.946
58119W        W30379  26.363   7.688   2.796
58120W        W30380  39.007  28.119  14.787
58121W        W30381   7.710  33.014   0.936
58122W        W30382  16.028  24.097  14.280
58123W        W30383  27.049  23.613  10.593
58124W        W30384   2.842  40.478  11.016
58125W        W30385  41.971  28.229   3.222
58126W        W30386   0.489   3.118  10.377
58127W        W30387  34.564  33.419  11.514
58128W        W30388   3.234  20.502   0.417
58129W        W30389   7.373  39.806   0.713
58130W        W30390  34.379  23.722   0.362
58131W        W30391  31.765  20.679  10.588
58132W        W30392  34.029  38.836  11.502
58133W        W30393   4.661  12.948  12.558
58134W        W30394  21.596  39.772   1.622
58135W        W30395  42.909   9.459   2.757
58136W        W30396  34.053  30.960   1.371
58137W        W30397  12.190  43.968  12.397
58138W        W30398   7.178  26.009   2.690
58139W        W30399  37.296  42.758   2.145
58140W        W30400   5.592  41.349   4.296
58141W        W30401  20.759  25.135  14.845
58142W        W30402   6.263   1.180  12.512
58143W        W30403  29.747  24.313   2.992
58144W        W30404  16.818  31.977   2.349
58145W        W30405   1.777  44.754  12.092
58146W        W30406  24.092  20.713   4.690
58147W        W30407   8.170   8.488  10.964
58148W        W30408  31.442   1.473   3.719
58149W        W30409  19.680   8.017  11.753
58150W        W30410  20.064  15.677  11.544
58151W        W30411  30.423  27.018  13.375
58152W        W30412  26.083  35.684  12.491
58153W        W30413   7.879  16.120  11.990
58154W        W30414  32.356  27.386   3.231
58155W        W30415  12.644  21.254   0.151
58156W        W30416  19.718   8.710   9.883
58157W        W30417  20.118   5.616  11.603
58158W        W30418  12.045  42.924  12.430
58159W        W30419  42.681  16.469   3.498
58160W        W30420   6.182  40.389  11.392
58161W        W30421   5.428  20.835   1.215
58162W        W30422  40.447   6.439  11.921
58163W        W30423  37.417  20.434  13.404
58164W        W30424  26.179  18.641  14.565
58165W        W30425  40.333  34.189  11.547
58166W        W30426   7.972  15.705   5.064
58167W        W30427  40.553   4.235   4.672
58168W        W30428   3.647   7.901  10.422
58169W        W30429  19.067  19.046   0.258
58170W        W30430  30.944  36.928  13.390
58171W        W30431  44.546  18.796  13.453
58172W        W30432  14.787  18.531   2.288
58173W        W30433   7.823   5.072  13.101
58174W        W30434  30.630  33.506   4.207
58175W        W30435  25.424  39.128  11.158
58176W        W30436  41.879  30.403  13.363
58177W        W30437  35.626  14.269   5.196
58178W        W30438  20.072  16.328  13.483
58179W        W30439   9.392   0.950   2.260
58180W        W30440  32.072   1.943   3.881
58181W        W30441  17.219  31.756   1.948
58182W        W30442  29.066  29.598   3.394
58183W        W30443   4.221  38.316  11.055
58184W        W30444  41.885  23.203  13.902
58185W        W30445  33.180  17.994  10.737
58186W        W30446  17.901  22.768  12.985
58187W        W30447  18.092  40.478   3.851
58188W        W30448  12.617  14.311  13.952
58189W        W30449  39.047  11.149  12.545
58190W        W30450   4.632  32.875   0.604
58191W        W30451  36.437   0.319  12.981
58192W        W30452   0.064  41.588   1.818
58193W        W30453  10.352   4.271  14.366
58194W        W30454  33.504  37.509   2.681
58195W        W30455  24.727   7.683  13.181
58196W        W30456  28.932  36.009   0.915
58197W        W30457  13.570  43.042  11.486
58198W        W30458  24.295  31.597  13.805
58199W        W30459  43.871  22.416  12.589
58200W        W30460   7.673   1.414  14.054
58201W        W30461  25.338  27.083   0.987
58202W        W30462  21.044  27.744  10.695
58203W        W30463  43.372  16.368  11.615
58204W        W30464  43.905  31.407   1.810
58205W        W30465   2.959  24.216  10.626
58206W        W30466   5.743  37.586  11.429
58207W        W30467   6.208  22.053   4.173
58208W        W30468  14.691  29.725  13.797
58209W        W30469   6.879  10.637  13.372
58210W        W30470  33.492   9.755   4.649
58211W        W30471  41.679  40.590   1.788
58212W        W30472  28.599  42.727   0.299
58213W        W30473  20.498  34.536  14.047
58214W        W30474  22.354  21.602   0.304
58215W        W30475  16.345  44.909   2.587
58216W        W30476  34.227  42.331   3.374
58217W        W30477   4.414   8.176   2.321
58218W        W30478   7.735  28.494   4.637
58219W        W30479  24.846  44.252  12.173
58220W        W30480  36.134  19.541  11.445
58221W        W30481  35.889  17.686   0.098
58222W        W30482   5.963   0.441  13.459
58223W        W30483  43.491  31.437   0.529
58224W        W30484  41.996   6.947  12.622
58225W        W30485   3.277  24.008  12.735
58226W        W30486   6.045   4.233   0.772
58227W        W30487  16.633  43.467  13.618
58228W        W30488  13.234   8.741   4.534
58229W        W30489  34.513  14.255  11.563
58230W        W30490  38.471  34.209   1.708
58231W        W30491  29.315  21.774  10.500
58232W        W30492  34.583  14.254  13.918
58233W        W30493  43.428  23.214  11.100
58234W        W30494  14.864  15.308   2.798
58235W        W30495  28.376   6.872   3.932
58236W        W30496  35.308  14.615   1.924
58237W        W30497   9.744   3.210   3.286
58238W        W30498  12.667  20.782  12.063
58239W        W30499  28.080   7.734  12.780
58240W        W30500  18.591  22.035  13.013
58241W        W30501   0.870  37.778  12.550
58242W        W30502   3.517  36.381  14.577
58243W        W30503   0.868  14.057  11.595
58244W        W30504  10.311   0.858  13.698
58245W        W30505   0.722  20.385   0.487
58246W        W30506  22.664  16.733   3.749
58247W        W30507   4.735  20.593   2.927
58248W        W30508  26.729  41.838   0.572
58249W        W30509  31.116  21.993  11.743
58250W        W30510   6.401  20.061  13.479
58251W        W30511   7.747  36.697   0.761
58252W        W30512  18.319  42.904   0.888
58253W        W30513  31.670  20.136   1.332
58254W        W30514  26.550  42.575  10.846
58255W        W30515  33.928  37.778   1.843
58256W        W30516  18.710   3.464   3.130
58257W        W30517  22.961  39.107  14.705
58258W        W30518  19.305  41.253  12.169
58259W        W30519  39.599   2.271   5.006
58260W        W30520   6.068  41.312  12.319
58261W        W30521  42.389  33.897   0.295
58262W        W30522   8.692  16.669  12.588
58263W        W30523  36.677   5.505   2.914
58264W        W30524  37.379   2.780  14.377
58265W        W30525   1.475  15.146   2.457
58266W        W30526  37.496  28.477   2.814
58267W        W30527  25.519   0.499   4.723
58268W        W30528  28.490  33.401   2.873
58269W        W30529  31.535  32.553  10.282
58270W        W30530  26.224  28.671  12.485
58271W        W30531  35.064  12.849   1.848
58272W        W30532   4.441  19.550  12.007
58273W        W30533  27.500   1.487   3.387
58274W        W30534  30.782  21.180   4.096
58275W        W30535  37.391  39.996  12.648
58276W        W30536  27.102  24.171   4.640
58277W        W30537   5.181   3.219   1.742
58278W        W30538  40.992  22.022  11.120
58279W        W30539   8.672  38.269   2.386
58280W        W30540  35.806  24.555  14.044
58281W        W30541  13.107   6.521   5.029
58282W        W30542  41.537  41.629   3.261
58283W        W30543  13.042   4.215   0.661
58284W        W30544  27.651  21.612  10.500
58285W        W30545   8.556   6.939   1.917
58286W        W30546  20.459  20.512   1.777
58287W        W30547  36.609   6.919  14.447
58288W        W30548   6.676  27.665   2.090
58289W        W30549  34.102   0.486  12.878
58290W        W30550   4.005  39.188   0.948
58291W        W30551   9.251  38.793   5.084
58292W        W30552   5.759  40.079   0.094
58293W        W30553  39.258  31.063   2.791
58294W        W30554  28.525   1.391  12.382
58295W        W30555   0.296  43.520  11.849
58296W        W30556  29.686  36.287  10.677
58297W        W30557  37.007   5.921   0.783
58298W        W30558   5.823  23.413  14.443
58299W        W30559  20.761   1.575  12.483
58300W        W30560  41.213  22.201  14.425
58301W        W30561  16.838   0.368  12.028
58302W        W30562   4.354  18.364   1.861
58303W        W30563  23.324   0.185  13.464
58304W        W30564  23.546  11.208   0.994
58305W        W30565   5.898   6.148   3.068
58306W        W30566  34.633  32.571  12.130
58307W        W30567  27.848  17.710  12.963
58308W        W30568  11.744  16.841  10.978
58309W        W30569  36.422   8.980   2.223
58310W        W30570  14.727  16.049   1.228
58311W        W30571   1.407   8.726   1.826
58312W        W30572  20.055  22.761   0.431
58313W        W30573  40.122   2.371  13.967
58314W        W30574  23.434   0.412   1.690
58315W        W30575  31.386  36.389  11.903
58316W        W30576  29.811   6.431  12.393
58317W        W30577  18.604  44.248   0.278
58318W        W30578  19.657  27.654   2.197
58319W        W30579  34.462  22.514   0.525
58320W        W30580  13.103  25.077   1.051
58321W        W30581   0.016  19.594  11.646
58322W        W30582  44.445  23.348   0.924
58323W        W30583  13.838   1.227   4.585
58324W        W30584  23.819  11.118   3.780
58325W        W30585   3.202  41.465  11.106
58326W        W30586  14.058  15.268  11.199
58327W        W30587  15.331  35.153  11.967
58328W        W30588  10.811   2.692   0.703
58329W        W30589  11.042  40.038  12.071
58330W        W30590   7.714  12.858  14.101
58331W        W30591  19.500   6.223  11.907
58332W        W30592  36.833  25.692  14.884
58333W        W30593  21.622   1.765  12.151
58334W        W30594  35.046  20.111  14.188
58335W        W30595  43.307  22.035  12.559
58336W        W30596  13.683  32.113  11.499
58337W        W30597  23.826  17.205   0.807
58338W        W30598  20.909  37.811  12.346
58339W        W30599   1.278  10.117  12.722
58340W        W30600  32.445  24.721  11.178
58341W        W30601  26.478  23.986   4.059
58342W        W30602  40.432   9.145  14.667
58343W        W30603  27.012  19.176  12.248
58344W        W30604   9.323  11.093   3.748
58345W        W30605  18.502  41.803  14.392
58346W        W30606  27.367  26.102  12.747
58347W        W30607  19.159   1.408   4.072
58348W        W30608  33.383  23.973   1.393
58349W        W30609  33.825  22.008  14.770
58350W        W30610  34.221  28.640  14.798
58351W        W30611  26.530  21.983  13.851
58352W        W30612  39.258  38.796   4.215
58353W        W30613   2.446  39.051  11.159
58354W        W30614  44.547  23.606  12.427
58355W        W30615  21.564   8.047  13.883
58356W        W30616   7.807  35.180  14.661
58357W        W30617  17.707  14.738  10.636
58358W        W30618  32.016  16.311   2.736
58359W        W30619  27.974  12.789   3.586
58360W        W30620  28.413   1.805   3.622
58361W        W30621  37.567  30.079  13.740
58362W        W30622  30.428  37.520   1.349
58363W        W30623  29.524   2.231   4.212
58364W        W30624  33.505  25.626  13.026
58365W        W30625  33.553  42.322  13.358
58366W        W30626  21.356   5.900  11.806
58367W        W30627   9.772   6.408  12.942
58368W        W30628  13.557  14.852  14.972
58369W        W30629  21.282  10.719   3.301
58370W        W30630  16.779  38.337  13.543
58371W        W30631  15.110  37.647   2.329
58372W        W30632  25.021  39.750  11.666
58373W        W30633   5.089   3.740   9.790
58374W        W30634  30.764  18.577   1.901
58375W        W30635  27.210  13.847   4.014
58376W        W30636   8.261  23.042  14.491
58377W        W30637  23.984   1.819  12.308
58378W        W30638  31.642  43.871   0.986
58379W        W30639  18.722  38.564  13.465
58380W        W30640  14.154  18.681   3.000
58381W        W30641   9.857  44.165   4.805
58382W        W30642  10.206  24.864  10.195
58383W        W30643   3.489   5.310  10.569
58384W        W30644  24.153  42.452  13.991
58385W        W30645  44.813  36.678   1.164
58386W        W30646  29.073  12.914  13.189
58387W        W30647  43.874  29.718  13.690
58388W        W30648  15.465   6.409  14.838
58389W        W30649  38.001  25.423  14.312
58390W        W30650  19.388  12.716   3.902
58391W        W30651  12.703  43.460   4.097
58392W        W30652  18.301  42.782   2.655
58393W        W30653  35.539  21.080   4.108
58394W        W30654  25.912  24.128   3.195
58395W        W30655  36.006  23.795   4.564
58396W        W30656  27.369   3.865   3.556
58397W        W30657   9.234  33.357   3.228
58398W        W30658  40.124   6.740  10.980
58399W        W30659  16.080  14.726   9.835
58400W        W30660   5.935  12.227   4.713
58401W        W30661   7.730  39.948  12.432
58402W        W30662  15.165   5.944  10.923
58403W        W30663  40.324  32.128   1.372
58404W        W30664  29.504  10.295  13.848
58405W        W30665  26.539  24.600   2.839
58406W        W30666  11.297  40.163   0.368
58407W        W30667  22.203  18.110  13.037
58408W        W30668  26.118  33.746  11.111
58409W        W30669  15.519  13.147   0.906
58410W        W30670  41.852  23.036  10.379
58411W        W30671  40.491  14.975  13.403
58412W        W30672   8.176   6.988   2.284
58413W        W30673  33.345  24.210   3.242
58414W        W30674   3.820  26.030  13.596
58415W        W30675  23.023  39.318  12.943
58416W        W30676   3.504  34.344   2.325
58417W        W30677  36.323  15.590   0.078
58418W        W30678   8.109  31.583   2.163
58419W        W30679  44.397  28.102   1.845
58420W        W30680   4.398  30.445   0.007
58421W        W30681  32.042  27.565   3.818
58422W        W30682  26.133  17.737   1.877
58423W        W30683  16.114  12.109   1.412
58424W        W30684   5.730   3.362   0.845
58425W        W30685  43.433  10.096   0.990
58426W        W30686  44.977  18.124   5.118
58427W        W30687  12.769  33.755   1.893
58428W        W30688   1.708  26.460  10.027
58429W        W30689   6.845   8.684  12.114
58430W        W30690  22.705  25.080   2.231
58431W        W30691  35.270   4.848  14.162
58432W        W30692  27.077  33.105  11.133
58433W        W30693  40.539  29.257  14.131
58434W        W30694  28.021  32.614   1.183
58435W        W30695  27.343  15.140   1.464
58436W        W30696  32.295  16.160  12.341
58437W        W30697  30.251   5.596  14.504
58438W        W30698  24.944  30.918   3.175
58439W        W30699  25.235  41.018  11.088
58440W        W30700  11.104  22.519  10.893
58441W        W30701  19.176  38.595  13.855
58442W        W30702  37.838  23.583   0.800
58443W        W30703  41.584  23.584   4.629
58444W        W30704  28.665   9.310  11.557
58445W        W30705  20.621  21.120  14.942
58446W        W30706   5.171  25.237   0.789
58447W        W30707  38.214  12.429  12.820
58448W        W30708  14.072  21.629   0.505
58449W        W30709  13.754  24.623   1.447
58450W        W30710   1.976  36.603   1.723
58451W        W30711  19.171   0.001   2.804
58452W        W30712  16.742  22.478   2.201
58453W        W30713  24.325   2.755   3.826
58454W        W30714  21.724   6.169  11.588
58455W        W30715  19.534   8.801  13.931
58456W        W30716  44.581  43.818  10.770
58457W        W30717   5.070  28.656   2.312
58458W        W30718  23.438  27.837   3.662
58459W        W30719  15.964   8.692  14.308
58460W        W30720  37.259  15.182   3.285
58461W        W30721  24.020   7.768  12.064
58462W        W30722  12.684  11.165   3.785
58463W        W30723   3.948  12.264  10.729
58464W        W30724  22.714  39.046  12.420
58465W        W30725  18.653  33.494   2.226
58466W        W30726  13.670  16.795   1.028
58467W        W30727   8.708   8.358   4.604
58468W        W30728  20.711  13.178  13.804
58469W        W30729  26.075  31.870  13.996
58470W        W30730  32.331  23.998   4.333
58471W        W30731  36.380  33.682  13.383
58472W        W30732  37.392  24.193  14.516
58473W        W30733  33.347  40.978   3.177
58474W        W30734  41.456  11.604  11.107
58475W        W30735  16.763  28.232  12.930
58476W        W30736  38.380  42.182  14.506
58477W        W30737  12.736  16.057  12.039
58478W        W30738   0.049  36.669   0.189
58479W        W30739  31.839  36.624  14.555
58480W        W30740  42.941  30.865   0.686
58481W        W30741  35.384  39.713  13.767
58482W        W30742  18.169  30.402   2.767
58483W        W30743  29.037   7.598  12.279
58484W        W30744   3.426   6.799  13.858
58485W        W30745  15.539  26.125  12.405
58486W        W30746  36.916  16.746   2.299
58487W        W30747   7.382  16.066  13.798
58488W        W30748  17.564  41.882   2.671
58489W        W30749   0.402  26.010  14.323
58490W        W30750  40.519  42.181   1.237
58491W        W30751  41.716  38.246   2.229
58492W        W30752  20.578  39.537   2.655
58493W        W30753  42.904  10.754  12.125
58494W        W30754  30.224  22.305  14.206
58495W        W30755  24.748  26.028   2.347
58496W        W30756   7.011  27.025   1.002
58497W        W30757  18.154  39.074  12.148
58498W        W30758  26.568  15.492   4.105
58499W        W30759  13.799   9.269   4.489
58500W        W30760  13.857  11.576  13.274
58501W        W30761  42.725   6.880  11.918
58502W        W30762  20.764  17.025   3.494
58503W        W30763  20.079  33.176  13.995
58504W        W30764   9.304  30.137   3.717
58505W        W30765  28.680   7.915   1.684
58506W        W30766  23.808  17.573  14.440
58507W        W30767  19.010  12.653  11.954
58508W        W30768   3.268  40.890  12.941
58509W        W30769  12.081  20.103  11.919
58510W        W30770  43.869  11.662   0.278
58511W        W30771  10.366   6.973   2.416
58512W        W30772  12.845  24.174  14.462
58513W        W30773  44.849  36.436  14.780
58514W        W30774  19.760  10.843   4.135
58515W        W30775  33.592  42.778   2.386
58516W        W30776  17.629   7.503  11.154
58517W        W30777   9.133  20.109   1.736
58518W        W30778  44.288  35.026  13.830
58519W        W30779  14.875  39.870  12.428
58520W        W30780   7.192  36.484   2.693
58521W        W30781  42.895   5.689   0.279
58522W        W30782  11.061  37.837   1.836
58523W        W30783  42.398   9.425  11.855
58524W        W30784  10.215  36.186   4.215
58525W        W30785   7.744  30.019  12.844
58526W        W30786  14.378  37.427  12.642
58527W        W30787  21.025  23.322   1.929
58528W        W30788  41.838  34.601   5.061
58529W        W30789  33.799  25.521   3.666
58530W        W30790  14.097  42.879  10.769
58531W        W30791  25.354   7.212   4.539
58532W        W30792  30.031   6.283   3.792
58533W        W30793  15.648  41.445   4.621
58534W        W30794  22.227  10.773   0.700
58535W        W30795  20.166  37.077   0.062
58536W        W30796  40.971  34.969   4.405
58537W        W30797  42.965  30.001  13.226
58538W        W30798  11.576   5.352   2.313
58539W        W30799  39.789  34.053   3.672
58540W        W30800   8.883  15.584  12.779
58541W        W30801  31.430  29.980   4.673
58542W        W30802  27.111  36.840   2.871
58543W        W30803  23.701   6.176  13.909
58544W        W30804  18.773  11.604   4.586
58545W        W30805  10.772  29.977  14.675
58546W        W30806  28.250  14.095  13.336
58547W        W30807   2.707  39.956  12.935
58548W        W30808  32.693  20.933  10.636
58549W        W30809  26.238   0.877   2.223
58550W        W30810   5.152  41.539   1.141
58551W        W30811  31.079  31.373  13.893
58552W        W30812   9.754  19.691  13.758
58553W        W30813  11.901  21.803  11.923
58554W        W30814  28.493  43.389  11.232
58555W        W30815  24.209   4.335   0.720
58556W        W30816   5.377  24.133   4.047
58557W        W30817  19.481   3.304   3.777
58558W        W30818  20.226  37.867  11.495
58559W        W30819   1.406  18.787  10.731
58560W        W30820  10.003  25.662  12.502
58561W        W30821  43.061  23.480   2.320
58562W        W30822   9.788  29.078  13.901
58563W        W30823   5.688  38.791  10.877
58564W        W30824   3.506  26.148   1.351
58565W        W30825  23.719  19.176   5.458
58566W        W30826  16.753   2.562  13.007
58567W        W30827   3.705  31.617   4.587
58568W        W30828  37.931  41.847  14.418
58569W        W30829   8.841  35.537  13.167
58570W        W30830  34.943  21.014  11.490
58571W        W30831  13.772  29.853   3.800
58572W        W30832   0.729  26.098  12.838
58573W        W30833  17.780  44.517   3.752
58574W        W30834  42.230   4.401  14.438
58575W        W30835  35.528  36.001   3.197
58576W        W30836  26.461  15.227  11.685
58577W        W30837  33.664  22.672  12.994
58578W        W30838   9.367  10.828   3.308
58579W        W30839   5.922  12.073   1.694
58580W        W30840  40.419  25.039  11.014
58581W        W30841  25.503  10.130  14.261
58582W        W30842  29.938  23.371   0.903
58583W        W30843  31.614   6.171   1.349
58584W        W30844  38.821  27.558   2.145
58585W        W30845  37.481  35.016   0.872
58586W        W30846  43.254  17.758  11.552
58587W        W30847  19.842  28.678  14.866
58588W        W30848  25.582  27.916  10.723
58589W        W30849  16.748  38.427   2.041
58590W        W30850   7.050  19.192  14.368
58591W        W30851   1.933  14.872  12.064
58592W        W30852  41.051  34.394   3.767
58593W        W30853  19.978  24.711   3.862
58594W        W30854   4.284  11.149   4.505
58595W        W30855  12.833  39.366  13.362
58596W        W30856  39.506  21.254   4.052
58597W        W30857  11.738  22.232  11.085
58598W        W30858  22.574  14.166  13.553
58599W        W30859  28.769  23.943  13.323
58600W        W30860   9.656  10.077   3.462
58601W        W30861  33.099   1.225   4.534
58602W        W30862  12.232   3.707   3.595
58603W        W30863  30.144  29.985   2.951
58604W        W30864  29.845  26.687  10.785
58605W        W30865   6.987  43.437   2.287
58606W        W30866  20.781  32.494   2.944
58607W        W30867  38.508   9.664   5.378
58608W        W30868  21.681  22.673   1.780
58609W        W30869  35.339   1.952  10.339
58610W        W30870  28.406  11.332  11.534
58611W        W30871  28.220  10.915  13.067
58612W        W30872  34.144  22.536  12.095
58613W        W30873   1.002  29.552   4.209
58614W        W30874  17.293  17.308   4.777
58615W        W30875   2.822  24.699   4.668
58616W        W30876  31.211  23.932   0.441
58617W        W30877  24.008  17.093  13.078
58618W        W30878  26.420   9.341  14.321
58619W        W30879  41.449  27.892  11.085
58620W        W30880   3.778  16.681   3.094
58621W        W30881  27.506  26.971   1.539
58622W        W30882  32.830   8.411   4.298
58623W        W30883  18.136  24.082   3.642
58624W        W30884   9.850  12.384   1.739
58625W        W30885   0.744  31.034   0.794
58626W        W30886  26.464   0.345  11.116
58627W        W30887   0.872  27.932   2.883
58628W        W30888  25.657   0.699   3.874
58629W        W30889   6.329  13.845   0.733
58630W        W30890  13.933  20.603  12.494
58631W        W30891  26.745  29.399  12.659
58632W        W30892  30.670  36.259   2.477
58633W        W30893   8.187  22.905   0.829
58634W        W30894  26.707  38.497  13.235
58635W        W30895  21.246  22.243   4.976
58636W        W30896  19.637  17.070  13.562
58637W        W30897   9.677   1.925  11.799
58638W        W30898  43.782  24.405   4.133
58639W        W30899  13.201  36.277  12.374
58640W        W30900  44.513  11.185  12.966
58641W        W30901  38.827  41.513  10.646
58642W        W30902   7.301  27.642  12.433
58643W        W30903  31.916  15.615   4.123
58644W        W30904  27.024  37.085  11.492
58645W        W30905  34.562  11.868  11.626
58646W        W30906  32.954  43.296  13.589
58647W        W30907  30.082  19.969   4.179
58648W        W30908  43.736  12.275  12.994
58649W        W30909  14.623  23.166  14.273
58650W        W30910  21.421  42.332   2.727
58651W        W30911   5.428  38.443   4.523
58652W        W30912  12.076  40.307   2.816
58653W        W30913  31.914   9.906  13.371
58654W        W30914  25.342   5.957  12.066
58655W        W30915  13.799  25.194  11.576
58656W        W30916  42.047  19.188   0.812
58657W        W30917  39.195   4.786   0.369
58658W        W30918  44.997   4.689   3.292
58659W        W30919  20.947  22.181  11.825
58660W        W30920   2.311  42.292  13.365
58661W        W30921  16.185   0.343   3.830
58662W        W30922  28.980   3.266  10.829
58663W        W30923  21.022  14.458   3.955
58664W        W30924  38.019  18.627   1.321
58665W        W30925   2.562  39.026   4.615
58666W        W30926  37.059  13.770  14.912
58667W        W30927   6.902   7.518  13.803
58668W        W30928  17.544  23.919   2.903
58669W        W30929   4.694  34.371  14.490
58670W        W30930  11.321   2.706   3.642
58671W        W30931  23.133  25.394   4.757
58672W        W30932   8.441  35.859  14.193
58673W        W30933   6.258  38.905  14.579
58674W        W30934  37.150  19.126  12.485
58675W        W30935   0.763  15.144   3.107
58676W        W30936  32.376   4.414   1.300
58677W        W30937  35.407  22.771   3.675
58678W        W30938  25.135  25.005   2.824
58679W        W30939  10.131  18.641   1.626
58680W        W30940  44.287   0.872   0.712
58681W        W30941  27.578   4.329   3.337
58682W        W30942  37.457  22.471  10.686
58683W        W30943   8.286  19.214  10.683
58684W        W30944  23.912  32.032   4.970
58685W        W30945  44.235  10.295  11.699
58686W        W30946   5.568  22.027   0.870
58687W        W30947  23.545   5.985   0.207
58688W        W30948   7.701  16.027   3.383
58689W        W30949   7.443  34.126   4.005
58690W        W30950  25.307  40.395  14.892
58691W        W30951  40.943  23.011   1.256
58692W        W30952   0.905   6.958  11.008
58693W        W30953  24.410  14.710  14.535
58694W        W30954   9.189  37.884   4.082
58695W        W30955  19.875  17.016   3.168
58696W        W30956  12.185  15.847   2.780
58697W        W30957   4.190   2.012   0.883
58698W        W30958   8.575  12.742   2.885
58699W        W30959   2.134  28.478   0.058
58700W        W30960  42.290  41.973  14.316
58701W        W30961  26.983  10.408  11.913
58702W        W30962  38.274  14.807   2.736
58703W        W30963  25.060  17.258   1.896
58704W        W30964  38.309  36.589  13.929
58705W        W30965  36.101   8.181   0.461
58706W        W30966  27.035   5.817   1.636
58707W        W30967  37.028   3.654   4.658
58708W        W30968  11.912   8.540   4.344
58709W        W30969  28.318  35.450  11.986
58710W        W30970  25.548  35.371   2.902
58711W        W30971  38.316   5.595   3.742
58712W        W30972  25.807   5.995   3.347
58713W        W30973   5.065  44.840  12.712
58714W        W30974  17.325  18.132   0.375
58715W        W30975  39.439  44.910  11.619
58716W        W30976  35.307  43.745  14.238
58717W        W30977   2.423  17.804   0.054
58718W        W30978  14.257  37.546   3.788
58719W        W30979  39.790  44.465   4.676
58720W        W30980  16.337  33.084  13.285
58721W        W30981  26.446  38.337   4.415
58722W        W30982  19.036  36.196   4.309
58723W        W30983  29.560  37.899  13.402
58724W        W30984  23.606   0.376  10.507
58725W        W30985   1.875  44.933  13.732
58726W        W30986  32.386  30.656  11.689
58727W        W30987   4.814  40.073   0.351
58728W        W30988   6.845   7.937   2.275
58729W        W30989  14.312   8.767   0.332
58730W        W30990  10.266  26.182   4.328
58731W        W30991   4.192  13.285  11.096
58732W        W30992  22.469  23.892   5.036
58733W        W30993  18.081  25.488   3.819
58734W        W30994  35.195  19.289   1.240
58735W        W30995   9.619  26.429   0.912
58736W        W30996   9.404  27.795  12.441
58737W        W30997   3.808  35.674   2.168
58738W        W30998  35.186  26.306  10.666
58739W        W30999  29.648   3.848  13.592
58740W        W31000  33.458  21.241  10.969
58741W        W31001  20.540  12.320  10.652
58742W        W31002  41.288  11.118   2.391
58743W        W31003  15.740  39.260   4.664
58744W        W31004  36.112   8.922  13.526
58745W        W31005   6.938  30.885  11.606
58746W        W31006  31.472  11.111   1.711
58747W        W31007  29.463  26.048  11.159
58748W        W31008  40.956  15.254   3.253
58749W        W31009   1.457   6.488   0.023
58750W        W31010  24.165   2.705  14.354
58751W        W31011  26.330   1.808   1.244
58752W        W31012  38.077  30.597   4.525
58753W        W31013   1.355  30.049  12.521
58754W        W31014  30.131  20.702  11.100
58755W        W31015  26.704  17.133  13.037
58756W        W31016  37.479  21.531  10.885
58757W        W31017  16.266  43.546   4.265
58758W        W31018  14.630  44.314   2.437
58759W        W31019   8.150  21.042   3.950
58760W        W31020   1.519  39.512   0.679
58761W        W31021  10.260   2.835  14.334
58762W        W31022  28.471  37.672   4.558
58763W        W31023  30.180  36.826  11.707
58764W        W31024   4.161  32.070   2.423
58765W        W31025  40.886  42.858  12.988
58766W        W31026  28.968  36.134   4.534
58767W        W31027  36.954   8.450   2.905
58768W        W31028  11.846  27.040   0.057
58769W        W31029  10.332  29.420   0.901
58770W        W31030  10.817   6.211   2.274
58771W        W31031  30.985  28.264  10.760
58772W        W31032  40.327  21.489  10.732
58773W        W31033  34.215  11.817   1.299
58774W        W31034  10.137  41.328   1.642
58775W        W31035  39.368  39.112   0.031
58776W        W31036   5.862  30.947  14.142
58777W        W31037  21.178  20.181  10.985
58778W        W31038  27.433  14.065   1.474
58779W        W31039  14.731  20.586  12.927
58780W        W31040  40.785  27.094   4.319
58781W        W31041  17.136  28.410   4.735
58782W        W31042  18.308   6.520  13.858
58783W        W31043  31.986  38.099   1.750
58784W        W31044   6.863  10.725   1.968
58785W        W31045  19.282  44.340   1.038
58786W        W31046   3.477  12.941  13.412
58787W        W31047  37.457   3.567   2.379
58788W        W31048  40.980  21.053   3.224
58789W        W31049  31.501  38.306  10.780
58790W        W31050  36.213  28.624  14.988
58791W        W31051  13.428  21.651  14.889
58792W        W31052  14.492  22.593   0.319
58793W        W31053  10.213   0.031   2.771
58794W        W31054  10.571  26.583   4.946
58795W        W31055  15.916   9.338   3.274
58796W        W31056  29.471  14.085   2.810
58797W        W31057  21.514  26.535   1.655
58798W        W31058   1.393   8.193   4.123
58799W        W31059   7.922  31.994   2.472
58800W        W31060  16.022  28.735  14.075
58801W        W31061  43.857  15.931  14.047
58802W        W31062  33.982   8.470  11.163
58803W        W31063  10.359  19.449   0.876
58804W        W31064   8.362  33.053  13.333
58805W        W31065  25.508  11.270  12.521
58806W        W31066  29.038   8.326  11.544
58807W        W31067   9.595  22.883   2.369
58808W        W31068  40.773  31.426   3.165
58809W        W31069  13.128  35.602   3.475
58810W        W31070  21.260  17.572   2.440
58811W        W31071   8.796  25.273   0.966
58812W        W31072  23.301  37.880   4.641
58813W        W31073  27.147  38.633  14.013
58814W        W31074  40.420  32.642  14.904
58815W        W31075  24.489  31.379  12.977
58816W        W31076  38.589  16.209   2.837
58817W        W31077   0.742  25.717   0.844
58818W        W31078  22.328  38.463   1.333
58819W        W31079  19.565  37.631  12.885
58820W        W31080  18.665  12.151   1.130
58821W        W31081  32.579  29.947   0.570
58822W        W31082  18.278  42.512   3.112
58823W        W31083   8.499  27.530  14.834
58824W        W31084   6.051   1.838   3.203
58825W        W31085  13.357  25.231   1.768
58826W        W31086  31.443  44.888  12.932
58827W        W31087   7.341  29.517   0.233
58828W        W31088   3.163  43.254  14.299
58829W        W31089  11.647  23.203  10.936
58830W        W31090  32.313  22.594  14.300
58831W        W31091   8.173  43.820  13.029
58832W        W31092  36.087  26.631  13.037
58833W        W31093  10.227  31.012  13.546
58834W        W31094  10.600  11.333   3.217
58835W        W31095  42.926  23.604   2.829
58836W        W31096  20.306  27.882  14.865
58837W        W31097  38.009  42.997   2.028
58838W        W31098  41.063  44.302  11.209
58839W        W31099  22.741  39.763  12.783
58840W        W31100   7.011  17.316   1.210
58841W        W31101   0.048  34.949  14.949
58842W        W31102   7.689  23.587   4.585
58843W        W31103  15.362  14.344  10.174
58844W        W31104   0.207  24.486   3.365
58845W        W31105  13.904   4.711   1.357
58846W        W31106  16.310   8.933  13.467
58847W        W31107   7.814  33.019   3.265
58848W        W31108  31.630  17.276   4.629
58849W        W31109  39.103   2.016  10.752
58850W        W31110  15.314  15.310   0.938
58851W        W31111  18.150   4.453   1.153
58852W        W31112  40.838  15.343  13.134
58853W        W31113   2.230  30.597   3.837
58854W        W31114  14.125  26.247   4.383
58855W        W31115  23.653  24.077  13.618
58856W        W31116  24.933  35.867   2.882
58857W        W31117  28.158  34.351  12.618
58858W        W31118  27.935  11.744   4.942
58859W        W31119  36.017  38.664  11.118
58860W        W31120  27.095  44.775   3.170
58861W        W31121  14.624  43.462   1.867
58862W        W31122   1.640   2.524  14.483
58863W        W31123  11.235  32.311   3.761
58864W        W31124  31.016  18.351  14.442
58865W        W31125  40.575  14.641  11.646
58866W        W31126  17.965  37.166  14.908
58867W        W31127  44.911  15.236   0.707
58868W        W31128  39.738   5.955  14.427
58869W        W31129   2.281  24.012   1.325
58870W        W31130  40.740  18.724  14.891
58871W        W31131   7.925   3.430   3.222
58872W        W31132  16.552  21.039   2.209
58873W        W31133   2.281  10.907   1.914
58874W        W31134  14.784  44.188  11.056
58875W        W31135  29.557  28.416  14.407
58876W        W31136   7.097  28.871   2.301
58877W        W31137  24.758  23.977   2.726
58878W        W31138  18.122  32.794   2.335
58879W        W31139   3.959   6.748   3.188
58880W        W31140  20.150  16.364   2.372
58881W        W31141  34.283  22.975  14.827
58882W        W31142  23.081  14.451   1.444
58883W        W31143  21.137   9.401  12.547
58884W        W31144   0.022  18.017   3.699
58885W        W31145  43.774  10.294  12.306
58886W        W31146  13.514   3.899  13.147
58887W        W31147  17.193  11.781   3.135
58888W        W31148  18.729  31.030  10.889
58889W        W31149  32.897  11.322  12.473
58890W        W31150  21.256  39.382   4.703
58891W        W31151  11.035  19.248  14.049
58892W        W31152  19.212  25.067  12.894
58893W        W31153   4.830  42.510   1.952
58894W        W31154  13.367  13.296  13.005
58895W        W31155  31.667   5.341  10.439
58896W        W31156  16.779  37.281  11.106
58897W        W31157  16.238  25.278   1.785
58898W        W31158   4.735  17.736   2.350
58899W        W31159   1.222  11.285  11.007
58900W        W31160  34.629  17.597  11.645
58901W        W31161  31.601  25.014  14.006
58902W        W31162   9.224  11.384  11.959
58903W        W31163  39.160  33.376   3.196
58904W        W31164   9.139  43.960  12.997
58905W        W31165  19.310  33.713  14.631
58906W        W31166   4.965  12.778   3.706
58907W        W31167  21.144  37.355  12.392
58908W        W31168  13.162  18.988  10.977
58909W        W31169  23.094  38.261   3.495
58910W        W31170  22.615   8.006   4.851
58911W        W31171  26.823  35.271  13.442
58912W        W31172   1.818   5.303  13.397
58913W        W31173  26.510  28.485  14.342
58914W        W31174  24.585  32.730   2.117
58915W        W31175   3.883  38.506   1.475
58916W        W31176  37.172   5.787   3.164
58917W        W31177  36.652  17.766   4.176
58918W        W31178  17.896  11.840   4.716
58919W        W31179  23.131  25.139  14.730
58920W        W31180  31.161  15.263   2.311
58921W        W31181   2.173  29.984  11.976
58922W        W31182  12.307   8.224   4.225
58923W        W31183  11.625   0.437  11.738
58924W        W31184  41.303   2.418   4.524
58925W        W31185  18.376  13.693   0.932
58926W        W31186  41.077   3.627  13.915
58927W        W31187  25.870   0.580   0.352
58928W        W31188   7.623  27.704   4.218
58929W        W31189  32.262  20.413   2.774
58930W        W31190   3.536  12.759   1.645
58931W        W31191  27.236   2.778   4.206
58932W        W31192  33.839  36.964  11.997
58933W        W31193   3.927  27.467  14.003
58934W        W31194  44.088  11.140   3.692
58935W        W31195  42.438  31.019   0.485
58936W        W31196   0.251  35.035  13.567
58937W        W31197   8.491  36.581  13.941
58938W        W31198   6.743  15.591  13.463
58939W        W31199  18.762  32.457  14.497
58940W        W31200   4.198  35.976  13.343
58941W        W31201  34.575  32.132   1.336
58942W        W31202   6.825  41.911   0.259
58943W        W31203  27.466  15.525   3.682
58944W        W31204   1.799  38.924  13.552
58945W        W31205  16.389   7.500  11.119
58946W        W31206  40.090  18.770  11.040
58947W        W31207   9.808   9.235   2.201
58948W        W31208   6.697   0.053  13.829
58949W        W31209  14.764  34.853  14.622
58950W        W31210  34.877  16.243   1.955
58951W        W31211  12.860  31.081   1.349
58952W        W31212  36.373  43.758   0.724
58953W        W31213  35.771  13.183   4.181
58954W        W31214  38.972  24.985  12.069
58955W        W31215  13.789   9.711   2.128
58956W        W31216   0.853  38.134   0.374
58957W        W31217   1.808  18.433  10.682
58958W        W31218   6.059  44.608  13.610
58959W        W31219  21.639  18.218  14.119
58960W        W31220   1.745  26.696  14.386
58961W        W31221  29.916  38.955  13.897
58962W        W31222  28.531   2.187   2.549
58963W        W31223   1.790  15.528  13.400
58964W        W31224  20.218  33.650   4.670
58965W        W31225  19.210  12.181  12.043
58966W        W31226   8.873   9.750   4.384
58967W        W31227  30.841  16.161  10.618
58968W        W31228   9.156  33.861  10.305
58969W        W31229   5.246  27.136  12.968
58970W        W31230  24.470   6.228  14.382
58971W        W31231  13.832  21.540   1.976
58972W        W31232  25.483  40.617   1.205
58973W        W31233  27.425  21.606   3.175
58974W        W31234  34.860   9.199  12.404
58975W        W31235   5.203  33.958   4.746
58976W        W31236   2.908  21.599  13.555
58977W        W31237  41.890   5.945  11.541
58978W        W31238  24.591  43.783   2.784
58979W        W31239   6.392  13.634  13.274
58980W        W31240  39.804  24.793   0.761
58981W        W31241  11.386  42.428  11.197
58982W        W31242  29.619  37.794  10.614
58983W        W31243  12.536  38.724  14.212
58984W        W31244   6.302  44.370  14.659
58985W        W31245  35.643   2.111  11.609
58986W        W31246  44.263  11.704  11.024
58987W        W31247   3.454  32.968   2.535
58988W        W31248  10.929  32.430   4.171
58989W        W31249  36.093  27.560  13.070
58990W        W31250  44.256  26.694  14.346
58991W        W31251  28.069  25.514  11.612
58992W        W31252  17.574  19.112  11.062
58993W        W31253  26.510   1.044   4.262
58994W        W31254  21.945  28.049  14.447
58995W        W31255  29.183  24.823  13.567
58996W        W31256  36.891  34.069   4.912
58997W        W31257  16.274  35.635  10.621
58998W        W31258  41.342   2.372  10.702
58999W        W31259  40.640  27.565  10.765
59000W        W31260   7.169   9.830  14.533
59001W        W31261  21.750   7.076  12.407
59002W        W31262  25.995  21.784   4.073
59003W        W31263  40.236   2.134   3.764
59004W        W31264  11.841  26.865   2.279
59005W        W31265  16.717  39.835  14.791
59006W        W31266   5.159  20.080  14.023
59007W        W31267  36.379  22.056  11.435
59008W        W31268  23.607  39.528   0.381
59009W        W31269   8.664   3.286  10.664
59010W        W31270  24.119  13.360  10.696
59011W        W31271   7.156  36.876  11.615
59012W        W31272  31.879  40.790   0.450
59013W        W31273  32.115  38.101   4.164
59014W        W31274   2.507  11.214  11.358
59015W        W31275  44.287   9.363  13.811
59016W        W31276   3.656  13.248  11.019
59017W        W31277  20.028  27.045  13.425
59018W        W31278  33.451  34.137   0.677
59019W        W31279  22.338  21.376   1.963
59020W        W31280   8.790  31.578  14.279
59021W        W31281  19.625  38.955  12.294
59022W        W31282  42.921  24.230   5.071
59023W        W31283  36.993  20.701  13.572
59024W        W31284  24.915   8.263  12.854
59025W        W31285  17.975   0.425   0.315
59026W        W31286   8.627  41.174   2.665
59027W        W31287   2.561  43.678   1.935
59028W        W31288   0.090  30.549   0.640
59029W        W31289  13.079  10.767  11.752
59030W        W31290  12.202  14.333  13.042
59031W        W31291   4.272   3.958   4.119
59032W        W31292  19.614  22.104   1.287
59033W        W31293  42.689  21.613   2.280
59034W        W31294  11.267  30.893  12.114
59035W        W31295  19.581  43.480  14.049
59036W        W31296  19.359   7.748   2.430
59037W        W31297   0.433   4.800   3.576
59038W        W31298  10.468  15.626  14.885
59039W        W31299  20.033  36.565   3.420
59040W        W31300  42.372  19.059  12.760
59041W        W31301  36.049  34.536   2.025
59042W        W31302   9.706  38.964  12.928
59043W        W31303   5.892   4.692  14.400
59044W        W31304  27.255  27.445   1.679
59045W        W31305  15.044  18.351   0.989
59046W        W31306  29.696  15.309  13.468
59047W        W31307   0.717  17.067   4.626
59048W        W31308  18.805  28.520   3.221
59049W        W31309  17.125  28.244  14.967
59050W        W31310  38.844  40.620   3.299
59051W        W31311   7.673  42.824   0.710
59052W        W31312  16.138   2.113   1.627
59053W        W31313  33.694   6.248   0.342
59054W        W31314  12.893  14.743  14.067
59055W        W31315  16.425  30.487   3.620
59056W        W31316  28.170  44.322  14.577
59057W        W31317  39.065  32.486  11.127
59058W        W31318  41.747  30.528   1.243
59059W        W31319  12.640  13.979   0.344
59060W        W31320  33.506  18.000  14.016
59061W        W31321  40.573  27.480   2.829
59062W        W31322   8.836  20.198   4.637
59063W        W31323   5.814  26.544  14.387
59064W        W31324  29.167   3.248   0.913
59065W        W31325  40.054  21.349  12.674
59066W        W31326  36.329  26.901   3.300
59067W        W31327   4.893   3.690   4.373
59068W        W31328  36.063  20.060  10.700
59069W        W31329  23.050  16.204  12.471
59070W        W31330   7.964   9.180   1.838
59071W        W31331   1.915  10.266  11.995
59072W        W31332   2.984  28.061   4.813
59073W        W31333  43.797   5.261  10.875
59074W        W31334  30.981  41.329   2.759
59075W        W31335  36.577   1.694  11.405
59076W        W31336  25.642   7.230  14.737
59077W        W31337  44.822  30.598   0.203
59078W        W31338  33.296  19.727   9.778
59079W        W31339  36.858   3.182  12.063
59080W        W31340  15.245  41.875   1.627
59081W        W31341   7.305  26.006  11.910
59082W        W31342  33.317  19.141   3.853
59083W        W31343  42.542  37.216  14.310
59084W        W31344   4.280  30.245  13.789
59085W        W31345   3.503  23.934  12.283
59086W        W31346  22.708   8.892  13.525
59087W        W31347  39.946  33.210   2.451
59088W        W31348  21.037  14.812  11.369
59089W        W31349  19.025  44.687   2.348
59090W        W31350  18.696  40.769  14.805
59091W        W31351   4.627   5.995   4.099
59092W        W31352  40.398  36.045   0.769
59093W        W31353  38.090  19.544  13.000
59094W        W31354   6.372  36.040   4.356
59095W        W31355  35.549   2.091   3.761
59096W        W31356  29.982  14.023  14.437
59097W        W31357   4.696  43.964  12.198
59098W        W31358  25.178  35.167  13.159
59099W        W31359  34.465  26.693  12.298
59100W        W31360  41.142   6.302  11.214
59101W        W31361   4.478  20.702   1.259
59102W        W31362  38.492   7.838   0.342
59103W        W31363  41.860   6.885  14.871
59104W        W31364   0.851  21.760   4.339
59105W        W31365   8.788  25.328   2.773
59106W        W31366  11.566   2.895   3.178
59107W        W31367  13.069  13.311  11.004
59108W        W31368  23.464  29.902  13.279
59109W        W31369  11.717  11.759  14.278
59110W        W31370  23.514   2.036  11.533
59111W        W31371  30.647   1.433   4.825
59112W        W31372  27.954   1.513  13.997
59113W        W31373  15.490   6.662   1.592
59114W        W31374  26.898  29.719   4.129
59115W        W31375  23.663  35.915   1.249
59116W        W31376   5.493  15.353   0.399
59117W        W31377  43.750  33.566  14.585
59118W        W31378  25.544  32.943  13.061
59119W        W31379  34.632  34.332  13.574
59120W        W31380  12.053   1.481   3.180
59121W        W31381  42.962  21.087  11.421
59122W        W31382  11.914  31.679  12.433
59123W        W31383   1.957  17.096   0.571
59124W        W31384   2.331  15.316  13.035
59125W        W31385  26.371  27.566  13.206
59126W        W31386  27.413  40.690  10.281
59127W        W31387  23.313  23.613  12.090
59128W        W31388   6.337   5.384  14.407
59129W        W31389   2.275  44.545   1.894
59130W        W31390  11.851  11.801   3.280
59131W        W31391   7.223  20.671   0.475
59132W        W31392  36.060  40.754   3.694
59133W        W31393   2.715  20.970   2.168
59134W        W31394  31.376  14.317  13.412
59135W        W31395  37.331  23.374  11.205
59136W        W31396  34.075   5.298  12.853
59137W        W31397  16.538  37.708   3.620
59138W        W31398  23.218  14.762   1.029
59139W        W31399   2.952  31.882  13.414
59140W        W31400  42.220  19.990  10.804
59141W        W31401  40.811  19.530   4.948
59142W        W31402  24.789  25.886  11.376
59143W        W31403  41.491  10.327  10.690
59144W        W31404  37.999  38.774  10.295
59145W        W31405  39.344  11.520  12.015
59146W        W31406   7.771   1.818   4.917
59147W        W31407  38.091  13.130   4.495
59148W        W31408  12.683  32.663   4.180
59149W        W31409  17.645  28.924  14.322
59150W        W31410  24.462  19.498   4.039
59151W        W31411   1.396  41.488   4.372
59152W        W31412  18.306  36.501  11.055
59153W        W31413  36.661  35.323  11.159
59154W        W31414  19.966  24.522  14.868
59155W        W31415  32.866  32.802  13.835
59156W        W31416  11.755  17.975  14.436
59157W        W31417  29.516  26.718   5.157
59158W        W31418  43.318  15.124   4.359
59159W        W31419   9.384   1.282  14.799
59160W        W31420  31.667  35.603  12.518
59161W        W31421  31.616   6.520  12.039
59162W        W31422  38.649  30.429   1.236
59163W        W31423   8.848  18.310  12.099
59164W        W31424  17.139  13.683  13.990
59165W        W31425  30.536  37.051  14.843
59166W        W31426  40.982   0.401   3.616
59167W        W31427   8.939   4.260  10.963
59168W        W31428  26.511  44.042  10.332
59169W        W31429  23.244   5.007   3.068
59170W        W31430  31.650  33.461  11.518
59171W        W31431  13.843  13.887   0.680
59172W        W31432  40.703  35.706  13.306
59173W        W31433   6.240  36.483   4.114
59174W        W31434  11.910  41.323   2.626
59175W        W31435   9.408  44.363  14.280
59176W        W31436  38.824  35.318  10.595
59177W        W31437  21.027  39.021   3.065
59178W        W31438  43.069  36.342   3.742
59179W        W31439  31.587  19.333  12.087
59180W        W31440  15.166  39.312   3.293
59181W        W31441   5.306  32.576  13.137
59182W        W31442  21.655  36.981   0.489
59183W        W31443  42.975  38.309  14.462
59184W        W31444  19.058  36.451   2.264
59185W        W31445  16.152  33.418   2.781
59186W        W31446   5.400  29.510   2.274
59187W        W31447  15.031   0.752  14.376
59188W        W31448  13.195  30.899  10.726
59189W        W31449  40.379  41.508   4.601
59190W        W31450  15.601  28.036  14.165
59191W        W31451  21.657  42.265  11.107
59192W        W31452   2.274  19.590   0.862
59193W        W31453  28.578  41.392  13.587
59194W        W31454  40.384   0.248  14.903
59195W        W31455  38.889  40.099  13.427
59196W        W31456  37.854  34.496  14.228
59197W        W31457   8.118  26.532  14.943
59198W        W31458  16.488  26.242   3.826
59199W        W31459  10.826   3.813   3.271
59200W        W31460   0.409  37.303   3.697
59201W        W31461  17.676  41.250  14.037
59202W        W31462  35.037   1.606   0.865
59203W        W31463   2.320  22.306   4.463
59204W        W31464  40.543  10.746  10.731
59205W        W31465  34.946  16.501  12.988
59206W        W31466  30.940   8.489   1.853
59207W        W31467  16.654  24.155  14.572
59208W        W31468  40.157  22.016   1.078
59209W        W31469  22.480  26.476  10.164
59210W        W31470  29.202   8.403   0.938
59211W        W31471  24.270  26.034   2.134
59212W        W31472  29.518  16.765  14.380
59213W        W31473  44.735   7.344  14.004
59214W        W31474  17.358  40.078  11.597
59215W        W31475  17.711  34.041  11.209
59216W        W31476   2.408  25.448  14.349
59217W        W31477  21.089  14.809  11.908
59218W        W31478   8.204   6.697  12.889
59219W        W31479  16.088  12.629   4.658
59220W        W31480   0.341  42.621  13.414
59221W        W31481  32.144  15.136  10.784
59222W        W31482  22.774  24.398  14.455
59223W        W31483  28.395  15.095   0.280
59224W        W31484  22.597  41.080   4.929
59225W        W31485  37.125  12.261   2.437
59226W        W31486  44.911  23.254   3.658
59227W        W31487   1.917  43.069   1.874
59228W        W31488   4.368  24.489   4.172
59229W        W31489  24.274  27.941   5.033
59230W        W31490  43.234  29.127   4.240
59231W        W31491  44.249  37.273   4.109
59232W        W31492  16.155  16.864   5.138
59233W        W31493  11.145  30.987   3.616
59234W        W31494  35.359   6.766   1.206
59235W        W31495  39.535  32.625   3.627
59236W        W31496   4.323  32.889  11.690
59237W        W31497  11.203  15.575  14.362
59238W        W31498  17.317  10.897  13.759
59239W        W31499   7.810  42.011   0.297
59240W        W31500  10.899  44.335   2.876
59241W        W31501  34.978  31.908   4.076
59242W        W31502   6.554   0.752  12.651
59243W        W31503   0.455  37.261  13.287
59244W        W31504  31.342  37.940  11.581
59245W        W31505  35.291  31.565  13.390
59246W        W31506   7.780  27.447  12.452
59247W        W31507  37.068   4.282   0.501
59248W        W31508  33.595  29.112  12.105
59249W        W31509   6.538  15.248   0.944
59250W        W31510  22.499  27.035   0.923
59251W        W31511  37.506  21.001   4.832
59252W        W31512  38.993   5.000  10.825
59253W        W31513  36.797  16.674   4.076
59254W        W31514  41.540  11.192  11.575
59255W        W31515   4.635   4.866   2.314
59256W        W31516  43.748   0.854   0.736
59257W        W31517  22.492  27.560   1.809
59258W        W31518  32.613   9.228   3.797
59259W        W31519  15.244  23.229  13.620
59260W        W31520  17.537   8.705   0.681
59261W        W31521  24.309  27.198   4.052
59262W        W31522  22.694   9.641   1.697
59263W        W31523  35.589  11.651   0.206
59264W        W31524  32.489  15.753   0.641
59265W        W31525  17.502  21.215  13.154
59266W        W31526  19.808  32.436   2.380
59267W        W31527  13.366  11.184   4.742
59268W        W31528   5.878   5.433  13.226
59269W        W31529   6.977  16.936  13.920
59270W        W31530  34.054  27.920  12.322
59271W        W31531  40.378  12.113   4.578
59272W        W31532  38.134  11.596   0.151
59273W        W31533  43.799  17.219   4.539
59274W        W31534  44.816  23.622   2.201
59275W        W31535  44.352  38.323  12.034
59276W        W31536  35.794  34.573   3.622
59277W        W31537  15.067  31.107   1.426
59278W        W31538  31.154  43.774   2.977
59279W        W31539  27.068   6.746   4.255
59280W        W31540  33.558   0.299  13.416
59281W        W31541  41.445  17.770  14.534
59282W        W31542  30.356  17.252  13.419
59283W        W31543  40.575  41.407  12.933
59284W        W31544  38.843  36.042   1.223
59285W        W31545   0.244   9.701   1.887
59286W        W31546  41.575   0.732  13.351
59287W        W31547   3.131  14.717  11.517
59288W        W31548  44.939  26.000  14.033
59289W        W31549  30.397  28.202   1.756
59290W        W31550   3.022  13.623   3.883
59291W        W31551  43.966  40.577  11.935
59292W        W31552  13.286  40.830  12.453
59293W        W31553  33.598  44.458   0.887
59294W        W31554  38.632   0.304   2.503
59295W        W31555  31.035  39.079  10.685
59296W        W31556  16.125  14.128   3.365
59297W        W31557  21.610  19.105  13.929
59298W        W31558  12.321  10.755   3.226
59299W        W31559  26.616  41.839   2.125
59300W        W31560   0.724  36.111  11.634
59301W        W31561  17.060  15.632  14.013
59302W        W31562  17.319  10.652  14.578
59303W        W31563  36.997  20.591  14.483
59304W        W31564  31.847  11.948   2.284
59305W        W31565  12.894  41.303   1.047
59306W        W31566  41.508  42.865  10.906
59307W        W31567  42.408  30.046   1.441
59308W        W31568  11.961  12.576   0.841
59309W        W31569   1.518  29.425   2.425
59310W        W31570   7.907  18.661  11.377
59311W        W31571   5.916  44.898  11.021
59312W        W31572  14.128  32.901  14.696
59313W        W31573  33.379  11.581   3.564
59314W        W31574  18.761  26.758   2.806
59315W        W31575   1.451   9.421  14.016
59316W        W31576  24.004  17.510  12.110
59317W        W31577  24.713  28.118  14.067
59318W        W31578  18.131  28.225  12.053
59319W        W31579  22.518   2.747  11.026
59320W        W31580  43.005  34.212  13.665
59321W        W31581  19.499  13.560  12.080
59322W        W31582  38.696   5.899  14.385
59323W        W31583  41.486  18.576  12.970
59324W        W31584   1.211  33.658  14.423
59325W        W31585   1.011  34.401   4.148
59326W        W31586   9.805  30.455  12.222
59327W        W31587  28.475  14.661   4.612
59328W        W31588   4.751  24.434  10.432
59329W        W31589   5.918  22.450   0.869
59330W        W31590  36.050   0.692  12.972
59331W        W31591  27.852  29.923   1.749
59332W        W31592  20.520  37.836  10.578
59333W        W31593  30.935  33.726   0.220
59334W        W31594  28.168  25.264  14.258
59335W        W31595  28.652  40.454   4.258
59336W        W31596  19.186  10.190   3.704
59337W        W31597  23.289  43.904  12.978
59338W        W31598  25.518  24.281   0.078
59339W        W31599  38.376  24.539  12.594
59340W        W31600  39.196  35.050  14.562
59341W        W31601   9.100  34.487  11.125
59342W        W31602  38.596  33.181   1.485
59343W        W31603  14.363  36.157  12.194
59344W        W31604  11.648  10.555  12.172
59345W        W31605  15.751  39.513  14.032
59346W        W31606  15.651   4.008   3.102
59347W        W31607   5.395  13.606  11.362
59348W        W31608  15.140   8.887  10.572
59349W        W31609  10.865  43.725   1.651
59350W        W31610   4.033  36.459  11.031
59351W        W31611  12.849  36.597  14.486
59352W        W31612  30.496  14.609   0.097
59353W        W31613  30.886  38.947   3.900
59354W        W31614  12.157  10.594   1.180
59355W        W31615  24.243  11.775  10.693
59356W        W31616  33.865  33.193  12.406
59357W        W31617  28.894  41.517   4.119
59358W        W31618  10.884  36.344   4.580
59359W        W31619  43.238  20.512  10.723
59360W        W31620   9.761  42.739   4.655
59361W        W31621  43.162  24.024   0.666
59362W        W31622   9.975  22.283  12.128
59363W        W31623  43.158  12.093  12.020
59364W        W31624  37.661  18.268   2.234
59365W        W31625  17.711   9.504  12.574
59366W        W31626  27.208   0.796  11.730
59367W        W31627  27.801  31.473  10.179
59368W        W31628  14.675  29.863  11.831
59369W        W31629   3.054  31.298   2.851
59370W        W31630  15.038  33.897   2.218
59371W        W31631  29.706  12.435  11.691
59372W        W31632  37.457  21.083   1.733
59373W        W31633  16.526  30.597  10.697
59374W        W31634   3.013  35.844  12.038
59375W        W31635  44.454  38.450  10.162
59376W        W31636  16.391  39.283   1.721
59377W        W31637  27.562  32.634  13.781
59378W        W31638  17.771  28.721  12.936
59379W        W31639   3.176  13.628  14.106
59380W        W31640  24.229  11.815   4.127
59381W        W31641  26.467  21.787   2.979
59382W        W31642  42.223  30.615   3.129
59383W        W31643  14.355  18.577  13.463
59384W        W31644  19.306  43.852   1.233
59385W        W31645  37.172  16.577  12.260
59386W        W31646  15.611  20.572  11.108
59387W        W31647  28.629  29.460   3.125
59388W        W31648  17.254  30.785  11.587
59389W        W31649  20.728  40.374   2.688
59390W        W31650  40.032  23.508   2.740
59391W        W31651  21.639  11.187   0.486
59392W        W31652  15.765  20.136   4.107
59393W        W31653  42.428  12.718  13.737
59394W        W31654   3.184  29.592   2.268
59395W        W31655   5.015   5.748   0.989
59396W        W31656  10.367   2.716  13.370
59397W        W31657  25.409  43.485  12.502
59398W        W31658   2.564  32.570   0.455
59399W        W31659  32.489  42.836  11.705
59400W        W31660  36.471  23.215   2.835
59401W        W31661  44.844  13.394   1.926
59402W        W31662  41.401  39.051   4.564
59403W        W31663  32.507  12.322   1.241
59404W        W31664  16.715  25.493   1.756
59405W        W31665  43.556  20.607   3.638
59406W        W31666  24.549  33.825   4.700
59407W        W31667  41.422  28.927  12.065
59408W        W31668   9.762  11.434  13.348
59409W        W31669   4.422  32.532  13.284
59410W        W31670   9.505  21.342   5.069
59411W        W31671  31.155  11.309  11.884
59412W        W31672  40.534  38.638   2.876
59413W        W31673  42.865   3.675  10.763
59414W        W31674  39.482   1.841   2.289
59415W        W31675  13.610  44.225   0.271
59416W        W31676  31.587  18.693   0.852
59417W        W31677  13.663  26.030  12.015
59418W        W31678  37.120  42.336   2.964
59419W        W31679  32.184  23.966   1.367
59420W        W31680  23.239  44.457   1.670
59421W        W31681  13.644   1.388  13.014
59422W        W31682  26.159  21.565   1.386
59423W        W31683   9.250   7.228  13.792
59424W        W31684  13.050  15.588   1.374
59425W        W31685  40.517  28.690   4.775
59426W        W31686   3.462  28.616   3.140
59427W        W31687  37.347  15.796  12.915
59428W        W31688  40.989  44.059  13.110
59429W        W31689  32.016  38.048  13.453
59430W        W31690  21.138  18.211   3.771
59431W        W31691  15.559  33.271  11.886
59432W        W31692  14.317  37.309   1.208
59433W        W31693  14.942  36.061   2.023
59434W        W31694   0.339  44.861  11.189
59435W        W31695  29.374  19.257  10.736
59436W        W31696  26.441  36.497   1.562
59437W        W31697  41.264  40.016  12.993
59438W        W31698   0.285  33.169  10.602
59439W        W31699  39.554   6.246   2.676
59440W        W31700  27.782  30.670  10.147
59441W        W31701   4.901  12.216  10.527
59442W        W31702  31.717   1.473  14.304
59443W        W31703  38.360  29.850  13.962
59444W        W31704   0.038  22.469   2.825
59445W        W31705   1.917  32.188   0.233
59446W        W31706  24.129  41.186  13.276
59447W        W31707   2.508  39.355  11.647
59448W        W31708  30.442  36.051   3.220
59449W        W31709  31.236   4.938   1.873
59450W        W31710  33.349   1.435   3.761
59451W        W31711   0.868  26.675   9.850
59452W        W31712   8.856  26.461   3.705
59453W        W31713  10.863  40.774   4.063
59454W        W31714  31.854  39.042   0.924
59455W        W31715  32.652  20.797   2.886
59456W        W31716  37.291   5.277   1.356
59457W        W31717  10.378  12.541  11.161
59458W        W31718  17.354   6.856   0.285
59459W        W31719  39.634  13.638  14.475
59460W        W31720  29.358   8.448  11.144
59461W        W31721  29.237  32.752  12.079
59462W        W31722   4.740  19.555   0.161
59463W        W31723   1.253   7.780  12.066
59464W        W31724  44.260  43.827  13.879
59465W        W31725  24.013  22.480  12.470
59466W        W31726  43.209  28.943  11.134
59467W        W31727   5.527  26.200  11.588
59468W        W31728  36.294   0.315   0.952
59469W        W31729   5.320  27.151  11.439
59470W        W31730  23.202  21.618   5.155
59471W        W31731  21.412  44.249  12.378
59472W        W31732  41.472  38.429   3.251
59473W        W31733  34.495  29.606   2.662
59474W        W31734  44.910  18.335  11.248
59475W        W31735  27.497  29.561   0.348
59476W        W31736  36.914   6.036  14.928
59477W        W31737  30.438  31.668   4.511
59478W        W31738  29.191  32.501   2.230
59479W        W31739  20.550  10.174   0.220
59480W        W31740   1.316   7.123   3.684
59481W        W31741   5.281  10.043   1.170
59482W        W31742  41.324  37.051   4.827
59483W        W31743  35.124  42.772   2.877
59484W        W31744  44.881  15.502   1.175
59485W        W31745  14.902  37.184   2.319
59486W        W31746  21.314  37.888  14.263
59487W        W31747  18.135  12.724  10.433
59488W        W31748  34.000  18.025   0.695
59489W        W31749  39.335   3.938   2.088
59490W        W31750   9.082  15.098   2.834
59491W        W31751  30.496  42.271   1.620
59492W        W31752  37.587  31.112  11.687
59493W        W31753  37.287  43.221   3.153
59494W        W31754  31.215  42.559  12.988
59495W        W31755  20.183  39.459  13.890
59496W        W31756   8.516  24.164  12.920
59497W        W31757   3.270  18.240  13.143
59498W        W31758   6.327  30.035   4.221
59499W        W31759   1.351  33.131  14.342
59500W        W31760  12.564  29.960   4.218
59501W        W31761  37.085  33.174   2.266
59502W        W31762  20.261  39.133  11.566
59503W        W31763  31.609  35.424  11.616
59504W        W31764  36.220  10.844   4.897
59505W        W31765  27.789  36.050   4.656
59506W        W31766  43.313  35.493   0.333
59507W        W31767  32.420  43.289  10.910
59508W        W31768  13.664  30.445   2.871
59509W        W31769  27.983   3.350   0.804
59510W        W31770   9.754  20.095  13.402
59511W        W31771  32.185  29.545   4.970
59512W        W31772   4.595   2.421  12.947
59513W        W31773  20.980  27.254  14.001
59514W        W31774  14.770  14.009  11.116
59515W        W31775  24.953  39.982  10.139
59516W        W31776  12.711   6.743  10.798
59517W        W31777  20.650  43.816   3.293
59518W        W31778  15.146  21.249  11.942
59519W        W31779   6.722  39.287   3.346
59520W        W31780   8.468  27.007   1.498
59521W        W31781  38.805  20.226  12.914
59522W        W31782  43.102   1.936  10.940
59523W        W31783  10.211  33.094  12.450
59524W        W31784  30.467   8.301  12.465
59525W        W31785   5.770   1.284   0.367
59526W        W31786   4.485  24.745   3.718
59527W        W31787   9.790  22.968   0.737
59528W        W31788   7.111  17.440  13.966
59529W        W31789   6.711  26.981  13.302
59530W        W31790  17.261  37.091  11.703
59531W        W31791  36.496  16.075  14.892
59532W        W31792  20.651  15.086   3.275
59533W        W31793  31.537   9.499  14.522
59534W        W31794  11.099   2.512   2.703
59535W        W31795   3.725  39.564   3.151
59536W        W31796  29.452  44.034  13.242
59537W        W31797  33.976  35.577  10.937
59538W        W31798   9.281  24.819   3.190
59539W        W31799  19.989  12.212   4.755
59540W        W31800   2.790  24.565   1.409
59541W        W31801   2.696  11.919  11.942
59542W        W31802   0.538  14.195   3.130
59543W        W31803  39.358  24.808  12.406
59544W        W31804  35.889  31.404  13.487
59545W        W31805   8.010  21.712  12.155
59546W        W31806  39.579  18.337   1.214
59547W        W31807   0.408  19.780   3.751
59548W        W31808  13.863  37.617  11.463
59549W        W31809  39.359  12.980  10.761
59550W        W31810  33.863  39.973  13.726
59551W        W31811  16.430   9.840   2.226
59552W        W31812  19.222  44.387  11.553
59553W        W31813  37.996  40.816   4.335
59554W        W31814  37.964  10.232   4.702
59555W        W31815  18.653  21.306   3.713
59556W        W31816  25.581  11.600  12.086
59557W        W31817  22.315  10.646   4.217
59558W        W31818  26.466  32.095  13.755
59559W        W31819  32.578  29.296  13.469
59560W        W31820  10.272   0.412  14.344
59561W        W31821  25.723  37.104  10.911
59562W        W31822  11.296  16.550   4.386
59563W        W31823  27.422  28.497  13.299
59564W        W31824  13.198  28.658   4.484
59565W        W31825  18.713  20.457   4.085
59566W        W31826  11.388  43.349   2.278
59567W        W31827  24.528  10.373  12.738
59568W        W31828  43.500  28.089  10.720
59569W        W31829   9.481  37.316   0.907
59570W        W31830  39.605   6.664   2.333
59571W        W31831  29.903   9.863   1.508
59572W        W31832  16.059  39.234  13.464
59573W        W31833  29.783  33.915   1.964
59574W        W31834  40.780  41.245   4.381
59575W        W31835  30.850  41.946  13.935
59576W        W31836  24.632  37.335  13.381
59577W        W31837  24.169  42.341   3.686
59578W        W31838  34.667  22.014   2.798
59579W        W31839   4.913  33.560  13.937
59580W        W31840   4.145   7.939  11.072
59581W        W31841  19.268   9.636  10.673
59582W        W31842  14.085  24.612   0.321
59583W        W31843   2.493  17.287   3.202
59584W        W31844   2.867  13.327   0.244
59585W        W31845   7.792  43.590  12.537
59586W        W31846  31.466  31.640   2.373
59587W        W31847  27.576  30.117   2.905
59588W        W31848   1.515  23.181  11.142
59589W        W31849  42.271  13.535  14.749
59590W        W31850  32.828  38.984  10.955
59591W        W31851  22.511  22.189  13.923
59592W        W31852  38.795   8.069  14.967
59593W        W31853  16.128   2.327  13.376
59594W        W31854  24.585  28.609  11.125
59595W        W31855   3.688  32.592   1.461
59596W        W31856  31.150  17.149  12.487
59597W        W31857  26.995   7.398  11.277
59598W        W31858  41.062  42.267   1.005
59599W        W31859  31.654   3.054  10.912
59600W        W31860   0.382  11.151   1.202
59601W        W31861  17.673   1.870  12.684
59602W        W31862  26.662  17.837   3.145
59603W        W31863  36.953  17.710   2.328
59604W        W31864  36.594  30.261  14.272
59605W        W31865  26.942  22.720   3.726
59606W        W31866  34.206  22.640  13.957
59607W        W31867  34.948  42.605  13.571
59608W        W31868  36.517  15.770  14.457
59609W        W31869  41.787  17.069  14.979
59610W        W31870  22.032   5.198  14.924
59611W        W31871  43.728  38.004  11.607
59612W        W31872   0.821  23.957   1.267
59613W        W31873  34.154  17.061  14.175
59614W        W31874  32.817  36.901   2.264
59615W        W31875  17.657  13.228  12.075
59616W        W31876  26.464  37.325  12.418
59617W        W31877  32.416  38.350  14.372
59618W        W31878  29.290   2.342  12.953
59619W        W31879  22.042   1.493  12.038
59620W        W31880  36.992  19.712   2.782
59621W        W31881  29.297  33.018  10.118
59622W        W31882  38.229  37.463  10.204
59623W        W31883  31.505  27.502  10.708
59624W        W31884  19.205  25.717  11.676
59625W        W31885  34.007  44.878   4.592
59626W        W31886  19.643   5.937   4.848
59627W        W31887  31.518  11.571   1.954
59628W        W31888  13.173  25.940  14.525
59629W        W31889  35.101   2.028   1.159
59630W        W31890  10.649   1.291  11.187
59631W        W31891  39.244  37.843  14.512
59632W        W31892   0.358   2.165  14.016
59633W        W31893  18.740  43.370   3.028
59634W        W31894  27.024  42.427   1.974
59635W        W31895  23.015  33.092   2.123
59636W        W31896  30.542  23.039   3.825
59637W        W31897   5.313  21.132   0.392
59638W        W31898  37.781  37.518   0.465
59639W        W31899  19.746  24.654   1.979
59640W        W31900  42.810   2.344  12.121
59641W        W31901  35.893  31.911  11.317
59642W        W31902  28.914   8.156  13.246
59643W        W31903   7.168  41.853  11.126
59644W        W31904  10.843  13.167   1.495
59645W        W31905   1.831  22.777  13.170
59646W        W31906  22.168  37.196  13.412
59647W        W31907  32.007   9.777  12.020
59648W        W31908  20.770  32.851   3.311
59649W        W31909  20.126  42.374   3.448
59650W        W31910  42.739  21.052   3.783
59651W        W31911  42.942  12.830   2.789
59652W        W31912   2.235  10.153   0.803
59653W        W31913  17.213  28.142  11.501
59654W        W31914  34.784   1.736   1.925
59655W        W31915   7.780   1.347  14.556
59656W        W31916  22.654  34.152   4.094
59657W        W31917   3.788  40.419   1.930
59658W        W31918  27.908   6.422  11.016
59659W        W31919  11.836  44.384   0.669
59660W        W31920  40.581  15.723  11.172
59661W        W31921  21.075  21.144   0.341
59662W        W31922  26.246   7.423   0.810
59663W        W31923  25.722  42.584   3.785
59664W        W31924   0.383   1.101  11.547
59665W        W31925  12.769  44.068  14.587
59666W        W31926   7.820   7.187  13.369
59667W        W31927  13.266  21.754  14.040
59668W        W31928  19.040  37.599  12.122
59669W        W31929  36.331   7.774   0.226
59670W        W31930  22.130   0.293  12.769
59671W        W31931  37.270  31.889   2.768
59672W        W31932  36.284  30.657   0.831
59673W        W31933   1.345  42.455  10.826
59674W        W31934  35.928  25.290   0.286
59675W        W31935  40.584   2.703  12.341
59676W        W31936  25.556  12.509   1.495
59677W        W31937   0.434  35.136  14.590
59678W        W31938  22.705  37.386  12.474
59679W        W31939   2.903  28.681   4.058
59680W        W31940  36.914   5.685  14.538
59681W        W31941   8.339  24.507   2.696
59682W        W31942  30.456  41.400  10.761
59683W        W31943  26.280  21.776  11.506
59684W        W31944  29.262  12.110  12.882
59685W        W31945  20.218  18.819  11.053
59686W        W31946   9.108  26.943  10.466
59687W        W31947   9.902  32.137   4.391
59688W        W31948  11.295  16.059   3.770
59689W        W31949   3.411  10.832  10.652
59690W        W31950  39.740   6.873  13.876
59691W        W31951  44.354  23.265  11.131
59692W        W31952  13.154   0.170   0.746
59693W        W31953  18.971  28.732   0.337
59694W        W31954  38.722  36.125  13.507
59695W        W31955   1.712   4.214  12.078
59696W        W31956  24.456  25.912   4.028
59697W        W31957   7.468   2.361   3.324
59698W        W31958  22.245  34.060  11.140
59699W        W31959  16.384  16.077   3.151
59700W        W31960  14.293  35.051  14.448
59701W        W31961  11.172  20.093  12.113
59702W        W31962  23.068  41.487   2.164
59703W        W31963   2.952   3.325   3.785
59704W        W31964   1.902  12.173   1.395
59705W        W31965  29.414  29.977   4.675
59706W        W31966   0.904   2.044  12.941
59707W        W31967   0.492  34.883   0.772
59708W        W31968  42.817   0.891   4.590
59709W        W31969  10.709  40.076   2.839
59710W        W31970  36.424  38.536  12.824
59711W        W31971  15.738  21.577   3.415
59712W        W31972   0.251  19.633  14.481
59713W        W31973  36.520  38.283  14.506
59714W        W31974  30.633  15.788   1.371
59715W        W31975  37.692  11.671   1.753
59716W        W31976  22.641  37.483  11.599
59717W        W31977  32.194   3.654  12.070
59718W        W31978  30.336  23.294   4.269
59719W        W31979  43.422  30.233  12.039
59720W        W31980   7.462  19.655   3.247
59721W        W31981  40.950  29.650   3.476
59722W        W31982   7.702  42.908  11.598
59723W        W31983  15.149  36.592   4.227
59724W        W31984  30.709  24.732   2.250
59725W        W31985  43.928  42.882  14.810
59726W        W31986  11.874  25.489  12.434
59727W        W31987  12.811  25.624  10.548
59728W        W31988  36.954  18.294   3.733
59729W        W31989  25.740  26.082  10.431
59730W        W31990  14.836  38.940  10.191
59731W        W31991  15.702  41.477   2.710
59732W        W31992  19.775  18.344  13.769
59733W        W31993  17.639  23.033   3.326
59734W        W31994   8.560   2.880   3.623
59735W        W31995   7.416  32.805   3.705
59736W        W31996  20.767  41.502   1.885
59737W        W31997  21.538  26.623   5.063
59738W        W31998  36.821  15.807  12.857
59739W        W31999  20.163   7.577   3.335
59740W        W32000   5.798  12.224  13.005
59741W        W32001  17.777  26.107   4.336
59742W        W32002  20.243  37.666  13.786
59743W        W32003  43.383  16.614   3.156
59744W        W32004  28.127  40.304  11.143
59745W        W32005   8.723  24.476  14.860
59746W        W32006   9.091  31.993  14.442
59747W        W32007   6.445  20.967   5.046
59748W        W32008  43.983  29.658   4.145
59749W        W32009  41.442  40.341  14.361
59750W        W32010  27.925   5.509  11.093
59751W        W32011  32.453   8.407  11.967
59752W        W32012  26.999  39.810   0.374
59753W        W32013  41.408  25.281  13.991
59754W        W32014  19.346   1.925  10.626
59755W        W32015  13.298  32.294  10.649
59756W        W32016   6.914  27.322  10.039
59757W        W32017  37.114   6.115   1.708
59758W        W32018  21.031  44.495  11.503
59759W        W32019  28.572   1.838  11.097
59760W        W32020  38.100  31.621   1.557
59761W        W32021  28.623  34.375   1.487
59762W        W32022  17.745  21.579   0.818
59763W        W32023   7.873  22.103   4.229
59764W        W32024  20.526  33.164   3.635
59765W        W32025  10.358  41.610  13.946
59766W        W32026  38.527  31.780  11.970
59767W        W32027  35.319  12.662  14.279
59768W        W32028  11.301  33.290   3.475
59769W        W32029  16.945   6.845   1.950
59770W        W32030  37.247  44.206   3.081
59771W        W32031  36.998  14.349   5.192
59772W        W32032   4.859   9.178  14.326
59773W        W32033  21.904  25.646  10.617
59774W        W32034   6.160  40.462   3.327
59775W        W32035  26.935  24.844   0.938
59776W        W32036  40.362  14.288  10.759
59777W        W32037  43.980  15.188  12.071
59778W        W32038   7.172  17.677  11.702
59779W        W32039  39.350  43.042   2.221
59780W        W32040  13.364  31.940  10.031
59781W        W32041  17.960  14.377   2.283
59782W        W32042  38.126  39.971   0.019
59783W        W32043  27.588  16.282  13.985
59784W        W32044   7.203  27.394   0.171
59785W        W32045  17.972  17.751   1.335
59786W        W32046  41.810  42.592   2.679
59787W        W32047   9.588   5.439  12.893
59788W        W32048  35.178  23.964   0.411
59789W        W32049  33.383  37.092  11.179
59790W        W32050  22.188  21.355  12.786
59791W        W32051   8.597  15.095   0.863
59792W        W32052  13.717  14.426  12.306
59793W        W32053  33.399  17.128  10.705
59794W        W32054  37.114  24.629  10.724
59795W        W32055  22.689   5.848  14.578
59796W        W32056  44.280   2.251  14.857
59797W        W32057  30.593  22.248  12.812
59798W        W32058  32.066  30.858   0.584
59799W        W32059  11.956  40.839  14.245
59800W        W32060   4.234  12.091   0.443
59801W        W32061   4.287  38.321  13.847
59802W        W32062   2.231  22.100   2.337
59803W        W32063  18.121  16.868  12.537
59804W        W32064   1.456  25.950   4.185
59805W        W32065   4.274  11.274  11.954
59806W        W32066  32.656  13.788   0.267
59807W        W32067  32.577  39.499  12.027
59808W        W32068  37.282  39.868   0.331
59809W        W32069  20.024  34.650   0.267
59810W        W32070  34.076   4.451   2.844
59811W        W32071  16.225  28.627   0.214
59812W        W32072   6.460  39.482   1.387
59813W        W32073  28.697   6.017   0.705
59814W        W32074  25.841  14.843   3.708
59815W        W32075  12.775   1.657  11.507
59816W        W32076  19.729  34.427  13.726
59817W        W32077   1.363  27.768   4.693
59818W        W32078  19.969  32.691  14.100
59819W        W32079  42.982  18.625  14.550
59820W        W32080  34.292   6.342  10.679
59821W        W32081   8.339  19.072  12.935
59822W        W32082  37.909  37.300  14.515
59823W        W32083  43.567  21.683   1.963
59824W        W32084  35.484  44.892  14.963
59825W        W32085  12.222   1.575   3.703
59826W        W32086  27.601   7.546  12.490
59827W        W32087  34.613  40.288  13.360
59828W        W32088  16.542  16.823  13.284
59829W        W32089  40.384  12.914   3.184
59830W        W32090  34.653  32.631   1.292
59831W        W32091  21.693   7.627   2.897
59832W        W32092  41.325   8.227  12.435
59833W        W32093  41.152  35.296  11.970
59834W        W32094  14.055  40.450  11.620
59835W        W32095  33.812  36.272   2.952
59836W        W32096  21.928  44.399  10.610
59837W        W32097  43.256  44.971   2.779
59838W        W32098  24.684  37.513   3.595
59839W        W32099  39.482  23.825  12.490
59840W        W32100  36.093  36.013  11.465
59841W        W32101  19.806  44.361   4.296
59842W        W32102  25.033  22.205   0.917
59843W        W32103  16.852  18.445   3.824
59844W        W32104   6.888  15.619   2.488
59845W        W32105  37.810  25.525   1.502
59846W        W32106  10.648  22.602   3.759
59847W        W32107  23.163  12.336  11.928
59848W        W32108  22.113  39.424  11.611
59849W        W32109  28.884   0.410  13.052
59850W        W32110  17.489   2.908   2.019
59851W        W32111  20.348   7.107   3.225
59852W        W32112  41.288   4.884   4.246
59853W        W32113  16.711  36.450  13.998
59854W        W32114  17.273   6.437   4.346
59855W        W32115  37.930  34.798   4.174
59856W        W32116  19.062  12.600   3.533
59857W        W32117  17.563  26.172  14.463
59858W        W32118  40.574  22.908  13.553
59859W        W32119  11.685  29.645   2.753
59860W        W32120  44.325  31.634   4.474
59861W        W32121  25.725   3.528  10.592
59862W        W32122   6.773  28.678  12.024
59863W        W32123  16.800  42.239  13.722
59864W        W32124  41.550  26.228  12.635
59865W        W32125  30.562   9.082   0.019
59866W        W32126  11.706  24.555   3.866
59867W        W32127  13.790  27.933   5.056
59868W        W32128  41.460  35.771   3.348
59869W        W32129   7.740   0.557   1.454
59870W        W32130  16.906  28.591   1.862
59871W        W32131  43.368   9.187   0.453
59872W        W32132  38.907  11.363  10.217
59873W        W32133  16.260  25.375   4.056
59874W        W32134  33.237  38.389   0.513
59875W        W32135  17.816   4.282  10.633
59876W        W32136   3.461  42.332  14.964
59877W        W32137  29.855  44.111   1.206
59878W        W32138   6.536  26.579   4.239
59879W        W32139  23.775  27.653   0.350
59880W        W32140  22.628   7.649   2.436
59881W        W32141  43.878  42.319  12.421
59882W        W32142  11.133   0.953  10.451
59883W        W32143  29.008  35.579  10.381
59884W        W32144  18.254  42.838   1.795
59885W        W32145   1.974  21.212   2.797
59886W        W32146  17.229  36.500   1.659
59887W        W32147  10.669  35.034   4.133
59888W        W32148  25.617  37.322   2.423
59889W        W32149  17.231  43.182  14.898
59890W        W32150  26.245  37.814  10.634
59891W        W32151  44.731   9.848   1.860
59892W        W32152  21.052   9.397   0.132
59893W        W32153   0.370  39.098  13.452
59894W        W32154  31.612  24.777   2.311
59895W        W32155  13.719  30.673  10.786
59896W        W32156   2.932  40.928  13.523
59897W        W32157  13.926  16.823   4.713
59898W        W32158  17.104  22.942   3.410
59899W        W32159  17.641  25.023   2.268
59900W        W32160  44.247  22.069  11.951
59901W        W32161  33.965  13.002  12.433
59902W        W32162  41.358   6.589  10.847
59903W        W32163   7.390  36.814   3.349
59904W        W32164   7.219  29.086   1.822
59905W        W32165   5.962  11.935  13.828
59906W        W32166   9.016   6.154   3.627
59907W        W32167   2.231   9.905   2.754
59908W        W32168  31.523  26.201   3.763
59909W        W32169  22.236  42.013  13.812
59910W        W32170  11.359   6.695  11.034
59911W        W32171  20.627  23.662   1.926
59912W        W32172  21.585  11.133   3.170
59913W        W32173  13.348   0.229  11.112
59914W        W32174  15.329  16.781  11.512
59915W        W32175   4.532  23.103   3.263
59916W        W32176  20.699  38.595   2.912
59917W        W32177  43.744  28.037  13.090
59918W        W32178  40.348  11.349   2.331
59919W        W32179  36.560  26.162  14.467
59920W        W32180  14.706  28.111   2.147
59921W        W32181  15.927  12.080  12.533
59922W        W32182  18.728  29.087  13.507
59923W        W32183  22.635   6.628   0.958
59924W        W32184  32.187   4.637   3.728
59925W        W32185  17.838  36.521  12.902
59926W        W32186  28.169  15.805   2.884
59927W        W32187   2.988   4.523  11.536
59928W        W32188   3.137  36.609   2.657
59929W        W32189  44.532  33.588   2.782
59930W        W32190   7.583   4.363   1.811
59931W        W32191  22.758  13.824   4.651
59932W        W32192  32.111   5.173  13.679
59933W        W32193  27.639  28.882  14.823
59934W        W32194  25.932  24.029   0.228
59935W        W32195  35.316  10.630  11.042
59936W        W32196  36.442  16.271  14.373
59937W        W32197  15.064  23.711  11.577
59938W        W32198  26.952  39.769   3.266
59939W        W32199  14.136   8.743   0.874
59940W        W32200  38.369   7.602  12.768
59941W        W32201  43.878  30.121  11.609
59942W        W32202  17.613  30.396   2.051
59943W        W32203  12.404  14.805   3.683
59944W        W32204   7.885  32.523   0.792
59945W        W32205  11.730   6.214   1.359
59946W        W32206  11.287  23.181   1.874
59947W        W32207  37.633   2.253   4.932
59948W        W32208  32.372   4.683  14.911
59949W        W32209  13.303  28.120   0.370
59950W        W32210   4.360  15.050   4.636
59951W        W32211  20.324  40.841   0.966
59952W        W32212  44.738   7.739  13.388
59953W        W32213  25.080   4.664   0.883
59954W        W32214   2.706  41.395  11.240
59955W        W32215   7.860  29.649  13.537
59956W        W32216  14.984  33.009  14.703
59957W        W32217  31.189  28.247   0.473
59958W        W32218  32.548  34.937  12.997
59959W        W32219  25.985  15.761   4.501
59960W        W32220   1.205  15.379  11.565
59961W        W32221  25.453   8.847  10.414
59962W        W32222  13.829  30.977  12.362
59963W        W32223  41.800  43.551   2.807
59964W        W32224  17.956  30.623   1.757
59965W        W32225  38.066  41.337  12.069
59966W        W32226  12.160  24.739   0.005
59967W        W32227  38.428  15.032  13.639
59968W        W32228  10.038  33.919   1.371
59969W        W32229  32.273  27.617  11.098
59970W        W32230  38.045  18.128   1.508
59971W        W32231   6.231  22.682  12.943
59972W        W32232  22.249   1.670   0.915
59973W        W32233  14.296  38.943  12.786
59974W        W32234  31.238  44.819  13.748
59975W        W32235  19.176  16.378   4.639
59976W        W32236  11.552   5.857  10.654
59977W        W32237  42.496   1.926  11.913
59978W        W32238  39.832  44.868   3.390
59979W        W32239  43.319  16.742   1.282
59980W        W32240   4.836  32.125  11.743
59981W        W32241  29.760  14.362  12.207
59982W        W32242  41.488  34.338  14.029
59983W        W32243  39.981  40.486   2.376
59984W        W32244  19.214  40.365  11.104
59985W        W32245  16.398  44.313  10.712
59986W        W32246   3.404  27.970   2.285
59987W        W32247  17.707  19.661   1.113
59988W        W32248  20.116  22.905  13.152
59989W        W32249   0.419  36.134   0.956
59990W        W32250  14.897  14.588   4.139
59991W        W32251  18.892  41.020   1.241
59992W        W32252  35.546  16.085   4.640
59993W        W32253  40.626   5.167   2.439
59994W        W32254  44.892  20.844   0.685
59995W        W32255  38.537  26.996   0.397
59996W        W32256  25.829  20.163   3.474
59997W        W32257  15.732  10.235   4.734
59998W        W32258  32.705  18.592   0.986
59999W        W32259  41.422   0.259   3.875
60000W        W32260  22.788  40.386   1.720
60001W        W32261   2.751  34.481   0.476
60002W        W32262   7.627  17.313  14.774
60003W        W32263   9.041   4.610  10.114
60004W        W32264  43.795  13.777  13.019
60005W        W32265  16.896  37.638  10.542
60006W        W32266  40.502  30.334  13.170
60007W        W32267  37.420   6.854  13.210
60008W        W32268  29.539   6.711  13.026
60009W        W32269  11.731   7.703   4.788
60010W        W32270  41.308  40.970  10.517
60011W        W32271  35.987   6.112   0.962
60012W        W32272  35.423  27.016  13.992
60013W        W32273  15.492  32.455  12.027
60014W        W32274  22.234  44.960  11.052
60015W        W32275  24.166   7.845   0.320
60016W        W32276  26.738  41.932  14.749
60017W        W32277  32.241  31.809   3.619
60018W        W32278  33.178   2.753   2.689
60019W        W32279   6.664  40.986  11.090
60020W        W32280  39.854   6.861   2.739
60021W        W32281  25.101   6.573  13.580
60022W        W32282  26.137   5.667   2.699
60023W        W32283   0.820   9.782   4.678
60024W        W32284  22.184  21.804   2.263
60025W        W32285   5.420   6.373  11.082
60026W        W32286  10.345   2.506   1.255
60027W        W32287   4.470  38.124  12.035
60028W        W32288  29.641  21.701   0.504
60029W        W32289   6.806   6.763  13.584
60030W        W32290   2.153  22.948  11.504
60031W        W32291   8.284   9.820  14.329
60032W        W32292  16.987  34.938  14.568
60033W        W32293   9.816  30.989  14.847
60034W        W32294  42.369  18.549   2.331
60035W        W32295  31.041  30.960   4.618
60036W        W32296  14.291  14.210  13.568
60037W        W32297  39.601   1.549  12.678
60038W        W32298   7.844  16.874  10.768
60039W        W32299  41.549   3.961  10.671
60040W        W32300   5.178  22.215   2.405
60041W        W32301  36.678   9.965   1.035
60042W        W32302   6.496  38.407  12.693
60043W        W32303  20.137  31.227  14.049
60044W        W32304   4.830  13.553   0.895
60045W        W32305  24.743  16.696   3.606
60046W        W32306  17.621  38.591   2.328
60047W        W32307   1.335  43.392   4.355
60048W        W32308  32.876  32.521   0.083
60049W        W32309  38.213  40.849  10.276
60050W        W32310   6.687  21.826   3.426
60051W        W32311  23.643  29.685   3.104
60052W        W32312   8.596  43.186  12.010
60053W        W32313  33.732  27.570  11.241
60054W        W32314  31.565  29.219  11.127
60055W        W32315  39.778  14.592  11.140
60056W        W32316   8.213   8.312   2.286
60057W        W32317  31.820  10.658   2.848
60058W        W32318   0.941  12.166   1.384
60059W        W32319  27.236  10.125   1.039
60060W        W32320  22.790  39.091  13.618
60061W        W32321   7.164   4.177   2.620
60062W        W32322   5.319   7.015   0.269
60063W        W32323   2.821  24.081  12.521
60064W        W32324   3.893   1.672  14.525
60065W        W32325   0.914   6.145  14.776
60066W        W32326  39.539  37.481  12.015
60067W        W32327  44.108  15.211   2.678
60068W        W32328  20.128  22.727  11.586
60069W        W32329  30.971  43.066  14.389
60070W        W32330  16.048   7.183  12.858
60071W        W32331  40.286  13.718  11.642
60072W        W32332  16.786  38.292  11.925
60073W        W32333  33.573  36.574  13.978
60074W        W32334  34.026   5.732  13.123
60075W        W32335  33.434  34.988  14.067
60076W        W32336   6.635  33.805  12.994
60077W        W32337  42.275   2.677   4.686
60078W        W32338  21.103  26.718   2.882
60079W        W32339  21.172  26.110  10.092
60080W        W32340  24.182   6.228  14.815
60081W        W32341  26.943  32.525  12.936
60082W        W32342  35.141  24.948   0.325
60083W        W32343  43.145  26.641  11.402
60084W        W32344  38.095  21.726   0.215
60085W        W32345  33.943  28.784  12.947
60086W        W32346  24.590  33.174  13.325
60087W        W32347  40.524  39.804  11.854
60088W        W32348  20.429  32.104  10.599
60089W        W32349  11.270  43.508   1.351
60090W        W32350  14.122  16.556   0.234
60091W        W32351  17.074  21.052  11.900
60092W        W32352  14.840  36.966   1.386
60093W        W32353  37.371  30.135  12.800
60094W        W32354  27.700  31.648   5.456
60095W        W32355  36.524  18.111  10.072
60096W        W32356  34.651  13.219  14.075
60097W        W32357  41.559  37.586  10.571
60098W        W32358  34.370  20.061   1.662
60099W        W32359  17.546  39.544   2.421
60100W        W32360  25.168  19.609   3.265
60101W        W32361  10.530  24.111  13.317
60102W        W32362  41.570  12.860  10.738
60103W        W32363  43.878  38.303   0.489
60104W        W32364  16.695   4.558  14.538
60105W        W32365  14.804   2.421  12.890
60106W        W32366  36.758  43.299  12.315
60107W        W32367   7.961  15.987   4.636
60108W        W32368  33.492  22.182   3.747
60109W        W32369  18.946  26.450   0.548
60110W        W32370   2.156  25.654   2.620
60111W        W32371  26.418  42.350   2.864
60112W        W32372  10.453  18.790   0.287
60113W        W32373  10.095  34.876   1.320
60114W        W32374  10.123   5.013   4.450
60115W        W32375   1.431  31.160  14.337
60116W        W32376  21.195  22.207  14.496
60117W        W32377   2.921  15.545   4.320
60118W        W32378   1.065   2.807   1.737
60119W        W32379  14.547  30.759   3.247
60120W        W32380   4.353  43.886  11.465
60121W        W32381  37.152  25.284   1.316
60122W        W32382   9.600   4.923  12.977
60123W        W32383  22.619   4.488   3.429
60124W        W32384  19.013   5.049  11.576
60125W        W32385  41.460  11.346   0.952
60126W        W32386   0.018   7.728  13.814
60127W        W32387   3.791  28.958  11.986
60128W        W32388  33.808  14.305   0.844
60129W        W32389  37.815   7.831  14.133
60130W        W32390  19.073  42.079  10.600
60131W        W32391  31.364  37.548   2.413
60132W        W32392  13.822  11.383   0.016
60133W        W32393  10.216  39.250  12.940
60134W        W32394   9.149  30.366  12.922
60135W        W32395   8.301  44.737   0.836
60136W        W32396  38.026   7.345   2.160
60137W        W32397  26.193  24.731   4.486
60138W        W32398  27.272  12.392  14.973
60139W        W32399  34.803  37.718  11.908
60140W        W32400   1.907   2.811   4.597
60141W        W32401  15.981  40.807  14.477
60142W        W32402  20.326  32.079  14.802
60143W        W32403  40.477  24.591   3.973
60144W        W32404  20.854  22.639   4.165
60145W        W32405  10.282  17.095  14.956
60146W        W32406  24.977  26.529   2.437
60147W        W32407   8.686   4.904   3.293
60148W        W32408  32.422   9.222  12.918
60149W        W32409  10.401  27.461  12.335
60150W        W32410  44.283  31.728  14.597
60151W        W32411   1.274  38.869   3.737
60152W        W32412  22.039  25.654  12.881
60153W        W32413  31.451   3.311   3.625
60154W        W32414  43.853   7.124  12.940
60155W        W32415  35.905   6.436  14.985
60156W        W32416  15.282   2.685  10.567
60157W        W32417  32.644  39.465  11.116
60158W        W32418   4.177  14.950   0.604
60159W        W32419  19.186   0.960  14.280
60160W        W32420  28.570  14.385   0.759
60161W        W32421  35.871  36.208   1.966
60162W        W32422  21.469  35.462  13.504
60163W        W32423  40.493  20.812   0.738
60164W        W32424  26.458   2.375  14.551
60165W        W32425  23.627  34.296  13.301
60166W        W32426   2.248   1.265  12.309
60167W        W32427   7.876   6.153   4.468
60168W        W32428  10.422   0.890   2.944
60169W        W32429  33.029  23.262   1.751
60170W        W32430  28.054   8.194  14.985
60171W        W32431  33.877   9.367  11.524
60172W        W32432  33.927  42.945   1.594
60173W        W32433  32.400  15.561   3.222
60174W        W32434   7.152  32.515   3.340
60175W        W32435  23.589  37.081  13.915
60176W        W32436  25.992  39.821   1.298
60177W        W32437  39.310  21.792  11.584
60178W        W32438   7.455   5.408  13.251
60179W        W32439  23.756  17.583   4.372
60180W        W32440   7.720  44.406  13.062
60181W        W32441  24.028   4.870  14.501
60182W        W32442  32.605  44.228  14.759
60183W        W32443  25.244  33.355   0.780
60184W        W32444  29.271   8.049  12.368
60185W        W32445  26.714  30.451  12.861
60186W        W32446  42.376  24.622   0.892
60187W        W32447   1.204   3.556   0.439
60188W        W32448  23.613  43.498  12.990
60189W        W32449  25.535  24.830  13.030
60190W        W32450  15.589  33.944   2.236
60191W        W32451  12.033  23.497   1.389
60192W        W32452  12.139  14.817  12.510
60193W        W32453  11.025   8.830  12.117
60194W        W32454  35.590  18.787  12.135
60195W        W32455  13.788  12.885  10.619
60196W        W32456  40.843  16.530   4.187
60197W        W32457  44.946  40.400  12.053
60198W        W32458  33.120   7.426  14.923
60199W        W32459  19.644  41.217  14.987
60200W        W32460  12.724   6.523  14.552
60201W        W32461  18.613   8.765  14.304
60202W        W32462  43.123  35.398  12.770
60203W        W32463  32.284   7.292   4.650
60204W        W32464  37.103  38.104  12.840
60205W        W32465  15.874   3.996  11.897
60206W        W32466  26.923  16.782  13.396
60207W        W32467  24.989  14.893   4.057
60208W        W32468  40.348  29.616  14.858
60209W        W32469  21.603   9.588  10.607
60210W        W32470  38.546  29.687   1.299
60211W        W32471  33.445  11.243  11.587
60212W        W32472  15.846  15.191   2.198
60213W        W32473  37.258  33.510  12.900
60214W        W32474  43.094  31.060  13.254
60215W        W32475   0.750  42.510   2.680
60216W        W32476  29.397  28.062  12.386
60217W        W32477  23.012  18.716  13.461
60218W        W32478  38.307   0.003  12.991
60219W        W32479  41.112  39.789   4.277
60220W        W32480   4.958   8.392  11.088
60221W        W32481  10.776   5.841   3.330
60222W        W32482  23.611  21.141  14.775
60223W        W32483  27.664  10.754   3.922
60224W        W32484  20.796  16.256  12.951
60225W        W32485  12.178  25.059  14.059
60226W        W32486   0.947  35.923  10.279
60227W        W32487  38.862  18.281   5.007
60228W        W32488  24.179  28.681   2.310
60229W        W32489  36.105  12.865  14.728
60230W        W32490  32.339  32.028  13.549
60231W        W32491   9.251  31.974  11.437
60232W        W32492  36.453  21.363  14.644
60233W        W32493  31.467   3.994   1.791
60234W        W32494  13.570  33.436   2.235
60235W        W32495  35.873  16.873   3.172
60236W        W32496  31.360   4.967  10.667
60237W        W32497  24.135  12.765  13.888
60238W        W32498  30.139   9.273  12.179
60239W        W32499  29.106  43.700  11.957
60240W        W32500  19.628   8.896   4.358
60241W        W32501  10.751  35.743  14.408
60242W        W32502  29.473  19.710   5.025
60243W        W32503  21.138   2.114   2.676
60244W        W32504  39.775  21.546  13.877
60245W        W32505  16.800  18.180   1.673
60246W        W32506   1.921  20.050   3.397
60247W        W32507  41.170   1.367  14.893
60248W        W32508  11.352  41.472   3.654
60249W        W32509  33.659  19.181  10.489
60250W        W32510  22.291  17.698  14.368
60251W        W32511  26.893  10.880   3.205
60252W        W32512  37.605  32.546   2.664
60253W        W32513  11.656  43.520  13.995
60254W        W32514  29.604  25.160   3.452
60255W        W32515  38.819  32.843  12.519
60256W        W32516  22.994  24.656  14.896
60257W        W32517  22.822  38.072  14.437
60258W        W32518   9.787   5.007  11.580
60259W        W32519  39.058  19.159  14.935
60260W        W32520   9.952   3.757   4.468
60261W        W32521  10.662  41.944   0.479
60262W        W32522  31.428  35.379   2.066
60263W        W32523  20.753  34.037   2.681
60264W        W32524  34.392  23.642  14.514
60265W        W32525  39.455  20.675   1.387
60266W        W32526  44.776  39.551   0.751
60267W        W32527  37.550   2.049   0.074
60268W        W32528  13.779  44.269   2.832
60269W        W32529  16.838  23.598  14.632
60270W        W32530   5.191  12.814   3.233
60271W        W32531  29.351  18.627  14.574
60272W        W32532  42.767  26.763  14.784
60273W        W32533  27.981  25.082  12.129
60274W        W32534  23.674  27.202   4.635
60275W        W32535  41.240  27.912   2.390
60276W        W32536  43.383  18.198   4.619
60277W        W32537  16.459   9.861  13.691
60278W        W32538  22.310   0.184  11.502
60279W        W32539  42.581  17.001   2.338
60280W        W32540   6.248  31.380   2.828
60281W        W32541  38.281   9.350   5.015
60282W        W32542  15.899  31.878  14.479
60283W        W32543   8.066  39.021  11.677
60284W        W32544  43.999  25.828  12.476
60285W        W32545  42.667  26.681   0.848
60286W        W32546   5.701  42.264   4.411
60287W        W32547  24.573  29.414  13.053
60288W        W32548   0.335  10.150  10.883
60289W        W32549   0.355   3.313   0.300
60290W        W32550   7.462   3.223   1.769
60291W        W32551  40.894  41.282  14.817
60292W        W32552  11.343  15.228  11.214
60293W        W32553  18.268  39.979  12.988
60294W        W32554  12.378  32.326  10.955
60295W        W32555  19.624  25.504  14.589
60296W        W32556  11.779  41.586  11.542
60297W        W32557   3.413   6.683  11.270
60298W        W32558  15.294   3.482   0.235
60299W        W32559  34.237   6.413  11.633
60300W        W32560  14.293  28.973  10.461
60301W        W32561  24.280  26.044  13.727
60302W        W32562  21.311  13.103   2.761
60303W        W32563   6.990  37.093  11.151
60304W        W32564   5.772  30.033  10.706
60305W        W32565  44.251  17.753  11.562
60306W        W32566  44.417   2.362   4.656
60307W        W32567  13.769  19.578   2.357
60308W        W32568  39.941   3.432   3.755
60309W        W32569  28.658  42.013   0.879
60310W        W32570   0.901  18.654  10.799
60311W        W32571  37.846  41.998   0.461
60312W        W32572  43.337  36.888   3.915
60313W        W32573  11.801  12.896   0.437
60314W        W32574  33.942   8.553   1.364
60315W        W32575  39.910  42.486  13.211
60316W        W32576  44.427   4.684  14.963
60317W        W32577  25.247   5.918   1.716
60318W        W32578   9.854  39.112   0.912
60319W        W32579  13.222  24.773  14.816
60320W        W32580  33.504  22.996   1.836
60321W        W32581  20.268  33.093  13.005
60322W        W32582   7.731  33.363  14.560
60323W        W32583  40.636  38.439  10.631
60324W        W32584  38.863   9.586   3.762
60325W        W32585  15.344  26.622   5.056
60326W        W32586   5.430  21.543   2.916
60327W        W32587   8.710  15.836  11.768
60328W        W32588  34.682  42.536   3.235
60329W        W32589  20.062  23.511   1.668
60330W        W32590   6.794  12.567  14.586
60331W        W32591  22.543  11.723  13.869
60332W        W32592   7.189  10.881   4.096
60333W        W32593   3.303  36.750   4.074
60334W        W32594  32.621  35.484  11.550
60335W        W32595  24.093  35.947  11.852
60336W        W32596  31.339   8.984   4.947
60337W        W32597  18.013  21.305  12.999
60338W        W32598  34.024   5.765  12.074
60339W        W32599   6.928  28.573  13.477
60340W        W32600   3.938  38.333   2.917
60341W        W32601  14.275  35.937   1.358
60342W        W32602  37.029   5.954  11.039
60343W        W32603  13.782  44.520  12.442
60344W        W32604  24.608  22.652   4.349
60345W        W32605  18.196   8.760   3.086
60346W        W32606   2.730   8.873  13.025
60347W        W32607  44.539  41.987  14.857
60348W        W32608  11.868  31.330   1.264
60349W        W32609  39.381  42.390  13.170
60350W        W32610  31.885  33.043  13.923
60351W        W32611  19.620  35.469   4.657
60352W        W32612  32.585  12.662   4.636
60353W        W32613  28.722  36.254   1.314
60354W        W32614  37.059  42.079  11.596
60355W        W32615  10.396  23.269   0.379
60356W        W32616   2.015  16.697  13.904
60357W        W32617  29.456  23.754   0.515
60358W        W32618  16.543  11.835  12.919
60359W        W32619  16.677  18.516   0.854
60360W        W32620  13.580  43.407   1.205
60361W        W32621  31.760  36.045   4.671
60362W        W32622  22.004  17.330  12.483
60363W        W32623  21.462   9.298   3.194
60364W        W32624   3.885  25.698   1.308
60365W        W32625   0.221   9.294  11.534
60366W        W32626  38.100  12.218  11.540
60367W        W32627  14.891  26.233   2.544
60368W        W32628  26.402  29.903  11.102
60369W        W32629  38.156  40.590  14.143
60370W        W32630  42.045   0.421  13.936
60371W        W32631  28.064   3.688   1.186
60372W        W32632  37.728   0.199  13.610
60373W        W32633   6.722   4.060  12.044
60374W        W32634  43.999   9.405  12.137
60375W        W32635   5.182  36.131   0.779
60376W        W32636  37.238  11.764   4.579
60377W        W32637  10.604   7.952  14.961
60378W        W32638   3.696  39.887   0.771
60379W        W32639  29.564   1.046  13.923
60380W        W32640  18.732  23.484   2.368
60381W        W32641   5.862  30.692  10.313
60382W        W32642  25.193  37.611   2.197
60383W        W32643  23.539  27.485   4.062
60384W        W32644  14.337  25.005   1.982
60385W        W32645  34.702  19.849   2.502
60386W        W32646  25.840   4.943  12.384
60387W        W32647   4.867  18.895   5.171
60388W        W32648  16.216  21.379  14.922
60389W        W32649  34.469   0.105   4.581
60390W        W32650  33.586   1.918   0.874
60391W        W32651  26.580  29.860   1.457
60392W        W32652  26.047  29.939  14.393
60393W        W32653  30.862  44.238  12.546
60394W        W32654   7.287  14.588   0.257
60395W        W32655  32.859  34.400  14.254
60396W        W32656  26.126   0.515   3.025
60397W        W32657  17.581  15.848   4.182
60398W        W32658  42.208  11.064   2.178
60399W        W32659  32.427  37.590  13.002
60400W        W32660  34.387  33.825   4.712
60401W        W32661  25.765   9.704  14.309
60402W        W32662  20.072  38.667   0.031
60403W        W32663  27.574   7.312  10.447
60404W        W32664  28.116  44.866  12.032
60405W        W32665   5.869   3.158  14.027
60406W        W32666  23.424  37.370  11.130
60407W        W32667  12.675   9.790  14.187
60408W        W32668  11.710  37.291  10.357
60409W        W32669   9.759  12.114   3.653
60410W        W32670  15.126  14.609   0.775
60411W        W32671  18.169   4.286  11.787
60412W        W32672  36.001  29.561  13.189
60413W        W32673  39.918  14.661   3.734
60414W        W32674  26.195  37.350  13.105
60415W        W32675   9.664   6.139   0.391
60416W        W32676  28.075  32.330   9.701
60417W        W32677  41.588  13.309   2.815
60418W        W32678  10.703  23.475   3.995
60419W        W32679   4.627  34.774  13.130
60420W        W32680  22.911  13.299   3.876
60421W        W32681  29.674  31.684  12.936
60422W        W32682  32.859  35.822   3.649
60423W        W32683  16.131  18.278   4.065
60424W        W32684   1.847  32.185  10.772
60425W        W32685  43.813  37.040   0.695
60426W        W32686  40.344  18.272   4.070
60427W        W32687  40.658  11.962   1.218
60428W        W32688  15.668   2.940   5.010
60429W        W32689  17.874  36.524  13.880
60430W        W32690  17.201  25.544  12.058
60431W        W32691  30.921  13.849   2.462
60432W        W32692   2.252  32.838   1.772
60433W        W32693   8.679  36.773   2.278
60434W        W32694   9.689  20.126   0.904
60435W        W32695  38.240  16.053   2.468
60436W        W32696  36.276  40.518  11.115
60437W        W32697   8.242  37.971   2.296
60438W        W32698  30.850   2.593  14.839
60439W        W32699  28.224  11.316   2.197
60440W        W32700   4.955  24.720   2.756
60441W        W32701  20.796   5.543   0.520
60442W        W32702  32.627  34.052   2.927
60443W        W32703  34.377  21.069  14.467
60444W        W32704  36.014  28.471  14.310
60445W        W32705  14.222   8.681  11.868
60446W        W32706   6.494  43.249  11.136
60447W        W32707  28.381   4.786  12.012
60448W        W32708  33.627  29.102  14.369
60449W        W32709  19.933  21.144   1.342
60450W        W32710  37.094  40.114   3.750
60451W        W32711  24.937  26.105  14.317
60452W        W32712  13.695  39.995   2.911
60453W        W32713   1.515   8.463  10.990
60454W        W32714  38.505   6.492   4.047
60455W        W32715   0.560  22.288   0.242
60456W        W32716   0.647   5.613  11.161
60457W        W32717  36.851   8.885  11.603
60458W        W32718  23.719  36.921   1.450
60459W        W32719   2.949  35.608  12.509
60460W        W32720  38.503  40.570   2.170
60461W        W32721  20.307  34.993  14.747
60462W        W32722  38.275  18.167  11.434
60463W        W32723  30.002  24.130  14.860
60464W        W32724   0.060  14.515   4.547
60465W        W32725  17.373   3.340   4.946
60466W        W32726  17.262  30.737   3.840
60467W        W32727  32.773  24.537   3.844
60468W        W32728  42.122  38.397  10.775
60469W        W32729  35.648  34.970  14.441
60470W        W32730   6.198  35.015  12.288
60471W        W32731  40.528  29.094  12.282
60472W        W32732   1.322   8.353   1.179
60473W        W32733  17.528  44.923  14.202
60474W        W32734  18.090   3.280   3.977
60475W        W32735   9.163   1.288  14.320
60476W        W32736  31.394  13.796  13.378
60477W        W32737   6.199   5.200  12.852
60478W        W32738  19.078  42.331   2.165
60479W        W32739  32.357   2.790   1.813
60480W        W32740  24.585   0.259  12.450
60481W        W32741   5.915  26.661   2.282
60482W        W32742  19.161  21.029  12.085
60483W        W32743   8.835  22.701  14.568
60484W        W32744  29.774  11.063  13.532
60485W        W32745  44.501   1.936   0.509
60486W        W32746  44.381   5.653  11.557
60487W        W32747   7.674  20.177   4.539
60488W        W32748  16.171  18.503   3.310
60489W        W32749  43.153   1.895   1.650
60490W        W32750  15.570  19.749  11.487
60491W        W32751  33.952  34.157  13.923
60492W        W32752  26.962  36.860   0.915
60493W        W32753  14.640  15.046   4.086
60494W        W32754   7.915  34.065  12.532
60495W        W32755  12.130  39.975   4.097
60496W        W32756  35.683  36.377  12.197
60497W        W32757   4.474  42.550  11.651
60498W        W32758   8.350   0.392  10.685
60499W        W32759   3.668   7.843  12.874
60500W        W32760  20.934   9.913   1.876
60501W        W32761  36.918  15.015  10.647
60502W        W32762   2.967   6.919  11.134
60503W        W32763  30.197   5.837   2.147
60504W        W32764   0.458  27.641  13.517
60505W        W32765  29.873  40.901   2.135
60506W        W32766  24.650  41.047   5.479
60507W        W32767  25.842  39.739  10.242
60508W        W32768  20.159  30.983  13.614
60509W        W32769  19.820  36.550   0.549
60510W        W32770   1.342   3.041   0.323
60511W        W32771  36.055  34.626   4.073
60512W        W32772  29.120  28.320  11.044
60513W        W32773  14.193   8.148  11.897
60514W        W32774   3.916  19.496  12.969
60515W        W32775  41.003  44.525   4.132
60516W        W32776   3.506  24.877  14.475
60517W        W32777  17.192  23.026   0.050
60518W        W32778  33.058  13.710  13.001
60519W        W32779  20.441  21.657   9.655
60520W        W32780  14.700  32.141   4.011
60521W        W32781  11.333   1.661  14.572
60522W        W32782  42.956  13.328  12.502
60523W        W32783  26.021   0.021   0.383
60524W        W32784  34.566  19.936  14.866
60525W        W32785  34.881   9.884  12.070
60526W        W32786   7.945   4.732  13.453
60527W        W32787  22.749   2.825  13.002
60528W        W32788  35.760  30.073   1.122
60529W        W32789  38.625  25.226   2.142
60530W        W32790  16.590  14.126   4.525
60531W        W32791  36.116  40.973   4.147
60532W        W32792  38.204  31.465   3.333
60533W        W32793  17.980   3.852  11.570
60534W        W32794  23.588  44.250   1.357
60535W        W32795   3.744  25.225   4.518
60536W        W32796  32.162  28.425   2.424
60537W        W32797  36.980  28.590   4.101
60538W        W32798  28.695  35.448   0.329
60539W        W32799  13.121  12.155   1.113
60540W        W32800   7.139  42.427  13.520
60541W        W32801  14.142  23.947   4.980
60542W        W32802  34.780  33.263  11.063
60543W        W32803   1.164  18.121   3.457
60544W        W32804  28.566  12.413  12.463
60545W        W32805  32.600   2.831  11.704
60546W        W32806   9.466  26.581  14.444
60547W        W32807  35.577  10.630   1.849
60548W        W32808  41.824  16.622   4.266
60549W        W32809  20.425   9.873  13.362
60550W        W32810  11.602  12.323  11.119
60551W        W32811  43.529  34.081  11.099
60552W        W32812  29.594  15.749   2.675
60553W        W32813  41.439  40.848  14.126
60554W        W32814  19.204  38.601   4.610
60555W        W32815  29.615   9.575  14.036
60556W        W32816  27.916  10.381   4.182
60557W        W32817  27.659   9.195   1.831
60558W        W32818  11.638  41.133  10.698
60559W        W32819  27.078  17.734  14.417
60560W        W32820  44.346   2.430   0.399
60561W        W32821  17.202  28.895   4.070
60562W        W32822  19.191  14.901   3.335
60563W        W32823  40.943  17.203  13.947
60564W        W32824   2.641  24.583   4.174
60565W        W32825  32.746  37.019  14.373
60566W        W32826  43.762  14.564   0.875
60567W        W32827  17.859   6.181   0.852
60568W        W32828   1.764  23.053   4.140
60569W        W32829   9.751  27.043   2.912
60570W        W32830  31.976  24.594  14.015
60571W        W32831  23.157  38.584  14.759
60572W        W32832  32.662   3.645   4.589
60573W        W32833  21.074  26.669   3.758
60574W        W32834  27.491  38.054  13.017
60575W        W32835   0.135  24.003  13.945
60576W        W32836   5.029   7.610   1.257
60577W        W32837  22.118  27.406   3.155
60578W        W32838   9.173  26.533  10.813
60579W        W32839  36.496  17.993   1.703
60580W        W32840  31.205  12.605   0.799
60581W        W32841   8.693  10.745  12.594
60582W        W32842  14.620  38.847   3.314
60583W        W32843   6.914  10.888   1.480
60584W        W32844  34.942  17.426   4.008
60585W        W32845  43.909  15.571   1.965
60586W        W32846   0.946  26.584  13.022
60587W        W32847  14.151  44.172  14.789
60588W        W32848   0.239  43.973  12.635
60589W        W32849  10.474  16.615  14.932
60590W        W32850  17.656  16.694   2.073
60591W        W32851  35.832   6.965   2.639
60592W        W32852  23.710  29.263   4.519
60593W        W32853  31.631   8.790  12.827
60594W        W32854  31.919  20.183  13.461
60595W        W32855  35.941   4.951  13.349
60596W        W32856  16.027  11.829  10.926
60597W        W32857  23.650  41.764  12.586
60598W        W32858   8.878  31.219   4.148
60599W        W32859  19.793  41.532   3.520
60600W        W32860  31.052  30.169   0.975
60601W        W32861   0.234  37.032  12.555
60602W        W32862  29.432  18.813   3.004
60603W        W32863   1.318  16.290   3.207
60604W        W32864  34.487  24.388  14.044
60605W        W32865  22.380  26.936   3.220
60606W        W32866   4.787  30.009  11.942
60607W        W32867   6.135  41.821  11.144
60608W        W32868   6.321  27.028   4.074
60609W        W32869  36.409  19.228   4.985
60610W        W32870  16.899  23.413   3.264
60611W        W32871  27.852  44.605  11.058
60612W        W32872  21.969  33.968  14.258
60613W        W32873  26.750  29.874  13.292
60614W        W32874  39.469  24.986   1.608
60615W        W32875  32.977  35.566   2.749
60616W        W32876   0.420  13.638  13.476
60617W        W32877  29.715  22.087  11.124
60618W        W32878  20.097  39.764   1.704
60619W        W32879  34.653  13.531   0.453
60620W        W32880   1.482  23.493   3.903
60621W        W32881  10.864   2.180  13.039
60622W        W32882  14.630  24.452   4.053
60623W        W32883  11.185   6.407   0.454
60624W        W32884   5.976  20.689   4.351
60625W        W32885   4.924   8.204   3.851
60626W        W32886  24.968   9.331   1.380
60627W        W32887  37.919  17.269  10.717
60628W        W32888  24.684   9.313  11.256
60629W        W32889   6.410  22.411   4.493
60630W        W32890  19.499  37.444  14.473
60631W        W32891  29.938  36.467   4.604
60632W        W32892  26.687  10.212   3.111
60633W        W32893  19.694   2.342   4.554
60634W        W32894  10.458  23.118  12.961
60635W        W32895  10.808  10.099  12.092
60636W        W32896  27.130   6.179   3.047
60637W        W32897  41.584  44.889   2.278
60638W        W32898  43.641  20.648   2.764
60639W        W32899   9.178  22.719  13.234
60640W        W32900  24.506   1.491  11.403
60641W        W32901  39.018  16.210   3.646
60642W        W32902  37.602  43.196  12.078
60643W        W32903  19.624  37.023  12.947
60644W        W32904  40.257   3.789  14.773
60645W        W32905  20.577  21.815  13.351
60646W        W32906   4.972  12.486  13.334
60647W        W32907  39.855   9.976   3.589
60648W        W32908  29.751  19.110  13.082
60649W        W32909  18.058  32.191  11.346
60650W        W32910   6.425  12.427  14.246
60651W        W32911  30.761   4.940   9.861
60652W        W32912  21.366  15.668   0.516
60653W        W32913   1.272   4.644   2.903
60654W        W32914  12.260   8.185   0.537
60655W        W32915  42.724  11.939   3.706
60656W        W32916   4.280  35.790   3.435
60657W        W32917   4.754  29.313  12.374
60658W        W32918  23.532  32.055   0.741
60659W        W32919  34.745  10.267   2.796
60660W        W32920  24.131  29.386   4.252
60661W        W32921  14.285   6.470  13.462
60662W        W32922  41.632   9.100  11.659
60663W        W32923   0.031   6.013  13.074
60664W        W32924   4.778  28.662  14.865
60665W        W32925   9.225  14.033   2.691
60666W        W32926  44.563  17.534   2.758
60667W        W32927   4.241  32.956  13.542
60668W        W32928  44.717  10.822  14.440
60669W        W32929  41.249  12.246  13.887
60670W        W32930  12.335  22.198  12.847
60671W        W32931  30.971  35.733  12.892
60672W        W32932  21.187  13.260  11.496
60673W        W32933  25.216   2.041   1.352
60674W        W32934  28.077  10.184  11.397
60675W        W32935  27.170  42.451   4.726
60676W        W32936   0.846  27.444  14.648
60677W        W32937  32.077  33.280  10.338
60678W        W32938  34.860   8.788   0.007
60679W        W32939  30.045  11.263   3.797
60680W        W32940   9.215  35.385  14.928
60681W        W32941  31.546  39.924   4.851
60682W        W32942  19.026   8.782   5.558
60683W        W32943  31.078   1.740   4.938
60684W        W32944  16.762   4.829   1.858
60685W        W32945  30.572   6.177  13.762
60686W        W32946  16.243  24.495   2.702
60687W        W32947   3.226   3.984   0.910
60688W        W32948  36.462   1.742   1.667
60689W        W32949  23.091  30.587   3.765
60690W        W32950   2.706  19.058  10.687
60691W        W32951  19.064  38.561  13.009
60692W        W32952  40.430  24.955  11.961
60693W        W32953  40.519  11.152   0.828
60694W        W32954  20.102   5.514   1.320
60695W        W32955  37.955  15.045  11.730
60696W        W32956  18.962  39.815   2.310
60697W        W32957  11.594  25.129  12.666
60698W        W32958  24.023  15.258   1.333
60699W        W32959  30.458  35.266  11.066
60700W        W32960  36.465  43.016   2.694
60701W        W32961   0.569   4.449  13.399
60702W        W32962  30.049  21.709  10.991
60703W        W32963  12.305   2.646   3.580
60704W        W32964  25.628  15.388   0.677
60705W        W32965  42.419  19.309   1.180
60706W        W32966  20.402   6.490  10.120
60707W        W32967  32.368  28.577   0.396
60708W        W32968  37.239   9.437  14.195
60709W        W32969  17.665  23.778   4.213
60710W        W32970   8.602   4.707  10.401
60711W        W32971  29.731  24.108   0.300
60712W        W32972  13.064  22.131  12.422
60713W        W32973  33.045  35.490  11.936
60714W        W32974   2.455  42.453  12.826
60715W        W32975  37.712  21.411   0.425
60716W        W32976  40.405  10.134   3.758
60717W        W32977  33.680  23.290   1.002
60718W        W32978  23.616  39.279  11.088
60719W        W32979  20.444  11.369   1.960
60720W        W32980   7.352  40.606   4.499
60721W        W32981  37.077  33.062  12.035
60722W        W32982  26.899  44.053   0.826
60723W        W32983   9.254  44.906   5.038
60724W        W32984  11.066  19.780   4.230
60725W        W32985  19.543  35.460   3.159
60726W        W32986  14.356  26.437  13.406
60727W        W32987   1.519   6.777  13.608
60728W        W32988  39.326   1.914  13.982
60729W        W32989  28.315  33.020   3.587
60730W        W32990   3.381   5.857  10.529
60731W        W32991  12.056  40.014  13.310
60732W        W32992  30.720   4.856   1.806
60733W        W32993  17.813   1.763  12.200
60734W        W32994  16.240   7.317   1.397
60735W        W32995  10.644  30.359  11.505
60736W        W32996  37.015  42.602  11.696
60737W        W32997  19.005  24.495   4.039
60738W        W32998  41.930   9.679   2.315
60739W        W32999  20.001   3.639   0.273
60740W        W33000  27.738  30.604  12.952
60741W        W33001  38.694  25.320   5.033
60742W        W33002  29.094  28.886   5.077
60743W        W33003  38.181  29.107   2.367
60744W        W33004   7.009  33.019   2.721
60745W        W33005  21.985  20.721   0.087
60746W        W33006   9.743  11.893   4.131
60747W        W33007   5.440  22.155   1.753
60748W        W33008  18.815  36.069   3.390
60749W        W33009  31.465  29.481  13.714
60750W        W33010  41.780  29.969   1.997
60751W        W33011  37.457  34.527  14.563
60752W        W33012  11.541   3.129   5.228
60753W        W33013  12.759  23.575   2.633
60754W        W33014  33.514  23.139  14.464
60755W        W33015  43.991  38.111   2.290
60756W        W33016  24.621  32.396  12.892
60757W        W33017  43.376   9.670  11.188
60758W        W33018  11.560   2.418   4.641
60759W        W33019   4.395  25.474   0.165
60760W        W33020  21.134  14.301   0.881
60761W        W33021   2.585  10.484  10.210
60762W        W33022  36.061   2.431  11.549
60763W        W33023  18.646  13.574  11.590
60764W        W33024   5.304   1.561  13.475
60765W        W33025  13.542  44.962   3.339
60766W        W33026  36.851  25.383   4.589
60767W        W33027  42.607  23.166  12.501
60768W        W33028  31.925  35.375  12.934
60769W        W33029  30.864   4.311  14.451
60770W        W33030   2.976  11.052  11.510
60771W        W33031  26.665   4.803   2.195
60772W        W33032   2.786  25.242   1.988
60773W        W33033  12.584   4.258  12.303
60774W        W33034  14.854  27.475   4.216
60775W        W33035  43.062   8.640   4.726
60776W        W33036  33.288  30.693  10.330
60777W        W33037  43.714   6.811  10.618
60778W        W33038  22.347  44.723  10.621
60779W        W33039  37.514  17.074  14.889
60780W        W33040  41.075  43.779  11.176
60781W        W33041  13.963   9.847  13.291
60782W        W33042   2.625  40.364   4.299
60783W        W33043  19.535  26.265  14.823
60784W        W33044  31.021  27.764  10.659
60785W        W33045   7.150  42.907   3.968
60786W        W33046   7.761  28.171  13.887
60787W        W33047  29.219  10.266   4.643
60788W        W33048  15.242  42.553   2.988
60789W        W33049  44.415  12.809   1.412
60790W        W33050  27.543   5.366  10.768
60791W        W33051   1.721  37.986  13.081
60792W        W33052  28.261  19.489  12.998
60793W        W33053  11.515  22.715   3.156
60794W        W33054  44.319  41.540  12.110
60795W        W33055  23.791  28.766  10.493
60796W        W33056  38.708   4.766   4.179
60797W        W33057  28.772   0.815   0.778
60798W        W33058  37.401  17.659   1.598
60799W        W33059   0.831  22.859  10.720
60800W        W33060  31.002   7.413   1.651
60801W        W33061  27.686  23.509   2.818
60802W        W33062  14.995  42.039  11.020
60803W        W33063  31.658  30.659  11.080
60804W        W33064  36.911  30.184  11.421
60805W        W33065  33.832   8.913   2.279
60806W        W33066   7.376  10.761  11.198
60807W        W33067  24.207  19.165  11.401
60808W        W33068  25.498  35.841   4.242
60809W        W33069  37.765   5.592  12.931
60810W        W33070  17.362  37.534   2.655
60811W        W33071   1.136   1.091   1.729
60812W        W33072  18.344  23.474   1.220
60813W        W33073  10.450   2.452  12.898
60814W        W33074  22.108  20.373  12.896
60815W        W33075   5.536  28.710   9.711
60816W        W33076  24.657  20.237   1.405
60817W        W33077  43.922  44.214  14.010
60818W        W33078  32.141  36.529  12.398
60819W        W33079  28.580  41.770   3.797
60820W        W33080  12.023  11.315  14.994
60821W        W33081  23.419  29.615   2.313
60822W        W33082  39.211  32.199   3.617
60823W        W33083  35.851   9.825  13.283
60824W        W33084  12.769   8.468   4.211
60825W        W33085  26.720   8.627   1.715
60826W        W33086  39.974  22.712  12.878
60827W        W33087  44.478   1.457  14.354
60828W        W33088  41.878  32.013   2.419
60829W        W33089  16.990  33.976   4.573
60830W        W33090   4.542  20.665  11.175
60831W        W33091  19.649  16.532   3.236
60832W        W33092  26.285   7.386   2.397
60833W        W33093  36.556  31.082  12.593
60834W        W33094  10.130   0.303  14.880
60835W        W33095  39.147  17.681   0.979
60836W        W33096  22.899   4.678   0.456
60837W        W33097   4.945  40.931  12.218
60838W        W33098  11.208  20.787  12.437
60839W        W33099  31.125   6.845  13.398
60840W        W33100  43.985  16.677   0.095
60841W        W33101  37.670   8.229   2.297
60842W        W33102   3.659  16.426   0.336
60843W        W33103   2.713  31.389   3.831
60844W        W33104  40.795  40.913  13.018
60845W        W33105  12.257  22.348   1.785
60846W        W33106  33.157   5.394  11.062
60847W        W33107   2.917  44.335  12.614
60848W        W33108  14.090  33.005   3.809
60849W        W33109  35.985   2.620   2.698
60850W        W33110  33.015  26.344   4.717
60851W        W33111  25.788  28.315  12.890
60852W        W33112  30.524  42.073  12.052
60853W        W33113  20.636  25.139  12.483
60854W        W33114  12.131  41.298   3.210
60855W        W33115  17.761  37.828   2.868
60856W        W33116  31.402   1.214  11.623
60857W        W33117  12.773   2.447   0.922
60858W        W33118  22.317   9.230   1.736
60859W        W33119  33.479  24.976   1.284
60860W        W33120  18.292   8.354   0.956
60861W        W33121  23.893  19.388   4.992
60862W        W33122  29.892  27.411  13.442
60863W        W33123  35.861  27.486   3.776
60864W        W33124   8.180   9.745   3.080
60865W        W33125  39.165   1.526  10.570
60866W        W33126  24.452  10.133  11.585
60867W        W33127  44.411  15.621  10.418
60868W        W33128  24.819  34.014  13.597
60869W        W33129  41.465  16.312   4.051
60870W        W33130   8.863   3.629   3.531
60871W        W33131   2.500   0.517   2.906
60872W        W33132  33.965  29.400   2.920
60873W        W33133   4.855  44.243  14.912
60874W        W33134  15.517  24.696  14.320
60875W        W33135  28.945  17.297  13.924
60876W        W33136  13.634  30.667  14.758
60877W        W33137  40.635  34.182  13.523
60878W        W33138  10.104  44.697   3.908
60879W        W33139  15.819  25.463   5.135
60880W        W33140  43.628  16.172   3.352
60881W        W33141  25.024  31.644   2.756
60882W        W33142  44.014  30.603   1.157
60883W        W33143   5.640  22.002  12.850
60884W        W33144  32.327   5.476  14.084
60885W        W33145  23.164  43.728  10.858
60886W        W33146  22.266  36.352  13.620
60887W        W33147   8.814  26.584  11.648
60888W        W33148  23.947   7.945  11.155
60889W        W33149  19.975   9.716   4.614
60890W        W33150  44.843  35.937  14.930
60891W        W33151  13.170   1.910   0.015
60892W        W33152  31.725  16.304   3.171
60893W        W33153  32.233  10.306   1.430
60894W        W33154  28.588  32.888   2.734
60895W        W33155  41.756  20.650  12.167
60896W        W33156  31.550  10.671  13.927
60897W        W33157  27.699  42.741   2.842
60898W        W33158  26.557   2.342   2.100
60899W        W33159  34.684   6.096   4.100
60900W        W33160  19.575   9.476   3.838
60901W        W33161  17.094   4.260  14.365
60902W        W33162  43.107   0.217   2.356
60903W        W33163  33.325  34.497   2.646
60904W        W33164  30.620  35.505   1.757
60905W        W33165  28.896  23.429  13.355
60906W        W33166   1.927  42.878   1.336
60907W        W33167  42.025  34.092   3.626
60908W        W33168  41.721  30.197  14.372
60909W        W33169  31.007  34.216  12.898
60910W        W33170  18.977  42.761  11.589
60911W        W33171  14.278  13.911  14.866
60912W        W33172   1.891  10.653   1.684
60913W        W33173  24.022  17.663   3.177
60914W        W33174  41.088  21.816   1.283
60915W        W33175  30.457  27.025  12.863
60916W        W33176   5.786   5.884   0.028
60917W        W33177  10.855  43.728   4.845
60918W        W33178  21.367   3.480   0.293
60919W        W33179  32.457  26.034  10.692
60920W        W33180  25.728  42.521  10.954
60921W        W33181  28.580  30.628   4.046
60922W        W33182   2.878  42.795   2.730
60923W        W33183  32.833   8.778  11.568
60924W        W33184   1.451  35.103  12.382
60925W        W33185  16.198  34.120   1.500
60926W        W33186   9.325  34.450  13.075
60927W        W33187  38.785   5.675  11.541
60928W        W33188   9.904  34.248  11.371
60929W        W33189   9.785  28.174  13.765
60930W        W33190  13.618  24.506  11.054
60931W        W33191   0.861  35.656   4.376
60932W        W33192  29.982  41.766   4.516
60933W        W33193   8.645  27.728  10.678
60934W        W33194  19.011  44.371  13.946
60935W        W33195  40.694  14.151  12.859
60936W        W33196  16.839  24.586   2.139
60937W        W33197  22.972  23.034  13.015
60938W        W33198  15.722  15.714  12.939
60939W        W33199  35.368  21.044   5.102
60940W        W33200  27.537  44.512  14.759
60941W        W33201  20.714  26.120   4.507
60942W        W33202   3.299   6.743   2.687
60943W        W33203  37.052  30.524  10.595
60944W        W33204   6.641  41.219   1.783
60945W        W33205  13.344  22.101   0.516
60946W        W33206   9.316  15.295  13.007
60947W        W33207  12.748  26.406   0.836
60948W        W33208  20.649  40.219   0.438
60949W        W33209   9.693  10.133   2.308
60950W        W33210  15.357  35.936   3.797
60951W        W33211  13.973  25.078   3.125
60952W        W33212  17.223  17.380   0.874
60953W        W33213  15.252  30.503   4.078
60954W        W33214  17.238   0.532   0.881
60955W        W33215   6.993   7.758  12.927
60956W        W33216  18.662  21.820   3.669
60957W        W33217  10.100  19.702  10.085
60958W        W33218  27.598  22.535   4.298
60959W        W33219  13.628  29.973  14.245
60960W        W33220  18.747  40.176   1.880
60961W        W33221  14.661  42.974  14.926
60962W        W33222   8.960  26.056   1.354
60963W        W33223   7.299  32.999   3.186
60964W        W33224  36.672  23.854  10.271
60965W        W33225  42.256  35.552  12.977
60966W        W33226  30.156  30.003   0.970
60967W        W33227  37.993   2.510   2.318
60968W        W33228  26.307   4.952  10.709
60969W        W33229   1.279   3.007  13.057
60970W        W33230  18.765  14.814  11.378
60971W        W33231   8.952   0.713  11.641
60972W        W33232  32.940  23.176   4.194
60973W        W33233  10.821  24.480   1.877
60974W        W33234  39.797  27.991   3.809
60975W        W33235  16.174  16.253  10.058
60976W        W33236  15.688   3.298   2.405
60977W        W33237  15.348   8.870   1.331
60978W        W33238   4.240  25.993   3.053
60979W        W33239  33.626   0.130   1.275
60980W        W33240  44.162   7.805  14.275
60981W        W33241  20.111  34.947  11.556
60982W        W33242  13.274  30.046   4.662
60983W        W33243  23.273  16.642   0.333
60984W        W33244   8.097  31.447   0.881
60985W        W33245  43.708  34.598  11.587
60986W        W33246  16.299  18.369  14.278
60987W        W33247  14.147  25.934  14.585
60988W        W33248  25.279  10.857  12.876
60989W        W33249   8.100   7.018  12.489
60990W        W33250  19.715  12.365   1.914
60991W        W33251  21.243  33.895   2.703
60992W        W33252  42.588  10.430   0.506
60993W        W33253  16.282  38.489  12.819
60994W        W33254  31.393  21.214   3.665
60995W        W33255  12.420  38.954  12.805
60996W        W33256   8.851  17.290   3.154
60997W        W33257  35.920  26.480  12.021
60998W        W33258  23.493  20.607  12.502
60999W        W33259  37.212  41.967  12.899
61000W        W33260  12.430  25.221  10.662
61001W        W33261  21.205   9.089   1.853
61002W        W33262  31.185  17.745  10.687
61003W        W33263   9.231  19.244   2.901
61004W        W33264  19.418  39.375  13.420
61005W        W33265  44.738  42.659   2.890
61006W        W33266  29.417  38.066  14.821
61007W        W33267  23.582  25.896  12.516
61008W        W33268  37.055  12.590   2.851
61009W        W33269  32.650  43.480  10.502
61010W        W33270  38.946  33.406   0.189
61011W        W33271  30.398  38.944   4.145
61012W        W33272  25.057  17.544   2.331
61013W        W33273  31.384  22.531   1.172
61014W        W33274  17.628  13.250   0.806
61015W        W33275  42.437   6.325  13.804
61016W        W33276  24.962   6.170   4.559
61017W        W33277  28.989  20.991  11.541
61018W        W33278  24.160  38.618  11.452
61019W        W33279   9.231  14.355   3.564
61020W        W33280  41.846  29.872  12.960
61021W        W33281  10.614  40.423   4.338
61022W        W33282  40.365  38.362   2.418
61023W        W33283  27.173  26.211   1.662
61024W        W33284  24.707  15.707  12.909
61025W        W33285  13.669  31.866   0.671
61026W        W33286  31.195   3.652   1.179
61027W        W33287  21.458   9.716   2.729
61028W        W33288  35.867  12.271  13.472
61029W        W33289   2.134  18.330   4.879
61030W        W33290  10.985  18.212   3.179
61031W        W33291  30.554  14.096  10.671
61032W        W33292   4.851  38.997  14.247
61033W        W33293  10.248  33.992  11.644
61034W        W33294  11.932  38.252  11.161
61035W        W33295   4.923  42.271  13.503
61036W        W33296  29.992  14.168   0.743
61037W        W33297  44.114   3.440   0.269
61038W        W33298  30.624  25.065   3.822
61039W        W33299  33.174  26.181   1.079
61040W        W33300  40.944  22.155  13.961
61041W        W33301   3.696   1.391   4.124
61042W        W33302  40.558  19.258  10.862
61043W        W33303  44.210  12.634   3.156
61044W        W33304  44.360  20.424   4.110
61045W        W33305  10.727  14.357   3.309
61046W        W33306  24.929  26.765   0.903
61047W        W33307  37.888  20.240  13.547
61048W        W33308   1.467  28.271   4.599
61049W        W33309  30.140  11.143   1.030
61050W        W33310  28.651   4.232   3.415
61051W        W33311  40.862  43.949  14.035
61052W        W33312  35.170  32.634   1.288
61053W        W33313  41.317  17.092  10.657
61054W        W33314  36.330  37.450  14.796
61055W        W33315  37.750  19.488  13.380
61056W        W33316  17.137  15.395   2.898
61057W        W33317  32.094   4.715  13.920
61058W        W33318   7.110  41.482   0.281
61059W        W33319  31.489  23.792   4.250
61060W        W33320  23.649  39.522  14.054
61061W        W33321  14.101   0.210  12.021
61062W        W33322  30.350  26.973   3.443
61063W        W33323  29.918  40.383  14.049
61064W        W33324  36.869  44.654   1.632
61065W        W33325   7.828  44.719  12.077
61066W        W33326  33.617  35.343  14.406
61067W        W33327  43.321  40.209  11.365
61068W        W33328  39.944  20.872   2.844
61069W        W33329  17.617  35.601   2.007
61070W        W33330  12.765  15.858  12.493
61071W        W33331   4.935  22.962   2.351
61072W        W33332  22.131   2.821  11.363
61073W        W33333  25.511  27.717   2.090
61074W        W33334  11.408   0.090  11.420
61075W        W33335   6.417   0.979   2.241
61076W        W33336  21.012  15.706   1.801
61077W        W33337   7.888  40.529   2.730
61078W        W33338   9.436  24.179   4.622
61079W        W33339  38.989   2.093  11.976
61080W        W33340  20.824  12.570   3.499
61081W        W33341   5.907  40.992   1.214
61082W        W33342  38.203  16.549   2.614
61083W        W33343  26.795  22.960  12.908
61084W        W33344   7.232  26.586  11.884
61085W        W33345  10.394  42.345  14.351
61086W        W33346  28.648   7.922   3.174
61087W        W33347  13.147  22.650   4.557
61088W        W33348  11.826  36.068  11.582
61089W        W33349  24.019   2.986  12.603
61090W        W33350  44.967  37.051   3.710
61091W        W33351  38.272  21.778   3.770
61092W        W33352   9.840  30.768   2.624
61093W        W33353   2.357  31.473  14.797
61094W        W33354  15.652  23.318   2.528
61095W        W33355   4.276   2.154  13.837
61096W        W33356   3.155  14.617  12.844
61097W        W33357  31.007   5.970   2.750
61098W        W33358  11.284   2.964  10.936
61099W        W33359   2.913  19.126  14.673
61100W        W33360  32.991  44.042  12.042
61101W        W33361  41.416  17.932   3.682
61102W        W33362  24.876  18.743  12.894
61103W        W33363   0.971  44.330  12.527
61104W        W33364  28.470  24.827  14.033
61105W        W33365  15.034  44.031   2.207
61106W        W33366  33.137  15.857   4.761
61107W        W33367  11.417  27.161  11.462
61108W        W33368  40.998  41.270  12.084
61109W        W33369  37.316  12.536  11.254
61110W        W33370  35.029  10.256  14.460
61111W        W33371  41.142  38.658  10.617
61112W        W33372  27.037  40.423  12.585
61113W        W33373   5.588  32.567  11.620
61114W        W33374  11.363  18.483  11.015
61115W        W33375  24.164  18.011  13.071
61116W        W33376   9.172  25.268  11.506
61117W        W33377  21.257  13.785  10.698
61118W        W33378  38.808   9.831  12.529
61119W        W33379  31.388  18.179   4.934
61120W        W33380  42.277  33.118   3.665
61121W        W33381  19.926  28.954  12.840
61122W        W33382  40.419  11.790   1.658
61123W        W33383   9.875  44.826  13.479
61124W        W33384  14.055  30.154  13.964
61125W        W33385   7.779  24.715  11.431
61126W        W33386  10.173   3.798   3.525
61127W        W33387  18.301   8.415   4.600
61128W        W33388  41.111  31.220   3.973
61129W        W33389  37.072  40.619   2.735
61130W        W33390   2.982   5.376   3.453
61131W        W33391   4.286  18.978   3.374
61132W        W33392  24.616  35.403  14.254
61133W        W33393  31.926  25.630   4.332
61134W        W33394  40.075   1.420  13.978
61135W        W33395  36.424   5.959  12.995
61136W        W33396  42.057  44.621   4.146
61137W        W33397  43.466  26.677   1.965
61138W        W33398   4.895  16.169  11.233
61139W        W33399  36.144   6.507  12.501
61140W        W33400  27.419  29.918   3.357
61141W        W33401  19.149  12.337   4.196
61142W        W33402   4.916  43.021  14.042
61143W        W33403  10.289  28.919  13.914
61144W        W33404  28.937   5.576   1.549
61145W        W33405  24.626  13.804  12.614
61146W        W33406  37.366   9.334  12.650
61147W        W33407   8.104  16.616   1.727
61148W        W33408   3.329  21.209  10.193
61149W        W33409  26.751  10.909  14.300
61150W        W33410  40.659  37.935  12.652
61151W        W33411  15.062   6.322   0.128
61152W        W33412   8.639   8.307   3.632
61153W        W33413  31.490  13.761  11.956
61154W        W33414  44.729   8.435  11.717
61155W        W33415   2.428  38.587   4.303
61156W        W33416  38.352  37.892  10.499
61157W        W33417  44.089  34.437   3.268
61158W        W33418  24.268  26.132   0.742
61159W        W33419  22.266  16.307   2.775
61160W        W33420   6.359  13.601  10.554
61161W        W33421  32.099  34.458   0.781
61162W        W33422   3.714  24.138  12.963
61163W        W33423  34.314  21.703  13.887
61164W        W33424   2.263  30.432  10.840
61165W        W33425  26.969  20.985   0.305
61166W        W33426  17.289  27.473   2.186
61167W        W33427  25.564  40.101   1.269
61168W        W33428  41.533   1.493  12.508
61169W        W33429  38.789  21.768   3.750
61170W        W33430   9.086  10.180   1.526
61171W        W33431  35.456  28.236   4.569
61172W        W33432  27.731   2.805   1.846
61173W        W33433  16.827   7.689  12.053
61174W        W33434  11.020  28.655   0.591
61175W        W33435  14.212  11.279  14.469
61176W        W33436   8.230  24.116   3.605
61177W        W33437  12.842  38.098   0.844
61178W        W33438  23.022  31.164  11.888
61179W        W33439  10.448  20.828   2.230
61180W        W33440  42.720   9.824   3.113
61181W        W33441  11.290  38.674   3.005
61182W        W33442  27.642   2.234  11.215
61183W        W33443  32.864  20.130   1.769
61184W        W33444   4.235   5.479  11.886
61185W        W33445  34.387   9.972  11.192
61186W        W33446  22.956  29.533   9.813
61187W        W33447  44.090  15.337  11.316
61188W        W33448  41.594  17.488   1.412
61189W        W33449   0.754  31.862   9.904
61190W        W33450   1.228   7.631   3.790
61191W        W33451  19.569  10.962  11.687
61192W        W33452  27.724   0.865  13.866
61193W        W33453   7.200  30.608  10.675
61194W        W33454  15.247  18.619   4.464
61195W        W33455   9.894  14.763   4.276
61196W        W33456  38.976   3.385  12.349
61197W        W33457  13.225  35.563   2.434
61198W        W33458   4.409  11.852  12.965
61199W        W33459  32.779  38.546  12.982
61200W        W33460  14.352   7.268  13.234
61201W        W33461  44.066   0.915   0.265
61202W        W33462  39.131  43.359  13.842
61203W        W33463  21.001  22.186  14.013
61204W        W33464  41.445  29.962   4.144
61205W        W33465   4.765   0.673   0.779
61206W        W33466  41.434  41.994  14.782
61207W        W33467  22.969  42.448   0.947
61208W        W33468  18.707  21.257  12.005
61209W        W33469   1.858  34.470   0.400
61210W        W33470  23.136  31.536  14.689
61211W        W33471  18.105  41.777   3.594
61212W        W33472   5.002  14.027   0.792
61213W        W33473  20.643  24.083   2.882
61214W        W33474   4.228  26.298   9.813
61215W        W33475  29.884  30.422   0.842
61216W        W33476  36.979  36.840   0.335
61217W        W33477  30.405   8.159  14.524
61218W        W33478  14.561   2.218  10.576
61219W        W33479  27.585  29.329   4.612
61220W        W33480   2.683  29.451   4.098
61221W        W33481  11.819   2.867   3.650
61222W        W33482  42.019  35.099   0.000
61223W        W33483  26.892   5.277   3.775
61224W        W33484  15.991   8.751   2.599
61225W        W33485   6.195   9.114  14.853
61226W        W33486  36.135  11.326   2.309
61227W        W33487  39.921  39.322   1.516
61228W        W33488  16.649   1.332   0.731
61229W        W33489  23.950   8.863  11.057
61230W        W33490  31.015  27.890   4.148
61231W        W33491   5.265  39.289  10.993
61232W        W33492  40.346  41.046  11.042
61233W        W33493  29.037   2.892  10.468
61234W        W33494  25.283  36.542  11.947
61235W        W33495  28.752  21.905  13.546
61236W        W33496   4.113  24.614   2.446
61237W        W33497  22.770  16.282   4.667
61238W        W33498   2.926  22.147   0.714
61239W        W33499  13.753  31.605  14.407
61240W        W33500  29.229  32.962  14.446
61241W        W33501  29.603  25.037   3.958
61242W        W33502  41.298  33.416   3.642
61243W        W33503  10.348  30.693   3.287
61244W        W33504  39.871  40.372  10.500
61245W        W33505  40.400  44.763   4.599
61246W        W33506   2.060   3.351   1.259
61247W        W33507  35.513  14.014   2.351
61248W        W33508   1.351  19.169  14.024
61249W        W33509  19.705  17.282  12.625
61250W        W33510  33.028  13.833  14.027
61251W        W33511  19.023  41.807  14.382
61252W        W33512  25.851  10.862   2.083
61253W        W33513   5.645   7.859  12.574
61254W        W33514  32.973  14.860   4.703
61255W        W33515  25.362   5.421   2.872
61256W        W33516   2.028  18.045  12.575
61257W        W33517  17.244  13.886  11.007
61258W        W33518  15.683  19.261   4.499
61259W        W33519  37.626  41.974  10.766
61260W        W33520  24.244   2.940   4.715
61261W        W33521  11.699  21.822   1.485
61262W        W33522  33.483  33.541   4.600
61263W        W33523  14.132  39.573  10.974
61264W        W33524  44.462  23.002   3.851
61265W        W33525   2.911   2.506  11.311
61266W        W33526  21.429  36.703  11.643
61267W        W33527   4.772   5.553  10.274
61268W        W33528  35.685  44.118  14.490
61269W        W33529  31.449  18.997  14.244
61270W        W33530  12.322  17.236   4.140
61271W        W33531   0.574  39.583   3.478
61272W        W33532   8.324  33.745   4.435
61273W        W33533  31.198  43.821   1.722
61274W        W33534  24.470  42.392   2.809
61275W        W33535  12.775  23.081  12.572
61276W        W33536  22.554  10.431  14.297
61277W        W33537  36.852   6.879  13.414
61278W        W33538  15.036  38.974   2.881
61279W        W33539  43.457  15.878  11.918
61280W        W33540  20.501  30.848   3.405
61281W        W33541   2.791  29.295   1.462
61282W        W33542  18.535  25.577  12.745
61283W        W33543   4.829  14.314   0.414
61284W        W33544  18.066  33.136  11.547
61285W        W33545  31.500  25.740   4.076
61286W        W33546  15.078  31.075  11.891
61287W        W33547  17.144  24.103  14.370
61288W        W33548   8.587  34.977  10.575
61289W        W33549  29.504   9.147   3.702
61290W        W33550  33.337   4.373  12.319
61291W        W33551  35.387  20.500  13.965
61292W        W33552  28.975  29.211  10.178
61293W        W33553   5.181  30.140   0.464
61294W        W33554   6.690  20.130   3.143
61295W        W33555  28.530  32.406  14.023
61296W        W33556  26.670  11.925   4.048
61297W        W33557  29.405  20.957  12.977
61298W        W33558  27.954  33.568  10.734
61299W        W33559  23.732  35.592  12.971
61300W        W33560  44.900  35.155  12.080
61301W        W33561  38.328  34.825  11.927
61302W        W33562  20.774  31.951  11.626
61303W        W33563   7.201   9.286   2.281
61304W        W33564  33.508  15.656   4.458
61305W        W33565  37.646   1.025  10.514
61306W        W33566   9.841  16.930  13.415
61307W        W33567  16.588  10.800   5.022
61308W        W33568   6.081  13.933  12.454
61309W        W33569  11.346  39.309  13.534
61310W        W33570   3.745  18.698   3.192
61311W        W33571   9.123  31.532   2.883
61312W        W33572  44.022  13.389  14.949
61313W        W33573   5.530  34.734  14.374
61314W        W33574  34.621   6.340   0.088
61315W        W33575  37.690  27.670  13.997
61316W        W33576  25.836  44.436  14.624
61317W        W33577   7.197   8.718  14.361
61318W        W33578   9.781   6.760   2.699
61319W        W33579  43.796  40.842  11.052
61320W        W33580  20.087   1.235  13.939
61321W        W33581  43.109   4.473  10.221
61322W        W33582  12.778  17.647  10.623
61323W        W33583  27.352  22.209  11.663
61324W        W33584  11.069  34.466   2.459
61325W        W33585  15.056   4.404   0.668
61326W        W33586  12.024  25.893   4.216
61327W        W33587  23.079  43.829   3.357
61328W        W33588   5.229  41.782   2.163
61329W        W33589   6.578   9.717  10.909
61330W        W33590  16.814  43.078   2.385
61331W        W33591  40.359  18.667   4.672
61332W        W33592  25.198  14.231   0.254
61333W        W33593  39.145  16.857   2.853
61334W        W33594  26.542  26.083  13.799
61335W        W33595   7.248  35.824   3.373
61336W        W33596   4.695   8.819  13.990
61337W        W33597   1.531  39.369  11.494
61338W        W33598  18.973  38.927   1.488
61339W        W33599  32.614  33.037   1.903
61340W        W33600  17.406  42.933  10.595
61341W        W33601   2.423  19.324  12.309
61342W        W33602  21.002  23.738   1.304
61343W        W33603  33.210   3.832  14.447
61344W        W33604  29.078  21.480  13.566
61345W        W33605   6.349  42.510  10.464
61346W        W33606  31.957  22.088  12.125
61347W        W33607  32.150  11.872   3.306
61348W        W33608  23.129  44.342   4.227
61349W        W33609  14.093  36.352  14.012
61350W        W33610  11.759  35.474   1.712
61351W        W33611   2.783   7.675  14.958
61352W        W33612   8.975   7.459   4.607
61353W        W33613  24.677  20.244   4.205
61354W        W33614  13.122  33.136   2.359
61355W        W33615   7.840  21.223  13.920
61356W        W33616  35.565  43.139   1.965
61357W        W33617   9.650  31.059  12.379
61358W        W33618  12.394  39.854  10.725
61359W        W33619  22.727  15.130   4.120
61360W        W33620  38.638   6.230  14.819
61361W        W33621  34.663   2.863  12.526
61362W        W33622  29.444  39.270  10.444
61363W        W33623  28.245  35.940  14.838
61364W        W33624  15.884  15.301  13.889
61365W        W33625  33.965  18.044  13.823
61366W        W33626  17.350   6.897  13.270
61367W        W33627  28.596  27.211  11.609
61368W        W33628  16.577  21.709   4.301
61369W        W33629  22.054  22.107  14.875
61370W        W33630  28.128  25.191   2.609
61371W        W33631  43.083   6.737   0.394
61372W        W33632  27.125   4.236  13.087
61373W        W33633  37.570  10.537  11.008
61374W        W33634  16.839  10.629   0.839
61375W        W33635  11.689  36.921   3.126
61376W        W33636  44.854  44.414   1.298
61377W        W33637  26.027  12.753  11.178
61378W        W33638  32.082  23.973   3.513
61379W        W33639  11.563   0.442  13.971
61380W        W33640  29.605  27.063   1.585
61381W        W33641  22.107  25.794   3.707
61382W        W33642  23.668  37.402  10.691
61383W        W33643  40.559  12.245  14.877
61384W        W33644  40.236  29.212  14.554
61385W        W33645  40.833  40.323   3.591
61386W        W33646  19.219  13.774   1.213
61387W        W33647   2.181  37.637  11.261
61388W        W33648  27.558  37.323   1.420
61389W        W33649  21.634  34.044  11.979
61390W        W33650  41.814  31.597  10.618
61391W        W33651  39.066   9.196   1.314
61392W        W33652  14.520  16.975  11.121
61393W        W33653  26.852  41.946  12.458
61394W        W33654  18.033  40.754   0.404
61395W        W33655  29.190  15.313   3.703
61396W        W33656   1.749  11.766   3.700
61397W        W33657  26.957   2.276  12.946
61398W        W33658  44.882  27.367   1.723
61399W        W33659  39.541  23.001  12.044
61400W        W33660  11.409  18.499  10.510
61401W        W33661  43.702  20.778   1.412
61402W        W33662  28.772  12.873   2.006
61403W        W33663   4.375  20.015   1.636
61404W        W33664  27.013  17.034  11.699
61405W        W33665  33.656  40.944   2.207
61406W        W33666  40.374  32.138  14.827
61407W        W33667  39.916   6.410  13.705
61408W        W33668  18.115  17.795   2.257
61409W        W33669  20.983   8.921   5.211
61410W        W33670  40.440   7.505  10.821
61411W        W33671  31.880  19.179  14.479
61412W        W33672  16.826  17.434  10.106
61413W        W33673  20.702  35.444  14.008
61414W        W33674  31.884  33.459   3.102
61415W        W33675  41.621  37.541  11.108
61416W        W33676  19.914  13.205   4.516
61417W        W33677  18.194  29.952   1.341
61418W        W33678  10.849  14.151  10.893
61419W        W33679   9.811   6.977   0.889
61420W        W33680   6.445  13.617   3.628
61421W        W33681  25.050   2.774  12.326
61422W        W33682  20.068  35.159   0.472
61423W        W33683  43.386   4.806  11.610
61424W        W33684  42.066  37.848   2.304
61425W        W33685  25.703  35.355   4.365
61426W        W33686  18.320  36.282  14.931
61427W        W33687  15.809   7.352  13.309
61428W        W33688  27.699   1.730  11.203
61429W        W33689   4.832  12.014  13.439
61430W        W33690   1.719  21.810   4.616
61431W        W33691  29.393  37.633   2.140
61432W        W33692  19.153   6.838   0.389
61433W        W33693  14.295  10.169  13.936
61434W        W33694  31.605  11.710   0.748
61435W        W33695  43.314  40.597   1.028
61436W        W33696  36.941  10.774  10.699
61437W        W33697  42.795   0.439  12.058
61438W        W33698  39.514   7.734  13.092
61439W        W33699  25.705  23.489  14.451
61440W        W33700  37.482  17.330  11.004
61441W        W33701  23.413   0.850  14.389
61442W        W33702   2.800   5.325   4.439
61443W        W33703  40.502  37.474  10.568
61444W        W33704  10.299  17.040  11.958
61445W        W33705   0.105  25.966   2.099
61446W        W33706   3.802   2.758   4.040
61447W        W33707  33.389  41.701  12.949
61448W        W33708   6.981   3.892   0.464
61449W        W33709  37.362  40.426  11.857
61450W        W33710  44.869  28.380   3.672
61451W        W33711  18.993  20.488   0.351
61452W        W33712  17.483  28.159   2.296
61453W        W33713  15.333  15.567   4.128
61454W        W33714  26.451  36.127  14.952
61455W        W33715  25.905  31.981  10.716
61456W        W33716  23.586   8.840  13.249
61457W        W33717  43.535   9.895   2.457
61458W        W33718  16.342   8.311   1.861
61459W        W33719  25.529  16.398  14.792
61460W        W33720  43.456  28.700  12.671
61461W        W33721  32.462  28.548  12.062
61462W        W33722  35.904  13.313  13.309
61463W        W33723   6.364   1.533  12.874
61464W        W33724  41.034  31.097   3.473
61465W        W33725  30.201  15.093  11.606
61466W        W33726  43.355  41.426   3.081
61467W        W33727  36.763   9.485   5.547
61468W        W33728  28.153   9.535   0.577
61469W        W33729  27.525   0.795   4.498
61470W        W33730   8.929  37.993  11.139
61471W        W33731  15.267   4.674  14.411
61472W        W33732   2.978  35.410   0.400
61473W        W33733   6.533  39.701  10.723
61474W        W33734  41.608  27.537   2.710
61475W        W33735  15.309  33.571  11.527
61476W        W33736  12.421  17.985  13.807
61477W        W33737  34.489  32.953   4.181
61478W        W33738  26.476   7.128   0.460
61479W        W33739  20.653  22.420   3.721
61480W        W33740  44.961  14.444  13.496
61481W        W33741  24.477  15.943   4.608
61482W        W33742  22.708  42.442   2.282
61483W        W33743  15.813   8.719   1.463
61484W        W33744   8.013  29.524  10.262
61485W        W33745   3.411   2.757   4.890
61486W        W33746   9.470  16.679   2.287
61487W        W33747  31.062  21.148  11.571
61488W        W33748   5.398  33.525  11.292
61489W        W33749  19.842  15.835  11.092
61490W        W33750  15.471  16.726   4.603
61491W        W33751   5.228  15.623   2.828
61492W        W33752  35.971  28.174   0.205
61493W        W33753  17.313  27.077  10.329
61494W        W33754   2.511  19.807  10.677
61495W        W33755   7.210   4.491   4.514
61496W        W33756  43.403  20.557   2.284
61497W        W33757  16.810  33.821   3.555
61498W        W33758  19.314  35.559   1.779
61499W        W33759  28.492  11.861   4.348
61500W        W33760  38.571  34.865   3.716
61501W        W33761  20.562   8.627  11.553
61502W        W33762   8.866   9.014  10.946
61503W        W33763   8.687  37.440   4.850
61504W        W33764  21.497  33.834  11.104
61505W        W33765  13.381  22.731  12.076
61506W        W33766   2.004  14.833   2.311
61507W        W33767  23.269  28.757  10.165
61508W        W33768  37.373  11.777   5.079
61509W        W33769  29.564  26.739  12.442
61510W        W33770  42.571  19.219   1.682
61511W        W33771  35.111  16.817  11.628
61512W        W33772  35.579  12.834  10.803
61513W        W33773  31.920  28.955   0.097
61514W        W33774   6.741  44.318  12.878
61515W        W33775  43.520   4.236   0.888
61516W        W33776  44.420  38.999   0.425
61517W        W33777   9.711   8.281   1.942
61518W        W33778  20.786  25.633  14.135
61519W        W33779  20.506  43.595   2.829
61520W        W33780  39.444   5.244   4.543
61521W        W33781   8.207   6.535  12.348
61522W        W33782  17.762  22.050  13.549
61523W        W33783  28.930  22.119  11.262
61524W        W33784  29.843  20.645   4.898
61525W        W33785  17.309  11.376   3.412
61526W        W33786  42.113  27.670   2.642
61527W        W33787  21.417  14.748   3.137
61528W        W33788  17.155  35.508   3.529
61529W        W33789   8.899   4.236  13.456
61530W        W33790   8.325   3.853  10.427
61531W        W33791   4.536   0.757   4.193
61532W        W33792  43.790  39.059   0.952
61533W        W33793  11.717   2.380  12.805
61534W        W33794  30.559  25.464  11.637
61535W        W33795   1.854   9.512   3.800
61536W        W33796  32.820  18.990   2.724
61537W        W33797  27.742   2.724  13.840
61538W        W33798   2.801  13.191   1.257
61539W        W33799  15.707  15.960  10.074
61540W        W33800  27.935   9.412   1.446
61541W        W33801  28.675  36.464   2.212
61542W        W33802   3.427  43.739  11.515
61543W        W33803  14.724  16.333   1.885
61544W        W33804   2.191  39.434   4.576
61545W        W33805  18.745  37.412  13.353
61546W        W33806  29.070   5.287  11.227
61547W        W33807  13.278  44.514   3.352
61548W        W33808   8.227  11.539  10.599
61549W        W33809   2.019   6.220   3.341
61550W        W33810  25.440  29.092  12.534
61551W        W33811  28.757  34.047  13.562
61552W        W33812  15.996  10.328  12.363
61553W        W33813  37.080  35.800   0.347
61554W        W33814  33.162   2.009   2.268
61555W        W33815   3.718   7.826  11.373
61556W        W33816  31.346   8.257   3.791
61557W        W33817  11.733  22.990  13.341
61558W        W33818  33.126   8.398   0.329
61559W        W33819   8.784  33.383   2.472
61560W        W33820  18.996  22.811   4.089
61561W        W33821  43.446   9.655  14.832
61562W        W33822  40.387  43.081  13.880
61563W        W33823  21.526   5.155   3.293
61564W        W33824  34.117  39.733  12.876
61565W        W33825  38.898   2.379  13.899
61566W        W33826   4.512   3.297  11.606
61567W        W33827  15.854  39.747   4.842
61568W        W33828  18.562  18.970   3.345
61569W        W33829  19.649  40.887  11.003
61570W        W33830  28.888  34.117  14.698
61571W        W33831   4.346  15.493  10.931
61572W        W33832  31.088  34.138   4.094
61573W        W33833  40.911  10.128   1.384
61574W        W33834   1.926   0.278  10.714
61575W        W33835  39.013  14.698   4.642
61576W        W33836   3.770   2.660  14.412
61577W        W33837   6.703   7.190   1.751
61578W        W33838  43.961  37.983   3.689
61579W        W33839  12.922   5.402   2.588
61580W        W33840  35.412  25.922   2.888
61581W        W33841  44.762   9.931   2.748
61582W        W33842   2.484   9.599   3.940
61583W        W33843   7.873   3.270  12.639
61584W        W33844  37.877   7.270   9.634
61585W        W33845  36.686  32.873  11.159
61586W        W33846  14.193   7.574   4.091
61587W        W33847  36.149  43.393   0.435
61588W        W33848  16.384   9.558   1.487
61589W        W33849  35.460  35.534  12.560
61590W        W33850  33.914  34.572  14.274
61591W        W33851  11.540   8.232  14.863
61592W        W33852  20.719   2.890   3.762
61593W        W33853  33.346  26.168   1.899
61594W        W33854  11.431  23.121   4.424
61595W        W33855   7.178  38.030   2.290
61596W        W33856  38.528  13.787   4.979
61597W        W33857  33.970  33.626   1.855
61598W        W33858  42.111  26.754  11.203
61599W        W33859  26.812  18.216  12.024
61600W        W33860  35.689  21.666   1.721
61601W        W33861  16.658  43.974  10.393
61602W        W33862  22.497  18.605  11.254
61603W        W33863   7.842  42.306   4.980
61604W        W33864   7.799   0.297  12.913
61605W        W33865  23.777  33.451   3.637
61606W        W33866  23.494  21.923  13.720
61607W        W33867   9.785  15.399   2.695
61608W        W33868  30.973  26.006   1.155
61609W        W33869  18.819  41.091   0.596
61610W        W33870  43.257  37.021  14.901
61611W        W33871  32.326   8.296  10.589
61612W        W33872  32.352  12.415  14.530
61613W        W33873  31.255   7.900   2.286
61614W        W33874  41.730   9.074   0.490
61615W        W33875  41.803  41.851  14.451
61616W        W33876   8.457  25.493  12.549
61617W        W33877  36.469  25.088   0.855
61618W        W33878   0.503  13.442   1.367
61619W        W33879  40.906  12.970  11.105
61620W        W33880  28.722   7.168   2.989
61621W        W33881  31.335   3.408  11.165
61622W        W33882  38.807  22.082  12.428
61623W        W33883  10.358  30.421   9.981
61624W        W33884   5.800   3.320   3.259
61625W        W33885  21.500  31.509  14.455
61626W        W33886  25.705   8.756   4.524
61627W        W33887  23.767  10.912  11.519
61628W        W33888  36.839   7.797   0.280
61629W        W33889   3.300   0.551  12.441
61630W        W33890  26.960  20.466   1.363
61631W        W33891  21.508   5.689   4.473
61632W        W33892   6.190  41.942   0.108
61633W        W33893  13.720  12.870  11.550
61634W        W33894  15.663  32.357   0.649
61635W        W33895  37.433  32.570   4.899
61636W        W33896  26.427  38.484  11.902
61637W        W33897  14.089  19.970   4.151
61638W        W33898  12.707  38.527  10.665
61639W        W33899  28.291   5.342  13.551
61640W        W33900  29.733  25.501   3.080
61641W        W33901   5.118  37.813  11.166
61642W        W33902   5.653  29.329   4.995
61643W        W33903   2.940   5.758  11.382
61644W        W33904   0.374  24.004  12.976
61645W        W33905   7.858  27.210   1.947
61646W        W33906   2.262  14.761  11.174
61647W        W33907   1.198  20.129   2.217
61648W        W33908  12.090  10.298  10.724
61649W        W33909  12.878  14.743   2.201
61650W        W33910  12.247  12.527   1.274
61651W        W33911  14.665  19.089   0.476
61652W        W33912  35.101  44.830   3.730
61653W        W33913  38.635  31.214  13.319
61654W        W33914   2.436  12.572  12.995
61655W        W33915  19.007  41.628  10.356
61656W        W33916  34.218  14.951  12.382
61657W        W33917   8.593  34.382  11.062
61658W        W33918  16.116  43.250   3.855
61659W        W33919  34.831  19.706  10.669
61660W        W33920  39.994  24.070  10.593
61661W        W33921  19.117  11.733  14.465
61662W        W33922  23.633  25.517  11.974
61663W        W33923  38.834   9.777   3.283
61664W        W33924  30.653  36.634  10.726
61665W        W33925  17.090  39.023  12.100
61666W        W33926  36.371   4.656  13.550
61667W        W33927  34.874  18.323  11.694
61668W        W33928  31.137  27.356  12.449
61669W        W33929  30.400  10.146  12.525
61670W        W33930  25.283  11.350  13.786
61671W        W33931  12.958   0.778   1.946
61672W        W33932  35.875   0.264   2.308
61673W        W33933   4.335  16.521  13.009
61674W        W33934   1.795  29.523   2.882
61675W        W33935  29.037  33.503   1.381
61676W        W33936  34.922  37.061  12.987
61677W        W33937  19.466  23.570  13.534
61678W        W33938  14.710  31.569   1.829
61679W        W33939  19.325  30.488  11.938
61680W        W33940  35.062  39.393  14.394
61681W        W33941   6.460   3.846  13.989
61682W        W33942  36.593  23.128  10.579
61683W        W33943   4.703  41.768   3.016
61684W        W33944  29.972  24.768   1.018
61685W        W33945  24.999  37.379   3.197
61686W        W33946  16.726  29.935   1.736
61687W        W33947  10.351  11.871  10.778
61688W        W33948   0.911   3.267   1.896
61689W        W33949  24.610   6.627   1.839
61690W        W33950  10.183  19.782   3.742
61691W        W33951  29.954  34.600   2.619
61692W        W33952   2.902  18.972   1.194
61693W        W33953  44.035  14.960  10.485
61694W        W33954  11.704   6.601   1.754
61695W        W33955  15.863  34.320  13.466
61696W        W33956  29.930  18.588   0.978
61697W        W33957  37.574  27.025  11.998
61698W        W33958  30.977  12.383   0.353
61699W        W33959  29.862  26.611  14.469
61700W        W33960  39.278   8.276  14.988
61701W        W33961   1.265  11.784  14.447
61702W        W33962  18.036   9.780  14.278
61703W        W33963  37.753  42.754   2.408
61704W        W33964  24.570  42.359   0.905
61705W        W33965  22.331  41.003   1.913
61706W        W33966  38.113  25.213   3.274
61707W        W33967  28.197  37.389   3.738
61708W        W33968   2.836  12.775   0.420
61709W        W33969  42.558  10.134   2.715
61710W        W33970  20.191  24.038  13.885
61711W        W33971  16.323  29.478   3.195
61712W        W33972  32.427  41.470   1.736
61713W        W33973   1.552   9.845  14.279
61714W        W33974  11.842  22.637   1.130
61715W        W33975  20.245  35.023   2.431
61716W        W33976  16.703  17.460   0.896
61717W        W33977  17.084  31.956  12.536
61718W        W33978   2.290  41.512   1.287
61719W        W33979   2.416  43.827  10.972
61720W        W33980  35.316   3.820  11.115
61721W        W33981  12.839  24.719  14.409
61722W        W33982  40.985  21.117  10.834
61723W        W33983  18.733  20.221   2.740
61724W        W33984  28.970  22.328   2.288
61725W        W33985  25.143  38.841   3.161
61726W        W33986  38.289  22.539  12.412
61727W        W33987  29.400  44.000   4.188
61728W        W33988   7.626  16.344  11.575
61729W        W33989  41.371   2.397   5.032
61730W        W33990   4.051  18.587  12.924
61731W        W33991  24.815  11.611   0.920
61732W        W33992  13.338  38.060   0.120
61733W        W33993   7.226  38.607  13.500
61734W        W33994  23.121  19.201   3.880
61735W        W33995  39.982  28.875   0.713
61736W        W33996   4.856  44.016   2.560
61737W        W33997  18.416  32.051   1.614
61738W        W33998  27.488  21.249   1.268
61739W        W33999  32.370  15.338   1.313
61740W        W34000  43.442   9.413   4.249
61741W        W34001  33.515  16.991   2.231
61742W        W34002  42.013   7.384   1.201
61743W        W34003  43.727  22.396  13.949
61744W        W34004   8.760  35.104  14.932
61745W        W34005   9.591  35.602   0.802
61746W        W34006   8.393   8.764   0.413
61747W        W34007   0.291   6.916  14.855
61748W        W34008  16.496  18.645   1.765
61749W        W34009  20.853  20.104  13.575
61750W        W34010  34.942  20.488  11.484
61751W        W34011  13.904  26.879   5.065
61752W        W34012   5.950  10.136   2.763
61753W        W34013  22.150  29.178  11.044
61754W        W34014  13.187   1.226   0.866
61755W        W34015  18.178  21.851   0.838
61756W        W34016  21.168  37.942   0.230
61757W        W34017  29.530  11.230   3.705
61758W        W34018  24.551  42.794   1.184
61759W        W34019  15.869   8.164  14.745
61760W        W34020  25.676   8.994  14.883
61761W        W34021  19.709  19.455   0.889
61762W        W34022  28.945  23.249   2.734
61763W        W34023  27.098  18.151   4.703
61764W        W34024   0.956   0.698  13.669
61765W        W34025  12.216   4.723   3.402
61766W        W34026  32.026  21.781   1.389
61767W        W34027  13.878  33.494  13.819
61768W        W34028  32.813  44.504   1.467
61769W        W34029  34.165  36.005  14.290
61770W        W34030   5.257  11.901   0.726
61771W        W34031  33.489  39.929   4.218
61772W        W34032  15.595  13.603   1.732
61773W        W34033  21.739   9.146   1.172
61774W        W34034  24.427   9.032  10.532
61775W        W34035  42.499   7.713  11.594
61776W        W34036   6.156  10.131  14.796
61777W        W34037  44.417  25.734  14.434
61778W        W34038  16.309   6.463  14.494
61779W        W34039  26.554  31.153   9.892
61780W        W34040  30.442  22.506  13.230
61781W        W34041  43.871  43.919  14.879
61782W        W34042   6.804  30.632  12.932
61783W        W34043  30.615  29.097   1.392
61784W        W34044  17.288   4.310  10.678
61785W        W34045  13.877  37.303  11.070
61786W        W34046  41.262  34.440  13.029
61787W        W34047  34.756  34.537   0.871
61788W        W34048  43.647  22.009   3.659
61789W        W34049  11.636  34.957   1.717
61790W        W34050  13.872  36.518  11.514
61791W        W34051   8.043  36.932   2.823
61792W        W34052  35.666  16.082   4.138
61793W        W34053  37.464  39.376  14.043
61794W        W34054   1.672  15.185  11.609
61795W        W34055  13.846  35.396   4.594
61796W        W34056  39.707  29.347  12.051
61797W        W34057   8.247  19.196   2.897
61798W        W34058  18.918  12.340  12.449
61799W        W34059  39.368  37.044   2.116
61800W        W34060  36.916  20.180   2.613
61801W        W34061  34.629  14.787  13.916
61802W        W34062  16.151  27.651  13.070
61803W        W34063  10.977  30.445   1.692
61804W        W34064  20.276   0.700  12.606
61805W        W34065  35.350  15.562  13.667
61806W        W34066   4.708  29.561  14.253
61807W        W34067  39.157  32.010  12.809
61808W        W34068  35.882   4.506  13.619
61809W        W34069   9.337   5.465  11.538
61810W        W34070   7.272   0.998  12.096
61811W        W34071   4.085  11.822   0.876
61812W        W34072  12.506  15.794   1.301
61813W        W34073  28.470  26.944   4.105
61814W        W34074  37.476   9.057  13.060
61815W        W34075   6.913  43.822  14.322
61816W        W34076  14.872  13.837  11.610
61817W        W34077   2.008  28.928   0.286
61818W        W34078  18.571  27.200  14.413
61819W        W34079  31.600   7.442   3.833
61820W        W34080  13.898  37.046  13.933
61821W        W34081  37.079  24.656   0.667
61822W        W34082  20.732  13.107   0.070
61823W        W34083  27.608  21.486   0.364
61824W        W34084   5.757  22.503  12.810
61825W        W34085   7.673  36.006  13.786
61826W        W34086  44.597   8.301   0.802
61827W        W34087  16.358  36.634  14.862
61828W        W34088  43.820   4.131  14.786
61829W        W34089   9.520   4.680  14.822
61830W        W34090  19.204  35.077   3.052
61831W        W34091  19.717  16.125   2.213
61832W        W34092   6.715  25.643   4.571
61833W        W34093  33.596   5.628  11.290
61834W        W34094  13.347  14.700   3.362
61835W        W34095   7.945   6.904  14.408
61836W        W34096  20.125  31.406  14.517
61837W        W34097  25.050  39.828   4.044
61838W        W34098  43.461   9.316  14.043
61839W        W34099  16.500  29.075   3.670
61840W        W34100   0.533  35.906   2.287
61841W        W34101   3.843  43.912   4.836
61842W        W34102   0.704  18.626   0.248
61843W        W34103  28.468  40.403  13.966
61844W        W34104  28.739  38.971  11.527
61845W        W34105   3.282  16.766   3.045
61846W        W34106  17.299  44.471  14.022
61847W        W34107  19.789  16.548  14.416
61848W        W34108  35.481  34.291  14.997
61849W        W34109   0.293  12.781   4.151
61850W        W34110  43.809  35.393  14.567
61851W        W34111   4.336  36.636  12.033
61852W        W34112  21.759  32.947  13.858
61853W        W34113  30.162  41.486  12.904
61854W        W34114   9.349  12.843  14.345
61855W        W34115  32.104   9.892   2.616
61856W        W34116   5.855  11.343  13.379
61857W        W34117   8.673   5.835   0.508
61858W        W34118   6.654  22.477  13.604
61859W        W34119  35.441   1.899  13.040
61860W        W34120  23.917   1.770   2.924
61861W        W34121  34.642  25.952  12.039
61862W        W34122  39.402   5.407   1.013
61863W        W34123  37.911  16.639  12.977
61864W        W34124   8.232  37.888   1.300
61865W        W34125  12.536  22.736   3.179
61866W        W34126  18.842  16.579   4.234
61867W        W34127  29.476  27.432  14.219
61868W        W34128  24.054  36.835   1.857
61869W        W34129  31.600  36.279   4.192
61870W        W34130  34.889  29.992   4.048
61871W        W34131  32.843  12.116   2.672
61872W        W34132  32.042  20.189  10.716
61873W        W34133   5.437  40.803  14.358
61874W        W34134  10.452  42.498   2.735
61875W        W34135  44.935  20.722   4.110
61876W        W34136  27.521  22.194   0.987
61877W        W34137  20.525  10.709   3.714
61878W        W34138  27.502   6.907  11.825
61879W        W34139  33.635   0.430  11.185
61880W        W34140  35.198   2.713   3.194
61881W        W34141   5.933  18.286   2.728
61882W        W34142  13.307   6.417   0.237
61883W        W34143  33.162  39.484  12.048
61884W        W34144  37.496  11.199   1.898
61885W        W34145   6.669  30.703   4.157
61886W        W34146   3.999  29.423   4.443
61887W        W34147  36.455  24.109  14.731
61888W        W34148  18.748  40.589  11.118
61889W        W34149  16.021  27.027  10.416
61890W        W34150   6.470  36.394  13.645
61891W        W34151  42.168  25.928   1.776
61892W        W34152  21.380  11.602   3.105
61893W        W34153  36.625  36.312   5.216
61894W        W34154  40.123  37.393   3.241
61895W        W34155  24.969  20.633   2.743
61896W        W34156  31.469  38.168   0.702
61897W        W34157   3.717  42.938  12.990
61898W        W34158  13.116  21.243   0.420
61899W        W34159  11.972  15.514   4.055
61900W        W34160   9.839  39.696   0.284
61901W        W34161  27.741  35.936  14.906
61902W        W34162   6.232  42.367  14.763
61903W        W34163   3.279   3.929  14.893
61904W        W34164  14.480   3.326  13.382
61905W        W34165  43.977  39.173  11.987
61906W        W34166  35.118  37.882   3.836
61907W        W34167  13.398  37.169   2.700
61908W        W34168  32.988  19.972  14.583
61909W        W34169  42.639  24.174  13.255
61910W        W34170   0.866  10.330  14.048
61911W        W34171  37.205  19.789   5.016
61912W        W34172  32.950  42.615  11.516
61913W        W34173  31.639  31.899   4.807
61914W        W34174  10.123  27.275   4.234
61915W        W34175   8.210  30.061   1.347
61916W        W34176  20.628  39.237   0.432
61917W        W34177  26.403   7.705   4.948
61918W        W34178   3.244  25.083   0.921
61919W        W34179  13.833  29.347   3.771
61920W        W34180  26.010  21.265   2.422
61921W        W34181  27.979   8.327   4.145
61922W        W34182   6.237  39.005   0.079
61923W        W34183  41.295  41.452  12.479
61924W        W34184   6.183  30.726  13.378
61925W        W34185  21.281  30.711   0.922
61926W        W34186   2.418  29.912   3.570
61927W        W34187  33.937   5.860  10.983
61928W        W34188  28.486  25.072   0.220
61929W        W34189   4.171  27.986  14.504
61930W        W34190  32.441   3.759  14.884
61931W        W34191  29.699  21.754   2.869
61932W        W34192  36.308  36.861   1.022
61933W        W34193  43.302  31.189  14.860
61934W        W34194  29.912   9.280   5.041
61935W        W34195  23.016  31.624   1.838
61936W        W34196  37.092  40.807  12.108
61937W        W34197  28.356  27.665  14.735
61938W        W34198  34.893  41.428   2.589
61939W        W34199  29.418   5.261  11.598
61940W        W34200  37.482  44.212  14.384
61941W        W34201  18.036   9.743   4.388
61942W        W34202   8.100  21.230  13.434
61943W        W34203  17.683   1.696   2.277
61944W        W34204   1.968  39.446  14.255
61945W        W34205  28.030  38.763  11.262
61946W        W34206  23.991  18.499  13.060
61947W        W34207   9.074  11.269  11.485
61948W        W34208  18.822  23.630  11.683
61949W        W34209  42.855  38.600   0.805
61950W        W34210   9.429  31.095   2.858
61951W        W34211   2.370   9.398  14.934
61952W        W34212  44.773  17.986  14.461
61953W        W34213  29.557  33.443   1.319
61954W        W34214   9.765  21.097   1.176
61955W        W34215  38.116  25.086   4.640
61956W        W34216  32.743   3.686  13.473
61957W        W34217  13.848  31.394   2.575
61958W        W34218  20.117  15.846   0.416
61959W        W34219  19.845  21.592  14.157
61960W        W34220  23.792  25.551   2.725
61961W        W34221  16.574   5.687   0.374
61962W        W34222  44.643   4.821  11.340
61963W        W34223  12.913  11.896   4.081
61964W        W34224  33.067  38.808   2.744
61965W        W34225  33.663  39.795  12.606
61966W        W34226   8.397  21.400  11.410
61967W        W34227  37.606  18.808   0.419
61968W        W34228  24.740   6.569  11.089
61969W        W34229  18.070   6.040  13.900
61970W        W34230  21.661  28.422  14.704
61971W        W34231  23.210  38.929  12.385
61972W        W34232   8.380  23.707  13.161
61973W        W34233  28.986   6.284  14.859
61974W        W34234  28.674   8.345   3.502
61975W        W34235  41.051   4.207   4.841
61976W        W34236  36.637  19.573  11.431
61977W        W34237  13.796  20.374   1.886
61978W        W34238  33.387  11.420   4.078
61979W        W34239  18.029  16.590  10.716
61980W        W34240  10.716   4.665  13.391
61981W        W34241  20.016   5.428   0.737
61982W        W34242  43.925  18.814  12.052
61983W        W34243  41.254  44.743   3.672
61984W        W34244  21.466  15.149  12.819
61985W        W34245  16.523  32.281  12.060
61986W        W34246  11.977  15.314  12.040
61987W        W34247   9.948  44.195   3.863
61988W        W34248   3.848  15.621  14.919
61989W        W34249  11.918  42.829   0.761
61990W        W34250  31.065  21.420   0.537
61991W        W34251  27.923   5.340   0.011
61992W        W34252   5.999  34.810   4.214
61993W        W34253  20.424   8.269   2.715
61994W        W34254  41.569  22.486   2.501
61995W        W34255  19.635  35.210  14.441
61996W        W34256  36.090  14.248   4.690
61997W        W34257  40.580  22.322   3.733
61998W        W34258  15.817  24.434  12.105
61999W        W34259  35.372  42.964  11.952
62000W        W34260   3.885  26.353  12.798
62001W        W34261  28.427  44.850  10.761
62002W        W34262  22.247  12.371   1.264
62003W        W34263  25.068  40.867   0.515
62004W        W34264   1.935   8.246  12.157
62005W        W34265  11.191   6.373  13.982
62006W        W34266  12.264  29.635  11.036
62007W        W34267  33.491  44.786  12.041
62008W        W34268   4.328  14.066  10.956
62009W        W34269   4.053  12.024  12.114
62010W        W34270   6.394  27.609   3.396
62011W        W34271  23.077  15.843   2.832
62012W        W34272   7.221  43.102  11.584
62013W        W34273  13.094  42.031  13.527
62014W        W34274  21.031  26.185  13.766
62015W        W34275  24.194  20.491   2.224
62016W        W34276  30.475   1.411   3.324
62017W        W34277  15.540  42.926   2.718
62018W        W34278  31.676  29.141   0.519
62019W        W34279  43.289  19.134   2.301
62020W        W34280  35.156  36.951   3.238
62021W        W34281  23.594  23.634   3.274
62022W        W34282  26.083  23.559  13.505
62023W        W34283  17.602  26.938  13.450
62024W        W34284  38.447  18.676   3.138
62025W        W34285  19.407  30.567   0.922
62026W        W34286  35.447   7.958   4.557
62027W        W34287  27.902   0.798  11.252
62028W        W34288  32.908  28.619   0.327
62029W        W34289  11.377  15.135   0.542
62030W        W34290  14.154  14.774   1.782
62031W        W34291  36.648  16.193   1.306
62032W        W34292  30.676  39.488  10.755
62033W        W34293  21.459  26.554   1.148
62034W        W34294   4.420  16.549  13.551
62035W        W34295   0.534  27.912  11.265
62036W        W34296  32.627  25.421   4.649
62037W        W34297   3.259  20.126   4.120
62038W        W34298  30.999  17.234   0.261
62039W        W34299  23.150   9.752  12.476
62040W        W34300  27.480  13.774   0.104
62041W        W34301  14.794   0.812  10.742
62042W        W34302  32.973  27.221  14.468
62043W        W34303   5.708  30.029   3.259
62044W        W34304  25.561   0.693   3.360
62045W        W34305  21.261  42.814   1.952
62046W        W34306  11.513  17.803  11.954
62047W        W34307   4.838   4.814  11.885
62048W        W34308  15.329  15.273  10.168
62049W        W34309  42.730  25.575   3.297
62050W        W34310  22.297  15.326   1.793
62051W        W34311  22.567   7.346   3.681
62052W        W34312  12.981  10.297   0.643
62053W        W34313  13.099  12.366   2.130
62054W        W34314  32.091  20.784   0.295
62055W        W34315  17.741  25.979   1.858
62056W        W34316  38.175  30.531  14.940
62057W        W34317  24.242  25.136  10.432
62058W        W34318  29.383   1.229   2.431
62059W        W34319  40.921  10.322   4.583
62060W        W34320   9.961  12.116  13.961
62061W        W34321  26.494  29.529   3.212
62062W        W34322  29.431  41.311  10.776
62063W        W34323  42.643   5.846  12.081
62064W        W34324  27.900  14.846   0.861
62065W        W34325  43.309   6.809   4.246
62066W        W34326   8.602  11.959  14.928
62067W        W34327  30.531  29.514   4.686
62068W        W34328  14.942  22.833   2.727
62069W        W34329  14.264  38.153  14.839
62070W        W34330  13.377  18.125  12.054
62071W        W34331  13.916  24.199   2.613
62072W        W34332   7.624  32.844  12.403
62073W        W34333  38.344  36.572   3.808
62074W        W34334  18.117  21.638  12.613
62075W        W34335  14.591  34.816  14.115
62076W        W34336  23.770   1.576  14.482
62077W        W34337   7.583  24.495  12.740
62078W        W34338  16.752  24.297   3.822
62079W        W34339  14.316  28.167   1.816
62080W        W34340  15.100  36.083   4.215
62081W        W34341  34.741  41.198  12.089
62082W        W34342  35.551  33.841  11.631
62083W        W34343  18.293  12.620   0.429
62084W        W34344  30.625  24.557  11.578
62085W        W34345   5.816  39.751  14.261
62086W        W34346  22.915  18.248  10.602
62087W        W34347  22.245  15.340  14.493
62088W        W34348  29.029  30.300  13.301
62089W        W34349  26.193  38.512  10.052
62090W        W34350  27.772  33.062  13.548
62091W        W34351   7.764  12.422   0.932
62092W        W34352   0.321  24.734   0.010
62093W        W34353  28.478   0.002   0.343
62094W        W34354  40.670  23.710  14.011
62095W        W34355   2.648  40.977  11.668
62096W        W34356  18.690  30.142  13.635
62097W        W34357  22.154  33.975  12.106
62098W        W34358  36.097  15.097  14.076
62099W        W34359  13.387  21.190   1.678
62100W        W34360  14.123  38.512  11.568
62101W        W34361   9.230   6.397  12.987
62102W        W34362  44.656  20.324  11.145
62103W        W34363  27.880  14.605   2.230
62104W        W34364  44.542  12.818   0.387
62105W        W34365   2.718  24.805   0.478
62106W        W34366  11.154   9.275   1.678
62107W        W34367  29.756  20.996   2.682
62108W        W34368   2.845   0.311   3.255
62109W        W34369  17.546  27.535  10.450
62110W        W34370  44.386   6.305   3.366
62111W        W34371  12.779  40.288  12.930
62112W        W34372   4.543  20.499   1.729
62113W        W34373  29.245  29.570   1.954
62114W        W34374   9.841   6.455   0.805
62115W        W34375  42.920  41.569   2.761
62116W        W34376   0.710  40.791  10.461
62117W        W34377  30.198  13.830  11.046
62118W        W34378  43.294   4.756   2.630
62119W        W34379  33.700  31.983  10.580
62120W        W34380  30.349  34.654  11.974
62121W        W34381  39.928  35.656  12.851
62122W        W34382  21.287  39.015   3.533
62123W        W34383  38.444   5.161   3.973
62124W        W34384  31.026   5.396   1.591
62125W        W34385   1.973  28.542   0.938
62126W        W34386   6.295  13.056  12.428
62127W        W34387   2.690   1.816  13.142
62128W        W34388  14.237  35.643  11.526
62129W        W34389  36.046  37.494   2.381
62130W        W34390  30.579  32.615   2.872
62131W        W34391  44.730  15.290  14.865
62132W        W34392  43.754   4.511  11.435
62133W        W34393   7.891  30.990   1.269
62134W        W34394  21.941  18.183  10.603
62135W        W34395  30.698   6.784   0.487
62136W        W34396  41.931  24.143  13.843
62137W        W34397  26.461  31.726   5.091
62138W        W34398   2.995  13.617  11.585
62139W        W34399  26.150  24.783  14.228
62140W        W34400  43.739  34.411  14.636
62141W        W34401   1.810  44.513  13.433
62142W        W34402  22.960   3.866   0.922
62143W        W34403  17.674  25.970  13.648
62144W        W34404  18.543  40.354   3.644
62145W        W34405  16.903  23.185  11.577
62146W        W34406  15.166  25.964   2.185
62147W        W34407  30.603  31.959   0.739
62148W        W34408  41.873   9.126   4.348
62149W        W34409   5.350   5.466  11.246
62150W        W34410   3.778  22.069   3.159
62151W        W34411   0.738  11.442  11.455
62152W        W34412   2.904   8.065   2.652
62153W        W34413  22.566  17.178  13.187
62154W        W34414   8.234  30.435  11.265
62155W        W34415  44.395  42.766   5.092
62156W        W34416  40.143   0.523   2.360
62157W        W34417  14.685  21.754   3.253
62158W        W34418  36.461  35.685   3.174
62159W        W34419  36.419  10.305  14.247
62160W        W34420  33.612  26.124  13.713
62161W        W34421  41.546   2.438  12.448
62162W        W34422  16.707   9.686   4.332
62163W        W34423   4.242  29.184   3.436
62164W        W34424  22.069  11.630   0.954
62165W        W34425  26.981  32.301   4.720
62166W        W34426  21.124   3.774   5.023
62167W        W34427  41.837  20.656  13.505
62168W        W34428  44.213  19.774  12.558
62169W        W34429  25.885   7.522  11.062
62170W        W34430  34.907  22.821  11.036
62171W        W34431  30.362  20.109  14.941
62172W        W34432  12.621  37.044  12.896
62173W        W34433   5.477  38.907   4.752
62174W        W34434  42.058  25.407  13.107
62175W        W34435   0.248  22.514  12.484
62176W        W34436  29.444  38.414   2.726
62177W        W34437  18.090   4.898   4.887
62178W        W34438   8.896  10.419  12.234
62179W        W34439  34.937  24.225  10.756
62180W        W34440  11.214  40.531  11.195
62181W        W34441  23.610  22.015  14.199
62182W        W34442  31.363   0.019  11.957
62183W        W34443  35.597  11.037   3.622
62184W        W34444   6.208   0.858   1.779
62185W        W34445  40.058  43.015  14.525
62186W        W34446  44.600  16.319   1.474
62187W        W34447  15.268  35.641  12.691
62188W        W34448  21.701  42.072  14.496
62189W        W34449  11.001  25.766  11.042
62190W        W34450  22.961  15.409   1.206
62191W        W34451  37.858  16.646  14.838
62192W        W34452   9.702  31.825   0.582
62193W        W34453  26.213  30.381  11.984
62194W        W34454  24.155   2.856   2.628
62195W        W34455  41.020  11.377  14.885
62196W        W34456   6.426  12.082   2.796
62197W        W34457  39.024  34.112   4.152
62198W        W34458  42.013   8.354  11.059
62199W        W34459   3.064  43.348  13.420
62200W        W34460   5.620   3.894   3.231
62201W        W34461  27.983  20.260  13.439
62202W        W34462   1.326  27.977  14.420
62203W        W34463  37.511  10.204   5.166
62204W        W34464  31.399  37.803   3.381
62205W        W34465  28.012  16.058  12.188
62206W        W34466  27.439  40.068   1.498
62207W        W34467  41.486  37.149   0.451
62208W        W34468  38.822  22.555   2.764
62209W        W34469   6.326  17.101   3.678
62210W        W34470  20.051  44.062   9.792
62211W        W34471  23.454  38.770   1.708
62212W        W34472  16.725  25.426  11.910
62213W        W34473  31.480   6.922   2.150
62214W        W34474  39.020  16.045   1.299
62215W        W34475  29.382  11.500  13.450
62216W        W34476  42.949  32.575   1.829
62217W        W34477  24.301  27.530  11.645
62218W        W34478  24.676  42.146  10.450
62219W        W34479  41.530  25.570  14.428
62220W        W34480  21.699  13.169  11.619
62221W        W34481  25.070  19.471   2.351
62222W        W34482  13.866  43.305  14.303
62223W        W34483  12.661   4.395  14.723
62224W        W34484  29.958  27.290  12.926
62225W        W34485  21.668  35.397   3.831
62226W        W34486  26.409  12.388  13.348
62227W        W34487  42.097   9.203  13.620
62228W        W34488  11.171   8.659  14.502
62229W        W34489   8.289  39.508   2.329
62230W        W34490   9.332   7.125  12.433
62231W        W34491   1.910  37.764  10.844
62232W        W34492   0.541  44.356  12.876
62233W        W34493  14.284   0.931  11.627
62234W        W34494  24.101  20.512  14.925
62235W        W34495   7.718  29.063  10.325
62236W        W34496   8.444  14.638   2.771
62237W        W34497   5.853  36.986   1.880
62238W        W34498  28.051   1.745  14.864
62239W        W34499  10.120  14.449  11.118
62240W        W34500  37.477  22.467  12.557
62241W        W34501  37.314  41.531   4.402
62242W        W34502  16.125  32.076  11.235
62243W        W34503  12.583  16.615  10.540
62244W        W34504   7.350  20.789   3.586
62245W        W34505   2.311  23.379  13.635
62246W        W34506  15.317  29.917  14.865
62247W        W34507   5.868   3.687   2.828
62248W        W34508  21.221  21.075   5.543
62249W        W34509  44.130  43.048  11.128
62250W        W34510  15.221  14.069  12.437
62251W        W34511   0.446  34.306  11.645
62252W        W34512  13.727  31.386  12.681
62253W        W34513  27.863  32.989  14.060
62254W        W34514  20.326   1.742  10.681
62255W        W34515  42.762   2.480   4.583
62256W        W34516   8.889  33.847   4.671
62257W        W34517  39.100  29.578  10.325
62258W        W34518  20.255  32.091  11.978
62259W        W34519  26.472   4.274   2.321
62260W        W34520  22.989  36.610   2.477
62261W        W34521  18.109  30.466   4.546
62262W        W34522  13.657   3.572  11.835
62263W        W34523  16.559  26.691   3.597
62264W        W34524  27.521  37.822  13.973
62265W        W34525   9.227  40.487  14.963
62266W        W34526  14.670  30.164  10.598
62267W        W34527  13.628  11.904  13.629
62268W        W34528  20.469  18.617   0.165
62269W        W34529  39.005   6.868  13.302
62270W        W34530  29.582  28.050   4.615
62271W        W34531  28.841  32.837  14.114
62272W        W34532  22.311  21.719   5.271
62273W        W34533   0.804  26.648   1.748
62274W        W34534   9.062  36.381  10.703
62275W        W34535  38.565  39.701  11.410
62276W        W34536  30.997  22.910  11.425
62277W        W34537  44.113  28.749   0.866
62278W        W34538   0.917  25.206  14.769
62279W        W34539  34.563   0.797   2.311
62280W        W34540  27.037  20.610   4.941
62281W        W34541   1.666  43.942   1.854
62282W        W34542  18.134  10.268  14.900
62283W        W34543  32.380  14.291   4.534
62284W        W34544  34.888  18.391  12.547
62285W        W34545  14.273  33.856   1.288
62286W        W34546   9.215   3.248   2.664
62287W        W34547   9.578  44.205  14.733
62288W        W34548   3.489  34.914  11.974
62289W        W34549  12.387  38.907  10.641
62290W        W34550  43.745  35.584   4.754
62291W        W34551  41.730  29.358  12.018
62292W        W34552  10.846  35.389   3.794
62293W        W34553  21.079  27.147   2.220
62294W        W34554  31.082  32.449   1.817
62295W        W34555  38.770  31.041   0.510
62296W        W34556  41.312  43.030  11.794
62297W        W34557  26.450  27.462   4.085
62298W        W34558  39.510  30.120  11.557
62299W        W34559  20.494  25.229   2.272
62300W        W34560  20.760  20.105   4.649
62301W        W34561  24.113  11.635   0.330
62302W        W34562  20.725  10.913   1.963
62303W        W34563  16.656  21.577   1.961
62304W        W34564  33.570   8.005   2.311
62305W        W34565  24.734  19.745  13.300
62306W        W34566  38.975  19.438  13.891
62307W        W34567   6.894  23.521  12.503
62308W        W34568   7.121  27.510   2.346
62309W        W34569  41.470  29.525  14.860
62310W        W34570  42.058  42.452   3.111
62311W        W34571  31.106  37.983  10.873
62312W        W34572  33.852  16.131   1.807
62313W        W34573   5.367  25.235   5.023
62314W        W34574   2.858  34.664  14.254
62315W        W34575  42.564   8.752   4.886
62316W        W34576  11.593   1.200  14.733
62317W        W34577  31.636  24.409   1.573
62318W        W34578  20.120  39.937   4.366
62319W        W34579  11.788   7.323   2.141
62320W        W34580  35.648  19.068  12.730
62321W        W34581   9.119  32.990   4.823
62322W        W34582  33.448  15.450  14.001
62323W        W34583  31.968  43.883   2.329
62324W        W34584   6.504   6.731   3.084
62325W        W34585  10.332  25.720   0.855
62326W        W34586   0.901  35.985   0.869
62327W        W34587   4.920  44.873  12.198
62328W        W34588   9.750  15.822   3.633
62329W        W34589  38.921  44.745  12.299
62330W        W34590  37.844  24.972  14.102
62331W        W34591  12.807   4.728  11.534
62332W        W34592  18.547  12.717   3.599
62333W        W34593  29.542  17.706   0.464
62334W        W34594   4.222  12.944  14.435
62335W        W34595  27.982  33.537   1.231
62336W        W34596  15.825  39.602   1.011
62337W        W34597   3.257  41.937   3.459
62338W        W34598  30.449  36.262   3.707
62339W        W34599  36.285  19.397   5.493
62340W        W34600  43.926   7.339   1.216
62341W        W34601  39.776  24.683  14.415
62342W        W34602  41.019  34.594  14.916
62343W        W34603  39.536   0.509  13.848
62344W        W34604   4.274  40.769  12.949
62345W        W34605  42.462  10.717   3.897
62346W        W34606  19.186   9.194  13.797
62347W        W34607   2.023  24.247  12.065
62348W        W34608   5.750   3.237  14.536
62349W        W34609  44.818   6.794   4.535
62350W        W34610  35.606   8.815  13.435
62351W        W34611  35.833  42.920   2.360
62352W        W34612  16.965  43.486   1.208
62353W        W34613  31.204  27.964  11.116
62354W        W34614  12.119  33.925   1.281
62355W        W34615   0.869  38.416  11.945
62356W        W34616  36.186  28.226  11.175
62357W        W34617   9.177   9.819   3.248
62358W        W34618  32.634  31.282   2.283
62359W        W34619   3.660  24.184   2.958
62360W        W34620  25.954   4.222   2.353
62361W        W34621  38.972   0.369  14.767
62362W        W34622  28.084  16.266   0.811
62363W        W34623  39.948  28.649   1.158
62364W        W34624  18.026  12.293   4.952
62365W        W34625  42.896  25.446   3.792
62366W        W34626  24.509  40.205  12.316
62367W        W34627  44.384  31.493  12.471
62368W        W34628  33.343  41.968   2.560
62369W        W34629   0.308  32.785   1.884
62370W        W34630  10.240  36.164  12.535
62371W        W34631  22.993  18.259   9.775
62372W        W34632  16.099  14.816  13.026
62373W        W34633   6.173  44.712  11.500
62374W        W34634  19.983  16.576  10.721
62375W        W34635  18.171  42.485  10.884
62376W        W34636  10.330  31.845  13.941
62377W        W34637  14.752  22.237  11.110
62378W        W34638  27.194  14.812   3.198
62379W        W34639  32.607  33.897  12.235
62380W        W34640  40.356   4.281  12.995
62381W        W34641   7.732  29.221  13.253
62382W        W34642  15.018   3.494   0.705
62383W        W34643  26.744  35.972  14.108
62384W        W34644  11.904  21.143  10.557
62385W        W34645   4.420  29.345  11.491
62386W        W34646  14.741  30.698  10.788
62387W        W34647  34.880  20.186   1.686
62388W        W34648  28.238  25.106  10.252
62389W        W34649  34.053  20.434  11.513
62390W        W34650   1.979  35.109  11.917
62391W        W34651  40.949   9.710   3.474
62392W        W34652  14.406  14.926  11.042
62393W        W34653   5.287  37.985   0.957
62394W        W34654  29.920  14.599  14.025
62395W        W34655  37.996  42.911   1.515
62396W        W34656  31.559  44.316  13.812
62397W        W34657  44.068  34.911  12.346
62398W        W34658   8.676  29.449  12.095
62399W        W34659   9.351  26.078  14.349
62400W        W34660  35.073   8.470  12.894
62401W        W34661  34.456  32.898  13.416
62402W        W34662  26.674  22.670  11.032
62403W        W34663  33.266  34.913   3.340
62404W        W34664  29.918  29.892   4.671
62405W        W34665  39.811  18.276   4.136
62406W        W34666  14.135  20.070  13.905
62407W        W34667  20.154  40.180  12.510
62408W        W34668  39.432  10.863  11.457
62409W        W34669  26.265  30.108   4.458
62410W        W34670  35.805   2.231   2.386
62411W        W34671  36.559  16.561   1.705
62412W        W34672   6.702  43.867   0.343
62413W        W34673   5.137  44.436   1.339
62414W        W34674  35.941   8.132   4.524
62415W        W34675  38.899   7.842   1.713
62416W        W34676   2.951  30.379  13.403
62417W        W34677  13.098   7.512   1.691
62418W        W34678   7.637   6.918   0.314
62419W        W34679  24.874  21.689  13.234
62420W        W34680  27.288  25.329  11.139
62421W        W34681  20.944   6.444   1.894
62422W        W34682  35.608   5.683  13.739
62423W        W34683   8.782  28.835  12.156
62424W        W34684   6.962  31.119   4.057
62425W        W34685  22.121  41.890  12.940
62426W        W34686  27.538   4.847  10.637
62427W        W34687  19.278  19.581   0.335
62428W        W34688  18.507   2.663  14.321
62429W        W34689  43.584  20.784  12.956
62430W        W34690  24.070  17.188   4.546
62431W        W34691  37.289   3.963   3.294
62432W        W34692  39.268  10.726  13.784
62433W        W34693   7.272  18.184  11.048
62434W        W34694  29.615  11.758   5.328
62435W        W34695  35.890  27.112  12.878
62436W        W34696  22.596   5.358  11.558
62437W        W34697  16.536  28.585   1.251
62438W        W34698  16.087   4.436   0.803
62439W        W34699  32.616  26.194  11.154
62440W        W34700  34.812  44.830   1.343
62441W        W34701   2.290   7.964  10.577
62442W        W34702  40.351  15.980  13.748
62443W        W34703  30.033  18.831   2.365
62444W        W34704  12.776  37.506   0.590
62445W        W34705  39.226  19.506   3.718
62446W        W34706  13.536  17.578   4.161
62447W        W34707   4.706   4.818   1.410
62448W        W34708  35.106  32.106   1.402
62449W        W34709  25.005  19.282   3.960
62450W        W34710  13.273  35.486   1.001
62451W        W34711  10.292   3.228  13.263
62452W        W34712  14.110  26.500  10.575
62453W        W34713  30.184  12.441   1.783
62454W        W34714  24.481  39.307  12.061
62455W        W34715  17.821  25.540   1.149
62456W        W34716  37.569  14.061   2.717
62457W        W34717  29.956   1.318  11.268
62458W        W34718  35.403  19.824   1.095
62459W        W34719   1.257  18.462  12.352
62460W        W34720   4.295  44.555  12.128
62461W        W34721   9.131  10.821   0.651
62462W        W34722  17.521  11.889   3.581
62463W        W34723   8.733  20.659  11.545
62464W        W34724   6.380  37.192   0.412
62465W        W34725  21.725  18.379   1.714
62466W        W34726  31.886  36.481  11.927
62467W        W34727  17.629   7.232  12.880
62468W        W34728  24.052  36.419   2.819
62469W        W34729   8.214  22.869   3.237
62470W        W34730   0.418  28.198   3.786
62471W        W34731  27.829   4.977  11.037
62472W        W34732  32.605  16.099   3.211
62473W        W34733   0.517   3.595  13.769
62474W        W34734   9.824  23.404  13.529
62475W        W34735  21.462  27.464   0.764
62476W        W34736  32.599  31.138  10.617
62477W        W34737   6.379  37.580   4.574
62478W        W34738  44.743  29.193   2.328
62479W        W34739  40.273  10.791  13.572
62480W        W34740  17.016   3.184  14.801
62481W        W34741   2.150  11.692   0.990
62482W        W34742  24.458   8.752  11.952
62483W        W34743  31.556  15.793  13.759
62484W        W34744   5.743   6.638   3.652
62485W        W34745   4.510  23.975   3.178
62486W        W34746  39.939   0.522   1.882
62487W        W34747  14.124  34.916   2.742
62488W        W34748  33.002  21.171  11.538
62489W        W34749  23.243  33.514   0.832
62490W        W34750  19.068  10.833  12.465
62491W        W34751  24.704  30.216   3.313
62492W        W34752  32.064  11.811   5.125
62493W        W34753   7.645  32.641  10.792
62494W        W34754  12.802   4.282   4.244
62495W        W34755  34.488  34.304   4.516
62496W        W34756  27.297  11.169   3.246
62497W        W34757  28.143   4.921   0.750
62498W        W34758  29.863  28.461   1.334
62499W        W34759  11.876  28.779   5.452
62500W        W34760   6.924  23.479  11.596
62501W        W34761   1.276  41.608   1.471
62502W        W34762  18.828  24.970  11.591
62503W        W34763  11.918   2.419  11.341
62504W        W34764  42.734  30.142  14.333
62505W        W34765  18.281  29.861   3.661
62506W        W34766  14.371  18.180  11.804
62507W        W34767  35.045  33.533   2.713
62508W        W34768  21.857  43.305  11.647
62509W        W34769   0.603  15.650  12.516
62510W        W34770  18.705  23.135   4.413
62511W        W34771  26.491  39.603   4.085
62512W        W34772  27.454   1.340  13.981
62513W        W34773  39.483  15.588  11.583
62514W        W34774   4.178  19.516   0.286
62515W        W34775  19.175   9.090   3.781
62516W        W34776  29.000  31.467  14.637
62517W        W34777   1.249  33.205   1.669
62518W        W34778  15.480  15.881  10.666
62519W        W34779  31.419  13.203  11.133
62520W        W34780  26.202  39.064   4.959
62521W        W34781  10.653  42.894  11.240
62522W        W34782  40.064  26.238   0.432
62523W        W34783   6.775  25.449  12.880
62524W        W34784  36.082   2.938  11.653
62525W        W34785  14.603  37.610  14.348
62526W        W34786  15.620  39.277  12.476
62527W        W34787  20.564  11.167   1.499
62528W        W34788  15.381  43.537  13.377
62529W        W34789  20.314  22.953  11.047
62530W        W34790  41.029  15.332   2.163
62531W        W34791  14.341  40.931   1.737
62532W        W34792   0.787  34.627   4.571
62533W        W34793  30.440   9.100   0.514
62534W        W34794  43.128  27.999  11.543
62535W        W34795  40.326  16.206  10.570
62536W        W34796   6.871   9.111  13.885
62537W        W34797  34.965   6.881  13.931
62538W        W34798  18.523  44.274  13.752
62539W        W34799  12.100  42.848  11.379
62540W        W34800  29.357   7.874  13.274
62541W        W34801   0.256   1.541  10.647
62542W        W34802   6.251  10.807   0.504
62543W        W34803   8.914  12.924   3.782
62544W        W34804  33.926  39.048   3.266
62545W        W34805  12.758  17.843  14.430
62546W        W34806   8.744  40.220   3.712
62547W        W34807  33.502   3.279   2.150
62548W        W34808  41.281  15.681   1.441
62549W        W34809  32.085   7.032   2.977
62550W        W34810   8.519  13.227   3.670
62551W        W34811   1.939  13.342  11.134
62552W        W34812  43.628   3.227  13.970
62553W        W34813  14.603  12.694   4.590
62554W        W34814   3.488   9.393  14.490
62555W        W34815  28.728  10.896  13.538
62556W        W34816  41.714  36.071  10.818
62557W        W34817  15.812   0.782   4.101
62558W        W34818  41.120   5.318   0.290
62559W        W34819  19.971  21.597   0.630
62560W        W34820  37.803  17.659  11.577
62561W        W34821  44.339  24.670   0.387
62562W        W34822  14.728   2.914  11.184
62563W        W34823  14.332  34.374   0.592
62564W        W34824   2.188  44.047   1.843
62565W        W34825   7.869  39.006  14.921
62566W        W34826  42.458   2.457   0.441
62567W        W34827  17.105  21.259   3.167
62568W        W34828  23.277  17.544   0.469
62569W        W34829   3.643   9.921   2.805
62570W        W34830   2.993  29.607   4.761
62571W        W34831  13.253  25.316  11.254
62572W        W34832  13.925  27.394   5.115
62573W        W34833  44.529  18.651   1.438
62574W        W34834  27.207  31.486   0.200
62575W        W34835  34.917  40.481   2.864
62576W        W34836  31.134   2.305   1.697
62577W        W34837  17.093  34.600   0.950
62578W        W34838  28.042  37.846  13.858
62579W        W34839  26.103   6.681  14.141
62580W        W34840  32.216   7.775   0.675
62581W        W34841  14.151  35.715   0.349
62582W        W34842  17.827   7.197   0.326
62583W        W34843   4.315  22.619   3.300
62584W        W34844  35.140  41.584   3.650
62585W        W34845  11.874  37.956   1.228
62586W        W34846  40.788  18.102   1.916
62587W        W34847  34.913  25.841  10.709
62588W        W34848   1.208  36.244  11.139
62589W        W34849   9.215   6.187   3.050
62590W        W34850   9.524  32.695  14.823
62591W        W34851   3.194  19.172   1.905
62592W        W34852  39.317  16.258  11.147
62593W        W34853  32.977  33.906  13.049
62594W        W34854  16.894  18.828  14.106
62595W        W34855   0.335  12.831  13.971
62596W        W34856  22.775  43.738   3.762
62597W        W34857   2.214   3.888   1.385
62598W        W34858   6.447  17.329  14.409
62599W        W34859  11.045  19.805  14.811
62600W        W34860  27.666  39.351   1.715
62601W        W34861  43.682  12.981  14.716
62602W        W34862  11.441   7.908   1.798
62603W        W34863  21.277  19.765   1.832
62604W        W34864  18.300  14.776   2.326
62605W        W34865  31.389  16.629   4.316
62606W        W34866  25.072  28.387  12.339
62607W        W34867  43.977  41.311   0.361
62608W        W34868  17.583   0.249   1.667
62609W        W34869   6.943  25.038  11.066
62610W        W34870  26.674   7.454  12.633
62611W        W34871  37.555  13.421  10.991
62612W        W34872   6.141  37.081   2.305
62613W        W34873  24.668  16.624  12.710
62614W        W34874  17.668  34.969  12.887
62615W        W34875   4.776  34.631  12.648
62616W        W34876   4.139  35.144  13.985
62617W        W34877  26.107   7.751  13.286
62618W        W34878  16.911  44.734  11.193
62619W        W34879  23.935  10.550  12.477
62620W        W34880  21.039  33.425  11.803
62621W        W34881  19.161  15.219   0.755
62622W        W34882  23.320  31.442  11.544
62623W        W34883   3.493  15.327   2.442
62624W        W34884  35.550  16.541   4.382
62625W        W34885  28.453  43.292  12.653
62626W        W34886  34.257  23.537  13.026
62627W        W34887  32.500  29.097  13.956
62628W        W34888  33.890  39.079  11.943
62629W        W34889  40.334  24.119  12.897
62630W        W34890  29.163  39.615  10.870
62631W        W34891  15.595   1.383  10.635
62632W        W34892  31.215   7.422  12.378
62633W        W34893  18.630  33.166  14.342
62634W        W34894  19.364   5.340  13.434
62635W        W34895   1.874  18.142   3.217
62636W        W34896  22.674  38.020   0.328
62637W        W34897   4.389   4.721   1.842
62638W        W34898   6.001  14.688   3.670
62639W        W34899   0.979   6.812   2.359
62640W        W34900  28.419  44.947   2.242
62641W        W34901  19.181  26.513   3.823
62642W        W34902   5.847  20.574   0.898
62643W        W34903  44.216  39.065   4.433
62644W        W34904   5.716  35.419   1.339
62645W        W34905  28.726   5.303   1.160
62646W        W34906  24.573  28.493   1.428
62647W        W34907  16.133  11.575   2.186
62648W        W34908  20.020  12.266  10.681
62649W        W34909  21.341  23.191   2.820
62650W        W34910   7.927   9.918  13.861
62651W        W34911  33.551  33.262  13.180
62652W        W34912  29.954   2.778  11.463
62653W        W34913  30.073  27.921   2.742
62654W        W34914  36.935  12.224   0.480
62655W        W34915   8.760   9.474  11.170
62656W        W34916   1.115   9.821  13.984
62657W        W34917  21.918  31.964  12.377
62658W        W34918  26.228  11.304  13.758
62659W        W34919  19.709  34.114   1.704
62660W        W34920  29.448  35.809  12.487
62661W        W34921   3.298  27.584  14.511
62662W        W34922   8.212  19.130   3.407
62663W        W34923  26.372   3.396   0.797
62664W        W34924  39.319   0.095  13.627
62665W        W34925  36.715  24.954  11.588
62666W        W34926  22.153   5.697   1.238
62667W        W34927   7.934  44.578   0.496
62668W        W34928   4.911  37.455  10.573
62669W        W34929  10.634   0.908  13.290
62670W        W34930  34.951  24.685  13.283
62671W        W34931  35.050  19.079   1.734
62672W        W34932  18.149   8.754   3.600
62673W        W34933  44.409  38.066   4.466
62674W        W34934   4.197   7.246   2.776
62675W        W34935  27.964   7.289  10.054
62676W        W34936   8.136  15.680  13.428
62677W        W34937  20.738  28.123  14.983
62678W        W34938  25.467  40.126  10.136
62679W        W34939  23.981  26.711   2.229
62680W        W34940  23.030   3.723  14.420
62681W        W34941  35.098   9.937   0.842
62682W        W34942   3.272  20.714   5.006
62683W        W34943  14.964   9.432  12.672
62684W        W34944  40.432  27.176   1.688
62685W        W34945  44.749  37.016  10.473
62686W        W34946  10.799  43.068   2.739
62687W        W34947  19.320  24.430   4.460
62688W        W34948  13.303  15.365   9.653
62689W        W34949  20.609  32.827   4.432
62690W        W34950   7.400  36.591   2.211
62691W        W34951  27.388  12.565   2.780
62692W        W34952  20.711  19.640  14.443
62693W        W34953  35.736   1.015   4.194
62694W        W34954   8.920   8.212   0.755
62695W        W34955  26.640  40.213   3.291
62696W        W34956  25.204  16.644  14.043
62697W        W34957  37.406   0.453   1.898
62698W        W34958   9.917  30.147  14.464
62699W        W34959   9.112   7.010  10.099
62700W        W34960  44.896  13.079  13.863
62701W        W34961  12.763  41.822  13.159
62702W        W34962   4.457  31.006   3.815
62703W        W34963   7.487   4.458   4.081
62704W        W34964  15.252   6.350  13.563
62705W        W34965  34.028  34.209  12.389
62706W        W34966  42.749  10.666   1.132
62707W        W34967  21.444  19.693   3.251
62708W        W34968  44.174  13.194   9.827
62709W        W34969  30.351   6.793   2.332
62710W        W34970   3.307  41.241  13.671
62711W        W34971   5.632  41.004  13.844
62712W        W34972  26.128   8.119   2.663
62713W        W34973  37.058  31.184  11.707
62714W        W34974  38.933  14.329   4.290
62715W        W34975  13.745  37.834   3.414
62716W        W34976  20.724   0.864  12.842
62717W        W34977  27.126  10.656   0.876
62718W        W34978  35.845  31.012   0.847
62719W        W34979  28.462  42.248  12.413
62720W        W34980  16.829   5.817   5.452
62721W        W34981  36.279  27.704  14.402
62722W        W34982  37.644  25.210  11.638
62723W        W34983  29.887   7.678  13.997
62724W        W34984  44.231  37.888   2.772
62725W        W34985  25.053  39.252   1.259
62726W        W34986  12.350  27.884   1.378
62727W        W34987   6.004  43.480   2.761
62728W        W34988   5.794  41.807  13.342
62729W        W34989   5.116   2.731  11.503
62730W        W34990  25.290   4.913  11.553
62731W        W34991  31.711  37.357  13.543
62732W        W34992  41.435  29.183   2.272
62733W        W34993  31.608  32.634  11.983
62734W        W34994  29.702  14.112  14.900
62735W        W34995  29.908  13.822   4.608
62736W        W34996  28.628   2.304   4.754
62737W        W34997  15.211  29.500   9.600
62738W        W34998  31.240  36.574   1.472
62739W        W34999   7.287  35.594   0.513
62740W        W35000   6.149  30.385  10.618
62741W        W35001  25.694  10.054   4.176
62742W        W35002  24.121  37.309  13.364
62743W        W35003   4.233  19.718   1.238
62744W        W35004   3.529  27.610  14.984
62745W        W35005  37.055  25.636   2.343
62746W        W35006   0.875  11.719   3.657
62747W        W35007  14.693  17.006  10.643
62748W        W35008  23.509  13.596   2.960
62749W        W35009  24.269  26.394   9.791
62750W        W35010  21.618  10.958  11.131
62751W        W35011  39.088  37.049   2.766
62752W        W35012   1.499  35.296   0.350
62753W        W35013  38.494  31.892   3.173
62754W        W35014   9.417  22.486   2.082
62755W        W35015  17.085  42.994  11.741
62756W        W35016  18.755  42.951   3.422
62757W        W35017   9.627  12.712  11.633
62758W        W35018   0.753  43.980   2.695
62759W        W35019  17.029  41.823  13.462
62760W        W35020  32.090  41.089  10.664
62761W        W35021   0.740   7.982   1.438
62762W        W35022   6.764  31.557   3.849
62763W        W35023  20.003  14.684  12.435
62764W        W35024  10.259   6.805   2.887
62765W        W35025  39.731   5.021   1.708
62766W        W35026  29.418  14.347   1.870
62767W        W35027  16.174  39.420   3.116
62768W        W35028  38.852  39.816  12.930
62769W        W35029  13.784   6.757   2.773
62770W        W35030  27.320   5.236  12.586
62771W        W35031  21.278   0.787   1.286
62772W        W35032   8.015   3.733   0.220
62773W        W35033  20.273  30.567  11.500
62774W        W35034  29.372   8.419  13.290
62775W        W35035  15.148  35.456   0.210
62776W        W35036   7.757   5.407  11.663
62777W        W35037  43.898  14.615  11.864
62778W        W35038  24.728  33.956   1.483
62779W        W35039   6.425  41.022   1.289
62780W        W35040  23.233  32.847   3.312
62781W        W35041  31.071  30.425   5.496
62782W        W35042  43.396  11.530   3.413
62783W        W35043  23.202  20.097   0.406
62784W        W35044  13.033  17.964  14.880
62785W        W35045  17.269   2.784   3.601
62786W        W35046  31.666  15.584   4.557
62787W        W35047  23.766  30.477   0.164
62788W        W35048  43.100   7.847  12.980
62789W        W35049  34.142  30.030   0.777
62790W        W35050  33.384   3.383   2.657
62791W        W35051   6.753  15.227   2.156
62792W        W35052  18.203   1.973  12.509
62793W        W35053  36.390  43.327   1.067
62794W        W35054  14.239  27.328   1.879
62795W        W35055  32.435  23.032  11.717
62796W        W35056  43.423  30.665   0.848
62797W        W35057  29.901  33.896  12.211
62798W        W35058  31.589   1.889   3.174
62799W        W35059  23.557  41.553   1.391
62800W        W35060   2.208  21.077  13.726
62801W        W35061  33.092  31.758   2.676
62802W        W35062  20.963  17.605   4.734
62803W        W35063  30.580  29.603  13.302
62804W        W35064  25.222  24.966   0.749
62805W        W35065  17.569  22.031   3.363
62806W        W35066   5.332  16.434  11.174
62807W        W35067  22.251  21.691  10.632
62808W        W35068   6.284  18.446   2.291
62809W        W35069   3.387   1.433  11.291
62810W        W35070  34.501  14.240   0.326
62811W        W35071  36.365  27.343   4.045
62812W        W35072  41.427  17.650   4.116
62813W        W35073  10.792  36.160  11.266
62814W        W35074  43.457   4.888   1.213
62815W        W35075  19.951   8.603  13.689
62816W        W35076  17.741  13.382  13.100
62817W        W35077   9.635  34.597  11.088
62818W        W35078   2.788  16.660  14.430
62819W        W35079  29.846  16.717   1.933
62820W        W35080  43.240  44.668   3.610
62821W        W35081  27.117   0.298   3.123
62822W        W35082  14.137  34.480   0.117
62823W        W35083  35.587   4.476   1.444
62824W        W35084  22.707  41.704   3.377
62825W        W35085   3.314   2.746   2.855
62826W        W35086  39.964  31.517   1.795
62827W        W35087   0.885  17.661   0.441
62828W        W35088   8.607   1.405   3.795
62829W        W35089  35.936  41.031   1.903
62830W        W35090  19.012  17.665  13.051
62831W        W35091  39.742   0.504  14.378
62832W        W35092   9.804  35.799   3.402
62833W        W35093   5.897  23.262   2.188
62834W        W35094  41.474  32.932   0.089
62835W        W35095   8.853  27.059   1.135
62836W        W35096  43.759  26.531  14.319
62837W        W35097  12.859   4.317   1.217
62838W        W35098   9.908  36.345   1.292
62839W        W35099  25.638  10.581  11.908
62840W        W35100  21.565  37.785   5.126
62841W        W35101   8.637  31.267   4.650
62842W        W35102  18.811  24.500  11.763
62843W        W35103  33.001   1.720   0.005
62844W        W35104  43.409  35.631  12.386
62845W        W35105   2.966  44.228   4.153
62846W        W35106  43.782  14.711   1.648
62847W        W35107  15.166  26.141   4.423
62848W        W35108   0.996   4.896  11.097
62849W        W35109  38.387  18.078  14.614
62850W        W35110  38.659  29.917   2.852
62851W        W35111  41.805   8.247  11.520
62852W        W35112  18.708  44.573   1.880
62853W        W35113  16.587  30.797  13.787
62854W        W35114   0.773   9.876   2.797
62855W        W35115  34.001  38.855   2.760
62856W        W35116  28.043  14.964  11.224
62857W        W35117   4.782  27.992   0.589
62858W        W35118  41.044  18.814  12.998
62859W        W35119  28.263  25.336  11.165
62860W        W35120  23.063   7.226  13.132
62861W        W35121  26.739  32.262  12.480
62862W        W35122  19.835   9.733   0.898
62863W        W35123  14.707  24.129  14.002
62864W        W35124  12.628  32.179   2.829
62865W        W35125  27.990  36.400  14.834
62866W        W35126  30.271  41.333   2.380
62867W        W35127  18.366  32.445  10.989
62868W        W35128  19.822  15.169  11.534
62869W        W35129  18.567  34.099  11.633
62870W        W35130  18.977  41.843  13.425
62871W        W35131  22.684  41.710  11.245
62872W        W35132  11.766  40.560  11.540
62873W        W35133  24.664  27.502   2.444
62874W        W35134  11.650   3.844  10.648
62875W        W35135  34.166  15.574   9.938
62876W        W35136  36.997  31.511   1.408
62877W        W35137   5.269  32.515   1.911
62878W        W35138  14.695   5.653   1.698
62879W        W35139  13.733   0.840  12.985
62880W        W35140  11.385  31.973   1.567
62881W        W35141  33.543  27.473   1.401
62882W        W35142  10.904  31.365  11.594
62883W        W35143  24.148  30.457   3.082
62884W        W35144   0.925  12.356  14.447
62885W        W35145   0.751  11.673  13.830
62886W        W35146   0.309   9.727  13.191
62887W        W35147   8.200  21.022   4.512
62888W        W35148   6.250  18.591  12.025
62889W        W35149  40.466  34.504   2.622
62890W        W35150   5.316  30.181   5.073
62891W        W35151  29.874  42.952   3.890
62892W        W35152  34.483   3.390   3.123
62893W        W35153  40.467  30.127  14.814
62894W        W35154  16.558  12.622   3.722
62895W        W35155  14.151  40.588   0.821
62896W        W35156  21.653  39.530  13.466
62897W        W35157  16.645  36.954   4.081
62898W        W35158  15.316  32.413   4.248
62899W        W35159  43.499  14.547  12.402
62900W        W35160  33.925  36.976   4.810
62901W        W35161  35.487  40.252   3.623
62902W        W35162   3.290  21.224  12.189
62903W        W35163   1.248  30.931  11.575
62904W        W35164  37.321  33.688  14.704
62905W        W35165  22.046  16.999  12.031
62906W        W35166  34.217  20.982   0.762
62907W        W35167  44.303  40.918  11.032
62908W        W35168  28.565  22.940  11.123
62909W        W35169  43.685  42.957   1.280
62910W        W35170  44.550  14.828  12.464
62911W        W35171  10.188  31.485   1.349
62912W        W35172  18.453  42.111  11.129
62913W        W35173  19.835  18.685   2.658
62914W        W35174  27.838  16.487   2.248
62915W        W35175  20.817   9.333   4.661
62916W        W35176  42.408  21.622   3.038
62917W        W35177  28.709  38.004   1.765
62918W        W35178  21.060  38.826  14.355
62919W        W35179  24.065  26.995   0.917
62920W        W35180  39.416  24.107   1.631
62921W        W35181  40.766  19.776   2.399
62922W        W35182  26.727   2.705  10.704
62923W        W35183  37.061   7.356  14.007
62924W        W35184  27.193  31.913  14.915
62925W        W35185  15.745   8.172   1.883
62926W        W35186  16.144  19.087  14.609
62927W        W35187   1.927  35.891   0.942
62928W        W35188  40.743  33.057  14.797
62929W        W35189  40.685   6.693  14.303
62930W        W35190  26.366  30.985   2.233
62931W        W35191  37.799  32.657  11.568
62932W        W35192  39.660  37.896   3.841
62933W        W35193  29.437  26.861   4.586
62934W        W35194  32.317   4.700  13.435
62935W        W35195  17.127   7.713   2.862
62936W        W35196  21.333  43.416  13.495
62937W        W35197   3.637  24.100   0.625
62938W        W35198  31.978  36.928  13.413
62939W        W35199   5.868  19.200   2.147
62940W        W35200  12.703  18.311  14.657
62941W        W35201  25.247  24.034   1.008
62942W        W35202   7.026  26.757   4.329
62943W        W35203  25.710  12.950   3.679
62944W        W35204   2.379  22.616   2.988
62945W        W35205  36.407  25.431   0.469
62946W        W35206  22.900  30.225  11.144
62947W        W35207  44.215  31.995   0.909
62948W        W35208  15.133   1.251  14.332
62949W        W35209  33.567   7.348  12.478
62950W        W35210  44.901  22.731  12.869
62951W        W35211   2.864   1.030   3.381
62952W        W35212  40.519  30.008  11.371
62953W        W35213  35.046  19.481  11.501
62954W        W35214  18.824  31.610  14.411
62955W        W35215  22.474  36.777   2.385
62956W        W35216   6.647   9.329  12.902
62957W        W35217  43.669  35.879  11.726
62958W        W35218  16.615  32.442   2.422
62959W        W35219   4.487   3.330   1.186
62960W        W35220  36.983  22.226  12.425
62961W        W35221  12.353  14.723   2.305
62962W        W35222  11.248  29.307  13.016
62963W        W35223  21.665   5.703  12.589
62964W        W35224  23.643   3.499  10.395
62965W        W35225   8.686  13.511  14.987
62966W        W35226  22.006  22.195  13.825
62967W        W35227  36.140   2.760   3.627
62968W        W35228  23.039  29.652  14.767
62969W        W35229  34.127   9.655  13.863
62970W        W35230  41.792  25.635  11.997
62971W        W35231   7.431  42.298   3.611
62972W        W35232   0.961  36.400  14.812
62973W        W35233  10.885  34.862  13.027
62974W        W35234  29.186  33.663  12.825
62975W        W35235  12.151  44.411  10.403
62976W        W35236  28.288  36.495   1.215
62977W        W35237  11.892  24.670  14.559
62978W        W35238  19.625   9.856  12.883
62979W        W35239  16.632  43.876  10.901
62980W        W35240  13.791  17.593  11.601
62981W        W35241  39.442  37.638   1.833
62982W        W35242  25.076  37.113   1.462
62983W        W35243  34.938  10.296  11.769
62984W        W35244  31.584  16.337  11.083
62985W        W35245  20.880  10.872  11.816
62986W        W35246  34.855  13.100  12.329
62987W        W35247  19.339  31.529  11.492
62988W        W35248  13.816  15.703  10.768
62989W        W35249  41.085  38.331   1.775
62990W        W35250  10.950  27.236  13.952
62991W        W35251   8.373  28.526  11.962
62992W        W35252  35.602   5.519   4.524
62993W        W35253  10.265  28.251   0.452
62994W        W35254  37.408   1.372  12.739
62995W        W35255  12.431  21.317   1.818
62996W        W35256  32.863  19.539  10.029
62997W        W35257  12.713  34.364   0.432
62998W        W35258   1.753  33.618  14.461
62999W        W35259  31.936   3.857  14.851
63000W        W35260  18.299  38.386   1.714
63001W        W35261  30.387   2.125   1.894
63002W        W35262  28.393  13.847   2.248
63003W        W35263  13.594  27.717  14.238
63004W        W35264  37.543  29.896   2.796
63005W        W35265   4.030  43.418  12.028
63006W        W35266  32.891   6.186  12.886
63007W        W35267  26.063   1.984   0.819
63008W        W35268  29.952  28.990  14.792
63009W        W35269   3.675  44.467  13.724
63010W        W35270   9.621  20.982  13.753
63011W        W35271  14.049   9.697  14.724
63012W        W35272  20.059  38.999  14.617
63013W        W35273  26.699  12.312   3.275
63014W        W35274  15.572  19.410   5.444
63015W        W35275  38.895  40.208   1.282
63016W        W35276   4.210  19.713   2.786
63017W        W35277  22.432  37.402  11.126
63018W        W35278  10.542  21.479  11.997
63019W        W35279  35.452  25.427   4.583
63020W        W35280  44.536  10.727  11.617
63021W        W35281  10.716  44.782  13.744
63022W        W35282  26.463  18.128  12.384
63023W        W35283  17.183  35.344   2.162
63024W        W35284   3.289  24.755  14.955
63025W        W35285   2.863  43.475  13.911
63026W        W35286  39.856  20.154   3.304
63027W        W35287   3.222   9.647  11.128
63028W        W35288  13.108   4.886  13.409
63029W        W35289  20.525  38.742  12.056
63030W        W35290  23.928  26.179   0.363
63031W        W35291  21.961  40.383  12.985
63032W        W35292  40.308  21.098   1.182
63033W        W35293  10.408  14.515   4.541
63034W        W35294  34.423  41.448   4.408
63035W        W35295   2.337   2.081  10.164
63036W        W35296  35.073  20.601  14.410
63037W        W35297   7.120  18.971   1.340
63038W        W35298  13.649   3.446  12.935
63039W        W35299   8.294  26.446  10.901
63040W        W35300  42.632  42.646  11.112
63041W        W35301  38.990   1.109  12.193
63042W        W35302  31.725  32.244  11.645
63043W        W35303  23.599   1.022  10.464
63044W        W35304  16.232  39.458   4.594
63045W        W35305  41.902  14.558  14.793
63046W        W35306  43.298   6.090   2.575
63047W        W35307  31.975   5.814  13.052
63048W        W35308  13.083  37.503   2.993
63049W        W35309  29.434   9.733   1.305
63050W        W35310  36.985  32.113   3.618
63051W        W35311  33.308  16.540   2.367
63052W        W35312  35.624  27.768   0.328
63053W        W35313   8.869   8.749  11.663
63054W        W35314  10.641   8.983   5.016
63055W        W35315  40.136  30.895   0.909
63056W        W35316  24.822  17.566   3.867
63057W        W35317  15.004  13.270  12.847
63058W        W35318  18.600  23.308   0.237
63059W        W35319   7.435   3.985   1.390
63060W        W35320  36.344  24.873  10.834
63061W        W35321  15.237  34.252  12.214
63062W        W35322   8.861   9.418  13.847
63063W        W35323   8.693   8.661   0.854
63064W        W35324  14.212  39.037   2.148
63065W        W35325  25.500  39.052   0.228
63066W        W35326  36.796  29.593   3.239
63067W        W35327  19.771  43.612  11.725
63068W        W35328  13.244  37.590   5.069
63069W        W35329  40.461   9.951  14.219
63070W        W35330  17.691  11.198  14.982
63071W        W35331   9.100  20.040   3.338
63072W        W35332  15.154  38.910  13.471
63073W        W35333  13.942  38.519   3.737
63074W        W35334  11.909  36.854  10.602
63075W        W35335  25.361   9.666   4.018
63076W        W35336  34.353  29.654   0.335
63077W        W35337   3.441  15.688  11.419
63078W        W35338   0.376  11.455   3.882
63079W        W35339  35.985  43.388  14.109
63080W        W35340  44.178  33.702  11.487
63081W        W35341  44.656  22.054  14.025
63082W        W35342  12.768  32.522  13.795
63083W        W35343  37.545  43.916  12.522
63084W        W35344  33.058  29.371   1.512
63085W        W35345  10.860  34.284   4.669
63086W        W35346  20.846  32.200  10.263
63087W        W35347  36.807   2.160  11.179
63088W        W35348  25.115   2.366  12.625
63089W        W35349   4.643  21.085   0.950
63090W        W35350  18.999  16.646  10.487
63091W        W35351  13.909  23.591   3.290
63092W        W35352  31.475  32.452  12.479
63093W        W35353  22.228   1.761  10.400
63094W        W35354  13.207   8.321   0.526
63095W        W35355  38.133   8.344   2.463
63096W        W35356   0.354  38.788   2.768
63097W        W35357  35.773  31.542  14.971
63098W        W35358   4.679   7.989   1.211
63099W        W35359  29.401   7.513  12.644
63100W        W35360  39.737  40.525   2.852
63101W        W35361  44.400  30.109   3.747
63102W        W35362   5.166  13.208  12.886
63103W        W35363  18.654  12.556   2.591
63104W        W35364   7.191  26.462   2.891
63105W        W35365  39.574   9.641  10.213
63106W        W35366  38.083   7.400  13.728
63107W        W35367  30.944  28.573   4.625
63108W        W35368   2.285  30.482  12.813
63109W        W35369  41.927  33.660  11.558
63110W        W35370  24.220  39.115   2.388
63111W        W35371  21.065  11.689  11.922
63112W        W35372   4.926   3.858  10.840
63113W        W35373  13.597  37.271   0.817
63114W        W35374  37.537  10.169  13.328
63115W        W35375  21.116   7.755  11.222
63116W        W35376  19.589  24.829   2.456
63117W        W35377  10.938  14.593  11.640
63118W        W35378  20.257  35.856  14.594
63119W        W35379  34.787  15.216   2.180
63120W        W35380  23.051  27.523   4.383
63121W        W35381  30.382  11.768  13.526
63122W        W35382   1.836  12.293   3.617
63123W        W35383   0.941   5.896  13.091
63124W        W35384  19.701  25.527  11.598
63125W        W35385  36.879  41.527  10.971
63126W        W35386  34.105   1.704  12.545
63127W        W35387  39.809  20.168  11.069
63128W        W35388  23.266  10.930   1.341
63129W        W35389   0.363  22.593   2.171
63130W        W35390  23.136  12.886   3.670
63131W        W35391  23.486  17.868  14.083
63132W        W35392  16.170  42.974  10.767
63133W        W35393  23.696  14.797   1.922
63134W        W35394   6.859  11.232   1.053
63135W        W35395  22.615   9.624  10.113
63136W        W35396   6.800  26.897   3.891
63137W        W35397  40.806  12.648  11.947
63138W        W35398  31.601   8.326   3.339
63139W        W35399  18.332  34.460   1.775
63140W        W35400  28.668   0.375  12.552
63141W        W35401  34.448  44.854   2.780
63142W        W35402  31.475  19.261  12.889
63143W        W35403  34.432  16.588  14.399
63144W        W35404  33.559  16.717  12.065
63145W        W35405  15.884  24.119  11.674
63146W        W35406  41.354  17.508   0.847
63147W        W35407   3.093   8.626   4.081
63148W        W35408  25.444  10.758  12.390
63149W        W35409   4.567  30.967  13.056
63150W        W35410  16.834  40.793   2.700
63151W        W35411  15.702  23.000   3.027
63152W        W35412  40.537  24.148   3.669
63153W        W35413  44.030   3.999   1.512
63154W        W35414  16.062  44.663   0.027
63155W        W35415  36.031  33.671  12.913
63156W        W35416  31.457  26.119  13.529
63157W        W35417  37.839  38.485   1.681
63158W        W35418  35.092  44.281   3.669
63159W        W35419  30.468   7.692  10.450
63160W        W35420  36.639  11.340   2.226
63161W        W35421  12.162  18.953   2.915
63162W        W35422  16.168   3.017   1.893
63163W        W35423  40.778   9.874  14.721
63164W        W35424  34.863  15.593   1.239
63165W        W35425  23.317  43.879   2.223
63166W        W35426  36.065  29.701  12.663
63167W        W35427  32.680   9.701  11.489
63168W        W35428  34.598   2.792   2.220
63169W        W35429  44.053  42.292   2.325
63170W        W35430  24.061   8.519   2.625
63171W        W35431   5.503  16.649  12.929
63172W        W35432  41.258  26.973  14.516
63173W        W35433  15.143  29.605  12.611
63174W        W35434   3.845  26.116  10.757
63175W        W35435  38.363   5.748  10.573
63176W        W35436  20.839   1.650   0.518
63177W        W35437  14.304  32.382  14.483
63178W        W35438  41.879  29.931   2.525
63179W        W35439  36.801  23.767  14.958
63180W        W35440   6.329  11.557   2.814
63181W        W35441  35.792  31.973   1.783
63182W        W35442  16.858  43.798  14.466
63183W        W35443  32.932  32.371  14.572
63184W        W35444  29.635   8.192   1.885
63185W        W35445   7.879   5.536  14.056
63186W        W35446  29.646  18.785   1.994
63187W        W35447  12.302  31.360  10.072
63188W        W35448  17.127  16.592  13.042
63189W        W35449  29.796  35.970   4.714
63190W        W35450   0.132  13.438   3.700
63191W        W35451  33.477  27.083  14.483
63192W        W35452   7.795  39.336   4.598
63193W        W35453   7.736   5.180   4.897
63194W        W35454  12.657   9.144  11.104
63195W        W35455  32.011  23.515  13.076
63196W        W35456  17.159  29.636  14.098
63197W        W35457  20.279  24.465   4.202
63198W        W35458  39.551  11.631   2.931
63199W        W35459  18.053  16.655  14.766
63200W        W35460  23.554   1.756  11.070
63201W        W35461  12.405  20.100  12.330
63202W        W35462  19.723  21.217   2.812
63203W        W35463  35.018  15.977  12.899
63204W        W35464  24.044  21.968   1.715
63205W        W35465  11.582  13.728   4.173
63206W        W35466  16.543  44.304  11.197
63207W        W35467  18.125   3.037  10.555
63208W        W35468  15.638  22.634  12.490
63209W        W35469  42.480  13.363  12.840
63210W        W35470   6.426  41.336   2.283
63211W        W35471   8.160  44.691   3.510
63212W        W35472  42.743  29.130   1.758
63213W        W35473  26.609   7.160   2.764
63214W        W35474  30.763  13.687   3.356
63215W        W35475  38.977  39.334   3.013
63216W        W35476  11.721  10.352   2.333
63217W        W35477   2.366  42.376   0.040
63218W        W35478  19.083  23.566  11.236
63219W        W35479  28.526  20.253  14.351
63220W        W35480  43.214  39.704  11.381
63221W        W35481  13.581  34.606   4.143
63222W        W35482  17.763   5.212   4.218
63223W        W35483   5.009  13.726  11.051
63224W        W35484   9.159  22.649   3.568
63225W        W35485  36.998  28.727  11.214
63226W        W35486   7.973   3.000   5.137
63227W        W35487  14.827   5.286  14.784
63228W        W35488  27.242  40.417   1.159
63229W        W35489  29.098   2.177  13.393
63230W        W35490  14.348   6.222   4.463
63231W        W35491  27.007  25.161  12.054
63232W        W35492  44.557   9.375  12.982
63233W        W35493  11.248  41.046   1.163
63234W        W35494  42.994   2.352  11.635
63235W        W35495  10.663   8.639   0.250
63236W        W35496  41.853  27.275   3.369
63237W        W35497  43.450  10.790   0.420
63238W        W35498  25.713  33.833   2.856
63239W        W35499   5.298   7.400   3.338
63240W        W35500  19.792  15.530  14.383
63241W        W35501   5.492  34.002  11.076
63242W        W35502   0.908  21.535   0.318
63243W        W35503  19.458  22.126   0.777
63244W        W35504  44.055  41.568   2.847
63245W        W35505   3.158  13.346  13.374
63246W        W35506   4.463  21.515   4.001
63247W        W35507  41.327  19.347  10.560
63248W        W35508  43.251   6.282  12.614
63249W        W35509   5.416  19.709   1.805
63250W        W35510  21.776   9.686   1.969
63251W        W35511  22.236  14.555  14.118
63252W        W35512  25.579  40.066  13.405
63253W        W35513  43.737  21.643   0.039
63254W        W35514   6.184  22.023   1.282
63255W        W35515  27.633  32.668   9.680
63256W        W35516  20.482  22.172  11.609
63257W        W35517  43.815   7.863   2.115
63258W        W35518  18.536  21.525   3.241
63259W        W35519  23.035  29.709  11.091
63260W        W35520   6.406  32.536  14.936
63261W        W35521   6.823  36.820  12.021
63262W        W35522  34.201  20.717  12.900
63263W        W35523  20.613  25.023  10.384
63264W        W35524  15.057   7.563   3.678
63265W        W35525  44.857  44.839  13.020
63266W        W35526  11.268  29.196   4.592
63267W        W35527  26.056  10.667   2.542
63268W        W35528   2.792  12.369  11.068
63269W        W35529  26.820  13.711   4.824
63270W        W35530  36.274   4.003  13.947
63271W        W35531   4.432  40.020  12.468
63272W        W35532   2.892  36.840   3.292
63273W        W35533  40.809  32.385   3.115
63274W        W35534  32.645  18.161  10.702
63275W        W35535  10.030  29.674   4.182
63276W        W35536  43.335   7.383   0.439
63277W        W35537  13.383  21.104  10.680
63278W        W35538  35.950   1.225  14.964
63279W        W35539   9.358  33.883   4.935
63280W        W35540  35.416  42.426   1.203
63281W        W35541  42.899  20.003   1.037
63282W        W35542   6.708   9.027  14.873
63283W        W35543  28.168  23.760  11.115
63284W        W35544   4.398  35.021   0.336
63285W        W35545   6.412  37.470   2.116
63286W        W35546  37.932  28.004  12.282
63287W        W35547  37.112  43.037   4.153
63288W        W35548  44.476  15.287  12.690
63289W        W35549  33.198   9.566  10.654
63290W        W35550  29.665  13.598  14.031
63291W        W35551  33.503  10.322  12.066
63292W        W35552  43.495  30.465  11.553
63293W        W35553  31.921  12.617   1.191
63294W        W35554  10.200  32.400   4.735
63295W        W35555  24.189  30.188   0.346
63296W        W35556  10.223  42.434   3.589
63297W        W35557  33.837  24.340   3.169
63298W        W35558  28.010   0.207   1.723
63299W        W35559  41.034  24.489  13.139
63300W        W35560   2.866  42.830   1.769
63301W        W35561  36.438  11.875   3.147
63302W        W35562   5.699  41.268  14.284
63303W        W35563  18.180  13.597   3.320
63304W        W35564  42.311  16.255   2.733
63305W        W35565   6.145  21.815  12.029
63306W        W35566  17.309  11.447   0.936
63307W        W35567  28.703  18.090  10.555
63308W        W35568  19.276  31.882  14.507
63309W        W35569  30.155  30.111   4.277
63310W        W35570  22.020   2.148   1.076
63311W        W35571  38.894  41.761  12.828
63312W        W35572  19.728   8.738   3.876
63313W        W35573  31.127  44.463   9.835
63314W        W35574  43.287  21.504  10.635
63315W        W35575  13.726   3.050  12.611
63316W        W35576   5.987  30.525  13.843
63317W        W35577  14.161  43.666   4.518
63318W        W35578   5.259  33.679  13.585
63319W        W35579  27.710   8.245  10.634
63320W        W35580  23.114   6.969   4.151
63321W        W35581  26.395  40.133   4.077
63322W        W35582  39.783  44.509   3.759
63323W        W35583   3.712  41.409  12.358
63324W        W35584  16.121  42.281   1.743
63325W        W35585  11.817  14.313  11.163
63326W        W35586  23.225  13.107   2.941
63327W        W35587  31.601   0.243  11.536
63328W        W35588  18.404  18.936  14.786
63329W        W35589   1.045  36.633  10.813
63330W        W35590   7.223  31.397   1.703
63331W        W35591   7.438  14.038  11.870
63332W        W35592   4.389  44.324  10.639
63333W        W35593  41.526  37.070  14.297
63334W        W35594  16.830  11.171   0.885
63335W        W35595  26.172  39.805  12.038
63336W        W35596  23.193  33.966  10.917
63337W        W35597  35.046   5.859  12.475
63338W        W35598  22.272   9.263   4.912
63339W        W35599  32.908  37.902  14.809
63340W        W35600  17.152  36.067   0.859
63341W        W35601   5.632  24.651   4.571
63342W        W35602  37.265   2.535  13.384
63343W        W35603  11.330  18.486   2.164
63344W        W35604   5.649  24.220   0.319
63345W        W35605  41.739  29.069   2.670
63346W        W35606   0.368  38.842   3.701
63347W        W35607  12.169  11.316   2.002
63348W        W35608  21.666  40.972   1.200
63349W        W35609   8.593   3.458  11.181
63350W        W35610   8.424  34.169   2.905
63351W        W35611  35.437  20.253   0.317
63352W        W35612  22.510  21.357   3.951
63353W        W35613  43.993   4.450   4.110
63354W        W35614  29.882  39.123   3.317
63355W        W35615  19.141  25.272   1.267
63356W        W35616  26.282  27.317  11.507
63357W        W35617  36.530   3.396   4.123
63358W        W35618   0.910  38.545  12.991
63359W        W35619  21.549  26.203   9.714
63360W        W35620  11.216  12.899  12.659
63361W        W35621  20.004  22.508  11.153
63362W        W35622  11.194  34.407  11.155
63363W        W35623  10.434  18.645  14.778
63364W        W35624  12.089  34.134  13.027
63365W        W35625  36.889  37.334   0.484
63366W        W35626  38.911   1.043   2.351
63367W        W35627  21.415  42.501  12.071
63368W        W35628   1.346   4.386  13.035
63369W        W35629   3.663  21.477  14.893
63370W        W35630   5.754   3.657   3.688
63371W        W35631  38.040  23.097   4.103
63372W        W35632  24.326  27.976  12.414
63373W        W35633  43.105   4.447  13.278
63374W        W35634  34.429  25.031  14.759
63375W        W35635  17.045  15.314   2.409
63376W        W35636  21.742  16.714  13.100
63377W        W35637   4.280   3.944   3.212
63378W        W35638  28.647  16.539   2.933
63379W        W35639  17.163  22.261  12.038
63380W        W35640  34.247  19.090   4.201
63381W        W35641  10.860  15.700  10.712
63382W        W35642   2.514  43.896  13.930
63383W        W35643  31.413   6.741   0.784
63384W        W35644  10.503   3.251  10.236
63385W        W35645  17.461  16.600  13.991
63386W        W35646  24.440  20.191  12.486
63387W        W35647  20.057  41.785   4.231
63388W        W35648  26.451  22.572   1.717
63389W        W35649  22.238  24.350  12.197
63390W        W35650   6.737  25.693   0.067
63391W        W35651  39.369  33.817   1.903
63392W        W35652  42.890  12.530  14.501
63393W        W35653   0.432  10.184   1.889
63394W        W35654  19.826  18.901  10.722
63395W        W35655  27.863  17.512   2.295
63396W        W35656  28.908   7.376  12.731
63397W        W35657  44.500  39.226  11.539
63398W        W35658  33.250  10.180   4.492
63399W        W35659  14.632   7.384   1.764
63400W        W35660  25.061  25.445   3.727
63401W        W35661   1.290  43.991  10.771
63402W        W35662   3.797  11.581  12.037
63403W        W35663  40.403  31.777   4.095
63404W        W35664   5.244  32.046   5.115
63405W        W35665  30.707   6.252   1.240
63406W        W35666  24.056  11.050  12.451
63407W        W35667  17.753  41.748   3.148
63408W        W35668   5.857   1.730  11.929
63409W        W35669  26.273   5.738  13.068
63410W        W35670   9.125   8.998   3.579
63411W        W35671  11.184  33.129  12.811
63412W        W35672  44.902  23.127   0.801
63413W        W35673   7.849  13.713  11.967
63414W        W35674  19.209  30.113   1.789
63415W        W35675   0.046  35.601   4.275
63416W        W35676   0.975  18.654  14.739
63417W        W35677  13.247  38.110   1.168
63418W        W35678  17.024  28.839  10.682
63419W        W35679  32.561  26.906   3.949
63420W        W35680  19.923  18.060  14.197
63421W        W35681  25.498   0.957   4.938
63422W        W35682  14.331  12.910  11.039
63423W        W35683  24.015  42.748  11.958
63424W        W35684  41.654  41.812  12.447
63425W        W35685  24.277  38.315   2.856
63426W        W35686  43.822  43.369   0.929
63427W        W35687  29.997  18.690  13.728
63428W        W35688  21.110  20.954  14.453
63429W        W35689  24.117  30.786   2.667
63430W        W35690   1.968  30.643  10.132
63431W        W35691  37.494  40.427   4.022
63432W        W35692  24.195  20.441   4.221
63433W        W35693  40.966  26.103  10.424
63434W        W35694  23.198  11.456   0.309
63435W        W35695  39.989  16.976   0.261
63436W        W35696  14.436  18.845   4.887
63437W        W35697  43.386  19.609  11.011
63438W        W35698  11.710   8.449  13.874
63439W        W35699  40.343  29.234  10.724
63440W        W35700  33.682  20.793  12.913
63441W        W35701  30.516  38.555  14.787
63442W        W35702  12.787  35.662   0.843
63443W        W35703   0.272   2.348  13.540
63444W        W35704  44.420   0.461   0.282
63445W        W35705  10.632  10.205  11.595
63446W        W35706  44.481  12.261   3.392
63447W        W35707   7.485  32.183   2.735
63448W        W35708   5.048   7.221  13.485
63449W        W35709   1.943  16.269   3.352
63450W        W35710  39.602   6.393  14.745
63451W        W35711   0.422  38.860  10.929
63452W        W35712   7.286  11.952  11.607
63453W        W35713   1.650  12.168  14.974
63454W        W35714  31.544  30.238   4.227
63455W        W35715  20.802   6.057   5.069
63456W        W35716  27.089  37.685   4.762
63457W        W35717  21.474  42.525   0.766
63458W        W35718  10.137  40.337  13.415
63459W        W35719  37.906  10.117   1.311
63460W        W35720  24.600   0.734  12.610
63461W        W35721  39.094  36.901  12.476
63462W        W35722  44.779  20.991   3.333
63463W        W35723   3.767  33.014  12.568
63464W        W35724  28.442  13.644  14.444
63465W        W35725   0.255  40.745  10.693
63466W        W35726  38.477   6.116   3.103
63467W        W35727  16.473  23.449   1.802
63468W        W35728  28.606   6.997  10.590
63469W        W35729  10.094  25.119   2.739
63470W        W35730  19.576   5.906   1.909
63471W        W35731  24.055  17.830   3.677
63472W        W35732  25.687  22.307   0.780
63473W        W35733   3.485  10.337  12.917
63474W        W35734  26.965  15.036   0.421
63475W        W35735  23.276  35.900  12.936
63476W        W35736  21.528  16.020  13.368
63477W        W35737  28.530  24.675   0.570
63478W        W35738  43.002  25.931  13.478
63479W        W35739  25.915   7.834   0.866
63480W        W35740   2.683  20.096  12.877
63481W        W35741  23.274  32.508   0.846
63482W        W35742   9.351  11.623   3.648
63483W        W35743  18.173  16.125   4.617
63484W        W35744   6.331  40.718  13.439
63485W        W35745  23.605  30.891  12.998
63486W        W35746   1.276  29.451   4.651
63487W        W35747  38.435  18.632   0.774
63488W        W35748  36.935  29.428  14.009
63489W        W35749   8.383  38.187  11.705
63490W        W35750  28.688  40.008   0.230
63491W        W35751  11.358  16.327  12.550
63492W        W35752  12.747  33.262  11.284
63493W        W35753   2.126  36.318   4.095
63494W        W35754  33.446  13.162  14.898
63495W        W35755   7.206  35.026   2.784
63496W        W35756  18.038  12.848  13.971
63497W        W35757  35.924   6.982  11.612
63498W        W35758  28.907   2.973   0.550
63499W        W35759  11.246  32.329  13.926
63500W        W35760  29.009  24.367   2.276
63501W        W35761  16.819   5.891   1.381
63502W        W35762  39.882  44.318   3.281
63503W        W35763  24.037  36.735   3.715
63504W        W35764  26.611  27.141   3.686
63505W        W35765  32.442   3.324   3.736
63506W        W35766  43.519  27.714  14.496
63507W        W35767  23.257  26.436   4.156
63508W        W35768  10.769   9.879   1.334
63509W        W35769  41.645  43.706  13.452
63510W        W35770  25.535  44.958   1.124
63511W        W35771   8.447   8.856  12.572
63512W        W35772  44.799   3.854  13.528
63513W        W35773   2.001  42.405   3.837
63514W        W35774  17.004  21.625   4.695
63515W        W35775  23.304  14.071   2.851
63516W        W35776  32.564  15.570  13.844
63517W        W35777  34.085  36.956   3.374
63518W        W35778  30.144  21.111  13.483
63519W        W35779  24.168  19.685  11.508
63520W        W35780  29.204  14.721   3.319
63521W        W35781  35.594   2.263   4.233
63522W        W35782  12.888  29.433   2.783
63523W        W35783  36.905  30.611   4.142
63524W        W35784   4.276  37.864  14.842
63525W        W35785   4.491  21.772   2.797
63526W        W35786  20.031  35.407   2.946
63527W        W35787   6.224  29.461   5.020
63528W        W35788  42.788   6.951   0.009
63529W        W35789  12.314   4.426  11.833
63530W        W35790   9.954  24.382   4.086
63531W        W35791  11.857  30.615   1.847
63532W        W35792  12.809  30.971   0.286
63533W        W35793  32.793   0.475  14.504
63534W        W35794   7.660  34.985  13.564
63535W        W35795  17.079  40.022   4.623
63536W        W35796  24.612   4.578  13.000
63537W        W35797  34.803  12.599   4.928
63538W        W35798  25.608   6.931  10.626
63539W        W35799   5.482  31.358  13.372
63540W        W35800  22.737  26.567  11.817
63541W        W35801  15.292  37.110   1.957
63542W        W35802   2.393   8.415  12.986
63543W        W35803  41.436   1.485   1.401
63544W        W35804   1.198   7.967   3.275
63545W        W35805  31.844  44.411   0.255
63546W        W35806   3.328  25.706  11.225
63547W        W35807  31.177  43.805  10.809
63548W        W35808  16.066  19.610  11.494
63549W        W35809  34.936   3.674  13.863
63550W        W35810  15.115  20.622   0.225
63551W        W35811  24.074  35.460  12.537
63552W        W35812   4.423  22.803   2.820
63553W        W35813   6.697   6.282   2.753
63554W        W35814   3.874  23.965   3.786
63555W        W35815  16.663  27.097  12.766
63556W        W35816  13.574  37.884  13.575
63557W        W35817  41.803  39.010  11.978
63558W        W35818  19.667  35.366  11.146
63559W        W35819  39.154   9.840   4.935
63560W        W35820  39.935   5.890   2.768
63561W        W35821  43.763   5.916  14.414
63562W        W35822  38.050  39.417   1.343
63563W        W35823   3.965  39.471   1.381
63564W        W35824  28.418   2.452  14.508
63565W        W35825  19.908   5.156  11.566
63566W        W35826   4.917   0.036  11.175
63567W        W35827   1.322   0.518   0.427
63568W        W35828   6.757  10.234  12.597
63569W        W35829  12.230  43.243   0.659
63570W        W35830   5.937  25.301  11.970
63571W        W35831  12.203  28.988  12.970
63572W        W35832  28.560  27.495  14.296
63573W        W35833  17.585  24.961  14.501
63574W        W35834  13.387  14.290  10.256
63575W        W35835   2.385   7.168   2.291
63576W        W35836  31.158  37.063   4.380
63577W        W35837  42.827  30.578  10.208
63578W        W35838  32.770  12.827  14.040
63579W        W35839  24.360  12.350   3.672
63580W        W35840  29.703  38.074   0.256
63581W        W35841  38.347   5.431  11.453
63582W        W35842  31.634  28.235   2.336
63583W        W35843  24.380  18.713  14.844
63584W        W35844   7.197  23.649  11.197
63585W        W35845  21.545  20.486  14.950
63586W        W35846   0.277  39.685  12.609
63587W        W35847   6.842  18.115   4.693
63588W        W35848  17.633  19.210  13.997
63589W        W35849   4.458  20.202  12.430
63590W        W35850  26.551   5.688   3.729
63591W        W35851  33.261  19.246  10.168
63592W        W35852   8.714  11.683  14.463
63593W        W35853  13.115   6.112  12.574
63594W        W35854   2.754  22.772   1.817
63595W        W35855  42.076  13.366  12.154
63596W        W35856  27.347  13.001   3.085
63597W        W35857  18.184   6.385  14.330
63598W        W35858   2.045   2.280   0.299
63599W        W35859  40.298  23.289   3.657
63600W        W35860  37.846  15.716   2.623
63601W        W35861  29.565  44.902   3.082
63602W        W35862  30.653   9.712  13.202
63603W        W35863  26.223  43.223   1.273
63604W        W35864  42.799  38.527   2.633
63605W        W35865  19.108  37.423   4.865
63606W        W35866   1.840  17.730  12.115
63607W        W35867  16.008  14.030   0.874
63608W        W35868  20.033  14.095   1.803
63609W        W35869  14.724  20.695   1.335
63610W        W35870  10.796  34.024   1.828
63611W        W35871  20.223  41.840   3.306
63612W        W35872   4.681  27.088   0.649
63613W        W35873  39.977  23.621  14.621
63614W        W35874   1.801  31.657  13.958
63615W        W35875  31.169  29.958  12.149
63616W        W35876   4.301  12.748   4.520
63617W        W35877   6.841  37.299   4.388
63618W        W35878  12.074   9.780  10.651
63619W        W35879  15.960  35.568   0.817
63620W        W35880   5.344  33.109  10.957
63621W        W35881   3.975  11.836   1.873
63622W        W35882  22.105  24.128  14.193
63623W        W35883   0.411  14.325   0.699
63624W        W35884  10.165  28.905  11.086
63625W        W35885  10.881   4.685   0.442
63626W        W35886  21.603   2.348   0.844
63627W        W35887  38.974  26.000  12.863
63628W        W35888  24.991  26.682  13.131
63629W        W35889  25.059  42.708  13.461
63630W        W35890  41.235   7.351  12.831
63631W        W35891   5.229   2.453   3.239
63632W        W35892  31.688  33.947   0.433
63633W        W35893  22.182   8.206  10.972
63634W        W35894  42.340   9.195   4.669
63635W        W35895  32.813  17.749   0.917
63636W        W35896  20.615   9.136  11.486
63637W        W35897  24.623  14.109  11.267
63638W        W35898  28.645  13.310  12.673
63639W        W35899  37.894  32.043  10.633
63640W        W35900  14.834  32.633  13.739
63641W        W35901  15.825  43.319  13.154
63642W        W35902  20.159  14.527   4.652
63643W        W35903  12.356  13.778  12.583
63644W        W35904  21.832  23.601   1.676
63645W        W35905  32.562  42.164   0.427
63646W        W35906  11.193  21.311   4.107
63647W        W35907  13.425  13.600  14.512
63648W        W35908  30.564  25.094  12.895
63649W        W35909   8.347  12.818  10.729
63650W        W35910  38.762  30.002  12.871
63651W        W35911   1.818  15.749   1.942
63652W        W35912  22.477  18.123  11.512
63653W        W35913  32.634   7.907   0.926
63654W        W35914  25.162  43.693  11.604
63655W        W35915  27.014  19.126  12.749
63656W        W35916   7.633  36.203   2.597
63657W        W35917   8.771  11.286   2.437
63658W        W35918  33.999  40.357  11.557
63659W        W35919  41.504  28.195  13.299
63660W        W35920   8.707  12.928   4.754
63661W        W35921  27.592   4.846   3.714
63662W        W35922   8.267  17.716  13.348
63663W        W35923  14.106  23.179   0.965
63664W        W35924   0.098  20.846   2.692
63665W        W35925  27.154  37.816  10.894
63666W        W35926  16.655  33.900  11.480
63667W        W35927  22.113  12.891   3.755
63668W        W35928  43.698   4.233  13.933
63669W        W35929   1.829   3.873   4.093
63670W        W35930  37.362  43.809  13.821
63671W        W35931  26.194  19.623   4.696
63672W        W35932  25.578  42.964   0.022
63673W        W35933   0.210  26.292  14.703
63674W        W35934  12.723  19.021   4.677
63675W        W35935   4.273   1.005   1.838
63676W        W35936   1.237  29.546  13.468
63677W        W35937  12.857  33.167   2.910
63678W        W35938  13.687  29.180  12.453
63679W        W35939  43.465  22.520  13.503
63680W        W35940  30.030  26.531  12.320
63681W        W35941  15.132   1.383  11.562
63682W        W35942   2.262  44.339  13.223
63683W        W35943  36.043   9.443   0.780
63684W        W35944   0.728   9.256  10.603
63685W        W35945  27.153   3.913  13.620
63686W        W35946  18.804  14.266  12.019
63687W        W35947   6.327  15.077   1.396
63688W        W35948  23.178  16.816  11.376
63689W        W35949  13.842   4.207   1.495
63690W        W35950  41.892   2.310  13.396
63691W        W35951  11.167  39.818   2.791
63692W        W35952  25.557  40.081  10.636
63693W        W35953  38.315   3.817   1.305
63694W        W35954  25.026  35.012   0.991
63695W        W35955  11.329  15.632   0.888
63696W        W35956  42.833  39.021  10.468
63697W        W35957  14.811  32.560   0.208
63698W        W35958  29.683  13.739   4.159
63699W        W35959  36.874  37.841   1.306
63700W        W35960  31.619   8.883  13.354
63701W        W35961  44.367   0.148   1.298
63702W        W35962   6.328   1.487   2.417
63703W        W35963  27.651  30.891  13.389
63704W        W35964  32.434   4.943   0.392
63705W        W35965  37.464   4.887   2.626
63706W        W35966  24.525   0.699  14.419
63707W        W35967  12.513   8.871   2.370
63708W        W35968  28.720  16.699   4.568
63709W        W35969  23.180  30.258   0.559
63710W        W35970  28.156  39.853   2.503
63711W        W35971  16.291  41.658  10.508
63712W        W35972   7.851  38.597  14.069
63713W        W35973   8.446  10.765  13.552
63714W        W35974  20.508  16.550  10.729
63715W        W35975  31.642  28.222  13.583
63716W        W35976  21.966   5.571   1.738
63717W        W35977   2.244  20.552  11.959
63718W        W35978  31.427  29.989  13.711
63719W        W35979   0.354  21.050  11.468
63720W        W35980   1.684  42.443  12.025
63721W        W35981  28.226  13.441  11.751
63722W        W35982  13.344  14.899   1.884
63723W        W35983   7.958   2.615   2.093
63724W        W35984  37.132  20.282  11.894
63725W        W35985  27.800   0.742   4.075
63726W        W35986   3.323   6.319   3.578
63727W        W35987  37.767  14.890   2.772
63728W        W35988   4.416   4.397  14.313
63729W        W35989  36.455  39.535  11.394
63730W        W35990  17.147  39.111   5.019
63731W        W35991  36.096  36.095  10.615
63732W        W35992  30.540  18.023  13.960
63733W        W35993  16.651   7.626   2.647
63734W        W35994  12.104  26.946   2.904
63735W        W35995  21.008  25.261   3.677
63736W        W35996  39.965  40.871  14.009
63737W        W35997  33.025   9.282   4.975
63738W        W35998  16.104  24.558   4.552
63739W        W35999   5.135   5.839   2.231
63740W        W36000  16.228   9.816  13.066
63741W        W36001   0.395  32.200   0.384
63742W        W36002  29.947  36.463   2.757
63743W        W36003  42.436  31.994  14.518
63744W        W36004  37.338  24.093  11.086
63745W        W36005  24.062   2.041   4.730
63746W        W36006  37.508  18.451  10.305
63747W        W36007  12.393  24.093  14.206
63748W        W36008  10.070  44.436  11.557
63749W        W36009  16.740   0.012   0.308
63750W        W36010  39.422   5.426   4.064
63751W        W36011  38.027   0.849   2.914
63752W        W36012  20.480   8.191   2.187
63753W        W36013  21.136  32.960   4.182
63754W        W36014  27.000   3.189  13.995
63755W        W36015  24.959  17.202  11.699
63756W        W36016  33.677  30.443  14.939
63757W        W36017  30.890  36.870   0.949
63758W        W36018  42.828  37.220   1.283
63759W        W36019  16.740   8.999  14.667
63760W        W36020  18.554   3.472   4.138
63761W        W36021  12.111  11.772  10.487
63762W        W36022   4.263   7.716   1.049
63763W        W36023  35.334  25.409  14.754
63764W        W36024  42.868  18.485  12.547
63765W        W36025  12.337  27.238  14.966
63766W        W36026   9.825   1.995   3.827
63767W        W36027  32.162  43.405   2.240
63768W        W36028  26.492  16.144  13.297
63769W        W36029  10.686  21.064   1.832
63770W        W36030  34.106  26.663   0.417
63771W        W36031   6.358  42.591  12.412
63772W        W36032   6.974  28.139   9.805
63773W        W36033   4.529  37.488   1.470
63774W        W36034  40.214   1.089  11.584
63775W        W36035  25.014  16.444   0.867
63776W        W36036  37.116  29.566   4.087
63777W        W36037  41.037  30.783  14.856
63778W        W36038  34.041  43.750  11.522
63779W        W36039  27.234  25.782   0.762
63780W        W36040  13.370   5.696  13.777
63781W        W36041  19.858  42.698  12.464
63782W        W36042  44.377  42.774  11.510
63783W        W36043  23.067   7.583  13.509
63784W        W36044  31.304  20.485   1.316
63785W        W36045  24.854  20.269  12.116
63786W        W36046   6.233  33.434   5.020
63787W        W36047   6.686  27.173   1.373
63788W        W36048  41.225  28.897   4.077
63789W        W36049  24.496  21.012   0.354
63790W        W36050  21.047  40.460  14.931
63791W        W36051   6.221   5.393   2.877
63792W        W36052  35.919  30.682   0.330
63793W        W36053  23.473  23.518   4.389
63794W        W36054  13.158  28.883  10.664
63795W        W36055  43.344  34.913  13.410
63796W        W36056   8.253  16.196  11.146
63797W        W36057  36.052  18.634   1.380
63798W        W36058  32.970  32.936  14.350
63799W        W36059   8.467  37.300  12.022
63800W        W36060   5.465  21.316  10.427
63801W        W36061  38.855  25.572   0.371
63802W        W36062  43.958  23.154  12.628
63803W        W36063  37.992  31.992   4.599
63804W        W36064  34.696  41.306   3.500
63805W        W36065  11.250  34.064   4.387
63806W        W36066  30.792   2.784  11.551
63807W        W36067  24.583   5.147   1.365
63808W        W36068  36.050  38.788   3.775
63809W        W36069   4.104  41.247  14.048
63810W        W36070  18.210  44.677  11.678
63811W        W36071  16.276  43.714   3.711
63812W        W36072  19.217  28.865   2.080
63813W        W36073  17.277  17.275  14.891
63814W        W36074  31.389  22.981   3.292
63815W        W36075  12.794  28.075  11.451
63816W        W36076  24.196  31.259  11.315
63817W        W36077  12.333  18.426   1.263
63818W        W36078  21.212  38.362   4.318
63819W        W36079  13.563  16.940   0.515
63820W        W36080  14.473  32.506   3.758
63821W        W36081  23.013  42.276   1.823
63822W        W36082  36.887  16.298   4.924
63823W        W36083  26.518  44.073   3.272
63824W        W36084  29.799  12.185   2.753
63825W        W36085  42.328  22.414  11.437
63826W        W36086  25.121   0.298  14.074
63827W        W36087  38.311  30.131   1.449
63828W        W36088  22.634  33.252  13.305
63829W        W36089   3.685  28.188   1.395
63830W        W36090   3.946  18.699  14.808
63831W        W36091  18.044   8.855  14.320
63832W        W36092  33.205  43.115   4.518
63833W        W36093  13.027  29.119  11.113
63834W        W36094  40.864   5.538   0.686
63835W        W36095  37.025  26.994  12.861
63836W        W36096  20.507  37.082   2.917
63837W        W36097  12.192   8.186   1.945
63838W        W36098  36.893   9.739   2.696
63839W        W36099  13.219  44.718  13.535
63840W        W36100  34.729   8.364   2.829
63841W        W36101  21.740  41.439  11.067
63842W        W36102  42.727   9.212   0.396
63843W        W36103  28.915  14.689  14.418
63844W        W36104  10.883  10.459   4.860
63845W        W36105  17.636  27.114  10.761
63846W        W36106   8.322  29.403  12.651
63847W        W36107   4.430  33.886   2.850
63848W        W36108   4.622  36.883  12.654
63849W        W36109  17.857  43.739  13.588
63850W        W36110  22.087  26.246  14.337
63851W        W36111  35.893  14.792   0.250
63852W        W36112  31.943  34.340  13.512
63853W        W36113   5.110  41.487   3.167
63854W        W36114   7.710  33.001  12.882
63855W        W36115  35.589  35.964   0.784
63856W        W36116  38.554  26.038   0.336
63857W        W36117  24.539  39.542   4.597
63858W        W36118  43.528  25.397   4.262
63859W        W36119  13.654  24.633   1.946
63860W        W36120  32.409  23.492   1.368
63861W        W36121  26.181  14.834   1.862
63862W        W36122   9.765  27.969   4.603
63863W        W36123  12.570  17.365   2.322
63864W        W36124  31.181  42.914  13.471
63865W        W36125  14.476  15.140  12.100
63866W        W36126   3.473   0.879   0.168
63867W        W36127  16.338  19.453  10.599
63868W        W36128  39.428  24.100   2.592
63869W        W36129  25.456  20.486   2.636
63870W        W36130  38.480   8.267   1.607
63871W        W36131   3.599   7.508  12.497
63872W        W36132  40.244   6.907  11.933
63873W        W36133  23.571  18.632   1.984
63874W        W36134   1.799   1.375  12.089
63875W        W36135  13.735  34.399  14.253
63876W        W36136  27.201  14.132  14.329
63877W        W36137  27.351  39.321  10.200
63878W        W36138  33.689  25.068   5.024
63879W        W36139  27.881  15.830   3.770
63880W        W36140  17.289   7.066  11.087
63881W        W36141  13.825   0.534  12.538
63882W        W36142  34.490  38.513  14.445
63883W        W36143  41.827  27.355   4.561
63884W        W36144  30.246  17.647  13.747
63885W        W36145  23.622   9.870  10.668
63886W        W36146   8.646   9.213   0.327
63887W        W36147  42.374  37.871  11.604
63888W        W36148   2.961  27.554  12.029
63889W        W36149  24.931   7.302  12.860
63890W        W36150  39.882  38.602  12.972
63891W        W36151  39.361  39.393  11.211
63892W        W36152  27.133  17.531  13.919
63893W        W36153  30.691  31.979   1.276
63894W        W36154  38.613  28.104   2.626
63895W        W36155  21.678  19.351   5.011
63896W        W36156  32.458  19.483  13.622
63897W        W36157  30.554  13.334  11.071
63898W        W36158  43.546  11.062  14.303
63899W        W36159  15.603   8.355   1.151
63900W        W36160  25.983  12.262  12.458
63901W        W36161   4.320  16.314  11.989
63902W        W36162  35.574  40.579   4.515
63903W        W36163  33.190  34.453  14.758
63904W        W36164  25.535  25.894   2.949
63905W        W36165  12.852  32.543  10.815
63906W        W36166  22.004  10.350  10.733
63907W        W36167  19.159  35.738  13.825
63908W        W36168  22.978  16.668   3.288
63909W        W36169   8.491   5.780  11.463
63910W        W36170   9.743  20.297   0.035
63911W        W36171  28.125  15.117   1.478
63912W        W36172  20.198  19.638  10.431
63913W        W36173  36.667  20.547  10.621
63914W        W36174   6.506  20.940   3.411
63915W        W36175   0.137  39.831  13.239
63916W        W36176  14.638  44.279   0.500
63917W        W36177  25.011  40.350   4.126
63918W        W36178  24.883   8.117   2.840
63919W        W36179  32.851  34.914   1.904
63920W        W36180  25.257   6.034   3.716
63921W        W36181  37.911  27.453  13.051
63922W        W36182  14.602  10.201  10.770
63923W        W36183  43.028  22.805   0.044
63924W        W36184  43.200  39.365  12.117
63925W        W36185   3.866  10.673   3.342
63926W        W36186  29.256   5.309   1.231
63927W        W36187  29.062   6.666   2.200
63928W        W36188  18.502   2.568   3.649
63929W        W36189  21.751   0.747  11.849
63930W        W36190  38.897  15.752  13.404
63931W        W36191  34.956  32.442  10.793
63932W        W36192  29.525  23.250   0.391
63933W        W36193  14.440   5.814  12.533
63934W        W36194  17.827  30.078   3.806
63935W        W36195   1.510  42.981   3.199
63936W        W36196  13.780  10.548  14.633
63937W        W36197   4.728  34.687   3.357
63938W        W36198  37.769  23.736   4.592
63939W        W36199   3.321  14.625   0.703
63940W        W36200  28.227  40.203  13.541
63941W        W36201   7.404   0.418  12.584
63942W        W36202  37.044  25.135   3.632
63943W        W36203   8.717  20.135   0.682
63944W        W36204  25.256  37.908  12.374
63945W        W36205  38.313   1.950   1.384
63946W        W36206   4.895   9.871   5.053
63947W        W36207  15.358   8.118   2.773
63948W        W36208   4.482   7.356   2.348
63949W        W36209   2.974  36.724  14.567
63950W        W36210  33.927  21.316   4.121
63951W        W36211  40.472  16.560  10.971
63952W        W36212  25.979  40.419  10.734
63953W        W36213  41.517   9.333   0.075
63954W        W36214  37.574   8.437   3.653
63955W        W36215  10.456  44.344   0.828
63956W        W36216   1.293  26.636  10.309
63957W        W36217  43.233   7.897   1.477
63958W        W36218  12.850  26.441   3.071
63959W        W36219  16.078   2.100   0.684
63960W        W36220   4.455  15.623   4.252
63961W        W36221  22.104  35.899  11.151
63962W        W36222  31.474   4.154  12.300
63963W        W36223   5.708   0.837  11.949
63964W        W36224  20.705  26.506  11.563
63965W        W36225  14.223  32.003   3.744
63966W        W36226  33.730  29.077   2.238
63967W        W36227  43.034  30.445  12.357
63968W        W36228  10.302  27.074  14.963
63969W        W36229  29.449  31.882  13.360
63970W        W36230   5.909  37.817   4.678
63971W        W36231  13.293   5.921   1.822
63972W        W36232  17.286  27.973  12.405
63973W        W36233  33.466  33.975  14.847
63974W        W36234  25.047  42.184  13.463
63975W        W36235  43.523  32.358   3.412
63976W        W36236   4.226  35.068   4.640
63977W        W36237   2.904  14.169  13.983
63978W        W36238  43.505  41.857   0.839
63979W        W36239  38.577  24.564  14.200
63980W        W36240   9.315  29.975   1.878
63981W        W36241  24.950  26.668   4.261
63982W        W36242  21.278  16.050  12.864
63983W        W36243  28.634  34.983   0.025
63984W        W36244  18.413   7.443  10.267
63985W        W36245  27.897   5.983   4.647
63986W        W36246  16.795  38.873  13.779
63987W        W36247  16.558  42.963   5.098
63988W        W36248  31.992  35.874  12.861
63989W        W36249  16.643  35.890  14.267
63990W        W36250  21.050  22.148  10.826
63991W        W36251   9.196  16.783   3.637
63992W        W36252  34.371  28.103   1.415
63993W        W36253  38.846  38.950   0.463
63994W        W36254   4.919  33.387  11.136
63995W        W36255  33.821  36.319   0.204
63996W        W36256  32.907  30.709   3.091
63997W        W36257  30.295  44.173   5.033
63998W        W36258  43.512  22.615   0.003
63999W        W36259   3.243   9.321   0.481
64000W        W36260  31.234  20.985  13.048
64001W        W36261  41.777  43.962  11.649
64002W        W36262   3.245  18.853  13.906
64003W        W36263   8.136  12.601  13.951
64004W        W36264  25.997  22.518   1.432
64005W        W36265  16.378  22.395   0.428
64006W        W36266  35.541  18.877  14.450
64007W        W36267   1.720  15.562   1.436
64008W        W36268   7.490  35.583   3.782
64009W        W36269   3.857  15.674   3.269
64010W        W36270  39.061  13.854   3.101
64011W        W36271  38.325  38.411  11.863
64012W        W36272  12.062  14.643   1.880
64013W        W36273  22.162  41.050   1.072
64014W        W36274  31.585   3.962   2.771
64015W        W36275  32.499  30.447   0.512
64016W        W36276  10.782   3.995   1.244
64017W        W36277   4.848  27.669  14.438
64018W        W36278   5.140  24.650  11.892
64019W        W36279  39.966  22.150   0.630
64020W        W36280   4.401  14.831  14.762
64021W        W36281   9.446  41.807  14.347
64022W        W36282  44.578  25.181   0.832
64023W        W36283  16.696  40.310  14.983
64024W        W36284  20.275  23.490  12.298
64025W        W36285   6.425  43.022  10.305
64026W        W36286  40.696  33.485   4.685
64027W        W36287   4.197  21.349   2.725
64028W        W36288  11.869  32.568  10.708
64029W        W36289  24.867  12.922  13.076
64030W        W36290  26.933  38.594   4.534
64031W        W36291  14.556   1.777   1.492
64032W        W36292  29.438  24.757   0.770
64033W        W36293  38.365   7.847  14.824
64034W        W36294  23.357  26.119   3.289
64035W        W36295  17.138   0.220  14.389
64036W        W36296   0.732  38.049  11.594
64037W        W36297  16.284   7.630  12.971
64038W        W36298   0.793  24.593   2.117
64039W        W36299  20.695  34.862   2.604
64040W        W36300  32.109  22.179   4.343
64041W        W36301  26.162  29.554  13.965
64042W        W36302  35.488  11.257   4.079
64043W        W36303  20.787  11.299  12.077
64044W        W36304  11.639  40.979   0.581
64045W        W36305  12.371  18.787   0.830
64046W        W36306  40.824   9.370  13.977
64047W        W36307  16.191  12.201  11.707
64048W        W36308   3.181  30.826   4.610
64049W        W36309  24.684  28.924   4.689
64050W        W36310  17.587   7.774  10.515
64051W        W36311  36.510   9.237  14.859
64052W        W36312   7.907  20.045  12.481
64053W        W36313  35.547  36.866   1.418
64054W        W36314  31.950  12.192   4.329
64055W        W36315   0.766  26.611   2.262
64056W        W36316  26.546   5.854   0.847
64057W        W36317  38.138   1.412  14.490
64058W        W36318  28.129   8.826  10.994
64059W        W36319  30.077   5.352   2.321
64060W        W36320  31.549   9.014  12.330
64061W        W36321   9.398  40.323  12.922
64062W        W36322  29.837  10.410   4.141
64063W        W36323  24.215   7.362   0.584
64064W        W36324  19.523   4.140  11.175
64065W        W36325   0.012  38.037   1.372
64066W        W36326  24.426  10.968  11.589
64067W        W36327  38.353  28.767   1.279
64068W        W36328  31.312  42.545   3.015
64069W        W36329   9.829  40.284  13.839
64070W        W36330  44.195  22.770  12.364
64071W        W36331  10.150  25.079  11.584
64072W        W36332  37.535  36.201  12.420
64073W        W36333  28.641  13.717  11.939
64074W        W36334  20.783  43.359   0.506
64075W        W36335  42.819   7.560  12.656
64076W        W36336   3.283  27.622   4.658
64077W        W36337  15.329  27.757  11.196
64078W        W36338  15.178  27.337  10.255
64079W        W36339   7.394  23.628   3.873
64080W        W36340  44.880  14.848   4.887
64081W        W36341  15.232  39.418   3.811
64082W        W36342  34.704  27.870  13.537
64083W        W36343  13.358  26.936   1.418
64084W        W36344   3.926   4.801  12.536
64085W        W36345  42.706  36.671  13.472
64086W        W36346  29.099  32.347  12.369
64087W        W36347  25.137  34.876   4.184
64088W        W36348   7.422  23.711  13.825
64089W        W36349  13.640  14.688  13.532
64090W        W36350  19.350  13.376   0.084
64091W        W36351  13.684  37.799   1.935
64092W        W36352  16.224   4.202  13.826
64093W        W36353  44.895   2.920   2.785
64094W        W36354  44.053   5.113  12.916
64095W        W36355  42.834  39.274  12.500
64096W        W36356   5.977  22.323  11.943
64097W        W36357  43.397  43.468   4.584
64098W        W36358  30.268  29.807   5.505
64099W        W36359  43.829  13.217   3.434
64100W        W36360  25.439  36.327  13.766
64101W        W36361  40.898   4.244  12.208
64102W        W36362   8.798  42.783   4.801
64103W        W36363  42.001  15.503  10.340
64104W        W36364  29.803  14.169   3.181
64105W        W36365  12.254  37.844   4.566
64106W        W36366  10.243   8.326  14.828
64107W        W36367  23.579   7.767   4.526
64108W        W36368   6.116   3.752   3.303
64109W        W36369  33.947  20.973   3.635
64110W        W36370   7.907  18.293  11.729
64111W        W36371  34.795  33.765  11.224
64112W        W36372  37.819  15.600  12.993
64113W        W36373  32.924  25.005  14.227
64114W        W36374  43.787  29.897  12.171
64115W        W36375   2.923   7.088  10.445
64116W        W36376  32.803  36.595  11.858
64117W        W36377  38.184  33.918   3.752
64118W        W36378   8.318   9.948   3.588
64119W        W36379  22.202  26.573  10.597
64120W        W36380  11.288  37.160   4.664
64121W        W36381  10.324  31.880  11.953
64122W        W36382  10.627  15.786   0.767
64123W        W36383   6.411   1.411  11.819
64124W        W36384  34.511  22.057   1.881
64125W        W36385  23.030  24.275  11.544
64126W        W36386   6.346  29.950  11.905
64127W        W36387   1.390   8.680  10.529
64128W        W36388  39.936  43.513  14.330
64129W        W36389  13.009  19.265  12.432
64130W        W36390  16.734  43.842  11.882
64131W        W36391  40.851  40.526   0.320
64132W        W36392  33.008  18.629   1.425
64133W        W36393   0.848  37.574   3.664
64134W        W36394  24.132   8.924  10.092
64135W        W36395  13.308  41.517   4.547
64136W        W36396  15.353   3.079  13.340
64137W        W36397   9.058   4.943   0.411
64138W        W36398  30.597  37.828   1.733
64139W        W36399  31.148   9.196  14.308
64140W        W36400  38.583   6.517  13.449
64141W        W36401   0.895  37.859   0.870
64142W        W36402  22.678  23.617  11.190
64143W        W36403  15.279  26.116   3.462
64144W        W36404  23.667  24.000   4.247
64145W        W36405  37.898  18.603   0.816
64146W        W36406  30.088   9.748  12.393
64147W        W36407  27.631  17.208  14.509
64148W        W36408  36.568   5.628   0.792
64149W        W36409   1.859  38.547   1.282
64150W        W36410  25.407   0.859   0.330
64151W        W36411  39.376  31.452   0.862
64152W        W36412  37.550   4.499   0.744
64153W        W36413  36.966  11.397  13.638
64154W        W36414  29.673  15.191   4.730
64155W        W36415  36.685  15.774   0.429
64156W        W36416   8.621   7.759   0.933
64157W        W36417   5.210  17.721  14.310
64158W        W36418  39.089  33.025  12.116
64159W        W36419  36.716  42.881  14.130
64160W        W36420  11.030  20.134  11.619
64161W        W36421  24.000  19.563   2.344
64162W        W36422  39.454   0.962  13.557
64163W        W36423   5.236  16.885  14.947
64164W        W36424   8.203  26.461  13.906
64165W        W36425   7.477  33.364   1.871
64166W        W36426  36.938  38.799   2.129
64167W        W36427  44.223  35.984   2.826
64168W        W36428  27.447   3.470  11.614
64169W        W36429  20.017  21.015  12.069
64170W        W36430   4.913  36.449  11.373
64171W        W36431  14.869   6.072  12.777
64172W        W36432  33.718  34.079  14.384
64173W        W36433   0.278  38.423  10.674
64174W        W36434  36.787  30.886   1.735
64175W        W36435  23.762   7.549   0.427
64176W        W36436  23.431   4.810  10.482
64177W        W36437  40.458  28.379   3.389
64178W        W36438   5.312  27.716   0.767
64179W        W36439  39.991   1.901  11.016
64180W        W36440  30.423  13.625  11.451
64181W        W36441  33.137  26.864  14.840
64182W        W36442  37.956  10.809  11.793
64183W        W36443   6.489   8.360   0.811
64184W        W36444  22.531   9.156  14.029
64185W        W36445   3.380  15.925   3.320
64186W        W36446  38.576  31.913   0.444
64187W        W36447   8.340  31.140   2.442
64188W        W36448   8.065  28.922  13.531
64189W        W36449  36.750   4.902   4.541
64190W        W36450  18.130  35.607  13.194
64191W        W36451  40.470  11.635   2.780
64192W        W36452  29.638  31.536   0.420
64193W        W36453  21.692  17.757  12.443
64194W        W36454  28.219  15.271   0.991
64195W        W36455  21.423  18.726  14.847
64196W        W36456  22.044  43.797  14.545
64197W        W36457  39.957  26.749   0.452
64198W        W36458  12.606  42.611  11.724
64199W        W36459  34.349  13.486   0.001
64200W        W36460  32.439  37.746   0.768
64201W        W36461  42.945  13.338  11.611
64202W        W36462  13.380   5.026   3.326
64203W        W36463   6.468   4.180  14.785
64204W        W36464  39.048  21.545   3.243
64205W        W36465   7.251  11.623  13.042
64206W        W36466  19.993  25.325   2.709
64207W        W36467  22.780  13.662  11.612
64208W        W36468   9.289  14.342  13.122
64209W        W36469   9.372  43.957  11.408
64210W        W36470  26.031  23.241   3.083
64211W        W36471  10.365  36.979  10.611
64212W        W36472  26.146  25.969  14.921
64213W        W36473  34.609  16.727   4.426
64214W        W36474  20.059   9.571  14.085
64215W        W36475  18.004  21.259  14.766
64216W        W36476  32.037  31.965  13.097
64217W        W36477  42.123  39.846   0.273
64218W        W36478  44.373  14.123  14.511
64219W        W36479  40.537  42.069  11.128
64220W        W36480  35.431  28.290   0.957
64221W        W36481  43.031  39.756  12.416
64222W        W36482   2.375  12.450  10.060
64223W        W36483  10.051   4.898   0.928
64224W        W36484  41.971  31.729  14.460
64225W        W36485  11.353   4.945  10.093
64226W        W36486  35.034  11.435  13.076
64227W        W36487  44.322   4.234  10.242
64228W        W36488  33.966  18.846   0.043
64229W        W36489  29.885   3.052   4.598
64230W        W36490  14.842  27.216  14.257
64231W        W36491  12.447   7.682   1.910
64232W        W36492  11.149  33.112  10.609
64233W        W36493  11.787  16.733  13.871
64234W        W36494  26.116  43.506   1.783
64235W        W36495  39.914  22.651   4.839
64236W        W36496  36.692  20.479   3.362
64237W        W36497  41.913  44.208  10.736
64238W        W36498  35.042   1.787   2.904
64239W        W36499  26.839   1.738   1.347
64240W        W36500  26.896  40.852   5.401
64241W        W36501  21.741  19.861   3.649
64242W        W36502  19.068  43.709   2.296
64243W        W36503  18.729  23.585   4.753
64244W        W36504   3.463  20.229  11.517
64245W        W36505  40.582  26.309  14.356
64246W        W36506  41.639  15.099   2.646
64247W        W36507  21.075  19.805   0.874
64248W        W36508  18.697   8.242   1.294
64249W        W36509   7.345  17.136   2.747
64250W        W36510  27.211  16.698  10.520
64251W        W36511   6.277   4.416   3.853
64252W        W36512  38.981  29.672   0.015
64253W        W36513  20.055   8.239   1.857
64254W        W36514  30.523   8.216   0.463
64255W        W36515  13.328   2.815  11.309
64256W        W36516  41.866   0.453   3.704
64257W        W36517  40.229   2.261   2.117
64258W        W36518   0.463  22.182   4.329
64259W        W36519  32.849   6.419   3.609
64260W        W36520  16.287  37.435  13.518
64261W        W36521  21.493   5.723   1.913
64262W        W36522  42.668  15.034  12.610
64263W        W36523  43.358  11.176   2.617
64264W        W36524   9.037  13.007  12.464
64265W        W36525  21.736  27.652  12.651
64266W        W36526  36.569  40.456  10.702
64267W        W36527  23.120  29.538   1.157
64268W        W36528  13.837  43.867   3.666
64269W        W36529  31.050  42.471  10.548
64270W        W36530  39.017  43.055   3.853
64271W        W36531  10.167   4.396   0.741
64272W        W36532   9.853  32.536  14.468
64273W        W36533  12.757  27.551  11.431
64274W        W36534  11.636   7.230   4.544
64275W        W36535  24.136   3.208   4.079
64276W        W36536   6.605  27.136   0.707
64277W        W36537  41.081  26.426  12.616
64278W        W36538  19.421   1.155   4.467
64279W        W36539   0.449  23.270  13.567
64280W        W36540  20.095  27.708  14.375
64281W        W36541   7.607  41.011   2.679
64282W        W36542  21.494   0.793  11.404
64283W        W36543  19.094  27.508  11.931
64284W        W36544  24.719  26.559   0.438
64285W        W36545  19.116  35.915  12.761
64286W        W36546  38.088   1.585  12.045
64287W        W36547   7.204  39.482   3.390
64288W        W36548   9.641  31.498   1.992
64289W        W36549   3.240  35.522  13.429
64290W        W36550  32.383  23.643   4.728
64291W        W36551  26.977   9.453  11.531
64292W        W36552   2.500  15.113   1.104
64293W        W36553  36.132  28.130  14.720
64294W        W36554  36.499   6.730   1.656
64295W        W36555  31.433  20.701  14.065
64296W        W36556   6.897  26.016   0.928
64297W        W36557  11.816  28.838  12.691
64298W        W36558  33.682  21.467  10.053
64299W        W36559  25.339  16.658  12.028
64300W        W36560  17.127  32.036  13.901
64301W        W36561  20.758  21.745  11.481
64302W        W36562  24.868  32.145   2.701
64303W        W36563   9.769  29.466   2.206
64304W        W36564  17.778  40.804   0.869
64305W        W36565   1.904  18.471   0.497
64306W        W36566   9.717  15.232  11.999
64307W        W36567  23.545  44.863   1.818
64308W        W36568   0.426  34.085   2.603
64309W        W36569  31.902  31.739  13.558
64310W        W36570  22.026  44.825   2.816
64311W        W36571  35.573  17.640   1.738
64312W        W36572  10.385   2.033   0.361
64313W        W36573  35.692  39.044  13.327
64314W        W36574  27.220  41.512   5.498
64315W        W36575  28.556  24.393   1.597
64316W        W36576   9.368  17.794  13.397
64317W        W36577  21.436  26.989   4.687
64318W        W36578  42.935  12.199  11.564
64319W        W36579  22.410  23.493  10.783
64320W        W36580   6.663  35.416  11.206
64321W        W36581  12.289  25.155   4.027
64322W        W36582  30.682  35.658   1.240
64323W        W36583  23.753   1.846   1.053
64324W        W36584  15.894  28.910   2.283
64325W        W36585   2.734  33.872  10.698
64326W        W36586  14.647  36.957  12.645
64327W        W36587   6.871  34.382   4.040
64328W        W36588  41.890   5.300   1.016
64329W        W36589   3.386  27.641  12.361
64330W        W36590  12.897  31.705  14.613
64331W        W36591   6.885   0.223  14.281
64332W        W36592  27.729  43.340   0.318
64333W        W36593   2.341  11.720  14.117
64334W        W36594  16.719  35.539  11.426
64335W        W36595   1.457  26.662  14.850
64336W        W36596   0.847  11.246   0.959
64337W        W36597  10.274  11.456  12.096
64338W        W36598  20.654  37.520   4.989
64339W        W36599   7.918   5.316  13.548
64340W        W36600  40.866  19.745  13.891
64341W        W36601  38.104   1.477   1.379
64342W        W36602  42.960   5.449  13.488
64343W        W36603  32.490  44.988  11.492
64344W        W36604  21.169   9.940  10.193
64345W        W36605   0.612   0.370  13.427
64346W        W36606  21.860  20.795   4.254
64347W        W36607  10.196  33.651   3.152
64348W        W36608  26.624   7.391   4.606
64349W        W36609   4.913  22.070   2.846
64350W        W36610   2.763  38.329   3.171
64351W        W36611   3.307  35.914   3.754
64352W        W36612  21.118   9.740  10.709
64353W        W36613  20.362  25.478  13.780
64354W        W36614  27.482  16.180   0.375
64355W        W36615   9.410  18.780   2.612
64356W        W36616  13.230  28.906   2.311
64357W        W36617  22.591  15.833   1.197
64358W        W36618  36.001   7.445   0.003
64359W        W36619  20.239  43.226   4.166
64360W        W36620  27.663  42.403  11.720
64361W        W36621  23.593  40.324   3.192
64362W        W36622  37.053  36.816  10.900
64363W        W36623  34.069  38.439   2.309
64364W        W36624  28.828  31.356   0.846
64365W        W36625  44.986  22.314   1.917
64366W        W36626  43.367  38.514   2.821
64367W        W36627  16.520  41.860  13.946
64368W        W36628  41.743  11.655  14.562
64369W        W36629  43.984   2.483   1.828
64370W        W36630  27.620  33.191  13.050
64371W        W36631  39.896  42.851   2.376
64372W        W36632  37.953  33.860   2.378
64373W        W36633  14.760  37.304   3.153
64374W        W36634  14.825  22.141  14.413
64375W        W36635  23.027  17.081  12.988
64376W        W36636   7.320  33.623   2.292
64377W        W36637   5.893  40.070   2.005
64378W        W36638  18.682  24.607  14.525
64379W        W36639  15.361  10.801  10.534
64380W        W36640  33.432   9.185  12.759
64381W        W36641  28.012  15.613  10.448
64382W        W36642  25.652   4.722  10.022
64383W        W36643  19.766  38.560  12.583
64384W        W36644  34.511  32.184   0.323
64385W        W36645  23.223   3.114   1.991
64386W        W36646  18.588  44.834  12.042
64387W        W36647  16.205  15.397   1.839
64388W        W36648  26.154  14.558  11.215
64389W        W36649  30.687  36.424   4.175
64390W        W36650  41.300  33.841   1.192
64391W        W36651  14.873  24.530   2.711
64392W        W36652  13.700  16.601  13.448
64393W        W36653   9.336  34.472   3.677
64394W        W36654  34.580  16.162  12.159
64395W        W36655  16.518  26.062   2.849
64396W        W36656  15.795  17.746  11.156
64397W        W36657  44.877  33.571   2.258
64398W        W36658  14.655  37.353  10.873
64399W        W36659  40.837  15.695   0.417
64400W        W36660  18.026   0.774   4.228
64401W        W36661  12.299  19.705  10.714
64402W        W36662   2.051  23.039   3.316
64403W        W36663  39.073  35.826  10.806
64404W        W36664  40.033  19.845  12.469
64405W        W36665  16.115  30.937   0.110
64406W        W36666  20.221  37.975   1.358
64407W        W36667  31.172  33.981  13.338
64408W        W36668  11.185  22.263   3.243
64409W        W36669   0.207  40.322   0.840
64410W        W36670  30.588  33.694   1.248
64411W        W36671  11.028  41.442  11.917
64412W        W36672  30.897  12.355  11.224
64413W        W36673  37.317  14.235  10.657
64414W        W36674   8.263   4.546   1.323
64415W        W36675  24.008  40.300  12.034
64416W        W36676  14.230  32.108   0.294
64417W        W36677   2.984  40.268   2.342
64418W        W36678  12.372  42.891   1.528
64419W        W36679   3.055  34.064   2.294
64420W        W36680  15.282   5.122   2.389
64421W        W36681  35.251  29.499   2.256
64422W        W36682   5.291  15.792   4.238
64423W        W36683  31.331  39.288  13.984
64424W        W36684  42.797  32.077  10.490
64425W        W36685  28.171  19.989  11.189
64426W        W36686  36.303  30.096  10.626
64427W        W36687  34.563  17.613  14.936
64428W        W36688  23.221  13.032  12.575
64429W        W36689  27.590  21.556   4.570
64430W        W36690  25.632   8.286   3.377
64431W        W36691  18.009  13.784  11.924
64432W        W36692  20.276  26.198   3.645
64433W        W36693  26.288  34.416   0.471
64434W        W36694  19.239  38.008   0.348
64435W        W36695  25.441  27.423  14.978
64436W        W36696  21.061   2.758   1.378
64437W        W36697   7.638  40.790  12.993
64438W        W36698   0.924   9.795   3.653
64439W        W36699  33.871   9.852  12.494
64440W        W36700  29.805  17.494  13.972
64441W        W36701  24.117  15.735  12.900
64442W        W36702  22.148  21.867  12.666
64443W        W36703  20.218  19.193  13.796
64444W        W36704  37.468  26.583  10.294
64445W        W36705  32.541  32.045  10.622
64446W        W36706   7.312  40.102  11.572
64447W        W36707  12.530   7.238   3.333
64448W        W36708  27.062  36.751  13.405
64449W        W36709  12.601  37.445  14.653
64450W        W36710  39.507  37.119  10.514
64451W        W36711  31.589  36.467   1.882
64452W        W36712  43.555   0.466   1.842
64453W        W36713  31.002  43.733  13.398
64454W        W36714  31.373  17.613  12.551
64455W        W36715  20.260  33.373  10.077
64456W        W36716  14.368  30.175   5.043
64457W        W36717  25.406   2.878  11.019
64458W        W36718  35.003  33.108   5.084
64459W        W36719  24.762  10.210   0.846
64460W        W36720   0.855   7.326  13.451
64461W        W36721   3.642  29.287  14.787
64462W        W36722  28.136  13.898   5.077
64463W        W36723  20.470  27.108   4.522
64464W        W36724  28.936  14.369   4.597
64465W        W36725   5.060  18.131  11.233
64466W        W36726  36.508  27.720   4.417
64467W        W36727  39.832  12.343  14.019
64468W        W36728   4.973  36.099  13.554
64469W        W36729  36.513  23.722  12.959
64470W        W36730  20.177   8.476   3.880
64471W        W36731  39.957  10.738  14.646
64472W        W36732   8.878  14.097   0.833
64473W        W36733  41.471  31.956  14.357
64474W        W36734  43.465  39.493  12.548
64475W        W36735  35.609  23.759   2.752
64476W        W36736  41.356  21.149   1.403
64477W        W36737  26.155  36.945  11.163
64478W        W36738   4.184  27.171   2.734
64479W        W36739  11.911  42.216   2.803
64480W        W36740  24.455  18.317   1.472
64481W        W36741   6.333  22.513  11.575
64482W        W36742   1.863  35.129  13.054
64483W        W36743  10.327  13.195   1.573
64484W        W36744  35.340  35.627   2.206
64485W        W36745  20.715  13.561  12.912
64486W        W36746  43.809  16.307  10.445
64487W        W36747   1.470  12.256   2.339
64488W        W36748  34.076  21.503   0.817
64489W        W36749  32.480  21.797   4.088
64490W        W36750   9.536  37.519   2.897
64491W        W36751  21.501   2.380  13.342
64492W        W36752  44.449   3.445  14.293
64493W        W36753  19.620  43.305  11.325
64494W        W36754  31.400   0.435   1.793
64495W        W36755  20.334  43.572   0.650
64496W        W36756   4.867  22.395  13.049
64497W        W36757  16.151  10.375   4.429
64498W        W36758  24.008  40.515  13.921
64499W        W36759  42.365  16.620   3.894
64500W        W36760  37.876  16.340   2.224
64501W        W36761  14.240  27.946  14.485
64502W        W36762   7.822  21.357  11.048
64503W        W36763  18.921  27.579   1.084
64504W        W36764  12.341  39.540   2.355
64505W        W36765   0.217  11.489   2.391
64506W        W36766  14.890  18.598  13.465
64507W        W36767  23.811  12.879   4.132
64508W        W36768   5.698  24.500   0.866
64509W        W36769  33.183   8.174  12.343
64510W        W36770  12.369  35.764  12.473
64511W        W36771  26.704  44.467   1.418
64512W        W36772  22.467  20.948   4.254
64513W        W36773  39.830  42.199   0.484
64514W        W36774  30.585  24.160  13.361
64515W        W36775  14.541  41.859  12.941
64516W        W36776  43.754  43.135   0.469
64517W        W36777  36.129  39.958  11.549
64518W        W36778  25.495  28.468   3.815
64519W        W36779   7.371  37.073   1.985
64520W        W36780  22.440   2.359   2.313
64521W        W36781   2.389   1.960   3.698
64522W        W36782  15.668   8.955   2.241
64523W        W36783  22.158  33.182  10.934
64524W        W36784  43.510   4.780  10.164
64525W        W36785  28.427  28.590  13.284
64526W        W36786  37.506  43.487   0.119
64527W        W36787  11.723  36.435  14.083
64528W        W36788  25.302  37.854  13.245
64529W        W36789  43.793  10.699  13.545
64530W        W36790   4.190  27.262  14.797
64531W        W36791  39.386  24.130   4.151
64532W        W36792  25.080  28.142   3.759
64533W        W36793  23.683   8.439   3.328
64534W        W36794  27.063  32.518   2.147
64535W        W36795   5.327  32.124  11.513
64536W        W36796   5.270  30.926  13.562
64537W        W36797  27.730   7.259  13.448
64538W        W36798  26.825  10.380  13.502
64539W        W36799  38.059  34.010   1.421
64540W        W36800  25.748  28.820  13.807
64541W        W36801  14.176   3.661  13.869
64542W        W36802  13.449  35.372  13.274
64543W        W36803  44.802  39.371   4.419
64544W        W36804  22.630  33.557  12.899
64545W        W36805  28.836  10.248   4.297
64546W        W36806  14.785  10.387  13.013
64547W        W36807  14.665  39.499  12.768
64548W        W36808  19.154  31.488  14.852
64549W        W36809  43.757  19.813  13.864
64550W        W36810   3.536   5.619  13.374
64551W        W36811  13.277  44.947   3.792
64552W        W36812  29.874   3.468  11.773
64553W        W36813  24.650  37.553  14.443
64554W        W36814  30.948  11.186   3.883
64555W        W36815  19.590  19.770   3.978
64556W        W36816   4.819  24.964  13.809
64557W        W36817  37.403  39.603   4.106
64558W        W36818  41.300  35.163   3.995
64559W        W36819  39.019   2.981   1.864
64560W        W36820   9.587  19.038  14.960
64561W        W36821  30.477  28.558  13.596
64562W        W36822  23.232  29.408  12.470
64563W        W36823  31.588  21.858   1.727
64564W        W36824   4.491   8.411   4.760
64565W        W36825  16.005  44.728  14.029
64566W        W36826  12.680  20.952  12.918
64567W        W36827  42.836  23.478  12.857
64568W        W36828  34.896  31.419  12.526
64569W        W36829  17.086  13.245   3.006
64570W        W36830  17.537  20.025  11.198
64571W        W36831  42.742  36.709   1.194
64572W        W36832  40.030   3.503   1.858
64573W        W36833  38.791  25.695   1.340
64574W        W36834  12.439  41.441   0.892
64575W        W36835   5.713  31.352   0.861
64576W        W36836  28.387  27.818  13.680
64577W        W36837   6.739  43.273  10.680
64578W        W36838  39.415  40.881   2.607
64579W        W36839  39.882  23.205  14.919
64580W        W36840   1.680  40.847   4.295
64581W        W36841  35.711  20.491  10.208
64582W        W36842  24.476  30.041  14.048
64583W        W36843  15.209  10.665  12.913
64584W        W36844  17.818   3.868   3.189
64585W        W36845  23.195  38.898  14.296
64586W        W36846  31.912   0.761   1.360
64587W        W36847  12.459  36.975   3.621
64588W        W36848  20.220  31.457   4.411
64589W        W36849  41.996  10.742   3.121
64590W        W36850  10.743   6.668  14.451
64591W        W36851   6.218  14.190   1.746
64592W        W36852  14.737   6.198   0.516
64593W        W36853  25.482   0.393   4.228
64594W        W36854   7.980   0.056   3.127
64595W        W36855  18.690  13.706   1.363
64596W        W36856  17.791  24.472  14.489
64597W        W36857  20.832  23.152   2.826
64598W        W36858   5.695  22.055  14.292
64599W        W36859   4.119   5.380   4.058
64600W        W36860  16.671  21.084   1.211
64601W        W36861  37.542  38.065   4.057
64602W        W36862  12.303  36.457   1.454
64603W        W36863  27.413   4.884   4.526
64604W        W36864  27.706  40.960  11.978
64605W        W36865  26.913  38.605   3.270
64606W        W36866  43.069  22.720  11.978
64607W        W36867  39.282  42.891  14.053
64608W        W36868  23.647  16.611  11.493
64609W        W36869  18.502  11.255   4.348
64610W        W36870  14.303   3.435   1.192
64611W        W36871  44.707  19.560   0.354
64612W        W36872  18.106  36.353   1.818
64613W        W36873  21.974   4.961  14.108
64614W        W36874  44.493  36.779   9.994
64615W        W36875   6.832  36.777   0.849
64616W        W36876  12.072  34.881  12.174
64617W        W36877  21.771  22.136  10.134
64618W        W36878  23.224   8.342  11.057
64619W        W36879   2.127   1.860   4.131
64620W        W36880  35.275  27.168   4.684
64621W        W36881   8.266  26.638  14.426
64622W        W36882  18.500  10.537  13.854
64623W        W36883  22.211  15.022   0.981
64624W        W36884  31.173  12.369  13.151
64625W        W36885   3.792  12.880  12.400
64626W        W36886  36.973   4.651   3.183
64627W        W36887  32.888  42.461  12.983
64628W        W36888  40.914  23.511   1.370
64629W        W36889  24.394  26.993  14.246
64630W        W36890  43.674   6.437  14.352
64631W        W36891  22.080  24.807   1.908
64632W        W36892  40.135  37.381   2.382
64633W        W36893   5.436  25.648   3.138
64634W        W36894  34.422  39.939   0.493
64635W        W36895  39.991  41.789  12.108
64636W        W36896  27.849  44.330  11.909
64637W        W36897  18.298  11.900  14.841
64638W        W36898   0.129  17.883   1.394
64639W        W36899  33.382  25.677   3.325
64640W        W36900  16.258  25.288  12.091
64641W        W36901  35.526  33.334   1.832
64642W        W36902  15.098   4.897   1.943
64643W        W36903  41.869   6.427   0.760
64644W        W36904  12.023   5.181   3.225
64645W        W36905  17.668  33.132   0.677
64646W        W36906  25.770  34.440   0.538
64647W        W36907  22.551  27.450   4.171
64648W        W36908  25.780  10.896  11.544
64649W        W36909  21.250  27.519   3.105
64650W        W36910  40.014   7.034  12.364
64651W        W36911  18.531  44.485   2.372
64652W        W36912  43.529  29.402   0.590
64653W        W36913  41.795  38.092  13.399
64654W        W36914  29.235  24.243   0.747
64655W        W36915  29.000   1.325  14.705
64656W        W36916  35.281   8.065  12.062
64657W        W36917  34.155  32.255   3.757
64658W        W36918  38.841   2.374   3.818
64659W        W36919  31.555  26.547  12.311
64660W        W36920  34.158   2.444  12.043
64661W        W36921  32.210  37.551  13.504
64662W        W36922  41.925  27.190   3.887
64663W        W36923  13.342  12.188   4.844
64664W        W36924   8.560  29.973  13.474
64665W        W36925  35.405  31.752  14.611
64666W        W36926  32.552  15.752   0.133
64667W        W36927  26.670  20.575  11.087
64668W        W36928  43.080  23.543  13.870
64669W        W36929  20.731  21.295   5.578
64670W        W36930  10.851  11.112   2.817
64671W        W36931  15.717   8.756  11.904
64672W        W36932  16.208   4.935   9.971
64673W        W36933  27.465  23.150   1.637
64674W        W36934   6.895  26.945  10.388
64675W        W36935   0.817   9.753   4.159
64676W        W36936   5.746  44.497  11.732
64677W        W36937   3.945  11.521  11.217
64678W        W36938  22.900  21.248   3.629
64679W        W36939  20.089  26.426   1.953
64680W        W36940  35.985  35.434   3.267
64681W        W36941  39.755  14.258  12.121
64682W        W36942  14.589  16.828   4.652
64683W        W36943   9.338   8.605   1.337
64684W        W36944  10.826  26.959  13.496
64685W        W36945   4.191  24.459  13.402
64686W        W36946  11.611   6.394  10.690
64687W        W36947   3.830   8.449  13.737
64688W        W36948   9.127  41.873   2.336
64689W        W36949   4.665  14.620   2.880
64690W        W36950   8.531   3.972   2.577
64691W        W36951  42.024  31.623   2.750
64692W        W36952  25.198   1.894  11.477
64693W        W36953  26.175   6.811  12.346
64694W        W36954  18.809  36.879   0.056
64695W        W36955  18.577   0.856   0.957
64696W        W36956  20.868   5.050  13.282
64697W        W36957  19.520   4.340  11.679
64698W        W36958  24.046   8.591   0.631
64699W        W36959  27.575  17.702  14.275
64700W        W36960   1.019   8.986   1.605
64701W        W36961  43.483  33.848  12.610
64702W        W36962  43.457  38.607   0.420
64703W        W36963  31.589   0.240  13.891
64704W        W36964   0.889  35.784  12.546
64705W        W36965  44.203  12.457   0.185
64706W        W36966  38.920  12.038  14.036
64707W        W36967  37.351   3.920   1.234
64708W        W36968   0.720  23.569   3.288
64709W        W36969  42.394  36.885  10.690
64710W        W36970  20.050   6.907  13.055
64711W        W36971  31.403  13.426  10.675
64712W        W36972   5.076  26.833   2.013
64713W        W36973  15.845  22.617  12.976
64714W        W36974  21.574  23.472   4.557
64715W        W36975   1.908  23.653   1.222
64716W        W36976  17.820   3.311   1.391
64717W        W36977  41.119  31.192   1.004
64718W        W36978  13.604  30.968   2.753
64719W        W36979   6.395  12.814  10.174
64720W        W36980  17.860  12.842   0.575
64721W        W36981  36.671  17.159   3.381
64722W        W36982  11.035  37.985  14.813
64723W        W36983  43.373  33.507  10.411
64724W        W36984  21.244   9.178   4.404
64725W        W36985  18.611  17.120  14.236
64726W        W36986  18.941  31.240  11.623
64727W        W36987  24.869  37.613  13.961
64728W        W36988  39.388  22.489  10.336
64729W        W36989  16.484  24.129   1.381
64730W        W36990  36.034  40.959  12.887
64731W        W36991  29.407   5.137   4.581
64732W        W36992  44.743  35.666  14.514
64733W        W36993  11.422  25.635  12.657
64734W        W36994  36.310  24.634   3.682
64735W        W36995  20.873  35.463   1.417
64736W        W36996  20.312  23.952   4.172
64737W        W36997   3.279   4.754  13.250
64738W        W36998  26.669  14.269  13.331
64739W        W36999  44.878   1.332   3.637
64740W        W37000  18.758  34.041   2.442
64741W        W37001  35.962  21.282  11.197
64742W        W37002   0.407  39.773  14.965
64743W        W37003  37.120  21.160   3.697
64744W        W37004  15.566   4.896  14.942
64745W        W37005  17.169   8.098  13.888
64746W        W37006  10.358  19.251   3.784
64747W        W37007  17.228   1.235  13.476
64748W        W37008  21.995  31.478   0.985
64749W        W37009  31.702   0.299   3.194
64750W        W37010  33.316   7.693  12.158
64751W        W37011  13.803   4.484   2.328
64752W        W37012  36.498  12.749   4.061
64753W        W37013   5.196  21.109   3.668
64754W        W37014  20.946  16.084   0.510
64755W        W37015   0.107   1.785  11.096
64756W        W37016  40.404  16.089   2.222
64757W        W37017  44.858  33.415  12.573
64758W        W37018  37.899  43.757  10.774
64759W        W37019   4.208  14.646   3.157
64760W        W37020   2.900   2.164  13.476
64761W        W37021  31.105  21.157  14.551
64762W        W37022  12.382  22.641  12.002
64763W        W37023  26.633  20.669  13.475
64764W        W37024  41.020  11.323   3.697
64765W        W37025  29.934  33.542  11.144
64766W        W37026  18.053   5.835   5.540
64767W        W37027  20.499  10.234   4.300
64768W        W37028  30.692  14.710   4.534
64769W        W37029  13.366  34.907   3.726
64770W        W37030  27.451   6.301  11.223
64771W        W37031  16.583   7.628   1.692
64772W        W37032  37.441  21.096  11.658
64773W        W37033  43.870  39.500   1.200
64774W        W37034   9.280  25.684   3.525
64775W        W37035  14.685  17.237   9.763
64776W        W37036   4.862   6.147   5.026
64777W        W37037  32.891   1.252  11.567
64778W        W37038   2.753  19.208  12.742
64779W        W37039  11.867  29.577  13.445
64780W        W37040   2.516  42.376   4.746
64781W        W37041  31.073  18.190  13.284
64782W        W37042  19.711  23.798  13.936
64783W        W37043  44.356  13.069  10.698
64784W        W37044   4.996  32.613   0.372
64785W        W37045  25.861  40.679   0.010
64786W        W37046   6.434  22.236   1.716
64787W        W37047  15.088   7.677   2.699
64788W        W37048  19.440   8.252   9.805
64789W        W37049  22.814   9.886  12.874
64790W        W37050   4.949   0.611  13.348
64791W        W37051  34.344   3.942   5.020
64792W        W37052   4.461  17.772   2.887
64793W        W37053  40.932  18.080   3.448
64794W        W37054  43.646  36.904   2.188
64795W        W37055  33.138  17.227  14.210
64796W        W37056   1.406  25.756  14.414
64797W        W37057  28.521  30.374   4.490
64798W        W37058   0.791  23.139   4.216
64799W        W37059  17.442  22.668  10.155
64800W        W37060   3.789  26.629   3.505
64801W        W37061   7.875  17.592  11.244
64802W        W37062  32.356   7.351   0.365
64803W        W37063  28.723  37.368   0.644
64804W        W37064  33.834   4.994   4.305
64805W        W37065  24.639  24.717  13.955
64806W        W37066  24.782  39.348   0.802
64807W        W37067  19.509  32.936   0.860
64808W        W37068  43.809  31.948   4.655
64809W        W37069  23.384  15.779  12.572
64810W        W37070   7.718  11.242  14.424
64811W        W37071  18.553  35.294  12.568
64812W        W37072  17.330  12.596   2.718
64813W        W37073  43.839  13.772  12.503
64814W        W37074   9.374  34.848  13.970
64815W        W37075  26.519  26.499   0.566
64816W        W37076  43.772  22.874   0.441
64817W        W37077   6.783  18.320  14.008
64818W        W37078  32.893  23.503  13.430
64819W        W37079  24.579  26.138   4.920
64820W        W37080  29.322  25.714  13.894
64821W        W37081   9.551  18.757  14.269
64822W        W37082  24.460   3.183  12.859
64823W        W37083  24.456  44.374  12.530
64824W        W37084  23.254  41.508  12.387
64825W        W37085  16.703  17.792   2.314
64826W        W37086  44.766  36.005  12.108
64827W        W37087  24.224  44.887   1.517
64828W        W37088  16.283  33.787  11.121
64829W        W37089  21.515   5.812  14.553
64830W        W37090  21.298  23.039  13.389
64831W        W37091  33.819  28.607   3.144
64832W        W37092  11.343  32.790   3.617
64833W        W37093  21.925  16.196  14.318
64834W        W37094  18.272  24.626   2.344
64835W        W37095   5.121  11.773  10.678
64836W        W37096  11.137  22.157  11.753
64837W        W37097  25.311  38.775  13.253
64838W        W37098  18.948   6.986  11.420
64839W        W37099  25.072   7.860   0.297
64840W        W37100  39.106   3.450  11.561
64841W        W37101  27.553  21.121  11.233
64842W        W37102  32.878   4.416  11.857
64843W        W37103  27.397  17.502   1.272
64844W        W37104  18.600   9.381  11.553
64845W        W37105  11.463  10.750   3.053
64846W        W37106  23.273  32.909   0.257
64847W        W37107  12.357   2.925   0.510
64848W        W37108  40.072  19.514   1.034
64849W        W37109  39.599  23.777  14.309
64850W        W37110  31.956  41.267   2.705
64851W        W37111  30.682  16.255   1.676
64852W        W37112   2.932   7.218  12.835
64853W        W37113  44.381   5.200   1.197
64854W        W37114  29.586  26.655   1.900
64855W        W37115  21.812  39.291  14.298
64856W        W37116  17.431  19.312   9.794
64857W        W37117  31.277  18.236   3.757
64858W        W37118  32.648   5.959   1.938
64859W        W37119  34.534  15.240   2.642
64860W        W37120  14.506   6.630   2.231
64861W        W37121  23.079   6.091   0.436
64862W        W37122  40.616  41.334  10.714
64863W        W37123  25.624  28.210   1.941
64864W        W37124  33.079   2.646   0.437
64865W        W37125  32.766  25.096   1.750
64866W        W37126  39.621   0.774   3.871
64867W        W37127   7.743   4.484   0.797
64868W        W37128   0.411  27.174   3.737
64869W        W37129   6.612   9.130  13.382
64870W        W37130  39.559  34.508  11.946
64871W        W37131  18.576  11.428  14.501
64872W        W37132   1.209  10.287   3.589
64873W        W37133  20.469  35.857   5.155
64874W        W37134  40.040  25.649  13.400
64875W        W37135  24.099  14.800  14.096
64876W        W37136   8.740  11.472  12.163
64877W        W37137  19.582  18.145  12.071
64878W        W37138  27.577  13.844  12.046
64879W        W37139  31.633   8.715   2.191
64880W        W37140  27.548   9.933  11.063
64881W        W37141  37.910  14.819  14.556
64882W        W37142  43.030  39.930   0.165
64883W        W37143  37.559  30.678  10.741
64884W        W37144  42.716   2.384  10.641
64885W        W37145  12.635   5.925  12.641
64886W        W37146  29.744  40.335  10.865
64887W        W37147  25.023  28.245   1.230
64888W        W37148   1.063   4.191  12.553
64889W        W37149  11.344  37.831   2.772
64890W        W37150  31.066   5.346  13.546
64891W        W37151  13.076  36.665  14.012
64892W        W37152  22.197  36.872  12.109
64893W        W37153  19.968  40.291   3.031
64894W        W37154   2.704  30.074  13.044
64895W        W37155  38.308  44.941   0.197
64896W        W37156  39.982  10.676   1.512
64897W        W37157  16.063   4.900   0.061
64898W        W37158   5.503  43.694  14.412
64899W        W37159   2.809  22.997  14.165
64900W        W37160   4.457   1.556   4.663
64901W        W37161   6.978  18.247   0.366
64902W        W37162   0.992   3.854   3.597
64903W        W37163  24.239  31.627   3.698
64904W        W37164   9.159  33.097  13.357
64905W        W37165   3.140  10.425  10.849
64906W        W37166  13.327  23.706  12.112
64907W        W37167  11.851   4.934   4.178
64908W        W37168  15.549  38.564   0.021
64909W        W37169  23.440  25.176   2.902
64910W        W37170  24.072   1.262  13.040
64911W        W37171  31.857   8.338   4.225
64912W        W37172   7.342  29.033  12.960
64913W        W37173  41.730  27.064  12.341
64914W        W37174  34.603  40.864  11.710
64915W        W37175  32.677   8.386   3.186
64916W        W37176  36.330   0.961   0.217
64917W        W37177   6.359  27.220  13.014
64918W        W37178   6.731   4.699   4.629
64919W        W37179  34.409  44.984   3.659
64920W        W37180  42.252  29.875   2.900
64921W        W37181   7.720  19.831   1.355
64922W        W37182  29.443  23.455   4.068
64923W        W37183  27.502  19.897  12.064
64924W        W37184  16.037  21.264   3.141
64925W        W37185  28.478  32.896  14.922
64926W        W37186  39.103  43.580   9.894
64927W        W37187  43.540  44.841   0.962
64928W        W37188  36.615   8.125   5.008
64929W        W37189  19.974  10.712   2.814
64930W        W37190  44.248  34.304  14.445
64931W        W37191  40.481  10.162   1.062
64932W        W37192  33.457  33.130   2.182
64933W        W37193  18.735  29.631   3.748
64934W        W37194  31.112   6.460   5.059
64935W        W37195   1.444  14.695  14.988
64936W        W37196   5.050   8.631   2.755
64937W        W37197  23.300  37.689   0.872
64938W        W37198  42.369  38.879  10.686
64939W        W37199  16.087   6.736   4.590
64940W        W37200   8.596  35.874   1.316
64941W        W37201  29.954  40.026  14.894
64942W        W37202  30.987  44.939   0.575
64943W        W37203  22.225  28.179   0.895
64944W        W37204  33.584  10.766  11.433
64945W        W37205   3.787  25.639  10.971
64946W        W37206  13.742  30.201   0.303
64947W        W37207  42.959  38.330  12.571
64948W        W37208   4.390  12.884   2.732
64949W        W37209  27.411  19.500   5.290
64950W        W37210   2.109  38.647  11.104
64951W        W37211  37.432   9.582  10.921
64952W        W37212  10.541  32.077   1.205
64953W        W37213  10.609  20.755  13.049
64954W        W37214  11.968  17.376   1.231
64955W        W37215  23.677   9.683  12.948
64956W        W37216  31.096  23.301  13.985
64957W        W37217  23.206  10.168   2.249
64958W        W37218  16.651   0.773  13.822
64959W        W37219   4.414  38.920   0.811
64960W        W37220  30.591  23.657  11.736
64961W        W37221   2.347  18.289  14.258
64962W        W37222   8.714  39.801   2.333
64963W        W37223  31.460   7.725  14.223
64964W        W37224   8.262   5.196  14.789
64965W        W37225   7.966  37.446   1.302
64966W        W37226  17.754  35.799   2.761
64967W        W37227  43.007  32.576   2.719
64968W        W37228   3.714  11.281  13.390
64969W        W37229  18.616  11.659   1.245
64970W        W37230   6.649   2.918   3.627
64971W        W37231  15.357  20.093   1.940
64972W        W37232  25.586  32.022  13.884
64973W        W37233  27.899   1.267  14.901
64974W        W37234  34.829  34.289  11.244
64975W        W37235  23.707  44.959  11.692
64976W        W37236  44.012  27.105   3.611
64977W        W37237   5.355  15.631  13.747
64978W        W37238   2.201  28.403   3.710
64979W        W37239   4.273   6.316   4.327
64980W        W37240  41.332   2.050   0.689
64981W        W37241  33.537  24.127  12.363
64982W        W37242   6.976  40.259   1.881
64983W        W37243   9.089  22.723   1.755
64984W        W37244  33.579  32.997   1.691
64985W        W37245  42.813  44.564   5.051
64986W        W37246  25.234   3.399  13.017
64987W        W37247   1.260  37.216  10.945
64988W        W37248  26.332  10.828  10.698
64989W        W37249  26.172  24.245  14.270
64990W        W37250   3.759  37.964  10.733
64991W        W37251  42.239  30.457  11.438
64992W        W37252  23.586  37.806   1.686
64993W        W37253  37.386   7.389  13.406
64994W        W37254  19.386   7.703   1.932
64995W        W37255  35.931  16.782   4.146
64996W        W37256  22.696  32.183  10.656
64997W        W37257  38.588  10.033   2.847
64998W        W37258  37.966   0.023  11.920
64999W        W37259  26.623  25.167   2.754
65000W        W37260  29.901  39.021   1.795
65001W        W37261  37.940  20.047  11.723
65002W        W37262  33.167  15.180  10.635
65003W        W37263   0.040   6.224  13.602
65004W        W37264   5.275  34.316   2.381
65005W        W37265  25.592  12.812  13.310
65006W        W37266  30.918  13.275  10.363
65007W        W37267   9.380  16.139  10.735
65008W        W37268  34.420   4.999  13.099
65009W        W37269  29.682  23.969   3.995
65010W        W37270   4.680  29.546   3.512
65011W        W37271  25.847  32.663  11.618
65012W        W37272  37.561   6.328   3.768
65013W        W37273  25.683  16.107   4.713
65014W        W37274   2.337  12.746   0.193
65015W        W37275  28.997  30.574   4.344
65016W        W37276  26.230  15.205  14.360
65017W        W37277  20.859  24.380  12.927
65018W        W37278  14.700  18.011  10.723
65019W        W37279  17.639  14.776  13.806
65020W        W37280  29.270  31.906  13.859
65021W        W37281  18.698   0.424   2.462
65022W        W37282  22.400  23.105   1.233
65023W        W37283  10.895  25.879   0.757
65024W        W37284  18.076  12.132  13.389
65025W        W37285  37.970  36.376  13.086
65026W        W37286  17.378   2.446  13.742
65027W        W37287  43.618  19.553  11.472
65028W        W37288  13.884  16.867  14.052
65029W        W37289   9.108  30.118  13.465
65030W        W37290  13.099   4.620  14.892
65031W        W37291  15.191  37.056  11.380
65032W        W37292   9.201  43.793   2.457
65033W        W37293   6.555   5.053  10.390
65034W        W37294  44.482  36.484  13.565
65035W        W37295  19.238  23.079   3.738
65036W        W37296  17.659  15.801   0.430
65037W        W37297  37.398   8.938  14.871
65038W        W37298  44.758   4.290  13.816
65039W        W37299  20.231  23.518   3.238
65040W        W37300  24.584  26.047  12.580
65041W        W37301  23.106  25.010   0.260
65042W        W37302  42.383  43.083  11.207
65043W        W37303  10.726  13.709  13.560
65044W        W37304  26.986   5.392  10.957
65045W        W37305   5.139  34.862  13.121
65046W        W37306  43.019  28.639   4.123
65047W        W37307  13.148   7.819   1.285
65048W        W37308  40.465  18.013   3.075
65049W        W37309   1.007  16.746  14.693
65050W        W37310   5.214  18.099  13.931
65051W        W37311   2.296   2.435  13.696
65052W        W37312  26.369   2.317   4.686
65053W        W37313   5.960  26.176   2.486
65054W        W37314  29.663  16.066  12.352
65055W        W37315  11.606  17.011   4.737
65056W        W37316  18.984  13.391   2.353
65057W        W37317   4.855   7.902  12.143
65058W        W37318   0.963  33.228   4.832
65059W        W37319  26.943   5.341   1.941
65060W        W37320  32.703  34.626  12.575
65061W        W37321  28.872  24.806  13.142
65062W        W37322  18.189  24.286   1.235
65063W        W37323  21.997  30.633  11.216
65064W        W37324   0.460  29.502  12.060
65065W        W37325  10.236  40.341   4.676
65066W        W37326   6.662  26.836  12.687
65067W        W37327  40.265  12.239   0.337
65068W        W37328  31.926   2.301   2.329
65069W        W37329  14.588  12.296  13.922
65070W        W37330  28.260  29.404  11.771
65071W        W37331  28.451  32.473   1.458
65072W        W37332  35.306  41.253   0.883
65073W        W37333   3.339   2.301   4.594
65074W        W37334  37.487   6.174   3.289
65075W        W37335   9.131  17.486  13.038
65076W        W37336  31.747  18.058   2.853
65077W        W37337  29.366  20.263  14.913
65078W        W37338  39.506  39.801   3.442
65079W        W37339   9.595  17.651  12.875
65080W        W37340  29.303  12.778  14.006
65081W        W37341  40.381  16.050  11.547
65082W        W37342  26.941  43.788   3.417
65083W        W37343  10.785  40.819  12.971
65084W        W37344  22.520  17.253   3.732
65085W        W37345  34.054   2.174   2.902
65086W        W37346  16.668  40.832   0.302
65087W        W37347  31.453  13.126  12.952
65088W        W37348  17.621  29.439   0.357
65089W        W37349  13.114  22.442  10.666
65090W        W37350  14.540  24.435  12.485
65091W        W37351  26.616  28.358  12.949
65092W        W37352  23.117  26.417   4.649
65093W        W37353  36.947  21.827   1.765
65094W        W37354  25.727  26.979   0.064
65095W        W37355  24.915  40.725  14.489
65096W        W37356  28.752   4.688  10.133
65097W        W37357   3.454   2.882  14.059
65098W        W37358  43.930  21.494  11.097
65099W        W37359  14.196  16.781   1.212
65100W        W37360  14.004   6.273   4.072
65101W        W37361  34.110  13.648   3.252
65102W        W37362   9.209   5.770   4.424
65103W        W37363  39.502  31.948   3.157
65104W        W37364  37.101  43.843   1.394
65105W        W37365  43.392  30.426   2.882
65106W        W37366  36.947  21.111   0.916
65107W        W37367  31.266  38.943  10.236
65108W        W37368  27.044  43.900  11.959
65109W        W37369  38.635  30.094  11.118
65110W        W37370   1.818  19.873  11.283
65111W        W37371   7.113  23.004  11.579
65112W        W37372  13.023  21.708  11.208
65113W        W37373  20.383  33.055  10.510
65114W        W37374   4.763  34.534   4.168
65115W        W37375  41.869  13.209   4.549
65116W        W37376  23.032   4.262   0.153
65117W        W37377   3.715  43.275  12.453
65118W        W37378   8.422  28.036  12.208
65119W        W37379  21.659  14.262   0.836
65120W        W37380  17.812  10.355  11.907
65121W        W37381  36.971  43.559   4.192
65122W        W37382  26.646  23.158  14.198
65123W        W37383  42.760  23.138  11.996
65124W        W37384  13.038  31.065   4.890
65125W        W37385  24.565  19.718  14.813
65126W        W37386  23.211  10.173   0.826
65127W        W37387   7.149  17.419  14.956
65128W        W37388  41.836  41.400   4.545
65129W        W37389  37.144  12.217  10.661
65130W        W37390  26.952  28.466  10.508
65131W        W37391  37.138  16.101   0.476
65132W        W37392  15.336  15.814  11.580
65133W        W37393   2.522  37.369   5.022
65134W        W37394  14.537  44.914   3.146
65135W        W37395   5.084  35.835  14.887
65136W        W37396  30.936   8.314  12.846
65137W        W37397  21.482  16.495  12.673
65138W        W37398  38.719  21.572  12.456
65139W        W37399  28.207   8.552  12.892
65140W        W37400  41.794  35.600  11.550
65141W        W37401   2.779  16.145  14.279
65142W        W37402  11.846  37.841   4.220
65143W        W37403  31.564  21.437   3.226
65144W        W37404   7.661   3.675  11.061
65145W        W37405   4.675  11.201   2.950
65146W        W37406  27.223  37.488   3.687
65147W        W37407  31.374  14.097  12.918
65148W        W37408   0.940  16.256  14.498
65149W        W37409   5.214   3.922  11.859
65150W        W37410   4.182  36.456   1.011
65151W        W37411  34.695  43.020  13.429
65152W        W37412  34.845  10.837  11.098
65153W        W37413  35.795  30.160   1.631
65154W        W37414  14.633   3.895   4.668
65155W        W37415  36.554  16.506  11.625
65156W        W37416   4.222  35.586   4.037
65157W        W37417  28.254   6.845   4.974
65158W        W37418   5.384  37.304  11.199
65159W        W37419  30.216   3.240   0.795
65160W        W37420  43.047  19.256  13.783
65161W        W37421  15.146  20.011  11.584
65162W        W37422  17.068   1.205  14.291
65163W        W37423  37.886  14.145   2.212
65164W        W37424  22.543  23.180  14.817
65165W        W37425  40.064   3.283   2.338
65166W        W37426  29.384  17.249   0.248
65167W        W37427   2.941  20.596  12.195
65168W        W37428   3.911  26.596  10.995
65169W        W37429  13.072  31.485  12.837
65170W        W37430  13.709  27.219  14.030
65171W        W37431  12.695  41.676  14.433
65172W        W37432  22.427  41.853   3.776
65173W        W37433  27.203  24.273  13.596
65174W        W37434  22.710  33.546  14.196
65175W        W37435  15.288  41.843  10.644
65176W        W37436   8.962  27.700   3.163
65177W        W37437  40.799  19.653  14.813
65178W        W37438  38.292  43.701  13.246
65179W        W37439   2.002  43.056  14.937
65180W        W37440  25.602  13.937   2.729
65181W        W37441  14.792  19.610   3.115
65182W        W37442   1.165  21.578  14.848
65183W        W37443  38.225   7.421   4.100
65184W        W37444  27.050  38.285   2.895
65185W        W37445  20.319  29.154  14.257
65186W        W37446  29.809  30.087  12.043
65187W        W37447  37.184  39.256   1.686
65188W        W37448  14.273   3.959  14.843
65189W        W37449   2.979   2.432   1.670
65190W        W37450  27.272  40.279   4.117
65191W        W37451  10.313   3.864  11.067
65192W        W37452  40.403   5.277  14.961
65193W        W37453  22.674  28.669   4.508
65194W        W37454   8.142  40.427  14.259
65195W        W37455  18.601  35.157  11.186
65196W        W37456  42.909   5.733  10.797
65197W        W37457   2.145  43.421  13.502
65198W        W37458  41.153  35.447  13.281
65199W        W37459   1.310  12.059   3.652
65200W        W37460  37.345  22.954  13.377
65201W        W37461  30.238   2.175   1.195
65202W        W37462   5.904  10.760   2.347
65203W        W37463  29.405  14.847  14.540
65204W        W37464  18.572  22.680   4.652
65205W        W37465  25.956  44.226   4.323
65206W        W37466  14.007  40.319   0.353
65207W        W37467  20.607   8.706  12.909
65208W        W37468  13.788   2.279  12.015
65209W        W37469   4.676  36.054  13.136
65210W        W37470  15.718   9.686   1.471
65211W        W37471  28.757  10.564   3.165
65212W        W37472  44.352   2.965  11.140
65213W        W37473  39.360  32.528  10.692
65214W        W37474  23.455  14.071  14.870
65215W        W37475  34.387  25.886  14.088
65216W        W37476   0.974  14.236   4.734
65217W        W37477   6.801  15.216   3.588
65218W        W37478   1.956  41.328   3.021
65219W        W37479   7.776  13.898   3.627
65220W        W37480  29.173  16.734  11.510
65221W        W37481  43.988  34.970   0.941
65222W        W37482  13.201  13.329   3.902
65223W        W37483   1.612  15.855   3.279
65224W        W37484  15.998   1.647   2.762
65225W        W37485  38.811  41.362   0.936
65226W        W37486  28.482  44.512  13.005
65227W        W37487   1.693  21.076   1.398
65228W        W37488  33.931   3.063  12.868
65229W        W37489  23.710  38.899  12.348
65230W        W37490   7.250   9.380   0.183
65231W        W37491   4.344   2.038   4.492
65232W        W37492   0.403  29.959   3.678
65233W        W37493  34.049   2.011  12.962
65234W        W37494  43.420  11.150  11.118
65235W        W37495  14.335  31.540  12.939
65236W        W37496  37.569   7.741  12.405
65237W        W37497  17.872  42.502   1.235
65238W        W37498   5.999  18.153   0.329
65239W        W37499  27.208  20.749   2.279
65240W        W37500  34.135  10.608  12.917
65241W        W37501  29.516  29.431   3.206
65242W        W37502  12.552  12.687  13.552
65243W        W37503   8.415  18.875   4.739
65244W        W37504   9.877  44.108   2.768
65245W        W37505  16.788  11.169  12.044
65246W        W37506  40.754  28.512  12.431
65247W        W37507  32.623   6.341  12.463
65248W        W37508  44.862  24.804  14.260
65249W        W37509  31.368  17.852  13.017
65250W        W37510  12.187  16.225   0.482
65251W        W37511  22.822  14.879  11.135
65252W        W37512   0.387  42.296  12.422
65253W        W37513   2.864  11.866  14.112
65254W        W37514  23.020  21.726   4.543
65255W        W37515  18.246  18.226   0.474
65256W        W37516  32.433  18.724  11.741
65257W        W37517   2.738  21.112  10.964
65258W        W37518  25.142  30.408  13.544
65259W        W37519  31.400   4.372  14.366
65260W        W37520  24.084   5.864   4.337
65261W        W37521   7.696  31.524   1.863
65262W        W37522  20.680  20.154  12.401
65263W        W37523   1.265  36.122   1.351
65264W        W37524  18.175  44.487  14.099
65265W        W37525  25.456  10.973  11.163
65266W        W37526  41.293  41.814  14.283
65267W        W37527  42.857   7.858   4.057
65268W        W37528   9.573  30.366   3.278
65269W        W37529   8.151  21.758  11.683
65270W        W37530   6.980   5.603  10.755
65271W        W37531   2.815  38.911   4.150
65272W        W37532  41.946  34.656   0.277
65273W        W37533  17.103   1.696  14.448
65274W        W37534  27.073  20.107   0.415
65275W        W37535  34.516  37.542   3.322
65276W        W37536  22.605  19.723   1.072
65277W        W37537  17.027   2.725  13.523
65278W        W37538   9.093  38.853  14.358
65279W        W37539   4.006  43.301   3.724
65280W        W37540   5.255   1.832  11.903
65281W        W37541  35.479   0.976  14.888
65282W        W37542  13.930  28.198  10.665
65283W        W37543  24.413  27.212   2.981
65284W        W37544  34.148  23.692   2.323
65285W        W37545   8.760  30.560   0.230
65286W        W37546  14.562  13.165   2.424
65287W        W37547  43.842   7.427   2.781
65288W        W37548  24.501  19.350  11.772
65289W        W37549  42.997  18.739   3.595
65290W        W37550  41.045  44.181   1.617
65291W        W37551   2.098  20.023   2.605
65292W        W37552  36.069   6.704  10.638
65293W        W37553  34.364  44.748  12.010
65294W        W37554  13.349  19.322   3.616
65295W        W37555  22.971   3.030  14.866
65296W        W37556  31.935  37.662   1.420
65297W        W37557  44.498  33.454  14.043
65298W        W37558   4.422  10.634   4.665
65299W        W37559   5.696  42.015   1.653
65300W        W37560  12.710  11.653  13.407
65301W        W37561  40.436  21.320   2.777
65302W        W37562  16.056  28.828   3.838
65303W        W37563  29.136  38.416  12.765
65304W        W37564  44.830  14.766   1.634
65305W        W37565  34.347  44.884  10.893
65306W        W37566  17.976  35.581   0.893
65307W        W37567  11.578   3.918   4.115
65308W        W37568   5.684  42.467   1.962
65309W        W37569  26.005  12.628  13.576
65310W        W37570   0.753  34.106  13.436
65311W        W37571  43.486  10.126  13.109
65312W        W37572   3.684  10.416   2.579
65313W        W37573  10.141  26.536   4.675
65314W        W37574  13.249  36.030  11.934
65315W        W37575   6.883  12.240   0.951
65316W        W37576   1.008  17.788  13.320
65317W        W37577  16.010  30.588  12.371
65318W        W37578  36.109  33.107   3.245
65319W        W37579  18.208  35.745  14.955
65320W        W37580  35.898  12.422   4.708
65321W        W37581  44.223  31.821   3.820
65322W        W37582  24.608  19.315  10.648
65323W        W37583  22.506  22.546  13.551
65324W        W37584  32.623  27.958  11.286
65325W        W37585   7.547  12.537   9.789
65326W        W37586  26.890   2.904  11.141
65327W        W37587  38.812  29.230   5.119
65328W        W37588  32.060  40.644  14.285
65329W        W37589   2.680  43.803   0.275
65330W        W37590  26.530  39.781  10.778
65331W        W37591  16.503  39.951   3.187
65332W        W37592  10.246  37.892   0.262
65333W        W37593   7.483   8.656  12.369
65334W        W37594  25.734  40.154  11.112
65335W        W37595   0.834  39.016  13.222
65336W        W37596  14.661  20.123  12.557
65337W        W37597  29.103  11.612   1.201
65338W        W37598  16.277  32.107   4.283
65339W        W37599  38.437  10.109  12.842
65340W        W37600  37.899  30.646  11.653
65341W        W37601  21.813  15.706  14.489
65342W        W37602  12.263  27.242   0.851
65343W        W37603  23.076  26.981  11.808
65344W        W37604   6.375  26.902   2.675
65345W        W37605  15.962  20.766   4.258
65346W        W37606  32.537  42.017  12.994
65347W        W37607  27.989  38.122  13.037
65348W        W37608  40.673   3.035  10.956
65349W        W37609  21.701  26.904  14.918
65350W        W37610  11.391  34.735  13.887
65351W        W37611  10.848  34.568  13.806
65352W        W37612  14.679  29.760   3.774
65353W        W37613  18.650  11.454  13.077
65354W        W37614  32.129  20.193  13.943
65355W        W37615  30.196  36.396   1.505
65356W        W37616  39.942  27.901  14.940
65357W        W37617  11.135  23.128  14.862
65358W        W37618  27.625   2.157   0.049
65359W        W37619  35.523  43.466  11.828
65360W        W37620  29.187   5.892  13.322
65361W        W37621  34.103  37.720   3.786
65362W        W37622  18.631  38.291   1.230
65363W        W37623  28.299  34.102   4.311
65364W        W37624  31.997  32.812   3.792
65365W        W37625   1.075  28.499  13.332
65366W        W37626  24.907   2.046   0.508
65367W        W37627  36.854  44.515   3.701
65368W        W37628  22.735  33.150   2.581
65369W        W37629   6.731  43.362   1.283
65370W        W37630  10.000  37.985  14.808
65371W        W37631  17.176  43.350  10.359
65372W        W37632  34.902   1.290  11.514
65373W        W37633  43.369  33.234  11.505
65374W        W37634  12.273  18.104   3.564
65375W        W37635  14.345  27.135   4.901
65376W        W37636  15.523  11.994   3.613
65377W        W37637   4.403  17.447  11.495
65378W        W37638  43.803  29.549   3.242
65379W        W37639   6.565   7.293  10.778
65380W        W37640  44.412  15.868   9.902
65381W        W37641   7.951  11.781  12.005
65382W        W37642  21.687   5.629   3.255
65383W        W37643  13.844  14.040  10.194
65384W        W37644  13.446  20.033  12.261
65385W        W37645  43.268  24.646   2.228
65386W        W37646  43.683  44.404   1.218
65387W        W37647  13.597  17.075   5.080
65388W        W37648   2.749  41.260   3.703
65389W        W37649  15.675  34.512   0.411
65390W        W37650  11.316  10.827   3.524
65391W        W37651  36.877   2.371   1.329
65392W        W37652  36.443  23.512   4.570
65393W        W37653  10.327  38.375  13.130
65394W        W37654  14.583   0.684  13.522
65395W        W37655  16.618  33.808   1.437
65396W        W37656  41.456  17.269   3.107
65397W        W37657  19.244  39.117   4.682
65398W        W37658  13.606   4.790  11.904
65399W        W37659  40.848   8.027  13.323
65400W        W37660  28.455  16.134  10.729
65401W        W37661  32.866  28.023   2.691
65402W        W37662   8.427   5.591   0.074
65403W        W37663  13.651  40.338   3.654
65404W        W37664  41.745  38.001   2.694
65405W        W37665   7.257  18.563  14.298
65406W        W37666  42.418  22.175   1.364
65407W        W37667  37.725  26.239   5.048
65408W        W37668   6.737  18.150  11.083
65409W        W37669  32.025  37.372  13.967
65410W        W37670  27.663  28.755  12.437
65411W        W37671  23.481  44.322  12.283
65412W        W37672  40.404  26.909   4.649
65413W        W37673  20.303  26.064  12.896
65414W        W37674   5.309  12.449  12.238
65415W        W37675  36.426  34.849  11.127
65416W        W37676  33.998  37.801  12.945
65417W        W37677  19.764  22.468  14.046
65418W        W37678  36.588  41.337   1.417
65419W        W37679   8.793  26.970   3.703
65420W        W37680  12.761  36.562   4.673
65421W        W37681   9.391   6.447   3.893
65422W        W37682  31.554  22.083  14.227
65423W        W37683  21.750  19.624  14.546
65424W        W37684  24.002  30.848   4.054
65425W        W37685  34.943  27.211   3.196
65426W        W37686  42.738  15.714  13.119
65427W        W37687  27.496   5.680  13.901
65428W        W37688  16.334  34.587  12.352
65429W        W37689  24.226   3.745   1.416
65430W        W37690  17.891  43.860  14.914
65431W        W37691  33.890  17.032   4.896
65432W        W37692  16.105   2.609  12.076
65433W        W37693   8.700  23.777  11.884
65434W        W37694  25.527   4.612  14.518
65435W        W37695   8.321  36.761  12.008
65436W        W37696  34.294  11.777   0.054
65437W        W37697  19.513  31.373   0.236
65438W        W37698  37.861   5.296   2.679
65439W        W37699   1.694  21.132   2.075
65440W        W37700   1.293  14.712   2.782
65441W        W37701  37.992  14.202  10.629
65442W        W37702  25.420  10.131   1.833
65443W        W37703  43.735  22.173  14.837
65444W        W37704  24.698  17.970  11.923
65445W        W37705  19.655  42.602   0.503
65446W        W37706  28.704  22.529   2.687
65447W        W37707  35.236  11.293   0.368
65448W        W37708  12.205  17.698   3.912
65449W        W37709   9.112  24.977  12.412
65450W        W37710  23.109  17.262  11.653
65451W        W37711  22.412  36.065   3.486
65452W        W37712  34.691  19.722   1.917
65453W        W37713  16.303   8.359  12.465
65454W        W37714  26.200  26.995  14.855
65455W        W37715  27.682   9.709  13.301
65456W        W37716  26.272  36.480  11.910
65457W        W37717  35.678   1.047  12.078
65458W        W37718  33.210  25.482  10.578
65459W        W37719  13.187  39.440  10.969
65460W        W37720  14.337   7.957  12.899
65461W        W37721  12.446  38.458   3.745
65462W        W37722  42.538  22.267   4.424
65463W        W37723  15.984  27.096   1.915
65464W        W37724  29.091  35.096   1.798
65465W        W37725  41.843   7.606   4.468
65466W        W37726   5.005  18.720  11.695
65467W        W37727  41.655  35.666  14.382
65468W        W37728  20.165   8.016   3.628
65469W        W37729   4.182  33.501   1.667
65470W        W37730  38.169  29.594   3.538
65471W        W37731   9.600  14.717  10.611
65472W        W37732  28.361  27.036   1.052
65473W        W37733  19.799  17.486   0.834
65474W        W37734  10.933  37.046  11.446
65475W        W37735  37.955  24.024  13.983
65476W        W37736  39.234   4.203   3.582
65477W        W37737  11.280  37.681   4.570
65478W        W37738  12.224  14.283   4.546
65479W        W37739  37.450  13.832  11.643
65480W        W37740   7.735  29.249  11.341
65481W        W37741  44.156  22.099   3.773
65482W        W37742   5.292  18.671   1.697
65483W        W37743   7.345  26.399  13.799
65484W        W37744  32.918  26.285  10.730
65485W        W37745  18.384  27.594  10.336
65486W        W37746  22.444  42.462   3.075
65487W        W37747  44.754  34.480  10.472
65488W        W37748  32.987  11.807  12.598
65489W        W37749  44.532   3.725   0.136
65490W        W37750  33.832  20.275   0.490
65491W        W37751  35.174  31.974  10.716
65492W        W37752  40.379  34.202   4.308
65493W        W37753   2.211  29.028  11.129
65494W        W37754  23.726  12.853  12.454
65495W        W37755  32.208   9.686  12.960
65496W        W37756  19.189  42.537  13.862
65497W        W37757  27.130  16.840  14.745
65498W        W37758  20.572  13.554  14.222
65499W        W37759  36.461  10.377   3.183
65500W        W37760  39.527  38.403   4.012
65501W        W37761  39.594  39.891   0.362
65502W        W37762  31.212  44.917   1.940
65503W        W37763  40.561  16.797  13.493
65504W        W37764  41.670  28.192   3.644
65505W        W37765   0.306  15.810   9.804
65506W        W37766   9.868  33.844  11.059
65507W        W37767  34.863  11.305  13.537
65508W        W37768  13.559  28.268  12.030
65509W        W37769  40.050  19.207   4.587
65510W        W37770  42.412  23.707  13.193
65511W        W37771  28.293  36.872  12.936
65512W        W37772  12.829  27.493   9.755
65513W        W37773  11.248  34.091   0.714
65514W        W37774  18.610  17.773   4.610
65515W        W37775   7.173   6.577   3.851
65516W        W37776  18.105   4.309  14.291
65517W        W37777  31.368  29.124  11.601
65518W        W37778  13.876  40.832   3.407
65519W        W37779  16.622  18.480   0.029
65520W        W37780  35.580  24.207   3.624
65521W        W37781  18.602  31.277   4.589
65522W        W37782  12.071  41.322  13.987
65523W        W37783  17.638  20.698   1.780
65524W        W37784   6.823   3.560   4.671
65525W        W37785  20.437  28.981  12.928
65526W        W37786  11.386   3.807   0.428
65527W        W37787  32.887  37.928   3.736
65528W        W37788  11.452  13.608   3.429
65529W        W37789  33.162  37.970   0.244
65530W        W37790  29.840  14.339   4.657
65531W        W37791  18.610  41.380   1.491
65532W        W37792  35.829  43.954  14.962
65533W        W37793  24.983  16.697   3.142
65534W        W37794   0.921   0.728  13.147
65535W        W37795   9.667  16.278  14.937
65536W        W37796   8.771  14.853  13.516
65537W        W37797  24.560  40.505  11.430
65538W        W37798  40.583  31.903  11.590
65539W        W37799  39.402  34.565   2.776
65540W        W37800   5.482  24.481   1.371
65541W        W37801   5.614  24.744  14.107
65542W        W37802   7.675  35.797   2.290
65543W        W37803  23.581  25.494  10.930
65544W        W37804  20.528  24.514   3.768
65545W        W37805  25.996  41.866   2.808
65546W        W37806  26.481  34.855   2.348
65547W        W37807   9.535  26.892  10.795
65548W        W37808  27.403   5.537  11.235
65549W        W37809  16.829  38.109   3.700
65550W        W37810  32.705  44.960   1.746
65551W        W37811   9.678  19.240  14.073
65552W        W37812  37.916   3.241  13.390
65553W        W37813  10.304  40.510   1.981
65554W        W37814   3.390  38.793  12.646
65555W        W37815  12.324  19.401   2.114
65556W        W37816  12.373  36.463   3.377
65557W        W37817   3.241  28.168   2.868
65558W        W37818  31.935  36.398   0.007
65559W        W37819   4.692   3.227  13.436
65560W        W37820  40.590  18.969  13.129
65561W        W37821   8.820  31.707   1.752
65562W        W37822  35.863   8.238   1.311
65563W        W37823  39.564  21.755  14.325
65564W        W37824  27.511  43.762   2.879
65565W        W37825  25.429  27.912  12.972
65566W        W37826  19.092   1.845  12.426
65567W        W37827  40.444  33.365  13.080
65568W        W37828  25.937  41.401  10.573
65569W        W37829  39.882  36.515   1.872
65570W        W37830  10.091  35.165  12.303
65571W        W37831  12.992  15.655   5.726
65572W        W37832  27.622   4.892  11.520
65573W        W37833   7.286  24.245  11.206
65574W        W37834  36.043  23.902   0.547
65575W        W37835   9.666   7.882   0.999
65576W        W37836  26.598  32.864   2.463
65577W        W37837  22.009   2.710   2.315
65578W        W37838  29.102  36.748   1.263
65579W        W37839  40.064  35.131   3.801
65580W        W37840  20.980  42.324  12.725
65581W        W37841  33.479   8.439  13.311
65582W        W37842  39.146  32.093  11.465
65583W        W37843  21.918   8.077   3.670
65584W        W37844  13.327   5.960  13.269
65585W        W37845  11.554   1.870  13.574
65586W        W37846  37.801  25.192  13.116
65587W        W37847  22.154  36.835  10.647
65588W        W37848  14.585  14.618   0.827
65589W        W37849  18.251   0.100   4.918
65590W        W37850   2.884  42.774  11.542
65591W        W37851   4.282  13.319   2.436
65592W        W37852  32.876  16.140   4.065
65593W        W37853  40.347  39.124  10.104
65594W        W37854   5.914  34.421  10.667
65595W        W37855   9.709  31.180  11.267
65596W        W37856  22.145  11.654  12.956
65597W        W37857  40.432   0.747   1.050
65598W        W37858  16.614  32.058   2.822
65599W        W37859   4.347   8.199   0.872
65600W        W37860  25.271  20.924  12.850
65601W        W37861  29.833  43.742   3.213
65602W        W37862   0.865  20.183   4.550
65603W        W37863   6.600  28.151  12.513
65604W        W37864   0.324   5.197  14.209
65605W        W37865  43.362  28.559   2.193
65606W        W37866  31.164  20.325   4.580
65607W        W37867   1.323   5.155   2.938
65608W        W37868  29.581  19.676  11.576
65609W        W37869  25.660  37.762  11.472
65610W        W37870  36.258   8.539   0.886
65611W        W37871  27.084  30.791  12.028
65612W        W37872  35.855  15.302   2.035
65613W        W37873   8.422  40.055   3.165
65614W        W37874  13.571   9.290  13.201
65615W        W37875  28.535   7.513  12.395
65616W        W37876  20.868   9.348  14.344
65617W        W37877   7.856  28.208   5.058
65618W        W37878  36.766   2.836  12.938
65619W        W37879   3.396  43.554   1.827
65620W        W37880  14.334  34.948  13.694
65621W        W37881  10.707  22.052  14.947
65622W        W37882   7.228  38.937   4.076
65623W        W37883  27.129  25.294  14.078
65624W        W37884  14.569  38.291   1.966
65625W        W37885   6.475  44.357   4.546
65626W        W37886  20.126  30.014   4.398
65627W        W37887  16.894   7.394  11.140
65628W        W37888   0.334  41.967   1.310
65629W        W37889  23.230  40.060   4.867
65630W        W37890  26.647  26.254  11.526
65631W        W37891  19.674   3.461  10.020
65632W        W37892  34.442  17.580  11.133
65633W        W37893  22.938   4.638   1.777
65634W        W37894  43.864  29.264   2.384
65635W        W37895  17.628   8.606  13.582
65636W        W37896  30.470  14.923  11.164
65637W        W37897  19.116  41.487   1.356
65638W        W37898  35.626   4.946  11.471
65639W        W37899  29.950  43.128  11.594
65640W        W37900  38.630   8.778  13.451
65641W        W37901  39.096   0.110   2.423
65642W        W37902  43.958  12.161  14.372
65643W        W37903  32.872  15.302  12.556
65644W        W37904  35.847  40.985  11.511
65645W        W37905   0.027  11.234  14.363
65646W        W37906  44.604  12.289   4.573
65647W        W37907  21.012   7.400  10.270
65648W        W37908   0.261  20.201   2.668
65649W        W37909  10.151  37.907  13.910
65650W        W37910  43.309   1.480   1.937
65651W        W37911  29.073  21.312   1.968
65652W        W37912  11.627  30.216   3.768
65653W        W37913  29.586   6.981  10.315
65654W        W37914   5.143   3.439  12.591
65655W        W37915  43.149  34.283   4.255
65656W        W37916  22.433  28.365   3.256
65657W        W37917  34.993   7.439  14.911
65658W        W37918  26.586  27.282   4.540
65659W        W37919  44.376  34.049  12.698
65660W        W37920   2.398  23.971   0.483
65661W        W37921  21.300   0.940  14.837
65662W        W37922  31.068  33.878   1.334
65663W        W37923   4.883   7.896   4.318
65664W        W37924  17.084  12.659  11.653
65665W        W37925  30.043   5.995  12.564
65666W        W37926  18.309  21.414  13.475
65667W        W37927  33.387   1.866  12.040
65668W        W37928  25.215  34.130  13.956
65669W        W37929  37.965   6.207   1.903
65670W        W37930  39.663  34.292  11.498
65671W        W37931  11.382  32.441  12.650
65672W        W37932  11.361   0.438  13.502
65673W        W37933  35.966  28.073  13.043
65674W        W37934   7.666  12.738  12.145
65675W        W37935  23.196  34.480  10.680
65676W        W37936  27.632  42.922   4.398
65677W        W37937  22.099  43.784   0.081
65678W        W37938  14.394  10.171   2.869
65679W        W37939  32.100  18.690  14.526
65680W        W37940  30.065  31.616   2.173
65681W        W37941  22.597  11.798  10.933
65682W        W37942  38.601  33.142   3.276
65683W        W37943  36.601   9.452   0.390
65684W        W37944  31.473   3.484  14.496
65685W        W37945  29.690  22.166  10.599
65686W        W37946   5.188   3.838  14.099
65687W        W37947  39.362  44.440   2.176
65688W        W37948   7.476  39.527   2.949
65689W        W37949  18.752  18.443  13.662
65690W        W37950  25.239  13.157  13.509
65691W        W37951  24.138  38.069   3.350
65692W        W37952  10.056  17.768  13.089
65693W        W37953  37.902  32.769  13.839
65694W        W37954  29.547  16.509   3.214
65695W        W37955  24.322  43.916  12.981
65696W        W37956   6.160   8.713  10.424
65697W        W37957  17.170  10.416  13.551
65698W        W37958  38.954   7.384  12.503
65699W        W37959   5.424  15.130   1.363
65700W        W37960  43.925  25.433  12.812
65701W        W37961  21.198  23.898   0.809
65702W        W37962   7.152   8.245   0.117
65703W        W37963  35.430  15.106   1.793
65704W        W37964  41.194  25.039  13.546
65705W        W37965   1.192  44.803  12.646
65706W        W37966  17.344  35.614  10.793
65707W        W37967  37.420  10.609  13.089
65708W        W37968  14.589  22.854  11.154
65709W        W37969  42.355   7.650  13.438
65710W        W37970  30.548  12.138  12.638
65711W        W37971  11.360   4.192  14.389
65712W        W37972   2.140  16.584   2.307
65713W        W37973  15.849   1.761  11.927
65714W        W37974  34.038   5.432   4.471
65715W        W37975   1.860  25.960   3.642
65716W        W37976  23.618  11.825   1.732
65717W        W37977   6.287  32.117   2.301
65718W        W37978  37.385  36.050  11.068
65719W        W37979  38.800  10.708  12.414
65720W        W37980  43.329  21.853  14.783
65721W        W37981  41.103   7.405  12.012
65722W        W37982   8.226  11.096  14.935
65723W        W37983   6.789   0.540  13.875
65724W        W37984  12.785  44.730  12.881
65725W        W37985   5.512  42.353   0.356
65726W        W37986  40.336  38.813  12.775
65727W        W37987  12.399  27.138  13.077
65728W        W37988  26.930  13.906  11.270
65729W        W37989  44.736  16.147  11.570
65730W        W37990   1.700  26.753   1.260
65731W        W37991  16.334   8.191  14.982
65732W        W37992   0.232  11.162   2.786
65733W        W37993  32.484  11.243  13.089
65734W        W37994  44.426  14.619   4.858
65735W        W37995  15.032  17.513   0.504
65736W        W37996  15.179  42.982   4.014
65737W        W37997   2.769   6.311  12.664
65738W        W37998   5.033   0.800  10.621
65739W        W37999  10.239  37.558  11.450
65740W        W38000  27.429   3.355   0.841
65741W        W38001  33.650   9.848  11.645
65742W        W38002   2.446  40.988   1.143
65743W        W38003   5.264  37.305  10.175
65744W        W38004  37.523  41.740   2.204
65745W        W38005  18.951  10.771   2.824
65746W        W38006   2.046  44.412  12.418
65747W        W38007  14.449  27.103   0.293
65748W        W38008  17.198  27.637   2.791
65749W        W38009  11.176  29.970   1.693
65750W        W38010   8.668  35.088   4.084
65751W        W38011   2.514  24.095  12.081
65752W        W38012  19.088   5.833   3.195
65753W        W38013  35.042   5.380  13.799
65754W        W38014   3.288   9.945  10.692
65755W        W38015  13.538  43.406  13.892
65756W        W38016  20.764   9.123  14.783
65757W        W38017  30.433  10.308   0.503
65758W        W38018  28.955  12.625   3.334
65759W        W38019  10.273   8.202   3.302
65760W        W38020  44.362  32.681  13.614
65761W        W38021  38.343   3.696  11.431
65762W        W38022  12.171   7.285  10.388
65763W        W38023  10.946   5.934   0.306
65764W        W38024  31.710   6.193  10.692
65765W        W38025  21.585  22.715   2.719
65766W        W38026  20.766   9.070   2.151
65767W        W38027  24.170  27.904   1.317
65768W        W38028  36.625  27.303  11.006
65769W        W38029  29.408  21.048   2.280
65770W        W38030  13.326  14.597  12.620
65771W        W38031  19.272  14.534  11.980
65772W        W38032  17.073  19.025  11.184
65773W        W38033  34.515  22.136  10.759
65774W        W38034  24.604  43.250   2.853
65775W        W38035  30.388  31.447   1.291
65776W        W38036   2.731  18.714   4.153
65777W        W38037  22.173  42.456   2.414
65778W        W38038  27.194  32.330  14.036
65779W        W38039  30.422  27.149   0.268
65780W        W38040  43.738  10.617  14.505
65781W        W38041  21.641   0.000   1.437
65782W        W38042  21.440  18.260  12.522
65783W        W38043  40.256   0.721   3.008
65784W        W38044  30.485  30.131  14.816
65785W        W38045   9.589  25.267  12.411
65786W        W38046  17.108  12.708  10.274
65787W        W38047  14.263  29.581  11.662
65788W        W38048  33.030  27.235   0.197
65789W        W38049  15.402  31.448   0.682
65790W        W38050  15.368  16.365  12.621
65791W        W38051  31.823  22.642   3.633
65792W        W38052  17.239  15.824   3.784
65793W        W38053   8.911  19.324   1.196
65794W        W38054  29.948  44.784   2.213
65795W        W38055  15.866  10.863  14.940
65796W        W38056  21.776  24.431  13.060
65797W        W38057  41.078   9.220   1.405
65798W        W38058  29.413  43.878   2.262
65799W        W38059  15.564  18.292   0.957
65800W        W38060  18.873  25.949  11.265
65801W        W38061  21.599  23.653   2.726
65802W        W38062  14.866  18.163  11.898
65803W        W38063  37.246  13.662   1.957
65804W        W38064   3.732   4.001   1.809
65805W        W38065  20.720  25.919   0.296
65806W        W38066  34.409   2.921  13.001
65807W        W38067  18.147  11.914   1.242
65808W        W38068   8.184  26.931  10.683
65809W        W38069  39.781  19.836   1.318
65810W        W38070   0.468  14.784  14.898
65811W        W38071   1.682  44.994  14.608
65812W        W38072  18.178  42.480  11.389
65813W        W38073  27.489  34.579  10.576
65814W        W38074  41.031  37.538  10.635
65815W        W38075  25.282  32.680  11.868
65816W        W38076  34.399  14.722  11.959
65817W        W38077   4.167  11.644  12.518
65818W        W38078   6.257  37.483   2.614
65819W        W38079  29.569   9.204   2.760
65820W        W38080   7.389  12.440   4.087
65821W        W38081  35.477  13.653  11.905
65822W        W38082  35.063  29.635   1.726
65823W        W38083  42.353   3.100   1.660
65824W        W38084  29.348  42.681  11.100
65825W        W38085  10.858  26.007  11.489
65826W        W38086   0.259  41.432  12.404
65827W        W38087  43.959   3.017   4.121
65828W        W38088  10.583   5.203   2.411
65829W        W38089  21.699  16.285   3.552
65830W        W38090   3.759   7.415  13.862
65831W        W38091  37.396   0.304  12.847
65832W        W38092  38.377  19.995   1.382
65833W        W38093  13.886  44.463  10.513
65834W        W38094  11.173  33.611  11.903
65835W        W38095  41.332  38.644   4.894
65836W        W38096   5.873  30.157  13.026
65837W        W38097  32.511  36.425  11.481
65838W        W38098  16.070  31.413  14.905
65839W        W38099  42.533   3.173   0.765
65840W        W38100   1.996  18.535  13.939
65841W        W38101   2.465  20.183   0.331
65842W        W38102  17.834  40.322   4.705
65843W        W38103   0.019  36.197   3.120
65844W        W38104  37.775   5.780   0.543
65845W        W38105  22.513  13.460  12.012
65846W        W38106  27.941  32.439   3.242
65847W        W38107  30.016  11.212  13.972
65848W        W38108  22.015  42.817  11.554
65849W        W38109  23.478  25.966   5.066
65850W        W38110  28.634  10.127  12.058
65851W        W38111  19.259  35.936  14.871
65852W        W38112  11.612  28.984  11.264
65853W        W38113   7.460  35.501  14.930
65854W        W38114  28.033  43.859  12.963
65855W        W38115  41.976   3.810  10.919
65856W        W38116  30.426   9.141   3.349
65857W        W38117  14.663  21.453   0.270
65858W        W38118  20.712  12.849   0.925
65859W        W38119  26.027  11.898  12.858
65860W        W38120  29.808   7.894   2.307
65861W        W38121  10.694  28.518   2.583
65862W        W38122   8.737  38.784  13.949
65863W        W38123  32.306   0.015  14.943
65864W        W38124  44.671  19.198   2.227
65865W        W38125  30.005  15.269   4.286
65866W        W38126  18.692  14.206  12.521
65867W        W38127  18.214  27.991  14.505
65868W        W38128   9.855  10.551  13.524
65869W        W38129   8.229  35.662   4.260
65870W        W38130  25.444  24.114   4.867
65871W        W38131  14.498   6.902  14.451
65872W        W38132  10.411  32.134  14.941
65873W        W38133  30.904  33.613  12.076
65874W        W38134   7.925   9.796   4.542
65875W        W38135  33.945   1.195   3.141
65876W        W38136  38.238  31.968   2.727
65877W        W38137   3.527   0.744   3.968
65878W        W38138  30.693  37.101   3.099
65879W        W38139  17.896  12.139  12.440
65880W        W38140  15.937  24.685  12.541
65881W        W38141  10.347  30.913   4.131
65882W        W38142   2.330  12.498  14.361
65883W        W38143  32.371  41.839  14.764
65884W        W38144  12.357  43.890   3.647
65885W        W38145  11.860  39.941  10.759
65886W        W38146  24.544  18.647  12.482
65887W        W38147  14.787  28.664   0.806
65888W        W38148  25.144  44.688   1.870
65889W        W38149   5.776  42.776   4.374
65890W        W38150  13.169  38.328  10.608
65891W        W38151  18.650  11.608  10.687
65892W        W38152  18.700  12.434   0.166
65893W        W38153  42.847  11.703   0.352
65894W        W38154  17.686  31.006  11.656
65895W        W38155  29.910  31.091   1.434
65896W        W38156   9.136   5.778  13.639
65897W        W38157  33.709  13.449  12.444
65898W        W38158  37.080   8.169   0.900
65899W        W38159  40.777   8.880  12.878
65900W        W38160  25.028  21.234   0.425
65901W        W38161  28.968  22.601  11.017
65902W        W38162  20.633  11.464  11.214
65903W        W38163  36.505  19.843   2.877
65904W        W38164  38.716   7.136  12.896
65905W        W38165  30.062  37.862  11.610
65906W        W38166  12.232  34.638   4.612
65907W        W38167  18.836  21.775   4.147
65908W        W38168  11.068  17.841  13.944
65909W        W38169  24.493   3.784  13.512
65910W        W38170  42.593   9.363  14.862
65911W        W38171  14.587   4.010  13.876
65912W        W38172  11.594  24.125   2.145
65913W        W38173   3.382  16.625  12.918
65914W        W38174  33.683  42.553   0.693
65915W        W38175  38.628  43.945   2.698
65916W        W38176  39.872   4.208   0.456
65917W        W38177  32.434  40.441  11.489
65918W        W38178   3.074  22.428   3.690
65919W        W38179  25.490  36.658   1.939
65920W        W38180  14.237   5.960  13.473
65921W        W38181   3.836  22.971  11.564
65922W        W38182  23.217  28.689   5.158
65923W        W38183  22.823  36.821   0.955
65924W        W38184  23.611   3.252   3.159
65925W        W38185  31.193  13.391   2.394
65926W        W38186  22.538  12.000  10.116
65927W        W38187  18.228  10.283   1.893
65928W        W38188  16.662  40.703  10.622
65929W        W38189  11.764  15.022   4.666
65930W        W38190  11.266  10.040   0.234
65931W        W38191   7.104   3.197  13.761
65932W        W38192  23.738  31.049   0.979
65933W        W38193  37.897  23.223   4.573
65934W        W38194  31.403  24.626  11.985
65935W        W38195   7.271  20.059   4.209
65936W        W38196  30.963  20.323   3.710
65937W        W38197  29.082  10.146  11.556
65938W        W38198  30.934  35.386  11.167
65939W        W38199  39.002  13.051   1.921
65940W        W38200  13.242  26.094   1.493
65941W        W38201  17.443   8.356   1.324
65942W        W38202  16.440  40.458  13.391
65943W        W38203  28.525  21.895  14.959
65944W        W38204  42.674  30.614  11.220
65945W        W38205   4.878  19.830  13.331
65946W        W38206  19.432   3.260  13.959
65947W        W38207  26.956  12.546  14.538
65948W        W38208   8.321  13.869   1.191
65949W        W38209  35.084   8.731  13.361
65950W        W38210  14.592  29.500   1.894
65951W        W38211   5.195   2.930  13.288
65952W        W38212  25.937  34.340  12.939
65953W        W38213   4.825   9.296  13.820
65954W        W38214  43.483  28.207   0.393
65955W        W38215  11.332  33.603   0.447
65956W        W38216   7.775  24.390  11.035
65957W        W38217  38.754  16.246   2.329
65958W        W38218  15.117   0.833   4.782
65959W        W38219  13.660  13.112  14.388
65960W        W38220  28.234   4.941  13.858
65961W        W38221   4.119  25.616   2.679
65962W        W38222   7.702  31.133   0.808
65963W        W38223  36.048  21.622   1.280
65964W        W38224   7.152  26.454   3.398
65965W        W38225  23.301  16.847   1.520
65966W        W38226   9.279  24.542  14.996
65967W        W38227  14.774  32.534  14.700
65968W        W38228  42.997  10.018  12.530
65969W        W38229   7.465  17.143   1.397
65970W        W38230   9.274  25.343   3.136
65971W        W38231  24.106  30.272  11.412
65972W        W38232  19.330  23.519  12.646
65973W        W38233  16.455  30.642   4.942
65974W        W38234  30.206   2.981  13.459
65975W        W38235   6.457  19.650  14.988
65976W        W38236  28.666  12.315  11.537
65977W        W38237  38.522  23.240  13.763
65978W        W38238   4.159  25.065  14.931
65979W        W38239  25.295   6.322  11.687
65980W        W38240  21.179  44.724   2.691
65981W        W38241  22.437  11.755  12.315
65982W        W38242  44.724  39.397   1.738
65983W        W38243   8.633  43.298   3.215
65984W        W38244  26.301  20.800   2.684
65985W        W38245  10.947  22.997  14.391
65986W        W38246   9.747  16.062   0.410
65987W        W38247  15.046  16.787  13.030
65988W        W38248  28.843   8.807  11.503
65989W        W38249   4.352  35.726   1.724
65990W        W38250   0.491  43.432   0.353
65991W        W38251  20.086  27.754   0.753
65992W        W38252  34.286   0.567   0.898
65993W        W38253  42.752  18.443  13.195
65994W        W38254   3.283  10.659  12.379
65995W        W38255  31.242  25.539   2.807
65996W        W38256  43.929  23.673   4.842
65997W        W38257   3.419   4.432  14.922
65998W        W38258   0.635  36.001   5.120
65999W        W38259  31.397  41.430  14.329
66000W        W38260  19.290  14.273   0.624
66001W        W38261  37.902  17.163  13.165
66002W        W38262  24.265  28.558  10.683
66003W        W38263   8.641  44.872   3.660
66004W        W38264  11.832  24.730  13.180
66005W        W38265   0.750  39.485  14.532
66006W        W38266   1.185  26.610  14.405
66007W        W38267  42.409   8.750   4.349
66008W        W38268  11.297  37.019  13.501
66009W        W38269  13.177  22.776   0.921
66010W        W38270  22.901  40.033  14.992
66011W        W38271  14.550  32.893  14.397
66012W        W38272  13.583   8.669  11.361
66013W        W38273  32.380  23.958  13.972
66014W        W38274  44.593  25.285  11.059
66015W        W38275  42.548  31.985   0.290
66016W        W38276   3.839  24.258  13.849
66017W        W38277  16.597   8.459  12.879
66018W        W38278  39.875  14.662  12.418
66019W        W38279  22.431  35.617   1.989
66020W        W38280  12.773  32.892  13.443
66021W        W38281  41.027  37.935  13.948
66022W        W38282  28.114  39.044  10.535
66023W        W38283  14.779  43.296  13.918
66024W        W38284  35.543  37.833   2.905
66025W        W38285  19.677  15.629   2.309
66026W        W38286  27.033  27.146   1.321
66027W        W38287  42.898   1.454  12.162
66028W        W38288  43.830   9.093   0.725
66029W        W38289  10.067  44.280  12.854
66030W        W38290  17.727  31.227  11.057
66031W        W38291  25.254  29.556   3.701
66032W        W38292  23.171  35.985   1.446
66033W        W38293   8.366  35.643  13.039
66034W        W38294   5.899  24.112  12.802
66035W        W38295  18.740   3.980   1.808
66036W        W38296  33.846   2.176   4.803
66037W        W38297  33.839  27.648   0.159
66038W        W38298  43.318  38.952   4.575
66039W        W38299  23.472  10.456   1.193
66040W        W38300  24.127  35.898   3.286
66041W        W38301  28.334  30.632  13.849
66042W        W38302  19.709  20.300  12.480
66043W        W38303  21.089  41.423  14.051
66044W        W38304  28.926  14.711  10.504
66045W        W38305  19.161  31.379  12.433
66046W        W38306  10.117  38.032   3.290
66047W        W38307  23.985   6.894   0.384
66048W        W38308  38.815  38.859   2.915
66049W        W38309   7.674  11.056  12.861
66050W        W38310   0.788  40.889   4.789
66051W        W38311  39.760  22.081  11.688
66052W        W38312  17.322  10.689  11.366
66053W        W38313  35.151   5.727  14.798
66054W        W38314  43.519  31.903  11.203
66055W        W38315  36.029  44.803  14.409
66056W        W38316  42.318   4.633   0.786
66057W        W38317  22.194   7.426   4.120
66058W        W38318  44.933  15.286  11.429
66059W        W38319   6.470   6.840   2.578
66060W        W38320  40.532  34.033   2.329
66061W        W38321  35.040  16.063  12.400
66062W        W38322  43.987   7.122   3.218
66063W        W38323  40.620  18.763  11.053
66064W        W38324  38.232  40.267   0.439
66065W        W38325  15.788   0.531  12.611
66066W        W38326   1.225   0.571   3.288
66067W        W38327   4.325  26.457   5.482
66068W        W38328   7.684   5.327  12.685
66069W        W38329   3.261  11.761  10.728
66070W        W38330  16.608  23.270  13.087
66071W        W38331  14.037  30.879   5.422
66072W        W38332  11.813   3.017  13.410
66073W        W38333  20.679   8.334   0.844
66074W        W38334  26.340  41.797  14.318
66075W        W38335  41.618  26.864  11.041
66076W        W38336  16.188  43.854  10.588
66077W        W38337  32.735  31.207  13.316
66078W        W38338  31.281  39.739   1.703
66079W        W38339  15.952   2.400   4.236
66080W        W38340  23.478   6.342  12.955
66081W        W38341  31.870  43.962   0.504
66082W        W38342  23.098  43.979   2.691
66083W        W38343   4.737  21.960   1.347
66084W        W38344  23.614  39.568   4.886
66085W        W38345  11.291  38.407   1.232
66086W        W38346  25.712  14.218   0.281
66087W        W38347  15.123  32.154  11.052
66088W        W38348  16.780  36.321  10.664
66089W        W38349  44.484  35.543   4.282
66090W        W38350  28.098   6.737  13.615
66091W        W38351  44.038   0.799  12.863
66092W        W38352  43.367   5.365  11.140
66093W        W38353  33.623  26.136   3.424
66094W        W38354   2.848  35.883  13.428
66095W        W38355  25.444  38.352   1.114
66096W        W38356   9.054  44.324  11.588
66097W        W38357  31.372   7.023  11.266
66098W        W38358  17.666   9.389   2.657
66099W        W38359  37.404  18.014   2.588
66100W        W38360  16.480   7.175  10.728
66101W        W38361  34.408  36.926  14.612
66102W        W38362   4.161  19.951  12.934
66103W        W38363  24.079  34.640  14.912
66104W        W38364  11.348   1.075   3.970
66105W        W38365  11.362  26.922   1.874
66106W        W38366  13.145  26.581  14.744
66107W        W38367   7.640  14.818  10.735
66108W        W38368  44.746  36.097   1.906
66109W        W38369   7.460  40.866   3.591
66110W        W38370  39.869  17.803   1.842
66111W        W38371  38.501  10.311  13.491
66112W        W38372  23.586  40.495  11.706
66113W        W38373  40.557   5.774  12.488
66114W        W38374  19.567  34.114  14.420
66115W        W38375  29.585   9.148   4.611
66116W        W38376   1.658  10.196   4.523
66117W        W38377  29.592  25.594   0.426
66118W        W38378  11.386  40.682   0.227
66119W        W38379  36.804  31.323  13.449
66120W        W38380  44.765   0.437   3.193
66121W        W38381  14.325  35.228   3.146
66122W        W38382   4.784  23.797   0.299
66123W        W38383  26.632  11.190   0.565
66124W        W38384   3.864  35.099  14.427
66125W        W38385   1.967   1.150   2.806
66126W        W38386   1.090  15.825   3.267
66127W        W38387  26.893  19.235   0.697
66128W        W38388  15.749  13.213  14.017
66129W        W38389  15.280  30.559  10.107
66130W        W38390  12.557  26.771  10.149
66131W        W38391  26.211  33.152   2.664
66132W        W38392   1.755  25.283   0.469
66133W        W38393   9.926  24.202   0.408
66134W        W38394  36.738  41.295  14.555
66135W        W38395  16.528  36.867  11.279
66136W        W38396  30.901  14.870  12.986
66137W        W38397  22.170  40.251  14.350
66138W        W38398  25.752  26.100   3.418
66139W        W38399  11.537  31.892  10.115
66140W        W38400  18.661  39.839  14.733
66141W        W38401  20.146  44.217  11.441
66142W        W38402  25.925   1.445  14.882
66143W        W38403  30.967  23.480   0.351
66144W        W38404   2.428  33.891   3.256
66145W        W38405  42.862  16.218   1.893
66146W        W38406  25.732  29.224  11.579
66147W        W38407   3.720  39.915  14.696
66148W        W38408  12.629   8.124  11.159
66149W        W38409  12.355  39.997   3.136
66150W        W38410  17.770  43.971  14.437
66151W        W38411  13.562  38.462   4.668
66152W        W38412  16.758   3.705   2.290
66153W        W38413  14.039  43.220   1.363
66154W        W38414  12.650  13.066  11.182
66155W        W38415  33.796  41.227   0.878
66156W        W38416   8.395  25.571  11.072
66157W        W38417  28.004  16.754   1.841
66158W        W38418   2.673  34.849   2.697
66159W        W38419  19.130  36.505  10.585
66160W        W38420  34.700  36.428  11.919
66161W        W38421  34.771   9.183   1.290
66162W        W38422  25.559  25.294   3.667
66163W        W38423  44.230  28.686   3.228
66164W        W38424   2.022   6.718   1.144
66165W        W38425   0.336   9.107   2.749
66166W        W38426  10.590  29.686  13.653
66167W        W38427   7.368  25.881   5.002
66168W        W38428  18.974   3.361   3.842
66169W        W38429  25.234  16.640  10.852
66170W        W38430  12.628  35.525  11.551
66171W        W38431  23.248  40.618  10.915
66172W        W38432   8.853  36.416  13.094
66173W        W38433  17.479  42.237   4.022
66174W        W38434  27.491   0.067  10.415
66175W        W38435   0.887  37.148  14.372
66176W        W38436  28.845  35.415  11.915
66177W        W38437   0.835  35.382  10.217
66178W        W38438   8.590  19.102  13.382
66179W        W38439  41.755   4.648   0.193
66180W        W38440   9.770  41.738  11.947
66181W        W38441   8.920  34.947  10.986
66182W        W38442  14.390  25.118  10.723
66183W        W38443  43.448  17.371  11.878
66184W        W38444  19.306   9.245  14.785
66185W        W38445  34.461  14.734  12.940
66186W        W38446   9.675  39.351  14.513
66187W        W38447   9.628   7.247   4.053
66188W        W38448  13.363  39.059  11.745
66189W        W38449  23.644  37.510   4.590
66190W        W38450  20.673  11.752   0.417
66191W        W38451   9.837  18.749   5.149
66192W        W38452  29.764  14.808   0.434
66193W        W38453  35.563  17.214   0.331
66194W        W38454  29.615   4.484  11.079
66195W        W38455  15.379  41.909   2.757
66196W        W38456  17.280  38.333  13.149
66197W        W38457  27.981  12.135  11.093
66198W        W38458  28.229  21.037  12.667
66199W        W38459  41.011   0.806   3.288
66200W        W38460  42.946  42.717   4.232
66201W        W38461  23.488  21.463  11.141
66202W        W38462  26.470  40.275  10.567
66203W        W38463   3.839  10.959   4.295
66204W        W38464  38.636   9.263  14.328
66205W        W38465  24.628  22.694   0.670
66206W        W38466  30.860  22.580  10.657
66207W        W38467  38.754  31.074   4.103
66208W        W38468  34.631   1.987  13.613
66209W        W38469  36.979   3.861   0.840
66210W        W38470  28.719   2.921  11.283
66211W        W38471  10.235   0.989   4.896
66212W        W38472  36.441   6.483  13.869
66213W        W38473  44.224  18.915   2.176
66214W        W38474  33.560   1.374  10.677
66215W        W38475  21.125  40.096   0.293
66216W        W38476   4.858  17.579   4.041
66217W        W38477  28.964  12.306  11.106
66218W        W38478  23.261  40.844  11.879
66219W        W38479  13.236   3.238  12.707
66220W        W38480  36.494  30.636   1.331
66221W        W38481   4.671  32.952  11.218
66222W        W38482   4.982  17.450  11.513
66223W        W38483  42.153  14.563   3.193
66224W        W38484  44.437  25.104   4.034
66225W        W38485  40.981  29.992  12.139
66226W        W38486   4.037   5.437  13.441
66227W        W38487  40.707  29.636   5.218
66228W        W38488  12.801  44.497  12.070
66229W        W38489  11.681  36.049  13.281
66230W        W38490  24.958  25.280   2.338
66231W        W38491  30.345  16.625   1.951
66232W        W38492  29.949  34.585   3.777
66233W        W38493  10.744   5.953   3.839
66234W        W38494  15.067  19.680   3.553
66235W        W38495   0.363  17.838   4.051
66236W        W38496  25.960  42.308  13.970
66237W        W38497  42.539  38.028   3.684
66238W        W38498   9.652  42.475   0.767
66239W        W38499  34.570  28.517  10.760
66240W        W38500  23.668  39.358   4.398
66241W        W38501  31.180   6.256  12.006
66242W        W38502  27.981  12.657  14.437
66243W        W38503  29.594  39.357   2.905
66244W        W38504  18.213  21.558   3.650
66245W        W38505  38.041   9.315   3.377
66246W        W38506  21.638  26.493  13.069
66247W        W38507  44.036   1.477   1.380
66248W        W38508  13.344   2.715  12.543
66249W        W38509  25.553  27.936   0.002
66250W        W38510  23.202  33.824   1.260
66251W        W38511  11.804  27.261  11.783
66252W        W38512  38.023   4.937  13.929
66253W        W38513   0.672  38.990   0.839
66254W        W38514  10.074  10.763   2.679
66255W        W38515   9.415   9.623  12.679
66256W        W38516  22.084  23.851  10.994
66257W        W38517  44.301  35.381   0.256
66258W        W38518  27.074  43.310  10.462
66259W        W38519  29.481  34.543  12.947
66260W        W38520  24.717  10.107  12.037
66261W        W38521  35.507  18.081  11.540
66262W        W38522  16.473  20.557  14.494
66263W        W38523   0.277   1.154  13.822
66264W        W38524  14.034   3.347   0.749
66265W        W38525  22.919   4.205  11.938
66266W        W38526  16.343   5.227  13.183
66267W        W38527  29.445  24.652  11.540
66268W        W38528   5.867  23.249   3.176
66269W        W38529  42.179  24.278  14.558
66270W        W38530  13.703  17.111  13.548
66271W        W38531  43.626  26.777   5.231
66272W        W38532   1.360   7.824  12.556
66273W        W38533   4.573  33.428  14.958
66274W        W38534  26.734   9.432  11.995
66275W        W38535  23.797   5.765   3.935
66276W        W38536  25.806  40.317  14.630
66277W        W38537  13.430  25.734   0.749
66278W        W38538   1.456  42.020   2.404
66279W        W38539   8.240  34.743   4.156
66280W        W38540   8.544   0.310   4.721
66281W        W38541  19.150  32.372  13.545
66282W        W38542  39.891   8.126   4.186
66283W        W38543  11.659  28.372   5.202
66284W        W38544  11.227  35.631   0.485
66285W        W38545  12.649  39.464  13.833
66286W        W38546   7.218  34.276  13.551
66287W        W38547  38.931  16.575  11.036
66288W        W38548  29.581   2.270  10.666
66289W        W38549  40.987  43.814  12.069
66290W        W38550  14.784  19.734  14.844
66291W        W38551  20.285  11.207   3.699
66292W        W38552   1.390  21.284  13.425
66293W        W38553  35.116  14.031  11.896
66294W        W38554  44.747  26.337   2.882
66295W        W38555   6.435  40.859  11.529
66296W        W38556  16.736  33.618  12.374
66297W        W38557  36.372  32.857   2.780
66298W        W38558  43.529  22.581  11.739
66299W        W38559  39.001  31.511  12.071
66300W        W38560   0.391  36.086  10.508
66301W        W38561   0.405  24.049  10.512
66302W        W38562  22.626  27.532   0.866
66303W        W38563  38.031  34.165  14.558
66304W        W38564  32.939  18.815   3.182
66305W        W38565  43.351  37.035  12.408
66306W        W38566  42.964  28.167  10.614
66307W        W38567   7.326  18.213   0.724
66308W        W38568   6.904  16.723   0.807
66309W        W38569  24.592   0.651   2.376
66310W        W38570  23.516  14.033  11.111
66311W        W38571  13.623  30.201   1.359
66312W        W38572   3.423   3.096   3.888
66313W        W38573   1.012  38.326   2.292
66314W        W38574  41.843  21.640   4.628
66315W        W38575   5.436  17.697  12.463
66316W        W38576  16.299   4.857  10.473
66317W        W38577  18.019   7.582  12.849
66318W        W38578   6.893  42.301  11.421
66319W        W38579  32.456  10.544   1.872
66320W        W38580  22.595   0.902   0.556
66321W        W38581  33.767  19.168  11.818
66322W        W38582  30.600  36.542  13.112
66323W        W38583  21.184  25.694   2.766
66324W        W38584  42.346  24.813  13.971
66325W        W38585  23.673  28.826   3.643
66326W        W38586   1.330  38.214  11.086
66327W        W38587  35.683  18.229   3.177
66328W        W38588  36.392  30.596  12.530
66329W        W38589  22.161   1.933   1.930
66330W        W38590  27.015  13.837  14.895
66331W        W38591   5.612  33.516   1.269
66332W        W38592  22.076  38.223  13.601
66333W        W38593  36.593  25.115  14.347
66334W        W38594  29.112  29.535  12.631
66335W        W38595  13.287  17.787  14.476
66336W        W38596   2.274   8.904  11.495
66337W        W38597   6.727  17.129  14.866
66338W        W38598  32.853  13.322   2.960
66339W        W38599   8.295  34.348   2.457
66340W        W38600  13.543   7.348  14.310
66341W        W38601  39.848  16.023   3.259
66342W        W38602  22.018  24.747  13.389
66343W        W38603  17.771  44.965  13.329
66344W        W38604  40.570   5.279   1.402
66345W        W38605  12.124  19.958  13.961
66346W        W38606  43.365  26.101   1.186
66347W        W38607  25.328   2.508  13.624
66348W        W38608   1.744  36.534   4.867
66349W        W38609  34.618  18.512  11.180
66350W        W38610   8.712   1.745   4.373
66351W        W38611   8.424   1.726  11.112
66352W        W38612  21.529  37.429   4.735
66353W        W38613  17.116   0.388   3.449
66354W        W38614   6.934  27.273  12.318
66355W        W38615   8.826  30.462  11.979
66356W        W38616  20.114  24.245   4.635
66357W        W38617   1.857  38.939   3.256
66358W        W38618  33.345   6.241  14.947
66359W        W38619  32.385  17.038   3.084
66360W        W38620  17.188   4.246   4.472
66361W        W38621   8.745  29.435   1.055
66362W        W38622  24.021  16.201  12.533
66363W        W38623  25.549   2.434   4.041
66364W        W38624   8.752  36.679   1.750
66365W        W38625  25.624  31.059  12.580
66366W        W38626  44.828  13.720   4.780
66367W        W38627   5.898   5.174  12.345
66368W        W38628  26.659   6.703   1.918
66369W        W38629  12.688  29.354   4.186
66370W        W38630  17.523  18.718   4.724
66371W        W38631  13.528  11.923   0.852
66372W        W38632  34.847  18.616  10.314
66373W        W38633  23.108   4.989  12.982
66374W        W38634  26.421   0.116   5.128
66375W        W38635  29.745  20.919  12.014
66376W        W38636  15.319  23.018  14.576
66377W        W38637  43.561  24.645   1.209
66378W        W38638  23.482  23.059  12.980
66379W        W38639  17.249  43.787  11.167
66380W        W38640  10.699   3.977  10.706
66381W        W38641  22.021  28.574   2.376
66382W        W38642   4.886  44.415  14.371
66383W        W38643   2.722   1.455   2.136
66384W        W38644  42.827   8.949  11.933
66385W        W38645  44.304  19.342   3.159
66386W        W38646  37.069  25.126  12.512
66387W        W38647  32.605  18.195   0.354
66388W        W38648  18.674   8.225   1.812
66389W        W38649  11.243  16.146   0.029
66390W        W38650  19.879  18.567  12.029
66391W        W38651   8.750  11.198   2.934
66392W        W38652  29.952  38.483  10.533
66393W        W38653   1.092  21.535  12.919
66394W        W38654  12.914  11.644  12.069
66395W        W38655  36.468  20.509  14.355
66396W        W38656  23.964   6.346  14.330
66397W        W38657  16.163  43.306   1.856
66398W        W38658  34.101  41.200   1.401
66399W        W38659  30.112  35.489   4.370
66400W        W38660  19.791  41.162  14.435
66401W        W38661  39.930   1.870  11.861
66402W        W38662  18.804   5.545   1.627
66403W        W38663   2.726  25.967  13.073
66404W        W38664  35.979  17.646   3.106
66405W        W38665  31.613  18.417   1.656
66406W        W38666  37.400   3.462   3.572
66407W        W38667   8.605  12.656  13.083
66408W        W38668  17.260  22.447  12.510
66409W        W38669  36.791   6.486  14.682
66410W        W38670  16.389  31.593   0.734
66411W        W38671  34.092  36.770  11.602
66412W        W38672  32.389   6.063  12.835
66413W        W38673  35.786  10.904   2.235
66414W        W38674  17.634  15.849   2.315
66415W        W38675  11.911  13.709   3.753
66416W        W38676  41.030  43.362   0.934
66417W        W38677  13.405  27.499  10.591
66418W        W38678   1.823  18.095   2.195
66419W        W38679  15.077  21.940  11.416
66420W        W38680  42.300  29.425  10.945
66421W        W38681   6.306  30.960  13.845
66422W        W38682  20.275  36.882  11.192
66423W        W38683   0.572  34.789  11.511
66424W        W38684  19.507  32.443  13.961
66425W        W38685  21.231  40.115   1.688
66426W        W38686  15.139  17.271  10.694
66427W        W38687  11.718  33.109  12.415
66428W        W38688  41.646  33.795   3.802
66429W        W38689  24.229  21.221  10.612
66430W        W38690  20.777  10.822   3.288
66431W        W38691  41.869  13.792  13.574
66432W        W38692   9.776  34.164  11.842
66433W        W38693  43.813   7.362  11.922
66434W        W38694   7.141  33.577  11.146
66435W        W38695  19.514  37.807   2.219
66436W        W38696  10.794  26.693  12.182
66437W        W38697  18.843  16.709  14.484
66438W        W38698  22.253  42.885  14.803
66439W        W38699   6.192  25.432   2.817
66440W        W38700  32.193  28.154  11.065
66441W        W38701   1.309  26.733   3.835
66442W        W38702  42.092   1.685   2.965
66443W        W38703  21.135  19.571   3.687
66444W        W38704  41.793  20.478  14.748
66445W        W38705  18.815  21.612  14.011
66446W        W38706   6.520  38.349   3.797
66447W        W38707   9.857   3.967  12.416
66448W        W38708  27.571  37.434   0.465
66449W        W38709  15.293   3.091   0.564
66450W        W38710   9.663  16.635   3.769
66451W        W38711  10.867   1.468   2.283
66452W        W38712  33.476  23.643  12.554
66453W        W38713   9.619   7.290   0.296
66454W        W38714  29.689  18.299   1.785
66455W        W38715  20.777  41.962  10.260
66456W        W38716  14.386  41.481  10.731
66457W        W38717  34.446  30.611   1.383
66458W        W38718  13.741  44.036  11.625
66459W        W38719  26.255  40.760  10.186
66460W        W38720   3.169  24.572  13.385
66461W        W38721  19.599   9.743   1.400
66462W        W38722  29.462   4.741   2.561
66463W        W38723  28.104  40.414  12.408
66464W        W38724  39.513  25.221  12.747
66465W        W38725   0.489  28.456  14.897
66466W        W38726  39.331   7.419   9.747
66467W        W38727  19.355  19.810   1.904
66468W        W38728  18.614  25.512  13.262
66469W        W38729   1.211  33.941   0.294
66470W        W38730  41.327  27.621   0.779
66471W        W38731  26.096   8.056  12.026
66472W        W38732   0.704  43.528  11.514
66473W        W38733   0.447  30.375   4.000
66474W        W38734   7.372  38.343  13.057
66475W        W38735  38.026  25.064  12.212
66476W        W38736  21.361   4.935   9.866
66477W        W38737   3.032   0.763   0.429
66478W        W38738  19.225  21.298   0.740
66479W        W38739   4.663  13.224   3.838
66480W        W38740   0.774  15.815  10.036
66481W        W38741  27.730  15.264   1.147
66482W        W38742   5.846  12.886   2.794
66483W        W38743  23.553  13.272  14.427
66484W        W38744  40.091  28.179   1.307
66485W        W38745  19.157  18.544   1.369
66486W        W38746  43.850  18.269   2.818
66487W        W38747  15.702  11.199   4.214
66488W        W38748  23.952  36.395   4.577
66489W        W38749  29.063  16.595   1.202
66490W        W38750  15.986  44.800  11.962
66491W        W38751  13.990   2.206   4.873
66492W        W38752  37.911  36.984   4.065
66493W        W38753  27.134  16.751   4.208
66494W        W38754  27.017  17.617   4.629
66495W        W38755  25.562  39.142   2.875
66496W        W38756   8.259  23.475   1.257
66497W        W38757  24.528  22.455  12.553
66498W        W38758  16.521  21.879  10.710
66499W        W38759  15.106  11.281   1.730
66500W        W38760  26.517  42.991   2.393
66501W        W38761  12.345  16.066  14.977
66502W        W38762  17.996  25.270  14.490
66503W        W38763  34.898  16.558   3.201
66504W        W38764  35.311  27.235  12.177
66505W        W38765  31.293  11.785  12.037
66506W        W38766  44.684  31.011   0.880
66507W        W38767  36.140  19.485   2.800
66508W        W38768  27.858  10.218   1.827
66509W        W38769  34.514  28.171  13.950
66510W        W38770  16.148  28.620   2.637
66511W        W38771  44.635   6.273  13.277
66512W        W38772  27.501  34.590  13.133
66513W        W38773  32.515  15.305   2.249
66514W        W38774  17.472  35.633   0.778
66515W        W38775  14.711  28.729   0.315
66516W        W38776  12.111   0.908  14.385
66517W        W38777  30.361  43.551  13.367
66518W        W38778  23.796  15.869   3.506
66519W        W38779  40.980  32.045  12.893
66520W        W38780  34.669  16.880   3.578
66521W        W38781  44.884  23.354  12.843
66522W        W38782   4.279  42.510  14.709
66523W        W38783  25.153  36.846   4.130
66524W        W38784  44.352  24.140   0.315
66525W        W38785  18.579   2.885  12.007
66526W        W38786  37.858   9.727   4.615
66527W        W38787  21.313  39.946  13.305
66528W        W38788  22.675  26.401  10.628
66529W        W38789  38.312  33.036   1.945
66530W        W38790  18.847  32.489  12.741
66531W        W38791  34.309   8.323  13.238
66532W        W38792  24.053  26.565   3.415
66533W        W38793  21.070  41.747   3.599
66534W        W38794  39.671  34.745   0.016
66535W        W38795  13.888  27.701  10.557
66536W        W38796  33.146   2.765   1.288
66537W        W38797  43.744   1.222   3.238
66538W        W38798   3.952  17.571  14.878
66539W        W38799  40.994   1.939   2.319
66540W        W38800  20.411  31.652   3.591
66541W        W38801  34.009  14.872  14.663
66542W        W38802  36.986   9.220   0.142
66543W        W38803  17.335  43.744  14.771
66544W        W38804  41.851  10.856  13.024
66545W        W38805  26.983  35.686   0.087
66546W        W38806  30.481  31.600   3.129
66547W        W38807   2.219  30.931  13.055
66548W        W38808  39.047  21.624  14.167
66549W        W38809  21.202  39.281   0.781
66550W        W38810  26.213  26.253   3.645
66551W        W38811   9.917  28.122  11.499
66552W        W38812  11.297  11.229   4.293
66553W        W38813   2.359  14.175  12.431
66554W        W38814  12.300  35.262  14.022
66555W        W38815  43.295  20.250   2.701
66556W        W38816  32.741   2.354  11.571
66557W        W38817   3.603  44.458   1.337
66558W        W38818  39.675  33.429   3.267
66559W        W38819  19.645   2.383  10.459
66560W        W38820  38.530  12.827  13.982
66561W        W38821  39.090  15.866  11.398
66562W        W38822  16.006  33.367  11.027
66563W        W38823  40.876  33.931  14.418
66564W        W38824  44.155  13.904  11.903
66565W        W38825  17.099   9.352   2.224
66566W        W38826  22.776  41.832   0.428
66567W        W38827  37.359   6.734  11.148
66568W        W38828  41.670  33.122   2.690
66569W        W38829  18.286  38.415   0.180
66570W        W38830  20.172  26.841  13.883
66571W        W38831  11.911  27.929  12.863
66572W        W38832  11.255  38.577   0.708
66573W        W38833   1.716  40.984  13.113
66574W        W38834  24.919   5.388   2.222
66575W        W38835  34.964  35.012  10.612
66576W        W38836  41.133  16.060  13.272
66577W        W38837  25.929  39.928  14.956
66578W        W38838  28.132  24.161  14.419
66579W        W38839  37.980  32.929   2.354
66580W        W38840  43.879   6.196   3.433
66581W        W38841  18.835  33.066  10.700
66582W        W38842  31.064  18.503   2.307
66583W        W38843  26.938  24.773   1.882
66584W        W38844  29.374  24.098   1.484
66585W        W38845  33.308   1.980   1.773
66586W        W38846  23.882  44.466   1.740
66587W        W38847  41.724  18.355   3.686
66588W        W38848   6.628  36.913   2.309
66589W        W38849  24.990   1.787   0.060
66590W        W38850  36.016  29.845   2.792
66591W        W38851  30.525  20.716   3.009
66592W        W38852  24.710  32.921   1.669
66593W        W38853  26.732  23.187   3.687
66594W        W38854   5.124   3.239   2.704
66595W        W38855  26.990  19.928   1.297
66596W        W38856   7.888  43.808   4.471
66597W        W38857   5.249  31.387  14.446
66598W        W38858  22.698  42.229   3.476
66599W        W38859  26.019  42.211  13.325
66600W        W38860   5.881  27.666  14.908
66601W        W38861  12.133  32.453   3.001
66602W        W38862  27.076   9.209   2.194
66603W        W38863  31.213   2.085   4.540
66604W        W38864  15.025  37.249  14.413
66605W        W38865  33.058   6.318   4.085
66606W        W38866  44.856  17.054   4.094
66607W        W38867  18.375  23.173   1.661
66608W        W38868  43.216  40.374   2.862
66609W        W38869  34.634  28.930   2.158
66610W        W38870   0.410  44.812   0.749
66611W        W38871   9.486  24.980   4.963
66612W        W38872  34.009  13.666   4.312
66613W        W38873   6.699  29.705  11.080
66614W        W38874   8.476  40.604   0.466
66615W        W38875   4.989   5.155  12.440
66616W        W38876  15.261  37.783  10.359
66617W        W38877  14.407  41.452  11.714
66618W        W38878   1.508  37.516   3.252
66619W        W38879  32.015   7.832   3.994
66620W        W38880   6.145  40.594  14.937
66621W        W38881   4.106  36.163  14.722
66622W        W38882  18.718  14.374  11.101
66623W        W38883  12.110  25.412   0.426
66624W        W38884  31.221  23.647   1.769
66625W        W38885  14.283  34.473   2.164
66626W        W38886  43.268  12.319   0.296
66627W        W38887  26.447   4.821   4.851
66628W        W38888   0.828  15.610   2.838
66629W        W38889  18.037   3.264   0.297
66630W        W38890  27.956   0.909  10.750
66631W        W38891  10.244  36.566  13.473
66632W        W38892  30.058   3.356   2.909
66633W        W38893   6.538  16.227   0.034
66634W        W38894   4.880  23.179  11.970
66635W        W38895  21.356  11.514   4.083
66636W        W38896  20.165  25.629  10.862
66637W        W38897  41.569   9.155   2.826
66638W        W38898  34.521   9.736   0.477
66639W        W38899  15.849  15.067  13.409
66640W        W38900   6.750   0.779   0.995
66641W        W38901  43.000   1.074   2.208
66642W        W38902  17.860   5.670   0.237
66643W        W38903   7.403   7.523   1.453
66644W        W38904  36.077   1.509   4.343
66645W        W38905   4.808  43.953  11.691
66646W        W38906  14.750  36.904  11.119
66647W        W38907   7.248  21.194   3.306
66648W        W38908   5.585  28.164   0.876
66649W        W38909  26.131   7.255   2.955
66650W        W38910  34.588  26.124   4.579
66651W        W38911  21.879  39.409   1.391
66652W        W38912  36.021  37.575   3.233
66653W        W38913  13.266   0.781  11.028
66654W        W38914  12.075  25.240  13.401
66655W        W38915   0.210  39.808   0.867
66656W        W38916  40.156  21.854   3.970
66657W        W38917  39.511   5.689  14.051
66658W        W38918  32.602   4.180  14.295
66659W        W38919  13.565  28.303  10.239
66660W        W38920  28.902  39.062  12.387
66661W        W38921  12.328  18.546  13.813
66662W        W38922  23.498  33.395   1.266
66663W        W38923  32.979  24.280   1.210
66664W        W38924  19.609  41.926   4.542
66665W        W38925  29.030   3.613   4.900
66666W        W38926  30.769   6.433  13.359
66667W        W38927  18.526  41.705   5.335
66668W        W38928  13.927  38.379  14.391
66669W        W38929  27.937  28.463   1.699
66670W        W38930   7.917  33.587  11.600
66671W        W38931   3.338  22.158  14.299
66672W        W38932  19.191   6.158  10.488
66673W        W38933  35.778   1.297   1.318
66674W        W38934  32.616   2.888   1.332
66675W        W38935  26.099  28.121   2.185
66676W        W38936  38.096  30.036   0.957
66677W        W38937  26.192  41.078   0.856
66678W        W38938  16.304  30.538  14.273
66679W        W38939  21.969   2.596   1.395
66680W        W38940  26.281  42.194  14.744
66681W        W38941  20.304  16.290   4.086
66682W        W38942  27.339  30.349  12.031
66683W        W38943  38.621  17.551  12.119
66684W        W38944   0.684  21.076  10.165
66685W        W38945  22.458  31.196   0.402
66686W        W38946  34.319  37.312   4.649
66687W        W38947  39.503  12.112  14.897
66688W        W38948  14.693  18.759   0.007
66689W        W38949  15.579  25.226   0.719
66690W        W38950  23.734   4.560  11.637
66691W        W38951  33.557   3.365  13.716
66692W        W38952   7.585   9.241  13.161
66693W        W38953  34.885  27.412   2.194
66694W        W38954  24.093  20.196  11.557
66695W        W38955  13.082  17.241   2.266
66696W        W38956  12.710  11.185  13.763
66697W        W38957  16.672  39.248  11.140
66698W        W38958  22.497  34.510   1.356
66699W        W38959  24.110  14.855  12.845
66700W        W38960  14.138  25.729   3.660
66701W        W38961   0.036   7.029  10.731
66702W        W38962  38.759  24.503  13.470
66703W        W38963  16.356  27.271   1.282
66704W        W38964  29.857  40.510   0.458
66705W        W38965  34.619   5.336   4.778
66706W        W38966  33.912   2.818   0.716
66707W        W38967   3.757  13.127  12.871
66708W        W38968  11.218   1.875  11.633
66709W        W38969  14.287  13.785  12.338
66710W        W38970  27.939  15.299   3.758
66711W        W38971  23.261  13.979   4.572
66712W        W38972  10.116  13.428   2.564
66713W        W38973  14.630  10.694   1.219
66714W        W38974   6.896  39.016   2.260
66715W        W38975  14.513  11.130  10.719
66716W        W38976  18.681  17.113  13.216
66717W        W38977   3.406  39.745  13.789
66718W        W38978  10.745  28.383  11.591
66719W        W38979  36.752   1.272   2.763
66720W        W38980   5.422  37.595   1.261
66721W        W38981   3.408  18.303  14.570
66722W        W38982  31.968  11.050   3.153
66723W        W38983  11.611  31.168   1.749
66724W        W38984  27.572  27.708   2.902
66725W        W38985  36.809  18.084  13.682
66726W        W38986   7.654   5.744   1.277
66727W        W38987  44.880  42.226   3.723
66728W        W38988  20.761   6.173  11.562
66729W        W38989  15.351  30.058  10.170
66730W        W38990  23.250  23.026   2.161
66731W        W38991  27.489  40.899  11.499
66732W        W38992  44.076  25.874   4.268
66733W        W38993  11.318   7.408   1.968
66734W        W38994  20.036  22.026  13.947
66735W        W38995  25.385  42.852   3.342
66736W        W38996   4.000  30.460   0.345
66737W        W38997  11.773  40.110  13.730
66738W        W38998  23.074   4.953   0.044
66739W        W38999  37.898  44.801  10.937
66740W        W39000  13.894   8.489  12.213
66741W        W39001   1.356  15.699   3.720
66742W        W39002   3.379  41.460   4.241
66743W        W39003  25.056  37.438  12.298
66744W        W39004  36.003  38.953   2.416
66745W        W39005  19.213  11.396  11.078
66746W        W39006  17.836  36.027   3.652
66747W        W39007  26.767  34.839  11.018
66748W        W39008   2.370  11.069  12.391
66749W        W39009   2.165  17.326  12.089
66750W        W39010  29.824  20.420  12.123
66751W        W39011  11.735   1.286   4.771
66752W        W39012  40.802  22.305  10.740
66753W        W39013  18.526  20.953  10.999
66754W        W39014  28.871  24.358   4.046
66755W        W39015   4.748  12.158   3.263
66756W        W39016  15.604   5.556  14.477
66757W        W39017  32.108   1.865  10.929
66758W        W39018   9.720  21.464   3.828
66759W        W39019  19.555  31.885   0.782
66760W        W39020  30.118  43.461  14.192
66761W        W39021  14.538  44.958  11.810
66762W        W39022  36.818  13.121   1.492
66763W        W39023  38.725  10.282  14.345
66764W        W39024  15.039  13.138   3.187
66765W        W39025  31.264  28.938   4.840
66766W        W39026  11.757   2.684  12.069
66767W        W39027  17.755   0.947  12.828
66768W        W39028   8.278  32.363   2.282
66769W        W39029  23.120  16.846  14.876
66770W        W39030  40.874  24.252   4.762
66771W        W39031  17.993  12.853   0.077
66772W        W39032  35.431  22.645   5.012
66773W        W39033  22.820  17.166  11.236
66774W        W39034   9.222  40.530  13.363
66775W        W39035  29.899  10.730   1.229
66776W        W39036  21.683  23.489  11.551
66777W        W39037   1.855  19.612   4.578
66778W        W39038  16.048   7.877  12.499
66779W        W39039  33.164  17.813   3.750
66780W        W39040   9.434  21.778  11.192
66781W        W39041   4.230  40.960   2.185
66782W        W39042  44.275   3.268   2.883
66783W        W39043   0.802  23.237   1.725
66784W        W39044   3.049   8.668   2.715
66785W        W39045  36.449  10.827   0.434
66786W        W39046   4.318  24.923  11.568
66787W        W39047  16.560  35.760  11.846
66788W        W39048  15.034  40.676   0.567
66789W        W39049  33.934   2.695   0.185
66790W        W39050  26.516  22.197   0.316
66791W        W39051  36.811  14.544   0.355
66792W        W39052  26.494  32.481  12.073
66793W        W39053  28.912   7.696  11.484
66794W        W39054  10.382  12.277   0.317
66795W        W39055   2.319   6.875  13.062
66796W        W39056   2.243  44.991  11.940
66797W        W39057  39.521   6.859  13.154
66798W        W39058  32.966  36.321  14.712
66799W        W39059  28.712  16.349  11.137
66800W        W39060  41.073  44.530  12.945
66801W        W39061  28.557   9.641   2.706
66802W        W39062  28.761  28.490   4.175
66803W        W39063  25.245  39.434   5.333
66804W        W39064  27.273  31.279   2.998
66805W        W39065  15.396  22.226  12.281
66806W        W39066  29.642  38.491  12.835
66807W        W39067   4.218  18.348   0.061
66808W        W39068  18.482   4.377   0.732
66809W        W39069  23.206  10.302   4.087
66810W        W39070  39.073  38.474   4.568
66811W        W39071  27.924  33.256  11.823
66812W        W39072  16.845  40.331  12.906
66813W        W39073  18.115   4.894   3.852
66814W        W39074  21.072  17.557   1.006
66815W        W39075  21.122  14.783   1.774
66816W        W39076  32.028  29.477   0.716
66817W        W39077  41.790   7.097   1.570
66818W        W39078  37.441   4.130  13.666
66819W        W39079  26.526  35.528  10.347
66820W        W39080  14.694   2.493  14.319
66821W        W39081  11.601  22.401  14.189
66822W        W39082  18.257  13.113  12.501
66823W        W39083  14.325  20.065  11.859
66824W        W39084  22.044  13.769   1.200
66825W        W39085  22.426   7.888   3.916
66826W        W39086  33.383  18.614   4.161
66827W        W39087  43.881  28.318   0.698
66828W        W39088  40.347   7.343  14.889
66829W        W39089  28.560  12.193  13.852
66830W        W39090  32.666  44.025   0.978
66831W        W39091  33.842  33.665  14.058
66832W        W39092  33.385  37.923  12.536
66833W        W39093  14.063   7.649   3.591
66834W        W39094   7.836  23.729  11.586
66835W        W39095  22.709   2.339  12.854
66836W        W39096  40.568  23.187  11.209
66837W        W39097   9.843   8.166  11.961
66838W        W39098  27.430   4.523  11.045
66839W        W39099  14.361  17.332  13.827
66840W        W39100  31.035  26.053   2.080
66841W        W39101  13.771  11.234  14.111
66842W        W39102  43.909  20.282  11.560
66843W        W39103  22.017  38.318   0.817
66844W        W39104  44.536  15.054  11.181
66845W        W39105  38.843  35.429  12.425
66846W        W39106  44.963   7.437   2.144
66847W        W39107  26.913  19.156   3.902
66848W        W39108  24.755  12.025  14.108
66849W        W39109  29.178   7.677   4.543
66850W        W39110  43.294  41.983  11.052
66851W        W39111   7.391   7.404  12.018
66852W        W39112  33.519  30.578  13.154
66853W        W39113  27.189   9.809  10.692
66854W        W39114  32.056   2.801  10.658
66855W        W39115   1.702  42.719   9.974
66856W        W39116  19.735  24.954  11.607
66857W        W39117  19.289   7.221   3.225
66858W        W39118  43.071  33.674   2.659
66859W        W39119  10.066   3.893   2.649
66860W        W39120  36.243   3.007   1.405
66861W        W39121  40.761  15.089   1.737
66862W        W39122  30.022  13.206  14.016
66863W        W39123  43.046  13.259  13.465
66864W        W39124   6.785  34.361   4.544
66865W        W39125  10.140  11.287  12.953
66866W        W39126  13.778  39.325  13.312
66867W        W39127  19.123  43.109  14.905
66868W        W39128  36.460  42.579   2.411
66869W        W39129  23.224  38.453   0.257
66870W        W39130  39.787  26.914   0.926
66871W        W39131  16.186  32.542  10.464
66872W        W39132  11.934  29.198   2.793
66873W        W39133  27.051   1.241  12.689
66874W        W39134  30.481  23.188   0.306
66875W        W39135  25.220  31.454   3.670
66876W        W39136  32.924   6.855   3.905
66877W        W39137  32.285  23.195   0.022
66878W        W39138  23.595  43.466   0.902
66879W        W39139  29.323  41.468  12.427
66880W        W39140  36.852  16.803  14.289
66881W        W39141   5.778  18.803  12.109
66882W        W39142   2.855   3.478  13.002
66883W        W39143  11.129   9.719   0.958
66884W        W39144  28.884  27.487  11.964
66885W        W39145  31.976  30.392   0.792
66886W        W39146  24.008  10.218   3.278
66887W        W39147  31.892  41.553  11.596
66888W        W39148  29.476  44.753   4.111
66889W        W39149  36.528  41.389   4.579
66890W        W39150  18.090   7.686  10.609
66891W        W39151  34.583  20.998  11.075
66892W        W39152  22.269  31.894  10.263
66893W        W39153  18.672  25.742   2.712
66894W        W39154  29.522  18.185  14.800
66895W        W39155   8.227  37.483   0.877
66896W        W39156   5.632  38.748   3.724
66897W        W39157  40.807  18.054  14.334
66898W        W39158  16.593  42.522   3.222
66899W        W39159  26.218  36.615  13.430
66900W        W39160  39.043  36.541   1.272
66901W        W39161  14.689   2.464   3.705
66902W        W39162  43.874  37.624  13.831
66903W        W39163  32.962  19.013  12.866
66904W        W39164  21.282   1.014   3.641
66905W        W39165  38.158  41.998  11.617
66906W        W39166  31.271  41.460   3.303
66907W        W39167  29.170  30.916  12.575
66908W        W39168  18.840  29.685  11.135
66909W        W39169  41.573  43.427  12.782
66910W        W39170  12.836  10.135  11.018
66911W        W39171  24.585   1.784  12.337
66912W        W39172  17.699  31.520  11.596
66913W        W39173   4.200  38.051  12.477
66914W        W39174  25.036  24.479   0.683
66915W        W39175  17.183  16.216   1.419
66916W        W39176  13.290  37.531   3.506
66917W        W39177   8.491  30.960   3.880
66918W        W39178  43.230  26.642   3.914
66919W        W39179  13.302  16.329   3.049
66920W        W39180  15.763   9.127  12.268
66921W        W39181  19.956  36.427   1.806
66922W        W39182  11.626   1.916   4.012
66923W        W39183  12.855  28.377   0.359
66924W        W39184  12.544   3.212  11.353
66925W        W39185  37.786   7.265   1.694
66926W        W39186  31.327  14.126  10.106
66927W        W39187  33.016   6.832   3.358
66928W        W39188  34.572  40.833  10.707
66929W        W39189  23.544   1.137  13.586
66930W        W39190  39.328  36.420  14.001
66931W        W39191  41.243  23.522   0.965
66932W        W39192  12.416  38.069  11.085
66933W        W39193  34.865   1.204  10.512
66934W        W39194  32.025   4.828   2.941
66935W        W39195  44.295  41.822  14.418
66936W        W39196   4.686  25.594  10.863
66937W        W39197  26.650  22.779  10.386
66938W        W39198  24.308  44.228  11.112
66939W        W39199  38.360  40.333   1.704
66940W        W39200  15.322  17.989  12.419
66941W        W39201   2.926  21.720   1.807
66942W        W39202  44.012  36.559  14.938
66943W        W39203  15.856  32.623  14.375
66944W        W39204  19.024  43.771  12.489
66945W        W39205   1.374  19.808  11.545
66946W        W39206  43.038  18.000  10.741
66947W        W39207   7.443   0.964   1.327
66948W        W39208  31.619  39.542   2.954
66949W        W39209  16.576  18.002  14.507
66950W        W39210   2.907   3.846  13.408
66951W        W39211   4.915  22.722   3.265
66952W        W39212   0.250  30.503  11.511
66953W        W39213  41.990  30.065  10.699
66954W        W39214  38.985   4.501   4.529
66955W        W39215  38.815  14.896  11.556
66956W        W39216  23.778  17.299   2.158
66957W        W39217  42.447   0.863   2.764
66958W        W39218  42.246   3.618   1.653
66959W        W39219  44.330  41.287   1.395
66960W        W39220  43.828   2.980   2.844
66961W        W39221  33.195  38.573   2.294
66962W        W39222  26.073   4.758   3.007
66963W        W39223  17.706   3.304   0.714
66964W        W39224   4.603   1.326  13.967
66965W        W39225  11.558  37.570  12.581
66966W        W39226  35.623  15.716   0.347
66967W        W39227  35.436  39.357   0.496
66968W        W39228  41.711  36.920  12.940
66969W        W39229   6.772  25.685   5.458
66970W        W39230  38.662   1.340  12.807
66971W        W39231  15.263  24.830   1.887
66972W        W39232  39.303  32.053  10.942
66973W        W39233  10.676  16.334  13.327
66974W        W39234  27.582  41.457  13.746
66975W        W39235  20.326   7.605   4.555
66976W        W39236  31.493   5.885  12.825
66977W        W39237   7.416  16.447  14.846
66978W        W39238   7.121   6.261  10.681
66979W        W39239  32.882  31.983   1.695
66980W        W39240  44.276  12.694  13.907
66981W        W39241  28.032  29.698  14.948
66982W        W39242  39.547  42.489   1.379
66983W        W39243  25.345   4.189  14.731
66984W        W39244  19.139  19.079   1.238
66985W        W39245   0.376  26.255   4.655
66986W        W39246  31.468   9.522   0.894
66987W        W39247  43.293  11.178   0.717
66988W        W39248  26.142  31.194  14.854
66989W        W39249  20.421  30.383  14.389
66990W        W39250   9.700   8.882   4.344
66991W        W39251   8.646  40.475  14.429
66992W        W39252  37.982  22.521  12.860
66993W        W39253  42.928  34.300   3.782
66994W        W39254  24.030   9.445   4.319
66995W        W39255  44.369  24.031  14.421
66996W        W39256  34.913  28.876   5.153
66997W        W39257  23.017  37.915  13.105
66998W        W39258  13.345  13.145  13.971
66999W        W39259  10.791  11.558   3.666
67000W        W39260   4.383  29.496   4.812
67001W        W39261  24.094  40.290   0.418
67002W        W39262  32.372   3.341   0.238
67003W        W39263  20.521  25.999   2.771
67004W        W39264  27.939   0.517  14.222
67005W        W39265   8.769  19.895  12.929
67006W        W39266  27.886  23.525  13.290
67007W        W39267   1.986  17.722   1.826
67008W        W39268  36.398  21.349  13.369
67009W        W39269  39.086   4.158   0.925
67010W        W39270  15.158   5.767  14.323
67011W        W39271  21.075  39.905  14.758
67012W        W39272  17.714   7.835   9.774
67013W        W39273  39.466   7.179   0.466
67014W        W39274  15.585  33.656  11.092
67015W        W39275  13.207  23.832   4.086
67016W        W39276  34.298  36.046   1.264
67017W        W39277  36.357  10.872   2.264
67018W        W39278   7.316  38.949  10.636
67019W        W39279  39.429  15.844  13.417
67020W        W39280   0.330  44.450  13.362
67021W        W39281   6.411  23.477  11.583
67022W        W39282  29.022  18.715  12.110
67023W        W39283  15.724  37.525   1.493
67024W        W39284   8.224  11.158   4.855
67025W        W39285  14.922  32.482  12.930
67026W        W39286  25.678  23.200   0.910
67027W        W39287  32.749  25.997  12.153
67028W        W39288   3.852   4.364  14.078
67029W        W39289  14.106  20.536  14.142
67030W        W39290   8.141  33.801   1.904
67031W        W39291   0.712  26.116   3.752
67032W        W39292   8.365  44.729  13.512
67033W        W39293  22.070   1.625  13.369
67034W        W39294  17.817  27.032   2.885
67035W        W39295  29.860  26.698   2.362
67036W        W39296  34.671   9.378   3.689
67037W        W39297   0.991  10.890  11.302
67038W        W39298  32.885  39.532   0.901
67039W        W39299  10.841  27.308   1.330
67040W        W39300  37.440  16.088  14.451
67041W        W39301  38.114  31.171  11.735
67042W        W39302  25.956  30.548  10.693
67043W        W39303  22.801  20.678  11.145
67044W        W39304  23.709  25.128  10.582
67045W        W39305  36.394  36.079  14.869
67046W        W39306   0.311   3.119  13.757
67047W        W39307  25.122  16.259   2.717
67048W        W39308  12.714  11.857  10.753
67049W        W39309  19.602  41.015  10.481
67050W        W39310  14.871  33.547   0.875
67051W        W39311  14.773  15.230   3.334
67052W        W39312  38.889   6.456   3.079
67053W        W39313   1.247  28.789   3.807
67054W        W39314  32.018  10.281  12.098
67055W        W39315  39.971  25.972  12.871
67056W        W39316  34.040  13.133   1.437
67057W        W39317  37.969  28.533  13.401
67058W        W39318  44.798  41.542  14.947
67059W        W39319  26.964  43.877  10.554
67060W        W39320   6.851  38.537  13.062
67061W        W39321  29.518  14.015   0.909
67062W        W39322  21.166  21.596   5.553
67063W        W39323  29.931  13.815  11.519
67064W        W39324   5.683   4.309  12.479
67065W        W39325  33.394  10.456   1.620
67066W        W39326  19.025  16.250   3.840
67067W        W39327  19.150  11.643  12.008
67068W        W39328   3.928  21.721  12.155
67069W        W39329  30.069   7.210   3.886
67070W        W39330  33.838  21.049   1.746
67071W        W39331   6.742  22.075  14.387
67072W        W39332  22.386  20.483   3.407
67073W        W39333  20.665   7.354   0.736
67074W        W39334  36.573   2.318  10.757
67075W        W39335  19.536   0.876  10.777
67076W        W39336  16.160  19.833   4.069
67077W        W39337  38.205  17.900   2.408
67078W        W39338  11.750  12.786   1.267
67079W        W39339   9.772  42.773  12.303
67080W        W39340  37.089   3.935  12.481
67081W        W39341   3.368  39.027   0.021
67082W        W39342  34.021  32.640   1.734
67083W        W39343  43.255   8.470   2.146
67084W        W39344  30.242  22.627   1.848
67085W        W39345  21.751  18.231   0.951
67086W        W39346  22.217   0.257  10.625
67087W        W39347  31.977  42.237   1.894
67088W        W39348  44.020  42.908  12.933
67089W        W39349   7.205  42.399  14.470
67090W        W39350  42.052  11.902  14.906
67091W        W39351  11.251   1.411   2.690
67092W        W39352   5.676  40.936   2.506
67093W        W39353   1.784  20.862  12.930
67094W        W39354   0.966  22.471  12.056
67095W        W39355  25.301  15.344  10.165
67096W        W39356   4.290  26.617  10.212
67097W        W39357  15.045  18.849   1.141
67098W        W39358  32.440   1.951  11.682
67099W        W39359  35.694  14.087  12.089
67100W        W39360  30.201  34.911   1.284
67101W        W39361  29.025  38.421   3.668
67102W        W39362   4.858   5.967  14.831
67103W        W39363  32.357  36.291  11.993
67104W        W39364  23.896   7.186  14.692
67105W        W39365  28.596   9.276   3.085
67106W        W39366  44.506  31.867  11.956
67107W        W39367  37.528  29.995  14.757
67108W        W39368  35.988  14.895  12.526
67109W        W39369   3.733  25.089  10.820
67110W        W39370  31.434  27.515  11.205
67111W        W39371  32.222   3.786  13.432
67112W        W39372  30.613  23.188  14.502
67113W        W39373  42.066  19.518   4.273
67114W        W39374  24.123  41.990  12.914
67115W        W39375  42.298  37.266   4.695
67116W        W39376  37.682  42.905   3.257
67117W        W39377  21.504  33.922   2.258
67118W        W39378   4.988  31.360  13.596
67119W        W39379  33.383  11.646  12.303
67120W        W39380  21.288  38.889  11.554
67121W        W39381   5.760  20.625   3.078
67122W        W39382   3.321  44.046  12.447
67123W        W39383  20.726  29.986   1.716
67124W        W39384  21.534  10.318  12.271
67125W        W39385  35.180  24.589  12.809
67126W        W39386  25.177  35.601   0.149
67127W        W39387  38.401  36.469  10.861
67128W        W39388  25.898  39.321  11.322
67129W        W39389  35.692  41.521  12.195
67130W        W39390  36.868  34.984  10.833
67131W        W39391  11.289  43.711   0.890
67132W        W39392   9.790  27.742   3.714
67133W        W39393  22.935   9.185   3.180
67134W        W39394   2.308  15.707  14.499
67135W        W39395  18.643  26.022  13.417
67136W        W39396   0.011   2.900  10.520
67137W        W39397  26.345   8.455  11.122
67138W        W39398   5.113   6.362  12.403
67139W        W39399  14.800   2.359  12.377
67140W        W39400  28.683  19.488   4.932
67141W        W39401  10.665  28.799  11.270
67142W        W39402  36.309  43.802   0.164
67143W        W39403  16.095  44.770  10.706
67144W        W39404   0.175   6.154  14.126
67145W        W39405  20.301  12.260  11.102
67146W        W39406  19.051  38.895  11.107
67147W        W39407  36.131  38.110  14.161
67148W        W39408  19.523   9.104   1.805
67149W        W39409  30.410  21.547   4.295
67150W        W39410  36.559   1.389   1.281
67151W        W39411  13.871   8.971   4.071
67152W        W39412  21.644   7.891   2.424
67153W        W39413   9.604  33.071   4.652
67154W        W39414  35.010  31.184   2.443
67155W        W39415  18.140  13.691   0.422
67156W        W39416  20.631  18.668  14.644
67157W        W39417   9.882  20.492   0.537
67158W        W39418  26.959  12.787  13.202
67159W        W39419  30.509   2.563  10.735
67160W        W39420  27.049  19.598   2.908
67161W        W39421  29.909  26.920  13.277
67162W        W39422  29.681   7.043   4.630
67163W        W39423  16.285  16.769   4.287
67164W        W39424  24.448   6.880  13.836
67165W        W39425  15.124  40.981  10.754
67166W        W39426  21.885  16.632   2.329
67167W        W39427  19.326  37.543  13.968
67168W        W39428   4.181  28.067   1.438
67169W        W39429  36.476  16.239  10.709
67170W        W39430   8.494  41.645  13.509
67171W        W39431  40.287  33.810  13.600
67172W        W39432  24.040  28.887   4.221
67173W        W39433  17.077  36.666   4.139
67174W        W39434  14.827  11.885  14.088
67175W        W39435  14.249  19.558   3.107
67176W        W39436  21.159   1.752  11.924
67177W        W39437   2.491  31.897   1.778
67178W        W39438  37.412  36.035   2.786
67179W        W39439  41.797  30.459  12.344
67180W        W39440  17.070   3.732  13.433
67181W        W39441  36.879  37.625  11.579
67182W        W39442  37.271  25.139   0.395
67183W        W39443   7.655  26.586  14.642
67184W        W39444  27.591  43.310   1.706
67185W        W39445  30.212  42.418  12.935
67186W        W39446  33.984  37.930   2.378
67187W        W39447   9.071  11.298   3.327
67188W        W39448   2.227  13.226   3.748
67189W        W39449  38.582   9.324  12.633
67190W        W39450  11.939  20.287  12.484
67191W        W39451   9.314  39.607  10.502
67192W        W39452   2.416  36.879   0.917
67193W        W39453   6.436  41.623  12.537
67194W        W39454  10.717   9.652  12.384
67195W        W39455  30.351  37.858  12.531
67196W        W39456  17.177   4.601   2.091
67197W        W39457  42.553  33.091  12.911
67198W        W39458   1.315  31.981   0.867
67199W        W39459  11.810  30.075  12.028
67200W        W39460  41.458   0.901   2.386
67201W        W39461  21.372  11.830  11.523
67202W        W39462  29.343  23.586   2.742
67203W        W39463   6.713  12.712  12.480
67204W        W39464  36.505  37.086   0.233
67205W        W39465  42.849  28.765  11.485
67206W        W39466  41.813  40.576   3.625
67207W        W39467  27.194  10.735   4.183
67208W        W39468  24.049  17.241  12.573
67209W        W39469  38.795  28.241  14.333
67210W        W39470  42.442  40.109  14.301
67211W        W39471  13.852  35.898   4.455
67212W        W39472   8.363   0.684  14.551
67213W        W39473  30.027  40.668  11.165
67214W        W39474  26.232  11.743  14.028
67215W        W39475  15.172  38.404   2.839
67216W        W39476  14.582  43.077  11.561
67217W        W39477   7.274  38.639  11.053
67218W        W39478  17.601  40.294   0.017
67219W        W39479   2.482  19.149   4.183
67220W        W39480  33.058  43.935  14.817
67221W        W39481  42.473  25.267   2.588
67222W        W39482  24.527  36.123   0.679
67223W        W39483  43.502   8.687   0.168
67224W        W39484  39.498  23.900  10.575
67225W        W39485  21.650  36.125  11.101
67226W        W39486  19.786  27.345   0.691
67227W        W39487   8.775  29.631  10.745
67228W        W39488  42.411  22.011  11.088
67229W        W39489  13.306  44.708   0.518
67230W        W39490  17.701  26.853   2.396
67231W        W39491  16.844   5.068  14.626
67232W        W39492   1.406  14.134   2.231
67233W        W39493  14.245   3.429   1.743
67234W        W39494  35.337  13.039  12.554
67235W        W39495  43.340  27.147  10.702
67236W        W39496  36.289  29.066   0.450
67237W        W39497  12.786  29.603  11.062
67238W        W39498  15.173  20.071  10.636
67239W        W39499  11.062  12.793   5.024
67240W        W39500  32.689   0.841  10.182
67241W        W39501  38.484  31.949  14.907
67242W        W39502  33.541  42.082   0.873
67243W        W39503  29.119  17.499   1.886
67244W        W39504  24.339   6.914  12.097
67245W        W39505  24.743  36.580   0.806
67246W        W39506  19.289   9.301   4.257
67247W        W39507  35.671  38.747   4.137
67248W        W39508  17.178  12.248   3.367
67249W        W39509   5.882  37.118  14.110
67250W        W39510   4.434  18.338  10.646
67251W        W39511  44.687   5.422  10.387
67252W        W39512   9.155  42.528   3.576
67253W        W39513   8.425  23.145  12.864
67254W        W39514   5.889   3.806   2.304
67255W        W39515   0.330  10.010   3.180
67256W        W39516  11.825  34.918   0.815
67257W        W39517  26.202  31.871  11.977
67258W        W39518  22.563  40.775  14.566
67259W        W39519  35.191  36.854   0.318
67260W        W39520  35.016   6.605  12.048
67261W        W39521  40.805  35.331   2.390
67262W        W39522  10.394   9.200  14.560
67263W        W39523  30.084  15.048   3.317
67264W        W39524  41.922  37.401  14.881
67265W        W39525  25.843  29.725  11.567
67266W        W39526  27.163  23.476  11.471
67267W        W39527  22.936  44.558  10.640
67268W        W39528  34.942  30.612   1.212
67269W        W39529   0.250  33.127  13.315
67270W        W39530   4.224  29.823  11.522
67271W        W39531  18.644  20.555  12.855
67272W        W39532  40.791  18.822  12.523
67273W        W39533  20.742  38.359  10.676
67274W        W39534  34.167   3.486   1.866
67275W        W39535  31.465  20.232   0.853
67276W        W39536  17.147   5.939   4.760
67277W        W39537  38.801   2.835  14.153
67278W        W39538  35.829  27.067   3.355
67279W        W39539  38.409   9.834  14.697
67280W        W39540  40.537  11.894   3.224
67281W        W39541   4.129  42.570   4.873
67282W        W39542  19.568  34.199   4.083
67283W        W39543  40.642  29.449   0.240
67284W        W39544  18.650   6.721  12.367
67285W        W39545   8.682  41.426   0.356
67286W        W39546   7.493  36.998  11.244
67287W        W39547  29.725  25.991  10.717
67288W        W39548  35.970   8.055  10.744
67289W        W39549  32.628   3.943   3.098
67290W        W39550  12.229   1.486   4.687
67291W        W39551  36.378  41.084   0.122
67292W        W39552  14.338   8.290  13.301
67293W        W39553  10.782  36.497   2.378
67294W        W39554  42.157  36.969  11.654
67295W        W39555  23.673  38.935  13.490
67296W        W39556   7.808  26.658   3.225
67297W        W39557   6.052   9.305   0.336
67298W        W39558  22.529  12.353  14.354
67299W        W39559  33.574   3.725  11.208
67300W        W39560   6.044   3.496  11.547
67301W        W39561  29.498  42.082  13.855
67302W        W39562  28.238  31.998  12.589
67303W        W39563  18.268  33.816   2.349
67304W        W39564  13.244  39.268   2.783
67305W        W39565  34.153  28.515   0.766
67306W        W39566   3.358  26.142  13.882
67307W        W39567  27.685  17.714   4.917
67308W        W39568  38.997  25.635   4.741
67309W        W39569  24.600   0.660   4.798
67310W        W39570  28.073  40.782   3.223
67311W        W39571   9.341   9.833  14.330
67312W        W39572  17.214  30.865  13.090
67313W        W39573  37.840  43.754   3.853
67314W        W39574  10.323  26.112   1.419
67315W        W39575   2.491  27.410   3.102
67316W        W39576  21.698   7.442   2.196
67317W        W39577  40.785  25.091   1.318
67318W        W39578  43.313  26.542  14.809
67319W        W39579  25.577  16.108   1.967
67320W        W39580   3.001   8.015   0.934
67321W        W39581  40.575  36.758   1.393
67322W        W39582  34.595  34.138   2.298
67323W        W39583   5.393  17.178  11.734
67324W        W39584  28.255  29.921  12.473
67325W        W39585   9.217  29.106   3.670
67326W        W39586  33.508  12.137  13.489
67327W        W39587  40.075  12.169   1.810
67328W        W39588  21.857  34.637  12.875
67329W        W39589  10.122  29.678  14.420
67330W        W39590  35.244  31.970   4.575
67331W        W39591  17.204  28.531   3.233
67332W        W39592  24.081  36.992   3.234
67333W        W39593  41.968  42.089  12.149
67334W        W39594   3.506  39.490  14.243
67335W        W39595  40.229  10.895   0.208
67336W        W39596  25.916  18.318  12.330
67337W        W39597  34.141  31.997  13.957
67338W        W39598  17.494  42.077  12.524
67339W        W39599   6.533   3.091   2.554
67340W        W39600  20.595  31.916   4.426
67341W        W39601  44.533   7.172  11.956
67342W        W39602  36.705  17.309  14.989
67343W        W39603  10.107   7.480  14.456
67344W        W39604   7.947  33.463  12.876
67345W        W39605  36.950   5.179   3.235
67346W        W39606  18.624  14.265  14.103
67347W        W39607  12.360  40.399   4.305
67348W        W39608  34.166  13.620  12.237
67349W        W39609   8.301   8.914  14.522
67350W        W39610  43.571  27.990   3.880
67351W        W39611  42.941  23.088   4.668
67352W        W39612  38.288   5.845  14.755
67353W        W39613  18.570  39.084   1.777
67354W        W39614  26.463  20.360   1.749
67355W        W39615  17.780  37.898   1.284
67356W        W39616   6.920  15.546  11.555
67357W        W39617  31.638   2.744   5.046
67358W        W39618   2.664  27.743   3.484
67359W        W39619  27.517  26.443   1.349
67360W        W39620   2.412   2.215  14.142
67361W        W39621  14.399  38.800   1.400
67362W        W39622  37.983  11.171  10.089
67363W        W39623   4.387  37.337  10.563
67364W        W39624   4.910  26.046  10.731
67365W        W39625   9.744  24.886   0.816
67366W        W39626  20.112  31.586  12.665
67367W        W39627  40.500  20.574  12.478
67368W        W39628   7.166   9.880   0.055
67369W        W39629  29.961  11.548  12.061
67370W        W39630  24.260   8.898  13.904
67371W        W39631  24.969  35.498   3.268
67372W        W39632  37.914   1.461  14.015
67373W        W39633  22.124  33.802  13.749
67374W        W39634   2.402  29.194  11.565
67375W        W39635  26.251   6.341  11.224
67376W        W39636  17.151  19.172  13.788
67377W        W39637  41.709  37.582  13.545
67378W        W39638   5.260   1.823   2.693
67379W        W39639  28.868  36.271  11.778
67380W        W39640  13.703  25.718  13.504
67381W        W39641   3.906  32.196   1.996
67382W        W39642  12.183   6.690   1.913
67383W        W39643  29.912  28.140  11.467
67384W        W39644  44.515  32.001   3.394
67385W        W39645  44.040  33.490   0.010
67386W        W39646  19.727  15.762  14.857
67387W        W39647   1.568   4.320   3.174
67388W        W39648   7.748  25.282   0.247
67389W        W39649   5.628  26.656  11.862
67390W        W39650  34.194   8.803   4.696
67391W        W39651  30.893   9.107  10.780
67392W        W39652  16.325  43.977   0.809
67393W        W39653  37.446  35.537   2.613
67394W        W39654   8.690   0.188  12.332
67395W        W39655  38.371   6.945   4.230
67396W        W39656  36.776   6.140  14.298
67397W        W39657  15.638  31.386   0.226
67398W        W39658  14.067  23.305   3.676
67399W        W39659  17.953  12.229  11.516
67400W        W39660  29.522  36.848   3.958
67401W        W39661  31.960  31.614   1.243
67402W        W39662  38.879   8.106   4.399
67403W        W39663  20.952   3.722   1.877
67404W        W39664  15.101   8.591   4.656
67405W        W39665  42.723  15.959   3.714
67406W        W39666  15.357   7.041   1.255
67407W        W39667  21.208  15.276   0.855
67408W        W39668  34.102  44.799  11.561
67409W        W39669  22.126  30.990  12.403
67410W        W39670  24.819   7.174  14.050
67411W        W39671  11.397  31.883   2.478
67412W        W39672  43.516  34.069  12.149
67413W        W39673  20.540  29.949   3.008
67414W        W39674  39.410  11.657   0.811
67415W        W39675  32.496  29.630   4.556
67416W        W39676  10.142  19.448  14.078
67417W        W39677  23.994  14.217  11.060
67418W        W39678  21.968  14.726   3.131
67419W        W39679  26.036  27.712   5.001
67420W        W39680   7.279   1.396   2.329
67421W        W39681  13.580   2.012   4.582
67422W        W39682  30.345  29.169   1.842
67423W        W39683   9.179  36.874   2.142
67424W        W39684  22.560   3.863  10.340
67425W        W39685   5.440   5.472  10.743
67426W        W39686  33.971   0.736  13.643
67427W        W39687   2.203   1.014   0.284
67428W        W39688  14.638   0.878   4.553
67429W        W39689  35.597   8.556   2.670
67430W        W39690  30.561  30.960  12.904
67431W        W39691  19.848  14.785   1.148
67432W        W39692  19.964  17.983   0.869
67433W        W39693  33.601  38.274   2.188
67434W        W39694  35.547  27.522  13.927
67435W        W39695  32.512   7.346  10.504
67436W        W39696   6.612  16.523   1.198
67437W        W39697   0.874  31.063   4.151
67438W        W39698  18.271   9.410   1.435
67439W        W39699  24.548   8.855  12.461
67440W        W39700  20.953   3.319  11.180
67441W        W39701  24.686   5.748  14.327
67442W        W39702  35.627  37.888   3.805
67443W        W39703  21.555  31.834   3.132
67444W        W39704  43.539   7.687  10.693
67445W        W39705   3.452  27.702  13.120
67446W        W39706  42.357  43.776   1.963
67447W        W39707   2.573   6.728   2.112
67448W        W39708  18.379  16.248  10.480
67449W        W39709  36.363  20.573   2.240
67450W        W39710  24.195  26.301  12.785
67451W        W39711  22.796  18.540  11.665
67452W        W39712  27.242  23.617   1.543
67453W        W39713  22.696  29.849  14.417
67454W        W39714  41.799  29.131   3.191
67455W        W39715  17.064   2.979   1.664
67456W        W39716  13.642  19.620  12.792
67457W        W39717  37.994  16.320  12.448
67458W        W39718  18.567  15.101  12.164
67459W        W39719  16.762  38.327  13.009
67460W        W39720  37.593  26.610  13.339
67461W        W39721  18.815  30.539  13.318
67462W        W39722  10.230  10.181  10.618
67463W        W39723  17.643  37.421  13.761
67464W        W39724  16.590  15.160   4.482
67465W        W39725  31.360   8.852   3.240
67466W        W39726  18.605  39.276   1.276
67467W        W39727  24.846  43.392  10.723
67468W        W39728  13.741  33.689   3.658
67469W        W39729  41.560  44.512   4.043
67470W        W39730  42.509  20.092  11.227
67471W        W39731  17.670  22.973   2.116
67472W        W39732  25.680  31.859  11.976
67473W        W39733  25.129  16.235   1.713
67474W        W39734  10.262  25.442  12.888
67475W        W39735  12.624  37.467   2.733
67476W        W39736  43.376  20.091  12.559
67477W        W39737  10.096  39.287   3.896
67478W        W39738  30.655   9.453  11.141
67479W        W39739  17.977  32.536   1.013
67480W        W39740   9.575  28.623   0.009
67481W        W39741  23.043   9.810   4.699
67482W        W39742  39.916  43.613  11.546
67483W        W39743  42.293   0.040   4.886
67484W        W39744  42.907  44.369  14.977
67485W        W39745  33.546   1.189   1.383
67486W        W39746  33.158  12.797  13.080
67487W        W39747  14.360  24.409   2.725
67488W        W39748   0.501  27.769  11.965
67489W        W39749  20.818  20.221   3.427
67490W        W39750  38.914   4.827   1.999
67491W        W39751  36.882  27.943  12.583
67492W        W39752  23.657   4.152   0.044
67493W        W39753  34.034  40.901   1.850
67494W        W39754  27.185   5.179  11.603
67495W        W39755  16.114  15.326   0.439
67496W        W39756  30.075   8.461   1.806
67497W        W39757  26.457  41.301  10.585
67498W        W39758  34.883  11.703   3.988
67499W        W39759  27.299  22.892  13.009
67500W        W39760   6.955  39.941  14.372
67501W        W39761  26.515  16.054  13.807
67502W        W39762  34.571  33.364   4.882
67503W        W39763  20.235  42.824   3.834
67504W        W39764  31.367  10.627   1.940
67505W        W39765  34.850  27.679   1.727
67506W        W39766  24.996  38.971  14.824
67507W        W39767  31.143  11.877  14.922
67508W        W39768  16.757  14.823   2.099
67509W        W39769   3.701  34.847  13.978
67510W        W39770  23.224  33.861   0.461
67511W        W39771  14.750   1.956  14.353
67512W        W39772   0.755  22.435  14.782
67513W        W39773  27.035  33.852   3.019
67514W        W39774  15.758  39.966   0.352
67515W        W39775  43.792  38.897   4.198
67516W        W39776   3.790  40.776  14.953
67517W        W39777  26.036  11.178  10.448
67518W        W39778  38.575   6.818   5.568
67519W        W39779  25.287  34.077  11.080
67520W        W39780  13.878  27.033   3.726
67521W        W39781  29.734  22.173   3.624
67522W        W39782  25.995  30.963   4.618
67523W        W39783  39.066  30.782  10.771
67524W        W39784  28.662  11.060   2.209
67525W        W39785  10.774  19.113  11.941
67526W        W39786  24.454   8.903  11.039
67527W        W39787  40.154   6.938   5.138
67528W        W39788  29.309  30.106   1.810
67529W        W39789  24.460  28.499   3.288
67530W        W39790  42.691  41.030  12.906
67531W        W39791  15.397  33.509   5.172
67532W        W39792  10.746   3.196   0.764
67533W        W39793  13.244   9.876  11.190
67534W        W39794   2.664  38.905   3.647
67535W        W39795  12.808  29.945   2.344
67536W        W39796  10.868   4.831  14.722
67537W        W39797  17.339  22.163  11.568
67538W        W39798  41.553  26.722  12.810
67539W        W39799   2.947  30.891  13.418
67540W        W39800   2.773  18.606  12.062
67541W        W39801  35.997  21.253  10.699
67542W        W39802  26.239  30.111  10.662
67543W        W39803  44.921  16.734   1.809
67544W        W39804   0.851  18.535  12.047
67545W        W39805  41.036  10.132   2.240
67546W        W39806  18.285  35.042   4.363
67547W        W39807  24.588   3.213   0.231
67548W        W39808  14.601  44.922   1.308
67549W        W39809  20.537   4.135   1.834
67550W        W39810  19.824   8.196   1.383
67551W        W39811  31.434  21.912  11.150
67552W        W39812  11.338  20.979   1.382
67553W        W39813  30.094  40.943   0.659
67554W        W39814  18.124  11.391   1.312
67555W        W39815  39.759  10.278   1.782
67556W        W39816   9.255  26.940   3.013
67557W        W39817  21.129  37.285  12.896
67558W        W39818  15.521   0.410   1.488
67559W        W39819  44.136   7.262   5.001
67560W        W39820  33.133  15.323  13.030
67561W        W39821  41.945  35.654   1.393
67562W        W39822  12.043   9.787   4.817
67563W        W39823  29.489  29.598   3.772
67564W        W39824  14.174  29.259  12.583
67565W        W39825  28.033  20.046   0.305
67566W        W39826   3.254   8.448  11.575
67567W        W39827  23.465  24.673  10.703
67568W        W39828  33.295  12.763  14.083
67569W        W39829  24.787  38.475  12.907
67570W        W39830   7.488  15.054  14.496
67571W        W39831  23.574  20.503   4.883
67572W        W39832  11.190  14.632   0.848
67573W        W39833   8.700   7.154  11.651
67574W        W39834  19.284   5.445  11.071
67575W        W39835   8.950  30.189  14.394
67576W        W39836   8.606  13.351  13.841
67577W        W39837  42.068   8.832   2.865
67578W        W39838  35.892  26.565  11.139
67579W        W39839  18.577  15.742   9.681
67580W        W39840  25.644  31.505  10.831
67581W        W39841  33.771  32.620   3.944
67582W        W39842  15.929   4.591   1.554
67583W        W39843  22.499  14.627   3.256
67584W        W39844  30.080  41.823   2.282
67585W        W39845   0.382  17.502   0.235
67586W        W39846  15.246   5.180  14.472
67587W        W39847   4.420  26.655   0.757
67588W        W39848  41.078  11.242   4.640
67589W        W39849  12.589  39.363  11.126
67590W        W39850   8.867   8.484   1.739
67591W        W39851  12.573  25.191  14.981
67592W        W39852   5.194   1.050  13.510
67593W        W39853   6.256  42.466  10.975
67594W        W39854  17.799  37.584  12.830
67595W        W39855  22.284  26.062   1.336
67596W        W39856  13.704   7.107   4.556
67597W        W39857  26.147  21.939  13.333
67598W        W39858  26.109   7.121  10.816
67599W        W39859  35.499  25.041  11.017
67600W        W39860   5.691   4.741  12.200
67601W        W39861  40.261  30.062   1.976
67602W        W39862  11.993  40.066  12.442
67603W        W39863   6.928  27.564   1.653
67604W        W39864  13.265  43.389   0.519
67605W        W39865   1.933  33.157  12.956
67606W        W39866   1.370  30.875   4.167
67607W        W39867  28.359  19.086   2.153
67608W        W39868  21.939  11.148   0.930
67609W        W39869  13.374  38.073  11.022
67610W        W39870   2.978  11.355   1.200
67611W        W39871  18.353  17.553   2.646
67612W        W39872  29.710  16.057  11.169
67613W        W39873  44.013  26.585  10.652
67614W        W39874   7.278   5.864  13.815
67615W        W39875  36.139   3.663   2.822
67616W        W39876  13.255  11.045   0.895
67617W        W39877  30.108  28.629   2.258
67618W        W39878   4.435  42.871   2.151
67619W        W39879  39.594  26.144  11.214
67620W        W39880  44.836  20.634  13.368
67621W        W39881  22.714  35.148  13.049
67622W        W39882  31.433   2.837   3.873
67623W        W39883  38.968  11.181  13.473
67624W        W39884  26.674  18.809   5.050
67625W        W39885  19.205  38.484   0.668
67626W        W39886  42.796  38.773  12.406
67627W        W39887  10.404  22.064  10.252
67628W        W39888  26.603  12.907   4.198
67629W        W39889   3.079  30.794   2.765
67630W        W39890  33.924  23.570  13.881
67631W        W39891  42.078   7.910   1.909
67632W        W39892  12.203  18.208  12.533
67633W        W39893  26.646  17.356   5.118
67634W        W39894   7.759   3.785  12.755
67635W        W39895  36.401  22.392   1.742
67636W        W39896  41.911  25.091  14.001
67637W        W39897  41.030  28.616   2.117
67638W        W39898   8.336  20.628   3.635
67639W        W39899  13.539  39.763   4.355
67640W        W39900  10.317  12.878   0.824
67641W        W39901  12.232  26.021   2.394
67642W        W39902  11.987  18.762   1.475
67643W        W39903  31.988  14.233  10.498
67644W        W39904   9.955  39.837  13.487
67645W        W39905  22.967  37.092   2.247
67646W        W39906  38.819   9.946  10.546
67647W        W39907  29.159  20.233   0.382
67648W        W39908   5.757  30.034  11.572
67649W        W39909  40.398  13.076  13.442
67650W        W39910  19.076   1.242   1.099
67651W        W39911  36.510  28.154   1.913
67652W        W39912  42.213  13.887  12.049
67653W        W39913  24.030   2.123   1.451
67654W        W39914  16.025  10.479  11.250
67655W        W39915  14.371  38.050   0.794
67656W        W39916  30.507  32.860   0.597
67657W        W39917  28.779   1.004   4.138
67658W        W39918  40.423  44.745   1.990
67659W        W39919   8.185  41.343   2.968
67660W        W39920   2.458  12.884  14.685
67661W        W39921  17.153  17.030  10.126
67662W        W39922   2.587  23.309  10.329
67663W        W39923  39.466  40.054   2.988
67664W        W39924  29.883   4.833   4.400
67665W        W39925   2.978   3.088   4.254
67666W        W39926  21.569  43.843   0.978
67667W        W39927  25.124  28.394   4.864
67668W        W39928  23.575  40.500  13.071
67669W        W39929   6.331  43.479   3.664
67670W        W39930  31.389  15.750   2.374
67671W        W39931   6.569  12.339  13.729
67672W        W39932  21.013  12.741  13.909
67673W        W39933  35.439  31.095  11.052
67674W        W39934  19.598  27.005   4.092
67675W        W39935  22.225  28.883   4.412
67676W        W39936  12.191  40.446  13.546
67677W        W39937  27.068  30.004   2.732
67678W        W39938  44.496   9.812  11.696
67679W        W39939  40.408   4.732  13.266
67680W        W39940  19.507  36.823   0.863
67681W        W39941  22.294  33.502   2.416
67682W        W39942  40.959   6.371   2.902
67683W        W39943  33.551  10.590  14.963
67684W        W39944  17.651  32.066  13.309
67685W        W39945  27.248  31.124  10.738
67686W        W39946  41.737  31.842  10.124
67687W        W39947  14.918  44.714   4.068
67688W        W39948  14.507  38.371   4.960
67689W        W39949  19.127   0.519   2.743
67690W        W39950  34.916   5.155   2.319
67691W        W39951  29.988  39.468   2.577
67692W        W39952  25.919  13.826   2.276
67693W        W39953  34.150  38.941  12.350
67694W        W39954  42.760  43.994  14.163
67695W        W39955  20.705  36.430  10.687
67696W        W39956   5.474  25.935   1.285
67697W        W39957  14.999  44.386   1.825
67698W        W39958  39.569  44.027   2.394
67699W        W39959  39.067  13.839  14.517
67700W        W39960  42.455  26.500   3.303
67701W        W39961  39.719   9.575  13.001
67702W        W39962  27.259  29.474  13.480
67703W        W39963  16.981   6.409  14.787
67704W        W39964  28.196  10.347  14.428
67705W        W39965  35.420  37.416   3.821
67706W        W39966  43.442  21.322  11.093
67707W        W39967  16.657  16.439  10.237
67708W        W39968  28.232   4.976   0.215
67709W        W39969  31.097  30.000  11.642
67710W        W39970  34.592  13.706  13.430
67711W        W39971  16.759  30.757  12.870
67712W        W39972  15.696  14.761  14.072
67713W        W39973  38.790  25.652   1.871
67714W        W39974  39.447  31.528   1.919
67715W        W39975  13.681   0.876   2.479
67716W        W39976  39.860   7.456   0.715
67717W        W39977  39.050  12.909   3.277
67718W        W39978  33.421  10.731   0.438
67719W        W39979  24.092  23.185  13.873
67720W        W39980  19.941  41.015  13.538
67721W        W39981  25.734  24.474  14.330
67722W        W39982   2.311  37.862   0.899
67723W        W39983  32.684  25.132  12.094
67724W        W39984  39.288  12.724  12.590
67725W        W39985  38.752  36.918   0.202
67726W        W39986   8.674   4.966   0.895
67727W        W39987  20.321   6.196   4.164
67728W        W39988  41.505  26.054  10.665
67729W        W39989  14.603  23.413  12.491
67730W        W39990  23.076  12.752  13.136
67731W        W39991  21.807  40.526  11.126
67732W        W39992   2.635  10.732  14.908
67733W        W39993  22.740  23.006  13.492
67734W        W39994   8.973  17.648   1.657
67735W        W39995  15.659  23.191   4.553
67736W        W39996   4.784   2.973  13.946
67737W        W39997  19.735  28.557   4.623
67738W        W39998  13.152  23.280   0.852
67739W        W39999   4.405   9.645  14.963
67740W        W40000  28.662  24.199   3.598
67741W        W40001  25.479  29.724   1.763
67742W        W40002  12.201   7.292  12.841
67743W        W40003  10.435  27.698   0.740
67744W        W40004  29.190  44.870   4.528
67745W        W40005  41.645  15.095   3.590
67746W        W40006  19.919  41.755  11.565
67747W        W40007   5.031  23.969   3.114
67748W        W40008  24.386   6.322   3.175
67749W        W40009   3.704   8.164  10.869
67750W        W40010  15.092  17.542   2.302
67751W        W40011  13.035  14.668   0.860
67752W        W40012  34.760  31.402   0.092
67753W        W40013  35.768  22.497   3.434
67754W        W40014  35.824  41.511  14.289
67755W        W40015  29.671  13.906  11.998
67756W        W40016  25.475  13.331  13.963
67757W        W40017  10.630  35.641  11.546
67758W        W40018   1.948  42.978  12.478
67759W        W40019  33.100  23.805   0.999
67760W        W40020   4.772  23.001   0.425
67761W        W40021  19.929  44.290   2.488
67762W        W40022  17.648   4.175  12.842
67763W        W40023  17.579  12.305   4.632
67764W        W40024   7.385  23.559   3.359
67765W        W40025  35.436  32.144   4.147
67766W        W40026  29.367   9.887  14.925
67767W        W40027  38.904  26.767  11.665
67768W        W40028   3.388  19.661  10.385
67769W        W40029  13.775  10.889   0.984
67770W        W40030   2.961   3.257  10.704
67771W        W40031  14.909   3.744   3.386
67772W        W40032   6.940   1.398  14.734
67773W        W40033  32.724   6.114   0.701
67774W        W40034  28.104   2.756   4.439
67775W        W40035  28.461  40.561   4.742
67776W        W40036  29.942  44.485  13.987
67777W        W40037   3.270  27.685  13.598
67778W        W40038   0.739   0.298  14.860
67779W        W40039  31.867   8.394   2.856
67780W        W40040   6.953   6.332   1.359
67781W        W40041  33.399  37.789   3.671
67782W        W40042  17.238   6.927   4.070
67783W        W40043  41.343  27.004   3.841
67784W        W40044   8.617  27.219  10.651
67785W        W40045  41.296  33.135   2.311
67786W        W40046  24.176  13.521  14.831
67787W        W40047  20.001  12.731  13.877
67788W        W40048  11.573  14.905   2.255
67789W        W40049  34.133  23.035   3.551
67790W        W40050  25.237  17.654   4.175
67791W        W40051  34.424  24.501  11.933
67792W        W40052  24.991   6.289   2.401
67793W        W40053  12.202   1.473  10.670
67794W        W40054  14.179  26.816   1.685
67795W        W40055  18.730  39.339  14.861
67796W        W40056  17.315   3.556  12.551
67797W        W40057  38.036  10.730  10.856
67798W        W40058  26.926   7.779  11.605
67799W        W40059  29.402  13.320  13.266
67800W        W40060  26.119   2.016  12.508
67801W        W40061  10.721   8.742   0.895
67802W        W40062   3.885   8.280   3.713
67803W        W40063  26.495  35.154   4.623
67804W        W40064  39.044  33.763  12.516
67805W        W40065  16.570  35.079  11.637
67806W        W40066  12.668  35.042  12.862
67807W        W40067  36.406  37.450   4.195
67808W        W40068  34.345  22.955  11.918
67809W        W40069  40.636  36.642  14.421
67810W        W40070  31.578  37.110   2.646
67811W        W40071  32.840  19.516  12.807
67812W        W40072   1.592  33.559   1.845
67813W        W40073  42.687  22.523   2.199
67814W        W40074  37.981  34.909   0.777
67815W        W40075  43.770  30.949  14.289
67816W        W40076  11.303  18.217   1.237
67817W        W40077   1.108  15.978   0.209
67818W        W40078  38.179  35.561   0.913
67819W        W40079  39.003   0.525   1.066
67820W        W40080  41.879  37.032   0.828
67821W        W40081  26.881  10.953   2.120
67822W        W40082  13.061  38.518   4.607
67823W        W40083  18.402  19.548  12.995
67824W        W40084  16.175  26.710  11.644
67825W        W40085  36.247  16.101   2.357
67826W        W40086  10.490  17.829  14.354
67827W        W40087  40.411  32.188  11.040
67828W        W40088   1.177  13.126   2.182
67829W        W40089  38.480  27.184  11.925
67830W        W40090  30.993  20.094   0.642
67831W        W40091  17.565  36.554  14.298
67832W        W40092  42.608  44.776   3.383
67833W        W40093  23.792  27.943   4.016
67834W        W40094  24.860  13.300  11.486
67835W        W40095  35.094  34.095  11.646
67836W        W40096  16.473   9.361  12.350
67837W        W40097  26.538  29.132   2.885
67838W        W40098  38.692  30.549  14.812
67839W        W40099   7.470  34.475   2.008
67840W        W40100  18.276  13.136  10.727
67841W        W40101  35.654   0.595  12.307
67842W        W40102   8.723  30.663   1.777
67843W        W40103  24.688  10.773   0.195
67844W        W40104  21.256  37.580   3.293
67845W        W40105  26.007  26.538  12.172
67846W        W40106  22.970  21.813  11.968
67847W        W40107   1.575   7.347  11.037
67848W        W40108   8.624  15.219   3.076
67849W        W40109  43.370   1.842   3.645
67850W        W40110  33.049  17.406   1.863
67851W        W40111  27.917  31.531  12.384
67852W        W40112   7.241  21.157  12.202
67853W        W40113  35.297  28.382  11.151
67854W        W40114  37.833  37.468   2.783
67855W        W40115  20.324   6.657   1.774
67856W        W40116   8.230  20.222  14.819
67857W        W40117  42.944  11.917  10.779
67858W        W40118  14.114  35.626  10.598
67859W        W40119  44.829   2.743   3.800
67860W        W40120  13.683  19.531  11.945
67861W        W40121   6.382  40.298   2.338
67862W        W40122   8.510   3.828   0.259
67863W        W40123  27.748   3.390  14.435
67864W        W40124   4.396   9.604   2.385
67865W        W40125   0.564  25.609  11.160
67866W        W40126  14.631  13.576  13.482
67867W        W40127  28.760  16.107  14.342
67868W        W40128  29.460  29.525  10.450
67869W        W40129  29.700  28.474  12.436
67870W        W40130  18.703   2.579   1.323
67871W        W40131   4.699  40.794   3.143
67872W        W40132  36.041  23.416  14.410
67873W        W40133  40.966   6.536   1.033
67874W        W40134  37.661   2.555   0.193
67875W        W40135  33.628   8.675   4.512
67876W        W40136  37.022   5.398   0.936
67877W        W40137  34.542  36.872  13.621
67878W        W40138  20.677  39.929   2.984
67879W        W40139   5.597  12.255  14.092
67880W        W40140   1.242   2.312   1.904
67881W        W40141  14.161   5.341   3.132
67882W        W40142  32.662  26.450   0.667
67883W        W40143  44.477  12.768   2.738
67884W        W40144  37.338  32.128   0.809
67885W        W40145  24.268  11.801  12.931
67886W        W40146  43.853  11.849  10.670
67887W        W40147  26.031   4.179  13.555
67888W        W40148  22.630   8.226   2.174
67889W        W40149  35.213   9.340   3.789
67890W        W40150   2.449  16.069   1.780
67891W        W40151  26.467  29.928  12.020
67892W        W40152   0.043  40.098  12.457
67893W        W40153  26.263  44.988   3.204
67894W        W40154   0.695  34.871  13.848
67895W        W40155  26.729   6.637  12.939
67896W        W40156  20.270  10.892   3.289
67897W        W40157   4.928   1.870  13.220
67898W        W40158   6.872   8.856  11.594
67899W        W40159  12.599   2.034  12.430
67900W        W40160  25.995  42.452   1.779
67901W        W40161  13.406  24.080   0.321
67902W        W40162  34.140   9.227   3.349
67903W        W40163  32.064  25.500   0.291
67904W        W40164  11.090  24.966   1.817
67905W        W40165  17.408  40.833  12.533
67906W        W40166   7.351   1.317   4.363
67907W        W40167   7.822  27.733   1.163
67908W        W40168  39.520  36.925  13.405
67909W        W40169  15.647  38.280  10.147
67910W        W40170   1.390  39.658   1.744
67911W        W40171  43.804   9.413   2.467
67912W        W40172  21.446   6.304  14.361
67913W        W40173  10.736  26.719  11.039
67914W        W40174   5.668  33.360   3.686
67915W        W40175  12.378  21.588   2.273
67916W        W40176  32.266  41.065   3.341
67917W        W40177  33.059  39.260   1.300
67918W        W40178  37.539  30.078  14.252
67919W        W40179  16.040  19.315   4.133
67920W        W40180   8.321  44.864  14.904
67921W        W40181   5.624  37.112   2.335
67922W        W40182  12.599   5.667   1.448
67923W        W40183  15.701   9.621   2.884
67924W        W40184  34.004  22.301   4.033
67925W        W40185  35.635  17.703   9.662
67926W        W40186  31.465  20.729  14.574
67927W        W40187  31.374  22.647  10.642
67928W        W40188  17.690  25.664  14.696
67929W        W40189  23.227  38.375  12.004
67930W        W40190  11.812   7.292   3.584
67931W        W40191  13.286  17.228  10.174
67932W        W40192  12.724  34.123   2.868
67933W        W40193  32.410  36.142  14.083
67934W        W40194  26.383  22.691  14.133
67935W        W40195  36.751  37.836  11.092
67936W        W40196  39.974  21.408   4.184
67937W        W40197  15.067   4.842  14.886
67938W        W40198  16.887  23.170  10.713
67939W        W40199  32.484   8.746   2.513
67940W        W40200   9.228  39.504   0.688
67941W        W40201  37.945  13.294   0.935
67942W        W40202  42.729  38.902  14.059
67943W        W40203  15.748  23.761   1.242
67944W        W40204  24.363  34.529  14.070
67945W        W40205  37.508  26.463  13.848
67946W        W40206   8.860  19.301  13.755
67947W        W40207   5.737   4.705   4.622
67948W        W40208  41.890  11.611   1.744
67949W        W40209   9.690  41.581  12.522
67950W        W40210  29.151  21.027  12.511
67951W        W40211  23.170   2.166  12.080
67952W        W40212   5.423  20.661  11.105
67953W        W40213  28.977  42.247  12.246
67954W        W40214  44.728  22.906   2.721
67955W        W40215  37.589  31.449  12.651
67956W        W40216  43.548  10.648  11.410
67957W        W40217  29.463   1.867   1.232
67958W        W40218  35.787  16.053  11.887
67959W        W40219   4.494  36.072  13.762
67960W        W40220   3.252  34.836   4.507
67961W        W40221  33.016  12.249  12.866
67962W        W40222  14.339  12.786   4.150
67963W        W40223  13.226  18.300   3.124
67964W        W40224  26.429  44.266  12.808
67965W        W40225   6.328  37.249   4.996
67966W        W40226  12.640   3.589   2.826
67967W        W40227   5.314  33.172   3.229
67968W        W40228  22.586  25.080   4.423
67969W        W40229  12.107   5.664   3.368
67970W        W40230  41.576  39.426  14.856
67971W        W40231  11.835  13.351   4.450
67972W        W40232  17.123  30.736   3.088
67973W        W40233  37.857  26.445   4.297
67974W        W40234  23.198  27.358  10.778
67975W        W40235  33.039  34.443   3.137
67976W        W40236  16.711   4.020   1.381
67977W        W40237  40.982   2.204  13.746
67978W        W40238   4.640  14.555  11.622
67979W        W40239  41.317  29.155   4.530
67980W        W40240  25.010  14.693  10.588
67981W        W40241  16.275  42.328  11.981
67982W        W40242  39.768  16.364  10.902
67983W        W40243  17.607  24.087   2.218
67984W        W40244   6.935  23.949   1.283
67985W        W40245  37.466  32.693   0.723
67986W        W40246  25.361  22.599  12.153
67987W        W40247  20.372  32.150   2.939
67988W        W40248   1.992  25.749   0.292
67989W        W40249  35.341   8.037  11.166
67990W        W40250   3.192   2.785  10.388
67991W        W40251  30.427   3.063   5.101
67992W        W40252  22.728  44.380  13.315
67993W        W40253   6.204  33.616   1.753
67994W        W40254  25.616  20.697   1.355
67995W        W40255   8.152  21.090   3.438
67996W        W40256  12.909  29.974   0.836
67997W        W40257  13.695   5.258   0.074
67998W        W40258   4.885  39.820  13.808
67999W        W40259  44.891  25.405   4.525
68000W        W40260  23.050  14.259   0.962
68001W        W40261  10.370  23.208   1.437
68002W        W40262  24.010   0.856   1.559
68003W        W40263  13.903   8.518  13.459
68004W        W40264  31.518  36.816   1.118
68005W        W40265   0.294  30.100   2.632
68006W        W40266  17.298  36.120  10.575
68007W        W40267  15.162  14.405   1.910
68008W        W40268  26.001  41.187  14.894
68009W        W40269  22.233   5.273  14.451
68010W        W40270   6.391  13.924  10.961
68011W        W40271  34.455  11.822   4.912
68012W        W40272  21.707  16.246  13.828
68013W        W40273  12.626  31.963   5.130
68014W        W40274  17.247  33.082   1.458
68015W        W40275   9.952  18.472  13.412
68016W        W40276  16.379  43.706  14.863
68017W        W40277  13.724  25.913   4.153
68018W        W40278   9.700  14.244  12.826
68019W        W40279  11.915  31.392   2.163
68020W        W40280  25.734  33.842  11.487
68021W        W40281  18.651  26.529  12.396
68022W        W40282   5.130   6.289   1.878
68023W        W40283  20.990  21.040  10.733
68024W        W40284  15.343  12.053  13.495
68025W        W40285  10.842  41.803  14.031
68026W        W40286  40.762  37.001  12.948
68027W        W40287  41.809  29.446  13.708
68028W        W40288  27.407   9.688  11.476
68029W        W40289  17.365  24.209   4.318
68030W        W40290  14.777  34.798   3.427
68031W        W40291   8.127  38.273  14.385
68032W        W40292  32.617  10.234  10.652
68033W        W40293   3.305   7.433   3.251
68034W        W40294  37.882  29.963  12.335
68035W        W40295  28.617  35.503  10.718
68036W        W40296   1.427  21.472   2.683
68037W        W40297  40.037  24.545   0.381
68038W        W40298  40.200  33.463   4.524
68039W        W40299  40.822  40.862   0.726
68040W        W40300  20.165  11.192   0.722
68041W        W40301   9.451   2.851  12.238
68042W        W40302   2.306  15.562   1.913
68043W        W40303  23.029  23.760  12.491
68044W        W40304  44.177  37.303  11.232
68045W        W40305  38.560  13.141   4.292
68046W        W40306  28.577  16.299   0.909
68047W        W40307  35.041  13.395   1.840
68048W        W40308  25.388   7.551   4.147
68049W        W40309  38.335  34.362  13.027
68050W        W40310  37.355  34.030   4.705
68051W        W40311   5.861  37.582  13.876
68052W        W40312  14.851  38.018   0.552
68053W        W40313   4.250  13.705   3.153
68054W        W40314   8.830  16.877  14.453
68055W        W40315  25.766  24.718  11.231
68056W        W40316  33.850  34.459  11.959
68057W        W40317   5.301  13.432  11.898
68058W        W40318  28.236  16.621  10.968
68059W        W40319   6.865  41.150  14.967
68060W        W40320  21.643  23.789   4.137
68061W        W40321   0.835   7.698  12.540
68062W        W40322  23.626  24.018  12.237
68063W        W40323   7.863   3.433   1.514
68064W        W40324   5.226   7.546   1.993
68065W        W40325  39.325   9.848  12.279
68066W        W40326  44.862  32.311  13.354
68067W        W40327  29.149  12.131   1.114
68068W        W40328   7.095  20.373   3.812
68069W        W40329   9.395  31.593  12.556
68070W        W40330   0.248  18.600   1.802
68071W        W40331  31.939  22.983   2.515
68072W        W40332  34.368  19.638  14.477
68073W        W40333  18.199   0.831   3.750
68074W        W40334   5.417  39.412  11.955
68075W        W40335  16.540  38.439   0.504
68076W        W40336  24.916  14.725  14.549
68077W        W40337   3.441  24.649   3.676
68078W        W40338  38.296   4.439   4.003
68079W        W40339   3.377   5.225   0.359
68080W        W40340  24.176   9.387   0.087
68081W        W40341  28.868  16.939  12.495
68082W        W40342  11.475  11.129   0.748
68083W        W40343  15.121  42.468   0.955
68084W        W40344  43.782   2.239  13.557
68085W        W40345  38.761  17.018  13.164
68086W        W40346  32.505   5.691  12.503
68087W        W40347   2.269  25.821   0.724
68088W        W40348   5.211  28.469  12.083
68089W        W40349  42.631  29.633  11.885
68090W        W40350  14.836   7.599   3.151
68091W        W40351   1.238   6.342   2.339
68092W        W40352  22.325  28.528  11.829
68093W        W40353  19.194   8.154  13.914
68094W        W40354   2.337  33.970  13.895
68095W        W40355   9.835  39.076   2.219
68096W        W40356  37.817  25.190   1.911
68097W        W40357  34.517  39.753  13.429
68098W        W40358  31.679   1.907   2.663
68099W        W40359  43.742  34.918  13.764
68100W        W40360   2.821  34.433  13.644
68101W        W40361  43.972  25.154  10.367
68102W        W40362  42.768  42.051   2.843
68103W        W40363  27.399  38.037  11.648
68104W        W40364  12.150  25.259   1.731
68105W        W40365   0.472  27.976   1.650
68106W        W40366  35.949  20.028  14.091
68107W        W40367  36.974  41.959  14.077
68108W        W40368  18.329   0.358  11.104
68109W        W40369  25.985   3.010   0.824
68110W        W40370  35.154  32.192  12.016
68111W        W40371   4.834  30.282  14.785
68112W        W40372  36.332  28.518   0.850
68113W        W40373   0.915  18.921   0.656
68114W        W40374  32.317  26.576  10.110
68115W        W40375  18.762  41.016  13.056
68116W        W40376  36.293  24.530  14.965
68117W        W40377  24.310  36.891   2.743
68118W        W40378  36.230  12.163  13.840
68119W        W40379  40.199   3.385   4.197
68120W        W40380  39.548   0.697   1.557
68121W        W40381  26.631  39.121   4.115
68122W        W40382  43.905  43.889   2.337
68123W        W40383  28.811  19.294   3.265
68124W        W40384   9.930  19.446  11.597
68125W        W40385  15.897  19.143   2.824
68126W        W40386  16.839  21.108  10.221
68127W        W40387  13.399  35.323   4.806
68128W        W40388  24.601  20.277  13.980
68129W        W40389   5.284  14.625  13.862
68130W        W40390   1.693   6.886  14.358
68131W        W40391   1.069   1.921  12.135
68132W        W40392  34.484  26.701   0.882
68133W        W40393  26.661   3.326   3.662
68134W        W40394  38.022   5.302  10.705
68135W        W40395  44.371  36.741   1.454
68136W        W40396  11.332  24.130  11.546
68137W        W40397  32.794  15.702   2.419
68138W        W40398   1.226   9.331   1.211
68139W        W40399  18.642   5.958   1.893
68140W        W40400   4.017  13.818   0.823
68141W        W40401   3.242  22.615   1.902
68142W        W40402  21.951  31.288   0.458
68143W        W40403  31.072  23.092   3.756
68144W        W40404  41.286  21.743   2.318
68145W        W40405  40.680  19.282   2.265
68146W        W40406  23.895  14.869   2.411
68147W        W40407  16.193   0.834   3.728
68148W        W40408  22.113  31.997  11.351
68149W        W40409  36.351  11.348   1.295
68150W        W40410   1.634  37.699   2.794
68151W        W40411  39.372  10.264  14.013
68152W        W40412  19.020  39.583   4.594
68153W        W40413  18.380  29.947   2.431
68154W        W40414   5.151   2.706   1.208
68155W        W40415  12.806  25.412  13.322
68156W        W40416  34.902  34.575   2.742
68157W        W40417  39.069  16.226  13.526
68158W        W40418   0.894  12.637  11.669
68159W        W40419   5.289  38.532  11.655
68160W        W40420  28.498   5.798   1.719
68161W        W40421   1.840  13.396   4.593
68162W        W40422  30.691  35.650   0.413
68163W        W40423  29.420  22.596  10.148
68164W        W40424  20.422   6.168  14.323
68165W        W40425  33.293  35.379   3.757
68166W        W40426   4.938  34.780  14.313
68167W        W40427   1.751   3.326  12.568
68168W        W40428  33.458  13.709  14.487
68169W        W40429  39.348  32.272  14.527
68170W        W40430  36.502  38.030  11.493
68171W        W40431  27.995  31.107   2.836
68172W        W40432  43.809  19.738  13.207
68173W        W40433   4.230  14.918  11.506
68174W        W40434  28.255   2.025  12.878
68175W        W40435  20.221  17.525  12.578
68176W        W40436  41.707  36.472   3.804
68177W        W40437   8.271  26.019   0.784
68178W        W40438  37.297  18.905   2.364
68179W        W40439  43.244  18.793  13.946
68180W        W40440  30.108  42.362   0.212
68181W        W40441  41.428  33.479  11.614
68182W        W40442  34.507  22.301   2.380
68183W        W40443  33.760  31.702   1.801
68184W        W40444   7.243  14.038  13.694
68185W        W40445  36.317  17.239   5.333
68186W        W40446  23.008  19.506  13.101
68187W        W40447  35.374   2.412  14.838
68188W        W40448  14.915  12.590   3.300
68189W        W40449  17.240  15.208  13.748
68190W        W40450  42.632  26.608  11.265
68191W        W40451  32.095  15.728  12.537
68192W        W40452  32.011  20.045  14.951
68193W        W40453  42.356   9.338  10.971
68194W        W40454  31.109  22.992  12.874
68195W        W40455   0.319  28.587   0.377
68196W        W40456  36.753   3.771  13.903
68197W        W40457   2.649  21.907  12.376
68198W        W40458   6.994   9.271  14.404
68199W        W40459  19.898  17.121  11.313
68200W        W40460  35.153  23.027   2.900
68201W        W40461   7.551  43.397   0.814
68202W        W40462  40.779  26.548   2.648
68203W        W40463  33.643  26.454   4.597
68204W        W40464   1.369  39.157   1.586
68205W        W40465   5.069   7.446   0.082
68206W        W40466  34.605  24.107   2.728
68207W        W40467  18.977   1.361  14.020
68208W        W40468  21.070  14.510   2.209
68209W        W40469  13.068  27.657   4.551
68210W        W40470  42.502  12.372   0.768
68211W        W40471  34.813  22.130  11.709
68212W        W40472  24.492  25.687  10.986
68213W        W40473  38.079  13.925   2.655
68214W        W40474  33.498  39.553   0.273
68215W        W40475   6.993   5.288  13.499
68216W        W40476   6.841  24.980   1.921
68217W        W40477  32.515  34.962  11.612
68218W        W40478  13.645   0.754  14.529
68219W        W40479  29.180  25.316   4.161
68220W        W40480  33.840  29.895  13.856
68221W        W40481   9.251  24.302   3.256
68222W        W40482  38.892  17.485  12.977
68223W        W40483  25.773  42.075  11.208
68224W        W40484  39.296   6.191   2.054
68225W        W40485  21.792  14.381  13.286
68226W        W40486  41.242  28.233  14.278
68227W        W40487  29.497  44.442   1.380
68228W        W40488  22.965   7.474  12.709
68229W        W40489  40.232  34.090  14.016
68230W        W40490   0.267   5.220   0.668
68231W        W40491   6.296  27.556   3.920
68232W        W40492   7.897  27.605  10.166
68233W        W40493  27.951  31.982   5.041
68234W        W40494  37.988  21.529  12.915
68235W        W40495  37.984  39.483   2.618
68236W        W40496   8.424   7.749  14.029
68237W        W40497   9.195  25.116   3.610
68238W        W40498  26.467  19.814  14.349
68239W        W40499   0.838  32.572   3.577
68240W        W40500  36.166   5.854  11.119
68241W        W40501   4.671   4.969  14.919
68242W        W40502   6.686  14.387   1.871
68243W        W40503  42.404  44.043   4.559
68244W        W40504  32.607   1.358  10.365
68245W        W40505  29.206  13.281  11.785
68246W        W40506  28.069   8.598   0.320
68247W        W40507  41.791  28.076   2.748
68248W        W40508  29.633  22.615   1.814
68249W        W40509  32.894   1.765  11.557
68250W        W40510   8.440  25.529  13.471
68251W        W40511  32.632  31.918   1.222
68252W        W40512   1.717  17.974  11.653
68253W        W40513  40.221  24.943  13.816
68254W        W40514  35.582  12.911  13.854
68255W        W40515   4.719  15.729   1.390
68256W        W40516  26.455   3.977   4.126
68257W        W40517  14.637  41.034  11.581
68258W        W40518  16.090  12.047   2.451
68259W        W40519  14.783  35.085  10.239
68260W        W40520  16.671  34.341   1.345
68261W        W40521   3.840  41.154  13.503
68262W        W40522  41.819  30.887   0.508
68263W        W40523   9.174   8.531   2.675
68264W        W40524  23.928  31.370  10.478
68265W        W40525  35.933  26.060  13.331
68266W        W40526  20.522   2.931   4.899
68267W        W40527  38.827  37.130  12.861
68268W        W40528  37.282   7.422   4.932
68269W        W40529   6.783  28.578   3.194
68270W        W40530  36.817   8.676  14.021
68271W        W40531  43.758  29.198   4.342
68272W        W40532   6.292  36.638   3.200
68273W        W40533  20.248  17.650   3.988
68274W        W40534   2.335  10.479  13.981
68275W        W40535  43.127  25.874  12.112
68276W        W40536  24.242  21.017  11.101
68277W        W40537   2.941  11.677   1.741
68278W        W40538  42.448  37.775   4.537
68279W        W40539  35.383   5.272   4.124
68280W        W40540  14.570  11.299   2.710
68281W        W40541  36.058  31.618  13.048
68282W        W40542  24.260   0.966   3.487
68283W        W40543  35.961  10.566  10.429
68284W        W40544   9.516  22.122  11.981
68285W        W40545  29.986  32.602  12.876
68286W        W40546  16.833   0.906  12.815
68287W        W40547  13.197  32.201  12.930
68288W        W40548  39.071  30.135   0.714
68289W        W40549   5.299  22.932  13.913
68290W        W40550  10.777  16.755   0.671
68291W        W40551  38.361  24.085   2.347
68292W        W40552  14.658  35.968   0.321
68293W        W40553  44.004   7.707   4.754
68294W        W40554  25.981  37.081  13.495
68295W        W40555  39.969  22.025   2.003
68296W        W40556   4.108   0.041   2.948
68297W        W40557  42.754  32.510   1.349
68298W        W40558  28.416   7.600  11.472
68299W        W40559  33.344   9.022   2.133
68300W        W40560  12.679   2.858  12.035
68301W        W40561   2.793  34.529   4.430
68302W        W40562   0.739   2.368  11.445
68303W        W40563   5.937  25.386   0.838
68304W        W40564  38.803  38.824  10.509
68305W        W40565  31.456   0.313   4.912
68306W        W40566   9.922   3.489  11.850
68307W        W40567  13.709  21.495  10.582
68308W        W40568   3.002  23.136  10.603
68309W        W40569   2.117  41.329  14.290
68310W        W40570   5.454  21.167  11.244
68311W        W40571  21.671   8.344   0.696
68312W        W40572   9.245   1.715  14.058
68313W        W40573  28.645  37.392   4.950
68314W        W40574   9.784  12.781  14.071
68315W        W40575  29.115  28.355  14.108
68316W        W40576  34.431  14.865   1.453
68317W        W40577  20.344  21.216  10.121
68318W        W40578  22.697   4.596  14.982
68319W        W40579  15.599   2.730  12.155
68320W        W40580  24.405   8.789   0.960
68321W        W40581  29.845   6.725   0.017
68322W        W40582   9.177  34.990   2.772
68323W        W40583  24.643  33.827  11.987
68324W        W40584  23.788  18.517  11.376
68325W        W40585   9.808  43.888   1.771
68326W        W40586  19.031  25.168  13.393
68327W        W40587  25.633   8.603   0.226
68328W        W40588  31.466  11.254  11.125
68329W        W40589  23.258  12.377   2.389
68330W        W40590  26.197   9.790   1.984
68331W        W40591  44.376  36.275   5.006
68332W        W40592   2.281  37.107  13.088
68333W        W40593   8.274   7.743   0.367
68334W        W40594   1.913  22.522   2.217
68335W        W40595  11.132  15.262  10.750
68336W        W40596  36.254  24.819  11.356
68337W        W40597  20.284   5.784  11.150
68338W        W40598   4.957  19.994  11.528
68339W        W40599  25.626  38.852   3.319
68340W        W40600  44.891  20.005  14.432
68341W        W40601  39.007  43.775  14.957
68342W        W40602  28.621  13.355   0.761
68343W        W40603  21.528  39.893   0.035
68344W        W40604   5.211  30.500  14.367
68345W        W40605   4.212   2.668  10.750
68346W        W40606  21.378  20.114   1.179
68347W        W40607  13.809  12.800   2.936
68348W        W40608  14.146  30.207   2.655
68349W        W40609  37.274  14.882   2.860
68350W        W40610  25.587  41.556  11.528
68351W        W40611  21.299   7.824   1.889
68352W        W40612  35.351  35.531  13.436
68353W        W40613  35.355  42.263  13.014
68354W        W40614  32.666  41.895  10.579
68355W        W40615  34.120  33.637  14.510
68356W        W40616   3.811  20.525   2.743
68357W        W40617   8.367  23.027  11.961
68358W        W40618  38.623   8.790  12.648
68359W        W40619  19.481  38.901  10.129
68360W        W40620  40.825  22.600   2.165
68361W        W40621  36.855  14.725   3.132
68362W        W40622  18.355  29.674  14.306
68363W        W40623  40.266   0.420  14.427
68364W        W40624   3.853  11.245  11.649
68365W        W40625  29.440  39.956   1.112
68366W        W40626  31.349   1.969  12.615
68367W        W40627  22.074  30.186  13.199
68368W        W40628  37.524  22.909   2.451
68369W        W40629  17.583  22.599  11.525
68370W        W40630  34.050  28.989  13.426
68371W        W40631  42.702   3.983  12.514
68372W        W40632  17.561  21.213   0.004
68373W        W40633  38.805  12.826   2.818
68374W        W40634  34.314  36.472   0.293
68375W        W40635   1.373  43.174  14.200
68376W        W40636  28.921   1.903   0.017
68377W        W40637  35.959   2.463  13.415
68378W        W40638  32.380  17.286  11.606
68379W        W40639  35.571  13.696  14.508
68380W        W40640  38.763   1.349   4.916
68381W        W40641  42.958  31.136   3.447
68382W        W40642  31.126  33.462  11.596
68383W        W40643  26.119  44.972   4.714
68384W        W40644  16.034  29.014   0.515
68385W        W40645   5.432  24.123   2.233
68386W        W40646  42.504  37.364   4.241
68387W        W40647  18.055   3.353  11.479
68388W        W40648  31.388  40.496  11.416
68389W        W40649  42.007  39.820  14.357
68390W        W40650  24.115  32.914   0.018
68391W        W40651  19.263  21.348  11.041
68392W        W40652  19.578   0.760   2.663
68393W        W40653   3.800  15.493   2.810
68394W        W40654  39.015   6.622  14.754
68395W        W40655   1.671  25.320  10.648
68396W        W40656  23.274  14.131   1.807
68397W        W40657  34.370  30.137   3.187
68398W        W40658   1.859  23.765   0.716
68399W        W40659  28.570  36.061  13.006
68400W        W40660   4.673  13.233  10.867
68401W        W40661  42.604  42.337   0.783
68402W        W40662  39.604  17.812   4.063
68403W        W40663  35.956  28.609  11.643
68404W        W40664  43.005  12.723   3.680
68405W        W40665  33.429  29.568  10.752
68406W        W40666  30.652   5.453   0.716
68407W        W40667  24.251  27.188   2.298
68408W        W40668  18.510  32.802   0.924
68409W        W40669  21.014   5.927  14.256
68410W        W40670  24.563  15.205   4.041
68411W        W40671  27.653  41.958  10.604
68412W        W40672  34.983   1.236  12.540
68413W        W40673  30.108   8.331   4.511
68414W        W40674  23.332  39.428  14.475
68415W        W40675  28.400  38.035   3.793
68416W        W40676  29.642  13.402  12.017
68417W        W40677  38.414  28.743   2.091
68418W        W40678  38.393  39.378  14.103
68419W        W40679  27.047  14.220   3.614
68420W        W40680  24.768  28.087  12.626
68421W        W40681  16.781  34.859  12.869
68422W        W40682  22.703  34.613  13.017
68423W        W40683  14.399  34.470   1.638
68424W        W40684  23.546  20.412  10.476
68425W        W40685  36.270   7.262   2.720
68426W        W40686  13.784  26.590  11.495
68427W        W40687  17.318  37.309  14.267
68428W        W40688   9.109  28.122  10.987
68429W        W40689  29.666  32.461   0.182
68430W        W40690   3.486  39.793  13.288
68431W        W40691  26.649  42.387   4.744
68432W        W40692  33.497  37.327  14.982
68433W        W40693   6.901  17.199   4.753
68434W        W40694  21.689  43.568  10.774
68435W        W40695  41.472   5.363   4.547
68436W        W40696  31.020  44.714   1.470
68437W        W40697  38.494  41.882  11.213
68438W        W40698  38.961  16.033   3.142
68439W        W40699   4.494   1.020   3.725
68440W        W40700   6.164  25.085   4.228
68441W        W40701  43.014  13.689  14.725
68442W        W40702   2.335   7.916  14.841
68443W        W40703  30.004  12.587  12.082
68444W        W40704  12.537  17.559  11.874
68445W        W40705  29.019  40.265   1.045
68446W        W40706  39.924  37.419   1.780
68447W        W40707  37.935  14.961  13.819
68448W        W40708  18.107   9.310  13.297
68449W        W40709  24.461  15.718   2.324
68450W        W40710  15.708  41.053   4.964
68451W        W40711   0.309  11.846  14.095
68452W        W40712  31.691   2.836   4.361
68453W        W40713  31.149  37.925  13.758
68454W        W40714   9.131  28.530   4.217
68455W        W40715  20.346  30.561   4.952
68456W        W40716   9.810  34.493  13.302
68457W        W40717  28.435   0.856  10.583
68458W        W40718  11.797   8.034   4.318
68459W        W40719  31.598  28.721  14.777
68460W        W40720   6.949  25.151   3.734
68461W        W40721   5.732  44.474  12.634
68462W        W40722  20.130  34.392   3.174
68463W        W40723   7.881  17.329  13.980
68464W        W40724  19.779  38.098  12.781
68465W        W40725  44.446  16.596  13.620
68466W        W40726   0.831  36.893  14.819
68467W        W40727  15.099  11.703  10.506
68468W        W40728  41.753  33.381  10.989
68469W        W40729  40.528  23.682  13.096
68470W        W40730  36.907  29.950  13.964
68471W        W40731  25.827   4.872  11.434
68472W        W40732  33.007  27.688   1.252
68473W        W40733  28.557   2.303  12.081
68474W        W40734  11.111  10.413  11.528
68475W        W40735  19.291  20.967  13.506
68476W        W40736  21.703  38.992   3.877
68477W        W40737  32.919   7.304   1.193
68478W        W40738   9.779  39.961   1.344
68479W        W40739   8.600   4.390   1.725
68480W        W40740  29.113   2.836   4.226
68481W        W40741   1.063   1.915  10.204
68482W        W40742  28.101  25.966  11.845
68483W        W40743   0.258  23.553   4.790
68484W        W40744  25.878   9.117   2.653
68485W        W40745  24.014  41.554   1.664
68486W        W40746  28.534  14.718  11.647
68487W        W40747  42.567  10.796   3.383
68488W        W40748   9.318  21.076   0.868
68489W        W40749  42.809  43.497  14.273
68490W        W40750  40.579   1.696   4.656
68491W        W40751  34.397  17.812  13.942
68492W        W40752  14.843  17.095   2.296
68493W        W40753  25.450   8.143  14.502
68494W        W40754  44.527  31.492   1.775
68495W        W40755  32.063  13.311   2.825
68496W        W40756   9.884  36.289  13.015
68497W        W40757   9.102  20.173   4.188
68498W        W40758  34.966  36.901   2.757
68499W        W40759  21.444  34.145  14.280
68500W        W40760  31.002  23.794   0.886
68501W        W40761   8.186  33.554  13.352
68502W        W40762   8.705  19.130  11.637
68503W        W40763   1.151  41.130   1.299
68504W        W40764  41.260  15.532  13.424
68505W        W40765  20.190  38.359  11.283
68506W        W40766  29.036  14.589   1.626
68507W        W40767  20.250  16.991   4.642
68508W        W40768  16.769  21.508   0.773
68509W        W40769  40.117  39.805   1.471
68510W        W40770   4.829  36.575   3.206
68511W        W40771  15.659  39.581   0.017
68512W        W40772  21.204  16.871  12.464
68513W        W40773   7.159  33.845  13.032
68514W        W40774  16.938  23.072   4.215
68515W        W40775   0.161  19.010   2.289
68516W        W40776  31.992  41.808  11.125
68517W        W40777   2.560   0.929  12.104
68518W        W40778  10.388  17.208  12.463
68519W        W40779  35.498  17.411   0.828
68520W        W40780   7.298  12.596   1.777
68521W        W40781   9.681  27.172   4.577
68522W        W40782  21.579  44.807  14.079
68523W        W40783  41.952  30.847   4.361
68524W        W40784  42.020  37.572   4.285
68525W        W40785  11.927  33.503  10.708
68526W        W40786   5.970  43.487  12.766
68527W        W40787  12.265   4.506   0.052
68528W        W40788   3.440  34.933   4.968
68529W        W40789  29.523  30.997   3.778
68530W        W40790  10.237  33.742  13.383
68531W        W40791  41.024  21.127  13.597
68532W        W40792   1.512  35.985   3.121
68533W        W40793  40.799  33.807   1.385
68534W        W40794  23.988  12.583  13.418
68535W        W40795  18.954  18.656  13.049
68536W        W40796  25.202  21.267   0.918
68537W        W40797   6.902  37.105  13.525
68538W        W40798  13.088  40.742   4.145
68539W        W40799  35.020  42.071   1.453
68540W        W40800  31.589  10.714   0.975
68541W        W40801  30.165  19.222   4.565
68542W        W40802  29.099  11.285   4.667
68543W        W40803   7.819  19.159  12.797
68544W        W40804   8.652  24.187   0.799
68545W        W40805  29.955  33.961  11.669
68546W        W40806  27.966   2.602   2.459
68547W        W40807  37.624  39.988  14.938
68548W        W40808  37.113  10.610   1.790
68549W        W40809  11.814  15.666  10.681
68550W        W40810  25.548  37.571  11.002
68551W        W40811  30.442  43.131  10.408
68552W        W40812  35.083  38.889   0.319
68553W        W40813  15.185  27.758   1.877
68554W        W40814   1.034  42.250  13.791
68555W        W40815   0.971  12.127   2.287
68556W        W40816  27.776  29.414  11.972
68557W        W40817  22.511  33.929   3.671
68558W        W40818  22.067  25.251   3.762
68559W        W40819  24.788  12.927  14.476
68560W        W40820  10.602  22.220   2.407
68561W        W40821  30.002   6.904  12.388
68562W        W40822  13.354   5.272   3.781
68563W        W40823   9.929  38.103  10.960
68564W        W40824  26.137  44.735  14.949
68565W        W40825  22.636   3.678  12.988
68566W        W40826  23.819  16.813   1.459
68567W        W40827   1.368  22.251  13.365
68568W        W40828  43.314  19.776   0.866
68569W        W40829  40.926   7.909   0.951
68570W        W40830  39.396   9.878  13.269
68571W        W40831  31.344  41.300   3.833
68572W        W40832  38.858   5.827   4.207
68573W        W40833  39.396  11.697   1.704
68574W        W40834  32.082  39.494   1.146
68575W        W40835  20.865  31.110  14.970
68576W        W40836  35.534  32.419   2.563
68577W        W40837  14.280  42.945  10.292
68578W        W40838   5.772   5.648   3.810
68579W        W40839   7.262  35.268   5.100
68580W        W40840  20.612   1.508   3.687
68581W        W40841  42.498   4.382  10.927
68582W        W40842  33.956  21.004  12.487
68583W        W40843  36.737  35.917   1.789
68584W        W40844  27.460  42.814  13.415
68585W        W40845  17.486  12.772   0.928
68586W        W40846  27.565   4.156  13.373
68587W        W40847  17.740   1.517   1.450
68588W        W40848  42.530  25.137  14.332
68589W        W40849  32.260   5.908   4.189
68590W        W40850  16.340  16.128   2.335
68591W        W40851   6.833  33.408  14.315
68592W        W40852  24.649  36.821   3.243
68593W        W40853  44.205   9.022   3.812
68594W        W40854  23.188  36.893  11.621
68595W        W40855  12.907  29.134   0.616
68596W        W40856  14.226  35.546  14.415
68597W        W40857  26.778  16.115  14.807
68598W        W40858  24.923  15.977   0.179
68599W        W40859  29.626   0.194   1.799
68600W        W40860  38.537  18.709   3.667
68601W        W40861   8.228  11.290   1.344
68602W        W40862  17.294  24.771  12.537
68603W        W40863   7.910  12.345   2.739
68604W        W40864   9.617  29.013   1.805
68605W        W40865  10.916  35.463   2.796
68606W        W40866   2.359  40.932   2.296
68607W        W40867   7.286  13.148  14.189
68608W        W40868  37.116  21.485  13.004
68609W        W40869   8.146  36.935  12.929
68610W        W40870  37.599   7.661   1.405
68611W        W40871  31.478  17.749   3.290
68612W        W40872  38.919  17.961   4.607
68613W        W40873  37.015  44.983   3.538
68614W        W40874  26.451  29.024  11.108
68615W        W40875  41.384  26.508   4.588
68616W        W40876  10.320  12.255   1.933
68617W        W40877  25.069  36.992  12.567
68618W        W40878  23.551  33.537  11.956
68619W        W40879  11.334   9.136   2.136
68620W        W40880  10.751  26.837   1.224
68621W        W40881  36.568  44.211  13.889
68622W        W40882  25.617  35.495   3.879
68623W        W40883   1.889  15.731  11.608
68624W        W40884  38.498  18.553   0.259
68625W        W40885  29.564  18.500  12.915
68626W        W40886  32.917  17.606  13.958
68627W        W40887  33.857  15.918   3.092
68628W        W40888  11.701  19.104   3.092
68629W        W40889  27.794  36.850   4.037
68630W        W40890   3.516  30.060   4.161
68631W        W40891   2.531   3.810   2.764
68632W        W40892  29.908  22.351   1.458
68633W        W40893  43.377  11.809   0.422
68634W        W40894  33.002  10.242   4.964
68635W        W40895  11.611  17.273  14.744
68636W        W40896  33.101   0.513  12.001
68637W        W40897  26.129  18.534  11.529
68638W        W40898  35.215  43.819   1.518
68639W        W40899  30.063  32.017  12.053
68640W        W40900  12.215   7.960   3.786
68641W        W40901   1.328  24.935   1.393
68642W        W40902  43.096  16.155   2.357
68643W        W40903  29.149  37.092  12.978
68644W        W40904  43.075   2.263  13.162
68645W        W40905   1.955  40.791  13.529
68646W        W40906  37.019  34.166  11.130
68647W        W40907  23.763   9.997  12.546
68648W        W40908   2.121  36.543  14.290
68649W        W40909  36.990  37.426  12.056
68650W        W40910   5.794   5.480   1.017
68651W        W40911  23.446  34.472  11.182
68652W        W40912   2.289  24.957  13.141
68653W        W40913  38.059  37.871  13.935
68654W        W40914   5.251   2.631  10.681
68655W        W40915  33.017  28.863   2.662
68656W        W40916  42.903  25.193   2.184
68657W        W40917   4.491  13.959  14.428
68658W        W40918  24.736  34.899  11.158
68659W        W40919  37.636  11.530   2.285
68660W        W40920  16.361   7.557   9.873
68661W        W40921  33.948  15.067   1.294
68662W        W40922  41.795  25.099   0.405
68663W        W40923  20.450  40.368   3.139
68664W        W40924  38.315  18.869  13.939
68665W        W40925  42.506   5.727   2.209
68666W        W40926  33.367  14.106   1.762
68667W        W40927   2.701  43.742   4.031
68668W        W40928  27.213  12.393   3.261
68669W        W40929  38.497  11.067  10.259
68670W        W40930  34.470  26.954   3.921
68671W        W40931  18.420  32.536   3.991
68672W        W40932  34.759  20.792   1.430
68673W        W40933  28.925  28.459   4.737
68674W        W40934  41.013  40.539  12.475
68675W        W40935  10.642  27.654   4.106
68676W        W40936  21.949  19.005   0.463
68677W        W40937  15.793  37.704  10.266
68678W        W40938  36.853  38.376   3.632
68679W        W40939  33.877  37.784   0.849
68680W        W40940  42.463   1.088  14.076
68681W        W40941   3.495   0.386  13.360
68682W        W40942  25.539  43.041   1.453
68683W        W40943  35.630  23.162  11.591
68684W        W40944  34.644  24.486   4.362
68685W        W40945  40.360  37.627   2.825
68686W        W40946  18.218  13.401  13.358
68687W        W40947  34.650  16.247  14.785
68688W        W40948  30.107  29.412  12.579
68689W        W40949  19.536   7.217  11.030
68690W        W40950  40.535  20.307   4.577
68691W        W40951  27.529  38.540  11.243
68692W        W40952   0.696  34.585  10.650
68693W        W40953  25.285  11.622  10.738
68694W        W40954  16.204  17.469   5.541
68695W        W40955   6.926  11.382  12.723
68696W        W40956  20.256  18.157   1.850
68697W        W40957  41.327  38.634   0.755
68698W        W40958  34.453  39.930   3.213
68699W        W40959   6.080  29.611  11.593
68700W        W40960   7.638   3.965   4.160
68701W        W40961   6.400  29.480   2.771
68702W        W40962  21.164  43.492  13.007
68703W        W40963  44.058  19.043  13.953
68704W        W40964  40.509  36.560  11.008
68705W        W40965  32.873   6.809  12.330
68706W        W40966  36.404  14.100  13.633
68707W        W40967  43.364  15.608  12.437
68708W        W40968  27.506  18.115  14.987
68709W        W40969  41.713  15.757  14.249
68710W        W40970  18.412  12.230  12.425
68711W        W40971  36.437  39.318  14.449
68712W        W40972  38.434  30.500  10.851
68713W        W40973   5.821  43.060  10.638
68714W        W40974  31.948  26.513   4.316
68715W        W40975  17.517  17.266  11.047
68716W        W40976  20.593  13.303  13.337
68717W        W40977  29.929  41.955  12.909
68718W        W40978  26.258   0.709  11.803
68719W        W40979  30.193  44.387   2.464
68720W        W40980   5.306  22.061   3.642
68721W        W40981  28.100  36.424   4.811
68722W        W40982   9.288   3.384   4.563
68723W        W40983  30.869  23.594  10.628
68724W        W40984  19.107   8.054   1.577
68725W        W40985  40.455  43.203  10.286
68726W        W40986  21.799   8.876  12.557
68727W        W40987  36.525  28.613   1.709
68728W        W40988  42.374  23.585   2.740
68729W        W40989  18.066   0.477  10.683
68730W        W40990  14.013   3.267  12.114
68731W        W40991  32.833  37.542  10.678
68732W        W40992  11.320  29.884  12.048
68733W        W40993  14.141  25.142   0.161
68734W        W40994  25.089   3.222  11.213
68735W        W40995  16.040  16.165   3.537
68736W        W40996   8.131  15.063   4.280
68737W        W40997  40.071  26.617   3.243
68738W        W40998  38.442  33.518   3.926
68739W        W40999   8.965  43.886  10.385
68740W        W41000  40.511  43.601  12.035
68741W        W41001  14.317  34.274  14.304
68742W        W41002  17.097   5.815   2.333
68743W        W41003  34.311  32.975  11.476
68744W        W41004   9.416   6.890   2.343
68745W        W41005  44.487  20.261  13.463
68746W        W41006  14.853  41.008  12.851
68747W        W41007  36.772  17.695  14.468
68748W        W41008  42.154  18.866   0.419
68749W        W41009   2.319  17.753  12.949
68750W        W41010  32.552   1.066   2.830
68751W        W41011   0.293  21.113  12.756
68752W        W41012  21.560   1.872  12.638
68753W        W41013  24.757  44.220   1.889
68754W        W41014  16.565  13.032  13.700
68755W        W41015  34.633  42.333  14.686
68756W        W41016  27.129  22.754   4.201
68757W        W41017   4.463  12.852  12.020
68758W        W41018  32.465  44.612   0.250
68759W        W41019  20.521   2.656  12.667
68760W        W41020   0.491  26.214  12.369
68761W        W41021  40.564   2.543   1.269
68762W        W41022  35.433  25.364  12.411
68763W        W41023  27.969   6.848   1.350
68764W        W41024  29.027  41.277   3.663
68765W        W41025  34.023  39.391   4.218
68766W        W41026  12.857  20.219  10.870
68767W        W41027  34.805  35.130  13.150
68768W        W41028  38.360  10.503  13.988
68769W        W41029  38.139  12.060   3.509
68770W        W41030   4.964  36.007  11.118
68771W        W41031  38.489  12.655  10.660
68772W        W41032  16.141  11.709  11.954
68773W        W41033  35.915  25.032  13.152
68774W        W41034  41.011  43.463  14.113
68775W        W41035  44.755   6.272   4.695
68776W        W41036  10.853  10.596   1.737
68777W        W41037  37.900  35.813   2.839
68778W        W41038  39.736  15.300   4.464
68779W        W41039  24.770  27.750  12.190
68780W        W41040  38.968  11.879   0.573
68781W        W41041   0.496   8.249   2.209
68782W        W41042   1.948   2.628  14.891
68783W        W41043  44.690  44.544   4.160
68784W        W41044  12.397   6.876   2.790
68785W        W41045   1.543  25.802  11.006
68786W        W41046  25.623   0.025  13.326
68787W        W41047  30.613  37.081  13.929
68788W        W41048  27.046  44.918  10.656
68789W        W41049  25.165  29.224  12.100
68790W        W41050  16.673   8.798   0.636
68791W        W41051  34.552  40.844   0.703
68792W        W41052   2.572  21.368   4.607
68793W        W41053  39.256  22.246  11.814
68794W        W41054  35.432   3.188  14.544
68795W        W41055   3.171  26.264  11.171
68796W        W41056  31.802  39.854   1.922
68797W        W41057  20.464  22.273   4.182
68798W        W41058   8.853  40.681   2.752
68799W        W41059  28.132  43.814   4.670
68800W        W41060   6.126  29.835   2.995
68801W        W41061  33.903  34.614  13.334
68802W        W41062  25.465   3.708   3.548
68803W        W41063  36.373   4.815   3.348
68804W        W41064  19.063  40.316  12.614
68805W        W41065  22.520  17.765   4.632
68806W        W41066  36.568  25.444   2.287
68807W        W41067  36.005  21.210   0.952
68808W        W41068  17.261   0.139  11.844
68809W        W41069  43.969  21.296   0.403
68810W        W41070  10.082   9.666   0.796
68811W        W41071   6.330   0.983   3.523
68812W        W41072  18.840   4.137   4.584
68813W        W41073   5.610  43.963  12.474
68814W        W41074  43.808  35.511   1.559
68815W        W41075  43.101  12.375  12.443
68816W        W41076  39.578  40.922   1.385
68817W        W41077  28.790  34.531  11.242
68818W        W41078   7.425  10.810   1.433
68819W        W41079  25.614   0.298  14.292
68820W        W41080   2.403  20.214  12.450
68821W        W41081  44.330   3.364   4.450
68822W        W41082   1.768   5.903  13.315
68823W        W41083  11.655  38.539   2.372
68824W        W41084  14.743  36.942  14.059
68825W        W41085  20.084  37.387   2.839
68826W        W41086  20.071   7.707   9.791
68827W        W41087  19.519  14.287  10.303
68828W        W41088  24.870   7.844   0.845
68829W        W41089  35.383  18.672   0.913
68830W        W41090  39.948  19.337  12.477
68831W        W41091  28.261  12.385  12.874
68832W        W41092  20.175  44.459   4.627
68833W        W41093   3.386  38.384  11.504
68834W        W41094  37.037  40.600  11.461
68835W        W41095  38.478  18.181  12.603
68836W        W41096   4.849   1.052  13.108
68837W        W41097  32.450  30.060   3.700
68838W        W41098  40.372  23.677  11.192
68839W        W41099  19.287  36.546   0.429
68840W        W41100  37.452  26.197   1.919
68841W        W41101  13.825   1.621  11.098
68842W        W41102  22.107  17.066   3.485
68843W        W41103  44.410  43.870   2.200
68844W        W41104  18.150  29.207  11.441
68845W        W41105  30.430  21.716  13.798
68846W        W41106  44.752  44.081  12.543
68847W        W41107  14.579  13.807   9.799
68848W        W41108  43.309  28.168  12.830
68849W        W41109  41.954  28.997   1.306
68850W        W41110  22.431  35.494  14.789
68851W        W41111   2.894   1.847   3.887
68852W        W41112  29.005  10.724   4.490
68853W        W41113   6.453  30.920  11.457
68854W        W41114  43.601  39.547  13.068
68855W        W41115  17.664  35.520  12.928
68856W        W41116  36.920   3.722   4.154
68857W        W41117  41.962  38.337  12.178
68858W        W41118  10.819  34.105   3.039
68859W        W41119  32.864  44.799   4.243
68860W        W41120  34.509  13.649  11.148
68861W        W41121   2.810   0.228   4.433
68862W        W41122  22.929  23.165   0.486
68863W        W41123  30.652  10.755   3.890
68864W        W41124   9.193  44.324   2.358
68865W        W41125  41.907  20.533   2.402
68866W        W41126  10.618  25.583   0.424
68867W        W41127   7.945  36.030  14.362
68868W        W41128  19.979  22.629   2.600
68869W        W41129   2.406  40.370  14.463
68870W        W41130  25.676  27.089   3.511
68871W        W41131  35.263  29.435   4.567
68872W        W41132   0.000  28.175  13.857
68873W        W41133  24.217  18.506   5.129
68874W        W41134   1.458  22.226  12.186
68875W        W41135   1.010  24.555  12.433
68876W        W41136  39.038  29.555   1.429
68877W        W41137   0.904  39.839   2.244
68878W        W41138  20.114  31.678   0.981
68879W        W41139   8.024  33.821   2.795
68880W        W41140   2.380  39.091   3.246
68881W        W41141  37.022  36.037  13.793
68882W        W41142   5.791  33.049   4.082
68883W        W41143  33.382  22.529  11.581
68884W        W41144  39.438   8.220  13.312
68885W        W41145  43.509  44.375   0.722
68886W        W41146   4.990  35.663  12.959
68887W        W41147   8.628   7.002   2.961
68888W        W41148  33.650  22.584  13.957
68889W        W41149  24.023  33.793  14.430
68890W        W41150   3.782   5.732   4.579
68891W        W41151  18.285  19.472  14.719
68892W        W41152  31.921  12.250  14.962
68893W        W41153  28.228  22.613   1.492
68894W        W41154  22.421  31.218   1.290
68895W        W41155   6.856  34.034  11.679
68896W        W41156  41.854  37.401   3.815
68897W        W41157  27.479  14.599   4.836
68898W        W41158  19.338  17.787  11.123
68899W        W41159  38.967   2.478  10.579
68900W        W41160  41.913  24.568  10.815
68901W        W41161  33.120  10.027  12.908
68902W        W41162   3.830   2.156  14.359
68903W        W41163  30.625  38.654  12.970
68904W        W41164  32.662  31.497   2.763
68905W        W41165   2.317   8.890  13.898
68906W        W41166  24.259  22.762  12.877
68907W        W41167  19.194   4.873  11.099
68908W        W41168  36.376  30.894   0.248
68909W        W41169  23.688  42.993  10.603
68910W        W41170   6.689  16.408   4.198
68911W        W41171  10.625   0.379  12.926
68912W        W41172  13.698  33.937  14.492
68913W        W41173  18.653  17.059   0.741
68914W        W41174  26.009   8.931  11.913
68915W        W41175  31.867   7.238   0.363
68916W        W41176  34.100  36.619   1.996
68917W        W41177  12.577  22.047   4.196
68918W        W41178   8.157  14.755  14.938
68919W        W41179   3.400  20.802  13.398
68920W        W41180  13.336   8.844   3.625
68921W        W41181  44.342  26.569   4.525
68922W        W41182  34.029  10.356  14.893
68923W        W41183  36.089  29.542   3.957
68924W        W41184  28.936  24.277   1.246
68925W        W41185  15.885   2.345   2.411
68926W        W41186  42.197  39.835   2.802
68927W        W41187   6.974  32.558   3.814
68928W        W41188  40.575  24.296  14.967
68929W        W41189  21.750  18.689   9.768
68930W        W41190  15.296   7.249  10.632
68931W        W41191  33.848  44.952  11.139
68932W        W41192   7.812  22.632   4.163
68933W        W41193  41.010  42.114   0.130
68934W        W41194  13.122  20.570  14.252
68935W        W41195   2.165  14.979  11.610
68936W        W41196  19.732   0.943  14.938
68937W        W41197  36.485  27.370  14.761
68938W        W41198  38.318  44.234  12.143
68939W        W41199  22.929  11.404  10.855
68940W        W41200   4.444  13.072  13.511
68941W        W41201  26.449  29.108  12.373
68942W        W41202  37.151  39.586   3.660
68943W        W41203  32.054  30.443  14.298
68944W        W41204  27.900  12.980   4.128
68945W        W41205  35.466  33.101   1.337
68946W        W41206  13.407  10.275   4.576
68947W        W41207  18.802  41.405  10.763
68948W        W41208  16.604  25.687   4.301
68949W        W41209  34.255   5.333   0.444
68950W        W41210  10.815   0.244   4.426
68951W        W41211  12.653   0.565  13.921
68952W        W41212  26.533  14.558   4.197
68953W        W41213  10.097  22.215   2.545
68954W        W41214   7.506  25.028  13.742
68955W        W41215  35.403  28.815   1.173
68956W        W41216  22.258  40.415  14.830
68957W        W41217  18.009  31.511   2.764
68958W        W41218  26.391  23.925  14.902
68959W        W41219  38.052   9.151  12.012
68960W        W41220  18.229  30.360  13.543
68961W        W41221  12.235  32.864   4.000
68962W        W41222  23.304  19.780   3.589
68963W        W41223  21.204   2.496   0.069
68964W        W41224  32.114   7.522  14.926
68965W        W41225  41.251  26.123  12.194
68966W        W41226  36.456  10.300  11.471
68967W        W41227  43.714   3.802  12.543
68968W        W41228  41.320   0.522  12.158
68969W        W41229  44.440  36.642   3.362
68970W        W41230  10.760   6.446  11.024
68971W        W41231  25.441  40.626  14.428
68972W        W41232   6.785  25.447  14.617
68973W        W41233  26.008  20.999   4.486
68974W        W41234  17.686  14.868   3.552
68975W        W41235  11.744  13.262  11.170
68976W        W41236  21.123  33.414  10.880
68977W        W41237   4.352  29.134  13.567
68978W        W41238  10.230   0.947   1.153
68979W        W41239   9.782  26.685   3.690
68980W        W41240   6.839  26.326  12.499
68981W        W41241  19.626  34.420   4.558
68982W        W41242  31.096  26.438   3.925
68983W        W41243   6.392  24.294  11.149
68984W        W41244  14.997   8.592   2.871
68985W        W41245  30.008  15.280  12.585
68986W        W41246  21.205   8.317   1.001
68987W        W41247  16.076  38.807  10.718
68988W        W41248   3.211  31.451   3.738
68989W        W41249   6.820  34.405  14.308
68990W        W41250   0.365  10.953   2.336
68991W        W41251  20.590  27.083  12.327
68992W        W41252  35.905  10.648  11.920
68993W        W41253  33.563  26.016   2.909
68994W        W41254  14.192  22.266   4.843
68995W        W41255  16.165  26.139   0.324
68996W        W41256  36.900  39.102   0.797
68997W        W41257  35.598  36.253  10.709
68998W        W41258  40.514  24.035   3.156
68999W        W41259  43.291  18.577   3.182
69000W        W41260   7.891  36.925   3.303
69001W        W41261  43.087  13.673  14.212
69002W        W41262  26.561   6.666  12.049
69003W        W41263  15.188  28.866   4.575
69004W        W41264   8.489  16.894   1.411
69005W        W41265  22.642  13.714  13.282
69006W        W41266  33.608  13.122  13.891
69007W        W41267  27.825  13.169   3.106
69008W        W41268  24.987  39.970   4.652
69009W        W41269  35.861  30.121  13.927
69010W        W41270  25.145  15.213  10.658
69011W        W41271  31.389  11.110   4.552
69012W        W41272   4.530  18.693  13.054
69013W        W41273  40.928  15.349  11.185
69014W        W41274   6.637  35.967  14.899
69015W        W41275  43.818  42.479   2.742
69016W        W41276  23.608   1.908  13.274
69017W        W41277  40.263  28.546  13.364
69018W        W41278   4.002  34.448   3.694
69019W        W41279  13.824  33.282   3.375
69020W        W41280  16.691  42.501   4.790
69021W        W41281  32.624  27.031   1.339
69022W        W41282   8.554  27.580  11.524
69023W        W41283  38.359  21.165  14.104
69024W        W41284  27.691  20.633   3.550
69025W        W41285  14.115  13.250   4.113
69026W        W41286  33.972  13.131  14.812
69027W        W41287   6.574  19.319  12.977
69028W        W41288  43.237   4.004  14.242
69029W        W41289  28.920  15.612  14.433
69030W        W41290  15.563  24.202  14.500
69031W        W41291   3.181  31.366   4.717
69032W        W41292  32.404   2.143  13.754
69033W        W41293  43.714  32.001   0.761
69034W        W41294  34.582  38.408   3.314
69035W        W41295  44.670  18.312  13.564
69036W        W41296   0.771  25.488   0.391
69037W        W41297  41.291  31.065  12.501
69038W        W41298  12.393  29.953   0.943
69039W        W41299  36.924  36.438  14.670
69040W        W41300  41.566  30.085   1.520
69041W        W41301   4.236  13.831  12.202
69042W        W41302  21.639   4.702  10.971
69043W        W41303  21.195  34.102   0.535
69044W        W41304   4.756  39.782  13.205
69045W        W41305  44.158  44.027  10.549
69046W        W41306  29.943  15.647   0.999
69047W        W41307  35.991   9.123  10.706
69048W        W41308  25.760  29.465   0.909
69049W        W41309  41.942  36.311   4.846
69050W        W41310  34.127  41.045   0.449
69051W        W41311  15.292  20.739   3.713
69052W        W41312  37.953  20.344   0.473
69053W        W41313  42.955  29.210   3.291
69054W        W41314  18.229   7.993   1.682
69055W        W41315  31.560  43.574   1.442
69056W        W41316  21.149  32.910   3.668
69057W        W41317  11.952  14.790  12.031
69058W        W41318  23.517   4.151   3.279
69059W        W41319  22.351  27.614  10.922
69060W        W41320  37.107  44.841   2.084
69061W        W41321  21.489  26.631  12.584
69062W        W41322   2.779   2.216  12.310
69063W        W41323  43.304  23.135   0.371
69064W        W41324  11.714  13.840   0.497
69065W        W41325  35.875   0.206  14.760
69066W        W41326  29.230  16.815   4.544
69067W        W41327  41.778  19.139  12.485
69068W        W41328   5.466  41.732  14.335
69069W        W41329   1.892  39.400  11.867
69070W        W41330  14.567  29.374  10.657
69071W        W41331  17.224   3.705  14.779
69072W        W41332   5.879   2.069   4.572
69073W        W41333   7.322  36.292  13.382
69074W        W41334  19.709  16.797  12.221
69075W        W41335  12.844  30.187   3.817
69076W        W41336  40.488  37.074   4.515
69077W        W41337  19.163  41.037  14.795
69078W        W41338   8.779  22.302  11.548
69079W        W41339  38.013  10.154  13.564
69080W        W41340   3.745  39.590   2.303
69081W        W41341  33.077  15.867   3.672
69082W        W41342  18.051   8.848  11.466
69083W        W41343  22.065  26.111   2.749
69084W        W41344   5.914  40.015  11.630
69085W        W41345   6.409  26.485  10.663
69086W        W41346  16.525  26.428  10.709
69087W        W41347  38.571  13.705  14.499
69088W        W41348   8.314  32.492  14.473
69089W        W41349  42.539  33.968   3.565
69090W        W41350  42.542   1.423   1.282
69091W        W41351  24.431  36.978   0.891
69092W        W41352  10.669  23.660   3.518
69093W        W41353   2.930  23.020   2.235
69094W        W41354  33.078  27.524   4.578
69095W        W41355   5.995  27.104  12.114
69096W        W41356  34.970  39.489   0.371
69097W        W41357  10.399  25.120   0.350
69098W        W41358  17.482  14.584  12.794
69099W        W41359  38.797  13.192   2.442
69100W        W41360  30.569  15.252   3.408
69101W        W41361  10.653   0.721   4.158
69102W        W41362  38.128   6.464   9.981
69103W        W41363   0.496  39.319   1.397
69104W        W41364  42.855   8.344  13.546
69105W        W41365   9.318  23.075  12.355
69106W        W41366   3.141  36.859  13.251
69107W        W41367  35.486  10.168  11.240
69108W        W41368  13.385   1.903  10.845
69109W        W41369  37.576  19.327   2.406
69110W        W41370  26.973  40.294  12.094
69111W        W41371  37.699  35.416   1.114
69112W        W41372  36.064   0.916  12.493
69113W        W41373  41.749   1.868   0.399
69114W        W41374  36.406  39.529   3.235
69115W        W41375  36.224   7.288   0.464
69116W        W41376  20.699  42.428   0.329
69117W        W41377  35.262  22.488  14.869
69118W        W41378   2.152  16.489  11.403
69119W        W41379  23.686  19.660  14.242
69120W        W41380  44.829  26.462   0.723
69121W        W41381  22.964   9.216   0.471
69122W        W41382  15.823  25.515   2.011
69123W        W41383  12.862  43.285  11.031
69124W        W41384  37.528  24.997  11.149
69125W        W41385  24.587  30.792  12.667
69126W        W41386   8.097  34.961   1.404
69127W        W41387  40.534  18.847   1.334
69128W        W41388  25.970   1.552  12.759
69129W        W41389  28.625  41.459  13.056
69130W        W41390  23.211  20.367  14.969
69131W        W41391  31.305  33.470   2.643
69132W        W41392   2.479   0.751   1.631
69133W        W41393  30.625  19.672   2.724
69134W        W41394  36.876   7.366   1.383
69135W        W41395  27.030  37.027  13.838
69136W        W41396  40.369  32.194  11.951
69137W        W41397  37.627  24.354  12.123
69138W        W41398   0.273  41.788   0.547
69139W        W41399  29.423  39.872  14.299
69140W        W41400   0.898  11.698  10.675
69141W        W41401   7.359   9.603   3.668
69142W        W41402  31.696  31.387   5.015
69143W        W41403  39.352  34.093  14.071
69144W        W41404  39.939   8.964   0.190
69145W        W41405  31.623  28.203   1.254
69146W        W41406  42.760  43.739  11.614
69147W        W41407  37.543  43.293  12.912
69148W        W41408   3.435  36.698   4.975
69149W        W41409  44.302  43.841   4.970
69150W        W41410  34.750  41.111   5.046
69151W        W41411  42.422  18.560  12.778
69152W        W41412  31.476  32.129  12.085
69153W        W41413   0.823   9.620  14.838
69154W        W41414  24.118  16.086   3.162
69155W        W41415  28.514   8.264   4.045
69156W        W41416   4.272   4.714   3.660
69157W        W41417   2.144  13.705   4.941
69158W        W41418   6.259   0.876   0.860
69159W        W41419  42.028  44.057  11.202
69160W        W41420  23.140  40.527  13.363
69161W        W41421  16.911   7.067  11.556
69162W        W41422  34.764   7.340   4.577
69163W        W41423   9.357  16.967   1.885
69164W        W41424   4.673  26.419  13.011
69165W        W41425  33.540  28.164  13.498
69166W        W41426   6.447  27.727  13.215
69167W        W41427  31.770  26.438  11.850
69168W        W41428   8.916   9.776   1.883
69169W        W41429  22.944  31.679  14.239
69170W        W41430  27.030  38.129  13.931
69171W        W41431   8.311  18.560  12.959
69172W        W41432  37.962  18.672  13.590
69173W        W41433   4.744   4.816  11.372
69174W        W41434  40.594  36.521  12.399
69175W        W41435  24.558  43.075   4.788
69176W        W41436  12.331  12.680  11.914
69177W        W41437  13.329  33.904  10.622
69178W        W41438  41.337  38.570  12.894
69179W        W41439  16.559  26.681  13.079
69180W        W41440  39.307  18.253   4.000
69181W        W41441   2.078  36.314  11.588
69182W        W41442   6.802  23.974  12.753
69183W        W41443   8.349  19.320   4.360
69184W        W41444   2.982  31.843  11.147
69185W        W41445  14.159  19.811   0.329
69186W        W41446  17.523   6.357  12.130
69187W        W41447  21.703  19.175  14.914
69188W        W41448  36.605   7.667  10.452
69189W        W41449  30.144  32.646   0.219
69190W        W41450  36.549  27.706   0.194
69191W        W41451  38.553  15.705   4.201
69192W        W41452  17.984  35.871  11.534
69193W        W41453   2.460  29.532  14.308
69194W        W41454  21.972  27.666   2.719
69195W        W41455  16.126  34.536  14.739
69196W        W41456  22.654  24.699  12.101
69197W        W41457  14.384  18.691   3.478
69198W        W41458  30.591  13.293  11.945
69199W        W41459  34.112  43.964  13.289
69200W        W41460  36.853  39.351   1.280
69201W        W41461  36.661  23.475   2.380
69202W        W41462  13.944  41.516  10.437
69203W        W41463  13.750  29.469  14.061
69204W        W41464   1.474  22.023   2.835
69205W        W41465  41.367  35.590  12.811
69206W        W41466  41.539  14.665   1.044
69207W        W41467  16.603  40.025  11.151
69208W        W41468  18.151  11.189  14.318
69209W        W41469   7.865  32.812   4.106
69210W        W41470   6.944  27.758  14.914
69211W        W41471  25.245  22.545   4.211
69212W        W41472  33.855  39.301  12.876
69213W        W41473  36.199  42.948  13.973
69214W        W41474  33.977  18.918  12.828
69215W        W41475  28.585  26.590   2.933
69216W        W41476  30.974   1.364   0.652
69217W        W41477  14.802  28.014   1.628
69218W        W41478  15.935  36.499   0.938
69219W        W41479  26.525  17.601  12.313
69220W        W41480  11.591  22.013   0.066
69221W        W41481  22.014  44.869  14.330
69222W        W41482  27.540  13.896   0.615
69223W        W41483  39.407  17.632  12.697
69224W        W41484  29.034  38.072  14.033
69225W        W41485  29.946   6.967  11.542
69226W        W41486  43.951   9.194   1.636
69227W        W41487  40.414  12.837  12.646
69228W        W41488   8.638  12.501   1.543
69229W        W41489  39.804  44.742   2.893
69230W        W41490   7.601  12.270  13.866
69231W        W41491  10.818  28.596   3.068
69232W        W41492  43.659  39.861  11.572
69233W        W41493   6.581  41.397   9.708
69234W        W41494  19.683  31.355  13.851
69235W        W41495  14.649  36.998   2.719
69236W        W41496  43.422  31.486  11.533
69237W        W41497  30.173   4.183  12.940
69238W        W41498   7.323  36.933  10.772
69239W        W41499  25.879  42.307  10.481
69240W        W41500  35.829  20.672   3.592
69241W        W41501  41.432  38.094   0.180
69242W        W41502  14.171  21.497  13.788
69243W        W41503  44.028  17.837  11.111
69244W        W41504   5.179  16.193  13.356
69245W        W41505  38.080  20.643  14.497
69246W        W41506  11.547  22.036  12.466
69247W        W41507  22.032  39.282   1.924
69248W        W41508  19.244  10.918   3.245
69249W        W41509   6.790   1.776   4.639
69250W        W41510  40.546  43.876   2.233
69251W        W41511  39.225  33.214  12.562
69252W        W41512  30.124   8.792  11.138
69253W        W41513  19.191  18.028   1.491
69254W        W41514  18.385  27.850  12.463
69255W        W41515  26.508  11.202   2.893
69256W        W41516  20.616  40.826   2.943
69257W        W41517  38.858  29.393   2.914
69258W        W41518  43.894  36.068  14.763
69259W        W41519  27.934  14.244  11.901
69260W        W41520  31.780  18.657  14.949
69261W        W41521  18.567  16.101  11.234
69262W        W41522   0.258   5.175  14.781
69263W        W41523  21.820   4.498  14.882
69264W        W41524  39.987  24.675  12.015
69265W        W41525  16.738   7.823   4.185
69266W        W41526  40.673   9.299   0.463
69267W        W41527  38.328  13.187  10.609
69268W        W41528  11.219  40.458   3.536
69269W        W41529  26.066  19.640   3.346
69270W        W41530  16.379  33.191   4.185
69271W        W41531  18.708  23.758   0.443
69272W        W41532   0.364  12.310  13.873
69273W        W41533  34.382  13.601   0.872
69274W        W41534  32.874  26.642   3.124
69275W        W41535   7.471  17.093  13.759
69276W        W41536   6.383  37.070   4.521
69277W        W41537   0.793   0.749   3.625
69278W        W41538  33.363  21.071  10.145
69279W        W41539  41.919   9.522  11.646
69280W        W41540  32.005   1.880   1.479
69281W        W41541   1.914  11.177  12.184
69282W        W41542   2.284  15.548   4.771
69283W        W41543  26.547  40.921   1.632
69284W        W41544  22.033  13.844  11.147
69285W        W41545  40.353  43.948  13.961
69286W        W41546  15.735  41.478  11.129
69287W        W41547  36.806  13.584   1.715
69288W        W41548   1.884  17.653   0.004
69289W        W41549  37.061   0.278  12.470
69290W        W41550  29.609  41.852  13.407
69291W        W41551  42.059   2.998   3.290
69292W        W41552  15.726  11.438  13.854
69293W        W41553   3.821   4.507  10.478
69294W        W41554  31.562  31.759  13.138
69295W        W41555  40.312  17.483  11.566
69296W        W41556  27.956  38.993   4.329
69297W        W41557  43.971  42.128   4.112
69298W        W41558   9.947  27.764  12.405
69299W        W41559   0.843  12.257   3.584
69300W        W41560   6.872  15.684  12.981
69301W        W41561   8.650  18.369  14.447
69302W        W41562  12.843  29.467  14.269
69303W        W41563  16.642  36.091   0.578
69304W        W41564  10.135  34.148  13.097
69305W        W41565   1.055  14.595   4.371
69306W        W41566  33.862   0.828   4.695
69307W        W41567  44.999   6.723  11.392
69308W        W41568   0.489  44.761  13.847
69309W        W41569  17.496  43.240   1.597
69310W        W41570  34.623  41.778   3.672
69311W        W41571  10.838  16.828   3.208
69312W        W41572   0.822  31.139  12.387
69313W        W41573  27.683  18.299  12.586
69314W        W41574  33.896   2.874  12.027
69315W        W41575  29.045   3.274   1.468
69316W        W41576  14.827  36.405   4.592
69317W        W41577  17.171   2.884  13.068
69318W        W41578  18.662   9.123  12.389
69319W        W41579  16.529  31.938   1.898
69320W        W41580  27.487   5.650   4.160
69321W        W41581  31.036  19.648  11.486
69322W        W41582  11.651   6.371   4.133
69323W        W41583  19.490   4.841  11.529
69324W        W41584  36.791  16.306  12.980
69325W        W41585  10.144  40.222  11.161
69326W        W41586  35.131   2.849   4.593
69327W        W41587  39.953  28.491  10.972
69328W        W41588  10.158  19.773   2.880
69329W        W41589  40.576  16.652  10.464
69330W        W41590  28.554  18.657  13.519
69331W        W41591   2.380  39.973   1.907
69332W        W41592  25.327  11.848   0.186
69333W        W41593  40.168   4.414  13.619
69334W        W41594   2.981   4.268   4.944
69335W        W41595  31.179  10.762  10.462
69336W        W41596  18.781  32.935   4.230
69337W        W41597  22.518  26.872   2.386
69338W        W41598  36.087  40.862   0.971
69339W        W41599  29.144  35.320  11.461
69340W        W41600  35.586  20.738  14.391
69341W        W41601  18.656  20.103   3.699
69342W        W41602  11.569  25.105   0.838
69343W        W41603   4.668  43.461   5.075
69344W        W41604  11.457   0.226   2.253
69345W        W41605  37.979  19.755   3.746
69346W        W41606  12.277  36.103   0.167
69347W        W41607  22.018  19.513   2.316
69348W        W41608   8.763  39.834  12.497
69349W        W41609  43.442   3.406   1.331
69350W        W41610   3.597  22.119  13.842
69351W        W41611  19.147   5.145  10.662
69352W        W41612   1.168  37.016   1.432
69353W        W41613  43.436  30.107   4.537
69354W        W41614  21.252   1.012  13.589
69355W        W41615  25.057  16.404  11.673
69356W        W41616   6.691   0.422   0.236
69357W        W41617  33.630  40.065  10.782
69358W        W41618  10.151  28.145   5.064
69359W        W41619  12.761  29.429   2.270
69360W        W41620   2.150  13.100   0.562
69361W        W41621  37.031  27.469  13.119
69362W        W41622   5.255  22.031   4.685
69363W        W41623   6.978  15.784   1.996
69364W        W41624  44.886  31.945   4.563
69365W        W41625   3.978   1.341   0.779
69366W        W41626  13.348  19.064  11.993
69367W        W41627  30.896  41.535   3.697
69368W        W41628  13.846  27.458  12.799
69369W        W41629   0.070  19.813   1.845
69370W        W41630  23.581  19.710  11.966
69371W        W41631   0.375  40.490  11.552
69372W        W41632   4.367  42.781  13.793
69373W        W41633  15.263  20.459  12.865
69374W        W41634  12.101  14.581   0.819
69375W        W41635  26.597   4.802  12.213
69376W        W41636  22.515   3.399  12.462
69377W        W41637  41.013  13.458  10.936
69378W        W41638  32.390  42.561  12.145
69379W        W41639  30.981  32.021  12.022
69380W        W41640   2.705   8.711  10.720
69381W        W41641  21.769  14.288   2.906
69382W        W41642  39.732  24.891  13.945
69383W        W41643  20.585   8.107  11.497
69384W        W41644  31.183  27.183   3.662
69385W        W41645  13.723  30.481   1.839
69386W        W41646  18.091  18.537  14.855
69387W        W41647  12.706  10.637   2.394
69388W        W41648  40.453  17.057   0.764
69389W        W41649  12.468  30.593  11.964
69390W        W41650   3.959  25.234  11.273
69391W        W41651  12.123  24.512   0.477
69392W        W41652  33.063  14.260  10.490
69393W        W41653  31.813  39.653  12.851
69394W        W41654  24.792   5.844   3.804
69395W        W41655  27.512  14.392  12.193
69396W        W41656  24.771  40.960  12.021
69397W        W41657   4.779   9.536  12.787
69398W        W41658  27.690  26.130  14.532
69399W        W41659  16.736  14.753   0.268
69400W        W41660  32.576  23.700  12.319
69401W        W41661  39.989  42.576   2.855
69402W        W41662   5.879  10.557  12.862
69403W        W41663  15.983  16.698   4.691
69404W        W41664  29.041  11.866   2.241
69405W        W41665  20.257  14.088   2.511
69406W        W41666   7.999   8.312   2.755
69407W        W41667  13.376   7.354   1.227
69408W        W41668  20.708  27.110  14.689
69409W        W41669  24.540  44.379  11.553
69410W        W41670   3.141  32.902   4.576
69411W        W41671   6.872   0.948   0.031
69412W        W41672  15.093  41.081   2.238
69413W        W41673  33.361  43.990   0.298
69414W        W41674  27.103  14.368  11.393
69415W        W41675  26.230  36.934   1.795
69416W        W41676  29.161  33.441   3.582
69417W        W41677   7.832  44.197  10.652
69418W        W41678  33.597  33.585  14.504
69419W        W41679  25.653  39.359   1.714
69420W        W41680  25.004  39.580  12.642
69421W        W41681  16.593  29.022  12.447
69422W        W41682  19.752  19.112   2.374
69423W        W41683  42.205  16.867  12.863
69424W        W41684  31.006  32.382  11.174
69425W        W41685   5.022  39.742   2.225
69426W        W41686  12.650  24.720   4.205
69427W        W41687  28.698  20.099  13.891
69428W        W41688   5.950   5.906  12.438
69429W        W41689  13.700  42.052  14.382
69430W        W41690   8.210  17.917  11.496
69431W        W41691  43.241  22.027   3.148
69432W        W41692  16.251  30.708   0.564
69433W        W41693  42.871   2.381   1.275
69434W        W41694  11.167  18.904  10.763
69435W        W41695  10.996  14.724  12.123
69436W        W41696  36.371  26.544   3.683
69437W        W41697  23.008  40.951   4.406
69438W        W41698  12.613  44.941   1.701
69439W        W41699  24.621  10.128   2.707
69440W        W41700  16.243  23.159   1.347
69441W        W41701  16.629  14.577  13.942
69442W        W41702   8.563   6.854   0.181
69443W        W41703  14.778  37.801  11.139
69444W        W41704  34.842  18.579  13.972
69445W        W41705   3.803  23.310   0.390
69446W        W41706  11.365  20.451   2.278
69447W        W41707  19.058  16.215  14.400
69448W        W41708  37.842  43.036  11.550
69449W        W41709  13.856  18.592   3.406
69450W        W41710  36.020  43.533   4.096
69451W        W41711   2.229  44.832  13.383
69452W        W41712   9.624  38.728   4.342
69453W        W41713  22.168   9.444   1.253
69454W        W41714   5.965  22.755   2.235
69455W        W41715  39.947  19.688   4.754
69456W        W41716  20.563  39.374  10.750
69457W        W41717  12.994   8.735   3.242
69458W        W41718  27.495  27.882   1.539
69459W        W41719  10.147  32.771  13.783
69460W        W41720  28.565  15.893   1.802
69461W        W41721  16.168  16.600   3.822
69462W        W41722  40.795  13.691  11.654
69463W        W41723  42.913  17.793   2.238
69464W        W41724   6.742  22.167  12.645
69465W        W41725  41.389  39.802   3.812
69466W        W41726  18.761  15.986  14.799
69467W        W41727  20.207  34.910   0.958
69468W        W41728  29.082  44.692   3.195
69469W        W41729  37.493   9.353   9.815
69470W        W41730  24.191  32.405   4.176
69471W        W41731  31.055   9.725  14.545
69472W        W41732  10.808  20.886  11.302
69473W        W41733   1.725  30.265  13.255
69474W        W41734  32.473  20.711   3.378
69475W        W41735  44.331  10.675   2.888
69476W        W41736   7.550  20.310   3.565
69477W        W41737  16.397   8.903   3.583
69478W        W41738  22.141  38.625  14.953
69479W        W41739  20.540  37.590  14.584
69480W        W41740  21.808  12.199  12.031
69481W        W41741   6.455  15.688   0.308
69482W        W41742   6.102  37.814   3.792
69483W        W41743  41.666  28.213   1.741
69484W        W41744  15.470  32.056  13.185
69485W        W41745  21.983  40.781  12.239
69486W        W41746   4.660  13.349  12.901
69487W        W41747  31.450  19.977  11.463
69488W        W41748  10.334  11.345   3.689
69489W        W41749  10.109  36.005  12.049
69490W        W41750  44.005  32.759   2.552
69491W        W41751  34.026  43.347   4.975
69492W        W41752  13.620  29.048  11.736
69493W        W41753  10.544  29.670  12.456
69494W        W41754  31.136  30.155   5.061
69495W        W41755  33.510   2.942   0.337
69496W        W41756   9.633  19.225  11.195
69497W        W41757  41.175  35.582  14.233
69498W        W41758  39.411  14.268   4.100
69499W        W41759  25.386  39.084  11.957
69500W        W41760  34.866   7.713  13.369
69501W        W41761   6.739   0.542  10.344
69502W        W41762  32.388  12.837   2.164
69503W        W41763   5.976  37.099  11.991
69504W        W41764  33.328  10.247  11.595
69505W        W41765  17.187  35.646   1.206
69506W        W41766  11.685   5.631   3.646
69507W        W41767  32.350   5.633   3.282
69508W        W41768   6.958  25.500   4.144
69509W        W41769  16.292   0.355   4.344
69510W        W41770  22.127  28.043   2.388
69511W        W41771  12.748  15.793  11.109
69512W        W41772  26.590  33.110   1.771
69513W        W41773   7.459  13.612  14.424
69514W        W41774  29.905  34.480  11.157
69515W        W41775  40.790   4.387  14.420
69516W        W41776  31.175  14.716   2.082
69517W        W41777  14.863  12.135   3.794
69518W        W41778  42.276  30.987  11.136
69519W        W41779  23.546  10.264  10.297
69520W        W41780  31.067   9.420   2.613
69521W        W41781  18.290  42.285   3.602
69522W        W41782   6.273  20.301   1.786
69523W        W41783  40.260  15.085   3.878
69524W        W41784  37.386  25.999   4.122
69525W        W41785   2.453  32.793  13.509
69526W        W41786  12.434  38.617  13.253
69527W        W41787  11.211  31.457  12.771
69528W        W41788  38.473  15.225   4.058
69529W        W41789  29.658   7.640   1.879
69530W        W41790  30.692  20.087   4.749
69531W        W41791  35.825  32.087   2.815
69532W        W41792   8.267  44.527  11.950
69533W        W41793   3.820  33.181  14.701
69534W        W41794   7.760  36.449  13.574
69535W        W41795  31.848  16.154  10.481
69536W        W41796  11.929  22.560   2.153
69537W        W41797  27.949   1.054   0.996
69538W        W41798  18.560   3.214  11.565
69539W        W41799  27.454  14.221  14.830
69540W        W41800  10.675  43.571   2.638
69541W        W41801  35.431   9.643  14.544
69542W        W41802  33.140  19.619   0.307
69543W        W41803  37.925  29.039   2.798
69544W        W41804  22.455  10.119  10.567
69545W        W41805  35.018   2.218  12.059
69546W        W41806   1.313  18.138   2.970
69547W        W41807  22.804  37.651   0.699
69548W        W41808   2.019   3.737   3.623
69549W        W41809  14.678  44.668  10.932
69550W        W41810  29.056  28.015   3.875
69551W        W41811  23.291  17.516  14.462
69552W        W41812  19.323  30.871  12.491
69553W        W41813  42.516  11.841  13.979
69554W        W41814  37.648  38.546   0.282
69555W        W41815  26.332  39.705  12.513
69556W        W41816   8.779  40.028   1.873
69557W        W41817  26.464  20.261   4.758
69558W        W41818   6.513  29.536   0.765
69559W        W41819  23.407   9.871   2.837
69560W        W41820  10.798  21.386   1.455
69561W        W41821   8.152   6.790  13.919
69562W        W41822  13.094   3.918  13.476
69563W        W41823   4.770  36.506   0.940
69564W        W41824  33.146  31.503  10.946
69565W        W41825  23.948  41.539  11.182
69566W        W41826   6.880   3.402   0.548
69567W        W41827  16.588  16.979   3.272
69568W        W41828   7.682  13.202  11.835
69569W        W41829  14.676  23.137  12.927
69570W        W41830  25.469   4.867   2.838
69571W        W41831  17.222  42.370  13.425
69572W        W41832  41.927  15.115  13.873
69573W        W41833  15.740  11.374  12.991
69574W        W41834  15.239   0.081   2.362
69575W        W41835   4.033   5.316  10.550
69576W        W41836  12.777  23.149  11.633
69577W        W41837  39.051   7.664  14.821
69578W        W41838  32.515  13.920  14.748
69579W        W41839  12.665  42.703   0.449
69580W        W41840  26.766  24.128   3.604
69581W        W41841  44.847  27.985   0.961
69582W        W41842  18.124  14.715  14.064
69583W        W41843  34.464  21.281  11.651
69584W        W41844   4.714  27.679  13.458
69585W        W41845  17.995  29.644   2.228
69586W        W41846  22.258   4.718  13.096
69587W        W41847  22.807  24.853   3.585
69588W        W41848  28.576  36.525   4.527
69589W        W41849  41.083  30.923  12.056
69590W        W41850  11.548  18.519   4.737
69591W        W41851  11.362  39.629  12.142
69592W        W41852   3.603   4.845  14.078
69593W        W41853  25.090   0.785  11.110
69594W        W41854  33.065  10.318   2.478
69595W        W41855  25.222   3.930  11.631
69596W        W41856  11.713  15.294  13.850
69597W        W41857  38.506  31.363  13.820
69598W        W41858  25.470  44.521  12.443
69599W        W41859   8.629  23.161   3.423
69600W        W41860  13.853   1.412  12.118
69601W        W41861   7.229  18.503   2.517
69602W        W41862  33.634  38.825   1.337
69603W        W41863   8.601  17.586  14.750
69604W        W41864  44.704   0.147  13.429
69605W        W41865  14.632   0.446   1.217
69606W        W41866  39.471  28.982  12.874
69607W        W41867  24.924  13.836   0.435
69608W        W41868  43.314   4.301  11.638
69609W        W41869  39.867   4.527   1.727
69610W        W41870  40.493  28.700   2.022
69611W        W41871  42.854   5.434  11.757
69612W        W41872  26.175  18.214  11.919
69613W        W41873  27.419  33.670   3.319
69614W        W41874  15.661   6.917   2.542
69615W        W41875  22.470  30.429   2.758
69616W        W41876   0.363  17.422   3.123
69617W        W41877   1.226   7.843   1.256
69618W        W41878  31.031  12.391   1.230
69619W        W41879  28.669  22.560  14.362
69620W        W41880   7.840  11.059  13.524
69621W        W41881  14.317  37.816   1.284
69622W        W41882  23.375  40.243   1.724
69623W        W41883   1.744  39.831   4.167
69624W        W41884  34.614  24.091  14.437
69625W        W41885  14.067  35.737  13.935
69626W        W41886  27.075   8.805   0.705
69627W        W41887  30.142  26.577  13.576
69628W        W41888   5.925  35.369  13.054
69629W        W41889  43.929  34.172  11.415
69630W        W41890  37.089   9.741   1.909
69631W        W41891  22.249  23.743   0.868
69632W        W41892  12.161  27.217  12.153
69633W        W41893  40.940  27.145   3.292
69634W        W41894  25.705  33.622   3.339
69635W        W41895   6.923  38.386  12.410
69636W        W41896  39.866  34.914  12.067
69637W        W41897  12.464  32.407  13.370
69638W        W41898  14.503   5.022  14.046
69639W        W41899  16.926  24.496  12.305
69640W        W41900  19.336  43.369   4.746
69641W        W41901  19.217   7.239   4.592
69642W        W41902   9.348  26.514   3.958
69643W        W41903   1.893   3.848   4.631
69644W        W41904  12.197  38.346   4.638
69645W        W41905  40.765  37.978   4.247
69646W        W41906  35.217   8.197   2.743
69647W        W41907   5.394  28.480   5.319
69648W        W41908   5.966  21.036  11.273
69649W        W41909  33.783   1.245   0.300
69650W        W41910   4.682  10.350   5.017
69651W        W41911  37.357  27.711  13.532
69652W        W41912  34.905   3.675  12.971
69653W        W41913   7.117   2.958   3.198
69654W        W41914  20.992   8.819   4.688
69655W        W41915  25.996  12.104  13.364
69656W        W41916  26.024  12.409  12.956
69657W        W41917  25.722  35.958  14.052
69658W        W41918  40.535  17.581   0.548
69659W        W41919  24.878  36.803   2.358
69660W        W41920  20.960  13.678  11.131
69661W        W41921   3.818  43.258   3.030
69662W        W41922  37.561  10.053  10.839
69663W        W41923  38.507  35.603  10.897
69664W        W41924   0.757  10.414  11.062
69665W        W41925  30.037  20.165   2.393
69666W        W41926  10.007  15.160   3.180
69667W        W41927  37.164  37.493   4.630
69668W        W41928  20.703  24.213  10.634
69669W        W41929   7.339   8.345  11.091
69670W        W41930  35.014  17.366  10.827
69671W        W41931  31.166   5.188  11.218
69672W        W41932  42.839   2.824  11.750
69673W        W41933  24.609  10.220   4.603
69674W        W41934  42.254  33.621  13.375
69675W        W41935  31.529  21.318  14.810
69676W        W41936   2.732  20.656  11.745
69677W        W41937  17.163  28.403  13.647
69678W        W41938   2.702  22.758   3.963
69679W        W41939  31.170   8.470   2.302
69680W        W41940  25.271  25.540   1.598
69681W        W41941  42.442  11.627   5.006
69682W        W41942  35.462  36.438   1.709
69683W        W41943  31.535  39.383  11.292
69684W        W41944   1.920  41.352  10.405
69685W        W41945  11.852  24.495  10.759
69686W        W41946  30.225  12.469   2.680
69687W        W41947  31.551   8.437   5.001
69688W        W41948  41.575   6.014  11.084
69689W        W41949  14.583   6.625   0.800
69690W        W41950  42.857  14.711  11.162
69691W        W41951  14.373   9.241  13.504
69692W        W41952  24.543  10.500   3.754
69693W        W41953  37.068  36.058  11.465
69694W        W41954  31.095  32.640   3.874
69695W        W41955  13.367  15.623  13.023
69696W        W41956   6.913  33.650   1.067
69697W        W41957  40.915  40.486  14.389
69698W        W41958  38.350  17.025  10.642
69699W        W41959  35.007  14.661  12.260
69700W        W41960  12.664  40.995  13.530
69701W        W41961   2.488  23.686   2.850
69702W        W41962  18.189   7.892   4.557
69703W        W41963  12.398   5.384   4.622
69704W        W41964  10.793  33.791   4.544
69705W        W41965   9.828   2.769   4.157
69706W        W41966  16.243  25.145  13.957
69707W        W41967  26.575  12.584  13.827
69708W        W41968  38.599   3.932  12.787
69709W        W41969  21.652  37.215   3.299
69710W        W41970  28.518   7.002  12.415
69711W        W41971  34.877  29.153  12.890
69712W        W41972  42.678   3.200   2.630
69713W        W41973  20.033  35.137   4.756
69714W        W41974  17.649  42.415  10.714
69715W        W41975  29.188  19.273   1.288
69716W        W41976  24.888   1.661   1.348
69717W        W41977   1.837   0.515  11.185
69718W        W41978  34.464  30.881   4.064
69719W        W41979  21.734  35.954   3.368
69720W        W41980  23.152   1.185  11.172
69721W        W41981  37.714  40.833  13.884
69722W        W41982  16.217  41.807  11.951
69723W        W41983  42.262  35.945  10.674
69724W        W41984  26.418  16.236  11.649
69725W        W41985  13.332  27.374   2.350
69726W        W41986  21.507  33.394   1.356
69727W        W41987  23.645   1.253  11.887
69728W        W41988  23.157  13.757   3.759
69729W        W41989  17.231  23.870   1.242
69730W        W41990  43.360  21.032   3.350
69731W        W41991  28.573  22.645   0.301
69732W        W41992   5.181  41.686   1.651
69733W        W41993  33.820  30.781   3.393
69734W        W41994   3.958  22.823   0.528
69735W        W41995  35.740   6.498  11.704
69736W        W41996  35.124  30.545  14.017
69737W        W41997   5.832  10.571  14.693
69738W        W41998  12.191  39.183   1.387
69739W        W41999  36.208  39.395  12.252
69740W        W42000  23.434   4.229  11.990
69741W        W42001  33.665   9.096  14.482
69742W        W42002  35.913   8.405  13.585
69743W        W42003  10.606  19.121  14.930
69744W        W42004  29.704  42.477  14.470
69745W        W42005  37.892  31.590  11.968
69746W        W42006  10.134  33.973  10.641
69747W        W42007  16.212   0.501  14.748
69748W        W42008  22.709  37.101  13.557
69749W        W42009  33.509  20.666  12.408
69750W        W42010  29.909  19.323   2.401
69751W        W42011  34.693   7.653  14.445
69752W        W42012  10.397  16.475   3.258
69753W        W42013  23.257  39.870  14.047
69754W        W42014  26.006  43.276  11.725
69755W        W42015  12.563   1.388   4.282
69756W        W42016  13.356  20.262  10.947
69757W        W42017  19.180   7.450   0.959
69758W        W42018  32.457  27.509  10.618
69759W        W42019  14.198  41.588   3.291
69760W        W42020  11.852  20.026   2.985
69761W        W42021  19.975  44.321  13.498
69762W        W42022  32.930   0.180   2.775
69763W        W42023   2.793   8.355   4.635
69764W        W42024  28.575  21.479  13.812
69765W        W42025  35.533  35.161  12.189
69766W        W42026   5.480  22.631   0.524
69767W        W42027  41.327  44.913  13.947
69768W        W42028  25.055  44.223  11.653
69769W        W42029  29.767   3.691   3.780
69770W        W42030  10.662  35.010   2.656
69771W        W42031  44.749  27.886   2.663
69772W        W42032  14.813  19.008   3.660
69773W        W42033   4.246   3.256   1.662
69774W        W42034  29.495   3.907   3.365
69775W        W42035  44.335  32.695  12.177
69776W        W42036  37.061  31.034  14.770
69777W        W42037  14.168  23.826  11.195
69778W        W42038  28.084  35.953  12.873
69779W        W42039  28.416  29.827   0.368
69780W        W42040  24.043  25.114  11.416
69781W        W42041  38.485  43.851   4.359
69782W        W42042  38.801  17.213  10.702
69783W        W42043  38.319  17.069  13.502
69784W        W42044  39.435   9.758  13.767
69785W        W42045   7.764  24.017   3.828
69786W        W42046  36.033  25.479   1.727
69787W        W42047  41.257  35.543   2.038
69788W        W42048   3.734  19.448   4.458
69789W        W42049  31.379  22.074  12.203
69790W        W42050   8.887  41.559   5.091
69791W        W42051  40.106  40.754  14.991
69792W        W42052  20.057  31.710  13.897
69793W        W42053   4.725  37.813  11.682
69794W        W42054  28.939  32.714   5.194
69795W        W42055  35.163  39.149  11.007
69796W        W42056  38.252  22.446  11.880
69797W        W42057  37.058  32.954   3.424
69798W        W42058   8.452  12.358  14.290
69799W        W42059  27.970  35.311   2.306
69800W        W42060  21.205   0.732   4.076
69801W        W42061   2.228  28.688  10.738
69802W        W42062  31.798  20.656   1.332
69803W        W42063  16.902   2.492  14.025
69804W        W42064  26.672   5.306   1.488
69805W        W42065  21.999   2.039  11.907
69806W        W42066   2.609  29.872   4.975
69807W        W42067  29.498   2.757  14.747
69808W        W42068   5.183  18.459  13.526
69809W        W42069  16.738  21.461   2.461
69810W        W42070  12.847  26.817  11.083
69811W        W42071  27.120   8.744   3.182
69812W        W42072  39.798  30.336  11.144
69813W        W42073  23.740  14.852   0.973
69814W        W42074  39.082  14.777   0.920
69815W        W42075  25.747  35.071   3.425
69816W        W42076  34.345  33.063  10.810
69817W        W42077  33.489  11.883   0.539
69818W        W42078  20.133  31.625  14.988
69819W        W42079   5.890  15.098  14.497
69820W        W42080   1.356  16.401   0.891
69821W        W42081  20.189  37.608   0.936
69822W        W42082   6.197  32.637  10.623
69823W        W42083  29.906  27.997  12.400
69824W        W42084  20.751  28.080  11.612
69825W        W42085  20.188   7.279   5.067
69826W        W42086  36.060  27.968   2.075
69827W        W42087  27.991  27.630  12.995
69828W        W42088  35.319  41.746  13.041
69829W        W42089  19.601  32.519   3.335
69830W        W42090  23.552  12.166   3.394
69831W        W42091   6.913  23.716  13.600
69832W        W42092  36.792  26.772   2.203
69833W        W42093  23.542   0.534   3.997
69834W        W42094  35.979  32.393  12.444
69835W        W42095  20.733  21.291   2.747
69836W        W42096   1.508   6.492  12.011
69837W        W42097   9.439  38.766   0.736
69838W        W42098  43.542  26.154   1.672
69839W        W42099  24.279  19.767   2.783
69840W        W42100  36.864  16.804  11.904
69841W        W42101   6.303   6.874  10.624
69842W        W42102  26.260  29.529  12.588
69843W        W42103  42.859  24.229   4.545
69844W        W42104   8.223   0.048   0.405
69845W        W42105  15.049  10.272  10.532
69846W        W42106   9.299  33.491  10.631
69847W        W42107  33.991  12.751   3.743
69848W        W42108  15.798  38.630  14.143
69849W        W42109   1.887  27.338  13.447
69850W        W42110  27.249  21.111   1.886
69851W        W42111  32.810  25.119  11.147
69852W        W42112   6.739  29.198   2.507
69853W        W42113  38.783  20.534   3.175
69854W        W42114  28.606  29.873  11.578
69855W        W42115   0.146   5.487  11.061
69856W        W42116   1.588  29.372   1.482
69857W        W42117  20.752  34.930   3.595
69858W        W42118   0.232   3.172   3.715
69859W        W42119  18.744   7.839  12.457
69860W        W42120  14.532  13.096  13.006
69861W        W42121  15.809  27.526  13.440
69862W        W42122  21.628  35.008   3.054
69863W        W42123   1.670  24.741  13.432
69864W        W42124  20.011  35.458   2.350
69865W        W42125  32.363  28.579  13.887
69866W        W42126  26.731  23.795  11.529
69867W        W42127  29.388   3.946   4.722
69868W        W42128  23.521  26.430  12.550
69869W        W42129  26.347  30.971   5.030
69870W        W42130   6.804  21.335   3.584
69871W        W42131   1.940  33.972  12.042
69872W        W42132  12.759   2.772  11.526
69873W        W42133  16.049   7.270  11.858
69874W        W42134  15.571  44.555  10.936
69875W        W42135  44.853  19.728  10.628
69876W        W42136   1.920  23.635  12.879
69877W        W42137   3.439  35.875  14.490
69878W        W42138  43.923  12.677   1.244
69879W        W42139  43.348  13.387  11.936
69880W        W42140  36.921  39.793   2.214
69881W        W42141   4.986   7.236   2.379
69882W        W42142  38.682   4.822   0.425
69883W        W42143  13.675  33.056  12.923
69884W        W42144  16.254  35.041   3.574
69885W        W42145  23.478  41.347  11.283
69886W        W42146   8.249  20.606  14.459
69887W        W42147  24.984  15.329  11.129
69888W        W42148  13.125  16.712   2.319
69889W        W42149  14.235  36.793  14.266
69890W        W42150  36.186  39.786   2.633
69891W        W42151  15.797  11.348  12.093
69892W        W42152  11.176  35.542  14.178
69893W        W42153  12.097   2.913   3.181
69894W        W42154   3.207  26.162  12.935
69895W        W42155  33.391   9.170   1.641
69896W        W42156  12.608  36.379  11.756
69897W        W42157   3.698  12.636   2.189
69898W        W42158  23.908   0.237   4.354
69899W        W42159   4.759   9.462   1.138
69900W        W42160  18.116  24.588  11.213
69901W        W42161  19.582   1.239  12.094
69902W        W42162  33.629  44.285  10.664
69903W        W42163  22.551  42.492   1.798
69904W        W42164  15.860  28.252   0.128
69905W        W42165   6.922  40.554  10.978
69906W        W42166  12.635  42.040   3.662
69907W        W42167   3.836   1.720  11.194
69908W        W42168  36.865   4.674  11.062
69909W        W42169  27.542  16.564  13.404
69910W        W42170  36.614   9.734  10.599
69911W        W42171  29.163  13.322  14.107
69912W        W42172  29.200   9.841  12.945
69913W        W42173   0.521  20.555  13.492
69914W        W42174  17.786  29.156   2.338
69915W        W42175  18.149   8.723  10.645
69916W        W42176  21.748  24.433  11.537
69917W        W42177  16.934   3.995   2.738
69918W        W42178  20.282  13.138   2.748
69919W        W42179  22.541   7.843   2.907
69920W        W42180  38.287   6.256  10.455
69921W        W42181  16.416  15.164   9.853
69922W        W42182   5.176  17.191  14.122
69923W        W42183  26.564   7.236   3.678
69924W        W42184  18.056  18.563  13.066
69925W        W42185  16.823  21.689   3.820
69926W        W42186   2.234  35.570   3.163
69927W        W42187  33.380  23.633  13.079
69928W        W42188  36.650  41.367   3.729
69929W        W42189  43.943  35.006  11.378
69930W        W42190   3.798  41.321   2.986
69931W        W42191  42.522  41.149   4.659
69932W        W42192  12.903  15.588  13.829
69933W        W42193   2.220   8.078   1.185
69934W        W42194  17.156   9.017   5.081
69935W        W42195  39.026  41.099   3.116
69936W        W42196  44.521  15.352   9.987
69937W        W42197  11.819  23.510   4.675
69938W        W42198  22.454   5.522  14.886
69939W        W42199  23.619  17.754  10.667
69940W        W42200  23.232  34.357   2.732
69941W        W42201  39.609  42.248   2.775
69942W        W42202  23.228  32.649  14.800
69943W        W42203  38.969  34.862   0.852
69944W        W42204   6.973  29.595   1.007
69945W        W42205   5.679  43.547   1.699
69946W        W42206  25.538   5.879  11.529
69947W        W42207   5.624  13.223  14.887
69948W        W42208   9.088  30.509   3.383
69949W        W42209  38.364  21.513   4.568
69950W        W42210  40.496  30.022  12.383
69951W        W42211  10.173  42.885   0.921
69952W        W42212  11.338  27.890  10.525
69953W        W42213  44.923  22.187   4.223
69954W        W42214  38.439  37.732  13.326
69955W        W42215  31.661   7.894   3.612
69956W        W42216  13.617   1.100   0.615
69957W        W42217   2.279   4.184   1.815
69958W        W42218   2.764   6.606  13.462
69959W        W42219  14.255  16.480  13.914
69960W        W42220   4.376  33.828   2.353
69961W        W42221  25.100   7.788  12.809
69962W        W42222  25.548  31.526  12.774
69963W        W42223  44.792  28.726  10.690
69964W        W42224   9.874  42.278  13.567
69965W        W42225   8.212  11.872   1.344
69966W        W42226  41.503  33.641   0.756
69967W        W42227  19.016  27.898  13.907
69968W        W42228  23.731  34.941  11.168
69969W        W42229   4.326  42.479   3.093
69970W        W42230  22.211  22.276   4.254
69971W        W42231  18.541  19.570   1.369
69972W        W42232  36.156  26.734  11.550
69973W        W42233   4.672  36.320   1.858
69974W        W42234  32.140  39.376  11.081
69975W        W42235  19.813  15.270  12.335
69976W        W42236  38.515  24.715   0.740
69977W        W42237  38.193  41.045  13.855
69978W        W42238  44.966  38.574   1.299
69979W        W42239   0.768   0.944   2.681
69980W        W42240  30.601  19.132  14.650
69981W        W42241   1.695  14.346   0.302
69982W        W42242  34.611  34.090   1.374
69983W        W42243  38.339  33.398   2.881
69984W        W42244  13.732  17.794  14.221
69985W        W42245  21.306  24.611  12.300
69986W        W42246   8.480   4.715   2.862
69987W        W42247  39.634   7.661   1.167
69988W        W42248  31.482  16.293   1.487
69989W        W42249  43.724  19.224  10.967
69990W        W42250   3.644  42.480  12.058
69991W        W42251  29.505  42.999   1.242
69992W        W42252  23.725   1.325  12.520
69993W        W42253  24.928  31.477  11.955
69994W        W42254  10.412  30.490  11.054
69995W        W42255  33.046  18.168   1.778
69996W        W42256  35.563  39.429   2.855
69997W        W42257  24.040  29.165   3.780
69998W        W42258  24.551  22.205   4.062
69999W        W42259   6.639  30.230   0.469
70000W        W42260  25.127  32.049  14.965
70001W        W42261  19.734   4.472   4.200
70002W        W42262  39.777  18.524   3.275
70003W        W42263  12.882  39.934   2.188
70004W        W42264  43.543  35.659  12.902
70005W        W42265  16.674  26.022   0.374
70006W        W42266  39.891  41.943  13.099
70007W        W42267  13.336  14.202   3.104
70008W        W42268  18.506   1.755  10.803
70009W        W42269  32.900   9.140   1.830
70010W        W42270  30.638  26.457  10.534
70011W        W42271  15.784  44.319   0.868
70012W        W42272   2.014  36.914   4.605
70013W        W42273  21.700  19.072  12.075
70014W        W42274   5.983  28.517  11.657
70015W        W42275   1.298  37.288  11.455
70016W        W42276  31.174  40.218  12.754
70017W        W42277  20.356  24.252  12.938
70018W        W42278  12.866  37.020  14.824
70019W        W42279  10.903  43.946   4.031
70020W        W42280  41.388  12.240   4.736
70021W        W42281  42.658  31.050  11.483
70022W        W42282  23.738  27.226   5.500
70023W        W42283  37.960  17.658  12.995
70024W        W42284  41.719  43.921   0.844
70025W        W42285  36.033  30.394  11.707
70026W        W42286   7.813  13.227   4.688
70027W        W42287  28.675  15.097   1.183
70028W        W42288  28.745  22.181  10.767
70029W        W42289  24.448   7.434  12.069
70030W        W42290  25.983   4.738  14.334
70031W        W42291  43.005  24.173  10.413
70032W        W42292  38.507  32.554  13.291
70033W        W42293  21.279  17.189   2.775
70034W        W42294  19.705  44.273  14.870
70035W        W42295  33.128  43.504   0.117
70036W        W42296   0.970  42.558   0.685
70037W        W42297  35.042  19.246  10.512
70038W        W42298  11.768  16.788  14.858
70039W        W42299  11.364  19.018   4.913
70040W        W42300  39.356  22.773   4.375
70041W        W42301  16.662   7.574  11.578
70042W        W42302  13.547  25.982   0.285
70043W        W42303   5.196  22.662  13.446
70044W        W42304  42.173  43.254  13.574
70045W        W42305  17.584  27.730   1.328
70046W        W42306  11.790  41.522   4.002
70047W        W42307   8.811  36.123   4.354
70048W        W42308  12.506  13.556  13.040
70049W        W42309   6.808   2.257   4.385
70050W        W42310   2.948  20.266  14.023
70051W        W42311  41.776  14.186   4.058
70052W        W42312  25.945   0.370   5.005
70053W        W42313  27.008  41.561   0.944
70054W        W42314   4.920  31.722   4.083
70055W        W42315  11.262  21.620  14.522
70056W        W42316  34.284  20.402  10.247
70057W        W42317  10.258  11.769   0.412
70058W        W42318  13.499   6.126  11.566
70059W        W42319  30.746  24.138   0.390
70060W        W42320  14.616  27.033   3.132
70061W        W42321   4.410  26.442  11.596
70062W        W42322  41.321   4.356   1.248
70063W        W42323  15.741   0.327  14.569
70064W        W42324  28.106  17.262  14.314
70065W        W42325  20.893  30.529   0.652
70066W        W42326  36.480   2.752  14.204
70067W        W42327  19.043  24.740   0.324
70068W        W42328   6.719  13.787  14.965
70069W        W42329  12.309   0.953   2.337
70070W        W42330  13.274  42.763   3.890
70071W        W42331   5.431   7.205  13.860
70072W        W42332  37.315  24.371  13.170
70073W        W42333  33.475  44.439  12.468
70074W        W42334   3.194  29.563  14.893
70075W        W42335  44.689  22.018   2.188
70076W        W42336  12.508  40.811   0.360
70077W        W42337   3.335   0.764  14.147
70078W        W42338  22.093  39.589  11.125
70079W        W42339  41.399  11.602   3.391
70080W        W42340  39.887  42.261   3.263
70081W        W42341  14.780  12.031  12.306
70082W        W42342   1.976  37.347  13.789
70083W        W42343  26.602  24.951  12.912
70084W        W42344  17.064  21.230  13.995
70085W        W42345  38.595   5.300   0.024
70086W        W42346  30.514   9.197  14.514
70087W        W42347  17.774  12.264   1.216
70088W        W42348  32.012  12.375   2.858
70089W        W42349  31.958  38.607   4.200
70090W        W42350   6.262   9.261  12.531
70091W        W42351  15.635  30.088   1.291
70092W        W42352   9.622  18.762  10.529
70093W        W42353  17.790  28.569  13.945
70094W        W42354  32.133  35.054   0.979
70095W        W42355  33.203   0.549   3.210
70096W        W42356  43.915  19.264   1.251
70097W        W42357  18.679  15.681   1.371
70098W        W42358  42.836  19.749  13.903
70099W        W42359  35.379   6.589  12.927
70100W        W42360  21.506   9.985  13.982
70101W        W42361  21.839  40.808  11.557
70102W        W42362  19.643  40.022   1.673
70103W        W42363  34.798  25.465   0.470
70104W        W42364  15.577  30.071  11.511
70105W        W42365  36.997   7.370   0.007
70106W        W42366   2.303  19.315  11.525
70107W        W42367  20.641  32.056  14.310
70108W        W42368  30.686  32.539  13.483
70109W        W42369   4.459   5.088   1.043
70110W        W42370  40.958  20.983  11.832
70111W        W42371  38.536  30.599  14.291
70112W        W42372   4.112  27.575   4.008
70113W        W42373   7.802  33.012  14.949
70114W        W42374  31.030  32.960  10.473
70115W        W42375  40.519  16.049   1.697
70116W        W42376  35.846  13.322  14.765
70117W        W42377   9.873  12.189   0.320
70118W        W42378  25.905  16.265   0.229
70119W        W42379  21.493  30.614   3.639
70120W        W42380  41.997  17.222   3.074
70121W        W42381  14.076   5.227   2.206
70122W        W42382  15.290  30.528  13.025
70123W        W42383   7.857  30.760   3.163
70124W        W42384   7.103  23.095  14.419
70125W        W42385  38.373  27.707   1.376
70126W        W42386  15.769  29.706  12.870
70127W        W42387  41.326  29.736   1.825
70128W        W42388  41.941  41.059  11.842
70129W        W42389  28.632  13.643  11.074
70130W        W42390  17.959  12.686   1.855
70131W        W42391  40.366  18.897   0.792
70132W        W42392  41.717  39.662  11.196
70133W        W42393  42.043   0.801   3.188
70134W        W42394  20.435  29.646  11.423
70135W        W42395  36.711  19.111   5.378
70136W        W42396  16.573  39.244  13.505
70137W        W42397  22.711  33.578   3.358
70138W        W42398  24.311   9.418  10.850
70139W        W42399  19.685  28.133  12.906
70140W        W42400   1.534   1.727  14.004
70141W        W42401   4.051  22.016   2.708
70142W        W42402  38.670  12.890  12.034
70143W        W42403  41.525  20.155   4.830
70144W        W42404  19.605   6.357  13.555
70145W        W42405   8.188  14.744   0.902
70146W        W42406  16.079  21.488   0.416
70147W        W42407  24.926  15.941  12.346
70148W        W42408   6.703  36.356  11.108
70149W        W42409  15.648  35.203   0.009
70150W        W42410  27.416  30.501   2.400
70151W        W42411  34.779  30.410   2.312
70152W        W42412  12.338  19.559   1.206
70153W        W42413   7.134  29.705  10.793
70154W        W42414   9.230  24.002  14.268
70155W        W42415  38.400   8.330   0.158
70156W        W42416  30.054  31.231  11.496
70157W        W42417  36.451  11.773  12.892
70158W        W42418  42.702  39.525  12.081
70159W        W42419   3.131  21.162  13.631
70160W        W42420  30.418  21.682   1.467
70161W        W42421  10.426  43.165   1.289
70162W        W42422  10.839   3.920  12.954
70163W        W42423   0.978  40.393  14.560
70164W        W42424  38.899  33.764  10.601
70165W        W42425  31.968  34.383  10.180
70166W        W42426   1.659  42.418   1.238
70167W        W42427  13.511  28.723  12.278
70168W        W42428  37.429   4.238  11.346
70169W        W42429  18.239  25.338   1.396
70170W        W42430   5.136   6.122   4.175
70171W        W42431  38.934  14.738  12.042
70172W        W42432  24.633   5.805  10.724
70173W        W42433  11.690  31.408  13.992
70174W        W42434  19.172  39.593   3.181
70175W        W42435  44.522  11.767  13.972
70176W        W42436   2.324  30.378   4.733
70177W        W42437  33.514   9.481   5.076
70178W        W42438  44.325  18.244   4.472
70179W        W42439   6.232  43.762   1.910
70180W        W42440  25.614  22.520  14.756
70181W        W42441   2.981   9.423  14.310
70182W        W42442  27.533  20.764  12.037
70183W        W42443  19.533   6.724   3.136
70184W        W42444  37.352  18.587  12.439
70185W        W42445  42.553   6.875  13.079
70186W        W42446  40.388  24.166  11.537
70187W        W42447  19.247  11.258   3.707
70188W        W42448  39.325  12.291  14.329
70189W        W42449   2.443   8.879   1.737
70190W        W42450  17.707   0.293  12.041
70191W        W42451   2.545  37.963  13.380
70192W        W42452  25.404   7.974   3.764
70193W        W42453  16.339  14.114  14.422
70194W        W42454  39.387  26.249  13.048
70195W        W42455   1.918  27.726  12.154
70196W        W42456  37.822  10.032   2.265
70197W        W42457  25.651  16.085   3.000
70198W        W42458   9.415  31.929   2.678
70199W        W42459  30.055  34.851  11.521
70200W        W42460  20.090  31.365   1.802
70201W        W42461  41.438   0.893  14.911
70202W        W42462  24.535  43.250  12.585
70203W        W42463  33.852  14.781  13.630
70204W        W42464  38.848  19.764   1.042
70205W        W42465  31.929  14.521  12.857
70206W        W42466  30.709  20.493  14.827
70207W        W42467  14.189   5.238  12.398
70208W        W42468  25.966  18.805   2.784
70209W        W42469  29.408  31.036   0.466
70210W        W42470   6.639   2.693  11.534
70211W        W42471   6.737  17.794  11.460
70212W        W42472  25.115  19.191  12.726
70213W        W42473   5.716  34.378  13.824
70214W        W42474  43.373  35.890  10.723
70215W        W42475   0.917  34.948   0.301
70216W        W42476  27.903  16.128   1.310
70217W        W42477  37.808   2.823   1.197
70218W        W42478  32.627  40.909  14.719
70219W        W42479  24.790  29.344  10.742
70220W        W42480  28.394   8.763   2.866
70221W        W42481  42.371  37.483  12.928
70222W        W42482  22.717  29.461   0.183
70223W        W42483  17.928  24.096   1.676
70224W        W42484  15.575  10.588  12.566
70225W        W42485  27.936  13.637  13.040
70226W        W42486  44.696  19.214  10.720
70227W        W42487  25.920  30.820   4.136
70228W        W42488  14.121  25.779   1.297
70229W        W42489  42.861   2.388   4.086
70230W        W42490  26.161  39.387  13.465
70231W        W42491  31.459  30.592  10.601
70232W        W42492   8.863   0.785   4.020
70233W        W42493  10.634  26.570   4.399
70234W        W42494  14.930  25.773  14.872
70235W        W42495  30.669  20.327   0.316
70236W        W42496  12.247  25.506   2.428
70237W        W42497  13.080   7.195  14.771
70238W        W42498  25.574  12.069  13.075
70239W        W42499  12.827  37.409  12.152
70240W        W42500   8.673  36.999   0.266
70241W        W42501  40.297  37.498  10.078
70242W        W42502  24.608   3.419  14.760
70243W        W42503  25.080  21.438  12.826
70244W        W42504  16.652  27.068   4.924
70245W        W42505  18.562  14.121  11.549
70246W        W42506  42.560  27.210   1.874
70247W        W42507  22.686   3.418  14.684
70248W        W42508  38.391  40.259   3.157
70249W        W42509  38.363  19.082   1.931
70250W        W42510   4.570  19.621   5.036
70251W        W42511  24.898  41.322   9.847
70252W        W42512  25.278   9.264  12.102
70253W        W42513  36.436  25.116   4.267
70254W        W42514  12.747  22.555   1.805
70255W        W42515  13.336  11.249   0.421
70256W        W42516  12.181   3.738   0.978
70257W        W42517  24.360  44.819  12.290
70258W        W42518  26.341  34.424   3.126
70259W        W42519  37.257  16.507  14.150
70260W        W42520   9.846   2.692   1.379
70261W        W42521  23.816  33.076  12.087
70262W        W42522   2.384  24.132   4.634
70263W        W42523  25.009  24.704   1.151
70264W        W42524  42.968  41.901   0.831
70265W        W42525  32.023   0.913  13.412
70266W        W42526  41.739  20.146  13.021
70267W        W42527  32.002  41.768   2.855
70268W        W42528  26.596   4.702  14.780
70269W        W42529  32.412  12.925  14.470
70270W        W42530  42.418  44.875   3.872
70271W        W42531   8.799  33.841   2.238
70272W        W42532   9.391   4.393   1.173
70273W        W42533  30.262  29.322  10.788
70274W        W42534  37.448  28.926  10.894
70275W        W42535  43.275   5.349   4.596
70276W        W42536  31.891  11.788  12.044
70277W        W42537  12.902  34.492  14.559
70278W        W42538  33.383  33.301  10.465
70279W        W42539  44.301  33.109  10.730
70280W        W42540  31.938   1.978   4.822
70281W        W42541  42.100  18.011  10.090
70282W        W42542  22.017   5.974   2.829
70283W        W42543  37.994  15.289  11.295
70284W        W42544   3.444  14.187  14.880
70285W        W42545  40.568   2.275   1.737
70286W        W42546  35.655   6.293  12.607
70287W        W42547  22.262  10.265   0.864
70288W        W42548  44.577  18.105   1.654
70289W        W42549  35.912  34.307   4.463
70290W        W42550  14.757  34.342   3.199
70291W        W42551  34.724   6.194   3.314
70292W        W42552  42.028   1.015  13.406
70293W        W42553   6.508  26.733  11.124
70294W        W42554  44.830  25.161  13.309
70295W        W42555   1.027   3.341   1.402
70296W        W42556  26.965  41.041   4.572
70297W        W42557   2.513  26.240  10.412
70298W        W42558  12.696  24.562   2.964
70299W        W42559  32.048  43.276  14.319
70300W        W42560  31.349  32.938  13.854
70301W        W42561   7.660   8.711   1.760
70302W        W42562  20.134  19.055  12.032
70303W        W42563  35.417  41.806   1.877
70304W        W42564  35.620  37.721  11.116
70305W        W42565   5.276  23.436   3.739
70306W        W42566  23.638  17.252  13.395
70307W        W42567  25.498  20.484   4.508
70308W        W42568  42.012  29.500   5.024
70309W        W42569  30.971  31.847  11.186
70310W        W42570  43.808   9.164  12.734
70311W        W42571   2.569  24.004   3.343
70312W        W42572  43.046  24.858   1.814
70313W        W42573  17.013   5.699   1.827
70314W        W42574  11.338  17.854   1.613
70315W        W42575  38.742   0.977   1.323
70316W        W42576  33.176  30.081  14.330
70317W        W42577  10.871   6.499  10.135
70318W        W42578  13.838  35.749  14.893
70319W        W42579  27.570   7.172   4.516
70320W        W42580   5.013  29.055  10.233
70321W        W42581   0.649   2.426  14.362
70322W        W42582  38.984  20.616   0.472
70323W        W42583  12.332  41.944   4.782
70324W        W42584  32.937  24.189   2.222
70325W        W42585  31.329  34.156   0.063
70326W        W42586  39.079  38.407   2.800
70327W        W42587   7.893  24.465   4.092
70328W        W42588  22.273  18.237   0.910
70329W        W42589   5.448  44.394   0.892
70330W        W42590  28.049   9.168   3.702
70331W        W42591   1.840  32.199   3.238
70332W        W42592  37.108   9.923  13.504
70333W        W42593  13.366  16.957   1.444
70334W        W42594  32.428   0.337   3.715
70335W        W42595  24.906   7.332   4.096
70336W        W42596   8.911  25.709  11.633
70337W        W42597  17.346  11.442  10.353
70338W        W42598  43.551  26.323   0.748
70339W        W42599  41.040  43.022  10.755
70340W        W42600  10.144  35.349   3.309
70341W        W42601  34.199   1.990   1.339
70342W        W42602  44.582  17.535  10.208
70343W        W42603  44.777  16.351   0.480
70344W        W42604  29.388  30.043  11.050
70345W        W42605  44.343  26.538  11.053
70346W        W42606   3.747  26.614  14.313
70347W        W42607   3.772  40.540  10.929
70348W        W42608  38.270  11.204  11.629
70349W        W42609  38.728  22.643   0.331
70350W        W42610   8.022   9.025   9.960
70351W        W42611   2.707  26.090   1.891
70352W        W42612  43.891  36.748   3.202
70353W        W42613   0.529   7.202   4.096
70354W        W42614  30.314  38.839  11.266
70355W        W42615  32.080  34.634  11.498
70356W        W42616  14.639  27.072   1.698
70357W        W42617  38.753  10.376   0.326
70358W        W42618  38.983  39.941  10.704
70359W        W42619   3.914   8.085   0.158
70360W        W42620   3.391  40.252   1.002
70361W        W42621  16.114   8.101   0.458
70362W        W42622  25.297  10.939   0.449
70363W        W42623  25.250  35.100   4.888
70364W        W42624  16.345  10.237  10.361
70365W        W42625  36.672  21.600  12.185
70366W        W42626  41.557  35.774  13.269
70367W        W42627  30.447  11.320  10.769
70368W        W42628  23.083   5.924  14.949
70369W        W42629  29.460  23.542  14.474
70370W        W42630  22.292  24.828   3.479
70371W        W42631  10.501  31.032  12.251
70372W        W42632   2.817  39.327   1.915
70373W        W42633  20.072  35.625   4.909
70374W        W42634   5.415   9.749  14.998
70375W        W42635  21.750  22.958  10.686
70376W        W42636   7.344  27.653  13.480
70377W        W42637   4.203  35.191   0.886
70378W        W42638  35.590  34.819  12.635
70379W        W42639  41.237  26.362  13.901
70380W        W42640   3.820  42.970   4.715
70381W        W42641  41.553  11.831  10.656
70382W        W42642  36.076  11.902  12.503
70383W        W42643  23.728  36.350  13.572
70384W        W42644  37.915   5.353  11.192
70385W        W42645  29.915   8.593  13.799
70386W        W42646  11.053   1.719  12.913
70387W        W42647  11.273  12.643   2.158
70388W        W42648  25.898   7.853  11.594
70389W        W42649  25.709  21.057  11.094
70390W        W42650  35.987  18.239  11.356
70391W        W42651  42.480  25.523  14.669
70392W        W42652  16.292  41.373  12.906
70393W        W42653  28.957  15.702   2.363
70394W        W42654  19.492  37.652  10.304
70395W        W42655   3.673   2.828  14.886
70396W        W42656  15.128  26.571   3.623
70397W        W42657  40.414  32.824   0.719
70398W        W42658  39.952  25.716   1.286
70399W        W42659   0.405  33.931   3.953
70400W        W42660   2.686  13.263   4.010
70401W        W42661  21.925  27.959   5.181
70402W        W42662  25.601  19.041   4.471
70403W        W42663   7.726  23.130  10.511
70404W        W42664  11.163   6.296  11.808
70405W        W42665   0.074  10.340   0.826
70406W        W42666  26.840   5.013  12.619
70407W        W42667  42.390  19.567   2.014
70408W        W42668  28.980  18.573  14.965
70409W        W42669  12.097  25.981   3.711
70410W        W42670  34.944  15.574   2.541
70411W        W42671  21.219  23.494   2.381
70412W        W42672  26.390  44.030  11.337
70413W        W42673  15.192   0.225  10.497
70414W        W42674   1.492  39.441   2.882
70415W        W42675   8.723  15.698   5.012
70416W        W42676  13.164  41.663   1.327
70417W        W42677  12.907  16.024   3.259
70418W        W42678   2.836  31.755   2.899
70419W        W42679  33.488  23.664  14.592
70420W        W42680   5.065  10.725   1.789
70421W        W42681  16.578  25.628  12.378
70422W        W42682   1.835  38.738  10.672
70423W        W42683  12.078  44.040  11.157
70424W        W42684  15.784   3.768  13.339
70425W        W42685   5.789  19.333   2.645
70426W        W42686  44.543   0.319  12.346
70427W        W42687  37.475  36.401   1.992
70428W        W42688  26.681  39.430  10.089
70429W        W42689  20.217  27.894  13.669
70430W        W42690  26.261  16.238  12.161
70431W        W42691  18.143  25.440  13.055
70432W        W42692   3.867  38.802   2.703
70433W        W42693  13.097  15.890   1.801
70434W        W42694  16.605  43.405  12.543
70435W        W42695  20.008  17.673   0.382
70436W        W42696  18.399   5.671   0.181
70437W        W42697   2.213   4.022  12.904
70438W        W42698  11.264  33.634   4.729
70439W        W42699  29.187  14.336  12.821
70440W        W42700  30.304  19.028  12.412
70441W        W42701   1.968  13.553   0.775
70442W        W42702  28.112  35.230  12.412
70443W        W42703  44.702  32.899  12.462
70444W        W42704  31.424  38.390  12.491
70445W        W42705   3.206  33.552  12.908
70446W        W42706  34.600  10.191   0.742
70447W        W42707   4.194  23.191  12.920
70448W        W42708  14.686  21.750  13.022
70449W        W42709  14.206  43.029  13.539
70450W        W42710  11.588  28.611   3.666
70451W        W42711  35.090   5.233  11.256
70452W        W42712   9.913   6.637   2.194
70453W        W42713  25.650   0.292   2.884
70454W        W42714  37.650   2.230  12.474
70455W        W42715  40.313  22.253  14.166
70456W        W42716   9.190  22.166   3.348
70457W        W42717  17.108  39.849  11.191
70458W        W42718   9.789  21.040   2.145
70459W        W42719   5.309  39.881  12.127
70460W        W42720  41.029  30.589   1.736
70461W        W42721   4.301   2.930   4.200
70462W        W42722  40.054  37.318  12.580
70463W        W42723   1.010  31.509   0.793
70464W        W42724  22.993  22.103  12.964
70465W        W42725   3.836   7.956   1.795
70466W        W42726  41.801  35.928   0.946
70467W        W42727  41.317  32.443   3.166
70468W        W42728  20.715  16.290  13.924
70469W        W42729  28.179  35.735  12.415
70470W        W42730  17.236  20.140   1.378
70471W        W42731  41.565  25.445  11.114
70472W        W42732  18.274  20.456   1.676
70473W        W42733  11.088  27.432  14.416
70474W        W42734  19.629  30.859  12.089
70475W        W42735  36.019  11.432  14.910
70476W        W42736   8.297   7.371   4.576
70477W        W42737  14.441  31.034   2.775
70478W        W42738  37.593  13.727  13.463
70479W        W42739  30.664  19.092  13.618
70480W        W42740   8.985  40.559  11.660
70481W        W42741  29.126  16.580  14.843
70482W        W42742  24.272  26.184   5.351
70483W        W42743  32.720   2.037  12.898
70484W        W42744   1.940  25.453   0.937
70485W        W42745   8.722  39.992  14.773
70486W        W42746  26.541  23.109  10.776
70487W        W42747  32.618  31.996   2.649
70488W        W42748  14.670   2.219  11.896
70489W        W42749  35.366  31.547   2.438
70490W        W42750  26.553  12.426   4.094
70491W        W42751  30.410  16.114  14.931
70492W        W42752  22.575  38.607  10.281
70493W        W42753  44.422  13.334   5.136
70494W        W42754  29.874  28.970  12.430
70495W        W42755  13.652   1.748  14.833
70496W        W42756   3.839  24.504   3.405
70497W        W42757  35.902  28.182   0.716
70498W        W42758   0.517  13.875   0.460
70499W        W42759  38.792  12.542   3.651
70500W        W42760  26.008  28.108  11.007
70501W        W42761  37.060  12.867  13.839
70502W        W42762  13.401  10.906  12.609
70503W        W42763  23.599  11.162   0.486
70504W        W42764  37.976   1.222   0.928
70505W        W42765  26.720  29.249  11.489
70506W        W42766  12.741  25.278   2.442
70507W        W42767   9.264  41.968   2.844
70508W        W42768  43.924  25.524  14.247
70509W        W42769  15.063   6.932   1.761
70510W        W42770  15.167  32.189   0.611
70511W        W42771  29.725  40.278  14.500
70512W        W42772  17.383  43.608  13.743
70513W        W42773   6.021  39.092  13.752
70514W        W42774  39.914  15.147  14.158
70515W        W42775  28.954   0.814  13.447
70516W        W42776  19.194  39.459   3.705
70517W        W42777  36.557  15.326   2.653
70518W        W42778  44.880  40.756   2.688
70519W        W42779  11.192  39.556   4.187
70520W        W42780  36.108  19.750   0.901
70521W        W42781  18.361  25.023   4.132
70522W        W42782  11.208  28.907  13.418
70523W        W42783  36.617  28.410  11.923
70524W        W42784  41.106   0.367  13.737
70525W        W42785  28.016  34.978   4.756
70526W        W42786  41.054   3.843  10.909
70527W        W42787  15.466  20.935   0.972
70528W        W42788  22.952  15.237  12.505
70529W        W42789   5.653  11.031  11.077
70530W        W42790   0.662  29.513   3.822
70531W        W42791   2.186  27.700  14.394
70532W        W42792  11.211   6.894   3.790
70533W        W42793  24.181   4.783   4.027
70534W        W42794  28.403   9.176   0.288
70535W        W42795  12.552   8.781  11.935
70536W        W42796  26.490   0.861  14.783
70537W        W42797  33.560   4.397   3.041
70538W        W42798   2.417  22.443  13.787
70539W        W42799  37.673   1.233  14.402
70540W        W42800   3.274  29.410   3.762
70541W        W42801  41.959  36.439  12.925
70542W        W42802  22.772  18.076  11.980
70543W        W42803  33.072   0.745  10.634
70544W        W42804  29.004  41.011  11.516
70545W        W42805  33.170  43.407  10.543
70546W        W42806  12.370  36.822  14.355
70547W        W42807  16.506  25.593  14.070
70548W        W42808  24.156   7.666  14.805
70549W        W42809  16.292  41.887   4.060
70550W        W42810  24.999  17.102   4.854
70551W        W42811  39.361  31.318  14.885
70552W        W42812   0.972  26.906  10.656
70553W        W42813  11.342  26.433   5.254
70554W        W42814  24.821  19.700   2.830
70555W        W42815  35.478  21.419   2.511
70556W        W42816  11.088  19.809   1.854
70557W        W42817   2.945  10.358   3.268
70558W        W42818   0.421  16.133  14.332
70559W        W42819  44.801  41.857  12.940
70560W        W42820  26.431  44.549  11.521
70561W        W42821  34.742   8.316   3.715
70562W        W42822  20.576   8.696   0.012
70563W        W42823  20.227  30.961   4.599
70564W        W42824  35.879  11.250   1.841
70565W        W42825   9.131  38.463  11.036
70566W        W42826  16.458  35.602   0.715
70567W        W42827   6.901  39.991   0.865
70568W        W42828  16.555   7.203  12.889
70569W        W42829  21.483  31.183  11.990
70570W        W42830  11.861  24.678   0.914
70571W        W42831  13.796  21.944  10.811
70572W        W42832  18.070   7.826   0.740
70573W        W42833  17.328   4.453   0.282
70574W        W42834  21.623  36.054   5.259
70575W        W42835  36.075  12.536   1.820
70576W        W42836  37.006  38.445  13.562
70577W        W42837  42.279  39.353   1.771
70578W        W42838   9.397  12.156  13.315
70579W        W42839  27.877   7.395   1.313
70580W        W42840  37.458  28.025  13.095
70581W        W42841  13.055  41.337  14.203
70582W        W42842  26.556  14.717   4.711
70583W        W42843   8.230  18.371  11.116
70584W        W42844  31.597  15.837   1.200
70585W        W42845  44.491  24.105   3.076
70586W        W42846  12.614   9.795   0.242
70587W        W42847  20.211  16.709  11.167
70588W        W42848  18.120  44.171  11.691
70589W        W42849   6.202   5.918  10.848
70590W        W42850  34.489  39.914  12.027
70591W        W42851  29.630  43.487  10.851
70592W        W42852  18.281  16.223   3.119
70593W        W42853   8.345  17.777  12.408
70594W        W42854  37.945  39.357  14.422
70595W        W42855  12.214  24.487  12.371
70596W        W42856   5.377  20.355  10.688
70597W        W42857  32.406  11.539   1.684
70598W        W42858  34.474  22.523   1.036
70599W        W42859  14.631  36.420  11.000
70600W        W42860  37.079  24.942  14.273
70601W        W42861   1.173  42.698   2.882
70602W        W42862  32.483  41.956  11.068
70603W        W42863   8.299  30.443  13.479
70604W        W42864  39.892  31.940  11.886
70605W        W42865  43.104   1.392  10.170
70606W        W42866  38.465  13.267  13.335
70607W        W42867  27.502  33.864  14.181
70608W        W42868  24.244  32.113  13.621
70609W        W42869   8.726  18.696   1.662
70610W        W42870  34.426  24.577   0.900
70611W        W42871  15.392  22.493  13.433
70612W        W42872  40.053  12.734  13.003
70613W        W42873   2.008  31.620  12.603
70614W        W42874  31.530  15.291   0.769
70615W        W42875  25.599  39.377   3.336
70616W        W42876   3.835  23.624  12.014
70617W        W42877   3.349  21.197  12.735
70618W        W42878  21.085  32.530  10.664
70619W        W42879  20.562  10.254   1.788
70620W        W42880  22.044   9.363  13.962
70621W        W42881  11.936  23.537   3.129
70622W        W42882  39.520  44.765   4.196
70623W        W42883  15.203   9.095  14.054
70624W        W42884  15.615  30.083  10.628
70625W        W42885  23.529   7.990  10.824
70626W        W42886  33.996  22.252   2.235
70627W        W42887  19.405   2.485   3.235
70628W        W42888  35.552   9.142  12.009
70629W        W42889  44.761   3.183  12.311
70630W        W42890  27.608  34.415  12.395
70631W        W42891  42.628  25.925  11.950
70632W        W42892  33.465  18.880  12.943
70633W        W42893  15.155   6.415  11.994
70634W        W42894  36.422  17.125  13.959
70635W        W42895   1.229  35.968  11.583
70636W        W42896  28.135  33.375  13.823
70637W        W42897  25.058  42.488  13.960
70638W        W42898  22.281  26.299  11.976
70639W        W42899  11.131  15.736   3.315
70640W        W42900  36.982   5.964   4.456
70641W        W42901  38.568  40.803  10.710
70642W        W42902   3.448  22.066   0.245
70643W        W42903  26.622   6.477   4.165
70644W        W42904  32.620  20.604   3.894
70645W        W42905  19.177  15.915   1.442
70646W        W42906  34.668  10.612   4.756
70647W        W42907   6.566   8.572  11.273
70648W        W42908  15.895   8.207   4.712
70649W        W42909  21.147  39.503  13.759
70650W        W42910  40.569  11.053  13.925
70651W        W42911  43.638  14.475  14.974
70652W        W42912  43.961  17.257  11.976
70653W        W42913  25.124   6.531   3.668
70654W        W42914  28.338  11.694  14.564
70655W        W42915  11.284  19.096  12.035
70656W        W42916  12.337   0.415   2.417
70657W        W42917  39.381  20.598  10.299
70658W        W42918  12.209  22.934   3.753
70659W        W42919  36.867  35.143  14.020
70660W        W42920   3.816  16.182   4.226
70661W        W42921   5.398   2.902  14.728
70662W        W42922  12.186  33.156   2.229
70663W        W42923  15.233  35.467   4.890
70664W        W42924  34.422   3.728  11.663
70665W        W42925  39.352  35.714   2.327
70666W        W42926  20.383  42.146   4.403
70667W        W42927   0.170  39.134   1.839
70668W        W42928  33.643  20.071  11.563
70669W        W42929   3.237   0.626   2.509
70670W        W42930  16.030  16.250  11.876
70671W        W42931  40.127   7.598   4.272
70672W        W42932   8.898  24.648   4.181
70673W        W42933  23.014  36.902  12.528
70674W        W42934  20.262   0.936  14.945
70675W        W42935  40.987  39.532  10.697
70676W        W42936  36.036   2.146   1.510
70677W        W42937   0.612  26.687   4.342
70678W        W42938  23.016   6.378  12.120
70679W        W42939   2.563  37.427  13.871
70680W        W42940  39.362  22.652   4.895
70681W        W42941   8.513   2.360  14.440
70682W        W42942  20.310  27.493  12.493
70683W        W42943  38.372   0.676  14.318
70684W        W42944  14.784   9.605   1.353
70685W        W42945  25.883  26.549  14.405
70686W        W42946  18.344   3.629  12.917
70687W        W42947  12.263  20.488  14.799
70688W        W42948  44.423  37.958  14.398
70689W        W42949  26.556  40.530   5.139
70690W        W42950  28.938  24.273  14.844
70691W        W42951  37.286  34.280   3.647
70692W        W42952   8.820  22.908  13.591
70693W        W42953   8.386  24.536  13.524
70694W        W42954  33.610  28.598  12.102
70695W        W42955  19.518  12.277  11.613
70696W        W42956  19.428  29.717  12.064
70697W        W42957   2.951   4.766  12.839
70698W        W42958  34.552  23.456   4.585
70699W        W42959  26.762   4.244   2.772
70700W        W42960  12.173  30.513  13.128
70701W        W42961   8.710  43.219   0.115
70702W        W42962   1.426  19.515   2.245
70703W        W42963  44.976  33.931   0.853
70704W        W42964  28.493  22.654  10.714
70705W        W42965  14.608  14.313  11.500
70706W        W42966  44.980   3.767   2.799
70707W        W42967  16.757  44.507   4.638
70708W        W42968   4.934   5.285  14.033
70709W        W42969  27.707  27.270   0.283
70710W        W42970  34.088  32.023  12.976
70711W        W42971  10.148  17.273   3.522
70712W        W42972   6.434  33.436   4.547
70713W        W42973   1.856  14.330  13.898
70714W        W42974  42.367  20.448   2.081
70715W        W42975  34.955  20.717   3.359
70716W        W42976  16.571  12.584   1.901
70717W        W42977   1.804  33.479   2.313
70718W        W42978   5.163   9.829   1.927
70719W        W42979  31.756  44.669  12.059
70720W        W42980  25.010  36.103   0.121
70721W        W42981  43.510  40.740   1.487
70722W        W42982  38.909  30.609   4.314
70723W        W42983  23.457  40.824  14.978
70724W        W42984  21.143  10.361  12.635
70725W        W42985  29.623  19.942  12.030
70726W        W42986  41.797   2.131  10.520
70727W        W42987   6.232  29.952   0.682
70728W        W42988  32.671  20.231  13.089
70729W        W42989  10.133  39.856  12.041
70730W        W42990  26.462  36.061   2.668
70731W        W42991  23.423  23.095   0.362
70732W        W42992   9.157  26.212   0.790
70733W        W42993  43.979  39.178  12.918
70734W        W42994   6.955  38.326   1.832
70735W        W42995  41.981  16.827  10.756
70736W        W42996  16.732  44.339   4.160
70737W        W42997  19.590  18.481  14.909
70738W        W42998  12.185  19.775   2.669
70739W        W42999  33.327   4.792  14.466
70740W        W43000  21.275  31.187   3.676
70741W        W43001   0.992  34.929   0.846
70742W        W43002   1.694  12.547   3.194
70743W        W43003  28.249   7.410   3.787
70744W        W43004   3.832  35.635  12.502
70745W        W43005  12.906  16.845  10.177
70746W        W43006  44.018  13.209  14.387
70747W        W43007  17.279   0.867  10.588
70748W        W43008  11.746  21.354  13.812
70749W        W43009  30.105  20.218  14.477
70750W        W43010   3.436  28.258   1.847
70751W        W43011  11.426   2.385   1.831
70752W        W43012  11.707  42.587  11.604
70753W        W43013   5.691  27.639   2.142
70754W        W43014   8.745  33.568   1.253
70755W        W43015  25.488  20.952   0.313
70756W        W43016  29.167   8.411  14.210
70757W        W43017  31.520   6.313  14.943
70758W        W43018  16.336  41.764   4.549
70759W        W43019   3.262  36.011  11.134
70760W        W43020   9.217  37.047   3.720
70761W        W43021  22.944  36.118  12.031
70762W        W43022  31.164  22.156  10.769
70763W        W43023   0.324  18.730   1.244
70764W        W43024  21.027   5.787  14.741
70765W        W43025  29.054   2.456   0.490
70766W        W43026   9.877  33.378  14.120
70767W        W43027  13.395   5.242   2.719
70768W        W43028  23.258  18.774   3.627
70769W        W43029  28.593  23.085   4.206
70770W        W43030  39.118  14.238   0.249
70771W        W43031  20.819  23.030  12.662
70772W        W43032  35.162  43.293   2.701
70773W        W43033   4.030  18.191  11.176
70774W        W43034  11.091  42.252   1.852
70775W        W43035  15.263  39.817  11.497
70776W        W43036  17.491  10.237  14.861
70777W        W43037   7.671  33.392  12.001
70778W        W43038  32.076  23.442  12.532
70779W        W43039  33.591  27.781  12.540
70780W        W43040  44.414   9.538   2.175
70781W        W43041  31.077   0.399  11.198
70782W        W43042  19.198   1.941   3.343
70783W        W43043  22.310  20.076   3.066
70784W        W43044  24.215  33.881   4.223
70785W        W43045  37.128  22.578  11.534
70786W        W43046  30.239  15.935  11.154
70787W        W43047  32.956   6.248  14.038
70788W        W43048  12.137   0.073   0.511
70789W        W43049  21.067  15.485   1.337
70790W        W43050  30.920  21.677   4.256
70791W        W43051  25.110  17.139  13.021
70792W        W43052  16.629  24.416   4.300
70793W        W43053  19.074  43.985   2.903
70794W        W43054  20.505   2.176  13.420
70795W        W43055  41.142  36.916  11.445
70796W        W43056  18.282  38.930   0.955
70797W        W43057  17.700  32.961  12.890
70798W        W43058  17.628  32.291   3.780
70799W        W43059   1.477  25.966   1.490
70800W        W43060  28.392  23.703   0.837
70801W        W43061   9.269  32.884  12.874
70802W        W43062  34.513  39.838  14.001
70803W        W43063  15.052  43.905   3.124
70804W        W43064  10.732  13.473   1.928
70805W        W43065  28.421  32.956   1.652
70806W        W43066  41.002  10.549  10.555
70807W        W43067  12.643  18.150  11.609
70808W        W43068  25.891   7.697  14.788
70809W        W43069  40.274  14.358   3.993
70810W        W43070   3.568  40.303   0.467
70811W        W43071  28.892   2.302  11.168
70812W        W43072  22.151  15.861  10.903
70813W        W43073  42.935  40.020   2.205
70814W        W43074  42.469  13.080   0.339
70815W        W43075  23.895  28.457  13.444
70816W        W43076  19.052  18.318  11.547
70817W        W43077  44.885  15.745   2.895
70818W        W43078  15.076  13.768   3.782
70819W        W43079  29.764   5.043  12.459
70820W        W43080   0.436  16.532   4.617
70821W        W43081  18.361  28.208   1.373
70822W        W43082  22.772  42.452  14.265
70823W        W43083   3.805   6.203  14.901
70824W        W43084  29.805   9.719   2.898
70825W        W43085  10.446  40.937  14.413
70826W        W43086   4.832  13.527   4.244
70827W        W43087   2.835  28.548   4.560
70828W        W43088  17.001  30.732   0.009
70829W        W43089   9.971  32.231   2.721
70830W        W43090   1.590  23.618  13.370
70831W        W43091  30.906  38.929  14.817
70832W        W43092  14.059  16.819   3.772
70833W        W43093  22.029  15.617  14.010
70834W        W43094  29.080  23.481   0.279
70835W        W43095  38.869  13.727  14.046
70836W        W43096  24.026   7.456  11.085
70837W        W43097  32.397  44.808   3.475
70838W        W43098  15.972  11.932  10.413
70839W        W43099  11.240  28.195  12.574
70840W        W43100  22.479  18.208  12.449
70841W        W43101   6.375  24.675   4.451
70842W        W43102  39.686  42.527  11.119
70843W        W43103  38.376  35.081  12.487
70844W        W43104  14.828  15.234   2.272
70845W        W43105   0.420  22.124   2.909
70846W        W43106  33.160   4.197   2.334
70847W        W43107  26.245  10.266  13.536
70848W        W43108  20.016  34.502   4.216
70849W        W43109  26.778  33.003  14.850
70850W        W43110   8.831  27.014  14.392
70851W        W43111  33.977  28.565   0.259
70852W        W43112  31.840  40.960   4.860
70853W        W43113  16.559  38.436   1.042
70854W        W43114  38.142  19.776  13.515
70855W        W43115  27.926  24.116  14.945
70856W        W43116  17.707  33.301   2.578
70857W        W43117  40.581  13.409  11.255
70858W        W43118  28.524  40.770  11.410
70859W        W43119  15.689  33.013  13.530
70860W        W43120  15.761  37.618  12.306
70861W        W43121  16.778   7.815   2.173
70862W        W43122  18.525   6.291  12.017
70863W        W43123  14.605  13.041  11.520
70864W        W43124   2.447  20.817  10.426
70865W        W43125  14.930  20.988   2.230
70866W        W43126  25.975  36.000  11.589
70867W        W43127  39.914  19.642  11.115
70868W        W43128   9.927  18.537  11.392
70869W        W43129   3.545   1.312  14.880
70870W        W43130  41.418   3.325  12.960
70871W        W43131  12.271  31.852  10.708
70872W        W43132  34.013  17.163  13.631
70873W        W43133  23.558  30.562  13.967
70874W        W43134  28.829  14.856  13.929
70875W        W43135  44.453  19.142  11.188
70876W        W43136  33.419  35.037  12.523
70877W        W43137  35.068  40.800  11.952
70878W        W43138   1.838  22.803   2.880
70879W        W43139   9.477   3.878  13.751
70880W        W43140  29.953  12.357  14.771
70881W        W43141  32.040  22.207  14.044
70882W        W43142   9.407  22.013   0.761
70883W        W43143  13.680  15.583  13.423
70884W        W43144  43.456  37.000  14.360
70885W        W43145   5.114   7.523  10.569
70886W        W43146  29.490  37.983  12.889
70887W        W43147  36.381  16.781   3.204
70888W        W43148   7.404  22.525   2.465
70889W        W43149   6.230  34.853   3.318
70890W        W43150  34.943  18.229   3.699
70891W        W43151   5.406  23.595  12.541
70892W        W43152  41.510  19.710   3.341
70893W        W43153  22.935  32.140  11.104
70894W        W43154  16.856   6.372   4.614
70895W        W43155  37.392  24.508   3.687
70896W        W43156   1.194  13.582  12.023
70897W        W43157  36.893   2.626  14.484
70898W        W43158  18.619  24.558  11.263
70899W        W43159  12.686   4.531  14.163
70900W        W43160   6.463   0.201   2.948
70901W        W43161  30.381  11.646   3.696
70902W        W43162   9.424  29.026  14.309
70903W        W43163  36.032  15.636   2.401
70904W        W43164  17.143  36.930  11.168
70905W        W43165  10.807   5.643   0.779
70906W        W43166  28.517  43.102   4.841
70907W        W43167  35.220  10.810  14.919
70908W        W43168  10.453   8.461  11.471
70909W        W43169  11.514  28.345  10.266
70910W        W43170  40.588  14.613  13.040
70911W        W43171  16.676   2.747  10.574
70912W        W43172  19.547  26.280  12.461
70913W        W43173  40.769  10.945   2.406
70914W        W43174  39.039  16.369   4.578
70915W        W43175  36.949  39.319   4.047
70916W        W43176  41.033  35.338   2.857
70917W        W43177  14.559  31.217   1.442
70918W        W43178  17.792  30.134   4.819
70919W        W43179   9.471  31.959   4.144
70920W        W43180  32.564  33.340   1.272
70921W        W43181  15.044  37.123  12.907
70922W        W43182  35.694  44.579  12.421
70923W        W43183  30.948  28.771  10.723
70924W        W43184  43.438   9.598   2.862
70925W        W43185  36.779  39.765   0.402
70926W        W43186  25.069  38.793  10.965
70927W        W43187  32.471   6.364  11.141
70928W        W43188  44.012  24.026  11.145
70929W        W43189  28.018  25.223  10.725
70930W        W43190  40.791   8.134  11.611
70931W        W43191  29.187   9.059  13.515
70932W        W43192  15.349  30.218   5.020
70933W        W43193  26.702   2.727  12.805
70934W        W43194  42.360   5.840   4.521
70935W        W43195  24.470  16.717   3.147
70936W        W43196  17.524  16.849   1.606
70937W        W43197   2.712   1.404  14.467
70938W        W43198  36.589  12.324   1.466
70939W        W43199  21.976  26.696  11.041
70940W        W43200  25.526   6.884   3.697
70941W        W43201  42.795  34.132   2.623
70942W        W43202  14.863  34.924   1.351
70943W        W43203  24.061  30.723  12.781
70944W        W43204  20.049  40.072   1.283
70945W        W43205  43.953  30.285  12.441
70946W        W43206  22.132  14.567   2.624
70947W        W43207  21.023  38.444  13.502
70948W        W43208  11.184   6.284  11.314
70949W        W43209  43.943   9.896  11.924
70950W        W43210   0.652  21.683  14.868
70951W        W43211   3.054   5.888   2.372
70952W        W43212  10.981  10.231  11.078
70953W        W43213  16.519  15.195  14.446
70954W        W43214  42.455  33.406   4.595
70955W        W43215  35.110  12.568   3.614
70956W        W43216  28.113   6.491  14.068
70957W        W43217   4.340  15.125   2.922
70958W        W43218  15.538   9.704   0.887
70959W        W43219  38.616  16.773  10.256
70960W        W43220  39.893  20.913   4.414
70961W        W43221  23.746  11.689  11.906
70962W        W43222  32.233   1.283   2.393
70963W        W43223  30.851  34.402   2.714
70964W        W43224   1.766  40.838   2.878
70965W        W43225  28.027  37.849  12.603
70966W        W43226  16.808   7.842   1.245
70967W        W43227  24.961  37.354   5.023
70968W        W43228   6.297  31.218  14.284
70969W        W43229  17.873   2.306   4.749
70970W        W43230  22.526  41.340  11.637
70971W        W43231   8.216  42.335  10.608
70972W        W43232   1.096  23.198  12.448
70973W        W43233  12.967   0.002  14.927
70974W        W43234  15.047  30.828  14.991
70975W        W43235   2.222   8.917  12.954
70976W        W43236  31.134  13.681  14.990
70977W        W43237  43.336  28.062   2.868
70978W        W43238  31.861  21.173   0.599
70979W        W43239  30.528  34.400  13.039
70980W        W43240   8.386  35.532  10.641
70981W        W43241  31.082  33.376   1.326
70982W        W43242  18.979   7.963  14.380
70983W        W43243  23.283  31.625   2.328
70984W        W43244  26.030   1.255   4.212
70985W        W43245  24.161  40.003   2.339
70986W        W43246   8.655   5.837  11.943
70987W        W43247  37.245  25.866   0.475
70988W        W43248  42.248   9.164  11.455
70989W        W43249  20.502  44.530  13.120
70990W        W43250   0.473  13.136  13.558
70991W        W43251   3.371  26.412   2.213
70992W        W43252  14.323  11.180   3.808
70993W        W43253  26.672  20.104  11.343
70994W        W43254  29.462  33.801  10.604
70995W        W43255   4.359  25.033   4.157
70996W        W43256   4.874  43.558   4.225
70997W        W43257  29.968   6.242   1.893
70998W        W43258   0.709  28.635  12.455
70999W        W43259  29.985  16.100  10.724
71000W        W43260  39.468  19.644   4.185
71001W        W43261  21.477   8.725   4.451
71002W        W43262  19.794  11.818   3.206
71003W        W43263  16.550   9.097   4.439
71004W        W43264  12.694  20.064   0.375
71005W        W43265  24.096  38.455  14.644
71006W        W43266  20.133  42.925   3.340
71007W        W43267  15.122  13.667   0.185
71008W        W43268  15.868  19.009   1.000
71009W        W43269  42.697   0.904   0.509
71010W        W43270  24.593  35.958  12.042
71011W        W43271  21.020  44.505  12.982
71012W        W43272  15.119   8.428   3.738
71013W        W43273   5.299   3.375   4.514
71014W        W43274   1.133  35.471   0.905
71015W        W43275   4.942  41.887   0.792
71016W        W43276  40.315  28.457   9.653
71017W        W43277  23.489  33.399   0.326
71018W        W43278  24.142  28.497   1.799
71019W        W43279  21.783  24.695  11.093
71020W        W43280  23.872   7.933   3.278
71021W        W43281  12.984   7.548  12.984
71022W        W43282   3.239  39.612   1.822
71023W        W43283  26.256  43.731   1.349
71024W        W43284  11.358   4.857   4.099
71025W        W43285  41.705   6.520   4.525
71026W        W43286  39.730  11.899  11.993
71027W        W43287  30.428  10.879  12.031
71028W        W43288  21.620  29.692   1.292
71029W        W43289  15.694   4.707   0.415
71030W        W43290  40.034  43.808  12.915
71031W        W43291  16.178  26.070   2.099
71032W        W43292  21.261  23.794  12.228
71033W        W43293  33.946  25.196   0.474
71034W        W43294  41.561  28.524  14.622
71035W        W43295  14.292  11.956  12.509
71036W        W43296  16.091   5.862  13.343
71037W        W43297  14.897  41.182   4.157
71038W        W43298  15.054  36.077  10.850
71039W        W43299  37.197  27.480  14.000
71040W        W43300  40.916  19.960   4.683
71041W        W43301  11.782  17.719  11.511
71042W        W43302  28.974  17.074  14.971
71043W        W43303  20.091  27.986  10.059
71044W        W43304  40.334  20.201  11.104
71045W        W43305  42.549  28.044  14.750
71046W        W43306  25.514  20.206   1.213
71047W        W43307  28.685  33.210  13.578
71048W        W43308  41.513  40.046  12.545
71049W        W43309  43.838  34.006  14.339
71050W        W43310  17.600  26.394   1.381
71051W        W43311  37.779  12.361   3.742
71052W        W43312  13.094   8.369  11.213
71053W        W43313  29.642   1.833   3.114
71054W        W43314  14.058  43.442  13.831
71055W        W43315   6.205  19.250   4.692
71056W        W43316  40.352  25.007   3.271
71057W        W43317  36.585  37.805   0.816
71058W        W43318  13.840  25.515   2.899
71059W        W43319  43.015   2.288   3.589
71060W        W43320  28.995   7.520  14.513
71061W        W43321  37.027   9.632   0.775
71062W        W43322  39.604  42.015  12.374
71063W        W43323  42.530  44.459  12.784
71064W        W43324  24.746  31.419  14.031
71065W        W43325  32.872  29.632  11.948
71066W        W43326   9.830  31.811  13.708
71067W        W43327  27.462  33.619  11.934
71068W        W43328  34.569  36.390   0.741
71069W        W43329   7.169  25.492   1.972
71070W        W43330  19.775  38.529   2.495
71071W        W43331  42.361  25.982   4.910
71072W        W43332  25.692  15.106   3.295
71073W        W43333  16.779   8.153   4.571
71074W        W43334  25.676  20.776   4.128
71075W        W43335  28.930   1.236  12.675
71076W        W43336   0.506  16.750   0.663
71077W        W43337  21.195   6.246  13.892
71078W        W43338  31.949   3.389   3.608
71079W        W43339  43.495  39.350  14.907
71080W        W43340  26.807  18.768   0.895
71081W        W43341   2.420  11.593  11.021
71082W        W43342   8.740  31.604   0.324
71083W        W43343  36.573  37.211  11.784
71084W        W43344   6.270   0.118   2.453
71085W        W43345  34.204  12.702   0.073
71086W        W43346  20.777   4.605   1.863
71087W        W43347  23.992  36.624  13.119
71088W        W43348   4.373  22.003   4.128
71089W        W43349   1.537  12.056  14.057
71090W        W43350  26.129  16.231   3.200
71091W        W43351   2.492  27.583  10.965
71092W        W43352  10.168   1.449   1.761
71093W        W43353   9.844  13.187   1.833
71094W        W43354  38.175  25.617  11.505
71095W        W43355  20.574  10.135   0.734
71096W        W43356  26.455  36.402  13.894
71097W        W43357  27.852   2.386  11.973
71098W        W43358   9.261  12.529  14.756
71099W        W43359  44.493  43.334  13.825
71100W        W43360  21.689  20.254  13.259
71101W        W43361  41.366  29.694  13.802
71102W        W43362  29.589  14.336  10.850
71103W        W43363  43.378  30.956   0.385
71104W        W43364  17.836  23.690  14.885
71105W        W43365   7.940  37.891   3.689
71106W        W43366  13.648  38.776  12.044
71107W        W43367  13.552   3.440  12.330
71108W        W43368  11.803  17.735   3.594
71109W        W43369   2.725  41.302  14.353
71110W        W43370  38.394  35.075   0.026
71111W        W43371   1.151  22.725   4.040
71112W        W43372  19.164   6.758  14.080
71113W        W43373  26.963   3.382  11.410
71114W        W43374  44.426  16.252   4.582
71115W        W43375  32.678   2.850  14.508
71116W        W43376  10.132   7.920   1.949
71117W        W43377  30.001   4.499   1.266
71118W        W43378  43.825  30.726   2.795
71119W        W43379   1.000  21.515  13.800
71120W        W43380  20.194   0.727  10.687
71121W        W43381  12.104   6.626  11.611
71122W        W43382   4.621   1.427   3.358
71123W        W43383   6.067   0.275   3.311
71124W        W43384  32.330  22.613   3.597
71125W        W43385  44.335  36.918   2.921
71126W        W43386   2.762  40.966  13.043
71127W        W43387  29.953  42.987   5.280
71128W        W43388   1.187  37.505  14.810
71129W        W43389  13.415  44.247  13.405
71130W        W43390  18.082  18.239   3.383
71131W        W43391  40.030   6.717  13.316
71132W        W43392   8.159  33.403   3.053
71133W        W43393  19.878  29.044   3.878
71134W        W43394  12.916  24.015  11.559
71135W        W43395  28.276  36.001  10.035
71136W        W43396   6.054  38.771   2.806
71137W        W43397  21.274  40.312   2.775
71138W        W43398  14.811   8.857  13.825
71139W        W43399  40.052  18.110   2.437
71140W        W43400  21.884  29.866  14.302
71141W        W43401  42.687  29.344   3.710
71142W        W43402  38.003  14.664  12.069
71143W        W43403  12.299  21.554  11.669
71144W        W43404  15.321  39.534  14.596
71145W        W43405  23.182  22.673  14.177
71146W        W43406  29.303  28.644   0.381
71147W        W43407  11.719   5.232   0.954
71148W        W43408   2.712   4.705  12.386
71149W        W43409  30.933   6.645   0.936
71150W        W43410  39.439  22.213  11.306
71151W        W43411  27.349  15.855   3.294
71152W        W43412  36.945  33.702  14.144
71153W        W43413  16.508  43.285  12.046
71154W        W43414  29.145  15.663   2.894
71155W        W43415  33.122  40.727  12.941
71156W        W43416  41.453  22.742   1.312
71157W        W43417   4.158  34.636  13.267
71158W        W43418   5.685  18.906   3.678
71159W        W43419   2.247  29.686  11.528
71160W        W43420  21.030   3.784  14.436
71161W        W43421  32.681  43.258  14.930
71162W        W43422  38.444  38.763  13.608
71163W        W43423  38.319  12.745  12.413
71164W        W43424  15.103  17.554  14.298
71165W        W43425  22.465  39.817  14.507
71166W        W43426   4.871  32.114   0.476
71167W        W43427  13.285  14.118  14.852
71168W        W43428   3.309   2.807   0.403
71169W        W43429  16.810  14.692  10.614
71170W        W43430  17.710   0.001   0.442
71171W        W43431  19.287  20.124   4.524
71172W        W43432  19.826  22.203  12.370
71173W        W43433  35.507  30.512   4.890
71174W        W43434  28.059   3.835   1.672
71175W        W43435  23.156  31.055  14.898
71176W        W43436   5.857  31.996   1.667
71177W        W43437  18.720  10.391   0.818
71178W        W43438  36.654   6.394  11.618
71179W        W43439   1.967  22.960  12.017
71180W        W43440  28.723  20.134   1.797
71181W        W43441  41.330  37.278  12.975
71182W        W43442  18.481  31.535   0.372
71183W        W43443  12.377   5.404  13.990
71184W        W43444  10.273  29.702   3.267
71185W        W43445  38.263  21.106   1.247
71186W        W43446  15.678   7.631   1.941
71187W        W43447  17.863  40.108   4.230
71188W        W43448  34.911  24.890  10.139
71189W        W43449  16.064  40.073  11.123
71190W        W43450  32.465  21.916  13.166
71191W        W43451  28.639   8.310  10.797
71192W        W43452  21.547   3.873  10.602
71193W        W43453  20.185  21.047   4.570
71194W        W43454  42.256  44.779  14.094
71195W        W43455   6.798  37.081   4.851
71196W        W43456  33.317  32.748  11.574
71197W        W43457  41.314  30.735   2.154
71198W        W43458  42.477  20.149   1.360
71199W        W43459  33.977  38.292   2.801
71200W        W43460   2.818   7.488   1.928
71201W        W43461   2.037  40.956  12.157
71202W        W43462  15.585  13.278   0.029
71203W        W43463  16.658  32.296   1.218
71204W        W43464   9.037  37.568   4.459
71205W        W43465  34.459   8.895   3.659
71206W        W43466   0.914  17.294   2.345
71207W        W43467  35.513  16.646  10.795
71208W        W43468  25.426   2.774  14.936
71209W        W43469  28.879  10.750   2.611
71210W        W43470  32.857  34.362  12.113
71211W        W43471   1.711  31.150   1.141
71212W        W43472   9.706   6.158  13.841
71213W        W43473   3.835  43.798   1.846
71214W        W43474   8.342   9.617  12.951
71215W        W43475  41.622   6.466  11.293
71216W        W43476   3.986  42.939  13.433
71217W        W43477  24.969  26.562  11.538
71218W        W43478  27.624  35.113   0.871
71219W        W43479  41.752  44.245   3.629
71220W        W43480   7.145  12.163  10.477
71221W        W43481  20.523   0.050  13.862
71222W        W43482   5.433  38.643  13.024
71223W        W43483  33.150  24.517  14.344
71224W        W43484  17.111  20.602   0.315
71225W        W43485  25.721  18.393   3.116
71226W        W43486  33.014  12.291   1.812
71227W        W43487  36.384  15.664   4.977
71228W        W43488  28.749   4.539  14.490
71229W        W43489  42.813  16.372   2.721
71230W        W43490   7.865  35.602   2.845
71231W        W43491  31.988  27.042  13.501
71232W        W43492  41.769  42.389   0.440
71233W        W43493   9.777  28.606  13.102
71234W        W43494  19.978  36.824  11.636
71235W        W43495  21.598  13.660   1.472
71236W        W43496  20.677  36.061   1.963
71237W        W43497  12.742  44.995  11.393
71238W        W43498   9.222  43.341  14.367
71239W        W43499  29.512  21.711  11.814
71240W        W43500  33.616  18.340  13.006
71241W        W43501  34.376  29.904  11.016
71242W        W43502   3.888  25.166  13.035
71243W        W43503  31.719   2.887   3.450
71244W        W43504  17.219   0.248   4.423
71245W        W43505  35.529  44.664  14.472
71246W        W43506  41.938  11.721   1.194
71247W        W43507   0.321  15.097   3.392
71248W        W43508  41.776  26.886  13.279
71249W        W43509  18.236  18.130  12.806
71250W        W43510   4.473  32.061  13.562
71251W        W43511  38.167   9.061   5.426
71252W        W43512   2.428  24.648   0.889
71253W        W43513  22.962   5.186  12.380
71254W        W43514  42.819  22.874   3.902
71255W        W43515  11.951  41.285  11.107
71256W        W43516  21.059   8.957  13.053
71257W        W43517   5.803  35.337  12.166
71258W        W43518  19.642  22.135   3.782
71259W        W43519  16.818  39.386   0.060
71260W        W43520   0.457   5.805  12.869
71261W        W43521   2.395  23.748  14.009
71262W        W43522  42.346  20.695  10.384
71263W        W43523  19.139  37.353   0.836
71264W        W43524  44.978  36.945   4.564
71265W        W43525   2.120  27.665  11.344
71266W        W43526   3.796  18.257   5.097
71267W        W43527   4.533  10.843  13.516
71268W        W43528  29.448  21.518   2.486
71269W        W43529  33.352   8.700  10.304
71270W        W43530  36.469  21.940   4.838
71271W        W43531   0.510  12.317   4.248
71272W        W43532  44.364   8.750   2.878
71273W        W43533  25.457  11.831  11.524
71274W        W43534   4.855  21.716  13.740
71275W        W43535   1.906  34.930   0.043
71276W        W43536  26.073  34.839   3.777
71277W        W43537  35.780  23.543   3.749
71278W        W43538  33.228  17.810   4.556
71279W        W43539  21.570   6.347  11.100
71280W        W43540   1.810  42.970  14.351
71281W        W43541  12.901  24.689  13.045
71282W        W43542  37.892  36.794  11.081
71283W        W43543   7.259   6.827  13.323
71284W        W43544  13.618   4.890  12.868
71285W        W43545  43.818   0.924  14.818
71286W        W43546  22.471   9.092  11.678
71287W        W43547   5.475  25.473   2.341
71288W        W43548   8.914  33.337  13.840
71289W        W43549  44.792   4.876   1.854
71290W        W43550   3.895  30.363  11.906
71291W        W43551  40.234   3.831   2.202
71292W        W43552  33.592  23.383   4.549
71293W        W43553  15.101  34.055   0.918
71294W        W43554  35.462  30.110   0.689
71295W        W43555  16.853  37.749  11.885
71296W        W43556  41.865   9.629   3.248
71297W        W43557  34.680  16.598  13.437
71298W        W43558  10.130  22.533   4.029
71299W        W43559  31.852   2.842   1.875
71300W        W43560  43.563  22.128   1.305
71301W        W43561  30.060  20.890   1.539
71302W        W43562  40.358   7.872  14.054
71303W        W43563   9.289  38.993   2.106
71304W        W43564  30.106  44.651  12.465
71305W        W43565  24.169  26.292   4.636
71306W        W43566   5.455  23.559   3.249
71307W        W43567  43.316  14.375  14.513
71308W        W43568  43.803   0.325  12.073
71309W        W43569   2.858   0.235   0.106
71310W        W43570  11.825  29.215  11.699
71311W        W43571  15.336  23.478  12.917
71312W        W43572  10.159  25.914   3.903
71313W        W43573   4.770  18.680  10.403
71314W        W43574  35.027  18.399   4.211
71315W        W43575  18.279  21.672  10.656
71316W        W43576  21.594   3.870  12.525
71317W        W43577  19.727  12.818   4.254
71318W        W43578  32.051  38.993   0.433
71319W        W43579  22.557  36.431  14.713
71320W        W43580  19.153   3.319   2.853
71321W        W43581  22.512  39.069  11.949
71322W        W43582  17.739  11.232   3.185
71323W        W43583  15.539  18.178  11.479
71324W        W43584  33.164   3.175   0.016
71325W        W43585  10.911  11.585   1.824
71326W        W43586  24.782   5.966  14.785
71327W        W43587  13.287  13.232  14.869
71328W        W43588  34.087  11.176   3.815
71329W        W43589  11.705  33.581   3.675
71330W        W43590  21.389  29.109   2.813
71331W        W43591  28.445  33.435  10.989
71332W        W43592  30.222  11.664  14.539
71333W        W43593   3.350  21.529  13.930
71334W        W43594  28.616  10.224   1.431
71335W        W43595  38.954   0.952   4.616
71336W        W43596   6.235   0.504  13.003
71337W        W43597  36.417  37.407   3.678
71338W        W43598  20.467   3.592   1.730
71339W        W43599  37.402  13.918  11.107
71340W        W43600  36.221   1.723  12.394
71341W        W43601   4.987  19.939   0.407
71342W        W43602  15.115  22.616  12.449
71343W        W43603  28.215  10.777  13.560
71344W        W43604   3.938  28.157   4.586
71345W        W43605  29.928  25.243  10.653
71346W        W43606  30.930  19.473   1.903
71347W        W43607  25.278  41.385   1.974
71348W        W43608  18.468  15.767   0.805
71349W        W43609   6.648   5.909   2.329
71350W        W43610  29.692  23.006  14.441
71351W        W43611   0.274   4.892  13.543
71352W        W43612  13.199  15.095   1.394
71353W        W43613  23.032  36.891  14.901
71354W        W43614  15.256  20.969  11.146
71355W        W43615   8.353  23.637  12.653
71356W        W43616  30.665  15.644  14.923
71357W        W43617   7.642  33.426  11.159
71358W        W43618  34.798  15.799   0.731
71359W        W43619  38.040  24.565  12.974
71360W        W43620  25.795  35.672  11.923
71361W        W43621  16.774  12.335   2.332
71362W        W43622   6.097  30.547  11.540
71363W        W43623  25.673  39.284   0.837
71364W        W43624  16.278   4.872   3.744
71365W        W43625  36.586  42.803   0.832
71366W        W43626  28.417  38.399   2.843
71367W        W43627  37.642   5.013   0.610
71368W        W43628  14.314  22.556   4.002
71369W        W43629  16.986  41.742   0.919
71370W        W43630  39.870   1.831   1.262
71371W        W43631   5.924  33.523   0.773
71372W        W43632   7.351   7.224   2.869
71373W        W43633   9.636  19.238  13.551
71374W        W43634   3.953  28.578   4.163
71375W        W43635  10.429  37.072  11.507
71376W        W43636  20.693  23.237  14.789
71377W        W43637  36.878  39.790  11.106
71378W        W43638   2.907   4.918  14.188
71379W        W43639  30.379  38.980   0.905
71380W        W43640  42.314  14.151   4.023
71381W        W43641  32.920  37.069   0.721
71382W        W43642  29.529  28.530  11.245
71383W        W43643  14.399  30.978  10.091
71384W        W43644  37.912  24.459   3.658
71385W        W43645   2.176  41.041  10.775
71386W        W43646  41.980  25.973   4.539
71387W        W43647  16.613   3.999   3.184
71388W        W43648  20.805  28.758   3.940
71389W        W43649  15.069  32.951  10.710
71390W        W43650  39.370   8.101   4.092
71391W        W43651  16.124  18.670  12.882
71392W        W43652  25.653  40.579  10.371
71393W        W43653   3.275   2.947   3.352
71394W        W43654   8.661  42.593  11.508
71395W        W43655  33.520   6.613  11.036
71396W        W43656   0.324  27.748   4.636
71397W        W43657  30.685  32.337   3.769
71398W        W43658  21.045  23.009   2.378
71399W        W43659  41.968  12.872  13.968
71400W        W43660  28.063  37.910  14.820
71401W        W43661  36.576   2.866   0.352
71402W        W43662  29.278  24.584  12.929
71403W        W43663  11.246  16.754  13.090
71404W        W43664  34.036  14.575  13.185
71405W        W43665  27.945  15.086  12.006
71406W        W43666  12.324  16.650   3.107
71407W        W43667  12.603  39.437  12.879
71408W        W43668  40.544  14.792   4.191
71409W        W43669  10.156  11.407   2.312
71410W        W43670  32.585  26.975  13.331
71411W        W43671  15.165  12.945   2.185
71412W        W43672  20.523   0.211   0.908
71413W        W43673  10.754  44.820   0.343
71414W        W43674  14.796   4.246   0.218
71415W        W43675  26.686  13.411   0.890
71416W        W43676   0.256  29.646   4.812
71417W        W43677  23.005  34.052  10.433
71418W        W43678  15.410  21.149  10.696
71419W        W43679   3.783  34.502   3.128
71420W        W43680  40.221  43.518   2.004
71421W        W43681  35.306   6.088  12.966
71422W        W43682   1.383  35.652   4.096
71423W        W43683  24.948  24.753  14.817
71424W        W43684  16.168  29.053  13.394
71425W        W43685   3.391   0.131  12.144
71426W        W43686  25.990  24.690  14.715
71427W        W43687  43.470  36.122  12.545
71428W        W43688  42.971  10.875   3.027
71429W        W43689  41.357  16.373   3.544
71430W        W43690   3.553   7.210   4.030
71431W        W43691  38.855  24.595   4.773
71432W        W43692  12.492  26.539   1.232
71433W        W43693   6.659  44.429  11.573
71434W        W43694  19.011  35.419  12.850
71435W        W43695  39.758   3.839   4.528
71436W        W43696  30.727  19.984  13.938
71437W        W43697  32.127  10.659   1.069
71438W        W43698  29.924   2.000  11.888
71439W        W43699   0.678  28.773  11.004
71440W        W43700  11.219  30.534   3.932
71441W        W43701   7.083  30.120   2.897
71442W        W43702  34.826   2.470  14.869
71443W        W43703   8.639   1.200   4.259
71444W        W43704  10.389  20.344  10.712
71445W        W43705  34.119   3.152   0.382
71446W        W43706  44.991  32.042  11.969
71447W        W43707  18.780  20.085   4.421
71448W        W43708  11.213   7.124  11.781
71449W        W43709  13.909  35.308   2.244
71450W        W43710  38.849  42.933   3.362
71451W        W43711  31.042  23.619  11.497
71452W        W43712  17.995   2.052   1.851
71453W        W43713  28.944  37.099  11.790
71454W        W43714  33.523  10.707  12.402
71455W        W43715  44.676  37.492  11.958
71456W        W43716  43.644  27.152  12.683
71457W        W43717  28.175  18.149   3.086
71458W        W43718  42.939  38.370  11.992
71459W        W43719   8.846  11.510  13.958
71460W        W43720  30.077  20.574   2.739
71461W        W43721   7.147  20.791  13.413
71462W        W43722  33.058  17.164   3.273
71463W        W43723  30.591  28.184   4.110
71464W        W43724  22.515  20.615   2.942
71465W        W43725   0.120  31.605  11.526
71466W        W43726  43.059  11.768  11.331
71467W        W43727  38.080  39.029   0.012
71468W        W43728  13.776  30.123   3.357
71469W        W43729  14.995   1.653  12.487
71470W        W43730  38.101  19.183  13.592
71471W        W43731  39.042  39.802   3.193
71472W        W43732  31.712   3.026  14.679
71473W        W43733   3.074  29.446  11.092
71474W        W43734  26.506  13.769  11.611
71475W        W43735  26.291  44.819   3.705
71476W        W43736  13.865  13.681   2.018
71477W        W43737  42.443   7.288  10.648
71478W        W43738  38.074   4.266  11.921
71479W        W43739  25.916   2.374   3.399
71480W        W43740  20.561  26.468  12.056
71481W        W43741  20.992  36.927   2.731
71482W        W43742  30.649  28.839  11.986
71483W        W43743  23.952  31.560  14.732
71484W        W43744  33.138  18.556  14.745
71485W        W43745  16.110  29.730   0.334
71486W        W43746  43.278  41.269  13.378
71487W        W43747  36.895  23.262  14.890
71488W        W43748   2.607  14.312  13.587
71489W        W43749  37.008  29.669   1.267
71490W        W43750  35.938  33.553  14.510
71491W        W43751  29.098   7.214  14.912
71492W        W43752  28.665  27.432   4.106
71493W        W43753   4.420  35.130   3.282
71494W        W43754  41.518   1.809  14.813
71495W        W43755  19.486   8.336   2.356
71496W        W43756  42.510   1.234  12.435
71497W        W43757   0.141  29.522   3.878
71498W        W43758  12.277   2.486   4.569
71499W        W43759  39.142  11.191  13.971
71500W        W43760  38.285  27.672  12.081
71501W        W43761  40.289  14.203   2.141
71502W        W43762  35.398   3.446  13.791
71503W        W43763  33.064  10.841  14.776
71504W        W43764  25.579   9.247  11.613
71505W        W43765   8.259  37.302   0.362
71506W        W43766  27.122  11.327  13.622
71507W        W43767   1.006  40.858   2.151
71508W        W43768  11.790   4.471  14.391
71509W        W43769  28.205  43.554   0.402
71510W        W43770  31.196   3.898  14.347
71511W        W43771  21.692  30.913  12.671
71512W        W43772  24.998  21.205  10.285
71513W        W43773  41.510  21.628   3.657
71514W        W43774  15.965  18.271   0.106
71515W        W43775  27.140  43.878  13.894
71516W        W43776   0.573  25.216   0.796
71517W        W43777   6.954  18.101   2.812
71518W        W43778   4.775  26.945  13.823
71519W        W43779  33.882  11.737   4.618
71520W        W43780   4.523  29.074   3.018
71521W        W43781   6.692  34.962   3.087
71522W        W43782   2.476  29.591   2.267
71523W        W43783  24.990   4.446  14.437
71524W        W43784  36.216   5.691   3.089
71525W        W43785  37.012   8.394  10.689
71526W        W43786  30.419  16.790  11.095
71527W        W43787  23.654  26.220   4.650
71528W        W43788  23.451  31.852  14.171
71529W        W43789   4.423  17.156  11.914
71530W        W43790  18.615   9.283   0.468
71531W        W43791   6.315   4.681   3.397
71532W        W43792  10.253  13.086  13.434
71533W        W43793  12.841  31.465  12.364
71534W        W43794   0.372   1.437   1.216
71535W        W43795  30.068  29.439   3.778
71536W        W43796  34.233   5.420  12.388
71537W        W43797   4.280  15.160  12.591
71538W        W43798  32.440  32.810  11.558
71539W        W43799  11.391  12.815  11.119
71540W        W43800  21.663  25.602   3.478
71541W        W43801   1.410  17.289   1.403
71542W        W43802  31.656  38.945  14.652
71543W        W43803   0.817  41.473  14.357
71544W        W43804  24.382   7.224   2.709
71545W        W43805  27.444  13.279   4.072
71546W        W43806  25.116  23.570  13.555
71547W        W43807  13.278  10.607   5.003
71548W        W43808  17.362  26.535  11.152
71549W        W43809  37.483  35.372   4.583
71550W        W43810  19.183  10.228  14.784
71551W        W43811   1.493   4.258   1.977
71552W        W43812   8.606  18.110   2.159
71553W        W43813   4.576  44.532  13.417
71554W        W43814  19.059  38.945   1.987
71555W        W43815  10.272   9.664  13.155
71556W        W43816  41.481  18.313  11.344
71557W        W43817  17.894  16.292   2.326
71558W        W43818  33.879  30.268   3.338
71559W        W43819   4.797  33.992   1.147
71560W        W43820  26.905   3.423   9.933
71561W        W43821   2.235  19.158  12.747
71562W        W43822  15.073   8.955  12.840
71563W        W43823   7.121   9.181  13.369
71564W        W43824  37.087   6.425  13.351
71565W        W43825  23.368  21.124  12.454
71566W        W43826  26.163  13.222   3.639
71567W        W43827   8.950  31.801   2.443
71568W        W43828  44.949  27.614  13.443
71569W        W43829  35.422   7.935   0.290
71570W        W43830  17.362  16.666   0.452
71571W        W43831  14.346   1.292   4.645
71572W        W43832  19.575  23.140  10.589
71573W        W43833  20.323   3.331   2.456
71574W        W43834  39.619  43.900  11.193
71575W        W43835  28.947   8.878   0.815
71576W        W43836  11.452   4.814   2.786
71577W        W43837   6.591  11.417  13.827
71578W        W43838  26.959   9.969  12.202
71579W        W43839  39.054   8.706   2.716
71580W        W43840  18.002   6.754  10.562
71581W        W43841  24.943   8.040  12.380
71582W        W43842  30.888  34.960  12.489
71583W        W43843  34.891  14.947   4.283
71584W        W43844  12.594  42.201   0.276
71585W        W43845  33.128  23.128  10.595
71586W        W43846  40.322  18.023   1.590
71587W        W43847  17.309  29.374  13.099
71588W        W43848  26.713  13.378  13.532
71589W        W43849  30.212  14.130   2.236
71590W        W43850  15.537  17.178  14.445
71591W        W43851  14.030  24.354  14.847
71592W        W43852  10.338   1.391  10.350
71593W        W43853  13.124  20.660  10.626
71594W        W43854   3.703  23.107  11.108
71595W        W43855  35.571  14.699   4.333
71596W        W43856  17.622  44.244   4.164
71597W        W43857  42.700  28.790   2.133
71598W        W43858  14.870  31.622   1.330
71599W        W43859  21.075  11.866   1.863
71600W        W43860   5.444  20.544   2.145
71601W        W43861   0.354  15.272   0.965
71602W        W43862  15.278   8.218  13.473
71603W        W43863  22.571  37.404   4.628
71604W        W43864  16.906  30.011   3.756
71605W        W43865  23.057  23.047   3.234
71606W        W43866  29.092  34.921  11.134
71607W        W43867  43.817  38.335   1.846
71608W        W43868  20.969  20.100  11.531
71609W        W43869  31.506  35.031   1.715
71610W        W43870  29.921  38.121  12.612
71611W        W43871  16.690  38.467  14.996
71612W        W43872  32.610   3.226   4.256
71613W        W43873  20.282  44.834   1.802
71614W        W43874  38.486  12.245   4.385
71615W        W43875  32.328  26.249   1.266
71616W        W43876   7.875  15.338  11.321
71617W        W43877   7.392  23.089  13.955
71618W        W43878   7.361  42.842   1.691
71619W        W43879  25.897   2.502   0.797
71620W        W43880  23.633  21.798   2.515
71621W        W43881   0.713  33.184  13.603
71622W        W43882  14.706  10.361   0.822
71623W        W43883  40.545  31.497   2.660
71624W        W43884  11.078  27.605   2.313
71625W        W43885   7.335  16.551  12.848
71626W        W43886  43.182   9.756  10.717
71627W        W43887   3.996   4.354   3.381
71628W        W43888  24.344  39.386   9.992
71629W        W43889   7.817  28.161   0.223
71630W        W43890  11.391   7.335   2.493
71631W        W43891  38.370  23.729  13.875
71632W        W43892   2.406  39.473   1.260
71633W        W43893  32.560  14.925   0.743
71634W        W43894  31.316  30.720  12.562
71635W        W43895  11.722  40.967   4.108
71636W        W43896  27.583  18.453   2.145
71637W        W43897  25.660  28.380   1.428
71638W        W43898  42.736  14.008   4.311
71639W        W43899  40.968  26.992  14.957
71640W        W43900  16.982  15.987   3.360
71641W        W43901  30.167  19.301  12.838
71642W        W43902  14.566   5.677  12.064
71643W        W43903  32.649  32.033   3.817
71644W        W43904  22.791  33.846   0.954
71645W        W43905  17.654  38.050   2.386
71646W        W43906  24.601  20.661  12.843
71647W        W43907  19.070  24.256  14.490
71648W        W43908  41.083  21.303  12.196
71649W        W43909  13.291  12.156  10.962
71650W        W43910  27.598  25.191  13.826
71651W        W43911   3.334   7.621   1.851
71652W        W43912  27.838  26.126  12.986
71653W        W43913  10.363  40.837   4.583
71654W        W43914  26.870  29.185   2.338
71655W        W43915  17.324   3.792   3.007
71656W        W43916  17.892  10.213   2.288
71657W        W43917  44.929  12.654   3.720
71658W        W43918   0.260  35.348   3.588
71659W        W43919  27.035  14.708   1.453
71660W        W43920   1.753  30.219   0.828
71661W        W43921  28.419  35.328   3.060
71662W        W43922  18.871   4.769   3.738
71663W        W43923  14.680   5.503  11.595
71664W        W43924  15.068   1.366  10.694
71665W        W43925  44.992   9.815  12.516
71666W        W43926  15.191  35.292   2.283
71667W        W43927  29.651  41.976  14.350
71668W        W43928   7.273  42.467   2.066
71669W        W43929  29.623  36.455   0.660
71670W        W43930  36.311  16.566  11.185
71671W        W43931  28.382  21.706   4.154
71672W        W43932  15.824  34.680   2.647
71673W        W43933  39.793  31.480   3.278
71674W        W43934   3.118  42.482  12.000
71675W        W43935  16.772  14.879  11.929
71676W        W43936  23.766   5.782   2.723
71677W        W43937  16.714  18.356  13.998
71678W        W43938   1.196  42.571  12.065
71679W        W43939  23.312  20.629  11.155
71680W        W43940   2.866  32.529  11.461
71681W        W43941   2.788  30.389  11.146
71682W        W43942  27.626  33.059  14.531
71683W        W43943   3.787  43.786  13.102
71684W        W43944  22.796  43.263   4.983
71685W        W43945  30.893   5.884   0.888
71686W        W43946  14.902  19.108  11.085
71687W        W43947  32.303  29.010   3.215
71688W        W43948   1.964  26.434  11.535
71689W        W43949  30.613  27.488   3.348
71690W        W43950   9.259  40.308   0.850
71691W        W43951  37.490  22.993  10.651
71692W        W43952  15.931  37.796   1.896
71693W        W43953  36.910  33.253   4.377
71694W        W43954  18.598  22.770  13.315
71695W        W43955  40.648   9.449  10.109
71696W        W43956   0.424  26.974   1.948
71697W        W43957  26.284  15.311  14.892
71698W        W43958  14.779  10.560  11.083
71699W        W43959  28.451   2.561   2.922
71700W        W43960   1.716  38.069   3.765
71701W        W43961  23.178  20.588   4.510
71702W        W43962  38.305  10.691  12.499
71703W        W43963  27.921  32.788  13.121
71704W        W43964  20.966  17.769  13.392
71705W        W43965  42.365  11.672   3.451
71706W        W43966   6.865  16.625  14.880
71707W        W43967   5.740  25.728   2.718
71708W        W43968  41.440  40.454  13.294
71709W        W43969  33.458  23.107   4.125
71710W        W43970  20.599  22.913  14.393
71711W        W43971  37.020  17.195  13.163
71712W        W43972  11.361  39.328   3.756
71713W        W43973  22.560  12.204  10.604
71714W        W43974   1.714  33.647  10.742
71715W        W43975  23.728   3.699   3.329
71716W        W43976   1.546   9.806  10.712
71717W        W43977   6.399  20.409   4.169
71718W        W43978  15.617  31.147  10.683
71719W        W43979  37.784  43.440  12.487
71720W        W43980  37.789  32.903   3.738
71721W        W43981  27.998  35.433  14.852
71722W        W43982  36.168   5.296  10.619
71723W        W43983  34.544  13.025   0.310
71724W        W43984  23.907   9.835  12.032
71725W        W43985  26.691  31.853   4.638
71726W        W43986  15.378  31.631  12.920
71727W        W43987  35.766  14.790   3.875
71728W        W43988  40.065  42.903  10.448
71729W        W43989  10.271  27.595  11.045
71730W        W43990  34.335  27.915  11.377
71731W        W43991  30.905  14.587  11.136
71732W        W43992  42.842  38.901   4.349
71733W        W43993  35.947  13.029   1.891
71734W        W43994  22.405  39.257   4.666
71735W        W43995  14.729   6.838   2.641
71736W        W43996  33.723  21.786   4.529
71737W        W43997  40.260   1.444   0.303
71738W        W43998  36.345  31.091  13.500
71739W        W43999  25.158  38.361   2.961
71740W        W44000  17.746  42.205  13.894
71741W        W44001  38.360  18.016   3.923
71742W        W44002   4.403  27.442  10.628
71743W        W44003   4.387  41.328  11.128
71744W        W44004  14.977  14.858   3.049
71745W        W44005  34.104   3.834   1.019
71746W        W44006   4.074  18.750   4.966
71747W        W44007   8.333  23.171   2.193
71748W        W44008  26.683   1.397   4.598
71749W        W44009  42.800  31.177  14.729
71750W        W44010  37.964  21.237   0.841
71751W        W44011   1.324  22.763  13.331
71752W        W44012  29.527  16.814  13.409
71753W        W44013  35.817   9.202   1.632
71754W        W44014  16.212  16.288   4.489
71755W        W44015  26.744   5.310   0.953
71756W        W44016  30.319  40.000  13.563
71757W        W44017   3.281  30.882   1.369
71758W        W44018   9.363   0.557   4.536
71759W        W44019  21.173  40.950   4.128
71760W        W44020  15.370  30.062   2.098
71761W        W44021   2.639   4.526  10.284
71762W        W44022  23.573  20.794  10.121
71763W        W44023  34.387  11.831   3.877
71764W        W44024   7.927  36.430   3.419
71765W        W44025  34.494   3.952   0.227
71766W        W44026  17.532   1.403  12.998
71767W        W44027  33.442  19.794  11.188
71768W        W44028  30.856  42.452  13.803
71769W        W44029  21.267  39.609  11.108
71770W        W44030  11.454  23.791   5.001
71771W        W44031   2.976  21.228   4.326
71772W        W44032  35.267  37.992  14.500
71773W        W44033  22.798  11.800   3.133
71774W        W44034   6.889  42.881   1.395
71775W        W44035  12.871  30.448   0.252
71776W        W44036  31.994  31.048  14.759
71777W        W44037  16.078  31.198   0.626
71778W        W44038  21.761  43.853  12.549
71779W        W44039  11.243  27.891   0.969
71780W        W44040  29.935  10.621  11.336
71781W        W44041  20.659  34.108   0.477
71782W        W44042  11.587  41.329   3.149
71783W        W44043  11.229   2.809   4.899
71784W        W44044  38.925  33.625   4.057
71785W        W44045   8.871  23.591  13.368
71786W        W44046  17.170  14.581   4.362
71787W        W44047   0.887  30.151  13.942
71788W        W44048  40.376   7.853  11.567
71789W        W44049  38.824  20.698  14.945
71790W        W44050  19.820  36.630  11.171
71791W        W44051  10.713   9.330   4.627
71792W        W44052  37.551  35.962   0.573
71793W        W44053   6.433  14.416  11.101
71794W        W44054  33.919  35.135  12.402
71795W        W44055  16.642  43.892  12.380
71796W        W44056  34.541  14.402   1.246
71797W        W44057   4.168  16.119  11.534
71798W        W44058  14.567  23.358  10.043
71799W        W44059  24.155  38.401   4.847
71800W        W44060   2.731  37.273   0.787
71801W        W44061   8.673  20.755  12.522
71802W        W44062   6.912  19.691  13.840
71803W        W44063  23.888  15.343   2.714
71804W        W44064  40.487   3.849   0.262
71805W        W44065  28.180  25.571   3.272
71806W        W44066   7.836  35.781   4.589
71807W        W44067   5.179  30.179  13.961
71808W        W44068  10.746  15.392   4.653
71809W        W44069   0.050  12.694   1.314
71810W        W44070  41.987  28.416   0.943
71811W        W44071  30.109  18.218   3.053
71812W        W44072  36.204   4.793   2.380
71813W        W44073  41.487  27.279  13.540
71814W        W44074  42.460  31.451  14.441
71815W        W44075  39.877   0.930   0.727
71816W        W44076  27.082  30.183  11.622
71817W        W44077  15.495  21.405  10.244
71818W        W44078  41.949   3.701  12.888
71819W        W44079  25.739   3.330  13.269
71820W        W44080  30.530  19.505  10.682
71821W        W44081  12.806  24.869  10.578
71822W        W44082  25.226  12.131   1.765
71823W        W44083  35.399  27.047  13.072
71824W        W44084  24.912  22.450  14.480
71825W        W44085  23.242   0.196   3.701
71826W        W44086  27.587  39.233   4.799
71827W        W44087  22.238  40.840   2.397
71828W        W44088  15.782  16.822   2.763
71829W        W44089  42.395  14.698   4.053
71830W        W44090  30.287   4.310   0.490
71831W        W44091   0.778  27.300  11.936
71832W        W44092  33.414  30.409   0.785
71833W        W44093  25.733  33.387  12.828
71834W        W44094  25.566  12.332  13.538
71835W        W44095  18.022   2.201  14.290
71836W        W44096  34.629  16.150  13.173
71837W        W44097   2.683   2.935  10.420
71838W        W44098   0.983   8.668  14.052
71839W        W44099  20.248   3.196   0.316
71840W        W44100  24.206  38.398  11.926
71841W        W44101  24.617   6.647   2.360
71842W        W44102  22.979  28.418  12.435
71843W        W44103  10.555  12.734  14.818
71844W        W44104  16.640  27.071   4.389
71845W        W44105  36.849   5.707   0.332
71846W        W44106   7.907   2.541   3.078
71847W        W44107  38.212   1.686  10.765
71848W        W44108   5.226  23.487   1.444
71849W        W44109  20.158  42.057   2.315
71850W        W44110   8.775  25.001   2.351
71851W        W44111  23.265  10.741  14.361
71852W        W44112  32.092  13.265  10.411
71853W        W44113   0.689  31.388  14.969
71854W        W44114  12.749   9.506  12.408
71855W        W44115  16.035   6.670  13.841
71856W        W44116  33.713  26.179   3.958
71857W        W44117  24.465  34.377   2.116
71858W        W44118  24.058   6.256  12.104
71859W        W44119  41.387  31.130   0.037
71860W        W44120  15.573  23.590   4.153
71861W        W44121  17.501  13.300  13.948
71862W        W44122  23.762  26.769  11.099
71863W        W44123  28.906  36.170  11.235
71864W        W44124   9.836   1.685   2.238
71865W        W44125  12.780   7.876   0.306
71866W        W44126  41.706   7.434   2.897
71867W        W44127  33.946  26.515   3.578
71868W        W44128   5.275  11.764  12.848
71869W        W44129  28.906  42.809  12.944
71870W        W44130  18.768  41.914  13.943
71871W        W44131  16.282  37.757   2.280
71872W        W44132   7.441  28.757  13.413
71873W        W44133  11.334   9.305  11.987
71874W        W44134  12.240  18.555   3.239
71875W        W44135  19.709  24.482  13.027
71876W        W44136  19.123  30.173   4.068
71877W        W44137  41.942   9.932  14.957
71878W        W44138   2.396  19.811   3.280
71879W        W44139  40.199  17.469  13.930
71880W        W44140  21.499  31.658  12.989
71881W        W44141   7.245  14.275   0.680
71882W        W44142  19.653  25.092   0.544
71883W        W44143  13.632   4.172   1.951
71884W        W44144  39.818   5.321   3.729
71885W        W44145   9.203  16.730   2.724
71886W        W44146  31.918   5.843  11.635
71887W        W44147  40.458   5.732   0.945
71888W        W44148  22.351   5.713  14.188
71889W        W44149   4.734  26.494   4.628
71890W        W44150  15.888  40.231   4.255
71891W        W44151  18.458  27.716   2.908
71892W        W44152  14.781  40.073   0.318
71893W        W44153  27.990  38.603   2.651
71894W        W44154  32.155  37.903  11.209
71895W        W44155   7.765  18.530  13.616
71896W        W44156  24.251  28.993   3.284
71897W        W44157   5.935  43.828   2.367
71898W        W44158  27.093  22.338   0.739
71899W        W44159  31.136  14.712  11.651
71900W        W44160  14.759   3.307   2.400
71901W        W44161  42.748  40.515   2.769
71902W        W44162  43.441   9.764   3.800
71903W        W44163  13.580  31.401   0.850
71904W        W44164  32.897  25.549   0.718
71905W        W44165  25.367  32.930   2.680
71906W        W44166  29.215  43.403  14.518
71907W        W44167  21.806  11.627   0.287
71908W        W44168  16.040  18.951  12.468
71909W        W44169   0.112  27.039  13.014
71910W        W44170  22.706  35.098   3.524
71911W        W44171  20.049   7.778  13.781
71912W        W44172   7.852  28.951  11.738
71913W        W44173  29.294  34.404  14.534
71914W        W44174  42.521   9.821  12.348
71915W        W44175  18.992  11.061   0.267
71916W        W44176  17.448  23.056   4.176
71917W        W44177   9.391  18.850  11.988
71918W        W44178  16.609  27.679  11.047
71919W        W44179   9.088  30.902   0.478
71920W        W44180   7.128  39.094  12.447
71921W        W44181  24.261  20.286  12.993
71922W        W44182  25.662  34.344  11.539
71923W        W44183  41.531  41.777   2.337
71924W        W44184  36.056   1.796  11.522
71925W        W44185   4.684  24.118   4.632
71926W        W44186  20.224  26.737   5.344
71927W        W44187  33.418  14.914   3.265
71928W        W44188  19.253  29.476   4.594
71929W        W44189  31.884  21.540  11.830
71930W        W44190   2.321  29.371   3.730
71931W        W44191  27.564  15.840  10.550
71932W        W44192   1.031  12.818  14.893
71933W        W44193   8.008  35.675  13.962
71934W        W44194  39.818  43.066   2.871
71935W        W44195  17.721  43.362  10.590
71936W        W44196  11.314  17.637   0.353
71937W        W44197  32.906   4.418   3.265
71938W        W44198  28.238  44.228  11.587
71939W        W44199  42.447  43.274  14.567
71940W        W44200  15.278  27.454  12.163
71941W        W44201   8.166  22.567   1.240
71942W        W44202  38.885   9.331   2.130
71943W        W44203  18.101  10.783   0.751
71944W        W44204  34.879  14.100   3.362
71945W        W44205   1.181  43.414  13.482
71946W        W44206  14.835  28.564   2.870
71947W        W44207   7.976  13.726  14.354
71948W        W44208  31.567  21.152  14.307
71949W        W44209   6.133  39.502  10.455
71950W        W44210  20.616  37.818  11.916
71951W        W44211  32.609  41.995  14.324
71952W        W44212  13.644  18.595   2.902
71953W        W44213  19.305  35.896   3.936
71954W        W44214   9.176  13.335  12.877
71955W        W44215  19.747  27.000   1.189
71956W        W44216  29.235  23.424  10.696
71957W        W44217  16.028  16.697   1.462
71958W        W44218  24.653   0.666   3.258
71959W        W44219  28.726  21.042  14.054
71960W        W44220  14.145   9.342  12.534
71961W        W44221  41.503   7.737  13.064
71962W        W44222   4.443  44.537   1.779
71963W        W44223  39.049  25.198  12.529
71964W        W44224  29.423  17.216   5.487
71965W        W44225   3.353  42.019   1.454
71966W        W44226  39.729   6.613  11.262
71967W        W44227  44.265  32.900  11.195
71968W        W44228  16.820  38.877   0.321
71969W        W44229  14.415   4.685   1.454
71970W        W44230  43.478  34.354   1.386
71971W        W44231  15.785  26.653  14.412
71972W        W44232   8.367  37.935  14.087
71973W        W44233  40.433  23.479   4.573
71974W        W44234  42.168  26.532   2.393
71975W        W44235  19.151  44.496   2.854
71976W        W44236  37.844  19.068   0.024
71977W        W44237  37.567  43.498  11.672
71978W        W44238  24.909  29.023  11.166
71979W        W44239  31.445  26.471   1.758
71980W        W44240  36.509  41.146  12.155
71981W        W44241  21.583  22.161   1.628
71982W        W44242  16.972  27.450  10.186
71983W        W44243   0.428  37.946   3.285
71984W        W44244   7.813  35.200  14.016
71985W        W44245  26.619  36.873  14.124
71986W        W44246  12.401  43.504   2.235
71987W        W44247  12.935  24.999   2.015
71988W        W44248  33.739   7.875  11.433
71989W        W44249  27.660  29.032  13.963
71990W        W44250  29.100   7.936  11.897
71991W        W44251   2.409   8.575   9.993
71992W        W44252  29.555  21.962   0.934
71993W        W44253  12.265  23.832  13.357
71994W        W44254  18.480  25.968  14.792
71995W        W44255  18.447  41.873   1.679
71996W        W44256  10.240  13.292   4.669
71997W        W44257  38.692  21.031   0.322
71998W        W44258  25.901   5.223   4.296
71999W        W44259  23.245  39.202   1.907
72000W        W44260   8.882  17.579   2.731
72001W        W44261  13.649  38.303   1.780
72002W        W44262  16.126  22.195   1.002
72003W        W44263  40.970  20.225  13.552
72004W        W44264  20.157   2.027   0.697
72005W        W44265  22.531   0.012   1.794
72006W        W44266  17.167  25.767  13.545
72007W        W44267  44.234  38.593  12.456
72008W        W44268  16.136   0.230   0.175
72009W        W44269  27.637  16.702   3.980
72010W        W44270  28.402   5.773   0.282
72011W        W44271  18.660  41.567   0.458
72012W        W44272  41.976  33.093  12.479
72013W        W44273  36.215  13.140  12.918
72014W        W44274  32.519  34.355   1.253
72015W        W44275  40.022  18.252  11.916
72016W        W44276  22.614  25.575  14.031
72017W        W44277  37.094  28.100  11.154
72018W        W44278  22.281   6.048  14.899
72019W        W44279  14.862  44.061   3.571
72020W        W44280  34.753  42.810   4.524
72021W        W44281   3.205  34.077  10.760
72022W        W44282  26.440  41.923   4.776
72023W        W44283  36.836  38.480   4.576
72024W        W44284  27.405  36.878   4.378
72025W        W44285   5.396   6.260  13.349
72026W        W44286  13.293  11.897  12.554
72027W        W44287  20.598  16.072   2.961
72028W        W44288   7.799  41.286   2.265
72029W        W44289  43.726  30.251   0.871
72030W        W44290  23.081   3.510   2.407
72031W        W44291  19.541  25.656  13.593
72032W        W44292  33.397   9.088  10.689
72033W        W44293   6.834  22.184  11.379
72034W        W44294  36.445  12.855   3.103
72035W        W44295   0.802  21.985  13.589
72036W        W44296  37.402  26.488   0.784
72037W        W44297  28.879  40.295  12.988
72038W        W44298  23.882  30.869  12.315
72039W        W44299  18.188  33.732   4.538
72040W        W44300   9.302  37.870   2.168
72041W        W44301  15.410   4.536  12.359
72042W        W44302  16.858  36.433  14.800
72043W        W44303   0.635  34.392  11.134
72044W        W44304  35.148  25.173   3.954
72045W        W44305  40.042  23.991   2.894
72046W        W44306  43.328   0.837   4.557
72047W        W44307  29.521   6.801  12.157
72048W        W44308  42.947  12.868  11.379
72049W        W44309  22.578  22.781   3.174
72050W        W44310  17.003   3.742   3.430
72051W        W44311  39.441   4.178  13.855
72052W        W44312  14.306  31.669   1.509
72053W        W44313  26.039   2.253   1.256
72054W        W44314   5.748  35.894  13.900
72055W        W44315  36.615  32.319   1.809
72056W        W44316  39.829  14.324   3.271
72057W        W44317  19.519  41.927  14.432
72058W        W44318  34.043  27.283   1.452
72059W        W44319  15.820   4.668  10.615
72060W        W44320  11.102   4.100   3.653
72061W        W44321  12.681  39.755  11.993
72062W        W44322  41.276  17.122  12.930
72063W        W44323  36.724  16.834  12.406
72064W        W44324   6.748  41.277   2.723
72065W        W44325  35.969  14.595  10.497
72066W        W44326  39.346  23.978  13.907
72067W        W44327  33.931  22.607  13.512
72068W        W44328  23.312   4.403   2.366
72069W        W44329  15.059   2.239  10.702
72070W        W44330  38.672  20.645   0.928
72071W        W44331  11.478  31.463  14.880
72072W        W44332  41.576  28.547   1.227
72073W        W44333  36.284  31.056  10.821
72074W        W44334  14.215  33.740  14.393
72075W        W44335   3.005   3.728  12.566
72076W        W44336  21.656  34.935   4.150
72077W        W44337  15.665  10.940  13.951
72078W        W44338   3.457  17.494  12.434
72079W        W44339   2.433  22.498  12.403
72080W        W44340   7.482  43.264   2.178
72081W        W44341  44.174  18.815  12.517
72082W        W44342  40.064  32.388   2.711
72083W        W44343  22.923  21.035   4.485
72084W        W44344  40.843  17.387   0.922
72085W        W44345   1.962   0.010  11.143
72086W        W44346  27.504  33.663   2.814
72087W        W44347  14.354  24.537  13.385
72088W        W44348  18.728  39.371   3.052
72089W        W44349   4.667  42.329  11.167
72090W        W44350  13.176  42.515   4.871
72091W        W44351  14.625  15.256   4.559
72092W        W44352  23.197  44.420  14.171
72093W        W44353   0.310  29.096  13.556
72094W        W44354  42.569  11.188   4.736
72095W        W44355  14.295  28.975   1.479
72096W        W44356  13.354  21.016   3.797
72097W        W44357  41.976   7.169  14.357
72098W        W44358  36.945  38.916  14.391
72099W        W44359  27.145   5.142   3.344
72100W        W44360   4.161  15.521  13.906
72101W        W44361  20.879  29.916  11.303
72102W        W44362  14.251   9.130   2.687
72103W        W44363   6.338  27.521   2.782
72104W        W44364  29.544  13.958   4.957
72105W        W44365   4.501  15.823  11.293
72106W        W44366  18.698   9.990  11.942
72107W        W44367  10.694  31.517  12.040
72108W        W44368  13.416  28.172   2.725
72109W        W44369  44.387  11.224   1.457
72110W        W44370  21.186  12.223  14.893
72111W        W44371  13.609  25.086  13.901
72112W        W44372  31.419  22.288   2.851
72113W        W44373  38.320  32.365   3.344
72114W        W44374  15.731  18.053   0.523
72115W        W44375  23.522  28.690  14.926
72116W        W44376   2.582  10.719  11.683
72117W        W44377  11.918  27.975   2.293
72118W        W44378  26.089  11.351   3.129
72119W        W44379  32.507  25.243   0.426
72120W        W44380  33.853  35.542   2.845
72121W        W44381  42.021  10.835   3.646
72122W        W44382  23.430   8.823   0.963
72123W        W44383  15.555  30.865  11.933
72124W        W44384  20.155  20.737  11.617
72125W        W44385   9.294  27.398  12.976
72126W        W44386  30.082  37.602  14.409
72127W        W44387  20.628  44.503  12.106
72128W        W44388  40.155  17.546   0.894
72129W        W44389   5.328   1.356  12.544
72130W        W44390   5.508  41.016  12.926
72131W        W44391   0.935  27.961  10.791
72132W        W44392  25.939  35.468  13.986
72133W        W44393  17.578  44.722   3.309
72134W        W44394  27.530   1.638  14.945
72135W        W44395  37.297  40.865   0.194
72136W        W44396  42.718   8.390  14.042
72137W        W44397   8.776  35.903   4.803
72138W        W44398  44.848  14.313  10.780
72139W        W44399  23.993  27.616   5.794
72140W        W44400  38.986  21.643   1.304
72141W        W44401  35.967  24.935  12.656
72142W        W44402  32.487  35.955   2.768
72143W        W44403  33.007  29.760  10.505
72144W        W44404  16.180   1.223   2.499
72145W        W44405  31.888  37.904  14.841
72146W        W44406  16.604  29.837   0.438
72147W        W44407   2.906  21.167   2.934
72148W        W44408  40.929  24.870  11.760
72149W        W44409  23.624  39.019   1.232
72150W        W44410  26.192  16.831   2.061
72151W        W44411   1.281   6.660   0.497
72152W        W44412  34.723  21.009  14.878
72153W        W44413  24.021  22.709   3.729
72154W        W44414  25.702  23.110  14.093
72155W        W44415  35.006  37.917  10.570
72156W        W44416  40.533   7.878   2.244
72157W        W44417  34.630  22.942   4.657
72158W        W44418   8.748  37.962  12.454
72159W        W44419  26.131  31.833   0.925
72160W        W44420   2.066  38.869  12.554
72161W        W44421  29.174  18.717  12.662
72162W        W44422  27.241  30.163  10.607
72163W        W44423  13.778   7.311   2.176
72164W        W44424  29.876  13.519  14.490
72165W        W44425  33.806  41.879   4.638
72166W        W44426  36.880   5.865   3.959
72167W        W44427  28.037   2.224   3.783
72168W        W44428  25.686  21.159  13.031
72169W        W44429  15.120  39.297  13.027
72170W        W44430  32.418   8.129   4.107
72171W        W44431   9.808  35.468   0.343
72172W        W44432   6.221   9.353   4.844
72173W        W44433   2.902  24.303  13.013
72174W        W44434  32.812   5.293   0.031
72175W        W44435   2.514   5.298   3.221
72176W        W44436  32.368  18.346   1.363
72177W        W44437   9.222  14.686   3.171
72178W        W44438   9.131  23.738  13.787
72179W        W44439   4.425  39.695  13.980
72180W        W44440  26.607  33.077  12.953
72181W        W44441  28.546  30.246   9.801
72182W        W44442  17.330  15.421  12.443
72183W        W44443  26.748   6.249   1.207
72184W        W44444   0.153  36.008  14.497
72185W        W44445  10.213  41.896  13.553
72186W        W44446  19.665   0.284   2.310
72187W        W44447  34.927   7.278   1.683
72188W        W44448  40.078   1.886  10.480
72189W        W44449  40.895   0.006  12.987
72190W        W44450  43.253  37.987   2.801
72191W        W44451  30.499  35.372   4.008
72192W        W44452  22.020  20.567  11.517
72193W        W44453  17.595  40.967   1.332
72194W        W44454  29.701   4.822  11.614
72195W        W44455  31.334  19.784  13.948
72196W        W44456  15.863  42.273   1.299
72197W        W44457  16.217  37.845  12.375
72198W        W44458  17.341   6.392   3.839
72199W        W44459  17.397  42.872  12.725
72200W        W44460  26.941   2.298  13.999
72201W        W44461  39.384  27.736  14.763
72202W        W44462  43.401  12.124   1.647
72203W        W44463  34.338  21.943  14.786
72204W        W44464  11.828   7.225  13.704
72205W        W44465   8.390  41.766  11.233
72206W        W44466  36.794  25.195  12.943
72207W        W44467  32.332   9.660   0.272
72208W        W44468  16.489  31.674   4.092
72209W        W44469  38.377  28.642  11.128
72210W        W44470  31.880  42.997   2.434
72211W        W44471  24.836  36.519  14.347
72212W        W44472   5.209   4.812  10.157
72213W        W44473  31.367  28.102   2.781
72214W        W44474  28.804  15.108  11.862
72215W        W44475   7.896  32.954  11.138
72216W        W44476  44.179  24.655  10.583
72217W        W44477  26.898   7.157  13.009
72218W        W44478  19.289  16.415  10.836
72219W        W44479  32.888  22.677  10.686
72220W        W44480  19.352  23.979  11.088
72221W        W44481  18.416  43.238   0.491
72222W        W44482  22.709  20.697   2.410
72223W        W44483  10.077   6.343   2.635
72224W        W44484  22.826  38.454   0.583
72225W        W44485  17.860  38.626  14.394
72226W        W44486  36.922  43.353  14.311
72227W        W44487  37.688  17.540   0.758
72228W        W44488  41.823  40.568   2.753
72229W        W44489  21.287   3.179  12.974
72230W        W44490  43.584   2.385  14.019
72231W        W44491  31.963   0.681  13.950
72232W        W44492  19.145  13.605   0.641
72233W        W44493   0.109  30.611   1.913
72234W        W44494  32.310  23.680   2.761
72235W        W44495  41.277  17.126   1.190
72236W        W44496  10.101  28.160   3.765
72237W        W44497   7.408  21.505  13.886
72238W        W44498  42.617  26.612  10.733
72239W        W44499  28.183  37.195  13.350
72240W        W44500  25.201   7.171  12.385
72241W        W44501   1.224   9.143  12.427
72242W        W44502  37.437   4.842  10.452
72243W        W44503   9.660  34.429   2.218
72244W        W44504  14.034  17.119  12.325
72245W        W44505  43.533  24.185  11.105
72246W        W44506  10.320   0.158   3.748
72247W        W44507  40.863  30.679  12.493
72248W        W44508   1.777  37.678   1.827
72249W        W44509  17.186  21.621   1.699
72250W        W44510   9.609  38.410  13.596
72251W        W44511  38.058   5.282  14.334
72252W        W44512  35.825  30.246   2.149
72253W        W44513  43.365  23.053  13.639
72254W        W44514  24.003  29.284   5.154
72255W        W44515   1.847  20.624   2.212
72256W        W44516  13.835  44.718   0.346
72257W        W44517  32.319  10.661  13.077
72258W        W44518   8.753   7.936   1.801
72259W        W44519  12.288  40.061  12.017
72260W        W44520  13.752  41.271  13.897
72261W        W44521   3.286  38.850  13.136
72262W        W44522  40.254   4.698  14.226
72263W        W44523  20.607  42.557  11.602
72264W        W44524  29.481  11.974  13.326
72265W        W44525  24.096  34.900  10.577
72266W        W44526  32.162  26.746   1.288
72267W        W44527  34.353  43.846   3.196
72268W        W44528  21.187  10.045   4.050
72269W        W44529  31.106  23.094  10.620
72270W        W44530  38.516  43.971   3.379
72271W        W44531   8.603  38.478   4.235
72272W        W44532  27.500  33.469   1.452
72273W        W44533  42.465  30.097   0.296
72274W        W44534  34.996  33.530  13.410
72275W        W44535   1.922  22.550   4.203
72276W        W44536   1.783  27.438  11.644
72277W        W44537  34.052  35.609   4.400
72278W        W44538  34.519  17.025   2.293
72279W        W44539   4.672  33.965   4.632
72280W        W44540  24.979  28.871  12.472
72281W        W44541  34.503  13.356   1.298
72282W        W44542   1.510  16.713  12.653
72283W        W44543  34.933  16.267  10.200
72284W        W44544  19.313  12.177   3.709
72285W        W44545  37.916  17.493   4.937
72286W        W44546  32.579  39.621  13.823
72287W        W44547   6.092  21.194  10.503
72288W        W44548  35.541  11.628  14.697
72289W        W44549  16.102  30.851   1.039
72290W        W44550  35.978  26.249  11.527
72291W        W44551   4.357   3.804   0.348
72292W        W44552  41.540  42.328  12.573
72293W        W44553  26.150  44.495  11.996
72294W        W44554   0.300   0.079  10.728
72295W        W44555  34.285  26.560   2.225
72296W        W44556  30.264   4.129   1.544
72297W        W44557  12.912  16.352  12.452
72298W        W44558  26.925  25.041   3.701
72299W        W44559  18.507  12.249   3.348
72300W        W44560  27.442  40.386   2.283
72301W        W44561  33.371  31.544  14.037
72302W        W44562  37.990  11.576  12.456
72303W        W44563  15.361  14.280   3.754
72304W        W44564  28.106  14.198   1.977
72305W        W44565   1.400  19.031   2.452
72306W        W44566  11.094  26.101   3.125
72307W        W44567   2.713  18.219   0.962
72308W        W44568   4.736  40.451  10.915
72309W        W44569  18.265  42.347  13.606
72310W        W44570   1.854   5.738   0.376
72311W        W44571  27.556  18.809   3.427
72312W        W44572  27.413   1.143   4.112
72313W        W44573  20.339  21.206  14.523
72314W        W44574   8.554  43.375   1.774
72315W        W44575  28.172  15.695  11.473
72316W        W44576  32.310   5.360   2.680
72317W        W44577   2.635  23.855  11.338
72318W        W44578  44.885  31.320  12.337
72319W        W44579   6.141   9.519  11.087
72320W        W44580  29.638  34.786  12.049
72321W        W44581  29.049   5.597   3.337
72322W        W44582  43.692  30.451  14.427
72323W        W44583  28.386  26.669   4.601
72324W        W44584   4.774  24.975   1.128
72325W        W44585  38.868  19.132   3.759
72326W        W44586   9.251  28.519  13.041
72327W        W44587  21.096  34.564  14.313
72328W        W44588   7.125   3.803   3.329
72329W        W44589  31.450  41.381  11.413
72330W        W44590   5.610  36.264   2.783
72331W        W44591   5.823  13.589   0.491
72332W        W44592  36.746  15.233   3.200
72333W        W44593  13.727  25.411   3.402
72334W        W44594  31.365  41.044  13.377
72335W        W44595  38.818  20.237   0.174
72336W        W44596  40.003   7.087   2.301
72337W        W44597  14.241  40.285  14.423
72338W        W44598  23.278  26.212   2.272
72339W        W44599  15.432   0.454  11.434
72340W        W44600  39.077  16.692   2.318
72341W        W44601  14.530  22.804  11.654
72342W        W44602  25.589  32.808  14.522
72343W        W44603  17.721  14.370  14.118
72344W        W44604  33.023  36.565   0.704
72345W        W44605   1.317   2.103   0.318
72346W        W44606  23.065  20.535  11.588
72347W        W44607  20.363   8.604  13.365
72348W        W44608  25.761   8.214   1.906
72349W        W44609  26.755  35.467  11.616
72350W        W44610  43.328  12.275   2.141
72351W        W44611  12.750  25.227   4.258
72352W        W44612   4.360  34.355  12.862
72353W        W44613  26.704   7.171  12.105
72354W        W44614  34.285  34.379   1.019
72355W        W44615  42.281  44.820   0.980
72356W        W44616  34.538  13.362   3.174
72357W        W44617  43.826   6.713  11.109
72358W        W44618  24.067  11.306  12.969
72359W        W44619  36.587  43.313  13.860
72360W        W44620  40.163  11.301   3.393
72361W        W44621  18.782  36.621  12.657
72362W        W44622  19.563   7.938  10.642
72363W        W44623  10.310  14.538   1.220
72364W        W44624  37.072  21.224  10.992
72365W        W44625   8.474  19.648  11.598
72366W        W44626  25.054  30.030   3.751
72367W        W44627  19.300  39.893   2.716
72368W        W44628  18.362  38.599   2.719
72369W        W44629  16.587   2.889  14.761
72370W        W44630   0.456  24.481   1.443
72371W        W44631  31.096  19.742  13.505
72372W        W44632  31.424  27.495   4.028
72373W        W44633  12.770  39.964  13.927
72374W        W44634  19.112  44.945   4.187
72375W        W44635  42.095  44.241  14.190
72376W        W44636  42.334  25.283   4.107
72377W        W44637  36.343  40.948  11.449
72378W        W44638  23.247   1.110   1.814
72379W        W44639  13.282  37.943   3.134
72380W        W44640   9.115  23.400  11.942
72381W        W44641  41.031  11.035   0.895
72382W        W44642   4.692  31.274  14.931
72383W        W44643  31.867  11.331  12.630
72384W        W44644  14.623   5.394   4.040
72385W        W44645   5.223  25.200   2.740
72386W        W44646   1.995  42.002   4.158
72387W        W44647  40.950   8.662  10.754
72388W        W44648  36.291  14.202   3.609
72389W        W44649  37.502  18.294   0.414
72390W        W44650  26.506  38.852   2.586
72391W        W44651  27.684   4.380  12.435
72392W        W44652   8.790  10.291   2.740
72393W        W44653  44.793  33.019  10.627
72394W        W44654   9.805  14.253   4.369
72395W        W44655   5.817  44.808   3.255
72396W        W44656   0.503   7.231   3.217
72397W        W44657  23.929  21.792  13.004
72398W        W44658  18.334  23.602  13.945
72399W        W44659  12.305  42.775  13.960
72400W        W44660   8.402   4.238   3.029
72401W        W44661  12.613  28.460  11.951
72402W        W44662  34.394  29.401   4.551
72403W        W44663  29.330   0.760   3.220
72404W        W44664  33.601  36.740   3.201
72405W        W44665  44.982  14.856  14.731
72406W        W44666  12.375  11.337  14.621
72407W        W44667  15.093   6.443  11.062
72408W        W44668  26.177  10.844  12.841
72409W        W44669  40.061   2.990  14.217
72410W        W44670  23.053  37.428  14.678
72411W        W44671  43.877  39.999  10.651
72412W        W44672  31.130  10.400  12.681
72413W        W44673  19.970   8.406   2.931
72414W        W44674  13.887   4.244  13.340
72415W        W44675  21.757   5.290   3.722
72416W        W44676   5.710  44.976  13.401
72417W        W44677   2.753  19.908   4.267
72418W        W44678  18.338  27.168   3.621
72419W        W44679  32.573   8.588  11.149
72420W        W44680  18.343  25.805  10.744
72421W        W44681   0.266  36.438   1.392
72422W        W44682   9.400  19.611   3.318
72423W        W44683   4.914  26.075  14.233
72424W        W44684   1.250  15.101   0.206
72425W        W44685  19.441  15.191   2.157
72426W        W44686  42.665  32.127   1.747
72427W        W44687  20.120  38.112  14.964
72428W        W44688  33.650  41.503   3.367
72429W        W44689  31.840   0.570   9.848
72430W        W44690  18.871   0.097  14.402
72431W        W44691  33.918  39.297   1.879
72432W        W44692  25.968  23.531   1.440
72433W        W44693  30.549  41.093  13.826
72434W        W44694   1.063  13.361  10.992
72435W        W44695  10.780  18.686   3.241
72436W        W44696  30.939  22.992   0.478
72437W        W44697  31.031  31.626  11.698
72438W        W44698  43.856  23.230  13.578
72439W        W44699  17.668  23.889  12.342
72440W        W44700  32.092   6.221   5.116
72441W        W44701  24.655  36.291  14.798
72442W        W44702  30.535   4.720   2.606
72443W        W44703   1.998  24.581   2.737
72444W        W44704  30.171  40.176  12.406
72445W        W44705  14.103   1.418  11.612
72446W        W44706   3.411   9.731   3.298
72447W        W44707  31.245  17.724   0.236
72448W        W44708  38.423  36.539   4.698
72449W        W44709  35.140   8.702   2.945
72450W        W44710  33.501  18.676  10.656
72451W        W44711   2.594  29.041  14.449
72452W        W44712  41.155  14.801   3.510
72453W        W44713   6.894   6.916   4.100
72454W        W44714  38.193  22.687  11.137
72455W        W44715  26.003  42.954   0.869
72456W        W44716  33.538  41.865  11.575
72457W        W44717  23.235  42.918  10.864
72458W        W44718  29.630  18.826  10.905
72459W        W44719  26.602  16.136  10.668
72460W        W44720   2.550  12.579   4.463
72461W        W44721   1.345  22.775  14.575
72462W        W44722  13.434  32.592  12.433
72463W        W44723  16.062  30.866  10.633
72464W        W44724  38.978  44.190   3.422
72465W        W44725  12.181  13.703   0.216
72466W        W44726  28.987   1.927   1.448
72467W        W44727   8.886  35.851  13.597
72468W        W44728   2.494  17.855  14.517
72469W        W44729  34.589  26.711  12.786
72470W        W44730  39.875   2.810   2.458
72471W        W44731  21.660  13.175   3.720
72472W        W44732  13.012  12.409   3.899
72473W        W44733  17.678  24.215  13.958
72474W        W44734  30.339  23.672   4.816
72475W        W44735  32.225  40.788  12.498
72476W        W44736   2.355   3.180   1.678
72477W        W44737   6.602   7.254   0.375
72478W        W44738   7.787   0.196   4.172
72479W        W44739  44.535  16.131   2.822
72480W        W44740  22.716  42.277  11.716
72481W        W44741  20.145  25.005  12.632
72482W        W44742   0.695  30.922  10.415
72483W        W44743   0.822   2.143   0.561
72484W        W44744  24.263   6.801  11.036
72485W        W44745  28.077  36.908   1.462
72486W        W44746  31.543   7.181  13.472
72487W        W44747  15.794  31.131  11.552
72488W        W44748   5.930  12.794  14.897
72489W        W44749  23.570  35.638  10.799
72490W        W44750   9.942  44.434   0.003
72491W        W44751   8.788  32.221   0.975
72492W        W44752   8.860  28.149   0.287
72493W        W44753   9.002   0.636   1.404
72494W        W44754   1.049  19.805  14.756
72495W        W44755  29.437  20.692  11.578
72496W        W44756  29.135  33.413  13.768
72497W        W44757  35.429  44.568   4.700
72498W        W44758  21.018  41.728   5.069
72499W        W44759  10.928  25.080   4.525
72500W        W44760   7.084  33.485   3.858
72501W        W44761   9.473  33.400  11.484
72502W        W44762  28.368   9.367  13.105
72503W        W44763  37.875  36.584  13.573
72504W        W44764   9.933  23.507   3.336
72505W        W44765  37.121   7.997  12.462
72506W        W44766   5.305  22.952   4.623
72507W        W44767  28.567  35.078  13.438
72508W        W44768  31.342  15.116   2.792
72509W        W44769  42.754   5.372  12.260
72510W        W44770  17.669  38.373   4.175
72511W        W44771  37.606  33.851   1.240
72512W        W44772  43.090  15.254   1.375
72513W        W44773  12.806  18.766  12.457
72514W        W44774  43.812  23.178  14.437
72515W        W44775  10.467  13.205   0.023
72516W        W44776  24.512   8.337  11.601
72517W        W44777  42.356  24.772   4.125
72518W        W44778  39.080   5.310  14.739
72519W        W44779  10.199  22.432   3.030
72520W        W44780  27.209  40.854   4.990
72521W        W44781  30.376  11.802  11.895
72522W        W44782   8.945  29.612   1.951
72523W        W44783   6.286  24.335   5.146
72524W        W44784   0.000   8.649  10.893
72525W        W44785  37.346  34.467  12.856
72526W        W44786  28.055  23.416   3.154
72527W        W44787  11.868  19.708   2.260
72528W        W44788  22.144  39.568   2.431
72529W        W44789  35.469  34.645   1.240
72530W        W44790  42.882  11.370   2.769
72531W        W44791   7.905   5.643  10.691
72532W        W44792  22.611  35.253  11.507
72533W        W44793  23.121  42.042  13.950
72534W        W44794   1.250  42.861   0.378
72535W        W44795  27.571  25.858   3.279
72536W        W44796   5.472  12.760  14.571
72537W        W44797  30.549   9.580   0.365
72538W        W44798  21.099   1.197   0.297
72539W        W44799  28.708  14.594   4.165
72540W        W44800   0.288  10.607  11.967
72541W        W44801  10.784  25.965   3.566
72542W        W44802   2.947   8.896  14.323
72543W        W44803  20.288  15.993  14.033
72544W        W44804  34.072   6.964  13.101
72545W        W44805  14.830  32.822  12.469
72546W        W44806  18.209  15.139   3.286
72547W        W44807  26.262  39.678   2.276
72548W        W44808  27.093  24.617   4.355
72549W        W44809  37.447  35.454  10.612
72550W        W44810   4.622  42.773  14.412
72551W        W44811  39.512   7.706   5.035
72552W        W44812  29.833  18.308  11.396
72553W        W44813   2.421   0.028   3.215
72554W        W44814  39.466  28.977  12.341
72555W        W44815  31.700   6.759   0.261
72556W        W44816  44.425   7.245  10.169
72557W        W44817  43.470  36.425  10.746
72558W        W44818  37.531  43.005   1.754
72559W        W44819   8.467  41.774  14.195
72560W        W44820  13.873   4.795  10.586
72561W        W44821   2.776   7.396  14.059
72562W        W44822  31.888   4.601  14.385
72563W        W44823  24.423  12.882   4.777
72564W        W44824  43.863   8.879  13.330
72565W        W44825  26.674   6.933  12.543
72566W        W44826  38.344  21.901  10.755
72567W        W44827  31.163  14.138  10.997
72568W        W44828  39.290  15.342  11.986
72569W        W44829  24.639  44.418  13.028
72570W        W44830   9.894  21.606   3.353
72571W        W44831  23.620  18.278   0.317
72572W        W44832   7.909  21.165  12.902
72573W        W44833  31.518   4.354   0.778
72574W        W44834   7.715  20.023  12.979
72575W        W44835   4.987  37.960  13.527
72576W        W44836  18.183  35.241  10.863
72577W        W44837  41.912  38.754  12.518
72578W        W44838  20.117  28.201  10.913
72579W        W44839  14.627  25.743   3.894
72580W        W44840  15.139   2.500  11.968
72581W        W44841  35.056  34.944   2.320
72582W        W44842   8.524  35.534   0.927
72583W        W44843  23.499   6.816   1.484
72584W        W44844   7.123   3.595   4.243
72585W        W44845   0.263  41.275   2.229
72586W        W44846  24.524  44.021   0.846
72587W        W44847  35.442  43.539  13.339
72588W        W44848  19.248  37.402   2.970
72589W        W44849  43.844  25.957   0.958
72590W        W44850  44.482  16.104  13.790
72591W        W44851  24.512  16.312  14.659
72592W        W44852   4.880  12.368   2.780
72593W        W44853   8.170  23.206  12.400
72594W        W44854   3.830   3.368   2.673
72595W        W44855  32.599  41.125   4.692
72596W        W44856  39.120  23.568  12.783
72597W        W44857  10.353  31.078  14.858
72598W        W44858  35.356   7.692   2.817
72599W        W44859  11.717  20.705  10.837
72600W        W44860  40.368  23.027  10.721
72601W        W44861  14.745  13.825  13.902
72602W        W44862  13.597   4.804  14.833
72603W        W44863  34.913  36.558  10.670
72604W        W44864  43.742   6.391   3.899
72605W        W44865  27.462  33.339   1.972
72606W        W44866   1.073  17.304  11.538
72607W        W44867   1.725  11.156   3.934
72608W        W44868  29.912  32.816  13.372
72609W        W44869   1.192  27.200   0.952
72610W        W44870   5.686  16.232  13.162
72611W        W44871  16.390  34.778  10.855
72612W        W44872  24.894  31.663  10.712
72613W        W44873  44.274  28.205  14.517
72614W        W44874  44.813  28.730   4.546
72615W        W44875   8.129  44.352  14.258
72616W        W44876  42.987  44.346  14.438
72617W        W44877   6.211  16.184  11.951
72618W        W44878   5.364  29.095  11.973
72619W        W44879  43.027  22.357   5.158
72620W        W44880  39.949  11.686   2.569
72621W        W44881  27.152  21.068   0.867
72622W        W44882  41.924  20.651  10.767
72623W        W44883   8.875  21.666   2.457
72624W        W44884  41.946   5.376  13.347
72625W        W44885   1.677  30.371   3.518
72626W        W44886  10.899  39.908   1.791
72627W        W44887  10.606  44.728   3.637
72628W        W44888  39.490  33.840  13.050
72629W        W44889  26.373  26.644   2.826
72630W        W44890   8.094  43.621   1.869
72631W        W44891  40.987   7.199   2.418
72632W        W44892  21.636  42.023   1.964
72633W        W44893  13.749   3.199   1.746
72634W        W44894   3.010  16.594   1.873
72635W        W44895   6.909  43.451  12.555
72636W        W44896  18.720  38.999   4.744
72637W        W44897  31.626  15.875  14.724
72638W        W44898  42.874  17.103   0.766
72639W        W44899  18.585  17.477  11.377
72640W        W44900  26.945  42.677   3.310
72641W        W44901   6.638  37.862   3.687
72642W        W44902  15.866  17.511  10.273
72643W        W44903  16.421   4.364   2.804
72644W        W44904   8.897  28.632  10.314
72645W        W44905   5.303  18.754   2.794
72646W        W44906   6.433  14.910  11.225
72647W        W44907  31.626  21.576  14.006
72648W        W44908   3.510  20.646  14.258
72649W        W44909   9.153  29.001   0.764
72650W        W44910  16.066  31.660   0.350
72651W        W44911  42.004   2.345   3.856
72652W        W44912  15.688  17.798  14.806
72653W        W44913  41.793  33.916  11.982
72654W        W44914   1.180  28.389  12.370
72655W        W44915  29.218  36.602  12.779
72656W        W44916  11.369  37.017   4.147
72657W        W44917   6.310  20.539   0.178
72658W        W44918   7.167  36.607  11.162
72659W        W44919  10.423  11.578   0.865
72660W        W44920  36.110  36.937   0.559
72661W        W44921   1.127   0.286  13.392
72662W        W44922  20.116   5.210   4.174
72663W        W44923  16.173  24.539  11.592
72664W        W44924  34.485  27.227  12.578
72665W        W44925  30.423  15.059  12.798
72666W        W44926   9.209   4.775   3.345
72667W        W44927  10.293  20.547   3.144
72668W        W44928  22.287  32.475   4.147
72669W        W44929  26.430  28.530  12.025
72670W        W44930  38.889  20.168  11.938
72671W        W44931  27.577  28.190   2.000
72672W        W44932  28.360  10.229   1.900
72673W        W44933  23.738  15.832   4.945
72674W        W44934  26.066  22.202  10.645
72675W        W44935  14.413   5.320  10.939
72676W        W44936  37.945  40.342   4.864
72677W        W44937  23.790  23.741  13.057
72678W        W44938  24.918  22.477  13.931
72679W        W44939  33.355   6.954   2.427
72680W        W44940  27.790  21.972  11.807
72681W        W44941  14.824  29.234  11.069
72682W        W44942   7.306  18.481   4.304
72683W        W44943  12.692  20.157   2.753
72684W        W44944  35.805   0.450   0.932
72685W        W44945  40.911  35.482   4.217
72686W        W44946  25.336   1.766   2.356
72687W        W44947   6.928  31.259   3.025
72688W        W44948  28.791   3.399  14.472
72689W        W44949  31.376  32.584   1.436
72690W        W44950  21.060  37.016  14.838
72691W        W44951  42.626   3.331  14.818
72692W        W44952  19.347  42.060  13.953
72693W        W44953  36.290  14.549   0.932
72694W        W44954  14.658  42.321   2.817
72695W        W44955  43.745  33.119  14.346
72696W        W44956  39.356  42.125  14.491
72697W        W44957  11.796  29.919   2.328
72698W        W44958  27.754   2.878  11.934
72699W        W44959  13.561   0.453  10.709
72700W        W44960  43.306  24.605   2.761
72701W        W44961   5.202  15.393  14.983
72702W        W44962  30.541   7.122  11.705
72703W        W44963  31.512   6.524   2.883
72704W        W44964  30.090  28.285  12.775
72705W        W44965  41.815  32.946  13.841
72706W        W44966  32.938  26.509   1.875
72707W        W44967  44.367  23.514  10.463
72708W        W44968  39.413  19.765   4.710
72709W        W44969  23.147  27.540  14.689
72710W        W44970   8.894  36.648   4.000
72711W        W44971  18.006  39.236  13.546
72712W        W44972  28.262  32.212  10.254
72713W        W44973   9.581  34.514   0.267
72714W        W44974  25.105  41.010   5.131
72715W        W44975   4.477  39.618  14.512
72716W        W44976  18.693   4.343  10.705
72717W        W44977  11.626  33.914  14.769
72718W        W44978  14.574  42.472  12.507
72719W        W44979   2.404  40.414   3.757
72720W        W44980   2.208   4.717  11.571
72721W        W44981  12.362  10.913  14.933
72722W        W44982  33.441  12.051   1.027
72723W        W44983  16.159  36.743   4.183
72724W        W44984  35.057  22.645  10.572
72725W        W44985  16.259   2.109  12.111
72726W        W44986  38.327  35.585  12.444
72727W        W44987  12.323  26.328   4.264
72728W        W44988  31.948  20.463   1.812
72729W        W44989  12.629   9.727  12.860
72730W        W44990  35.978  22.069   4.203
72731W        W44991   3.821  28.264  14.908
72732W        W44992  16.718  40.457   3.315
72733W        W44993  19.957  29.923  12.923
72734W        W44994  44.778   1.371  13.905
72735W        W44995  38.106  23.768  12.356
72736W        W44996  44.308   3.009  11.645
72737W        W44997  17.683  29.071  13.311
72738W        W44998  23.128  27.487   1.451
72739W        W44999  39.679  39.831  10.897
72740W        W45000  10.681  29.863  11.578
72741W        W45001  39.888  10.585   1.000
72742W        W45002  36.380  31.285   3.698
72743W        W45003  41.512  42.328   2.291
72744W        W45004  36.408  28.476  13.904
72745W        W45005  44.211  29.973  13.997
72746W        W45006  20.822  16.715  13.350
72747W        W45007  13.761  29.903   4.640
72748W        W45008   4.890  20.688  10.344
72749W        W45009  42.461   9.296  12.346
72750W        W45010  29.194   1.196   0.179
72751W        W45011  41.755   7.354  12.832
72752W        W45012  12.639   0.199  13.083
72753W        W45013  16.537  43.862   1.284
72754W        W45014   2.299  39.028   1.497
72755W        W45015   0.721  42.728  13.817
72756W        W45016   7.524  18.949  14.528
72757W        W45017   6.933  24.253  11.943
72758W        W45018  39.880  33.348  13.864
72759W        W45019  18.109  27.005   0.304
72760W        W45020  29.916  30.424   3.753
72761W        W45021  29.204  32.027   2.421
72762W        W45022  14.674   8.840  14.740
72763W        W45023  41.455  39.596  11.644
72764W        W45024   1.690   3.923  14.325
72765W        W45025  29.166  43.892   1.775
72766W        W45026   2.098  39.159   4.998
72767W        W45027  43.084  35.826  13.056
72768W        W45028   1.687   5.979  14.128
72769W        W45029   5.313  10.282  10.936
72770W        W45030   5.854  18.345  12.345
72771W        W45031  14.842  24.518   3.592
72772W        W45032  19.171  42.425   1.674
72773W        W45033  32.083  21.324  11.354
72774W        W45034  26.001  32.334  13.705
72775W        W45035  22.869  20.200  13.832
72776W        W45036  12.313  16.818  11.794
72777W        W45037  41.438  26.642  12.307
72778W        W45038   1.674  37.190   2.751
72779W        W45039  44.439  20.058  10.726
72780W        W45040   6.825  24.437   1.213
72781W        W45041  10.297  29.173   3.286
72782W        W45042  29.311  24.728  12.428
72783W        W45043  36.565  23.646  14.443
72784W        W45044   0.361  29.095  12.539
72785W        W45045  15.181  32.949   4.089
72786W        W45046  38.931  15.253   3.860
72787W        W45047  14.975  30.929   9.922
72788W        W45048  39.813  11.783   4.800
72789W        W45049  13.069  15.167  12.915
72790W        W45050  30.911  18.774  11.991
72791W        W45051  22.684   4.927  11.809
72792W        W45052   9.366  37.950   4.604
72793W        W45053  38.260   9.171   0.290
72794W        W45054  43.268  44.514   4.777
72795W        W45055  35.561  32.583   4.449
72796W        W45056  26.415  14.094  11.224
72797W        W45057  43.431   8.612  13.281
72798W        W45058  15.651   0.398   0.078
72799W        W45059  11.644  35.967   1.894
72800W        W45060  18.167  29.020  13.073
72801W        W45061   0.459  41.522   2.635
72802W        W45062  14.162  16.166  11.247
72803W        W45063  12.338  26.177  13.365
72804W        W45064   0.447  27.084  12.624
72805W        W45065  34.525   3.995   0.742
72806W        W45066  26.567  31.995  11.612
72807W        W45067   9.072  21.614  11.629
72808W        W45068  26.270  33.967  12.862
72809W        W45069   4.417  11.130   2.216
72810W        W45070  14.423  25.616  14.906
72811W        W45071  18.414   7.414  12.514
72812W        W45072  24.132  22.544   0.548
72813W        W45073  24.742  31.284  12.527
72814W        W45074  43.403  15.704   3.245
72815W        W45075  37.130  43.141  10.506
72816W        W45076  12.953  31.872  12.079
72817W        W45077  41.915  40.117   1.829
72818W        W45078  35.966  44.569   3.209
72819W        W45079  24.943  29.984  11.288
72820W        W45080  19.108  22.089  11.687
72821W        W45081   2.566  15.494   3.417
72822W        W45082  40.934  38.311  13.562
72823W        W45083   7.329  27.979  11.149
72824W        W45084  26.252  36.013  14.479
72825W        W45085  34.982   6.478   2.823
72826W        W45086  44.654   7.721   3.681
72827W        W45087  39.021  29.685   3.757
72828W        W45088  35.066  40.419  12.411
72829W        W45089  10.559  36.581   4.227
72830W        W45090  39.408   7.447   2.885
72831W        W45091  23.109   2.687   0.218
72832W        W45092  18.042  24.500   0.347
72833W        W45093  43.381   5.049  12.107
72834W        W45094  33.783  22.987  14.883
72835W        W45095  20.608  18.274   1.437
72836W        W45096  28.184  42.362  13.906
72837W        W45097  35.411  40.969  13.561
72838W        W45098   0.232  20.274  11.078
72839W        W45099  39.850  32.150  13.355
72840W        W45100   8.284  29.470  10.705
72841W        W45101  36.369  33.170  10.631
72842W        W45102  22.979  34.530   1.197
72843W        W45103  44.794  12.622   4.228
72844W        W45104  37.614  22.563   1.982
72845W        W45105  39.272  20.625   4.221
72846W        W45106  31.975  11.560  13.990
72847W        W45107  10.167  12.345  10.747
72848W        W45108  20.994  26.429   3.290
72849W        W45109  23.626   3.188   4.617
72850W        W45110  38.502  42.934   3.778
72851W        W45111  20.065   7.406   4.148
72852W        W45112  12.718  21.678   1.062
72853W        W45113  13.373   3.374   1.422
72854W        W45114  33.024  30.484   0.396
72855W        W45115   5.857  29.573   4.613
72856W        W45116  22.857  14.332   4.565
72857W        W45117  15.775   2.659  14.989
72858W        W45118  23.222   4.543  14.761
72859W        W45119  19.940  38.103   3.269
72860W        W45120   6.206  36.362   0.014
72861W        W45121  14.216  15.920   4.326
72862W        W45122  14.329  43.213  12.969
72863W        W45123  21.511  35.336   2.686
72864W        W45124  24.976  21.568  14.197
72865W        W45125  37.474  43.313  10.866
72866W        W45126  43.804   6.199  11.171
72867W        W45127  32.922  23.785  13.884
72868W        W45128  43.429  11.029  13.411
72869W        W45129  43.519  11.734   4.207
72870W        W45130   3.661  40.016  14.195
72871W        W45131  15.634  44.579  12.433
72872W        W45132  24.121  33.441   3.169
72873W        W45133  16.205  38.378   3.304
72874W        W45134   0.193  40.832  11.193
72875W        W45135   4.462   9.665  12.356
72876W        W45136  21.425  29.662   1.836
72877W        W45137  30.507  31.618  11.122
72878W        W45138  18.553  11.214  13.551
72879W        W45139  41.805  21.741  13.729
72880W        W45140  34.245  15.124   0.260
72881W        W45141  14.123   4.958   1.772
72882W        W45142  19.145  27.952  12.184
72883W        W45143   3.539   1.038  11.738
72884W        W45144  22.387  23.497  13.555
72885W        W45145  36.938  17.342  14.116
72886W        W45146   1.976  30.683   2.190
72887W        W45147  21.614  26.803   2.836
72888W        W45148  33.907  43.882   1.899
72889W        W45149  31.523  27.393  12.078
72890W        W45150  42.840  20.708  13.194
72891W        W45151  33.085  18.472  11.963
72892W        W45152   4.793  41.582  13.898
72893W        W45153  19.272  23.631   4.861
72894W        W45154  13.617  23.353  11.828
72895W        W45155  21.735  21.575   5.565
72896W        W45156  35.597  20.678  13.137
72897W        W45157  22.244  12.357  14.805
72898W        W45158   3.551  26.188  14.561
72899W        W45159  37.347   6.626   1.343
72900W        W45160   7.399  14.363   2.892
72901W        W45161  27.918  34.814  12.733
72902W        W45162  21.248  22.185   0.466
72903W        W45163  41.145  34.845   2.782
72904W        W45164  15.549  25.160   1.268
72905W        W45165  26.861  11.230   1.686
72906W        W45166  33.108  43.344  14.626
72907W        W45167  23.418  37.566  13.816
72908W        W45168   2.372   4.973   0.123
72909W        W45169  43.521  39.348  11.681
72910W        W45170  36.613  42.344  11.520
72911W        W45171  10.715  31.064   3.367
72912W        W45172  25.980  25.193   3.958
72913W        W45173   1.255   3.985  12.108
72914W        W45174  21.117  43.668   4.225
72915W        W45175  25.155  27.595   2.652
72916W        W45176  17.635  25.321  11.330
72917W        W45177  18.488  19.215  13.473
72918W        W45178  42.873   1.907   2.090
72919W        W45179   0.826  18.639   1.470
72920W        W45180  31.849  31.004   2.439
72921W        W45181   3.244   7.758   1.325
72922W        W45182  17.119  16.550  11.588
72923W        W45183  30.543  28.157   2.791
72924W        W45184   7.469  25.465   4.120
72925W        W45185  40.576  15.232   0.488
72926W        W45186  39.275   7.330   1.506
72927W        W45187  44.664  11.353  14.959
72928W        W45188  36.854   5.616   3.516
72929W        W45189  33.042  44.355   4.626
72930W        W45190  39.036  17.260  11.185
72931W        W45191  37.130   2.325   4.828
72932W        W45192   3.853   5.410   1.465
72933W        W45193   3.437   7.000  14.731
72934W        W45194  24.459  37.767   1.609
72935W        W45195  17.912  41.347   3.792
72936W        W45196  29.756  39.141  12.627
72937W        W45197   5.287  38.939   1.870
72938W        W45198  39.930   1.418   4.121
72939W        W45199   5.686  41.566   1.927
72940W        W45200  28.810  26.115   3.849
72941W        W45201  41.557  20.483   0.228
72942W        W45202   2.875  36.339  11.938
72943W        W45203  37.633  33.994  11.178
72944W        W45204  21.087  14.382  12.858
72945W        W45205  17.573   6.360   1.231
72946W        W45206  13.723  43.248   0.733
72947W        W45207  24.816  41.805   5.693
72948W        W45208  44.966  41.982  13.533
72949W        W45209  43.358  24.505   3.335
72950W        W45210  34.578  15.672   3.716
72951W        W45211  10.578  20.114  11.945
72952W        W45212  17.611  42.034   1.257
72953W        W45213  30.914  19.502  13.101
72954W        W45214  36.517  18.275   4.045
72955W        W45215  42.071  24.576   1.341
72956W        W45216  28.235   7.728   0.218
72957W        W45217  42.757  34.419   3.329
72958W        W45218  18.337  19.299   0.719
72959W        W45219  16.018  16.020  10.885
72960W        W45220  21.107  33.191  12.569
72961W        W45221   6.184  41.830  12.980
72962W        W45222  39.881  17.498   1.361
72963W        W45223  28.587  25.685  10.313
72964W        W45224  22.138   9.166   0.814
72965W        W45225  26.355  37.954   1.780
72966W        W45226  20.461  36.847   4.248
72967W        W45227  28.344   7.199   1.456
72968W        W45228  33.519  12.554   0.885
72969W        W45229  12.249   6.499   2.385
72970W        W45230  11.633  21.999  14.519
72971W        W45231  34.420  15.279  13.089
72972W        W45232  22.574  31.985   0.827
72973W        W45233  30.144   5.327  10.732
72974W        W45234  31.079   5.531   4.260
72975W        W45235   4.415   8.918  14.455
72976W        W45236  17.170  13.921  14.450
72977W        W45237  31.173  35.432   0.360
72978W        W45238  36.040   2.274   3.678
72979W        W45239  19.395  20.127   2.344
72980W        W45240  16.510  11.652  10.881
72981W        W45241  35.932  19.132  13.189
72982W        W45242  31.876  17.243   2.373
72983W        W45243  23.070  44.063   1.293
72984W        W45244   8.636  26.603  12.303
72985W        W45245   7.338   4.193   3.636
72986W        W45246   6.082  44.999  13.002
72987W        W45247  21.507  33.458  14.967
72988W        W45248   1.340  13.423  12.593
72989W        W45249  30.505  35.250   3.473
72990W        W45250   9.870  12.531  11.200
72991W        W45251  19.195  11.710   4.853
72992W        W45252  39.052  42.913  13.581
72993W        W45253  42.279   1.270   3.625
72994W        W45254  29.481  26.156   1.736
72995W        W45255  10.615  39.361   0.430
72996W        W45256  20.570   7.242   4.226
72997W        W45257  31.161  37.296   0.828
72998W        W45258  37.949  24.377   0.423
72999W        W45259   4.787  16.848  13.875
73000W        W45260   6.935   0.819   2.352
73001W        W45261   0.199  38.074  12.288
73002W        W45262  34.743  44.888   4.169
73003W        W45263  38.957  44.450  11.057
73004W        W45264   3.684   8.901  10.690
73005W        W45265  10.245   9.235   4.440
73006W        W45266   6.694  26.220   1.749
73007W        W45267  31.931  27.029   4.643
73008W        W45268  19.297  20.009   3.594
73009W        W45269  41.931  28.479  14.965
73010W        W45270  20.732   4.260   4.476
73011W        W45271  15.047  17.253   3.372
73012W        W45272   5.203  30.570  10.949
73013W        W45273  31.660  16.650  13.386
73014W        W45274   4.899  41.433  14.835
73015W        W45275  15.787  43.051   0.941
73016W        W45276  10.909  28.390  11.085
73017W        W45277  37.474  44.320  13.852
73018W        W45278   3.676   9.836   1.879
73019W        W45279  16.965  17.074  12.952
73020W        W45280   9.834  43.356   3.878
73021W        W45281   3.069  29.948   0.724
73022W        W45282   8.361   8.687   4.167
73023W        W45283  16.069  41.741   0.481
73024W        W45284  29.959   2.797   3.735
73025W        W45285   1.898   3.424  10.674
73026W        W45286  20.070  20.426   5.358
73027W        W45287   8.216  17.561  12.834
73028W        W45288  28.271  44.069   0.358
73029W        W45289   8.479  41.436   3.915
73030W        W45290  41.394  10.264  13.021
73031W        W45291  20.983  19.644   2.269
73032W        W45292  13.828  33.543   5.095
73033W        W45293  35.405  42.297   1.699
73034W        W45294   4.882  28.069   1.442
73035W        W45295  10.265  13.555  11.307
73036W        W45296  11.221   0.583   0.321
73037W        W45297  37.802  11.908  11.177
73038W        W45298  41.405  41.842  10.593
73039W        W45299  33.393  15.181  14.768
73040W        W45300  43.743  34.273   0.935
73041W        W45301  25.457  30.563   1.651
73042W        W45302  16.139  36.397  11.420
73043W        W45303  42.005  14.217   3.590
73044W        W45304   8.473  10.303  14.347
73045W        W45305  42.092  28.473  14.463
73046W        W45306  31.660  29.116   1.428
73047W        W45307  44.374  24.269  11.427
73048W        W45308   9.899  23.018  10.926
73049W        W45309   3.323  41.717  13.449
73050W        W45310  38.174  38.286   2.414
73051W        W45311   2.574   8.627   4.256
73052W        W45312  14.361  30.625   0.311
73053W        W45313   1.315  14.380   1.004
73054W        W45314  42.708  29.053   2.865
73055W        W45315  13.315  17.315   3.262
73056W        W45316   0.753  26.511  14.039
73057W        W45317  27.519   9.011   2.418
73058W        W45318  43.572   9.658   4.704
73059W        W45319  28.574  18.654   3.828
73060W        W45320  15.297  20.081   4.306
73061W        W45321  34.579   6.348  14.569
73062W        W45322  20.639  15.563  11.909
73063W        W45323  17.581  14.617   0.851
73064W        W45324  23.002  12.156   1.979
73065W        W45325  38.614  23.463   1.716
73066W        W45326  38.035  44.714   3.745
73067W        W45327  13.681  17.419  13.138
73068W        W45328   3.353  41.987   0.340
73069W        W45329  43.909  31.217  11.412
73070W        W45330   5.597  40.791  13.383
73071W        W45331  30.166  16.124   3.192
73072W        W45332  17.642  17.834  13.351
73073W        W45333  39.226  30.559  11.704
73074W        W45334  42.424  15.355   4.630
73075W        W45335   2.761  42.856   4.616
73076W        W45336  36.480  26.237   1.877
73077W        W45337  31.427  20.524   0.424
73078W        W45338  29.481   2.226  12.060
73079W        W45339  41.008  32.653  11.407
73080W        W45340   9.094   4.719  11.152
73081W        W45341  37.463   3.137  10.352
73082W        W45342  24.336  21.514  13.300
73083W        W45343  27.689  29.491   3.474
73084W        W45344  17.113  36.605  11.576
73085W        W45345  37.493  10.887   1.492
73086W        W45346  16.215  18.036  10.464
73087W        W45347  34.335  20.767   5.531
73088W        W45348  20.054  17.859  13.453
73089W        W45349  17.059  30.383   4.700
73090W        W45350  27.203  33.436  12.887
73091W        W45351  42.941  38.729  13.617
73092W        W45352   2.803  29.516  11.539
73093W        W45353   9.728  23.844  14.458
73094W        W45354  39.874  25.769   2.210
73095W        W45355  20.359  28.226   2.205
73096W        W45356  33.118  19.145   1.906
73097W        W45357  33.556   8.585  14.543
73098W        W45358  14.079  42.400  12.395
73099W        W45359  32.859  24.513  14.956
73100W        W45360  39.301  26.655   4.806
73101W        W45361  37.852   7.657  12.860
73102W        W45362  44.754   2.956  12.843
73103W        W45363  35.282  13.761   0.963
73104W        W45364  15.772   0.905   0.800
73105W        W45365  39.396  13.438  13.902
73106W        W45366  33.525  26.343  11.534
73107W        W45367  34.295  30.159  13.949
73108W        W45368   4.555  34.219   3.249
73109W        W45369  18.013  44.106  12.437
73110W        W45370  39.644   0.394   2.288
73111W        W45371  44.397  17.373   3.240
73112W        W45372  20.006  32.210  13.956
73113W        W45373  35.523  39.891  14.286
73114W        W45374  13.748   8.767  10.505
73115W        W45375  17.307   6.214  11.650
73116W        W45376  36.993  35.657   2.366
73117W        W45377  28.432  37.055  11.707
73118W        W45378  13.835  33.423   2.862
73119W        W45379  42.591  39.604  14.987
73120W        W45380  37.505  32.747   2.195
73121W        W45381  16.473  11.164  10.686
73122W        W45382  14.818  19.805   0.796
73123W        W45383  29.903  27.595  13.955
73124W        W45384  26.973  38.799   0.387
73125W        W45385  12.643  28.679  10.522
73126W        W45386   2.685   9.878   1.939
73127W        W45387   7.265  39.792  13.883
73128W        W45388   1.048  19.692   2.964
73129W        W45389  22.023  19.840  12.872
73130W        W45390  17.459  26.485   3.637
73131W        W45391  15.830   6.742  12.509
73132W        W45392  32.454  35.952  11.639
73133W        W45393   6.805  40.020   1.422
73134W        W45394  10.381  40.569  10.862
73135W        W45395  25.923  16.213  11.744
73136W        W45396  33.020  32.171   2.978
73137W        W45397  34.912  14.158  13.454
73138W        W45398  22.012   3.940  12.223
73139W        W45399  17.839  19.033   1.734
73140W        W45400  25.000  39.787   0.491
73141W        W45401  34.071   1.297  12.889
73142W        W45402  35.996  14.679  13.753
73143W        W45403  31.657  32.429   1.825
73144W        W45404  22.736  14.914   1.170
73145W        W45405  37.956   2.914  13.833
73146W        W45406  12.081  12.388   3.647
73147W        W45407  15.609   8.121   0.260
73148W        W45408  16.152  22.630   4.254
73149W        W45409  30.307  38.364   4.850
73150W        W45410  30.912  40.508  11.735
73151W        W45411  31.497   5.127   1.463
73152W        W45412  15.386  28.575   2.766
73153W        W45413   5.317  35.583   0.996
73154W        W45414  31.182  43.238   1.301
73155W        W45415  33.203  38.358  11.192
73156W        W45416   4.116   9.333   0.943
73157W        W45417  38.643  28.475   0.974
73158W        W45418  12.904  10.274   4.700
73159W        W45419  26.668   3.758  11.037
73160W        W45420  14.903  41.468  10.659
73161W        W45421  25.994  30.535   0.271
73162W        W45422  39.548  25.197  11.463
73163W        W45423  31.087  41.460   1.643
73164W        W45424  24.231  33.825   0.820
73165W        W45425  28.124  44.335  10.707
73166W        W45426   5.823  14.314   1.321
73167W        W45427  40.812  30.682   1.273
73168W        W45428  31.730  36.476   0.752
73169W        W45429  23.099  17.733   3.104
73170W        W45430  43.603  43.239   4.156
73171W        W45431  29.426   7.742  13.777
73172W        W45432   0.351  11.869  13.540
73173W        W45433   2.212  11.164   0.956
73174W        W45434  12.558  24.028  11.934
73175W        W45435  30.644   3.545   4.563
73176W        W45436   5.315  44.883  13.746
73177W        W45437   4.603  38.446   2.192
73178W        W45438   6.136  20.957  14.878
73179W        W45439  36.580  21.054   3.587
73180W        W45440  26.860  39.568  12.420
73181W        W45441  15.842   9.278   0.674
73182W        W45442  26.937  30.945   0.813
73183W        W45443  24.991  29.628   1.848
73184W        W45444  38.483  27.263  12.412
73185W        W45445   9.319  26.443   3.068
73186W        W45446   8.698  30.373   1.340
73187W        W45447   8.782  44.794  12.648
73188W        W45448   2.909   2.400   0.312
73189W        W45449  15.064  12.935   4.535
73190W        W45450  10.397  23.733   4.765
73191W        W45451  44.450  10.802   0.292
73192W        W45452  39.241  23.130   1.183
73193W        W45453  41.911  37.393  10.232
73194W        W45454  40.540  11.201  14.791
73195W        W45455  44.893  38.773   0.377
73196W        W45456  10.831  28.734  13.949
73197W        W45457  27.049  16.437   4.603
73198W        W45458   2.686  25.061  12.479
73199W        W45459  22.724  44.422  14.358
73200W        W45460  31.161  29.881   4.177
73201W        W45461  28.996  30.585  11.695
73202W        W45462   2.225   2.224  11.601
73203W        W45463  10.581  35.582   4.198
73204W        W45464  26.223   1.846   2.647
73205W        W45465   2.494  23.310  11.346
73206W        W45466   0.244  15.620   1.945
73207W        W45467   1.220  20.267  12.038
73208W        W45468  14.531  33.912   2.240
73209W        W45469   3.308   4.732   3.667
73210W        W45470   3.720  12.738  11.631
73211W        W45471   0.450  39.109   3.193
73212W        W45472   6.206  35.837  11.627
73213W        W45473  32.881  31.080  11.063
73214W        W45474   4.905  32.603  14.886
73215W        W45475   9.316  24.750   2.310
73216W        W45476  12.768  14.893  11.456
73217W        W45477  32.546   0.276  12.310
73218W        W45478  35.159  38.059  12.964
73219W        W45479  43.749  18.398   1.774
73220W        W45480  27.933  44.775   2.323
73221W        W45481  34.824  18.911  12.591
73222W        W45482   7.668  43.912  12.918
73223W        W45483  23.037   3.279   1.482
73224W        W45484   5.154   4.834  13.903
73225W        W45485  16.238  27.123  11.300
73226W        W45486   4.765   2.930  13.010
73227W        W45487  26.886   4.340   0.905
73228W        W45488  24.407  15.330   2.759
73229W        W45489  26.554  44.136  11.809
73230W        W45490  11.187  29.127  13.876
73231W        W45491  41.961  42.569  12.332
73232W        W45492  34.137  35.025   3.604
73233W        W45493  20.938  25.782  10.411
73234W        W45494  16.294  27.357  13.462
73235W        W45495  17.538  24.434   0.415
73236W        W45496  20.621  44.114  12.845
73237W        W45497  39.012  30.632   0.370
73238W        W45498  31.971  29.177  13.874
73239W        W45499  36.105  32.127   2.201
73240W        W45500  17.575   1.405  14.386
73241W        W45501  41.477  15.650   1.939
73242W        W45502  42.357  21.694  14.479
73243W        W45503  37.589  44.570  13.373
73244W        W45504  10.609   8.874  10.328
73245W        W45505  27.737   7.819  11.942
73246W        W45506  16.105  17.831   5.022
73247W        W45507  43.395  38.844  14.923
73248W        W45508  27.901  16.479   0.349
73249W        W45509  12.375  15.096  14.592
73250W        W45510  14.721  29.491  14.272
73251W        W45511  25.049  43.523   2.794
73252W        W45512   7.061  21.074   0.132
73253W        W45513   3.955  34.633  12.704
73254W        W45514   7.708  31.081  13.615
73255W        W45515   8.991   7.175   2.107
73256W        W45516   2.007  43.511  12.528
73257W        W45517  21.566  37.932  13.792
73258W        W45518  23.715   0.240  14.841
73259W        W45519  19.595  41.182   4.953
73260W        W45520  27.553  29.946  12.903
73261W        W45521   8.415   6.424   1.186
73262W        W45522  28.316  17.933  13.823
73263W        W45523  13.512  29.035  13.877
73264W        W45524  37.310  38.655  12.678
73265W        W45525  34.632  25.525  14.369
73266W        W45526  22.871  14.109   2.573
73267W        W45527  10.451  28.911   2.859
73268W        W45528   6.166  37.428   0.846
73269W        W45529  43.166  36.002   4.177
73270W        W45530  34.101   8.931  11.003
73271W        W45531  20.258  18.639   1.250
73272W        W45532  26.107  10.038   2.945
73273W        W45533  12.843  10.247  11.919
73274W        W45534  36.560  36.971   1.460
73275W        W45535  43.392  10.769  11.924
73276W        W45536  16.031  23.621  14.511
73277W        W45537  34.171  31.335   1.704
73278W        W45538  42.249  44.362  11.887
73279W        W45539  44.878   0.970  10.456
73280W        W45540   4.062  24.712  13.954
73281W        W45541  42.508  15.790   1.854
73282W        W45542  14.585  36.558   3.632
73283W        W45543  22.286  14.611  12.522
73284W        W45544  12.746  21.801  12.178
73285W        W45545   2.370  22.178   0.134
73286W        W45546  32.150  11.333   2.753
73287W        W45547   6.893  21.119  13.030
73288W        W45548  14.072  44.356   3.737
73289W        W45549  23.641  42.489   3.970
73290W        W45550  37.504  24.196  10.623
73291W        W45551  37.416  27.557   4.419
73292W        W45552  39.344  42.440   0.518
73293W        W45553   6.940  13.152  13.752
73294W        W45554  32.967  32.815  11.188
73295W        W45555  33.155   7.288   3.611
73296W        W45556  16.693   9.303   0.522
73297W        W45557  22.022  23.366  14.508
73298W        W45558  19.557   0.355  10.649
73299W        W45559  24.780  27.031   3.318
73300W        W45560  25.940  27.444  14.971
73301W        W45561  36.067  10.863  12.390
73302W        W45562  25.951  12.315  11.492
73303W        W45563  42.414  24.559  14.958
73304W        W45564  33.849  29.731   3.311
73305W        W45565   0.586  43.486   1.758
73306W        W45566  15.714  14.890  11.487
73307W        W45567   0.321  20.265   4.134
73308W        W45568  19.812  22.835   2.153
73309W        W45569  20.278  25.099  10.783
73310W        W45570   6.396   0.268  12.578
73311W        W45571  10.146  24.265   3.183
73312W        W45572   0.860  13.205   1.732
73313W        W45573   7.975  44.371   2.688
73314W        W45574   9.085  39.435   1.884
73315W        W45575  15.167  32.085   3.669
73316W        W45576  34.788  36.597  14.411
73317W        W45577  17.130  14.886  12.301
73318W        W45578  21.228  17.607  10.780
73319W        W45579  27.890  43.502  12.111
73320W        W45580   1.543  20.955   2.556
73321W        W45581   4.244   5.588   1.187
73322W        W45582  13.504  33.157   4.918
73323W        W45583  32.455  44.812   2.274
73324W        W45584   5.257  17.860   3.142
73325W        W45585  42.920  42.881   2.316
73326W        W45586  10.335  23.780   3.140
73327W        W45587  32.000  11.094  11.679
73328W        W45588  13.699  38.308  14.841
73329W        W45589  28.219  37.512  11.552
73330W        W45590  32.563  17.117  12.062
73331W        W45591  17.842  43.834  13.094
73332W        W45592  17.665  15.166  13.455
73333W        W45593  11.606  38.026  11.668
73334W        W45594  40.521   6.679  13.550
73335W        W45595   1.307   2.371   3.416
73336W        W45596  16.117  32.561   2.408
73337W        W45597  44.575  32.343   0.350
73338W        W45598  22.144   2.016  14.056
73339W        W45599   6.086  32.778   1.774
73340W        W45600   9.821  33.742  11.563
73341W        W45601  22.181  13.999  13.264
73342W        W45602  24.372   7.674   3.253
73343W        W45603  19.571  27.952  14.423
73344W        W45604  44.370  10.663   4.696
73345W        W45605  14.088  26.807  12.470
73346W        W45606  23.213  12.942   2.441
73347W        W45607  22.928   0.884  13.045
73348W        W45608  11.242   1.227  12.959
73349W        W45609  24.169  33.304  13.046
73350W        W45610   8.346  25.594   2.638
73351W        W45611  19.288   8.701  10.660
73352W        W45612  17.578  31.039  13.435
73353W        W45613  23.542   8.261   4.754
73354W        W45614  20.487  32.665  13.218
73355W        W45615  15.286  32.437   1.465
73356W        W45616  31.634  25.248  11.205
73357W        W45617   8.105   7.205   0.256
73358W        W45618  40.579  12.889   2.260
73359W        W45619  13.576  41.090   0.190
73360W        W45620  12.455  42.349   3.197
73361W        W45621  38.540  22.218   3.784
73362W        W45622  25.492  17.729   1.031
73363W        W45623   6.746  44.903   0.233
73364W        W45624   9.277  19.165  10.677
73365W        W45625  26.434  44.138  12.310
73366W        W45626   0.053   1.822  11.994
73367W        W45627  40.861   1.286   3.140
73368W        W45628  43.627  19.537   2.293
73369W        W45629   2.725  31.999   2.442
73370W        W45630  38.087   6.895   2.445
73371W        W45631  10.819  18.528   0.525
73372W        W45632  10.756  37.546  10.738
73373W        W45633  17.958  11.900   3.894
73374W        W45634   7.792  12.518   0.048
73375W        W45635  20.973  25.433   2.348
73376W        W45636   7.453  41.568  13.394
73377W        W45637  34.057  28.868  12.105
73378W        W45638   2.553  12.777   4.950
73379W        W45639  11.727  42.509   3.699
73380W        W45640  25.596  24.340  12.853
73381W        W45641  17.733  34.788  11.978
73382W        W45642  42.897   2.524  13.568
73383W        W45643  15.994  39.173   0.016
73384W        W45644  22.444   9.843  11.071
73385W        W45645   0.462  37.995  10.390
73386W        W45646  20.642  18.004   3.829
73387W        W45647  16.069   6.859   2.174
73388W        W45648  18.486  28.585   0.273
73389W        W45649  39.811  20.683   3.325
73390W        W45650   9.276  19.468   0.790
73391W        W45651  33.491  29.396   4.235
73392W        W45652  30.249  23.328  12.678
73393W        W45653  15.444  25.917  14.910
73394W        W45654  26.504  19.571   3.673
73395W        W45655  41.870   1.543  13.486
73396W        W45656  44.941  22.301  13.136
73397W        W45657  38.997  17.807   0.488
73398W        W45658  44.411   1.725   0.033
73399W        W45659  28.498  16.577  13.388
73400W        W45660   7.109  30.034   1.306
73401W        W45661  36.884  17.633   0.418
73402W        W45662  29.139  44.031  11.529
73403W        W45663  20.781  25.718   1.024
73404W        W45664  35.621  15.708  14.480
73405W        W45665  44.033   5.775   2.212
73406W        W45666   2.940  40.896   4.887
73407W        W45667  16.079  38.995   2.809
73408W        W45668  43.223   6.385  13.388
73409W        W45669  14.785   1.686   1.033
73410W        W45670  16.271  33.155   0.248
73411W        W45671  25.201   7.198  11.556
73412W        W45672   5.917  18.166  13.364
73413W        W45673  15.783  27.393  12.815
73414W        W45674  31.548  28.580   2.730
73415W        W45675  15.342   8.852  12.361
73416W        W45676  20.236  14.292  14.346
73417W        W45677  20.098  18.117   1.361
73418W        W45678  43.335   1.734  10.520
73419W        W45679   6.815  33.909  14.384
73420W        W45680  30.664  27.398   0.672
73421W        W45681  18.905  28.151  13.462
73422W        W45682  22.170  20.895  11.887
73423W        W45683   4.729   0.269  13.963
73424W        W45684  35.965   5.288  13.766
73425W        W45685  22.534  12.424   1.942
73426W        W45686  12.784  29.185   1.144
73427W        W45687  20.324   8.331  10.648
73428W        W45688  33.843  33.642  11.111
73429W        W45689  39.561  42.254  10.672
73430W        W45690   2.890  37.054  12.420
73431W        W45691   4.377   3.714  10.686
73432W        W45692  33.580  20.542   5.133
73433W        W45693   3.969  41.745  14.842
73434W        W45694  34.320  32.935  12.395
73435W        W45695  23.968  39.880  14.974
73436W        W45696  24.234   3.045   1.821
73437W        W45697   1.059  18.528  12.839
73438W        W45698  23.213  42.914   0.800
73439W        W45699   2.792  15.214  13.759
73440W        W45700  44.631   9.339  10.749
73441W        W45701  23.236   7.758  14.378
73442W        W45702  41.582  18.105   0.071
73443W        W45703  15.051  42.826  10.715
73444W        W45704  38.472   4.614   1.220
73445W        W45705  23.474  37.987  12.629
73446W        W45706  18.598  30.947   4.193
73447W        W45707  42.899  39.826  14.252
73448W        W45708  25.982  30.135   3.624
73449W        W45709  25.060  13.245  11.955
73450W        W45710   9.866  44.922  11.582
73451W        W45711  44.815  11.360  11.964
73452W        W45712   5.710  36.643  14.310
73453W        W45713   3.219  29.021  13.283
73454W        W45714  15.863   6.267   4.831
73455W        W45715  32.961   8.416  11.920
73456W        W45716  37.061  27.846   4.687
73457W        W45717  34.317   4.339   1.382
73458W        W45718  34.136   8.371   1.856
73459W        W45719  22.920  41.879  10.449
73460W        W45720   8.679  36.799  13.367
73461W        W45721   0.319   2.964  12.118
73462W        W45722   5.971  26.477  12.793
73463W        W45723  21.585  25.153   0.701
73464W        W45724  21.809  34.441   0.503
73465W        W45725  44.229   5.781  14.041
73466W        W45726  44.331   5.164   0.692
73467W        W45727  36.863  40.412  14.774
73468W        W45728   6.935  38.515   0.416
73469W        W45729  43.069  22.982  12.407
73470W        W45730   7.453  25.488  12.521
73471W        W45731  29.211   1.452   1.483
73472W        W45732  12.835  31.441   4.525
73473W        W45733  23.285  18.554  11.478
73474W        W45734  42.352  27.025   2.380
73475W        W45735  19.656   7.279  13.923
73476W        W45736   2.805  26.899  14.403
73477W        W45737  42.810   7.546   0.901
73478W        W45738  24.129  44.922   2.901
73479W        W45739  19.736   4.602  11.145
73480W        W45740  20.677  27.130  10.400
73481W        W45741  23.798  37.991  13.595
73482W        W45742  31.396  23.621   3.771
73483W        W45743   1.031  25.424  12.087
73484W        W45744  33.492   2.451   4.516
73485W        W45745  27.894  44.301   4.605
73486W        W45746  26.926   2.973  14.961
73487W        W45747  16.717  16.257   1.710
73488W        W45748  25.678  14.884   0.915
73489W        W45749  21.639   4.320   0.728
73490W        W45750   5.483  26.137   0.767
73491W        W45751  32.810  31.006   3.500
73492W        W45752   6.223   8.233  12.581
73493W        W45753  41.305  23.616  11.454
73494W        W45754  17.287   0.622  11.115
73495W        W45755  18.811   2.321  13.075
73496W        W45756   8.353  28.583   3.095
73497W        W45757  25.279   2.961   4.657
73498W        W45758   7.897   7.917   2.349
73499W        W45759  31.216  22.713  11.869
73500W        W45760  43.411  37.587  14.187
73501W        W45761   4.018   5.843  12.188
73502W        W45762  37.822  17.741  14.494
73503W        W45763  23.170  24.210   4.223
73504W        W45764  37.542   5.725  12.445
73505W        W45765  24.178  12.083  13.509
73506W        W45766  12.323  11.198  11.648
73507W        W45767  16.133  10.355   2.371
73508W        W45768  17.122  32.686  13.104
73509W        W45769   2.930   3.833   2.169
73510W        W45770  24.625  30.566  11.759
73511W        W45771  27.219  17.560   0.261
73512W        W45772  38.719  18.863  11.029
73513W        W45773  42.296  15.406  12.545
73514W        W45774  20.617   5.525   2.889
73515W        W45775  16.796  30.935   3.720
73516W        W45776  32.983  14.926   0.018
73517W        W45777  41.760   8.410   2.880
73518W        W45778  31.045  44.234  12.058
73519W        W45779  11.470  14.574   4.713
73520W        W45780  38.716   7.715   3.738
73521W        W45781  17.696   3.829   2.650
73522W        W45782  33.092   0.247  11.569
73523W        W45783  20.670  39.114  13.339
73524W        W45784  20.644  36.986   1.795
73525W        W45785   8.695   7.420   1.720
73526W        W45786  26.256  35.959  12.878
73527W        W45787  20.297   4.662   1.571
73528W        W45788  23.818  12.785  14.448
73529W        W45789  36.548  22.765   0.964
73530W        W45790   8.922  36.427  12.594
73531W        W45791  10.624  19.252  11.474
73532W        W45792   5.652   8.323  13.962
73533W        W45793   4.444  14.289  12.053
73534W        W45794  26.926  21.545   3.026
73535W        W45795  23.828   3.846   2.854
73536W        W45796  18.241  23.588  12.502
73537W        W45797  13.089   7.556  10.808
73538W        W45798  14.157  31.792   2.703
73539W        W45799  14.471   3.285  14.313
73540W        W45800  21.226  42.843  11.102
73541W        W45801  24.423  22.529  13.332
73542W        W45802  39.913   4.968  14.859
73543W        W45803  41.069  34.420  14.410
73544W        W45804  11.743  18.577   0.503
73545W        W45805   0.886  22.009  11.139
73546W        W45806   6.792  33.713  13.911
73547W        W45807   5.251  17.619  11.967
73548W        W45808  34.502  30.613   0.430
73549W        W45809  20.075  29.605  14.031
73550W        W45810  34.466  42.262  12.923
73551W        W45811   8.842  13.067  11.555
73552W        W45812  25.829   6.936   3.289
73553W        W45813  30.064  34.570  12.859
73554W        W45814  23.765  11.169  13.983
73555W        W45815  40.087  42.516   1.281
73556W        W45816  37.487  11.721  11.539
73557W        W45817  29.296  43.571   4.468
73558W        W45818  21.404  37.805  12.440
73559W        W45819  16.391  29.055   2.396
73560W        W45820  20.197  28.745  12.381
73561W        W45821  10.108  31.372  13.888
73562W        W45822  23.647  29.901   1.929
73563W        W45823  39.897  13.467   0.964
73564W        W45824  34.550  41.912  11.546
73565W        W45825   2.719  17.099   4.216
73566W        W45826  19.803  18.900   0.750
73567W        W45827  26.282  20.197  12.056
73568W        W45828   9.259  35.462  12.875
73569W        W45829  23.039  24.616   1.974
73570W        W45830  31.547  21.503   0.290
73571W        W45831   3.815  21.234  10.434
73572W        W45832  21.563  38.980   1.361
73573W        W45833  29.526  14.677  12.622
73574W        W45834  39.863  35.547  13.366
73575W        W45835  41.430  15.593   0.877
73576W        W45836  22.264  28.894  11.467
73577W        W45837  43.772  26.691   3.875
73578W        W45838  30.922   6.760   4.086
73579W        W45839  11.778  21.301   1.440
73580W        W45840  14.097   7.380   1.759
73581W        W45841  39.378  16.410  14.342
73582W        W45842   3.577  29.531   4.163
73583W        W45843  31.461  38.793   4.154
73584W        W45844   1.921  28.011   2.057
73585W        W45845  33.302  41.196  12.173
73586W        W45846  24.446  40.349   4.140
73587W        W45847  29.330  12.262  10.700
73588W        W45848  42.395   4.548  13.991
73589W        W45849   1.261  26.202  14.091
73590W        W45850  20.733   7.182   5.101
73591W        W45851  16.384   7.140  11.480
73592W        W45852   8.223  16.627   3.584
73593W        W45853  40.611   2.278  14.106
73594W        W45854  28.696  31.036  13.868
73595W        W45855  26.667  31.811  13.361
73596W        W45856  30.619  21.642   3.818
73597W        W45857  10.109  10.597   4.517
73598W        W45858  14.287   6.365   3.223
73599W        W45859   9.584  27.090   3.397
73600W        W45860  27.944  23.095   2.669
73601W        W45861  15.493   5.235   3.797
73602W        W45862  31.127  20.512   2.874
73603W        W45863  21.313   4.418  11.267
73604W        W45864  22.096  12.413   2.787
73605W        W45865  36.343  24.539  13.951
73606W        W45866  12.108  12.342   2.164
73607W        W45867  32.906  27.446   4.094
73608W        W45868   9.049  19.636   1.581
73609W        W45869   8.413  35.876  14.705
73610W        W45870   2.837  23.319  13.252
73611W        W45871  43.464   6.006   3.698
73612W        W45872  39.297  18.345   3.113
73613W        W45873  41.353  40.329   3.678
73614W        W45874  16.285  37.497  12.991
73615W        W45875  42.828  29.830   3.720
73616W        W45876  16.552   3.782   1.804
73617W        W45877   2.595  20.624  14.030
73618W        W45878  44.382  32.288  13.154
73619W        W45879  34.619  15.571  14.389
73620W        W45880  41.833   1.426   3.331
73621W        W45881  23.931   9.194  11.771
73622W        W45882  36.369   6.171  14.822
73623W        W45883  11.843  15.740  12.935
73624W        W45884   9.269   8.731   4.600
73625W        W45885  39.971  23.653   1.351
73626W        W45886  37.862   2.549   4.141
73627W        W45887  33.857  23.200  12.388
73628W        W45888  36.657  34.690  12.474
73629W        W45889  31.500   1.966   2.186
73630W        W45890  25.023  23.940  14.409
73631W        W45891  34.784  11.629   2.524
73632W        W45892  38.162  27.161   2.354
73633W        W45893   0.819  23.614   2.218
73634W        W45894  43.846  19.243   0.324
73635W        W45895  27.456  44.328   0.237
73636W        W45896  15.845   5.973   3.215
73637W        W45897  15.125  11.418  12.488
73638W        W45898  24.981  14.924  11.477
73639W        W45899  33.433  32.087   1.668
73640W        W45900   1.871  26.432  10.949
73641W        W45901  20.510   2.013   3.416
73642W        W45902  36.985   4.852   1.229
73643W        W45903  22.520  37.545  10.231
73644W        W45904  20.258  38.183  11.915
73645W        W45905  17.376   9.790   1.734
73646W        W45906   7.629  25.836  14.259
73647W        W45907   5.651  11.778  11.561
73648W        W45908  12.970  40.767  14.463
73649W        W45909  10.746   7.374  13.130
73650W        W45910  21.645  20.186  12.756
73651W        W45911  12.293  15.625   3.252
73652W        W45912  19.771   5.618  11.217
73653W        W45913  21.988  26.238   1.813
73654W        W45914  36.955  28.993  10.753
73655W        W45915   4.808   3.002   0.950
73656W        W45916  37.524  39.655  13.601
73657W        W45917  11.388  10.182   0.925
73658W        W45918  31.957  43.663   9.855
73659W        W45919  14.651   3.188  10.753
73660W        W45920   5.832  36.206  10.465
73661W        W45921  21.667  39.059  12.113
73662W        W45922   1.528  27.906  11.639
73663W        W45923   1.930  31.584   4.173
73664W        W45924  12.507  29.093  10.216
73665W        W45925  40.715  38.978   1.392
73666W        W45926  31.374  39.880  11.221
73667W        W45927   0.248   9.425   1.013
73668W        W45928  41.751  36.236   2.508
73669W        W45929  16.202   5.689   4.403
73670W        W45930  39.419  16.796  11.037
73671W        W45931  18.258  39.313   2.141
73672W        W45932   3.864  37.510  14.742
73673W        W45933   3.278  28.032  14.815
73674W        W45934  16.311  20.198  11.113
73675W        W45935  15.525  40.513   1.481
73676W        W45936  35.410  18.310   5.508
73677W        W45937  42.536  41.275  10.723
73678W        W45938  23.218   6.122  13.348
73679W        W45939  12.187  36.316  14.298
73680W        W45940  30.823  31.668  12.495
73681W        W45941   9.339  24.523  12.056
73682W        W45942  26.174  40.579   1.711
73683W        W45943  34.221   9.225  14.467
73684W        W45944  41.192   7.272  13.779
73685W        W45945  11.221  12.050   0.358
73686W        W45946  30.555  19.134  13.122
73687W        W45947  17.507   1.331   0.294
73688W        W45948  32.885  22.615  13.387
73689W        W45949  19.456  37.813   4.817
73690W        W45950  17.630  29.187   4.237
73691W        W45951   3.341   7.779   2.822
73692W        W45952   3.877  28.505   1.799
73693W        W45953  42.434  32.473  14.280
73694W        W45954  36.577  25.607   3.635
73695W        W45955  34.127   7.760  10.632
73696W        W45956  12.639  22.600  13.891
73697W        W45957  37.186   2.463   0.938
73698W        W45958  28.264  38.807   0.494
73699W        W45959  34.390  19.117   3.710
73700W        W45960  30.538  31.591  10.191
73701W        W45961  39.436  18.111   4.474
73702W        W45962  27.847  33.845   4.271
73703W        W45963  16.990  22.012  12.539
73704W        W45964   4.882  12.105  12.916
73705W        W45965  16.166  20.993   0.252
73706W        W45966  20.784  15.300   3.730
73707W        W45967   6.212  22.105  10.665
73708W        W45968  42.071  44.499  13.697
73709W        W45969  29.016  42.934   1.963
73710W        W45970   0.520   4.832  13.050
73711W        W45971  17.827  15.490   1.337
73712W        W45972  11.140  30.255   3.503
73713W        W45973  43.214  30.376   2.392
73714W        W45974  42.161  33.022  14.259
73715W        W45975  20.729  17.792   2.458
73716W        W45976   2.150  15.264  14.257
73717W        W45977   2.783   6.290   2.261
73718W        W45978   6.640  10.319   3.730
73719W        W45979   7.309   8.839  13.853
73720W        W45980  26.722   7.186   1.703
73721W        W45981   5.345  42.521  11.107
73722W        W45982  13.245  35.415  12.754
73723W        W45983  31.268  38.032  14.947
73724W        W45984   1.254  32.984   2.601
73725W        W45985  33.995   5.175   2.197
73726W        W45986  25.462  24.692  14.762
73727W        W45987  30.588  26.079   3.362
73728W        W45988  11.487  30.624   3.466
73729W        W45989  30.040  44.614   1.301
73730W        W45990  31.815  10.882   2.017
73731W        W45991  36.546  18.872   1.389
73732W        W45992  33.309  17.152   5.088
73733W        W45993  28.620   3.179   2.341
73734W        W45994  19.677   0.297   4.470
73735W        W45995  13.885  21.107  14.333
73736W        W45996  42.395  33.714   0.820
73737W        W45997  11.587  34.459   0.864
73738W        W45998   3.738   8.196   4.568
73739W        W45999  44.911  11.714   3.841
73740W        W46000  22.876  42.741   4.923
73741W        W46001  38.888   0.127   3.309
73742W        W46002  28.664   6.182  12.070
73743W        W46003  21.052   1.223  12.738
73744W        W46004  34.991  10.592  10.642
73745W        W46005  11.298  34.566   4.585
73746W        W46006  23.684  37.077   4.878
73747W        W46007  18.859  17.599  14.362
73748W        W46008   8.743  26.086   0.527
73749W        W46009  24.727  17.457  13.167
73750W        W46010  43.805   0.299  14.548
73751W        W46011  23.077  27.965   5.404
73752W        W46012  18.727   5.028   1.809
73753W        W46013  36.964  33.434   0.035
73754W        W46014  31.609  30.177   3.356
73755W        W46015   4.222  20.998  10.672
73756W        W46016  24.326  36.519  14.432
73757W        W46017   8.517  29.928  14.319
73758W        W46018   0.777   6.264   3.821
73759W        W46019  34.603  36.061   0.104
73760W        W46020   2.621  29.598  13.821
73761W        W46021  40.135  38.662   0.293
73762W        W46022  24.693   9.851  13.914
73763W        W46023  39.337  20.480  11.925
73764W        W46024  34.986  42.379   4.697
73765W        W46025  17.090  43.338  14.438
73766W        W46026  29.002  43.771  14.877
73767W        W46027  36.915  38.903   4.318
73768W        W46028  30.058   9.378   0.307
73769W        W46029  10.391  32.566  14.638
73770W        W46030   9.659  39.459  10.842
73771W        W46031   7.049  33.239  10.729
73772W        W46032  42.391  44.599  14.940
73773W        W46033  27.987  32.189   1.938
73774W        W46034  22.185  36.480  12.587
73775W        W46035   2.979   1.832  14.436
73776W        W46036   0.716  17.172  12.692
73777W        W46037  16.302  40.482   2.074
73778W        W46038   2.283  27.389   3.564
73779W        W46039  21.237  38.969  14.831
73780W        W46040  37.239  44.959   0.776
73781W        W46041  18.153  12.320  11.989
73782W        W46042  42.253   6.976   3.763
73783W        W46043  38.008  39.060  13.410
73784W        W46044  30.595  22.770   2.881
73785W        W46045  36.552   3.174  12.539
73786W        W46046  21.019  38.495  14.787
73787W        W46047  43.019   0.409   4.691
73788W        W46048  36.820  37.090   2.373
73789W        W46049  31.420   9.149  11.740
73790W        W46050  18.751  17.544  13.490
73791W        W46051  15.710  43.055   1.836
73792W        W46052  20.995   8.458  13.161
73793W        W46053  16.343   1.030  13.500
73794W        W46054  24.218  34.012  11.749
73795W        W46055  21.057  28.514   1.564
73796W        W46056  26.011  41.237   5.076
73797W        W46057   5.294   0.289  11.451
73798W        W46058  22.841  14.285   2.085
73799W        W46059  38.022   9.335   9.787
73800W        W46060   2.723  11.685  13.017
73801W        W46061  43.881   6.793   1.336
73802W        W46062   1.283  43.920   2.789
73803W        W46063   8.742  26.189  11.976
73804W        W46064  10.895   1.405   1.377
73805W        W46065  37.896  21.546   1.268
73806W        W46066  32.447  37.997   3.201
73807W        W46067  29.516  29.892   9.642
73808W        W46068   9.323  25.301  14.648
73809W        W46069   4.338   5.248   4.497
73810W        W46070  33.484  21.277  12.891
73811W        W46071   1.472  28.030   1.826
73812W        W46072  35.050  42.005   2.373
73813W        W46073  40.054  10.238  12.493
73814W        W46074   1.113  31.700   2.220
73815W        W46075  39.937  27.975  12.709
73816W        W46076  30.703  30.904  12.398
73817W        W46077  36.995  41.551  11.511
73818W        W46078  12.589  44.743  10.617
73819W        W46079  23.202  37.648  10.744
73820W        W46080  42.789  20.999  10.057
73821W        W46081  16.645  44.610   3.246
73822W        W46082  35.964  12.326   0.218
73823W        W46083  38.854   8.637   3.642
73824W        W46084  29.439  24.195   2.561
73825W        W46085  29.610  37.410  14.526
73826W        W46086  11.942  37.252   3.703
73827W        W46087  27.694  26.214  12.349
73828W        W46088   6.905  37.393  13.973
73829W        W46089  12.708  26.550   4.565
73830W        W46090   9.403   6.325  14.509
73831W        W46091  33.190   6.762   0.241
73832W        W46092  32.068  39.365  12.013
73833W        W46093  42.797  34.573  11.163
73834W        W46094   6.300  19.744   1.806
73835W        W46095  17.822  37.530   1.645
73836W        W46096   7.919  35.693  14.804
73837W        W46097   6.390  16.670  12.125
73838W        W46098  25.255  41.728   9.910
73839W        W46099  31.367   7.442   5.131
73840W        W46100  22.564  38.411   1.829
73841W        W46101  18.409   7.693  12.017
73842W        W46102  11.078   4.296   4.591
73843W        W46103  17.566  15.176  11.572
73844W        W46104   9.664   4.661  13.901
73845W        W46105  34.098  11.209  12.004
73846W        W46106  28.493   3.781  14.263
73847W        W46107  28.945  24.017   3.223
73848W        W46108  26.000  16.273  13.088
73849W        W46109  21.832   7.723  14.255
73850W        W46110  29.472  19.829  13.489
73851W        W46111  26.521  19.529   2.201
73852W        W46112  39.495  35.857  11.582
73853W        W46113  28.042  13.517  11.234
73854W        W46114  28.263  16.194  14.441
73855W        W46115  13.432  14.802  12.031
73856W        W46116  34.014  21.243   0.367
73857W        W46117  11.173   2.871   1.036
73858W        W46118   5.937  22.661  12.358
73859W        W46119  23.010  43.812  14.859
73860W        W46120   8.697   5.266  12.606
73861W        W46121  33.925  36.869  14.327
73862W        W46122  34.527  41.109  13.975
73863W        W46123  28.068  38.332   3.478
73864W        W46124   5.166  26.145   4.323
73865W        W46125  24.294  31.093  14.020
73866W        W46126  33.921  22.097  11.991
73867W        W46127  32.915  27.552  11.979
73868W        W46128   2.482  24.965  14.472
73869W        W46129   8.634  30.822  13.318
73870W        W46130  31.039   1.081  12.318
73871W        W46131  29.168  31.055   2.410
73872W        W46132  30.094  23.784  12.856
73873W        W46133  21.531  32.660   2.971
73874W        W46134  31.140  39.471   0.709
73875W        W46135   2.820  39.849   1.645
73876W        W46136  19.947  20.192  11.640
73877W        W46137  12.690   6.143   1.278
73878W        W46138  23.612  30.699  10.566
73879W        W46139   2.726  19.787  13.391
73880W        W46140   4.322  41.585  11.611
73881W        W46141  28.736  33.120  14.543
73882W        W46142  16.167  41.961   0.949
73883W        W46143  25.110  42.432  13.013
73884W        W46144  22.631  11.702   2.653
73885W        W46145  15.310  19.668   1.289
73886W        W46146  34.615  19.893  13.961
73887W        W46147  22.689   2.270  12.340
73888W        W46148   3.000   0.130  13.333
73889W        W46149  23.845  37.921   3.760
73890W        W46150  16.231  41.461  13.410
73891W        W46151   4.472   1.795   2.223
73892W        W46152  39.152  26.434  12.612
73893W        W46153  32.678  40.835  11.673
73894W        W46154  42.703  36.570   4.027
73895W        W46155   6.159  43.778   0.965
73896W        W46156  11.637  18.497  14.372
73897W        W46157   0.561  23.791  14.872
73898W        W46158  40.745  18.522   0.792
73899W        W46159  10.618  16.088  12.875
73900W        W46160  13.004   1.539   2.888
73901W        W46161  41.323  28.369   4.105
73902W        W46162  24.620   7.892  11.920
73903W        W46163  34.492   2.930   4.581
73904W        W46164   1.961  19.120   4.269
73905W        W46165   6.663  40.667  14.881
73906W        W46166   3.572   6.798   4.891
73907W        W46167  44.409  21.099  10.499
73908W        W46168   0.437  16.588   4.094
73909W        W46169  32.824  42.109   4.655
73910W        W46170  20.696  42.789  11.051
73911W        W46171  15.670  15.174  10.543
73912W        W46172  42.846   6.232   0.430
73913W        W46173  36.360  21.708   0.018
73914W        W46174  28.561  18.027   2.710
73915W        W46175  17.342   3.395   1.609
73916W        W46176  13.331  29.546  14.349
73917W        W46177  42.296  16.898   1.385
73918W        W46178   9.768  10.357   4.144
73919W        W46179   6.964  40.018  13.496
73920W        W46180   1.011  43.798   1.272
73921W        W46181   3.227   7.641  11.240
73922W        W46182  18.022  19.926   2.866
73923W        W46183  20.151   7.856  11.573
73924W        W46184  43.658  11.609  14.791
73925W        W46185  21.256  25.950  14.732
73926W        W46186  33.294  31.146   1.275
73927W        W46187  43.476  42.130  13.609
73928W        W46188  38.094  30.764  14.107
73929W        W46189   5.397   0.127   4.361
73930W        W46190   6.828   7.217   2.661
73931W        W46191  39.806   6.691   4.097
73932W        W46192  23.075  33.278  12.999
73933W        W46193  23.364   6.011  12.483
73934W        W46194  17.023  41.540  10.142
73935W        W46195  16.796  17.131  14.699
73936W        W46196  23.844  18.123  14.408
73937W        W46197   8.639  15.659  13.506
73938W        W46198  17.559   7.010   0.735
73939W        W46199  39.864  10.444  13.914
73940W        W46200   0.740  43.895  12.716
73941W        W46201  30.307  14.646  11.981
73942W        W46202  40.981  41.225   1.952
73943W        W46203  26.039   0.349  13.475
73944W        W46204  32.054  30.160   4.207
73945W        W46205  40.069  22.640  10.940
73946W        W46206  14.881  14.641   1.251
73947W        W46207  35.566  42.692   3.236
73948W        W46208  35.263   9.196  13.522
73949W        W46209  30.721  33.420  10.652
73950W        W46210  12.879  10.894   0.009
73951W        W46211  18.485  24.981   3.248
73952W        W46212   5.929   5.153   0.628
73953W        W46213  28.551   7.705  13.936
73954W        W46214   5.243   0.225  14.116
73955W        W46215  27.672  12.208  12.633
73956W        W46216  36.575   1.783   3.150
73957W        W46217  19.996  35.867   1.253
73958W        W46218  11.086  42.784   4.903
73959W        W46219  22.097  37.831  10.370
73960W        W46220  28.302  14.732  10.324
73961W        W46221   2.375  20.593  13.576
73962W        W46222   1.428   9.443  11.075
73963W        W46223  30.841   8.847   3.311
73964W        W46224  26.911  39.821   2.752
73965W        W46225   2.997  16.413   3.244
73966W        W46226  37.603  40.942  14.738
73967W        W46227  43.619  26.830  10.404
73968W        W46228  44.082  33.408  11.086
73969W        W46229  27.402  29.913   1.513
73970W        W46230  43.868  27.199  10.697
73971W        W46231  17.414   5.487   2.089
73972W        W46232  39.871  17.877  14.054
73973W        W46233  16.026  14.791   4.993
73974W        W46234  14.543   2.171   1.156
73975W        W46235  30.517  13.383   4.525
73976W        W46236   5.844  22.930  11.927
73977W        W46237   6.955  12.987  12.897
73978W        W46238  23.476  31.360  12.080
73979W        W46239  22.331  28.675   1.019
73980W        W46240   0.201  23.610  13.261
73981W        W46241  23.199   0.686   2.115
73982W        W46242  27.909  22.536   0.533
73983W        W46243  20.640  27.521  12.892
73984W        W46244  32.519  34.868   1.285
73985W        W46245  24.154  17.718   2.205
73986W        W46246  32.132  33.642   1.276
73987W        W46247  20.676  20.215   0.383
73988W        W46248  12.132  20.164   0.953
73989W        W46249  25.521   0.787   2.278
73990W        W46250   7.765  11.255  11.957
73991W        W46251   1.353   0.810  12.846
73992W        W46252  30.539  37.596  11.493
73993W        W46253  20.653  18.232  10.097
73994W        W46254  41.058  26.771  11.012
73995W        W46255  37.471  21.056   0.757
73996W        W46256  32.185  32.027  12.608
73997W        W46257  31.975  43.864   1.419
73998W        W46258  26.042  18.996  12.407
73999W        W46259  16.601  33.530  13.512
74000W        W46260  40.782   4.264   3.820
74001W        W46261  44.866  21.325   1.984
74002W        W46262   8.380  32.918   4.114
74003W        W46263  24.453  22.221  14.664
74004W        W46264  30.500   5.995   3.785
74005W        W46265   3.951  16.501  13.846
74006W        W46266  12.479  22.702   0.326
74007W        W46267  22.223   2.749   0.364
74008W        W46268  13.675  20.775  13.941
74009W        W46269   0.315  42.517  11.960
74010W        W46270   4.394   2.328  14.958
74011W        W46271   3.181  38.949   1.328
74012W        W46272  30.010  26.360   1.934
74013W        W46273  34.880   7.750   1.936
74014W        W46274  13.383  28.700   3.154
74015W        W46275  36.470  42.082  14.237
74016W        W46276  13.638   1.947   1.754
74017W        W46277  42.832   5.109   5.081
74018W        W46278  21.174  21.920  12.219
74019W        W46279  23.612   7.157   0.132
74020W        W46280   6.788  21.746   1.967
74021W        W46281  31.903  25.248  12.502
74022W        W46282   8.422  15.225   1.362
74023W        W46283   5.678  35.567   1.863
74024W        W46284   8.402  12.288   4.133
74025W        W46285   2.947  14.795  14.354
74026W        W46286  30.394   2.275   2.944
74027W        W46287  42.746  43.807   1.624
74028W        W46288   5.016   0.738  11.440
74029W        W46289  30.653   6.795   1.909
74030W        W46290  13.272  36.165   5.332
74031W        W46291  27.078  44.222  14.895
74032W        W46292  14.590  26.733  13.918
74033W        W46293  41.238   4.415   1.760
74034W        W46294  38.178  32.593   0.596
74035W        W46295  33.751  42.993   3.295
74036W        W46296   6.147   1.743  11.035
74037W        W46297   4.015  27.060  14.346
74038W        W46298  26.231  26.982  11.959
74039W        W46299  23.140  15.111  10.802
74040W        W46300  29.175  44.045   2.722
74041W        W46301  35.023  18.729   5.524
74042W        W46302  19.538  33.652   1.933
74043W        W46303  11.156  38.299  10.705
74044W        W46304  38.990  26.913  11.166
74045W        W46305  34.551  26.090   2.919
74046W        W46306  14.140  42.137  13.502
74047W        W46307  39.389  36.938   3.179
74048W        W46308   1.849   7.398   0.431
74049W        W46309   4.129   1.129   2.733
74050W        W46310  42.042  29.001  13.464
74051W        W46311  22.087   2.213   0.021
74052W        W46312  27.884   5.791   0.256
74053W        W46313  32.079  40.115  12.902
74054W        W46314  23.519  44.344  11.436
74055W        W46315  42.772  36.034   2.804
74056W        W46316  10.601  18.022  11.966
74057W        W46317  16.650  24.537  11.882
74058W        W46318  23.384  20.420   4.083
74059W        W46319  34.941  27.573   4.436
74060W        W46320   3.781  22.595  13.646
74061W        W46321   2.773  30.050   4.486
74062W        W46322  28.550  19.680   3.059
74063W        W46323  32.368  44.232   1.370
74064W        W46324  43.097  31.186   5.163
74065W        W46325  32.151   9.328  14.521
74066W        W46326   7.617  28.572   2.333
74067W        W46327   6.254  29.902   4.738
74068W        W46328   8.356  25.045   2.686
74069W        W46329   4.729  23.614   4.478
74070W        W46330   5.323  35.369   2.382
74071W        W46331  21.119  18.740  14.428
74072W        W46332  42.284  21.718  13.912
74073W        W46333  29.996  25.093  14.071
74074W        W46334  22.458   1.803  12.200
74075W        W46335   5.457  12.376   0.841
74076W        W46336  30.063  43.825   0.438
74077W        W46337  22.040  29.484  13.958
74078W        W46338  34.453   5.439  11.928
74079W        W46339  40.976   7.824  12.876
74080W        W46340  10.414  40.129  11.622
74081W        W46341   4.996  36.374   4.502
74082W        W46342  41.009  26.742  13.015
74083W        W46343  12.874  19.146   3.669
74084W        W46344   2.986   9.395  13.476
74085W        W46345  31.510  44.227   3.644
74086W        W46346  10.477  18.244   3.267
74087W        W46347  15.678  25.210  11.187
74088W        W46348  23.650  26.170   1.160
74089W        W46349  38.281  38.367  13.884
74090W        W46350  21.755  33.704  10.280
74091W        W46351  30.529  18.965   1.202
74092W        W46352  29.016  44.964  13.263
74093W        W46353  13.268  19.571   4.962
74094W        W46354  26.931   4.258  11.128
74095W        W46355  16.653  39.315   2.854
74096W        W46356  24.013  29.538   3.417
74097W        W46357  40.811   4.917  10.656
74098W        W46358  11.341  17.770   4.952
74099W        W46359  26.752  36.731   0.452
74100W        W46360  34.900  16.716  14.633
74101W        W46361  38.374   7.156  14.470
74102W        W46362  40.508   7.876   1.333
74103W        W46363   0.276  22.201  14.837
74104W        W46364  11.278   5.847   0.926
74105W        W46365  15.250  37.001   3.254
74106W        W46366  18.704  27.256   2.860
74107W        W46367  10.687  19.658   3.801
74108W        W46368   4.151  24.591  11.927
74109W        W46369  27.040   7.355  10.390
74110W        W46370  39.013  30.042   1.224
74111W        W46371   2.929  18.816  13.127
74112W        W46372  27.573  15.420  14.295
74113W        W46373  17.034  27.871   2.377
74114W        W46374   2.977  16.087   1.699
74115W        W46375  36.755  12.721   1.187
74116W        W46376  25.574  41.848   4.168
74117W        W46377  28.709  44.948  12.841
74118W        W46378  16.226  21.344   1.283
74119W        W46379   5.250  20.670   3.030
74120W        W46380   4.668  20.299   3.361
74121W        W46381  40.266  30.506   5.176
74122W        W46382  39.686  19.138  13.424
74123W        W46383   6.584  44.444   0.985
74124W        W46384  32.195   0.446  10.599
74125W        W46385  21.960  32.036  13.766
74126W        W46386   5.361  42.852   2.353
74127W        W46387  26.526  17.530  13.293
74128W        W46388  19.501  12.243  14.347
74129W        W46389  36.277  16.885   9.837
74130W        W46390  23.976  11.963   3.653
74131W        W46391  30.086   7.001   1.301
74132W        W46392  21.663  17.165  10.760
74133W        W46393   1.996  34.749  13.785
74134W        W46394  32.281   5.226  14.943
74135W        W46395  28.961  34.091  11.402
74136W        W46396  33.057  28.425   2.958
74137W        W46397   6.322  27.867  10.493
74138W        W46398  34.019  12.224  12.916
74139W        W46399  16.827   4.326  12.440
74140W        W46400  42.179  31.527  14.006
74141W        W46401  15.147  30.354  10.575
74142W        W46402  18.204  22.150  12.674
74143W        W46403  13.925   0.797  14.955
74144W        W46404   0.865  11.473  14.725
74145W        W46405  18.505  18.743  13.301
74146W        W46406  11.195  20.655  10.959
74147W        W46407  31.318  26.152  12.545
74148W        W46408   1.631  18.290   0.873
74149W        W46409  10.160  16.162   2.419
74150W        W46410   1.429  27.584  13.408
74151W        W46411  21.022  28.121  13.627
74152W        W46412  22.662  10.788   1.605
74153W        W46413  14.715  30.981   0.386
74154W        W46414  41.535  37.956  12.271
74155W        W46415  42.330  27.659   4.651
74156W        W46416  42.098  39.460  14.876
74157W        W46417  34.688   9.217   0.354
74158W        W46418  15.252   5.789   2.605
74159W        W46419   1.040  40.846  12.686
74160W        W46420  11.762  27.614  14.034
74161W        W46421  21.777  16.210  11.817
74162W        W46422  39.041  22.383   4.551
74163W        W46423  40.358  15.878   4.953
74164W        W46424   9.713  17.267   1.233
74165W        W46425  18.690   7.917   2.904
74166W        W46426  32.901   5.714   0.432
74167W        W46427  13.923   2.897  14.925
74168W        W46428  41.811   9.900   3.699
74169W        W46429  24.500   0.158   3.200
74170W        W46430  27.148   3.913   2.601
74171W        W46431  38.534  28.098  13.910
74172W        W46432  36.192  42.233   1.293
74173W        W46433  13.119   8.402   4.932
74174W        W46434  33.763   6.581  13.178
74175W        W46435  38.088   5.661   2.973
74176W        W46436   7.655  36.916  12.788
74177W        W46437  32.937   4.322   0.786
74178W        W46438  20.970   9.733   3.670
74179W        W46439  21.129  40.695  14.481
74180W        W46440  20.296  20.034   2.681
74181W        W46441  15.419  23.117   3.947
74182W        W46442   1.356  13.601   2.277
74183W        W46443  37.043  11.145   2.730
74184W        W46444  38.468   7.680  12.256
74185W        W46445  42.470   9.147   2.737
74186W        W46446  27.487  34.890   4.727
74187W        W46447  31.536  35.137   1.176
74188W        W46448  30.348  16.226   1.267
74189W        W46449   8.100  36.000   2.640
74190W        W46450  11.045  33.800  14.827
74191W        W46451  33.039  23.432  12.390
74192W        W46452   2.727   7.698  12.491
74193W        W46453  35.570  15.620   3.897
74194W        W46454  30.520   6.129   2.589
74195W        W46455  12.551   0.302  14.784
74196W        W46456  36.816  19.920  11.050
74197W        W46457   9.339  13.195   0.613
74198W        W46458  44.362   3.373   0.741
74199W        W46459  36.843   8.232  12.071
74200W        W46460  36.852  23.916   1.409
74201W        W46461  14.442   9.832  11.928
74202W        W46462  10.246  22.231  11.255
74203W        W46463   8.825  13.746   1.226
74204W        W46464  40.019  38.877   4.567
74205W        W46465  40.499  15.542   1.801
74206W        W46466  25.757   1.544   2.568
74207W        W46467  11.795  33.026  11.515
74208W        W46468   5.838  11.590  14.898
74209W        W46469  27.893  28.724   1.203
74210W        W46470  20.592  25.808   4.083
74211W        W46471  21.819  10.594   4.171
74212W        W46472  18.729  26.914  11.488
74213W        W46473  13.985  30.000   0.748
74214W        W46474  28.396   4.929   1.221
74215W        W46475  41.752  31.983   3.748
74216W        W46476  24.529   5.328   1.837
74217W        W46477  33.967  44.080  14.869
74218W        W46478  24.117   7.955  14.348
74219W        W46479   4.000  36.024   2.520
74220W        W46480   3.488  24.122   3.443
74221W        W46481  42.491  33.105  14.651
74222W        W46482  26.474  21.161  13.368
74223W        W46483  14.172  21.864   3.309
74224W        W46484  34.595  35.365   1.910
74225W        W46485  37.798   7.671  11.095
74226W        W46486   6.423   4.821   4.230
74227W        W46487  29.521  26.556  11.168
74228W        W46488  39.820  39.861  13.946
74229W        W46489  35.709   9.940  14.900
74230W        W46490  34.095  31.655  10.609
74231W        W46491   7.165  37.051   5.205
74232W        W46492  25.259  25.598   0.352
74233W        W46493  15.719  13.378  14.521
74234W        W46494  39.045  21.567   4.154
74235W        W46495  42.073  14.980   1.426
74236W        W46496  44.249  20.754  13.534
74237W        W46497   6.275  28.090  12.896
74238W        W46498  25.367  43.095   4.636
74239W        W46499  31.370  21.008   1.350
74240W        W46500  30.492  44.863  12.708
74241W        W46501  39.905  28.487   3.636
74242W        W46502   6.695   7.773  13.367
74243W        W46503  40.592   0.864  14.318
74244W        W46504  12.814  39.009   0.782
74245W        W46505  29.709  10.148   4.669
74246W        W46506  39.508  26.962   2.630
74247W        W46507  26.214  22.163   0.759
74248W        W46508  25.576  15.784   1.057
74249W        W46509  16.918  36.540   0.700
74250W        W46510   4.954  15.237   2.234
74251W        W46511  37.298  43.979   2.033
74252W        W46512  12.670  11.457   4.203
74253W        W46513  15.546   5.799   4.115
74254W        W46514  31.028   4.898  11.863
74255W        W46515  44.966  26.092  11.576
74256W        W46516  17.261  20.336   1.875
74257W        W46517  10.966   9.344   2.760
74258W        W46518  32.676   7.909   1.855
74259W        W46519  25.657   7.395   3.690
74260W        W46520  11.601  30.217  11.561
74261W        W46521  31.473   2.112   5.014
74262W        W46522  18.206  40.066  12.005
74263W        W46523  25.993  13.220  12.378
74264W        W46524   1.023   9.149  11.959
74265W        W46525  22.277  13.394   2.730
74266W        W46526  41.703  44.745   2.791
74267W        W46527  43.011  19.778  13.405
74268W        W46528  24.659  22.043  14.211
74269W        W46529   3.211  26.565  14.433
74270W        W46530  21.775  17.760  12.947
74271W        W46531   8.356  13.230   2.789
74272W        W46532  40.877  40.107  12.111
74273W        W46533  23.472  26.362  11.197
74274W        W46534  13.765  30.983   1.759
74275W        W46535  12.325  25.729  10.710
74276W        W46536  35.790  18.697  10.543
74277W        W46537  35.258  11.763  12.090
74278W        W46538  28.917  43.437   1.795
74279W        W46539  28.473  40.803  14.989
74280W        W46540  33.903  39.360  14.484
74281W        W46541  24.537  16.190   3.963
74282W        W46542  13.297  30.568   5.794
74283W        W46543  32.444  38.502   4.362
74284W        W46544  42.081  20.540   0.156
74285W        W46545  38.878  30.040  10.294
74286W        W46546  13.240  35.592   2.955
74287W        W46547  32.697  44.796  12.483
74288W        W46548  18.396  43.038   4.592
74289W        W46549  24.771   2.825   4.731
74290W        W46550  23.713  36.396   0.937
74291W        W46551  16.063  20.124  11.578
74292W        W46552   7.396  32.568  14.941
74293W        W46553  43.378  22.068   0.764
74294W        W46554   6.963  41.941  13.420
74295W        W46555  36.494  30.431   0.410
74296W        W46556  17.679  42.449  11.576
74297W        W46557  12.721  40.619  11.568
74298W        W46558  36.849   0.761   1.108
74299W        W46559  34.396  27.828   3.916
74300W        W46560   2.216  44.837  10.727
74301W        W46561  43.962  29.286  13.399
74302W        W46562  12.181   3.519  14.943
74303W        W46563  42.903  14.345   1.288
74304W        W46564  25.154  14.855   2.754
74305W        W46565  12.490  33.977  11.827
74306W        W46566   8.385  42.428  14.952
74307W        W46567  19.590   1.323   1.847
74308W        W46568  25.758  39.895   2.291
74309W        W46569  21.459   0.910  14.326
74310W        W46570  28.629  18.177   4.022
74311W        W46571  33.881  10.216   3.184
74312W        W46572   3.606  22.573  10.316
74313W        W46573   1.803  27.891   4.458
74314W        W46574  31.890   9.780   3.779
74315W        W46575  34.420  22.971   1.272
74316W        W46576  22.036   2.964  13.367
74317W        W46577  39.981   3.849   4.075
74318W        W46578  21.524  44.889  14.581
74319W        W46579  28.674  11.117  11.941
74320W        W46580  33.360  14.916   0.491
74321W        W46581  20.259  40.322   0.886
74322W        W46582  27.632  42.823   3.858
74323W        W46583  17.785  10.060   0.886
74324W        W46584  41.338  29.439   0.810
74325W        W46585  17.815  16.772  12.114
74326W        W46586  11.906   9.298   2.855
74327W        W46587  14.858  40.845  11.998
74328W        W46588  22.876  41.961   2.210
74329W        W46589  16.096   7.530   3.736
74330W        W46590  38.508  43.204  14.326
74331W        W46591  20.124  23.896   1.313
74332W        W46592  28.895  14.049  11.617
74333W        W46593   2.180  32.943   4.075
74334W        W46594  44.901  36.045  11.630
74335W        W46595   0.440  38.814   1.264
74336W        W46596  34.749  19.076   4.101
74337W        W46597  29.044  12.821   4.729
74338W        W46598  40.532  40.426  13.816
74339W        W46599  20.308   3.734  11.669
74340W        W46600  34.921  26.920  13.371
74341W        W46601  39.459  39.929  10.415
74342W        W46602  27.360  37.367  12.751
74343W        W46603  38.797  28.572  11.990
74344W        W46604  38.095   5.092  13.031
74345W        W46605  43.224   2.493  14.558
74346W        W46606  41.078  40.316  14.869
74347W        W46607  18.188  10.211   4.558
74348W        W46608  10.533  39.873  11.147
74349W        W46609  17.924  25.063  11.664
74350W        W46610  10.922  38.528  11.144
74351W        W46611   2.659   4.921  11.568
74352W        W46612  30.031  21.084  11.620
74353W        W46613  21.304  13.334  11.001
74354W        W46614  31.560  32.587  14.661
74355W        W46615  24.921  14.259  14.814
74356W        W46616   6.851  25.204   2.370
74357W        W46617  28.014  19.380   4.823
74358W        W46618  35.292  36.599  14.332
74359W        W46619  22.611  17.297   1.256
74360W        W46620  25.524  30.275  13.219
74361W        W46621  17.476   5.084  14.518
74362W        W46622  10.226  27.919  14.009
74363W        W46623  37.004  15.481  11.980
74364W        W46624  33.075  35.411   4.233
74365W        W46625  28.101   4.347  12.102
74366W        W46626  25.053  39.947  10.643
74367W        W46627  10.795  29.023   4.409
74368W        W46628  14.100  36.604   3.393
74369W        W46629   9.384  12.285  14.276
74370W        W46630  22.671   1.846   1.192
74371W        W46631  24.156  43.513  13.788
74372W        W46632  39.233  22.790   0.339
74373W        W46633  42.572  21.034  12.640
74374W        W46634  11.661  41.335   4.470
74375W        W46635  39.977  26.694  11.959
74376W        W46636  12.080  38.206  12.412
74377W        W46637  17.443  30.121   0.777
74378W        W46638  38.937  36.362   3.751
74379W        W46639  21.536   6.249   2.759
74380W        W46640  19.302  39.943   0.818
74381W        W46641  40.769  27.449  14.797
74382W        W46642  19.134  20.245  13.951
74383W        W46643  29.414  35.893   4.380
74384W        W46644   3.703  33.053  14.221
74385W        W46645  10.972  37.488   3.755
74386W        W46646  10.258  35.326  13.751
74387W        W46647  38.785  37.400  14.103
74388W        W46648  11.295   8.311   0.495
74389W        W46649  21.695  15.147   3.336
74390W        W46650  13.670  31.127  10.557
74391W        W46651  28.170   4.322  13.142
74392W        W46652  42.998  41.873  13.588
74393W        W46653  41.744  44.606   1.304
74394W        W46654  24.271  42.868   2.756
74395W        W46655  12.204  13.176  10.913
74396W        W46656  12.427  36.568  12.990
74397W        W46657  34.881  29.232  10.888
74398W        W46658  14.768  44.538  13.571
74399W        W46659  22.843  39.460   1.719
74400W        W46660  27.726  33.098   1.132
74401W        W46661   2.974  43.785   3.586
74402W        W46662  17.224  16.950   5.150
74403W        W46663  32.395  36.400   1.471
74404W        W46664  26.386  26.471   2.017
74405W        W46665  35.400   0.966   1.413
74406W        W46666  33.413  37.605  14.015
74407W        W46667  34.458  18.012   2.173
74408W        W46668  20.191  38.566   3.378
74409W        W46669  34.511   6.328  12.097
74410W        W46670   6.138  37.885  11.059
74411W        W46671  30.527  41.012   2.886
74412W        W46672   9.875   5.160  13.863
74413W        W46673  17.107  34.673   3.368
74414W        W46674  21.612  41.183   4.264
74415W        W46675  35.126  42.981  13.144
74416W        W46676  37.018  38.038  10.664
74417W        W46677   7.962  17.035   1.455
74418W        W46678  27.220   9.466   1.772
74419W        W46679  31.577  43.347   0.984
74420W        W46680  15.747   8.093   3.223
74421W        W46681  18.709  34.416   0.794
74422W        W46682   3.887   7.360  11.277
74423W        W46683   4.314  22.563   4.210
74424W        W46684  19.255   2.498   4.845
74425W        W46685  38.039  38.306   4.672
74426W        W46686  36.324  44.426  11.881
74427W        W46687   5.787  14.128   4.460
74428W        W46688  37.290  19.195   1.427
74429W        W46689  18.644  29.644   4.638
74430W        W46690  20.117   7.455  10.241
74431W        W46691   2.333  33.567   2.380
74432W        W46692   1.374  39.909   3.052
74433W        W46693   9.157  18.582  10.651
74434W        W46694   9.857  21.127  14.690
74435W        W46695  40.866  29.392  12.825
74436W        W46696  20.434  28.713   4.302
74437W        W46697  31.638  22.511  13.897
74438W        W46698  39.009  12.587  10.698
74439W        W46699   7.446   3.709  11.524
74440W        W46700   6.941  44.289   4.336
74441W        W46701  14.765  36.886  11.630
74442W        W46702   8.828  36.862  12.307
74443W        W46703  33.429  29.765   1.334
74444W        W46704  35.550  31.031   0.162
74445W        W46705  29.090  17.695  11.211
74446W        W46706  13.874  10.750  11.919
74447W        W46707   6.106  14.794  10.819
74448W        W46708  27.494   1.897   1.721
74449W        W46709  38.014  36.282  14.480
74450W        W46710  32.643  17.121  13.985
74451W        W46711   3.774  12.859  13.831
74452W        W46712  21.152  22.812   1.889
74453W        W46713  11.636   1.908  10.076
74454W        W46714  12.385  34.534  12.894
74455W        W46715  38.762   0.855  12.951
74456W        W46716  13.763  27.416   3.329
74457W        W46717   7.294  44.349  13.702
74458W        W46718  15.231  15.151  14.004
74459W        W46719  26.692  12.291   4.564
74460W        W46720  36.873   3.356   0.947
74461W        W46721  35.240  14.814   3.479
74462W        W46722  31.984   6.002   3.739
74463W        W46723  38.583  44.638   4.273
74464W        W46724  18.315  32.812  13.520
74465W        W46725   9.779  12.859  13.495
74466W        W46726  31.844  31.518   4.545
74467W        W46727   4.719  41.457  10.566
74468W        W46728  27.257   3.254  14.431
74469W        W46729  21.025  34.997  12.825
74470W        W46730   6.206  21.543   1.115
74471W        W46731  19.435   4.926   2.555
74472W        W46732  12.141  44.948  14.398
74473W        W46733  16.976  24.952  10.686
74474W        W46734   8.881   2.710   1.367
74475W        W46735  44.416  35.868  11.024
74476W        W46736  43.940  26.791   3.220
74477W        W46737   7.659  23.105  12.397
74478W        W46738  28.029  34.630  10.578
74479W        W46739   0.008  29.641   3.259
74480W        W46740  19.572  17.520  11.500
74481W        W46741  34.085  10.932   2.858
74482W        W46742  26.111  40.950  14.030
74483W        W46743   8.323  26.726   3.476
74484W        W46744  23.569  34.922  13.915
74485W        W46745  44.288  15.707  11.928
74486W        W46746  34.421  40.655   2.868
74487W        W46747   9.736   6.438   3.135
74488W        W46748   4.825  15.051   3.139
74489W        W46749  39.417  34.857   3.234
74490W        W46750  15.595  14.203  13.865
74491W        W46751  21.939  14.339   4.860
74492W        W46752  25.486  29.865  12.905
74493W        W46753   9.292   2.928   0.354
74494W        W46754   2.359  20.285   3.532
74495W        W46755  11.823  32.122   2.728
74496W        W46756  19.677  23.397   3.847
74497W        W46757  21.467   2.448   1.323
74498W        W46758  43.021   6.724   1.366
74499W        W46759  27.891   9.102   0.377
74500W        W46760   6.881   3.324   2.891
74501W        W46761   5.794  15.385  12.383
74502W        W46762  21.920  29.372  10.623
74503W        W46763  26.928  14.774  14.537
74504W        W46764   8.711  16.583   2.741
74505W        W46765  36.329   8.795  13.970
74506W        W46766  12.031  17.999  13.010
74507W        W46767  29.598  27.678  10.697
74508W        W46768   9.560  15.739  14.847
74509W        W46769   5.251  32.665  13.682
74510W        W46770   1.498  29.156   0.273
74511W        W46771  29.392  21.580   4.266
74512W        W46772  11.271  13.210   0.426
74513W        W46773  28.111  44.249   3.178
74514W        W46774  39.374   6.135   0.256
74515W        W46775   6.130  44.406   4.138
74516W        W46776  32.561  42.359  13.449
74517W        W46777  22.760   4.905   3.091
74518W        W46778  17.169  21.145   0.354
74519W        W46779  44.912  43.847   4.207
74520W        W46780  28.444  11.771   3.350
74521W        W46781   5.279  40.839   4.356
74522W        W46782  41.718  27.638   2.217
74523W        W46783  29.628  23.620  10.422
74524W        W46784  13.622  37.541  10.663
74525W        W46785  37.358  39.809   3.232
74526W        W46786  42.331   5.262   4.869
74527W        W46787  13.298  43.774  12.534
74528W        W46788  12.074  26.469   1.488
74529W        W46789   8.437   6.704  11.676
74530W        W46790   9.822  30.047  13.963
74531W        W46791  14.588   2.720  12.063
74532W        W46792  31.083  25.527   3.835
74533W        W46793   6.640  36.464  14.709
74534W        W46794   0.941  31.644   3.937
74535W        W46795  35.416  40.019  11.026
74536W        W46796  40.013  22.158  12.116
74537W        W46797  30.678  40.790   3.382
74538W        W46798  11.842  40.449   4.212
74539W        W46799  38.500   7.127  11.199
74540W        W46800  24.518  10.731  13.742
74541W        W46801  31.837  21.705  13.311
74542W        W46802   8.338  30.383  14.526
74543W        W46803   2.357  15.703   2.427
74544W        W46804  29.479  23.219  11.449
74545W        W46805  18.267  22.274   0.303
74546W        W46806  43.894  25.650  12.002
74547W        W46807  12.419  34.349  14.420
74548W        W46808  24.546  41.710  10.707
74549W        W46809   4.769  27.605   4.606
74550W        W46810  14.825  43.059   2.160
74551W        W46811  22.561  26.052   1.775
74552W        W46812   4.904  34.030  13.483
74553W        W46813   9.700  24.168  12.176
74554W        W46814  12.105   7.284   0.095
74555W        W46815  26.205   1.556   4.638
74556W        W46816  16.675  34.405  11.636
74557W        W46817  18.496  32.170  11.607
74558W        W46818  16.660  19.662   1.943
74559W        W46819  40.320  27.168  12.521
74560W        W46820  33.617  19.753   2.732
74561W        W46821  34.318  31.776   3.606
74562W        W46822  26.626  14.572  14.148
74563W        W46823  17.644  21.638  12.840
74564W        W46824   0.103  14.839   4.158
74565W        W46825  33.000  20.107  13.526
74566W        W46826  18.509   5.677  11.278
74567W        W46827  36.002  18.957  14.208
74568W        W46828  12.727  21.311  12.070
74569W        W46829  10.840  39.421   3.798
74570W        W46830   8.464  39.393   1.413
74571W        W46831  19.960  15.225   2.248
74572W        W46832  17.369  19.232   1.788
74573W        W46833  34.926  21.293   4.974
74574W        W46834  37.471  24.952   0.907
74575W        W46835  37.048  32.623   2.404
74576W        W46836   7.857   0.413  13.403
74577W        W46837  29.042  34.983   0.876
74578W        W46838  26.209  44.240   1.437
74579W        W46839  35.893   7.709   3.782
74580W        W46840  43.567  23.556   4.473
74581W        W46841  18.632   7.814  10.572
74582W        W46842  29.159  15.611  12.926
74583W        W46843  18.639  43.775  14.024
74584W        W46844  39.347  16.804   4.206
74585W        W46845  31.666  20.048   4.769
74586W        W46846  28.103  28.373  14.361
74587W        W46847  24.683  40.060   5.459
74588W        W46848  37.817   8.163  12.102
74589W        W46849  21.057  37.565  14.862
74590W        W46850  29.581   3.203   3.683
74591W        W46851  22.804  16.135  13.823
74592W        W46852   3.672  18.980   2.772
74593W        W46853  34.537  44.084   0.949
74594W        W46854  42.805  16.582  13.772
74595W        W46855  27.967  40.328   2.330
74596W        W46856  24.509  43.420   4.094
74597W        W46857   7.439  39.514  10.719
74598W        W46858   3.274  16.085   0.382
74599W        W46859  26.722  37.315   0.985
74600W        W46860   6.831  19.773   1.342
74601W        W46861  42.274  34.019   1.801
74602W        W46862   9.473  44.781   1.757
74603W        W46863  14.342  33.477   0.891
74604W        W46864  12.341  27.616   2.120
74605W        W46865  17.316  35.975   3.661
74606W        W46866   1.951  43.065  11.449
74607W        W46867  20.136  14.639  12.963
74608W        W46868  40.816  13.369   2.327
74609W        W46869  22.576  20.255   3.818
74610W        W46870  13.570   9.594  14.542
74611W        W46871  25.388  31.867  12.430
74612W        W46872  41.994   7.396  12.356
74613W        W46873  40.703  20.258  13.040
74614W        W46874   9.709   7.355   1.218
74615W        W46875  17.075  12.656   1.747
74616W        W46876  11.228   5.532   0.513
74617W        W46877   9.751  25.632   3.758
74618W        W46878  27.496   8.182  11.094
74619W        W46879  33.487   6.284  14.450
74620W        W46880  39.620  15.677   4.998
74621W        W46881  13.687  29.492  10.990
74622W        W46882  37.082  38.307   4.132
74623W        W46883  33.671   0.676   1.251
74624W        W46884  44.004  27.536  14.432
74625W        W46885  39.043  21.060   4.097
74626W        W46886  17.446  25.716   4.424
74627W        W46887  31.856   3.261   2.186
74628W        W46888   8.475   3.475   4.333
74629W        W46889  27.777   4.160   3.775
74630W        W46890  22.574  38.046   4.039
74631W        W46891  14.288  36.127   3.616
74632W        W46892  28.622  27.202  14.722
74633W        W46893  18.584   4.752  13.457
74634W        W46894  25.748   3.698   4.593
74635W        W46895  11.049  43.485  12.952
74636W        W46896   2.898  25.285   0.426
74637W        W46897  23.455  42.457  12.590
74638W        W46898   8.090  22.004  12.909
74639W        W46899  18.770  27.978  10.356
74640W        W46900  25.281  21.164   2.752
74641W        W46901  15.580  14.724   1.826
74642W        W46902   0.829   0.397   0.528
74643W        W46903  43.812   1.795  14.259
74644W        W46904  23.157  24.447   2.435
74645W        W46905  42.308  24.491   1.820
74646W        W46906  27.460   2.416   2.973
74647W        W46907   9.639  40.453   1.367
74648W        W46908  15.629  38.043  10.599
74649W        W46909  15.854   9.712   3.934
74650W        W46910  42.916   7.728   4.564
74651W        W46911   6.286   9.127  10.721
74652W        W46912   7.200   3.444  11.068
74653W        W46913  21.868  29.084   0.412
74654W        W46914  14.199  33.048  13.801
74655W        W46915   4.517  28.397  14.513
74656W        W46916  28.083  42.782   2.015
74657W        W46917  28.555  24.142   2.132
74658W        W46918  13.639   1.664  12.550
74659W        W46919  39.362  43.276   2.679
74660W        W46920   8.240  20.722   0.512
74661W        W46921  21.877  37.246  14.856
74662W        W46922  26.938  31.497  14.678
74663W        W46923  37.438   2.360   2.324
74664W        W46924  13.726   0.755   0.995
74665W        W46925  26.018  39.799   4.165
74666W        W46926  11.688  40.351  14.811
74667W        W46927  34.046  18.929  13.345
74668W        W46928  31.435   2.904   0.649
74669W        W46929  25.794  15.114  12.490
74670W        W46930  43.824   1.949   4.927
74671W        W46931  43.500  18.625   3.779
74672W        W46932   5.136  37.011  11.728
74673W        W46933  32.507   0.042  13.768
74674W        W46934  41.502  33.495   4.174
74675W        W46935  29.389  43.495   3.343
74676W        W46936   5.948   3.407  14.980
74677W        W46937  21.756  32.962   1.703
74678W        W46938  33.413   9.324  11.289
74679W        W46939   0.145  20.310   1.875
74680W        W46940  24.449   6.669   0.262
74681W        W46941   5.881  22.489   1.762
74682W        W46942  33.483   8.171   4.599
74683W        W46943  33.967  39.332  11.508
74684W        W46944  42.512   7.976  13.812
74685W        W46945  34.733  43.261  12.968
74686W        W46946  40.426  29.534  12.566
74687W        W46947  30.110   7.880   0.468
74688W        W46948  42.251  28.768   0.690
74689W        W46949  22.459  33.449   0.167
74690W        W46950  11.785   1.301   0.320
74691W        W46951   8.840   3.240   2.223
74692W        W46952  21.615  19.119  11.200
74693W        W46953  32.804  26.657  11.059
74694W        W46954  35.944   9.123  13.079
74695W        W46955   7.825  39.515  14.994
74696W        W46956   2.780  26.569  13.983
74697W        W46957  43.426  14.006   4.649
74698W        W46958  41.879  18.533   3.140
74699W        W46959   5.255  10.307  12.696
74700W        W46960  43.189  21.709  13.817
74701W        W46961   7.351  38.412  10.586
74702W        W46962   0.138   5.395  12.017
74703W        W46963  44.965  31.510   0.702
74704W        W46964  29.668  36.771  12.429
74705W        W46965  24.001  16.326  13.778
74706W        W46966  20.803  38.016  14.738
74707W        W46967  11.045   5.260   4.127
74708W        W46968  18.576   3.721   2.229
74709W        W46969   6.719  20.726  11.599
74710W        W46970  41.861  15.745  10.782
74711W        W46971   1.777  17.292  14.608
74712W        W46972   0.850  37.179   0.245
74713W        W46973  12.530  32.792   4.817
74714W        W46974   6.770   6.493  14.044
74715W        W46975  17.591  41.316  12.427
74716W        W46976  37.621  14.718   4.119
74717W        W46977  15.814  10.722   1.729
74718W        W46978  44.452   1.763   1.512
74719W        W46979  20.473   5.057  12.399
74720W        W46980  41.868  43.788  14.389
74721W        W46981  31.138  40.055   3.688
74722W        W46982   6.742  39.435  11.713
74723W        W46983  27.015  40.959   1.825
74724W        W46984  33.798  11.079   0.410
74725W        W46985   8.663  17.123   3.601
74726W        W46986  37.552  20.057   0.220
74727W        W46987  33.922  28.015  11.064
74728W        W46988  36.106   0.548   0.456
74729W        W46989  30.161  35.314  12.747
74730W        W46990   3.868  17.377   4.666
74731W        W46991  29.028  30.626  14.609
74732W        W46992  40.533  43.223   0.748
74733W        W46993  42.084  35.999  11.622
74734W        W46994   7.431  25.103   0.685
74735W        W46995  20.776  30.625   0.183
74736W        W46996   8.797  39.322   3.228
74737W        W46997  40.779  15.761  13.468
74738W        W46998  35.324  35.432   4.562
74739W        W46999   0.720  29.632  10.759
74740W        W47000  29.713  23.398  10.909
74741W        W47001  13.656   9.290  12.702
74742W        W47002  22.231  26.741  11.485
74743W        W47003  32.430  14.533   2.405
74744W        W47004  11.206  15.634   4.582
74745W        W47005  19.758  11.785   0.122
74746W        W47006  12.396  20.062   2.256
74747W        W47007  16.955  40.866  13.496
74748W        W47008  31.134  31.984   5.531
74749W        W47009   7.824  28.110  10.481
74750W        W47010   3.362  29.495   0.396
74751W        W47011  41.168  12.340   2.743
74752W        W47012  12.901  34.578   4.594
74753W        W47013  23.678  36.231  10.200
74754W        W47014  38.529  30.876   4.575
74755W        W47015  32.533  29.024  13.041
74756W        W47016  31.124  10.294  10.198
74757W        W47017  30.166  43.787   1.472
74758W        W47018  19.033  15.271  14.410
74759W        W47019  42.495  25.056   4.575
74760W        W47020  38.804  21.801   4.570
74761W        W47021  26.152  17.007  14.843
74762W        W47022  31.969  12.651  12.554
74763W        W47023  26.231   0.305  10.648
74764W        W47024  11.751  34.884   4.528
74765W        W47025  10.299   3.513   4.747
74766W        W47026  13.195   2.886  11.785
74767W        W47027   8.840  13.205   0.913
74768W        W47028  12.020   9.361  13.839
74769W        W47029   0.395  44.732  14.864
74770W        W47030   4.789   8.617  13.096
74771W        W47031   4.954  13.673  13.236
74772W        W47032  44.945  36.287   0.865
74773W        W47033   1.780  26.931  11.074
74774W        W47034  12.246  16.717   4.907
74775W        W47035  28.235  32.496   2.749
74776W        W47036  29.832  42.025  11.400
74777W        W47037  13.324  37.170   0.143
74778W        W47038  43.967  23.690  13.780
74779W        W47039   1.375  35.920  14.683
74780W        W47040  17.805  24.056  11.877
74781W        W47041  11.608  44.875  10.883
74782W        W47042   0.068   9.418  12.857
74783W        W47043  38.796  23.886  13.002
74784W        W47044  39.121  40.090  14.872
74785W        W47045   8.823  27.060  11.449
74786W        W47046  11.761  23.309  12.868
74787W        W47047  12.126  30.674  13.616
74788W        W47048   0.358   4.696  12.554
74789W        W47049   1.556  41.165   1.639
74790W        W47050   7.954   2.979  11.644
74791W        W47051  25.885   2.789  12.085
74792W        W47052   8.977  33.536  11.568
74793W        W47053  39.847  25.363   2.840
74794W        W47054  36.388  11.160   1.808
74795W        W47055   3.505  34.412  11.840
74796W        W47056  15.492   2.666  14.571
74797W        W47057  18.568   1.656   1.585
74798W        W47058  38.362  23.791  11.922
74799W        W47059  39.571  32.387   0.894
74800W        W47060  39.706  23.606   0.915
74801W        W47061  13.598   9.813   2.611
74802W        W47062  20.141  26.963  12.556
74803W        W47063  44.226   6.298  12.471
74804W        W47064  26.024  43.602   3.102
74805W        W47065  23.872  31.569  12.358
74806W        W47066  27.158  16.391   0.036
74807W        W47067  30.651  27.865  14.829
74808W        W47068  39.226  23.648   2.341
74809W        W47069   2.722   5.789  13.771
74810W        W47070  31.543  20.053  14.363
74811W        W47071  14.216  37.731   2.790
74812W        W47072  12.812  16.559   0.891
74813W        W47073  18.919  23.485  13.424
74814W        W47074  20.883   1.966   3.785
74815W        W47075  40.445  22.965   2.250
74816W        W47076  35.414  16.098   3.691
74817W        W47077  27.188  41.821   0.032
74818W        W47078  23.996  24.185  12.822
74819W        W47079  42.004  12.121  14.446
74820W        W47080   6.716  21.142   4.610
74821W        W47081  19.178  30.861  14.245
74822W        W47082  33.990   1.301   4.477
74823W        W47083  36.986   1.567   0.825
74824W        W47084  11.551  33.848  13.913
74825W        W47085   1.491  31.400   2.038
74826W        W47086  10.893  18.721  13.929
74827W        W47087  36.074  29.957   3.628
74828W        W47088  15.534  36.393   2.506
74829W        W47089  15.267  40.603   2.311
74830W        W47090  11.658  30.571   0.964
74831W        W47091   6.880  44.976  14.731
74832W        W47092  40.019  23.176  12.100
74833W        W47093  42.976  29.419  13.271
74834W        W47094  14.150   9.019   1.331
74835W        W47095   7.477  34.346   1.493
74836W        W47096  13.588   7.815   3.799
74837W        W47097  32.037  24.141   2.697
74838W        W47098  13.388  41.766   2.889
74839W        W47099  18.797   9.485  12.026
74840W        W47100  16.872  24.186   1.051
74841W        W47101  13.307  16.779   2.796
74842W        W47102  33.566  23.953   2.802
74843W        W47103  25.623   7.372   1.678
74844W        W47104  35.151  44.450  13.775
74845W        W47105  38.468  15.102   1.328
74846W        W47106  19.510  40.274  14.484
74847W        W47107  21.441  21.635  13.294
74848W        W47108  31.186   6.502   1.371
74849W        W47109  15.321  28.182  11.516
74850W        W47110  29.966  12.880  11.611
74851W        W47111  43.889  33.920   2.647
74852W        W47112  21.816  21.526  12.475
74853W        W47113  18.687   1.789   2.551
74854W        W47114  18.103  37.344   2.038
74855W        W47115  28.644  39.473  13.151
74856W        W47116  26.928  17.004  10.187
74857W        W47117  44.913  18.715  14.746
74858W        W47118  38.604  44.302   0.663
74859W        W47119  35.672   0.219  10.950
74860W        W47120  43.944  16.437  14.132
74861W        W47121   5.815   7.004  10.465
74862W        W47122  18.765  26.329   4.682
74863W        W47123   1.316  19.894  12.375
74864W        W47124  34.685  27.515   2.659
74865W        W47125  41.476  23.497   1.904
74866W        W47126  15.802  14.354   1.245
74867W        W47127  36.065   5.202   3.696
74868W        W47128  32.771  13.275  12.751
74869W        W47129   2.818   1.926   2.371
74870W        W47130  33.447  33.344   3.756
74871W        W47131  15.573  21.447   0.908
74872W        W47132  25.481  30.180   3.547
74873W        W47133   7.363  20.997  13.875
74874W        W47134  22.777   0.488   2.838
74875W        W47135  39.034  21.656   2.288
74876W        W47136   0.721  14.123   2.668
74877W        W47137   3.522  14.625  12.444
74878W        W47138   0.392  42.174  10.701
74879W        W47139  27.071   9.168  14.973
74880W        W47140  10.697   9.091   1.837
74881W        W47141  37.583   8.275   1.787
74882W        W47142  23.646   2.732   0.182
74883W        W47143  33.164  15.660   2.751
74884W        W47144  28.190  21.967  12.661
74885W        W47145  36.767  27.001  12.400
74886W        W47146  22.904  13.770  14.311
74887W        W47147   2.988  33.678   2.656
74888W        W47148  30.520  41.376   4.630
74889W        W47149  34.040   4.423  12.855
74890W        W47150  37.603   8.142   4.599
74891W        W47151   5.675  44.934   0.920
74892W        W47152  13.234  32.155   2.478
74893W        W47153  25.056  12.409  11.136
74894W        W47154   7.285  30.170  13.062
74895W        W47155  33.856  19.665  11.876
74896W        W47156  22.209  26.612  13.876
74897W        W47157  15.571  25.650   2.423
74898W        W47158  32.284   2.635  13.878
74899W        W47159  17.161  41.612  12.376
74900W        W47160  24.194  44.808  11.808
74901W        W47161  28.987  25.988   1.865
74902W        W47162  36.547  28.231   0.041
74903W        W47163  40.392  29.208   2.960
74904W        W47164   7.926  14.298  14.851
74905W        W47165  32.415  30.451   3.127
74906W        W47166  26.443   2.693   0.333
74907W        W47167  33.306  35.506  13.581
74908W        W47168  14.512  18.495  10.644
74909W        W47169  19.039  23.323   3.345
74910W        W47170   0.375  16.055   1.729
74911W        W47171  20.282  33.509  13.338
74912W        W47172   5.573  39.593   0.869
74913W        W47173  28.628  10.713   4.120
74914W        W47174  37.949  33.510  10.800
74915W        W47175  34.408   6.848   3.672
74916W        W47176  14.831  35.906  12.210
74917W        W47177  41.248   2.849   3.628
74918W        W47178  37.256  24.573  11.204
74919W        W47179  15.187  12.838   0.123
74920W        W47180  25.760   9.126   1.822
74921W        W47181  23.711  32.650   3.187
74922W        W47182   5.675  12.031  14.571
74923W        W47183  14.380  13.616   5.043
74924W        W47184  42.213  25.405   3.240
74925W        W47185  21.872  39.904  11.541
74926W        W47186   8.191  20.824  12.638
74927W        W47187   3.778  13.326   0.740
74928W        W47188   3.274  27.083   3.759
74929W        W47189   6.888  26.090  10.706
74930W        W47190  21.603  11.882   1.743
74931W        W47191  14.054  43.953  10.599
74932W        W47192   4.832  29.193   4.837
74933W        W47193   4.369  29.423  14.589
74934W        W47194   6.797  37.922  13.868
74935W        W47195  43.764   1.210  12.122
74936W        W47196  39.366  14.298   4.630
74937W        W47197  37.566  12.882   0.868
74938W        W47198  30.010  14.335  13.043
74939W        W47199  41.886   5.214  12.019
74940W        W47200  31.911   1.439   3.947
74941W        W47201   4.769   3.246   4.628
74942W        W47202  29.110   5.660  12.487
74943W        W47203   9.426  35.786  10.118
74944W        W47204  30.177  41.002  11.554
74945W        W47205  17.158  17.634   3.908
74946W        W47206  41.891  24.997   4.183
74947W        W47207  11.184  38.924  13.889
74948W        W47208  12.729  39.983   3.766
74949W        W47209  17.924  43.579   4.579
74950W        W47210  32.032  31.001  10.718
74951W        W47211   6.254  24.743   3.422
74952W        W47212  35.328  10.297   4.655
74953W        W47213  27.462  20.617  11.455
74954W        W47214  24.516  36.670  11.550
74955W        W47215  37.599  24.516   4.145
74956W        W47216  37.881  27.485   4.179
74957W        W47217   8.068  30.144   3.744
74958W        W47218  31.448  33.916   4.874
74959W        W47219  37.493  11.215  12.451
74960W        W47220  25.216  39.024   0.759
74961W        W47221  32.036  17.002   3.867
74962W        W47222  36.608   6.459   3.339
74963W        W47223  24.101  43.464  12.812
74964W        W47224  16.746  22.703  11.113
74965W        W47225   3.177  33.482   3.179
74966W        W47226  33.271  39.716   3.571
74967W        W47227  23.512   0.899   1.424
74968W        W47228  41.934   4.331   0.573
74969W        W47229  29.595  10.176   3.718
74970W        W47230   1.603  30.411   0.341
74971W        W47231  26.090   3.475  12.862
74972W        W47232  43.019  13.589   0.779
74973W        W47233  31.891  11.386   2.275
74974W        W47234  22.707  14.821  13.410
74975W        W47235  22.422  24.080   1.302
74976W        W47236  32.492  42.456  11.185
74977W        W47237  11.148  39.991   2.239
74978W        W47238  38.267  32.106   1.694
74979W        W47239  16.758  32.075  11.655
74980W        W47240   9.152  29.583   3.859
74981W        W47241  13.619  26.604   3.660
74982W        W47242  11.813  28.010   4.514
74983W        W47243  14.771  31.122  10.422
74984W        W47244   3.946  34.906  12.241
74985W        W47245  33.104  41.483   0.343
74986W        W47246  33.424  19.763  14.881
74987W        W47247   9.247   8.118   1.722
74988W        W47248  25.473  22.275  13.904
74989W        W47249  24.128  14.879   2.863
74990W        W47250  15.624  33.814  11.925
74991W        W47251  42.492  31.793  10.800
74992W        W47252  32.180  15.694  11.152
74993W        W47253   6.715  29.196   1.975
74994W        W47254  23.104   9.857  11.632
74995W        W47255  25.246  24.131  12.527
74996W        W47256   6.350   2.952  14.041
74997W        W47257  20.891   0.186  11.088
74998W        W47258  31.550  36.935   1.650
74999W        W47259  15.107   7.592  14.075
75000W        W47260   0.465  43.529   2.765
75001W        W47261   3.966  10.583   0.660
75002W        W47262  44.474  42.872   2.223
75003W        W47263   2.872  40.241   3.369
75004W        W47264  27.615  14.388   1.843
75005W        W47265  42.967  13.993   0.342
75006W        W47266   4.321  10.151   1.906
75007W        W47267   6.286  18.900  12.995
75008W        W47268  30.383  29.189  12.999
75009W        W47269  21.481  23.658  13.549
75010W        W47270   5.790  15.294  10.599
75011W        W47271  40.225  24.493   1.695
75012W        W47272  26.984  30.684   1.299
75013W        W47273   6.773  22.643   1.559
75014W        W47274  38.393  29.568  14.414
75015W        W47275  21.603   7.176  11.533
75016W        W47276  15.084  16.284   1.514
75017W        W47277  17.003  13.190  13.940
75018W        W47278  29.041  30.317   5.330
75019W        W47279   5.626  23.993   0.864
75020W        W47280  31.723  32.700  13.575
75021W        W47281  19.111  15.875   4.631
75022W        W47282  16.601  22.780   1.243
75023W        W47283  11.816  19.006  14.331
75024W        W47284  22.110   8.436  12.542
75025W        W47285  43.568  18.618   1.175
75026W        W47286  35.546  43.193  10.405
75027W        W47287  28.583  21.151   0.377
75028W        W47288   1.432  42.957  10.725
75029W        W47289   9.152  20.912  13.492
75030W        W47290  20.250  17.524  10.704
75031W        W47291   5.876  44.307  12.183
75032W        W47292  23.573  44.454   2.597
75033W        W47293  21.010  18.359  14.822
75034W        W47294   9.858  15.406  11.114
75035W        W47295  29.641   9.581   2.416
75036W        W47296  10.119  22.476   3.529
75037W        W47297  15.242  10.812  11.042
75038W        W47298  23.531  11.346  13.105
75039W        W47299   9.590  41.855   4.560
75040W        W47300   8.444  14.097  12.147
75041W        W47301   0.873  41.964   1.301
75042W        W47302  19.668  21.111   4.617
75043W        W47303  33.955  11.989   2.182
75044W        W47304  20.226  16.792   0.254
75045W        W47305  30.126  37.601  10.693
75046W        W47306  42.561   4.846  11.653
75047W        W47307  26.200   5.508  14.812
75048W        W47308  29.491   3.355   1.737
75049W        W47309   9.600  32.915  11.332
75050W        W47310  24.977  10.555  12.504
75051W        W47311  15.764  26.940  14.839
75052W        W47312  18.103  42.518  14.060
75053W        W47313  26.576   8.903  11.115
75054W        W47314  12.761  15.838  14.782
75055W        W47315   3.781  32.392   3.264
75056W        W47316   9.753  28.172   0.753
75057W        W47317  28.041  42.775  10.077
75058W        W47318  37.312  28.994  13.043
75059W        W47319   2.831   5.517   4.936
75060W        W47320  24.976  39.677  13.428
75061W        W47321  39.057  27.962   2.822
75062W        W47322  38.119  23.095  14.026
75063W        W47323  35.408  13.133  11.182
75064W        W47324  42.201   3.111  12.364
75065W        W47325  20.286  40.273  10.316
75066W        W47326  15.505  44.366   1.950
75067W        W47327  16.261  10.715   3.135
75068W        W47328  22.261  26.313   0.306
75069W        W47329  26.036  34.857  12.124
75070W        W47330  17.623  34.654   0.753
75071W        W47331   7.138  14.654   1.938
75072W        W47332  17.639  22.459   2.252
75073W        W47333  36.379   2.525   1.332
75074W        W47334  15.464  29.185   2.428
75075W        W47335  38.939  44.754   4.652
75076W        W47336  12.621  21.540   4.133
75077W        W47337  15.849  29.617  11.541
75078W        W47338  28.143   3.035  13.638
75079W        W47339  22.699   0.206  11.136
75080W        W47340  24.911  23.086  12.912
75081W        W47341   4.945  28.897   3.230
75082W        W47342  34.403  16.698   3.164
75083W        W47343  38.044  27.246  13.910
75084W        W47344   8.396   4.708  14.918
75085W        W47345  32.151   9.203  13.567
75086W        W47346  19.345   6.317   4.203
75087W        W47347   1.545  25.459   3.301
75088W        W47348  39.292  39.328  13.474
75089W        W47349  31.360  28.498  10.496
75090W        W47350   2.068  39.257  13.232
75091W        W47351  36.881  36.860  14.379
75092W        W47352  35.295  38.447  14.864
75093W        W47353  22.996  26.067  14.923
75094W        W47354   8.437  16.600  14.872
75095W        W47355  17.788   1.191   4.440
75096W        W47356  35.646   0.094  12.514
75097W        W47357  21.753  22.672  13.723
75098W        W47358  35.094  11.309  14.843
75099W        W47359   8.825   5.164   1.377
75100W        W47360   4.997   4.529   3.251
75101W        W47361   4.829  15.802   4.588
75102W        W47362  22.740  30.656   3.121
75103W        W47363   9.512  23.803  11.272
75104W        W47364   1.905  31.124   1.962
75105W        W47365  15.838  41.001   0.792
75106W        W47366  16.504   8.094  11.545
75107W        W47367  30.690  39.789   3.664
75108W        W47368  33.370   8.837   0.465
75109W        W47369  44.883  43.828  11.699
75110W        W47370  18.951  19.554   2.700
75111W        W47371  31.500  24.826  13.308
75112W        W47372  16.434   2.617   4.128
75113W        W47373  40.836  35.800   2.213
75114W        W47374  19.747   5.859  13.258
75115W        W47375  32.557  34.155   3.441
75116W        W47376  31.561  40.546   1.311
75117W        W47377  28.137  30.899   4.159
75118W        W47378   7.121  29.420   3.207
75119W        W47379  33.482  29.559   0.380
75120W        W47380   8.746  32.096  13.104
75121W        W47381  30.507  41.076  11.172
75122W        W47382  38.972  44.609  10.572
75123W        W47383  29.588  12.893  11.995
75124W        W47384   0.784  10.132  10.622
75125W        W47385   7.294  23.524   2.292
75126W        W47386  20.000  28.985   4.381
75127W        W47387  22.291  40.585   0.808
75128W        W47388  42.877  21.827   4.283
75129W        W47389   7.233  31.934   1.729
75130W        W47390   3.374  19.738   0.044
75131W        W47391  21.856  20.103  11.338
75132W        W47392  41.220  30.631   3.319
75133W        W47393  34.436  13.277   3.697
75134W        W47394   7.665  13.329  11.111
75135W        W47395  15.784  14.596  13.578
75136W        W47396  10.097  21.477   0.862
75137W        W47397  44.841  18.640   0.998
75138W        W47398  41.777  33.380  11.999
75139W        W47399  40.324  38.133   1.936
75140W        W47400   6.810  30.885  12.482
75141W        W47401  25.005  33.389   3.085
75142W        W47402  10.283  14.772  12.907
75143W        W47403   2.764  39.807  14.794
75144W        W47404  34.951  13.693  14.133
75145W        W47405  23.145  16.154  11.967
75146W        W47406  11.121  26.363   4.165
75147W        W47407  27.736  21.714   0.823
75148W        W47408  20.636  33.030   2.803
75149W        W47409  28.978   1.255  12.128
75150W        W47410   2.253  30.756   4.344
75151W        W47411  37.324   4.038   2.198
75152W        W47412  22.155  19.501   1.377
75153W        W47413  11.757  37.462   4.686
75154W        W47414  31.064   1.205   4.046
75155W        W47415   2.310  37.292   0.004
75156W        W47416   8.647  18.530  13.462
75157W        W47417  37.968  17.339   1.168
75158W        W47418  33.887  17.580   3.268
75159W        W47419   2.694  20.080  11.089
75160W        W47420  39.923   7.324   0.202
75161W        W47421  35.183  19.821   0.484
75162W        W47422  18.994  39.891  11.075
75163W        W47423  32.989  41.994  12.754
75164W        W47424  24.544  11.285  12.509
75165W        W47425  37.324  18.858  11.996
75166W        W47426   4.493  27.106   1.447
75167W        W47427   0.995   9.273  13.833
75168W        W47428   2.588  41.444  12.917
75169W        W47429  24.975   8.836  11.993
75170W        W47430  29.719  27.905  13.405
75171W        W47431   6.965  27.814  10.203
75172W        W47432  25.478   5.242   4.647
75173W        W47433  28.380  34.813  12.483
75174W        W47434  23.514  30.105   4.138
75175W        W47435  44.662  30.973   4.357
75176W        W47436  19.972  38.985   9.846
75177W        W47437  17.435   8.193   3.809
75178W        W47438  17.776  36.900   2.835
75179W        W47439  28.085  35.720  13.820
75180W        W47440  20.388  10.882   1.114
75181W        W47441   7.835  33.575   2.263
75182W        W47442  18.253   0.828   0.538
75183W        W47443  21.266  31.771  11.545
75184W        W47444  18.602  28.688  10.973
75185W        W47445  38.113   7.793  13.316
75186W        W47446  20.484  30.485   3.774
75187W        W47447  30.624  10.799   0.715
75188W        W47448  37.053  38.072   0.823
75189W        W47449  37.462  42.352   0.582
75190W        W47450  44.732   6.184  10.371
75191W        W47451  26.241  11.839   3.239
75192W        W47452  27.481  27.569  12.829
75193W        W47453  27.535   9.948  12.866
75194W        W47454  30.817  20.301   1.297
75195W        W47455  34.950  12.881   2.721
75196W        W47456  12.736   9.165   3.356
75197W        W47457  29.261  29.430  13.120
75198W        W47458   3.181  42.422   1.964
75199W        W47459  22.104  14.052  10.617
75200W        W47460   6.877  10.682   4.448
75201W        W47461   9.252  42.516  14.913
75202W        W47462  43.913  31.988   1.321
75203W        W47463  29.425  32.164   1.735
75204W        W47464   7.343  13.096   0.334
75205W        W47465  42.076  16.040   1.497
75206W        W47466  21.346  12.432  11.110
75207W        W47467  19.200  28.179  10.593
75208W        W47468  41.438  19.189  12.074
75209W        W47469  29.225  13.362  12.686
75210W        W47470  38.346  25.950   1.972
75211W        W47471  10.817   7.298   3.354
75212W        W47472   6.222  33.083   0.850
75213W        W47473  15.222  31.547   1.721
75214W        W47474  31.668  21.248  12.753
75215W        W47475  38.652  14.230  12.929
75216W        W47476  42.907  36.867   3.620
75217W        W47477  12.685  26.784   2.092
75218W        W47478   3.791   0.455  12.419
75219W        W47479  39.142  33.084   1.514
75220W        W47480  25.224  18.565  11.574
75221W        W47481  38.869  11.212   3.666
75222W        W47482   9.202   2.718   2.691
75223W        W47483  38.456  12.419  11.920
75224W        W47484  18.224  31.274   1.883
75225W        W47485   5.186  25.817  11.580
75226W        W47486  11.207  41.345  14.015
75227W        W47487  38.110  23.459   0.333
75228W        W47488  40.271  44.277   4.632
75229W        W47489  14.230  20.430  11.514
75230W        W47490  18.703  24.456   0.930
75231W        W47491  41.994  27.802   1.802
75232W        W47492  42.902   2.014  14.960
75233W        W47493  17.564   5.615   4.499
75234W        W47494   6.230   7.328   2.667
75235W        W47495   1.350  21.565  11.153
75236W        W47496  13.475  26.970  11.659
75237W        W47497   9.954  36.581  13.959
75238W        W47498  14.607  33.659   0.428
75239W        W47499  29.159  37.017   4.634
75240W        W47500  37.617  41.597   1.268
75241W        W47501  36.082  17.690   1.727
75242W        W47502  44.838  21.306   0.471
75243W        W47503  30.911  14.252   4.613
75244W        W47504  36.421  25.906   3.236
75245W        W47505   8.255   3.010  12.948
75246W        W47506   2.274  33.405  14.585
75247W        W47507  26.160  36.836  13.917
75248W        W47508  34.574  44.531   1.881
75249W        W47509  41.125  25.687   2.235
75250W        W47510   9.805  15.044  12.831
75251W        W47511  24.279  25.512   1.831
75252W        W47512  17.674  14.048  14.561
75253W        W47513  44.596  37.623   4.264
75254W        W47514   5.628  37.420  13.431
75255W        W47515  11.830  42.367  12.176
75256W        W47516  31.805   4.794   9.734
75257W        W47517  20.781  14.212   2.598
75258W        W47518  35.544  42.509   2.697
75259W        W47519   6.914  35.897   0.336
75260W        W47520  17.771  39.294  14.954
75261W        W47521   8.650  14.365   4.160
75262W        W47522  26.723  18.569   1.866
75263W        W47523  16.128  28.530  13.584
75264W        W47524  16.356  27.021   3.256
75265W        W47525  26.645  44.892  13.419
75266W        W47526  36.085  41.851   2.136
75267W        W47527  35.571  29.354  14.283
75268W        W47528   4.142  16.771  12.102
75269W        W47529  15.180   5.891  10.381
75270W        W47530  31.363  10.226   0.258
75271W        W47531   8.424  22.053   1.653
75272W        W47532  19.812  20.050   3.590
75273W        W47533  37.538  37.509  12.049
75274W        W47534  29.737  32.154  13.761
75275W        W47535  38.338   8.872   4.269
75276W        W47536  44.786  21.699  11.453
75277W        W47537   5.901  11.520  11.944
75278W        W47538  25.004  29.976  14.396
75279W        W47539   9.664   8.109  14.445
75280W        W47540  38.385   2.977   3.084
75281W        W47541  29.732  10.991   4.130
75282W        W47542  33.640  35.323   1.471
75283W        W47543  25.690  40.809   5.066
75284W        W47544  34.775  38.878   5.056
75285W        W47545  37.460  14.086  14.848
75286W        W47546  43.493  40.056   0.426
75287W        W47547  24.067  41.875   1.281
75288W        W47548  37.432  18.330  11.990
75289W        W47549   5.433  44.068  11.994
75290W        W47550  11.824  24.101   4.091
75291W        W47551  39.477  30.316  13.994
75292W        W47552  11.716   8.372   1.781
75293W        W47553  13.336   6.290   1.376
75294W        W47554  14.457  10.173   2.064
75295W        W47555  12.899  24.245   4.179
75296W        W47556  41.307  31.405   1.441
75297W        W47557  33.386  18.287   3.744
75298W        W47558  19.196  40.521  14.821
75299W        W47559  12.616   1.734  12.014
75300W        W47560  22.275   1.429  12.524
75301W        W47561   3.766   5.391  12.974
75302W        W47562  28.264   9.612   3.885
75303W        W47563   9.909   1.251   4.412
75304W        W47564  29.475  13.874  14.458
75305W        W47565  21.534  11.022   4.161
75306W        W47566  17.749  38.842   3.676
75307W        W47567   3.024  14.004   4.974
75308W        W47568   8.134  36.419   2.929
75309W        W47569  23.142   3.300   0.407
75310W        W47570  29.461  44.252   0.884
75311W        W47571  34.864  25.752  13.063
75312W        W47572  12.703  35.919  14.920
75313W        W47573  39.084   2.346   1.030
75314W        W47574  29.235   7.336   3.942
75315W        W47575   5.426  39.374   2.236
75316W        W47576   9.150  11.890   3.205
75317W        W47577  23.489  15.014   2.795
75318W        W47578  34.812  30.063  12.939
75319W        W47579  16.366   6.749   0.320
75320W        W47580  38.951  35.403  13.770
75321W        W47581  40.450  42.023   0.259
75322W        W47582  14.664  38.619  13.396
75323W        W47583   0.953  39.567   3.857
75324W        W47584  37.989   0.946  10.069
75325W        W47585  15.209  14.477   4.693
75326W        W47586  35.350  39.500   4.647
75327W        W47587  28.573  11.819  11.616
75328W        W47588   6.698  42.262  12.189
75329W        W47589  36.918  25.826   4.305
75330W        W47590  34.818  43.907  11.118
75331W        W47591  41.330  15.903   3.777
75332W        W47592  40.181  42.743   4.116
75333W        W47593  26.172   1.040  13.934
75334W        W47594  40.556  18.375   2.724
75335W        W47595  40.002   6.953   3.635
75336W        W47596   7.185  33.376  13.324
75337W        W47597  34.890  12.915  10.353
75338W        W47598   5.395  34.846   0.239
75339W        W47599  34.710  13.866   0.038
75340W        W47600   6.377  37.323  14.006
75341W        W47601  37.313  20.185   2.247
75342W        W47602   6.211  40.024  11.017
75343W        W47603   2.858   5.780   4.177
75344W        W47604  12.273  11.874  12.467
75345W        W47605  18.343  13.229   0.260
75346W        W47606   2.197   7.887   3.023
75347W        W47607   9.262  36.019   4.604
75348W        W47608  19.050   1.968  14.374
75349W        W47609  36.976  44.042   4.987
75350W        W47610  35.825  27.422  14.364
75351W        W47611  19.739  37.825  11.638
75352W        W47612  44.206  42.916   0.242
75353W        W47613  16.690  42.600  14.074
75354W        W47614  42.434  36.914  11.208
75355W        W47615  18.779  33.353   3.174
75356W        W47616  13.799  10.347  11.174
75357W        W47617  21.916  11.290  10.662
75358W        W47618  11.320   5.315   2.761
75359W        W47619  22.636   3.951  11.574
75360W        W47620  17.204  36.440   3.198
75361W        W47621  11.135   0.989   1.700
75362W        W47622  35.093  28.213   2.200
75363W        W47623   0.838  15.323  11.898
75364W        W47624  31.548  25.158   1.416
75365W        W47625  10.232  36.820  11.096
75366W        W47626   6.343  28.854   3.289
75367W        W47627  44.053  39.561  10.846
75368W        W47628  22.751   8.459   3.763
75369W        W47629  18.181   0.976   2.744
75370W        W47630  40.808  22.883  11.578
75371W        W47631  13.630  11.400   0.924
75372W        W47632  20.529  38.851  14.430
75373W        W47633   4.454   1.901   3.070
75374W        W47634  15.693  37.184  11.546
75375W        W47635  11.256   1.934   0.008
75376W        W47636  13.652  22.893   0.634
75377W        W47637  22.125  10.160   4.110
75378W        W47638   7.204   3.737   0.911
75379W        W47639  36.496  38.136  13.795
75380W        W47640   1.854  20.923  12.056
75381W        W47641  22.262  25.577  12.415
75382W        W47642  21.095  25.680  12.832
75383W        W47643  28.866  27.076   1.083
75384W        W47644   5.753   1.296  13.420
75385W        W47645  10.740  42.051  12.354
75386W        W47646  12.753  10.636   3.838
75387W        W47647   9.515  40.936  11.369
75388W        W47648  11.306  13.401  11.404
75389W        W47649   3.714  14.654  14.873
75390W        W47650  10.688  33.563  11.146
75391W        W47651   0.867  21.930  14.101
75392W        W47652  44.482   9.874  12.609
75393W        W47653  20.536  22.032  13.858
75394W        W47654   3.697  39.892   1.848
75395W        W47655  43.722  22.148  13.023
75396W        W47656   9.711   9.658   5.033
75397W        W47657  36.432  28.168   4.731
75398W        W47658  12.730  31.960  14.197
75399W        W47659   9.407  40.896   1.575
75400W        W47660   3.916  35.003  13.527
75401W        W47661  13.880   3.760   0.502
75402W        W47662  19.637  10.256   0.103
75403W        W47663  18.614  14.552   2.669
75404W        W47664   7.999  25.406   4.058
75405W        W47665  17.360  28.425   4.265
75406W        W47666  20.726  16.778  12.319
75407W        W47667  32.667  24.703   2.469
75408W        W47668  39.922  37.798   0.790
75409W        W47669  26.201  13.820  10.744
75410W        W47670  26.262  35.590   1.711
75411W        W47671  12.873   0.056  10.922
75412W        W47672  16.441  23.024   4.101
75413W        W47673  12.127  32.075   1.832
75414W        W47674   8.492  35.209  11.023
75415W        W47675  11.935   8.354   2.793
75416W        W47676  13.884   3.924   3.215
75417W        W47677  33.521   5.712   4.589
75418W        W47678  12.756  30.991  10.066
75419W        W47679  29.044  23.998   0.296
75420W        W47680  44.370   6.068   0.135
75421W        W47681  23.630  38.482  13.815
75422W        W47682  19.233  13.216   4.038
75423W        W47683  18.803  28.380  12.990
75424W        W47684  33.087  18.207   4.258
75425W        W47685   1.872  44.278   0.536
75426W        W47686   4.668  16.889  14.382
75427W        W47687  23.700   9.654  14.429
75428W        W47688  29.684  29.180   1.185
75429W        W47689   8.688  42.265  14.229
75430W        W47690  43.521  42.272   3.105
75431W        W47691  42.176   9.870   4.994
75432W        W47692  33.606  11.123  13.587
75433W        W47693  32.609  20.736  12.980
75434W        W47694  35.647  31.172  11.501
75435W        W47695  18.685  18.965  14.348
75436W        W47696  26.990  33.966   4.690
75437W        W47697  28.907   9.105   0.324
75438W        W47698  29.951  34.371  13.789
75439W        W47699  25.058   5.425  10.899
75440W        W47700  33.564  26.068  14.786
75441W        W47701  32.921  35.145   1.445
75442W        W47702  26.039  40.794  14.540
75443W        W47703  34.122  27.951  12.818
75444W        W47704  21.060  31.551  14.753
75445W        W47705  13.259  35.725  14.088
75446W        W47706  43.301   6.272   4.132
75447W        W47707  13.767  24.242  14.430
75448W        W47708  22.263  22.352   0.800
75449W        W47709  34.620  24.269   1.822
75450W        W47710  32.049  20.721   0.814
75451W        W47711  34.567  19.752  13.167
75452W        W47712   4.903  10.779   4.724
75453W        W47713  42.192  28.975   4.317
75454W        W47714  23.575  19.686   4.515
75455W        W47715  11.877  23.815  12.957
75456W        W47716  37.996  26.008  12.252
75457W        W47717  40.731   7.026  14.730
75458W        W47718  38.066  19.113   3.656
75459W        W47719  41.542  21.913   0.973
75460W        W47720   6.702  13.156  11.231
75461W        W47721  18.232  12.378  11.111
75462W        W47722  28.045  22.952  11.528
75463W        W47723  27.292   5.785  10.621
75464W        W47724  42.421  17.199   1.875
75465W        W47725   1.694  10.233  10.457
75466W        W47726  27.944  44.318   0.044
75467W        W47727  28.861  28.328   0.390
75468W        W47728  18.537  15.297   3.673
75469W        W47729   7.829  26.419  13.032
75470W        W47730  17.780   1.788  11.687
75471W        W47731  15.762  40.504  11.110
75472W        W47732  16.562  44.536   0.174
75473W        W47733   5.209  42.308   4.575
75474W        W47734   1.889  25.485  12.636
75475W        W47735  21.309  18.513   0.861
75476W        W47736  43.824  30.894   1.980
75477W        W47737  42.370   3.384  13.026
75478W        W47738  26.697  32.782  11.068
75479W        W47739   2.667   5.338  11.233
75480W        W47740  22.775  26.625  13.958
75481W        W47741  35.617  37.606   4.678
75482W        W47742  11.825  25.081   3.134
75483W        W47743  33.578  39.307  13.336
75484W        W47744  38.346  12.884   0.348
75485W        W47745  28.364  40.190  10.687
75486W        W47746  15.159  20.025  12.532
75487W        W47747   7.815   2.629   2.579
75488W        W47748  22.497  30.682  11.174
75489W        W47749  26.692  31.651   3.231
75490W        W47750   6.320  21.716   3.789
75491W        W47751  18.849  20.327  12.423
75492W        W47752  28.257  12.903   0.322
75493W        W47753  15.644   6.449  10.206
75494W        W47754  32.910  27.199  10.644
75495W        W47755   9.416  23.161   1.336
75496W        W47756  38.371   3.463  12.867
75497W        W47757  13.708  16.074  13.522
75498W        W47758  37.371  37.606   1.307
75499W        W47759  25.150  22.009  14.414
75500W        W47760  18.661  11.862  12.745
75501W        W47761  34.940  43.776   4.868
75502W        W47762  24.080  37.346   2.822
75503W        W47763  37.776  10.546   3.087
75504W        W47764  37.016   8.399  14.403
75505W        W47765   0.859  13.839  14.907
75506W        W47766  33.561  16.343  11.084
75507W        W47767  43.827   6.639  12.492
75508W        W47768  39.915  27.099   3.923
75509W        W47769  40.695  19.660  12.050
75510W        W47770  17.694   9.194   0.471
75511W        W47771  19.330   1.011   3.811
75512W        W47772  12.038   6.201   1.808
75513W        W47773   4.983  30.680  13.927
75514W        W47774  37.990   8.293  13.979
75515W        W47775  20.644   4.637   0.326
75516W        W47776  27.104  37.292   5.150
75517W        W47777  13.380  37.932  14.143
75518W        W47778  39.074  28.265  10.661
75519W        W47779  43.708  26.910  13.135
75520W        W47780  43.108  19.577  11.550
75521W        W47781  32.930  19.528  10.531
75522W        W47782   4.360  14.513  11.209
75523W        W47783  26.559  20.778  10.624
75524W        W47784  37.689  23.254   5.043
75525W        W47785  24.196  21.412   3.301
75526W        W47786  11.677  38.440  10.738
75527W        W47787  20.260   4.898   3.647
75528W        W47788  34.393  29.284   4.037
75529W        W47789  36.367  19.326  13.495
75530W        W47790  31.666  27.746  13.380
75531W        W47791   9.149  17.842  11.198
75532W        W47792  18.166  34.613   0.918
75533W        W47793  10.631  22.638  13.094
75534W        W47794  13.188  18.443  14.741
75535W        W47795   1.156  12.324   0.047
75536W        W47796  37.912  41.290  11.152
75537W        W47797  28.496  31.501   1.374
75538W        W47798  37.553  37.913  10.652
75539W        W47799  37.478   4.295   4.651
75540W        W47800  19.663  14.623  11.601
75541W        W47801  11.066  31.054  13.056
75542W        W47802  24.018   7.612   2.873
75543W        W47803  37.359  19.068  11.497
75544W        W47804  19.542   6.186  14.511
75545W        W47805  44.574   1.666  12.955
75546W        W47806  42.253  28.546   3.580
75547W        W47807  14.550  30.579   9.815
75548W        W47808  40.855  35.802  11.970
75549W        W47809   7.649  21.549   3.218
75550W        W47810  41.749  23.775   2.272
75551W        W47811  31.718  25.734   1.280
75552W        W47812  42.615  37.905  13.161
75553W        W47813  38.376  37.902  11.976
75554W        W47814  14.135   8.092  14.282
75555W        W47815   1.003  36.677   0.279
75556W        W47816  44.346  17.562   0.432
75557W        W47817  30.380  42.046   3.620
75558W        W47818  22.058  27.845   1.867
75559W        W47819  17.353  13.699  14.892
75560W        W47820  25.514  37.057  14.707
75561W        W47821  42.034   7.270  10.962
75562W        W47822  27.603   7.990   2.321
75563W        W47823  30.694  13.175   1.711
75564W        W47824  36.581  17.794  13.330
75565W        W47825  27.566  20.054   0.045
75566W        W47826   5.241  43.577   4.662
75567W        W47827   4.847  28.420   1.880
75568W        W47828  37.323  39.491  14.939
75569W        W47829  41.002  12.162   3.195
75570W        W47830  27.561   3.421  12.624
75571W        W47831  12.776  42.413   2.723
75572W        W47832  27.194  44.633  13.412
75573W        W47833  41.041   8.378  12.026
75574W        W47834  26.732  33.551  11.517
75575W        W47835  33.294  42.812   0.962
75576W        W47836  30.085  37.076  12.589
75577W        W47837  43.251  18.731  11.505
75578W        W47838  31.640  16.781   2.266
75579W        W47839  43.840  15.611   2.487
75580W        W47840   1.692  45.000  12.636
75581W        W47841  10.262   4.401   2.653
75582W        W47842   1.845   1.803   0.363
75583W        W47843  37.158  37.611  13.524
75584W        W47844  19.316   2.029   2.861
75585W        W47845  29.475  44.457  14.973
75586W        W47846   7.925   7.618   1.484
75587W        W47847  33.099   6.667  13.775
75588W        W47848  34.872  42.454  12.135
75589W        W47849   3.867  16.655  11.208
75590W        W47850  27.565  34.458  13.645
75591W        W47851   4.945  43.523  12.783
75592W        W47852   7.749  34.087  11.647
75593W        W47853   7.216  33.112   2.260
75594W        W47854  44.239  18.544   1.837
75595W        W47855  17.619   2.376  14.743
75596W        W47856  29.942  28.046  14.290
75597W        W47857  38.450  32.244   0.838
75598W        W47858   7.922   1.372  11.490
75599W        W47859   9.446  39.746  13.457
75600W        W47860   7.437  14.639  11.184
75601W        W47861  28.126  15.608   1.962
75602W        W47862   9.998  11.162  14.646
75603W        W47863  20.625   1.504   2.621
75604W        W47864   4.038  37.845   2.790
75605W        W47865   7.407  43.778   2.166
75606W        W47866   1.797  35.566  12.081
75607W        W47867   4.368  26.950   2.295
75608W        W47868  34.545  13.867   3.036
75609W        W47869  38.530  21.704   0.475
75610W        W47870  30.163  39.923  14.040
75611W        W47871  23.740  28.972   0.719
75612W        W47872  16.055  21.107  12.850
75613W        W47873  37.911  42.328  14.715
75614W        W47874   4.868  22.584  11.015
75615W        W47875  25.627  28.981   1.190
75616W        W47876  28.556  33.618  14.518
75617W        W47877  12.063  16.110  11.549
75618W        W47878  41.828   6.471  12.485
75619W        W47879  11.058  10.731  10.948
75620W        W47880   8.282  30.483   3.133
75621W        W47881  20.306  29.494   3.275
75622W        W47882  32.432  42.055  12.092
75623W        W47883   8.392  19.107  13.880
75624W        W47884  20.608  24.788   3.142
75625W        W47885  33.313  11.889  13.916
75626W        W47886  19.217   6.732   4.463
75627W        W47887  37.173  44.378   2.306
75628W        W47888  21.708  27.800   2.263
75629W        W47889  21.200  22.272  12.590
75630W        W47890  20.596   5.969  10.193
75631W        W47891  41.082   3.385  14.502
75632W        W47892   5.790  28.014  11.589
75633W        W47893  10.716  34.337   1.168
75634W        W47894   1.752   5.066   1.840
75635W        W47895  26.299   7.663  10.779
75636W        W47896   5.637   7.000  10.968
75637W        W47897  24.152  28.015  13.387
75638W        W47898   3.977   5.308   4.866
75639W        W47899   6.922  41.837  12.581
75640W        W47900  43.241  12.687  13.835
75641W        W47901  39.837   8.004  12.347
75642W        W47902  19.685   5.983   4.336
75643W        W47903  20.717   6.708   3.327
75644W        W47904  37.478  41.806  13.995
75645W        W47905   3.282  13.708   0.092
75646W        W47906  34.837  35.744  11.106
75647W        W47907  23.074   7.230   3.426
75648W        W47908  25.548  25.436   4.164
75649W        W47909   4.459   1.798   5.118
75650W        W47910  35.348  38.935  14.268
75651W        W47911  30.212  34.397  12.402
75652W        W47912  39.931  40.863  10.726
75653W        W47913  40.309  27.754  13.447
75654W        W47914  30.976  31.073   3.654
75655W        W47915  19.792   3.664  13.966
75656W        W47916  16.266   0.395  14.258
75657W        W47917  34.062  15.750   3.768
75658W        W47918  28.508  19.313   4.075
75659W        W47919   9.365  31.896   3.191
75660W        W47920  39.991  25.134  12.551
75661W        W47921  23.515  43.792   4.659
75662W        W47922  20.091  41.869   4.751
75663W        W47923  21.125  27.792  14.018
75664W        W47924  15.352   7.991   3.611
75665W        W47925  19.239   7.556   3.787
75666W        W47926  11.740  13.456  14.670
75667W        W47927  17.911   2.523  11.907
75668W        W47928  42.296  35.466   0.344
75669W        W47929  34.335  41.789   0.209
75670W        W47930  32.177  17.182  13.769
75671W        W47931  41.421  20.516  12.563
75672W        W47932   5.698  38.000   2.402
75673W        W47933  17.465   9.374   3.116
75674W        W47934   4.429  31.018  14.397
75675W        W47935  34.881  28.094   5.146
75676W        W47936  32.266   6.257   2.115
75677W        W47937  21.132   0.667  14.000
75678W        W47938   9.409   1.443   4.513
75679W        W47939  10.920  39.534  11.935
75680W        W47940  22.683  25.253  13.612
75681W        W47941  33.537  42.283   0.250
75682W        W47942  33.452  25.735   4.216
75683W        W47943  43.379  39.573   0.349
75684W        W47944  18.155  16.912   0.874
75685W        W47945  18.982  25.723   3.507
75686W        W47946  26.943  19.749  11.074
75687W        W47947  24.550  27.087   1.124
75688W        W47948  12.667   6.917  14.887
75689W        W47949   6.467   7.233   2.219
75690W        W47950  25.915  19.434  10.260
75691W        W47951  30.551  28.516   3.196
75692W        W47952  25.934  15.655  14.741
75693W        W47953  40.988  30.092   2.642
75694W        W47954  40.828  17.675  11.131
75695W        W47955  39.362  36.098   3.638
75696W        W47956  11.317  19.679  13.424
75697W        W47957  39.467  38.131  14.863
75698W        W47958  42.604   9.862   1.876
75699W        W47959  11.743  44.388   3.158
75700W        W47960  40.810  35.411  12.335
75701W        W47961  22.175  30.652   4.654
75702W        W47962   9.886  12.180   1.259
75703W        W47963  20.341  20.055   3.600
75704W        W47964  30.400  44.793  13.222
75705W        W47965  14.938  10.615   2.116
75706W        W47966   6.943  20.225   0.418
75707W        W47967   6.263  25.939   2.847
75708W        W47968   3.174  13.547  12.080
75709W        W47969  42.754  41.862   4.647
75710W        W47970  30.042  20.280  10.780
75711W        W47971   0.966  20.259  12.481
75712W        W47972  24.608  11.172  14.874
75713W        W47973   7.282  43.567  11.275
75714W        W47974  39.924  37.391  11.686
75715W        W47975  37.884   4.317   4.293
75716W        W47976  38.769  44.799  13.056
75717W        W47977  44.528  15.141   1.398
75718W        W47978  31.292  14.199   1.499
75719W        W47979   5.493  30.614  13.928
75720W        W47980  13.040  16.290  11.696
75721W        W47981   6.510  39.690  14.372
75722W        W47982   5.622  33.539   4.154
75723W        W47983  10.122   6.358   0.334
75724W        W47984  31.627  34.866   4.177
75725W        W47985   6.456  42.118  12.627
75726W        W47986   2.552  23.069   3.173
75727W        W47987  27.431  41.795  12.492
75728W        W47988  30.025  29.939   0.026
75729W        W47989  44.641  17.039   0.921
75730W        W47990  13.604  24.527   0.069
75731W        W47991  22.424  15.119  12.647
75732W        W47992   0.309   0.559   1.410
75733W        W47993  41.001  23.513  14.914
75734W        W47994   5.275  20.881  10.645
75735W        W47995  44.887  27.657   3.120
75736W        W47996  14.491   7.820  12.195
75737W        W47997  21.659  10.418  13.738
75738W        W47998  27.659   4.696   0.804
75739W        W47999   1.012   4.206   3.211
75740W        W48000  10.229  17.212   2.140
75741W        W48001  12.243   9.717   2.908
75742W        W48002   5.479  22.616   3.958
75743W        W48003  10.324   0.054  13.577
75744W        W48004  32.472   7.861   0.227
75745W        W48005   6.383  10.863   4.566
75746W        W48006  39.822  24.576  10.655
75747W        W48007  36.303  37.988   2.354
75748W        W48008  44.953  29.118   3.250
75749W        W48009  21.250  21.192  11.159
75750W        W48010  20.180  34.175  13.847
75751W        W48011  29.649  21.318  13.448
75752W        W48012  37.184  20.658   3.420
75753W        W48013  12.390  40.511   2.474
75754W        W48014  30.461  37.784   3.564
75755W        W48015  44.928  38.426  13.081
75756W        W48016  35.968   9.568  12.848
75757W        W48017  24.401  11.894   4.972
75758W        W48018  39.430  31.958   4.865
75759W        W48019  31.659  40.098   2.641
75760W        W48020  26.090  38.385   2.691
75761W        W48021  15.160  17.581   9.465
75762W        W48022  24.681  32.004  14.332
75763W        W48023  23.300   6.824  12.070
75764W        W48024  12.212  39.504  14.112
75765W        W48025  13.841  36.476  14.457
75766W        W48026  21.183  11.215  11.126
75767W        W48027   8.018   4.365  13.054
75768W        W48028  41.320  18.769   3.331
75769W        W48029  11.701   3.940   1.390
75770W        W48030  18.195  15.095   1.945
75771W        W48031  24.976  29.143   2.012
75772W        W48032  28.471   3.290   0.522
75773W        W48033  29.154  37.522   3.411
75774W        W48034   9.693  36.425   2.314
75775W        W48035  16.803  36.608  12.905
75776W        W48036  23.425  40.514   2.183
75777W        W48037  34.061  18.231   2.446
75778W        W48038  26.195  28.627  13.960
75779W        W48039  37.089  31.399  12.533
75780W        W48040   5.813  35.914   1.173
75781W        W48041  32.352  42.497  12.996
75782W        W48042  38.046   8.820   1.693
75783W        W48043  23.158  26.896   0.502
75784W        W48044  27.082  37.009  10.590
75785W        W48045  23.948  10.437   5.014
75786W        W48046  43.369  35.679   1.800
75787W        W48047  27.657   8.047   2.868
75788W        W48048   7.851   8.810  13.153
75789W        W48049  40.467  23.438  12.144
75790W        W48050  28.860   6.773   2.661
75791W        W48051   9.457  24.079  14.826
75792W        W48052  41.448   5.690  11.486
75793W        W48053   7.944   5.470  11.169
75794W        W48054  40.851  44.988   3.878
75795W        W48055  38.005   8.154  12.964
75796W        W48056  22.591  18.059   1.695
75797W        W48057  17.763  39.976   2.578
75798W        W48058  32.895   6.478  14.929
75799W        W48059  36.029   0.557   4.205
75800W        W48060  13.448  24.763   3.709
75801W        W48061  22.807  22.767  14.985
75802W        W48062  30.966  44.795   4.306
75803W        W48063  42.418  41.775  10.944
75804W        W48064  22.190   9.715   1.695
75805W        W48065  15.560  16.312   2.839
75806W        W48066  39.216   9.390   0.536
75807W        W48067  12.023  43.745  14.939
75808W        W48068   1.644  26.961  12.427
75809W        W48069   0.463  13.684   4.449
75810W        W48070   9.569  21.538  13.927
75811W        W48071   4.894   9.574  10.593
75812W        W48072  17.366  21.152   1.805
75813W        W48073  13.860  21.921  14.710
75814W        W48074  13.698  38.071   3.870
75815W        W48075   7.245  43.371   4.183
75816W        W48076  11.219  21.631  12.553
75817W        W48077  10.452  36.955  14.770
75818W        W48078  17.764  36.333   2.756
75819W        W48079  38.414  44.752  12.173
75820W        W48080  35.524  23.099  14.682
75821W        W48081   7.231  27.345   2.849
75822W        W48082   1.054   5.090   5.110
75823W        W48083  25.438  17.259   5.068
75824W        W48084  11.358  40.481   2.208
75825W        W48085  19.716   5.656   3.380
75826W        W48086   6.741  10.253   0.863
75827W        W48087   3.955  18.158   0.464
75828W        W48088  34.460  24.613  10.105
75829W        W48089   5.866   2.846  14.930
75830W        W48090   7.683   9.107  12.181
75831W        W48091   6.671  14.719   2.270
75832W        W48092  10.833   2.399   1.108
75833W        W48093  22.417  17.318  12.163
75834W        W48094  29.468  30.577   4.052
75835W        W48095  43.971   9.871   0.511
75836W        W48096   6.208   7.812   2.458
75837W        W48097  13.253  32.981   1.888
75838W        W48098   6.473  26.068   4.685
75839W        W48099   7.760   3.849   1.833
75840W        W48100  32.508  21.658   3.289
75841W        W48101  33.106  14.960   1.812
75842W        W48102  21.200  31.715  13.422
75843W        W48103  26.723  15.575  11.061
75844W        W48104  44.136  15.873  12.994
75845W        W48105  16.077   2.316  14.283
75846W        W48106  28.245  39.726   4.552
75847W        W48107  25.741  21.681  11.439
75848W        W48108  26.868  43.739   4.095
75849W        W48109  43.108  36.140   5.064
75850W        W48110  25.192  33.083   1.740
75851W        W48111   3.991  20.788  14.059
75852W        W48112  26.164  34.717  11.664
75853W        W48113   1.437   2.240   2.924
75854W        W48114  28.357  11.353   4.130
75855W        W48115  26.355  17.528   1.257
75856W        W48116  32.605  17.854   5.106
75857W        W48117  29.552  29.659   2.705
75858W        W48118  35.960  27.568   1.324
75859W        W48119  35.390   1.514  12.369
75860W        W48120  35.102  16.266  11.006
75861W        W48121  30.523  24.574   3.213
75862W        W48122  41.734   6.205   5.003
75863W        W48123  38.942   1.332  13.243
75864W        W48124   8.179   7.147   4.127
75865W        W48125  27.512  36.860  13.614
75866W        W48126   7.632  20.292   1.599
75867W        W48127  32.565  20.182  10.825
75868W        W48128  40.011  28.063   4.287
75869W        W48129  41.474  25.503   3.542
75870W        W48130  38.594  39.038   0.954
75871W        W48131   7.890  40.048   1.795
75872W        W48132  33.428  31.386  14.927
75873W        W48133  34.028   5.941   2.804
75874W        W48134  14.502  43.752  11.116
75875W        W48135  38.498  39.661  10.693
75876W        W48136   0.793  16.816  10.840
75877W        W48137   8.681  28.140   3.075
75878W        W48138   2.075  31.834  14.445
75879W        W48139   3.405  44.960  13.779
75880W        W48140  24.789   2.671   3.605
75881W        W48141  37.928   3.188   0.822
75882W        W48142  10.275  24.796   3.131
75883W        W48143   4.949  35.399  11.957
75884W        W48144  43.261  43.659   1.803
75885W        W48145  27.873  41.910  11.069
75886W        W48146  41.035  32.530   3.772
75887W        W48147  39.841  39.386   2.403
75888W        W48148  28.015  20.217  10.728
75889W        W48149  31.099  18.837   3.749
75890W        W48150  43.652  21.693   0.556
75891W        W48151  39.677   3.432   4.190
75892W        W48152   6.110  17.953   2.316
75893W        W48153  30.576  18.205   4.255
75894W        W48154  27.357  35.562   0.941
75895W        W48155  11.396  24.070   4.392
75896W        W48156  26.437  36.905   0.853
75897W        W48157  30.757  11.862  12.216
75898W        W48158   6.262   4.887   2.934
75899W        W48159  38.820  14.557  11.164
75900W        W48160  20.938  16.739   5.365
75901W        W48161  37.152  15.183  12.450
75902W        W48162  27.953  29.093   0.810
75903W        W48163  40.071  16.235   1.497
75904W        W48164  37.405  10.867  12.082
75905W        W48165   1.559  36.016   2.246
75906W        W48166  41.615  14.328   1.738
75907W        W48167  29.366  38.801  12.502
75908W        W48168  24.475  36.046   4.230
75909W        W48169   6.845  31.439  10.748
75910W        W48170  12.144   9.184  11.560
75911W        W48171  19.785  26.434   4.125
75912W        W48172  34.626  28.547   1.530
75913W        W48173  39.727  10.319  14.425
75914W        W48174  41.027  26.699  13.542
75915W        W48175   6.491   1.744  10.657
75916W        W48176  19.747  25.439  11.102
75917W        W48177  41.763   3.272   2.839
75918W        W48178  30.385  17.120   4.117
75919W        W48179  23.222  41.956  14.454
75920W        W48180  43.853   0.852   1.660
75921W        W48181  35.883  13.261  11.031
75922W        W48182  22.825   1.470  14.352
75923W        W48183  29.174   6.959   1.748
75924W        W48184  40.023  44.653  11.563
75925W        W48185  14.317  43.056   1.773
75926W        W48186   6.606  33.361  10.441
75927W        W48187   9.338  35.931   2.237
75928W        W48188  28.451  12.316   4.100
75929W        W48189  43.566   4.493  13.506
75930W        W48190  29.070  40.345   0.055
75931W        W48191   5.944  13.770   3.663
75932W        W48192  30.892  40.813  12.126
75933W        W48193  12.849  27.292  12.845
75934W        W48194  38.376  44.215  14.453
75935W        W48195  13.546   1.818  12.040
75936W        W48196   5.255  12.102   1.277
75937W        W48197  13.132  37.123  13.278
75938W        W48198   9.322   8.210  10.696
75939W        W48199  31.142  42.083   4.092
75940W        W48200   6.759   4.337   1.464
75941W        W48201   5.318  43.295   0.366
75942W        W48202  17.814   2.292  12.385
75943W        W48203  33.459  39.961  14.967
75944W        W48204   1.712   1.224  10.657
75945W        W48205  41.440   6.811  12.509
75946W        W48206  40.391   1.804   1.909
75947W        W48207  10.397  19.513   1.443
75948W        W48208  28.241  37.143  12.488
75949W        W48209  38.609  41.352  11.933
75950W        W48210  43.883  22.188  11.634
75951W        W48211  26.195  20.286   0.859
75952W        W48212  33.568  31.588   2.663
75953W        W48213  23.925   3.703   3.780
75954W        W48214   7.854  16.817  14.008
75955W        W48215  19.495   9.806  14.827
75956W        W48216   6.381  40.316   4.696
75957W        W48217  43.570  12.824  13.358
75958W        W48218  18.859  43.804  11.985
75959W        W48219  26.596  21.090   4.219
75960W        W48220   3.266  16.824  11.138
75961W        W48221  21.887   1.466  14.500
75962W        W48222  19.035  44.375   0.586
75963W        W48223  35.405  29.570  12.456
75964W        W48224  43.680   9.719   3.306
75965W        W48225  16.594  36.557  11.668
75966W        W48226   7.844   3.396  14.404
75967W        W48227  30.015   8.850   1.412
75968W        W48228  29.000  22.904   3.941
75969W        W48229   2.458   2.081  10.673
75970W        W48230   1.942  27.940   2.550
75971W        W48231   4.225  32.482  13.757
75972W        W48232   5.623  40.527  14.788
75973W        W48233   4.294  19.486   3.265
75974W        W48234  27.886  10.847  11.491
75975W        W48235  33.367  17.024  12.445
75976W        W48236  34.335  17.889  13.053
75977W        W48237   4.502  15.165   1.914
75978W        W48238   2.223  15.217   3.766
75979W        W48239  24.103  35.540  14.269
75980W        W48240  19.312   0.404   4.108
75981W        W48241  23.930  27.641  13.956
75982W        W48242  13.263  12.378  13.496
75983W        W48243  17.738  27.565  14.974
75984W        W48244  44.290  44.400   2.253
75985W        W48245   6.619   6.735   0.421
75986W        W48246  24.235  11.334  12.069
75987W        W48247  34.445  24.616  13.342
75988W        W48248  36.593  28.976   0.872
75989W        W48249  38.063  22.809   2.403
75990W        W48250  25.178  21.261   1.841
75991W        W48251  43.364  13.632  12.757
75992W        W48252   7.616  13.664   1.381
75993W        W48253  19.760  34.439  12.045
75994W        W48254  28.912  19.748   0.424
75995W        W48255  31.699  32.551  10.831
75996W        W48256  17.724  39.309  12.437
75997W        W48257  19.074  28.665  10.762
75998W        W48258  33.986  43.525  14.920
75999W        W48259  43.389  10.147   3.468
76000W        W48260  16.775  34.079  14.275
76001W        W48261  38.602  37.046  11.546
76002W        W48262   5.745  42.512   2.487
76003W        W48263  25.126  36.528  11.015
76004W        W48264  36.586  34.160  13.305
76005W        W48265  27.797  11.219   3.183
76006W        W48266  38.980   5.503  10.767
76007W        W48267   0.901  20.694   0.912
76008W        W48268  13.597  18.205  14.485
76009W        W48269  39.981  26.210   2.470
76010W        W48270  15.751  25.530  13.009
76011W        W48271  27.641   6.779  12.918
76012W        W48272  23.194  43.474  13.485
76013W        W48273  19.670  18.063   1.711
76014W        W48274  29.212  18.160  13.822
76015W        W48275  39.950  27.988  11.677
76016W        W48276  43.639   1.737   1.610
76017W        W48277  32.606   1.390   4.629
76018W        W48278  14.000   5.954  10.835
76019W        W48279  39.429  37.553  14.897
76020W        W48280   4.721  12.729  10.693
76021W        W48281  43.732  18.032  13.565
76022W        W48282   6.808  43.457  11.597
76023W        W48283  42.376  35.983  12.568
76024W        W48284  38.570  41.570   2.253
76025W        W48285  25.907  42.477   4.349
76026W        W48286  35.649  11.330  10.699
76027W        W48287   7.178  27.954   4.104
76028W        W48288  42.264  39.807  12.032
76029W        W48289  17.049  42.744   1.727
76030W        W48290  41.874  15.181   4.620
76031W        W48291  27.988   2.313   2.039
76032W        W48292  10.757   3.420  12.856
76033W        W48293  21.742  41.088  14.385
76034W        W48294  26.929  28.014  10.753
76035W        W48295  16.756  37.961   2.281
76036W        W48296   8.607  31.121  14.496
76037W        W48297  10.131  31.486  11.148
76038W        W48298  34.961  27.633  12.022
76039W        W48299  16.275  20.697   0.673
76040W        W48300  22.469  14.617   0.764
76041W        W48301  43.388  17.538   2.285
76042W        W48302   8.593  13.635   1.931
76043W        W48303  44.357  42.363   4.732
76044W        W48304   3.841  11.223   1.560
76045W        W48305  19.157   6.663  13.556
76046W        W48306   1.249   3.594  11.729
76047W        W48307  18.176  12.104  12.869
76048W        W48308  11.027  29.961  12.472
76049W        W48309   9.722  24.238   1.890
76050W        W48310   3.931  30.036   1.742
76051W        W48311  17.587  24.227   3.442
76052W        W48312  37.644  33.089  11.092
76053W        W48313  11.722  37.991   4.694
76054W        W48314  23.962   8.456   4.473
76055W        W48315   6.474   5.947  12.564
76056W        W48316   8.701  27.649   0.323
76057W        W48317  20.443  19.836   3.150
76058W        W48318  41.470  30.405   0.764
76059W        W48319  36.005  29.131  14.130
76060W        W48320  30.421  44.902  11.728
76061W        W48321  14.320  43.305  11.947
76062W        W48322  23.999   9.913  13.299
76063W        W48323  24.529  12.240   4.139
76064W        W48324   1.213  21.667  11.619
76065W        W48325   2.646  34.121   0.805
76066W        W48326  33.864  35.017  10.140
76067W        W48327  20.954   1.294  12.037
76068W        W48328   6.296  35.483  10.256
76069W        W48329  27.417  16.063   4.556
76070W        W48330  43.794  27.591  12.422
76071W        W48331  11.661  31.687  12.900
76072W        W48332   0.836  38.599   3.669
76073W        W48333  20.759   5.122   0.226
76074W        W48334   1.025  24.115   2.179
76075W        W48335  10.617  13.344   3.251
76076W        W48336  18.142   7.448  13.845
76077W        W48337  38.959  19.700  12.846
76078W        W48338  42.556  11.052   0.261
76079W        W48339  18.039  20.218  12.070
76080W        W48340  22.499  29.653  12.360
76081W        W48341  22.738   6.293   9.984
76082W        W48342  34.044   1.680  11.410
76083W        W48343   9.101  35.100  13.341
76084W        W48344  32.684  35.476   1.810
76085W        W48345   9.651  12.105   0.783
76086W        W48346  22.753  21.567  11.493
76087W        W48347  21.609  18.862   4.946
76088W        W48348  33.689  14.915  12.468
76089W        W48349   4.244  10.206  12.364
76090W        W48350  19.301   8.326   0.666
76091W        W48351   8.781   4.869  12.272
76092W        W48352   5.967  34.028  12.424
76093W        W48353  38.455  16.928  14.079
76094W        W48354  10.542  42.203  13.874
76095W        W48355  41.965  16.624  14.794
76096W        W48356   6.089  16.656  11.692
76097W        W48357  44.920  20.188  11.570
76098W        W48358  25.288  28.561  12.784
76099W        W48359   0.311  23.209   4.423
76100W        W48360   8.966  24.012  14.794
76101W        W48361  18.336  19.346  11.700
76102W        W48362  19.034  10.331  12.168
76103W        W48363   8.402  11.607  11.081
76104W        W48364  44.683  40.429   2.351
76105W        W48365  35.216  40.822  14.525
76106W        W48366   9.960  23.140  13.095
76107W        W48367   7.422  23.446  11.678
76108W        W48368  35.959   1.694   1.788
76109W        W48369  19.423  44.050  11.203
76110W        W48370   6.397  12.097  12.488
76111W        W48371  31.485  12.343   4.138
76112W        W48372  37.110  12.210  13.322
76113W        W48373  35.517  42.301  14.726
76114W        W48374  26.312  28.979   4.185
76115W        W48375   2.855  10.758   4.852
76116W        W48376   3.727  21.162   0.841
76117W        W48377   5.699  13.832   3.210
76118W        W48378  42.243  34.847  12.443
76119W        W48379  30.210  26.439  14.829
76120W        W48380  19.206  30.490   1.412
76121W        W48381   5.509   0.315   1.879
76122W        W48382  24.001  40.240  12.922
76123W        W48383  44.954  27.093  12.508
76124W        W48384  23.018  42.941   3.144
76125W        W48385  32.122  30.425   1.330
76126W        W48386  27.474   2.365  12.886
76127W        W48387  15.506   9.357   2.474
76128W        W48388   7.251  42.552  10.643
76129W        W48389  16.048  37.959   2.686
76130W        W48390  33.085  16.788   0.978
76131W        W48391  26.949  27.631   4.695
76132W        W48392  21.021  35.531   0.943
76133W        W48393  30.707   5.010   0.984
76134W        W48394  24.521  26.965  10.172
76135W        W48395   2.189  30.343   3.366
76136W        W48396  30.978  15.158   3.131
76137W        W48397  31.288  32.948  10.951
76138W        W48398  20.371  21.730  11.124
76139W        W48399  27.600  24.987  10.880
76140W        W48400  39.008  21.135   2.299
76141W        W48401  21.798  16.223   1.957
76142W        W48402   9.192  44.651   0.957
76143W        W48403  43.509  14.130  12.721
76144W        W48404  29.944  15.329   0.396
76145W        W48405  35.686   9.073   2.681
76146W        W48406  44.884  25.491  13.762
76147W        W48407  27.723   8.158  11.551
76148W        W48408  25.517  26.618  12.028
76149W        W48409   6.470  23.467  13.490
76150W        W48410  40.911  23.255   4.492
76151W        W48411  31.735  34.819  13.372
76152W        W48412  32.871   9.269   2.904
76153W        W48413  40.972  18.920   3.696
76154W        W48414  28.495   7.614  13.393
76155W        W48415  10.008  28.033   1.740
76156W        W48416   8.778   8.292  12.502
76157W        W48417  13.322  39.498  11.487
76158W        W48418  36.612  36.564   0.061
76159W        W48419  29.044  28.888  13.950
76160W        W48420  12.140   8.894  12.879
76161W        W48421   8.877  24.750  12.008
76162W        W48422  39.140  24.011   1.184
76163W        W48423  41.309   5.996   2.741
76164W        W48424  30.109  25.097   1.423
76165W        W48425   0.753  20.778  11.631
76166W        W48426  23.291   1.338  14.519
76167W        W48427  15.075   4.365   1.762
76168W        W48428  38.678   9.457  10.376
76169W        W48429  14.982   3.355  14.281
76170W        W48430   9.780  34.830   4.113
76171W        W48431  25.259  26.107   2.321
76172W        W48432  27.737  22.527   1.806
76173W        W48433  40.379  37.071  14.512
76174W        W48434  38.030  31.973  11.591
76175W        W48435  33.184   8.707   1.749
76176W        W48436  22.138  37.604  11.477
76177W        W48437  43.452   6.197  10.684
76178W        W48438  18.001  24.104   3.146
76179W        W48439  18.755  10.645   2.332
76180W        W48440  35.610  30.629   2.432
76181W        W48441   2.455  23.646   4.434
76182W        W48442  37.770  41.539   0.730
76183W        W48443  25.132  28.115  14.733
76184W        W48444  14.914  43.533   2.293
76185W        W48445  20.289   0.872  13.629
76186W        W48446   2.662  13.388  13.398
76187W        W48447   5.601   2.221  13.030
76188W        W48448  20.921   0.709  11.252
76189W        W48449  20.190   5.275   2.720
76190W        W48450   6.128   2.657   4.420
76191W        W48451  14.308   3.834   0.844
76192W        W48452  36.519   3.370   4.638
76193W        W48453  19.891  40.546  12.219
76194W        W48454  32.448  42.907  10.543
76195W        W48455  43.267  40.818  11.130
76196W        W48456  33.399   6.714  14.732
76197W        W48457   9.614  29.658  12.584
76198W        W48458  41.502   4.762   1.008
76199W        W48459  19.011  11.388  11.566
76200W        W48460  14.205  36.773   0.324
76201W        W48461  36.589  40.322   4.573
76202W        W48462   7.126  10.848  10.775
76203W        W48463   3.994  34.919   1.702
76204W        W48464  40.331  43.322  12.441
76205W        W48465  37.799  20.524   4.032
76206W        W48466  18.758  17.623  11.977
76207W        W48467  34.456  16.602  11.024
76208W        W48468  39.071  44.917  14.999
76209W        W48469  18.639   7.379   4.160
76210W        W48470  35.502   2.297   1.392
76211W        W48471  40.426  42.326   1.734
76212W        W48472   9.841   3.889  14.971
76213W        W48473  12.602  44.918   0.732
76214W        W48474  42.964   8.312   4.323
76215W        W48475  31.650  10.818  14.436
76216W        W48476  29.192   0.452  10.823
76217W        W48477  28.021   4.600  10.725
76218W        W48478  22.919  22.069  10.194
76219W        W48479  13.565  44.932   4.241
76220W        W48480  41.016  38.573   1.325
76221W        W48481  24.682  41.798   3.223
76222W        W48482   3.651  42.937  10.799
76223W        W48483  13.355  17.279  13.920
76224W        W48484  16.794  11.974  12.483
76225W        W48485  35.949  44.572   4.136
76226W        W48486  26.134   7.227   1.663
76227W        W48487  32.558  25.133   2.219
76228W        W48488   4.406  32.913   2.394
76229W        W48489  42.728   0.163   1.855
76230W        W48490  14.377  27.473   9.623
76231W        W48491   6.357  43.419   0.432
76232W        W48492  26.819  26.431  11.081
76233W        W48493  16.975  12.743   0.267
76234W        W48494  34.443  26.453   3.738
76235W        W48495  38.885  24.643  12.530
76236W        W48496  33.496  33.197   4.232
76237W        W48497  25.187  39.739  14.297
76238W        W48498   1.407  37.959   2.075
76239W        W48499  26.052  27.947  10.520
76240W        W48500  12.719  37.407   1.112
76241W        W48501  19.735   0.178  14.867
76242W        W48502  41.975  19.022   2.968
76243W        W48503  28.669  31.306  10.611
76244W        W48504   3.708   2.142  12.992
76245W        W48505  35.513  30.607   4.381
76246W        W48506  28.931   5.365   2.879
76247W        W48507  42.852  20.303   4.133
76248W        W48508  26.776  28.889   4.505
76249W        W48509   4.499  33.656   0.861
76250W        W48510  16.310  38.380  13.310
76251W        W48511   9.305   7.757   4.050
76252W        W48512  37.292  17.555  11.428
76253W        W48513  26.759   6.427  11.218
76254W        W48514  11.539  34.903  12.094
76255W        W48515  15.090  41.227  13.261
76256W        W48516  21.145  13.093   2.268
76257W        W48517  39.263  10.079  11.828
76258W        W48518  22.419  27.953  14.244
76259W        W48519  20.296   7.003  14.820
76260W        W48520  25.513  38.577   0.452
76261W        W48521  13.799  20.768   3.803
76262W        W48522   1.624   0.338  13.553
76263W        W48523  44.313   8.071  13.369
76264W        W48524   4.299   6.880  10.744
76265W        W48525  41.329  42.516  11.695
76266W        W48526   8.139  24.955  10.437
76267W        W48527  29.848  32.950   1.886
76268W        W48528  16.267  20.038   3.275
76269W        W48529  22.166  21.307   1.448
76270W        W48530   3.732   4.030  10.675
76271W        W48531  10.640  19.601  14.065
76272W        W48532  19.167  38.284  14.279
76273W        W48533  20.022  43.958   4.586
76274W        W48534  38.142   9.850   5.031
76275W        W48535  33.048  42.635  10.483
76276W        W48536  44.178   5.920  10.275
76277W        W48537  28.953  17.251  10.384
76278W        W48538   1.774  18.055   4.623
76279W        W48539  13.874  19.179  11.159
76280W        W48540  13.234  30.972  14.957
76281W        W48541  26.358  10.921   2.062
76282W        W48542   7.280   6.265  12.549
76283W        W48543  20.820  31.850   4.900
76284W        W48544  40.260   0.087   3.199
76285W        W48545  34.791  31.534  13.591
76286W        W48546  21.430  36.702   3.295
76287W        W48547   1.671  40.628   5.258
76288W        W48548  19.995  27.955   1.917
76289W        W48549   7.129  38.719  11.549
76290W        W48550  39.858  26.627   3.721
76291W        W48551  40.912  27.030   2.779
76292W        W48552   9.278  31.357  13.023
76293W        W48553  25.067  23.113  10.437
76294W        W48554  43.429  34.456  12.472
76295W        W48555  18.095  15.154  11.330
76296W        W48556  28.678  32.491   2.384
76297W        W48557  21.975  25.371   9.712
76298W        W48558  10.149   4.759  11.859
76299W        W48559  13.903   9.775  12.792
76300W        W48560   2.805  29.878  11.185
76301W        W48561   8.318  36.495  11.108
76302W        W48562  25.372  12.399   3.863
76303W        W48563  20.538  42.920  10.548
76304W        W48564  29.893  24.078  13.972
76305W        W48565   5.805  11.590  12.910
76306W        W48566  26.249  36.322   2.249
76307W        W48567  28.672  25.258   2.282
76308W        W48568  21.275   1.492  12.385
76309W        W48569  17.324  39.015  13.898
76310W        W48570  22.000  19.519  13.283
76311W        W48571  35.007  25.145  10.862
76312W        W48572  44.533  35.434   2.291
76313W        W48573  15.336  11.678   3.200
76314W        W48574   6.875  36.063  13.337
76315W        W48575  41.903  26.715   0.005
76316W        W48576  37.629  41.076  10.684
76317W        W48577   1.292   2.431  14.897
76318W        W48578  37.856  22.255  13.536
76319W        W48579  31.437  28.356  14.428
76320W        W48580  22.610  40.196  13.097
76321W        W48581  24.260   3.770  11.150
76322W        W48582  16.536   8.948  13.007
76323W        W48583   2.559   8.477   2.550
76324W        W48584  38.942   6.422   0.243
76325W        W48585   2.501  22.135   2.784
76326W        W48586  29.545   5.703  11.866
76327W        W48587   6.849  12.759   0.936
76328W        W48588  35.858  15.811  11.431
76329W        W48589  13.724  19.062   2.398
76330W        W48590   1.535   3.227   4.609
76331W        W48591   6.621  27.432  14.177
76332W        W48592  20.885  39.783  10.724
76333W        W48593  28.269   8.898  10.268
76334W        W48594  44.555  24.660   0.856
76335W        W48595  10.794   0.857  14.750
76336W        W48596  10.896  38.973   3.182
76337W        W48597   8.210   5.564  11.898
76338W        W48598  31.970  31.563  12.745
76339W        W48599  11.748  22.515  12.431
76340W        W48600  36.925  41.493   2.726
76341W        W48601  13.148  16.823   3.282
76342W        W48602  14.909  44.850   0.899
76343W        W48603  33.693  17.980   0.224
76344W        W48604  25.077  20.151   5.092
76345W        W48605  29.689  14.703   3.139
76346W        W48606  42.406  30.827  10.624
76347W        W48607  28.385  34.838   1.378
76348W        W48608  41.875  29.871  13.995
76349W        W48609  25.044  35.374  14.564
76350W        W48610  21.640  33.411  13.095
76351W        W48611   9.852  25.499  11.557
76352W        W48612  29.646  23.177   3.669
76353W        W48613  33.178  20.531  13.045
76354W        W48614  39.927   1.567  12.270
76355W        W48615  18.519  15.189  11.662
76356W        W48616  16.603  26.536   3.110
76357W        W48617  21.650  23.509  14.045
76358W        W48618   5.664  27.344   5.078
76359W        W48619   7.752   5.014  11.325
76360W        W48620  41.428   4.782  13.621
76361W        W48621  21.413  34.408   0.182
76362W        W48622  33.216   9.536  13.076
76363W        W48623  28.115  42.820   4.656
76364W        W48624   5.336   7.762   0.878
76365W        W48625  16.254   1.000   0.694
76366W        W48626  10.836   0.259   3.914
76367W        W48627  42.484   2.145  11.448
76368W        W48628   0.170  27.716   2.351
76369W        W48629  27.898  37.897  11.692
76370W        W48630  15.981  16.261   0.454
76371W        W48631  10.161   8.291  12.413
76372W        W48632  43.817  40.405  11.416
76373W        W48633  37.575  39.127   4.936
76374W        W48634  35.057  33.211  14.407
76375W        W48635  33.625  11.125   3.596
76376W        W48636  37.696  19.548   0.132
76377W        W48637  39.953   4.359   3.425
76378W        W48638  10.086  28.396  12.714
76379W        W48639  17.763  42.678  11.136
76380W        W48640  37.738  10.146  14.580
76381W        W48641   6.754  33.838   4.652
76382W        W48642   2.661  35.361   4.133
76383W        W48643  27.327  19.313   1.009
76384W        W48644   0.119   3.150  11.323
76385W        W48645   0.275  19.162   3.175
76386W        W48646  12.380  12.198   0.894
76387W        W48647   2.316  16.118  12.331
76388W        W48648  34.878  12.589   1.423
76389W        W48649  28.885  34.916  12.483
76390W        W48650  37.253  27.930   0.802
76391W        W48651  27.611  36.112  13.050
76392W        W48652  44.317   5.391   2.450
76393W        W48653   5.992  34.625   1.834
76394W        W48654  40.307  39.871   4.193
76395W        W48655   8.143  12.771  14.440
76396W        W48656  10.764  32.871  11.648
76397W        W48657  16.514  31.043  14.276
76398W        W48658   8.242   5.908  14.052
76399W        W48659  22.935  25.167   3.154
76400W        W48660  44.043   1.000   1.185
76401W        W48661  35.784   0.754  13.532
76402W        W48662  43.913  26.447   2.845
76403W        W48663   1.535  37.104  13.964
76404W        W48664   0.322  23.670   2.361
76405W        W48665  29.222  27.889   0.072
76406W        W48666  43.526  19.025  13.469
76407W        W48667  33.129  42.982  14.995
76408W        W48668  35.034  36.362   4.946
76409W        W48669  29.096  37.941  12.524
76410W        W48670   5.361   1.440  14.393
76411W        W48671  38.480   0.928   3.176
76412W        W48672  12.240  37.416   0.818
76413W        W48673  37.340  21.966  13.461
76414W        W48674  34.894  13.379   0.912
76415W        W48675  18.421   9.773   1.965
76416W        W48676   7.990  27.423   5.431
76417W        W48677  38.486  31.050   3.136
76418W        W48678  30.196   6.658   0.431
76419W        W48679  28.426  31.586  12.344
76420W        W48680  11.237   4.175   1.425
76421W        W48681  40.937   0.314   0.633
76422W        W48682  42.544  35.225  14.896
76423W        W48683  44.740  26.233  11.132
76424W        W48684  20.244  40.363   4.088
76425W        W48685  41.412  39.903  13.972
76426W        W48686   2.858   2.140   1.245
76427W        W48687  18.722  35.868  14.888
76428W        W48688  32.909  42.155  11.262
76429W        W48689  21.050  43.330  14.045
76430W        W48690  41.003   8.249   3.334
76431W        W48691  11.930  39.703   1.908
76432W        W48692  19.758  39.012  13.289
76433W        W48693  37.373  16.461  14.828
76434W        W48694  34.418  43.798  14.960
76435W        W48695  24.996  20.762  13.576
76436W        W48696  29.931  10.665  13.847
76437W        W48697  34.425  11.247   1.746
76438W        W48698  21.970  40.861  12.754
76439W        W48699  11.081  29.001  12.146
76440W        W48700   1.973   6.965  13.426
76441W        W48701  36.592  42.866   4.099
76442W        W48702  10.768  44.749   3.139
76443W        W48703  36.906  19.358  13.864
76444W        W48704  39.868  40.854   0.452
76445W        W48705  34.809   1.199   1.155
76446W        W48706  37.139  28.686  12.099
76447W        W48707  14.826  30.501   5.032
76448W        W48708  10.780   7.920   2.628
76449W        W48709  43.483  15.231   0.396
76450W        W48710  24.700  37.589   4.662
76451W        W48711  41.414  21.060  11.107
76452W        W48712   2.906  44.744  13.668
76453W        W48713  18.246  41.057  11.417
76454W        W48714  28.933  44.651  11.149
76455W        W48715  36.599  17.731   2.701
76456W        W48716   7.693  44.296   0.858
76457W        W48717  21.581  28.725  10.079
76458W        W48718   6.867  39.516   2.422
76459W        W48719   8.203  38.476   2.429
76460W        W48720  39.377  23.466  13.939
76461W        W48721  21.686   8.379  11.202
76462W        W48722  34.542   3.355   2.249
76463W        W48723  28.068  29.710   1.302
76464W        W48724  29.919   3.417  13.490
76465W        W48725  33.498  21.367   4.749
76466W        W48726  24.630  38.582   3.620
76467W        W48727  25.671  21.047   0.791
76468W        W48728  18.621  35.370   4.630
76469W        W48729   0.452   6.219   3.395
76470W        W48730  15.632   0.574   2.802
76471W        W48731  39.274  32.524  13.954
76472W        W48732  16.428   3.020  12.211
76473W        W48733  12.996  44.858   4.204
76474W        W48734  42.775  16.594   1.366
76475W        W48735   8.106  35.146   2.761
76476W        W48736  28.441  41.769   3.296
76477W        W48737  21.506   9.160  11.571
76478W        W48738  10.603   9.842   4.542
76479W        W48739   9.615   1.272  11.939
76480W        W48740  25.106  27.391   2.180
76481W        W48741   4.308  30.720  10.495
76482W        W48742  22.973  10.782  13.897
76483W        W48743  31.630  44.073  13.327
76484W        W48744  38.572  39.156  10.853
76485W        W48745   7.486  40.359   1.826
76486W        W48746  41.809   3.392  13.267
76487W        W48747   5.867  10.675   4.379
76488W        W48748  23.687  23.957  14.920
76489W        W48749  10.885   9.903  14.834
76490W        W48750   0.459  30.090  11.274
76491W        W48751  25.234  13.449  11.110
76492W        W48752  28.851   1.717  13.316
76493W        W48753  21.624  25.285   4.049
76494W        W48754  29.683  41.779   4.072
76495W        W48755   2.271   9.302   3.547
76496W        W48756   9.855  31.374  13.419
76497W        W48757  28.720  30.788  10.524
76498W        W48758  18.251  24.115  13.902
76499W        W48759   5.883  37.025  11.085
76500W        W48760  35.660  10.605   2.656
76501W        W48761  35.074  10.703   1.260
76502W        W48762  21.160  19.828   0.351
76503W        W48763  30.035   8.606   3.159
76504W        W48764  32.657  24.165  13.600
76505W        W48765  11.929   1.997   3.091
76506W        W48766  27.109  36.563   2.273
76507W        W48767  18.537   7.796  13.901
76508W        W48768  24.814  22.068   3.652
76509W        W48769  14.624  14.761  14.968
76510W        W48770  28.534  25.190  14.714
76511W        W48771  19.589  23.980   4.641
76512W        W48772  14.831  14.820   3.665
76513W        W48773   8.775  16.604  14.033
76514W        W48774   1.483   0.552   3.763
76515W        W48775   2.877  20.028   1.322
76516W        W48776   3.713   2.299   0.894
76517W        W48777  24.139  17.606   1.703
76518W        W48778  37.390  36.924  12.949
76519W        W48779  17.822   6.675   0.379
76520W        W48780  18.506  42.489  14.990
76521W        W48781  20.449  24.686  14.930
76522W        W48782  28.719  13.035   3.555
76523W        W48783  10.082  34.903  14.449
76524W        W48784  24.497  16.234  13.882
76525W        W48785  15.463   8.788  14.381
76526W        W48786   2.782  28.846  12.546
76527W        W48787  19.824  23.768  10.791
76528W        W48788   6.384   1.516  14.505
76529W        W48789  24.125  32.945   3.294
76530W        W48790   3.179  44.757  11.855
76531W        W48791  33.070   1.210   2.731
76532W        W48792  44.852  16.597   2.329
76533W        W48793  31.471  41.238   1.912
76534W        W48794  34.684  34.382  14.584
76535W        W48795  32.666  42.941  11.228
76536W        W48796  44.052  17.651   3.615
76537W        W48797   6.748  15.842  10.617
76538W        W48798  19.483  14.698  13.334
76539W        W48799  22.986   8.812   4.203
76540W        W48800  16.117  27.688   2.876
76541W        W48801  36.481  33.411  12.856
76542W        W48802  34.449  41.596   1.815
76543W        W48803  22.772   9.726   2.223
76544W        W48804   1.404  29.941  14.844
76545W        W48805  32.968   9.179  14.066
76546W        W48806  20.305  13.144   1.913
76547W        W48807  34.381  30.884   0.909
76548W        W48808  38.326   1.222   1.788
76549W        W48809  22.772  20.657  12.032
76550W        W48810  27.023  44.029   2.694
76551W        W48811  44.893  21.529   3.345
76552W        W48812  27.656  20.916  12.958
76553W        W48813  21.452  20.666   1.399
76554W        W48814  23.064  42.246   4.820
76555W        W48815   3.804  43.770  12.595
76556W        W48816  27.488  21.040   4.536
76557W        W48817  22.073  11.863   1.395
76558W        W48818  37.814   6.315   2.378
76559W        W48819  12.719  16.579  12.036
76560W        W48820  42.388  28.275   0.213
76561W        W48821  41.848  39.940  11.687
76562W        W48822  36.778  29.108   4.157
76563W        W48823   5.319  41.798   4.492
76564W        W48824  41.702  13.092   5.042
76565W        W48825  24.676   2.885  14.363
76566W        W48826  23.042  40.320   0.393
76567W        W48827   0.454   1.389   2.675
76568W        W48828  26.126  21.161   3.305
76569W        W48829   2.749  37.929  13.856
76570W        W48830  41.427  31.874  13.357
76571W        W48831  43.906  16.213   0.575
76572W        W48832  21.761  29.535  11.109
76573W        W48833  29.421  25.699   2.698
76574W        W48834  34.328  15.089   4.144
76575W        W48835  33.091  31.431  14.444
76576W        W48836  28.031  30.398   5.061
76577W        W48837  31.269   3.920  11.887
76578W        W48838  27.004  41.348  14.934
76579W        W48839  43.974  39.957  11.183
76580W        W48840  39.583  10.790  14.212
76581W        W48841  33.406  19.561  10.748
76582W        W48842  26.373  31.049   3.976
76583W        W48843   3.917   1.759  12.094
76584W        W48844  23.437   9.686  11.135
76585W        W48845   9.172  22.656   2.555
76586W        W48846  41.835   5.885   0.805
76587W        W48847  43.611  15.608  11.193
76588W        W48848  23.221  16.102   2.366
76589W        W48849  28.140  13.146  13.539
76590W        W48850   1.751  28.083   1.057
76591W        W48851   9.420  22.972  11.866
76592W        W48852  34.229   8.715   0.804
76593W        W48853  43.804  18.747   0.201
76594W        W48854  32.594  27.984  10.787
76595W        W48855  10.196  18.288  12.154
76596W        W48856   8.228   0.742  13.545
76597W        W48857  24.617  30.338  14.451
76598W        W48858  10.628  42.036  11.441
76599W        W48859   9.919  13.629   0.430
76600W        W48860  17.553  13.400   3.219
76601W        W48861  30.918  29.866   4.653
76602W        W48862  29.027  42.501  14.487
76603W        W48863  24.211  32.523  11.025
76604W        W48864  37.735  34.267  13.792
76605W        W48865  18.450  13.670  12.570
76606W        W48866  28.450  43.510   1.576
76607W        W48867   8.220  25.139  11.386
76608W        W48868  21.546  29.015   0.830
76609W        W48869   3.459  41.758  12.942
76610W        W48870  18.884  32.072  10.256
76611W        W48871  24.530  35.551   2.681
76612W        W48872  33.593  10.589  13.554
76613W        W48873  13.068  33.958   3.661
76614W        W48874  43.037   8.640   3.066
76615W        W48875  44.932  25.800  14.519
76616W        W48876  39.293   7.101  10.189
76617W        W48877  22.013  38.760  13.525
76618W        W48878  33.652  16.761   3.690
76619W        W48879  34.017  17.806   4.141
76620W        W48880   6.635  39.062   4.938
76621W        W48881  10.070  32.368   1.239
76622W        W48882  15.497  41.926  14.026
76623W        W48883  14.127  10.368   3.280
76624W        W48884  20.495  36.878  12.435
76625W        W48885  36.903  44.889   0.348
76626W        W48886   0.824  15.878  11.001
76627W        W48887  38.842   4.476   3.363
76628W        W48888  43.182  27.042  14.864
76629W        W48889  44.742  24.732   3.268
76630W        W48890  11.224  20.679   0.846
76631W        W48891  32.954  10.202  14.376
76632W        W48892  44.601  19.595   1.907
76633W        W48893   9.434  13.354   2.138
76634W        W48894  44.760   7.323   4.577
76635W        W48895  14.000  30.999   2.241
76636W        W48896  11.216  35.054   4.441
76637W        W48897  17.853  39.212   4.046
76638W        W48898  31.987   8.782  10.114
76639W        W48899  17.062  36.008  10.000
76640W        W48900  30.532  31.337  10.672
76641W        W48901  17.751  10.950  14.526
76642W        W48902  18.759  19.605   4.564
76643W        W48903  24.061   0.401   0.271
76644W        W48904  43.509  33.692  14.058
76645W        W48905  11.779  24.645  12.667
76646W        W48906  32.002  24.675   2.708
76647W        W48907  26.723  29.664   0.775
76648W        W48908  16.450  17.128  12.847
76649W        W48909   5.862  31.949  12.153
76650W        W48910  23.529  15.944  10.856
76651W        W48911  18.031  35.094   2.578
76652W        W48912   9.953  12.523   2.270
76653W        W48913   7.655  38.420   2.407
76654W        W48914  29.574  34.359   1.783
76655W        W48915  15.835  30.048  14.849
76656W        W48916  16.904  42.733  10.303
76657W        W48917  27.630   8.762  14.483
76658W        W48918  36.438  40.920   1.762
76659W        W48919  37.846   5.635  12.031
76660W        W48920   0.917  21.513   2.889
76661W        W48921  22.665  29.908  10.818
76662W        W48922  41.849   2.755   1.912
76663W        W48923  33.354  12.119   2.780
76664W        W48924  33.991   4.827   1.283
76665W        W48925  25.672  37.837   2.356
76666W        W48926   7.325  11.053   0.916
76667W        W48927  33.991  38.988  13.291
76668W        W48928   7.916  29.488   4.610
76669W        W48929   5.318   3.033   0.802
76670W        W48930  14.692   9.073  10.383
76671W        W48931   7.770   0.959   1.834
76672W        W48932  35.860  42.760   3.669
76673W        W48933   5.429  10.323  11.433
76674W        W48934   5.176  27.618  13.163
76675W        W48935  14.831  39.919   1.357
76676W        W48936  24.337  38.441   0.659
76677W        W48937   7.159  33.869   1.834
76678W        W48938   2.970  32.446   2.384
76679W        W48939  41.260   3.641   1.858
76680W        W48940   5.369  30.372   4.608
76681W        W48941  30.723  12.539  12.933
76682W        W48942   1.224  14.169   2.739
76683W        W48943  30.075  28.965   2.853
76684W        W48944  19.315  27.647  10.663
76685W        W48945  16.477  12.139   0.807
76686W        W48946  37.227   1.292   2.550
76687W        W48947  25.777  37.701  13.081
76688W        W48948  38.040   7.511  10.646
76689W        W48949  38.358  14.788   1.755
76690W        W48950  33.662  34.578  13.816
76691W        W48951  24.932  24.268  13.994
76692W        W48952  12.802   3.739  13.934
76693W        W48953  32.080  34.387   3.307
76694W        W48954  18.162  10.162  12.997
76695W        W48955  14.103  40.459   1.737
76696W        W48956  29.398  16.499  12.087
76697W        W48957   9.158  24.018   3.686
76698W        W48958   5.022  20.272  13.553
76699W        W48959  29.874  37.365  13.997
76700W        W48960   7.783  32.311   4.065
76701W        W48961   5.090   5.609   4.259
76702W        W48962   0.200  19.509   0.178
76703W        W48963  25.999  38.641  13.984
76704W        W48964  17.281   5.542  11.192
76705W        W48965  10.794   8.180   0.481
76706W        W48966  14.142  23.845  14.725
76707W        W48967  37.867   5.350   3.714
76708W        W48968   2.153  15.141   3.263
76709W        W48969   3.033  32.942  12.157
76710W        W48970  41.988  29.922   4.283
76711W        W48971  40.038  16.753   2.753
76712W        W48972  14.409   5.550  14.949
76713W        W48973  29.170  21.549   0.287
76714W        W48974   0.475  23.062  10.389
76715W        W48975   4.762  27.568   1.505
76716W        W48976   0.294  23.992  14.456
76717W        W48977  11.950  15.257   3.140
76718W        W48978  41.425  17.295  13.732
76719W        W48979  13.621  15.905  12.628
76720W        W48980  12.204   4.792  13.391
76721W        W48981  11.668   8.673   1.361
76722W        W48982  22.531  18.151  14.356
76723W        W48983  22.648  44.612   0.882
76724W        W48984   5.381   9.131  12.148
76725W        W48985  39.847  25.686   3.702
76726W        W48986  19.221  10.282   0.807
76727W        W48987  37.371  42.879   1.265
76728W        W48988  31.008  19.269  14.297
76729W        W48989  21.964  18.237  12.496
76730W        W48990  36.041  36.014   0.510
76731W        W48991  39.278  10.707   4.116
76732W        W48992  40.569  32.462   3.588
76733W        W48993  10.287  11.341  10.751
76734W        W48994  17.322  39.884  13.322
76735W        W48995  31.969  36.870  13.936
76736W        W48996  38.505   1.888  12.039
76737W        W48997   0.893  37.052   3.719
76738W        W48998  44.047   9.280  14.874
76739W        W48999  14.770   7.366   0.865
76740W        W49000   1.885   7.777  12.680
76741W        W49001  16.608   1.300  11.604
76742W        W49002   8.779  19.321  10.764
76743W        W49003  38.761   5.233  11.209
76744W        W49004  13.652  17.636  10.609
76745W        W49005  40.467  31.527   3.628
76746W        W49006   4.906  32.516   0.874
76747W        W49007  20.790   6.752  13.159
76748W        W49008  39.702  24.531   1.777
76749W        W49009  24.562  18.992  12.120
76750W        W49010  30.233  40.694  14.384
76751W        W49011   3.295  16.325   4.150
76752W        W49012  23.789  38.336   3.063
76753W        W49013   6.468  41.844   2.458
76754W        W49014  16.968  22.147  14.026
76755W        W49015   7.211  16.155  10.713
76756W        W49016  17.249  36.456  13.831
76757W        W49017  20.463   1.855   4.557
76758W        W49018  18.079  20.971   0.185
76759W        W49019  42.615  15.307  12.149
76760W        W49020  14.121  19.589   1.738
76761W        W49021  36.836  35.952  14.367
76762W        W49022  14.562  12.208   3.365
76763W        W49023  26.968  20.977   9.980
76764W        W49024  23.812   6.736  13.005
76765W        W49025  30.012  10.899  12.811
76766W        W49026  16.813  40.488   2.266
76767W        W49027  12.361   4.317   1.999
76768W        W49028   8.257  37.815  14.593
76769W        W49029  17.733  17.068  14.781
76770W        W49030   0.843   7.405   2.672
76771W        W49031   8.968  28.216  11.482
76772W        W49032   7.873  19.019  12.313
76773W        W49033   6.889  17.639  12.146
76774W        W49034  30.021  40.443  11.639
76775W        W49035   6.247  20.685   3.773
76776W        W49036  10.242  34.562   2.393
76777W        W49037  21.965   4.222   0.317
76778W        W49038  14.736  25.869   0.702
76779W        W49039  20.039   3.384  11.395
76780W        W49040  14.694  16.211  11.271
76781W        W49041  41.413  10.692  14.930
76782W        W49042  18.541  14.015   2.731
76783W        W49043  18.590   1.629   3.349
76784W        W49044  40.639   3.538  10.772
76785W        W49045  15.660  30.622   1.201
76786W        W49046  31.016  25.023   3.119
76787W        W49047  16.791  37.935  14.842
76788W        W49048  23.281  39.028   2.395
76789W        W49049  13.745  40.977  13.473
76790W        W49050  14.940  30.095   1.164
76791W        W49051   7.232  10.315   2.353
76792W        W49052   1.964  43.546  14.769
76793W        W49053  14.801  31.706   3.784
76794W        W49054  15.789  17.047   2.259
76795W        W49055   9.649   1.440   1.761
76796W        W49056   1.902   4.718  11.150
76797W        W49057  32.683  15.557  13.001
76798W        W49058   7.016  28.989  12.362
76799W        W49059  11.636   3.692  13.881
76800W        W49060  23.537   6.116   3.027
76801W        W49061   1.500   5.359   3.710
76802W        W49062  43.187  21.586  11.447
76803W        W49063  14.384  18.182  13.798
76804W        W49064   9.392  32.204  14.927
76805W        W49065  12.090  13.074   0.896
76806W        W49066  29.008   7.910  14.089
76807W        W49067  25.049   5.193  14.941
76808W        W49068  23.311  39.081   3.209
76809W        W49069  25.924   1.449  11.851
76810W        W49070  20.290  27.487   1.162
76811W        W49071  36.510  24.135  14.219
76812W        W49072  26.185  31.082  11.617
76813W        W49073  16.223  30.194   0.534
76814W        W49074  41.311  26.506   2.678
76815W        W49075  17.773  17.274   1.373
76816W        W49076  29.863   8.707  11.580
76817W        W49077   5.253  21.281  12.506
76818W        W49078   0.156  31.670   4.205
76819W        W49079  20.244  35.967  12.806
76820W        W49080  42.528  36.173   3.712
76821W        W49081  16.223  17.147  10.048
76822W        W49082  22.235   4.951  12.618
76823W        W49083   2.712  19.768  11.499
76824W        W49084  12.248  29.178   4.520
76825W        W49085  13.235  36.936  12.812
76826W        W49086  18.626  15.736   0.295
76827W        W49087   3.740  36.028  10.964
76828W        W49088   5.786  14.417  14.022
76829W        W49089   6.148   6.764   1.246
76830W        W49090  31.260  13.259  13.999
76831W        W49091   4.835  29.901   2.168
76832W        W49092  30.439  19.796  11.939
76833W        W49093  41.920  18.283  12.859
76834W        W49094  31.045  31.659  10.055
76835W        W49095  27.157   7.293  12.589
76836W        W49096  21.240  25.430   3.226
76837W        W49097  33.540  30.120   1.760
76838W        W49098  13.598  22.038  12.456
76839W        W49099  27.002  43.007  12.054
76840W        W49100   9.206  12.846   0.211
76841W        W49101  38.421  35.585  11.420
76842W        W49102   4.669   7.438   5.083
76843W        W49103  38.284  33.045   3.826
76844W        W49104  44.701  42.750   4.566
76845W        W49105  19.190  22.498  13.428
76846W        W49106   6.745  31.899  11.616
76847W        W49107  17.200  34.430   2.435
76848W        W49108  16.292  35.160   1.354
76849W        W49109  26.822  25.376   4.249
76850W        W49110  22.282  26.027   2.233
76851W        W49111   8.784  16.071   4.655
76852W        W49112   7.751  10.241  12.401
76853W        W49113  28.555  18.108   0.223
76854W        W49114  44.211   6.802  12.130
76855W        W49115  10.342   9.874  14.041
76856W        W49116   3.341   1.678   1.259
76857W        W49117   3.846  27.386  12.985
76858W        W49118  39.527  21.078   3.081
76859W        W49119  39.819  19.186  12.936
76860W        W49120  42.336  23.378  11.749
76861W        W49121  32.111  26.072  14.362
76862W        W49122   6.339  21.498   4.282
76863W        W49123  17.363  21.462  11.903
76864W        W49124  22.799  12.006  13.467
76865W        W49125  11.746  18.396   4.266
76866W        W49126  11.804  16.132  12.096
76867W        W49127  12.427  32.701  12.475
76868W        W49128  42.487  40.050   0.951
76869W        W49129  31.526  33.104   2.945
76870W        W49130  15.792  43.492   4.512
76871W        W49131  10.366   9.087   0.069
76872W        W49132  37.399  30.411  11.548
76873W        W49133  20.643  13.804   2.303
76874W        W49134  44.849  33.482   4.555
76875W        W49135  38.877  37.585  13.088
76876W        W49136  32.530   8.214   1.453
76877W        W49137   0.264  38.585  13.487
76878W        W49138  14.112  39.353  14.074
76879W        W49139  15.944  30.274   3.603
76880W        W49140  24.990  41.642  14.834
76881W        W49141  41.271  26.888   2.317
76882W        W49142  15.145  23.087   4.881
76883W        W49143   0.358  12.065  14.610
76884W        W49144  29.612   5.213  10.474
76885W        W49145   7.231  36.246  11.997
76886W        W49146  25.043  10.732  13.812
76887W        W49147  32.518  23.624   0.312
76888W        W49148  44.865   5.676  13.422
76889W        W49149   5.518   9.964   0.466
76890W        W49150  17.144   4.350  12.925
76891W        W49151  26.144  14.587  12.111
76892W        W49152   0.059  22.966  13.860
76893W        W49153  21.731  42.755  11.141
76894W        W49154  20.810  26.117  12.822
76895W        W49155  32.514  32.938   3.812
76896W        W49156  38.955  24.915   0.930
76897W        W49157   7.354  10.536   1.884
76898W        W49158  31.559  12.616   1.773
76899W        W49159  37.793   5.715   1.872
76900W        W49160  16.060  25.078   2.223
76901W        W49161  14.015   4.479  14.789
76902W        W49162  22.183   7.204   3.320
76903W        W49163  28.468  21.235  14.535
76904W        W49164  12.579  42.966  12.538
76905W        W49165  25.381  36.998  13.575
76906W        W49166   5.817   1.856   2.708
76907W        W49167  34.096  19.090   1.711
76908W        W49168  36.378  13.018  13.437
76909W        W49169  30.914  13.706  11.602
76910W        W49170  21.400  14.604  14.958
76911W        W49171  34.466  22.219  12.902
76912W        W49172  29.995  33.883   1.461
76913W        W49173  39.270  42.608   4.778
76914W        W49174  16.518   2.181   0.427
76915W        W49175  26.102   2.998  13.048
76916W        W49176  33.959   4.929  14.326
76917W        W49177   8.976  39.041   0.725
76918W        W49178  29.274   3.899  12.049
76919W        W49179   7.149  34.146   0.399
76920W        W49180  37.853  31.842  12.456
76921W        W49181  10.721  22.592   0.863
76922W        W49182   5.706  25.615   4.933
76923W        W49183  14.865  22.579   4.503
76924W        W49184  30.906  40.130   1.775
76925W        W49185  42.530  26.294   1.685
76926W        W49186  21.810  39.339  12.554
76927W        W49187   5.794  27.078   3.365
76928W        W49188  36.080   0.383  12.548
76929W        W49189  18.212   4.828  11.958
76930W        W49190  26.190  36.038   4.483
76931W        W49191  20.627  22.177   1.437
76932W        W49192  30.921  35.791  10.871
76933W        W49193   4.377   3.551  12.567
76934W        W49194  44.552   5.835   2.301
76935W        W49195  18.076  15.739  13.843
76936W        W49196   3.453  16.647   4.525
76937W        W49197   9.241  39.500   3.382
76938W        W49198  26.524   9.802   4.586
76939W        W49199  14.674  42.812  11.982
76940W        W49200  24.498  35.643  11.632
76941W        W49201  11.588  22.766   1.839
76942W        W49202  41.018  12.105   0.816
76943W        W49203   3.241  12.732  12.515
76944W        W49204  18.589  33.941  11.160
76945W        W49205  11.654  18.918   4.415
76946W        W49206  38.903  22.075   4.150
76947W        W49207  42.801  33.161   0.122
76948W        W49208  41.884  29.633  12.445
76949W        W49209   0.249  14.200   1.169
76950W        W49210  38.740  27.447   1.655
76951W        W49211  23.879  29.273  14.283
76952W        W49212   9.446  23.018   2.847
76953W        W49213  10.894   6.730   5.026
76954W        W49214   1.384  39.398  13.773
76955W        W49215  19.941  19.249  13.358
76956W        W49216   2.883  39.329   3.432
76957W        W49217   8.761  15.070   1.728
76958W        W49218  23.385  27.984  14.536
76959W        W49219  25.204   2.849  10.539
76960W        W49220  14.161  33.428   1.918
76961W        W49221  38.102  37.270   2.298
76962W        W49222   7.876  18.672  14.237
76963W        W49223  20.771   4.720   3.239
76964W        W49224   8.738  33.508  14.784
76965W        W49225  37.863  29.539   0.849
76966W        W49226   9.782  38.465  12.650
76967W        W49227  41.532  32.920   3.167
76968W        W49228  36.671   8.318   4.199
76969W        W49229  24.109  20.615   0.422
76970W        W49230  17.939   0.705   2.364
76971W        W49231  12.786  24.067   2.780
76972W        W49232  22.680   8.634  11.488
76973W        W49233   5.178  31.129  10.652
76974W        W49234   5.416  35.768  11.176
76975W        W49235  43.071  10.012  13.455
76976W        W49236  19.826  13.888   4.230
76977W        W49237  44.338  14.134  10.806
76978W        W49238   7.641  35.871   0.817
76979W        W49239  20.511   0.479   3.857
76980W        W49240  43.154  13.202  13.978
76981W        W49241  25.129  14.657  14.059
76982W        W49242  23.618  17.620  12.505
76983W        W49243  36.969   9.388   9.779
76984W        W49244  18.686  16.194   4.554
76985W        W49245  34.632  26.953   2.344
76986W        W49246   3.445  37.978   2.261
76987W        W49247  20.285   9.215   1.300
76988W        W49248  30.645  29.549  12.755
76989W        W49249  20.104  41.288  11.762
76990W        W49250  12.757  43.253   1.819
76991W        W49251  41.878   2.994   2.397
76992W        W49252  43.850  24.687  14.936
76993W        W49253  20.013  13.513   0.989
76994W        W49254  44.758   0.154   0.031
76995W        W49255   5.144  20.133   0.873
76996W        W49256   3.451  28.473  14.564
76997W        W49257  16.562  12.906   4.596
76998W        W49258  41.703  13.011   1.450
76999W        W49259  18.591  20.483   3.332
77000W        W49260   9.949   9.343  14.804
77001W        W49261  32.048  13.256  14.229
77002W        W49262  35.913  11.914   3.799
77003W        W49263  38.448  28.446  14.704
77004W        W49264  16.442  40.964  13.545
77005W        W49265  19.920  29.548  12.008
77006W        W49266   7.372  21.019   2.349
77007W        W49267  22.923  37.303   1.322
77008W        W49268   8.371  19.341   0.953
77009W        W49269  37.922  18.771  10.252
77010W        W49270  40.293   4.267  14.497
77011W        W49271  17.113  37.164  10.673
77012W        W49272   5.820  19.398   3.693
77013W        W49273   5.213  18.651  11.217
77014W        W49274  34.954  29.390   3.313
77015W        W49275   9.823   0.131  14.283
77016W        W49276  15.688  12.039  13.873
77017W        W49277  39.040  27.552   4.197
77018W        W49278  39.431  16.682   4.710
77019W        W49279  21.808   9.695  12.847
77020W        W49280  31.347  30.529   4.595
77021W        W49281  41.834  19.732  13.982
77022W        W49282  30.404  17.494  11.650
77023W        W49283  33.024   1.662   4.851
77024W        W49284  26.438  31.928  10.862
77025W        W49285  30.913  38.575   2.290
77026W        W49286   9.532  26.129   2.713
77027W        W49287   3.498  43.322   3.557
77028W        W49288  18.268  26.265   4.492
77029W        W49289   3.929  22.281   4.046
77030W        W49290  42.523  40.825   2.250
77031W        W49291  11.810  14.438   2.296
77032W        W49292  11.524  16.268  13.838
77033W        W49293   8.862   8.785   4.911
77034W        W49294   2.386  19.904   1.245
77035W        W49295  38.406  27.494   4.995
77036W        W49296  25.466  21.779  14.070
77037W        W49297  24.696  31.422   3.829
77038W        W49298  32.937   3.978   4.199
77039W        W49299  34.491  16.265   4.650
77040W        W49300  25.283  23.948   2.799
77041W        W49301  33.116  27.489  12.544
77042W        W49302  15.848  31.447  13.296
77043W        W49303  11.957  13.710  11.952
77044W        W49304  35.968   7.463  13.592
77045W        W49305  41.297  38.016   2.974
77046W        W49306   6.154   1.329   1.954
77047W        W49307   5.031  30.982  11.994
77048W        W49308  19.595  43.251   0.035
77049W        W49309  11.177  44.873  14.428
77050W        W49310  36.041  22.458  14.536
77051W        W49311   3.392  32.410  12.771
77052W        W49312   9.101  25.521  13.061
77053W        W49313  31.640   3.466  14.983
77054W        W49314  43.470  22.005  13.478
77055W        W49315  39.507  24.186  11.637
77056W        W49316  33.490   2.364  10.898
77057W        W49317   1.393  24.737  14.344
77058W        W49318  28.624  37.314   1.167
77059W        W49319  23.838  22.157   2.178
77060W        W49320  42.025  15.662  13.765
77061W        W49321  12.681  14.150  11.949
77062W        W49322  23.976  14.666  10.790
77063W        W49323  29.281   1.500   2.908
77064W        W49324  14.593  19.057   1.304
77065W        W49325  42.301  41.072  12.560
77066W        W49326  35.546  29.035  14.744
77067W        W49327  28.969  28.573   3.164
77068W        W49328  19.910  30.541   4.579
77069W        W49329  27.215  33.329   2.524
77070W        W49330  32.613   8.306   2.303
77071W        W49331  23.946  42.093  14.900
77072W        W49332   1.038   8.436   2.871
77073W        W49333  23.615  42.026   1.609
77074W        W49334  20.565  40.950   0.160
77075W        W49335  18.156  11.701  14.367
77076W        W49336  26.131   5.892   1.697
77077W        W49337  28.299   5.362  12.381
77078W        W49338  41.532  12.896   3.696
77079W        W49339  17.725  25.687   0.209
77080W        W49340  43.801  36.878   2.691
77081W        W49341  19.056  33.344  11.614
77082W        W49342  16.909   2.419   4.779
77083W        W49343   3.031  20.313   4.552
77084W        W49344  37.090  11.826  13.991
77085W        W49345  38.897  27.578  14.849
77086W        W49346  32.093  24.245  13.638
77087W        W49347   0.353  23.562   3.678
77088W        W49348  23.207   3.760   1.380
77089W        W49349  15.749  33.697   4.607
77090W        W49350  20.325  25.654   3.148
77091W        W49351  16.842   8.895   2.425
77092W        W49352  27.166  17.824   0.891
77093W        W49353  39.014  34.831   4.639
77094W        W49354  42.359   2.976  11.830
77095W        W49355  41.576  37.934   1.195
77096W        W49356  41.429  40.483  12.795
77097W        W49357  33.037  11.765   0.831
77098W        W49358  37.008   5.631  10.630
77099W        W49359  19.148  19.543   3.783
77100W        W49360  14.304  25.510   2.660
77101W        W49361  39.791   8.589  12.983
77102W        W49362  41.137  20.211  10.753
77103W        W49363  27.880  39.778   3.421
77104W        W49364  35.055  38.346   0.358
77105W        W49365  42.994  26.477   4.677
77106W        W49366  37.972  27.535   3.224
77107W        W49367  12.394  29.579  13.489
77108W        W49368  17.285  23.715   2.404
77109W        W49369  32.134  19.058  11.503
77110W        W49370  16.858  16.199   5.508
77111W        W49371  19.574  38.002  13.238
77112W        W49372  24.192  30.185   1.658
77113W        W49373   6.960  30.635   0.314
77114W        W49374   8.832   9.674  14.337
77115W        W49375  17.017  17.168  11.044
77116W        W49376   6.728  40.261  10.588
77117W        W49377   5.351  10.755  12.097
77118W        W49378  33.013  33.932   3.292
77119W        W49379  33.936  13.299   3.934
77120W        W49380  19.837  22.716  14.961
77121W        W49381  21.502  38.376  14.442
77122W        W49382  24.444   5.848   3.426
77123W        W49383   8.367  12.136  11.550
77124W        W49384  33.541  22.880  11.241
77125W        W49385  14.166  16.901  14.842
77126W        W49386  35.502  17.780   3.289
77127W        W49387  44.464  20.265   4.721
77128W        W49388  32.854   5.761   1.078
77129W        W49389   2.180  39.008  13.923
77130W        W49390   5.861  10.548  11.955
77131W        W49391  39.478  30.848  14.191
77132W        W49392  24.294  23.413   3.306
77133W        W49393  33.799  18.390  14.856
77134W        W49394  11.762   5.998   3.153
77135W        W49395  28.882  39.937  14.752
77136W        W49396  43.523  33.371   2.309
77137W        W49397   4.510   1.533   3.834
77138W        W49398  32.408  24.648   3.482
77139W        W49399  12.602   2.542  14.882
77140W        W49400  16.849  15.874  11.820
77141W        W49401   8.422  40.916   1.127
77142W        W49402  26.153   8.631  12.888
77143W        W49403  18.790  10.960  12.981
77144W        W49404  20.643  25.743  11.124
77145W        W49405   5.669   8.792  14.218
77146W        W49406   3.108  18.687   4.525
77147W        W49407  26.067  44.457   3.328
77148W        W49408  21.646  25.881  10.126
77149W        W49409  10.768   4.411   1.593
77150W        W49410  38.937  16.735  14.058
77151W        W49411  36.287  35.353   2.295
77152W        W49412  22.090   0.648  13.583
77153W        W49413  20.698  15.866   1.386
77154W        W49414   7.683  16.717   2.740
77155W        W49415   4.803   6.205   3.656
77156W        W49416  20.251  41.558  14.405
77157W        W49417  32.340  43.193  10.023
77158W        W49418   2.328  22.164   1.485
77159W        W49419  44.274  32.137  12.343
77160W        W49420   7.971  31.593  11.516
77161W        W49421   8.890  43.727   1.601
77162W        W49422  20.021   4.984  14.847
77163W        W49423  42.859  13.770  13.409
77164W        W49424  35.620  44.888   2.933
77165W        W49425  31.570  25.709   2.119
77166W        W49426   7.440  40.921   1.405
77167W        W49427  34.888   7.401  10.927
77168W        W49428  21.206  24.075  14.828
77169W        W49429   5.653  35.284  12.645
77170W        W49430  40.217  15.651   3.183
77171W        W49431  14.614   9.535  12.312
77172W        W49432  25.414   2.244   4.530
77173W        W49433  12.793  13.449   4.744
77174W        W49434  27.148  19.177  13.892
77175W        W49435  44.998  17.681   4.378
77176W        W49436  10.326   0.188   0.396
77177W        W49437  42.055  18.106   3.366
77178W        W49438  19.000  29.023   3.247
77179W        W49439  33.970   4.181   3.285
77180W        W49440  28.363   8.000  10.494
77181W        W49441   7.246  25.661  12.955
77182W        W49442  26.668  34.505  14.024
77183W        W49443   7.327  36.891   1.053
77184W        W49444  30.584  29.097  13.512
77185W        W49445  25.110  41.650  13.452
77186W        W49446   8.157  42.682  11.504
77187W        W49447   9.214  15.684  14.376
77188W        W49448  22.393  32.149  12.312
77189W        W49449  15.704  22.447   0.752
77190W        W49450  23.207   8.168  11.871
77191W        W49451  33.075  18.926  11.109
77192W        W49452   5.455  12.168   1.884
77193W        W49453  22.684  19.982  13.317
77194W        W49454  43.321   7.470   0.945
77195W        W49455  18.340  19.811  11.988
77196W        W49456  15.093  26.498  10.720
77197W        W49457  29.031  18.089   1.019
77198W        W49458  29.639  34.054   3.896
77199W        W49459  37.549   5.625  10.938
77200W        W49460  31.259  20.995   4.224
77201W        W49461   8.154  33.433   0.744
77202W        W49462  40.559   3.766  13.038
77203W        W49463  43.217  25.151   2.950
77204W        W49464  34.382  36.860  14.101
77205W        W49465  18.493  31.942  11.142
77206W        W49466  26.909   8.262  12.995
77207W        W49467   4.141  39.369   4.884
77208W        W49468   2.516  42.406   3.855
77209W        W49469  28.213   1.327   1.377
77210W        W49470  35.960  29.341  13.646
77211W        W49471   6.290   3.981   2.857
77212W        W49472  37.766  40.358   1.346
77213W        W49473   6.736   4.571  10.871
77214W        W49474  17.985  40.105   1.302
77215W        W49475  41.981   0.610  10.760
77216W        W49476   7.630   2.184  11.494
77217W        W49477  14.677  21.154  13.878
77218W        W49478  18.692   4.014  11.139
77219W        W49479  37.390  43.899   4.137
77220W        W49480  23.579  44.016   2.909
77221W        W49481  38.343  11.461  12.057
77222W        W49482   5.294  14.233   4.607
77223W        W49483  12.022   6.410   5.164
77224W        W49484  24.880  30.356  13.980
77225W        W49485  23.544  18.612  12.767
77226W        W49486  24.740  38.613   2.768
77227W        W49487  21.580  25.141  13.398
77228W        W49488  27.059   8.213  14.894
77229W        W49489  13.769  16.669  11.353
77230W        W49490  28.918  41.715  12.142
77231W        W49491  29.377  24.120   1.996
77232W        W49492  30.488  36.763  12.674
77233W        W49493  41.866   9.349  14.076
77234W        W49494  28.484  26.942  13.640
77235W        W49495  38.534   1.499   3.537
77236W        W49496   8.134  30.919  14.512
77237W        W49497  35.577   5.311   1.985
77238W        W49498  20.727  38.264   4.167
77239W        W49499  26.013  38.358   4.093
77240W        W49500  13.700   9.796  11.412
77241W        W49501   7.942  12.515  10.701
77242W        W49502  41.976  32.367   1.087
77243W        W49503  26.109  33.902  13.895
77244W        W49504  14.088  27.484   0.335
77245W        W49505  18.562  24.414  12.217
77246W        W49506   5.028   2.602   0.713
77247W        W49507  19.455   5.219   3.527
77248W        W49508  27.515  19.244  12.437
77249W        W49509  37.722  31.109  14.285
77250W        W49510  36.911   6.176  10.569
77251W        W49511  14.350  25.169  11.563
77252W        W49512  30.102  41.952   1.770
77253W        W49513  11.731  30.944  11.113
77254W        W49514  13.694  18.117  10.447
77255W        W49515  42.386  35.431  10.421
77256W        W49516  13.765  40.494   1.312
77257W        W49517  16.093   5.924   2.185
77258W        W49518   6.464  33.914   1.228
77259W        W49519  39.942  43.031   1.324
77260W        W49520   5.361  17.612  10.486
77261W        W49521  10.372  44.590  13.334
77262W        W49522   7.642  23.890  11.134
77263W        W49523   1.293   9.240   2.600
77264W        W49524  33.413  27.439  14.880
77265W        W49525  28.530  10.285  10.551
77266W        W49526  22.394   6.235  14.404
77267W        W49527  21.659   4.346  12.291
77268W        W49528   6.834  28.729   4.160
77269W        W49529  14.549  36.660  14.947
77270W        W49530   6.216  22.792  11.118
77271W        W49531  41.522  32.913  10.802
77272W        W49532  23.042  19.479   2.385
77273W        W49533  13.789  11.162   3.716
77274W        W49534  21.453  37.679   1.037
77275W        W49535   0.041   9.385  14.425
77276W        W49536  22.637   2.917  11.516
77277W        W49537   4.867  21.257  10.180
77278W        W49538  13.344  11.013   2.218
77279W        W49539  32.566  28.287  13.496
77280W        W49540  28.142  42.776  10.582
77281W        W49541   9.809  30.109   1.317
77282W        W49542  23.764  25.385  12.479
77283W        W49543  34.080  10.826   0.790
77284W        W49544   8.006  26.784   1.631
77285W        W49545  36.335  32.870   0.950
77286W        W49546   1.815  11.961   4.599
77287W        W49547  24.895  27.174   9.875
77288W        W49548   9.818   7.840   4.181
77289W        W49549  43.036  36.370  12.365
77290W        W49550  22.129  33.590   3.693
77291W        W49551  15.175  25.203   4.052
77292W        W49552  21.874  11.697   3.214
77293W        W49553  14.020   6.209   0.636
77294W        W49554   3.724  18.058   0.906
77295W        W49555  43.257  27.580  13.628
77296W        W49556   2.256  22.080  14.615
77297W        W49557   8.757  32.096  11.626
77298W        W49558   7.026  25.805  11.489
77299W        W49559  40.601   5.908  11.141
77300W        W49560  39.356  13.781   0.407
77301W        W49561  35.086  14.659  13.719
77302W        W49562  14.747  15.133   1.302
77303W        W49563  38.257  25.488  12.408
77304W        W49564  16.711  35.888   1.075
77305W        W49565  10.402   6.790   0.199
77306W        W49566  27.463  29.218  14.417
77307W        W49567  12.417  14.557  12.169
77308W        W49568   3.984  31.799  14.495
77309W        W49569  10.344  10.355   2.898
77310W        W49570  18.850   2.785  12.851
77311W        W49571   4.258  18.849   0.230
77312W        W49572  42.359  21.978   3.413
77313W        W49573  21.559   9.582   4.557
77314W        W49574  24.657  31.934   3.763
77315W        W49575  13.885  35.979  13.085
77316W        W49576  28.588  42.833  11.505
77317W        W49577  14.239   8.403   2.181
77318W        W49578  24.567  32.982   0.916
77319W        W49579  33.234  37.434  13.559
77320W        W49580  22.206  12.383   3.650
77321W        W49581  12.344  39.129   4.119
77322W        W49582  41.075   8.017   4.300
77323W        W49583   5.870  31.921   3.602
77324W        W49584   8.134  13.275  12.065
77325W        W49585  16.253   3.219  13.799
77326W        W49586  14.863  20.171   2.031
77327W        W49587  32.502  28.604   4.690
77328W        W49588  17.265  23.184   2.402
77329W        W49589   6.813  43.141   4.338
77330W        W49590  41.498  21.981  13.335
77331W        W49591  39.676  13.128  14.248
77332W        W49592  34.543  33.718   0.520
77333W        W49593  14.283   7.789   0.480
77334W        W49594   5.860  13.802  13.354
77335W        W49595  26.150   2.963   1.712
77336W        W49596   9.149  43.611   4.281
77337W        W49597   5.934  22.627   3.722
77338W        W49598  30.806   2.902  14.364
77339W        W49599  36.294  39.603   0.461
77340W        W49600  36.349   9.507   2.210
77341W        W49601  32.083   2.888  11.160
77342W        W49602  30.255  35.349   0.453
77343W        W49603  11.627  32.863   2.214
77344W        W49604  38.496  21.539  12.916
77345W        W49605  30.853  13.163  12.385
77346W        W49606  30.721  26.666  11.882
77347W        W49607  14.705  21.557   4.545
77348W        W49608  37.473   0.982   1.820
77349W        W49609  21.642  34.812   2.544
77350W        W49610  26.237  32.154   1.326
77351W        W49611  29.913  43.884   2.419
77352W        W49612  36.598   3.380   2.264
77353W        W49613  13.088  44.925   1.493
77354W        W49614  43.804  13.309   2.936
77355W        W49615   4.257  14.247   2.363
77356W        W49616  13.719  33.644  10.365
77357W        W49617  19.545  26.268  10.905
77358W        W49618   1.837  25.098   4.123
77359W        W49619  26.256  22.031   3.394
77360W        W49620  35.289   4.214   4.113
77361W        W49621  25.583  42.380   3.271
77362W        W49622  40.326  30.478  12.188
77363W        W49623  36.487   2.897   4.884
77364W        W49624  13.150   1.977   0.533
77365W        W49625  32.675  23.204   4.644
77366W        W49626  32.212  33.264  10.928
77367W        W49627   0.400  35.953   1.424
77368W        W49628   5.201  31.614   3.452
77369W        W49629  23.810  43.954  12.980
77370W        W49630  29.493  21.193  11.661
77371W        W49631  36.284  34.814   2.805
77372W        W49632  32.416  20.660  11.540
77373W        W49633  10.142  16.650  13.746
77374W        W49634  28.059  38.848  13.530
77375W        W49635  17.612  22.555   4.221
77376W        W49636  36.424  34.711  14.778
77377W        W49637   1.669  25.663   2.384
77378W        W49638   5.817  43.747  14.850
77379W        W49639  34.368  15.292   3.118
77380W        W49640  23.143  10.944   0.305
77381W        W49641  14.769   5.013  11.760
77382W        W49642  29.004  14.312   2.861
77383W        W49643  40.388  44.347  12.486
77384W        W49644  23.580  23.978  11.232
77385W        W49645   1.743  40.260   0.268
77386W        W49646  10.944  27.689  14.831
77387W        W49647  30.086  10.097   5.002
77388W        W49648  25.613  42.424  10.044
77389W        W49649  42.081  32.897   0.605
77390W        W49650  12.240  11.267   2.512
77391W        W49651  25.131  13.796  14.965
77392W        W49652   0.830  38.078   3.781
77393W        W49653   1.505  31.662  12.558
77394W        W49654  42.568  24.639  11.574
77395W        W49655   2.517  25.591   1.672
77396W        W49656  13.700  19.340   1.917
77397W        W49657   9.142  18.349  11.138
77398W        W49658  25.445   6.916  11.118
77399W        W49659   4.687  20.023  12.870
77400W        W49660  11.172  35.700  13.648
77401W        W49661  15.297  38.136   2.400
77402W        W49662  34.150  37.447  14.415
77403W        W49663   3.785  34.119  11.509
77404W        W49664  41.007  29.000  12.495
77405W        W49665  21.215  34.944   3.343
77406W        W49666   0.544  44.460  11.528
77407W        W49667  25.248  29.027   3.016
77408W        W49668  22.009  28.566  12.230
77409W        W49669  24.901  19.706   4.220
77410W        W49670  29.183  26.915  11.045
77411W        W49671  37.126  26.398   0.331
77412W        W49672  13.367  19.886   2.266
77413W        W49673  30.372   8.746  11.584
77414W        W49674  36.914  40.179   1.813
77415W        W49675  24.217  10.412   2.845
77416W        W49676  11.917  38.932  12.949
77417W        W49677  15.480  18.109  10.982
77418W        W49678  15.850  20.004  11.139
77419W        W49679  19.747  40.434  12.678
77420W        W49680  21.738   7.627   0.333
77421W        W49681  13.204  31.944   3.891
77422W        W49682  22.144  31.689   4.658
77423W        W49683  34.943  42.572  10.417
77424W        W49684  11.338  17.296   2.832
77425W        W49685   2.940  26.069   1.354
77426W        W49686   3.296  23.042  14.371
77427W        W49687  15.823  18.494  12.064
77428W        W49688  29.099  35.100   4.531
77429W        W49689  22.979  32.651  12.124
77430W        W49690  33.897   8.120  13.484
77431W        W49691  39.985   6.414   3.677
77432W        W49692  30.572  13.030  12.804
77433W        W49693  24.176   2.483   0.004
77434W        W49694  33.073   1.781   0.977
77435W        W49695  32.212  44.905   5.003
77436W        W49696  24.828  12.091  14.961
77437W        W49697   6.227  19.517   1.322
77438W        W49698  35.146  43.348   0.210
77439W        W49699  35.652   5.421  10.737
77440W        W49700   7.622  32.567   1.237
77441W        W49701  10.732  11.875  11.685
77442W        W49702  29.025  23.512  13.883
77443W        W49703   6.348  11.108  10.605
77444W        W49704   1.629  20.569   1.304
77445W        W49705  21.288  26.459   4.654
77446W        W49706  14.097  44.899   4.120
77447W        W49707  19.040  12.652  12.860
77448W        W49708  40.001   3.422  14.493
77449W        W49709  34.500   3.681  12.155
77450W        W49710  22.215   7.397  13.891
77451W        W49711  17.240  22.207  13.573
77452W        W49712  32.440  18.312  13.286
77453W        W49713   2.533  28.150  13.411
77454W        W49714  36.054  28.827   1.501
77455W        W49715  41.989  34.003   3.121
77456W        W49716  11.687  19.987   4.233
77457W        W49717  41.303  11.692   0.482
77458W        W49718  16.808  28.354  10.694
77459W        W49719  19.706   9.786   0.316
77460W        W49720  29.814  11.712   3.694
77461W        W49721   9.676  20.308  11.615
77462W        W49722   2.919  28.909   1.777
77463W        W49723  35.526  24.419  14.476
77464W        W49724  34.511   1.504   4.608
77465W        W49725  43.955  11.698   2.176
77466W        W49726  34.101  16.563   0.729
77467W        W49727  42.560  36.573   0.019
77468W        W49728  16.253  22.238   2.962
77469W        W49729   1.190  37.423   0.663
77470W        W49730  28.703   5.209   0.281
77471W        W49731   7.769  10.205   0.655
77472W        W49732  32.478  27.926   0.967
77473W        W49733  24.377   6.334  10.762
77474W        W49734   5.294  43.285  11.534
77475W        W49735  43.912  30.143   0.412
77476W        W49736   3.194   6.598  12.628
77477W        W49737  14.050   1.347  10.733
77478W        W49738  26.115   8.287   3.146
77479W        W49739  34.346  12.169   0.907
77480W        W49740  15.653  29.663  14.542
77481W        W49741  17.481  17.286  12.886
77482W        W49742  25.957  18.077   1.329
77483W        W49743  16.940  10.310  10.144
77484W        W49744   0.450   2.374   2.249
77485W        W49745  16.295   7.657  13.840
77486W        W49746   3.170  13.139  10.921
77487W        W49747  26.300  22.035   4.790
77488W        W49748   0.516  35.358   4.091
77489W        W49749  17.360  24.626  10.845
77490W        W49750   3.404  44.953   0.547
77491W        W49751  18.358  32.872  10.693
77492W        W49752  16.107  43.249   0.576
77493W        W49753  15.450  43.006   0.285
77494W        W49754  25.114   4.921  14.501
77495W        W49755  15.379   4.976  10.600
77496W        W49756  40.501  29.842   4.193
77497W        W49757  10.641  39.563  12.844
77498W        W49758  36.045   4.440  11.575
77499W        W49759  38.426  23.222   2.339
77500W        W49760   8.175  30.851  10.719
77501W        W49761  32.697  43.715  13.369
77502W        W49762  22.783   5.580   3.699
77503W        W49763  28.462  16.619  12.421
77504W        W49764  41.370   3.873   4.565
77505W        W49765  28.201  30.411  14.321
77506W        W49766  18.181  27.383   3.176
77507W        W49767  24.401  40.394   3.176
77508W        W49768  36.376  13.338  10.900
77509W        W49769  34.521  10.271  12.067
77510W        W49770  37.604   3.726  12.502
77511W        W49771  12.245   9.285   4.770
77512W        W49772  36.909  29.781  14.934
77513W        W49773  40.393  34.911  11.943
77514W        W49774   1.468  17.695  14.651
77515W        W49775  13.825  37.069  10.619
77516W        W49776   2.437   2.968   4.488
77517W        W49777  29.228  27.802   1.464
77518W        W49778   5.445  36.521  13.486
77519W        W49779  30.873  10.021   0.426
77520W        W49780  37.574  11.620  13.890
77521W        W49781   5.408  21.067   4.138
77522W        W49782  10.073  15.891   0.813
77523W        W49783  43.404   0.150  13.971
77524W        W49784  32.913  26.657  11.984
77525W        W49785  41.390  43.010   0.661
77526W        W49786  11.721  40.416  13.318
77527W        W49787  13.745  31.559   3.958
77528W        W49788   5.606   2.808   0.408
77529W        W49789   3.070   7.122  14.403
77530W        W49790  40.431  25.207  11.520
77531W        W49791  21.331  34.587  12.849
77532W        W49792  34.483  37.827  13.653
77533W        W49793  36.706   0.482  14.476
77534W        W49794   0.378  27.576  14.407
77535W        W49795  27.029  22.505   4.637
77536W        W49796  28.229  43.558  11.662
77537W        W49797  13.245  38.079   3.616
77538W        W49798  33.541  37.131   0.542
77539W        W49799  24.590   3.180   3.747
77540W        W49800  23.045  20.505   4.986
77541W        W49801  24.748  12.071   4.608
77542W        W49802  42.592  15.595  11.090
77543W        W49803  43.665  24.001   0.745
77544W        W49804  36.742  28.607   1.231
77545W        W49805  39.849   9.332  12.086
77546W        W49806  36.441   6.665  11.164
77547W        W49807  39.110   4.685  12.974
77548W        W49808  40.398  14.386   4.481
77549W        W49809  32.462  32.967   0.947
77550W        W49810  41.511  28.913  11.111
77551W        W49811  28.044  37.636  14.347
77552W        W49812  34.126  42.947   4.547
77553W        W49813  14.612  35.454   0.434
77554W        W49814  41.530  26.096   4.307
77555W        W49815  35.308  21.099   4.593
77556W        W49816  21.467  24.574  14.951
77557W        W49817   3.926  43.379  14.977
77558W        W49818  19.313  24.405  13.658
77559W        W49819   8.745   7.268  10.640
77560W        W49820   2.792  37.059  14.938
77561W        W49821  34.091  41.276  11.240
77562W        W49822  13.231  12.826   5.268
77563W        W49823  12.839  10.432  11.445
77564W        W49824   4.889   5.348   2.310
77565W        W49825  24.456   0.763  13.135
77566W        W49826  24.712  42.048   4.459
77567W        W49827  18.707   9.352   3.660
77568W        W49828   8.344  27.702   0.874
77569W        W49829   0.549  15.114  14.463
77570W        W49830   0.872  43.790   3.660
77571W        W49831  43.738   6.133  12.542
77572W        W49832  44.751  38.494  14.965
77573W        W49833  42.406  21.694  12.870
77574W        W49834  29.430  14.856   3.798
77575W        W49835  19.068  14.425   1.048
77576W        W49836   4.893   6.176   0.688
77577W        W49837  15.176   2.439   2.929
77578W        W49838  26.695  14.071  14.269
77579W        W49839  17.121  25.199  13.527
77580W        W49840  19.416  42.601  11.838
77581W        W49841  44.063  35.565  14.071
77582W        W49842  34.687  18.739   9.828
77583W        W49843  11.758  32.167  12.423
77584W        W49844   4.746  24.622  12.510
77585W        W49845  34.877  44.920  13.223
77586W        W49846  35.047  30.633  10.787
77587W        W49847  42.573  43.699   3.325
77588W        W49848  18.543  33.875   4.129
77589W        W49849  21.094  42.998   3.369
77590W        W49850  10.110  13.727  10.388
77591W        W49851  40.445  15.878   2.739
77592W        W49852  11.873   3.768   3.129
77593W        W49853   1.107   2.933   4.563
77594W        W49854   7.205  11.175  14.539
77595W        W49855  20.937  36.547   1.977
77596W        W49856  23.797  28.934   9.962
77597W        W49857   3.996  29.835   4.107
77598W        W49858  18.262  16.518   4.275
77599W        W49859   4.264   7.566   4.361
77600W        W49860  23.528  38.581   2.215
77601W        W49861  35.885  13.868  11.654
77602W        W49862  40.531  19.575   3.347
77603W        W49863  37.834  35.906   1.234
77604W        W49864  27.791  21.469  14.423
77605W        W49865  19.302   6.631  14.921
77606W        W49866  34.822  23.734  11.453
77607W        W49867  19.700  18.543   3.343
77608W        W49868  24.573   4.274  14.167
77609W        W49869  44.539  30.532   4.077
77610W        W49870  16.839  40.007   1.927
77611W        W49871  14.610  25.923  12.405
77612W        W49872   6.361  37.816   1.702
77613W        W49873  10.820   5.890  11.729
77614W        W49874  41.977  40.268   4.901
77615W        W49875  14.679  26.952   0.725
77616W        W49876  40.420  16.991   1.715
77617W        W49877  17.949  18.054  14.962
77618W        W49878  19.052  25.648   0.436
77619W        W49879   7.920  28.675  14.479
77620W        W49880  39.559  21.962   0.378
77621W        W49881  34.314  15.887  14.925
77622W        W49882  36.983  26.506   2.989
77623W        W49883  29.892   5.971   1.340
77624W        W49884  18.369  20.100   2.397
77625W        W49885  40.648  43.538  13.745
77626W        W49886  12.429  36.787  12.481
77627W        W49887  38.207  38.000  11.498
77628W        W49888  40.383  11.664   0.857
77629W        W49889  38.818  20.730  13.902
77630W        W49890  25.670  17.784  11.606
77631W        W49891  36.261  36.045   1.641
77632W        W49892  34.937   6.598   4.993
77633W        W49893  12.087  12.227   0.467
77634W        W49894  40.654  31.958   4.498
77635W        W49895  15.797  29.131  14.346
77636W        W49896  22.059  44.413   3.121
77637W        W49897  39.321  21.284  11.562
77638W        W49898  23.507  18.103  11.509
77639W        W49899  22.553   6.409  11.925
77640W        W49900  17.055  35.928   3.215
77641W        W49901  25.096  20.205  10.730
77642W        W49902   0.274  29.391  14.003
77643W        W49903  39.622  39.328   3.656
77644W        W49904  39.134  29.506  13.433
77645W        W49905   8.235  12.668  13.445
77646W        W49906  40.510  21.059  13.547
77647W        W49907  41.034  17.587   3.694
77648W        W49908  14.025  43.011   2.632
77649W        W49909   2.226  17.534   3.588
77650W        W49910  34.555  44.594   0.909
77651W        W49911  20.806  44.421   4.083
77652W        W49912  26.252  20.097  12.961
77653W        W49913  38.451  15.753   3.209
77654W        W49914  12.701  15.359   0.158
77655W        W49915  30.142   8.511  10.711
77656W        W49916  25.809  32.722   0.942
77657W        W49917  29.063  42.977   0.448
77658W        W49918  10.784  39.398   0.914
77659W        W49919  15.092   1.360   1.973
77660W        W49920   5.277  28.437   1.383
77661W        W49921   5.470  24.533  11.057
77662W        W49922   2.008   1.964  13.303
77663W        W49923   7.391   4.913   1.891
77664W        W49924   0.673  44.870  13.284
77665W        W49925   6.525  13.565   4.560
77666W        W49926  30.087   5.789   2.653
77667W        W49927  18.956   0.431   1.872
77668W        W49928  30.438  30.657   1.750
77669W        W49929   7.347  23.481   0.386
77670W        W49930  24.425   4.381   0.181
77671W        W49931  24.390  16.595  12.033
77672W        W49932   3.918   4.370   0.972
77673W        W49933  21.771   1.374  12.473
77674W        W49934   3.400  34.636   9.830
77675W        W49935   7.384  43.303  12.698
77676W        W49936  19.156  41.593  13.884
77677W        W49937   8.375  42.504   4.632
77678W        W49938  40.372  36.477  12.872
77679W        W49939  40.546  39.016   1.917
77680W        W49940  35.078   4.811   1.328
77681W        W49941  42.933  39.484   3.778
77682W        W49942   9.149   2.195   2.755
77683W        W49943   9.140  15.259   4.816
77684W        W49944  36.106  26.237   2.246
77685W        W49945   7.368  35.151  14.353
77686W        W49946  30.904  43.298  12.517
77687W        W49947  22.586  28.004  14.911
77688W        W49948   1.527  12.663  14.879
77689W        W49949   1.262  33.918   2.890
77690W        W49950  43.564  29.975   2.351
77691W        W49951  37.876  32.447   1.391
77692W        W49952  23.859  20.737   9.696
77693W        W49953   6.923  40.309  11.877
77694W        W49954  17.228  34.856   4.669
77695W        W49955  31.009  18.494   1.425
77696W        W49956  33.488  12.305   9.926
77697W        W49957   2.236  43.525  10.611
77698W        W49958  17.799  22.485  12.544
77699W        W49959  10.929  32.416  10.794
77700W        W49960   2.207  37.982   3.703
77701W        W49961   6.905   7.232  12.858
77702W        W49962  27.052   3.693  13.170
77703W        W49963  22.275  33.009   4.847
77704W        W49964  13.518  40.246   5.090
77705W        W49965  33.087  10.247   0.904
77706W        W49966  11.176  14.601   2.365
77707W        W49967  40.600  13.929   3.780
77708W        W49968  28.695  17.637   4.867
77709W        W49969  16.961   5.211   2.243
77710W        W49970   1.467  41.480   3.344
77711W        W49971  27.801  40.452  11.989
77712W        W49972   4.955  41.802  14.439
77713W        W49973  18.764  14.716  14.345
77714W        W49974  34.579  17.074  10.804
77715W        W49975  39.288  27.889   3.769
77716W        W49976  14.253   0.863  10.766
77717W        W49977  13.663  19.955   0.385
77718W        W49978  36.500  16.271   4.227
77719W        W49979  22.018  33.371  14.049
77720W        W49980  42.333  33.007  11.537
77721W        W49981  36.488  32.364  12.984
77722W        W49982  31.911   1.558  12.417
77723W        W49983  13.124  14.282  13.925
77724W        W49984  29.667  42.913  12.074
77725W        W49985  30.047  19.754   0.240
77726W        W49986  17.811  41.744   2.158
77727W        W49987  10.225  38.824  10.576
77728W        W49988  43.899  27.739  10.877
77729W        W49989  23.017  11.282   4.270
77730W        W49990  24.252  25.106   2.249
77731W        W49991   1.735  27.471   2.365
77732W        W49992  29.629  37.278  12.402
77733W        W49993   3.420  20.685  14.807
77734W        W49994  11.004  19.713   4.953
77735W        W49995  38.298  13.761  10.675
77736W        W49996  20.165  19.018   2.083
77737W        W49997  30.022   5.367  14.920
77738W        W49998  33.178  37.715   1.335
77739W        W49999  24.459  27.456  13.099
77740W        W50000  39.541  21.936  14.858
77741W        W50001  40.968  29.120  11.530
77742W        W50002   7.300  26.711   3.836
77743W        W50003   2.295  34.950   2.319
77744W        W50004   9.373  17.253   0.034
77745W        W50005  30.421   7.953  11.429
77746W        W50006  29.750   3.729  12.199
77747W        W50007  44.965  15.294   1.648
77748W        W50008  24.940  40.478  12.040
77749W        W50009  34.934  17.613   4.834
77750W        W50010  20.060  34.397  12.466
77751W        W50011  10.836  17.506   2.176
77752W        W50012   7.641  38.361  14.484
77753W        W50013   5.929  24.750   1.259
77754W        W50014   3.842   3.386  13.907
77755W        W50015  22.712  15.905  12.117
77756W        W50016  12.618  24.745  13.922
77757W        W50017   2.489   4.333   4.141
77758W        W50018  40.965   0.303   3.102
77759W        W50019  31.103  34.990  14.424
77760W        W50020  44.271  12.864  12.374
77761W        W50021  33.986   6.167  13.414
77762W        W50022  37.325  42.942   2.648
77763W        W50023  27.072  43.951   1.738
77764W        W50024  22.527   4.354  13.619
77765W        W50025   8.907  13.504  12.459
77766W        W50026  18.545   5.263  11.596
77767W        W50027   3.671  29.147  11.162
77768W        W50028   5.450  29.880   4.666
77769W        W50029   7.010  20.232  12.600
77770W        W50030   8.127   3.208  14.006
77771W        W50031   0.713  10.533   5.338
77772W        W50032  28.215  17.125  11.102
77773W        W50033  26.016  12.828   2.353
77774W        W50034  16.814  15.842  10.599
77775W        W50035   3.504   2.422   1.772
77776W        W50036   1.824   3.702   2.172
77777W        W50037  36.047   4.686   3.767
77778W        W50038  30.021   8.861   4.513
77779W        W50039  40.363  43.530   0.271
77780W        W50040   4.903  27.516   0.501
77781W        W50041   8.312  41.497   4.946
77782W        W50042  27.617  44.785  11.894
77783W        W50043  40.459  30.901  13.285
77784W        W50044  24.184  31.981  14.521
77785W        W50045  15.624  17.535  12.003
77786W        W50046  35.339  12.629  11.210
77787W        W50047   8.331  32.462   1.717
77788W        W50048  22.498  29.540  13.736
77789W        W50049  24.802  20.632  10.886
77790W        W50050  23.056   5.082  11.000
77791W        W50051  41.750  12.335  13.952
77792W        W50052  41.503  11.852   0.921
77793W        W50053  15.604  16.230   0.860
77794W        W50054  41.741  30.379   0.316
77795W        W50055  11.576  18.944  12.434
77796W        W50056  12.687  40.307   4.702
77797W        W50057  15.915   3.166  12.065
77798W        W50058   5.088  32.573  11.647
77799W        W50059  16.600   0.943  14.368
77800W        W50060   3.836  40.050  13.640
77801W        W50061   8.713  14.740   3.189
77802W        W50062  42.113   1.455  13.945
77803W        W50063  30.958   9.824  13.649
77804W        W50064  29.569  13.146   2.027
77805W        W50065  22.692   2.438  14.370
77806W        W50066   8.255  22.023  14.349
77807W        W50067  35.407  16.054  11.493
77808W        W50068  27.339   3.000  11.371
77809W        W50069   6.420  34.473  14.964
77810W        W50070  27.508  21.228  13.349
77811W        W50071   8.556  36.336  10.677
77812W        W50072  23.517  39.552   3.581
77813W        W50073   6.504  11.179  14.272
77814W        W50074  34.828  41.966  11.088
77815W        W50075  26.071  42.057   0.187
77816W        W50076  37.066  10.475   3.815
77817W        W50077  31.126  43.785  12.468
77818W        W50078  12.129   4.035  12.099
77819W        W50079  25.891  17.547   4.807
77820W        W50080  11.737  29.605  12.222
77821W        W50081  31.630  36.482  12.372
77822W        W50082  19.878  33.437  12.417
77823W        W50083  22.151  34.303  13.903
77824W        W50084  21.906  14.575  14.880
77825W        W50085  34.180  31.041  10.639
77826W        W50086  27.924  32.391  11.844
77827W        W50087  16.359   5.932  10.986
77828W        W50088  15.422   5.542   0.822
77829W        W50089  41.929  37.564   0.898
77830W        W50090   8.540  43.846  13.450
77831W        W50091  32.741  15.386   0.946
77832W        W50092   7.837  16.249   1.495
77833W        W50093  37.597  43.749  10.345
77834W        W50094  42.922  10.876  14.800
77835W        W50095  25.207  27.484   0.437
77836W        W50096  24.108  30.595  14.764
77837W        W50097   3.417  12.328  11.570
77838W        W50098   7.906  32.772   1.675
77839W        W50099   3.450  16.348  11.034
77840W        W50100  44.325   1.418   9.910
77841W        W50101   2.415   7.330   4.506
77842W        W50102   4.733  23.702   4.997
77843W        W50103  30.321   7.150   0.304
77844W        W50104   5.009   1.387  11.974
77845W        W50105   4.299   5.767  11.439
77846W        W50106   0.058  44.482  12.665
77847W        W50107   8.905  10.827  13.316
77848W        W50108  43.313  23.284  12.718
77849W        W50109  29.234  19.106  13.053
77850W        W50110  18.155  13.240   0.750
77851W        W50111  29.637  30.128   4.224
77852W        W50112  35.442   0.547  10.637
77853W        W50113  10.902   9.838  14.312
77854W        W50114  43.843  24.297  10.694
77855W        W50115  40.850  26.013  13.990
77856W        W50116  20.083  16.123  12.293
77857W        W50117  42.987  21.714   1.836
77858W        W50118   7.342  28.128   5.000
77859W        W50119  32.893   1.520   3.096
77860W        W50120   6.409   1.970  12.617
77861W        W50121  12.087  36.025   4.490
77862W        W50122   9.434  18.094   4.185
77863W        W50123  34.653  35.536  11.589
77864W        W50124  27.617  44.947  13.463
77865W        W50125  23.930  38.187   0.480
77866W        W50126   6.726  24.909  10.624
77867W        W50127  10.350  40.657   1.073
77868W        W50128  19.823  27.240  14.851
77869W        W50129  44.650   3.368  13.338
77870W        W50130  40.400  39.603   3.755
77871W        W50131   7.172   8.620  10.691
77872W        W50132   6.828  26.303  11.187
77873W        W50133  43.814  31.788   2.183
77874W        W50134  33.934  36.827  13.285
77875W        W50135   5.198  13.347   2.205
77876W        W50136  23.479  41.303   3.247
77877W        W50137   8.792  44.166   1.321
77878W        W50138  21.523   0.514   3.739
77879W        W50139  39.796  33.015  11.274
77880W        W50140   3.950  12.054   2.636
77881W        W50141  23.045   7.850  14.859
77882W        W50142   0.538  36.977  14.033
77883W        W50143  16.029  22.958  13.939
77884W        W50144  36.138  32.868   2.290
77885W        W50145  18.169   5.946   0.537
77886W        W50146  33.129  39.797   2.756
77887W        W50147  27.259  20.467   2.727
77888W        W50148  44.364  39.295  14.955
77889W        W50149  38.986  40.862   5.005
77890W        W50150  12.104  43.230  12.849
77891W        W50151  29.968  14.820  12.839
77892W        W50152   0.247  42.474  14.837
77893W        W50153  32.477  24.170   4.810
77894W        W50154  28.390  14.876  13.077
77895W        W50155   6.753  15.379   0.007
77896W        W50156  27.009  25.638  13.378
77897W        W50157  13.870  24.553   4.859
77898W        W50158  12.620  44.203   1.147
77899W        W50159  28.668   6.889   1.898
77900W        W50160  15.121  30.028  13.356
77901W        W50161  37.410  17.521  13.855
77902W        W50162  10.831  28.208   2.196
77903W        W50163  42.428  22.135   0.445
77904W        W50164  18.478  30.564  13.968
77905W        W50165  43.270  40.433  12.247
77906W        W50166  25.109  32.130   4.453
77907W        W50167  32.018  42.013   2.397
77908W        W50168  29.074  38.042  13.520
77909W        W50169  25.986  14.333  14.844
77910W        W50170  43.464  31.360   3.528
77911W        W50171  16.333  39.445  12.058
77912W        W50172   1.304  17.127   3.842
77913W        W50173   3.410  44.443  12.764
77914W        W50174   6.443  38.889   3.125
77915W        W50175  42.452  41.849   2.383
77916W        W50176  34.519  39.375  14.274
77917W        W50177  31.560  36.267   1.192
77918W        W50178  12.678   5.283  10.657
77919W        W50179  26.172   6.323  12.128
77920W        W50180  14.816  33.748  11.586
77921W        W50181  26.521  10.416   4.015
77922W        W50182   0.750  14.266  12.054
77923W        W50183  27.116  22.827  12.516
77924W        W50184  40.855  23.898  14.494
77925W        W50185  41.895  14.270  14.369
77926W        W50186  38.325   4.916  14.794
77927W        W50187  26.574  10.556   4.958
77928W        W50188  39.307  15.251   3.245
77929W        W50189  30.392  13.569   3.690
77930W        W50190  15.687  28.983  10.815
77931W        W50191  33.208  16.453  12.425
77932W        W50192  41.829  13.782   0.680
77933W        W50193   7.397  40.910  12.519
77934W        W50194   3.291   3.295   1.684
77935W        W50195  41.680  32.540   1.475
77936W        W50196  40.595  44.259   1.858
77937W        W50197   7.676  19.712   4.116
77938W        W50198  10.815  44.269   0.417
77939W        W50199  10.281  24.410  14.923
77940W        W50200  40.288  30.613   4.622
77941W        W50201  36.888  32.873   2.817
77942W        W50202  36.965  29.372   1.758
77943W        W50203  37.906  37.529  10.602
77944W        W50204   8.726  10.244  12.672
77945W        W50205   5.816  32.399   0.909
77946W        W50206  19.203  37.521   4.356
77947W        W50207   4.341  35.643   0.524
77948W        W50208   8.828   7.177  12.184
77949W        W50209  16.227  18.532   2.379
77950W        W50210  20.877   6.964  14.470
77951W        W50211  37.282  37.606   4.113
77952W        W50212   7.907  27.434   0.750
77953W        W50213  27.269  35.357  11.678
77954W        W50214   4.251  29.428  13.135
77955W        W50215  20.113  30.516  14.829
77956W        W50216  17.574  15.028   1.329
77957W        W50217  25.869   1.059   2.550
77958W        W50218  10.814   0.145  10.543
77959W        W50219   8.390  38.062  12.985
77960W        W50220  28.657  40.493  13.431
77961W        W50221  43.249  37.692  11.491
77962W        W50222  37.469  22.898   4.705
77963W        W50223  19.574  21.739  13.179
77964W        W50224   1.467  22.143   1.878
77965W        W50225  20.898  18.494  11.888
77966W        W50226   7.313  37.049   0.088
77967W        W50227  33.687  12.364   2.454
77968W        W50228  12.875  40.444   2.342
77969W        W50229   2.118   4.896   1.440
77970W        W50230  26.541  20.612  12.091
77971W        W50231  30.006  18.309   1.404
77972W        W50232  40.450  39.290  12.597
77973W        W50233  10.615  17.259   0.758
77974W        W50234  42.288  43.911  11.646
77975W        W50235  40.938  10.057   0.849
77976W        W50236  26.235  33.365   0.415
77977W        W50237  29.689  35.983  13.939
77978W        W50238  13.778  35.653   0.761
77979W        W50239  18.069  16.597   1.765
77980W        W50240   9.912  35.601   2.926
77981W        W50241  13.409  13.689   2.389
77982W        W50242  19.776  44.952   0.375
77983W        W50243  35.619  30.927  12.796
77984W        W50244   7.206  21.163   4.373
77985W        W50245   4.328  13.395   0.885
77986W        W50246  25.507   4.170   1.464
77987W        W50247   5.932  32.090  14.519
77988W        W50248   4.149  25.780   9.887
77989W        W50249  14.788   4.267  13.473
77990W        W50250  33.115  11.306  11.990
77991W        W50251  29.515  19.303  13.512
77992W        W50252  10.096  43.767   0.283
77993W        W50253  13.127  23.541   0.384
77994W        W50254  18.378  36.426  14.010
77995W        W50255  17.270  17.573  11.412
77996W        W50256  22.711  34.007   1.957
77997W        W50257   8.146  42.414  12.468
77998W        W50258  14.729  37.835  11.640
77999W        W50259  31.549   7.222   2.952
78000W        W50260  14.539   7.382  11.948
78001W        W50261  13.808  41.283   0.611
78002W        W50262  37.428  35.598  13.242
78003W        W50263  43.757  34.448   4.748
78004W        W50264  12.559  23.677   2.175
78005W        W50265  23.360  34.352   0.413
78006W        W50266  28.099   3.569   0.288
78007W        W50267  14.505  19.472   0.184
78008W        W50268  11.322   7.126  10.704
78009W        W50269  17.314  33.838   0.201
78010W        W50270  12.756  28.065  12.321
78011W        W50271  23.185  37.283   3.269
78012W        W50272  32.041  11.140  14.316
78013W        W50273  19.109  34.423   3.999
78014W        W50274   5.832  35.988   3.800
78015W        W50275  16.631  31.061  13.295
78016W        W50276  43.058  36.037   0.370
78017W        W50277  30.310  21.521  11.573
78018W        W50278  16.163  37.601   3.951
78019W        W50279  31.172  20.478  12.919
78020W        W50280  38.412  31.470   2.841
78021W        W50281   2.287  32.478   0.025
78022W        W50282   0.380   1.512   4.532
78023W        W50283  25.201  38.236  11.961
78024W        W50284  23.650  14.609   0.059
78025W        W50285  33.956  39.303  10.626
78026W        W50286  35.508  13.930  10.663
78027W        W50287  24.119  34.089  14.012
78028W        W50288  28.311  25.506  12.082
78029W        W50289  14.326   0.284  10.777
78030W        W50290   3.248  22.097  11.894
78031W        W50291   2.969  43.549  14.892
78032W        W50292  33.374   1.064  11.503
78033W        W50293   8.220  39.369  13.809
78034W        W50294  39.059   6.305   2.517
78035W        W50295  44.474  36.313   4.425
78036W        W50296  44.004  14.618   3.271
78037W        W50297   8.707  22.669   3.302
78038W        W50298  22.085  42.307   1.924
78039W        W50299  21.493  25.087   3.577
78040W        W50300   7.521  37.038   2.873
78041W        W50301   6.410  42.083  14.107
78042W        W50302   4.768   3.003   1.484
78043W        W50303  11.823  10.193   3.731
78044W        W50304  26.504  17.411   2.847
78045W        W50305  17.215  37.776   2.237
78046W        W50306   3.659  14.253  13.551
78047W        W50307  34.442  33.096   3.670
78048W        W50308   9.369  25.827   2.234
78049W        W50309   0.980  13.335  14.812
78050W        W50310   7.689  25.203  11.433
78051W        W50311   0.449  40.928   2.596
78052W        W50312   8.751  17.551  11.060
78053W        W50313  22.923   0.267   2.195
78054W        W50314  22.413   7.713  12.118
78055W        W50315   1.832  36.071  14.928
78056W        W50316  36.593  23.637  13.474
78057W        W50317  41.414   2.849   0.280
78058W        W50318  39.675   6.314   1.196
78059W        W50319   1.440  39.624  11.959
78060W        W50320  14.707   5.833  14.054
78061W        W50321  32.580  20.637   0.876
78062W        W50322  35.134  20.195   3.699
78063W        W50323  28.002   9.246  11.788
78064W        W50324  32.434  38.546   4.942
78065W        W50325  32.997  37.756   1.823
78066W        W50326  21.046  16.301   2.817
78067W        W50327   1.320  42.119   1.521
78068W        W50328   3.470   3.519   2.118
78069W        W50329  13.760  15.824   4.648
78070W        W50330   5.349   4.456   1.347
78071W        W50331  22.118  33.843  10.702
78072W        W50332  23.006  32.198   2.878
78073W        W50333  10.706  15.200   1.392
78074W        W50334  17.230  10.620   0.522
78075W        W50335   8.666   7.130  14.358
78076W        W50336  30.230  33.083   3.357
78077W        W50337  35.303  41.979   4.466
78078W        W50338  35.499  13.625  11.063
78079W        W50339   6.776  38.646  11.117
78080W        W50340  10.387  16.259  12.365
78081W        W50341  25.734  27.135  14.073
78082W        W50342  44.447  26.521  11.924
78083W        W50343  38.853  24.409   1.015
78084W        W50344  19.322  28.936  12.671
78085W        W50345  44.071  26.022  13.492
78086W        W50346  21.522  24.970   3.048
78087W        W50347  29.116  31.414  11.137
78088W        W50348  21.891  32.974  11.570
78089W        W50349  13.611  37.334   1.719
78090W        W50350   8.428  34.024  14.393
78091W        W50351   8.719  43.307   1.270
78092W        W50352  32.995  27.735   0.740
78093W        W50353  18.465   5.780   4.238
78094W        W50354  43.711  37.055   3.584
78095W        W50355  42.592   4.519  14.778
78096W        W50356  38.165  34.265  12.512
78097W        W50357  33.180  41.595  12.491
78098W        W50358  31.448  29.871  14.746
78099W        W50359  22.672   9.614   0.308
78100W        W50360   9.454  16.040   3.048
78101W        W50361  17.020  31.049  14.593
78102W        W50362  17.677  36.521   1.328
78103W        W50363   7.352  40.852   3.097
78104W        W50364  28.073   9.779  11.028
78105W        W50365  40.657  11.300   3.242
78106W        W50366   0.786  24.746   4.158
78107W        W50367  24.257   2.010  12.699
78108W        W50368  42.897  22.013  11.276
78109W        W50369  37.332  35.865   4.532
78110W        W50370  18.136  29.434   4.613
78111W        W50371  39.307   0.306   1.884
78112W        W50372   4.319  39.239  13.017
78113W        W50373   0.778  16.307  14.978
78114W        W50374  28.979  40.151  14.293
78115W        W50375  24.692   2.545  11.302
78116W        W50376   7.792  27.172  10.446
78117W        W50377  13.782  20.267   2.789
78118W        W50378  22.258  33.356   0.787
78119W        W50379  16.422   0.413   0.583
78120W        W50380   5.437  16.105   2.279
78121W        W50381   3.489   8.892  14.343
78122W        W50382  41.018  28.781  11.148
78123W        W50383  33.969  16.027  11.579
78124W        W50384  20.696   8.289  14.710
78125W        W50385  41.039  38.100  12.084
78126W        W50386   5.201  44.777  13.254
78127W        W50387  16.551  16.597   2.469
78128W        W50388  40.273   2.786  12.815
78129W        W50389  23.325  24.701   4.190
78130W        W50390  19.203  24.725   3.607
78131W        W50391  27.675  42.885   1.414
78132W        W50392  35.378   9.379  11.546
78133W        W50393  44.240   9.389  12.591
78134W        W50394  11.081  37.760   3.323
78135W        W50395  39.301   4.915   4.153
78136W        W50396  20.712  14.140   0.606
78137W        W50397  38.531  33.723   0.263
78138W        W50398  16.353  25.613   0.405
78139W        W50399   4.859  16.615   0.229
78140W        W50400  13.022  22.324   4.174
78141W        W50401  43.025  35.015  10.421
78142W        W50402  43.896  39.988   0.754
78143W        W50403  43.283  36.690   1.901
78144W        W50404  19.298   7.170  14.969
78145W        W50405  31.472  23.672  11.826
78146W        W50406  44.238  27.897   2.776
78147W        W50407   7.403  39.512   2.430
78148W        W50408   4.850  23.056   2.874
78149W        W50409  10.727   8.639  13.473
78150W        W50410  16.590  17.840  13.957
78151W        W50411  34.182  14.442  11.151
78152W        W50412   9.425  16.218   3.562
78153W        W50413  40.966  40.734  13.934
78154W        W50414  27.460   3.088  14.873
78155W        W50415  16.936   9.886   2.335
78156W        W50416  18.092  23.206   3.148
78157W        W50417  21.312   2.045  11.537
78158W        W50418   6.485  42.914  13.780
78159W        W50419   4.453  43.034   3.716
78160W        W50420  41.688  20.190  10.801
78161W        W50421  40.635  32.063  13.878
78162W        W50422  10.590  35.594   1.007
78163W        W50423   3.391  31.640   4.176
78164W        W50424  41.287  10.288  11.159
78165W        W50425  26.477  15.042   4.301
78166W        W50426  34.219  34.589  13.814
78167W        W50427  31.526  34.629  12.913
78168W        W50428  16.218  18.477  12.409
78169W        W50429  39.878  24.629   1.278
78170W        W50430  25.138   5.943   0.782
78171W        W50431  40.889  24.052   1.331
78172W        W50432  37.997  44.203   1.400
78173W        W50433  19.264  39.404   2.191
78174W        W50434   5.284  15.601   4.707
78175W        W50435  26.425  18.597  12.155
78176W        W50436  23.698  13.124   3.126
78177W        W50437   7.616  21.479   2.384
78178W        W50438  20.661   5.241  12.844
78179W        W50439  31.895   8.033  14.366
78180W        W50440  22.797  32.629  11.246
78181W        W50441   4.433   7.811  13.934
78182W        W50442  23.646  14.774  11.184
78183W        W50443  33.387  30.156   4.768
78184W        W50444  39.425   3.926   1.229
78185W        W50445  17.293  16.751  12.081
78186W        W50446   7.774  15.319  12.633
78187W        W50447  44.865   5.192   4.567
78188W        W50448  30.182  30.532  11.942
78189W        W50449  21.057  23.677  11.487
78190W        W50450  38.650  22.693   3.657
78191W        W50451  28.445  25.690   4.570
78192W        W50452  30.118  10.401  12.928
78193W        W50453  23.028   7.776   2.741
78194W        W50454   4.865   0.389  12.131
78195W        W50455  36.576  36.666  11.109
78196W        W50456   6.674   6.228   0.404
78197W        W50457  21.538  37.870   2.906
78198W        W50458  36.137  36.564  14.781
78199W        W50459  34.988  33.517   0.682
78200W        W50460  21.902   9.180  10.795
78201W        W50461   4.256  31.536  11.544
78202W        W50462  41.992  42.816  14.780
78203W        W50463  24.253   1.692  14.352
78204W        W50464  28.087  33.397  12.938
78205W        W50465  29.248  31.075  13.809
78206W        W50466  17.358  11.961  11.145
78207W        W50467   1.264   8.897   3.001
78208W        W50468   0.897  27.997   3.543
78209W        W50469  33.693   0.422   3.057
78210W        W50470  27.511   6.217  13.888
78211W        W50471  23.203  40.537   4.631
78212W        W50472  36.382  38.282  11.067
78213W        W50473  14.316  37.122  11.319
78214W        W50474   4.831  42.956   1.663
78215W        W50475  10.399   9.386   0.488
78216W        W50476  44.365  12.300  14.700
78217W        W50477  40.581  41.835   1.711
78218W        W50478  42.404  33.862  10.721
78219W        W50479   6.390  20.713  13.819
78220W        W50480  30.002  20.475   4.235
78221W        W50481   9.396  11.056   4.580
78222W        W50482  20.718  43.591   1.397
78223W        W50483  24.099  19.070   3.297
78224W        W50484   3.034  22.472  11.617
78225W        W50485  12.974  36.150   0.809
78226W        W50486  40.566  10.269  12.432
78227W        W50487  40.396  22.406  12.345
78228W        W50488  28.942   3.712  13.434
78229W        W50489   3.988  23.615   1.776
78230W        W50490  16.700  41.444  12.572
78231W        W50491  20.347  11.706   4.097
78232W        W50492  11.823  17.726   0.168
78233W        W50493   9.778  14.790  14.894
78234W        W50494  15.792   4.984   2.367
78235W        W50495   6.790  34.508   0.310
78236W        W50496  25.927   7.230   1.169
78237W        W50497   1.870   8.366  13.059
78238W        W50498  41.564  38.217  10.537
78239W        W50499  44.502  31.553   0.978
78240W        W50500   0.329  16.900  11.994
78241W        W50501  29.668  19.165  11.624
78242W        W50502   3.709  16.784   1.266
78243W        W50503  43.457  22.435  12.243
78244W        W50504  38.702   0.283   0.200
78245W        W50505  35.378   4.014  11.577
78246W        W50506  16.463   0.359   1.339
78247W        W50507  42.380  44.359  11.406
78248W        W50508   4.473  38.531   3.627
78249W        W50509   8.732  43.042  10.609
78250W        W50510  32.003   3.437  11.656
78251W        W50511  44.439  10.815   3.389
78252W        W50512  23.323  32.858  12.847
78253W        W50513  34.096   0.337  14.864
78254W        W50514  20.226  14.787   2.313
78255W        W50515  44.886   1.351   0.329
78256W        W50516  25.217  25.877   4.614
78257W        W50517  12.932  38.949  12.676
78258W        W50518  17.886  40.972  14.433
78259W        W50519  25.100  36.349  11.494
78260W        W50520  15.666  25.553  11.606
78261W        W50521  12.884  37.093   1.955
78262W        W50522  16.264  10.696  14.539
78263W        W50523  37.049  43.239   0.086
78264W        W50524  32.383   5.468   1.341
78265W        W50525  12.232  26.265   1.934
78266W        W50526   9.780  27.659  13.828
78267W        W50527  17.000  31.026   2.154
78268W        W50528  20.340   6.677  11.667
78269W        W50529  14.120  14.072   3.773
78270W        W50530  15.985   6.388  14.942
78271W        W50531  11.834  15.626  11.578
78272W        W50532  36.370  12.434  12.132
78273W        W50533  33.129  40.840  14.848
78274W        W50534  28.149  14.794  14.937
78275W        W50535   5.696  23.479   0.871
78276W        W50536   5.162  15.968  12.387
78277W        W50537  28.450  29.039  11.086
78278W        W50538   4.758   0.246  14.800
78279W        W50539  17.592  34.015  13.847
78280W        W50540  41.306  22.518  11.536
78281W        W50541  22.237  36.079   1.911
78282W        W50542  29.130  29.219   0.492
78283W        W50543  33.056  43.304  14.099
78284W        W50544  17.246  13.938   1.792
78285W        W50545  41.396  26.102   2.341
78286W        W50546  43.105  16.658   1.757
78287W        W50547  29.834  14.295  11.699
78288W        W50548  27.872  31.409   5.022
78289W        W50549   6.897  22.200   4.283
78290W        W50550   8.835  36.196  14.610
78291W        W50551   5.537  15.274  13.087
78292W        W50552   9.152  10.040  12.511
78293W        W50553  10.177  19.276   2.793
78294W        W50554   5.876  14.816   1.345
78295W        W50555  18.834  13.963   0.909
78296W        W50556   7.366  38.770  13.997
78297W        W50557  34.358  18.371  13.961
78298W        W50558   7.209  11.799  12.539
78299W        W50559  17.391  22.088   1.653
78300W        W50560  17.003  29.778  10.776
78301W        W50561   4.397  25.505   3.157
78302W        W50562  27.179   5.348   1.428
78303W        W50563  16.259   7.999  11.094
78304W        W50564  35.339  40.359  11.972
78305W        W50565   8.876  25.201   4.138
78306W        W50566  29.471   3.290  12.077
78307W        W50567   3.161  37.868   0.484
78308W        W50568  20.737  39.516   0.864
78309W        W50569  32.961   6.966  14.794
78310W        W50570  13.715  36.010   0.337
78311W        W50571  15.074  26.741   1.652
78312W        W50572  14.522  32.065   1.846
78313W        W50573  15.571   9.917  13.947
78314W        W50574  31.577  33.151  11.933
78315W        W50575  25.979  10.172  10.727
78316W        W50576   5.635  44.561   1.346
78317W        W50577  27.662  33.701  12.960
78318W        W50578  22.741  31.014   0.796
78319W        W50579  11.030   3.916   4.176
78320W        W50580  38.585  37.051   2.742
78321W        W50581  37.553  10.744  11.491
78322W        W50582   1.420  12.085  11.440
78323W        W50583   3.690  17.664  11.920
78324W        W50584   5.400   5.608   0.267
78325W        W50585  10.925  32.220   1.534
78326W        W50586  20.191  31.653  10.727
78327W        W50587  40.517   3.359  14.516
78328W        W50588   6.356  27.473  12.210
78329W        W50589  22.949  36.819   3.220
78330W        W50590  14.084   9.814   3.219
78331W        W50591  13.595  42.557  12.390
78332W        W50592  37.819  21.085   2.130
78333W        W50593  32.069  43.621  13.923
78334W        W50594   5.996   3.193   3.737
78335W        W50595  38.118  24.829  10.875
78336W        W50596  27.957  36.727  13.379
78337W        W50597  29.719  31.931  11.547
78338W        W50598  14.656  26.151   2.099
78339W        W50599   5.249  16.310   1.864
78340W        W50600  27.659  44.096  13.885
78341W        W50601  27.177  42.976   1.193
78342W        W50602  11.112  17.129   0.508
78343W        W50603  37.808  33.948  13.406
78344W        W50604  44.272  27.635  12.672
78345W        W50605  34.212  42.786   3.108
78346W        W50606  20.204   9.876  11.557
78347W        W50607  24.251  25.097  12.411
78348W        W50608   9.652  23.132  13.967
78349W        W50609  35.367  29.712   0.987
78350W        W50610  22.078  39.537   3.837
78351W        W50611  34.998  39.642   1.387
78352W        W50612  32.664  30.702  12.150
78353W        W50613  25.997  11.201  14.841
78354W        W50614   8.764   6.004   4.590
78355W        W50615  19.084   6.508  11.473
78356W        W50616  27.377  29.699   4.304
78357W        W50617  12.166  32.377  14.256
78358W        W50618  18.596   4.745   2.328
78359W        W50619  26.166  22.227   2.925
78360W        W50620  44.970  28.548  14.976
78361W        W50621  20.275  12.266  13.946
78362W        W50622  29.985  30.832   3.447
78363W        W50623   9.733   3.465   2.660
78364W        W50624  16.751   8.379   0.919
78365W        W50625   9.244   1.468  12.794
78366W        W50626   8.776  15.584   2.723
78367W        W50627  40.825  23.403  11.618
78368W        W50628  28.048  19.710   3.204
78369W        W50629  39.547  10.990  11.942
78370W        W50630   7.708  20.191  14.912
78371W        W50631  35.500  33.327  14.744
78372W        W50632  23.981  25.103  12.883
78373W        W50633  29.640  27.102  13.849
78374W        W50634  19.275  25.765   4.518
78375W        W50635  22.948   7.750  12.128
78376W        W50636   7.420  43.057  13.318
78377W        W50637  34.120   8.791   2.698
78378W        W50638  18.811   0.383   4.215
78379W        W50639  30.983   5.820   3.836
78380W        W50640  31.637   5.408  12.967
78381W        W50641   6.012  24.656   1.881
78382W        W50642   3.458  44.412  12.116
78383W        W50643   7.854   2.755  13.802
78384W        W50644   4.444  25.201  12.037
78385W        W50645  25.769  24.024  12.440
78386W        W50646  31.597   8.872  10.540
78387W        W50647  12.634  40.888   0.862
78388W        W50648  27.063   6.340   1.659
78389W        W50649  23.275  37.842  14.437
78390W        W50650  30.036   4.915  13.896
78391W        W50651  12.819  15.358  14.644
78392W        W50652   1.053  13.592   1.416
78393W        W50653  41.486  38.294  11.892
78394W        W50654  17.365  22.056   2.527
78395W        W50655  23.399  19.529   4.986
78396W        W50656   9.710   8.724   0.622
78397W        W50657  26.147  29.434  14.896
78398W        W50658  44.509  37.412  13.381
78399W        W50659   5.759  33.561  13.502
78400W        W50660   2.307   8.134  14.335
78401W        W50661  17.073  41.279   4.265
78402W        W50662   7.156  13.626   0.811
78403W        W50663  41.890  11.816   2.744
78404W        W50664  11.703  12.142  14.659
78405W        W50665   0.338  20.177   4.654
78406W        W50666   2.281  33.018  10.496
78407W        W50667  44.543  35.133   1.823
78408W        W50668  30.703  28.377  12.186
78409W        W50669   4.301  43.734  14.239
78410W        W50670   0.375  33.134   0.408
78411W        W50671  23.111   6.799   3.137
78412W        W50672   7.035  19.530  12.918
78413W        W50673  10.454  24.329   4.035
78414W        W50674  40.499  23.205  12.609
78415W        W50675  44.111  17.811   2.777
78416W        W50676   0.858   6.947   0.462
78417W        W50677  23.295  30.555  14.970
78418W        W50678  43.290  36.901  10.881
78419W        W50679  20.455  35.926   4.357
78420W        W50680   6.865  18.736   0.189
78421W        W50681  25.496   6.328   4.547
78422W        W50682  27.663  26.651   4.092
78423W        W50683   9.910  31.557  11.607
78424W        W50684  41.347  13.392   1.485
78425W        W50685  15.281  12.867  12.465
78426W        W50686  33.561  14.374   2.202
78427W        W50687  28.362  18.663  14.391
78428W        W50688  20.596  13.294   3.139
78429W        W50689  26.945   7.568  13.485
78430W        W50690  12.660  34.890   0.322
78431W        W50691  29.503  39.094   2.196
78432W        W50692  30.199   1.012   4.108
78433W        W50693  19.736  11.825   5.000
78434W        W50694  43.043   3.806   1.394
78435W        W50695  42.274   5.679   1.753
78436W        W50696  34.847  30.179  10.969
78437W        W50697   7.204   6.414   0.097
78438W        W50698  23.156  11.764   3.653
78439W        W50699  42.659   1.536  14.961
78440W        W50700  30.317  10.920  11.520
78441W        W50701   7.474  24.520   5.020
78442W        W50702  25.602  18.746   4.893
78443W        W50703  44.906  24.641  13.364
78444W        W50704  25.541  24.544   2.341
78445W        W50705   4.226  12.366  11.149
78446W        W50706   3.818  17.098   0.839
78447W        W50707  29.245  40.508  14.575
78448W        W50708  35.765  24.194  13.475
78449W        W50709  19.688  14.767   3.459
78450W        W50710  27.141  15.214  12.371
78451W        W50711   6.395  13.353  12.818
78452W        W50712  33.351  14.094   0.840
78453W        W50713  14.123   8.452  12.849
78454W        W50714  20.541   6.950  14.047
78455W        W50715  27.592   7.483   2.219
78456W        W50716   6.324  15.635   4.045
78457W        W50717  38.814  19.848  10.988
78458W        W50718  20.040   3.224  13.994
78459W        W50719  25.599  11.561  12.944
78460W        W50720  21.289  10.880  11.517
78461W        W50721  27.131  22.058  10.652
78462W        W50722  20.166   9.382  11.542
78463W        W50723  25.935  36.953   3.766
78464W        W50724  35.428  16.209  14.365
78465W        W50725  14.714  38.958   1.033
78466W        W50726   8.335  30.866  12.084
78467W        W50727  31.983  23.642  14.068
78468W        W50728  25.138  36.645   0.184
78469W        W50729  20.626   8.856  12.017
78470W        W50730  42.965  21.287   5.086
78471W        W50731  11.584  37.044   1.524
78472W        W50732  15.230  29.586  12.091
78473W        W50733   6.604  12.654  11.966
78474W        W50734  40.298  26.109  13.338
78475W        W50735   2.683  17.670  11.036
78476W        W50736  39.587  33.199   1.234
78477W        W50737   4.519  36.689  11.150
78478W        W50738  25.321  37.509   1.702
78479W        W50739  12.811   0.682   1.176
78480W        W50740  36.302  23.938   3.206
78481W        W50741  20.605  18.806   2.250
78482W        W50742  34.852  33.009  11.509
78483W        W50743  13.967   2.715  12.937
78484W        W50744   0.370  14.247  10.741
78485W        W50745   8.223  39.475  13.329
78486W        W50746  16.653  39.370  12.973
78487W        W50747   1.984  36.108   1.935
78488W        W50748   5.251   2.994   2.259
78489W        W50749  34.485  10.595  13.330
78490W        W50750   3.657  43.518   4.032
78491W        W50751  37.861  29.715  13.949
78492W        W50752  17.791  30.853   3.042
78493W        W50753  10.944  28.475  13.507
78494W        W50754  36.085   1.326   0.908
78495W        W50755  20.377  42.274   1.639
78496W        W50756   6.814  20.895   1.352
78497W        W50757  26.603  32.773  12.492
78498W        W50758   9.159  17.369   4.285
78499W        W50759  12.878  44.351  12.543
78500W        W50760   9.927  38.398   4.594
78501W        W50761  33.601  13.885   1.281
78502W        W50762   9.284  43.544  13.378
78503W        W50763  44.443  44.562   3.623
78504W        W50764  12.369  16.285  13.468
78505W        W50765  43.959  36.423   4.188
78506W        W50766  17.540  37.588  11.531
78507W        W50767  12.358  38.063   2.093
78508W        W50768  13.610  13.939  11.432
78509W        W50769   0.025   7.746  12.908
78510W        W50770  39.503  21.078   2.181
78511W        W50771   1.905  21.219  14.136
78512W        W50772  34.430  39.260  13.245
78513W        W50773   0.062  10.705  12.445
78514W        W50774  21.558  11.638  11.982
78515W        W50775   3.288  14.109   0.456
78516W        W50776  13.335  33.714   4.972
78517W        W50777   8.010   2.225  11.828
78518W        W50778  39.130  17.673   4.222
78519W        W50779   8.672   3.204  12.057
78520W        W50780  17.761  43.268  11.955
78521W        W50781  29.840  16.350  13.402
78522W        W50782   9.750  12.639  12.550
78523W        W50783  39.311  41.330  11.124
78524W        W50784   1.859  28.905   2.173
78525W        W50785  34.897  17.279  13.553
78526W        W50786  44.711  12.219   2.113
78527W        W50787  27.031   9.723   4.484
78528W        W50788  28.397   9.575  14.938
78529W        W50789   2.972  43.458  12.909
78530W        W50790  16.423  43.922  12.866
78531W        W50791  10.297  37.252   5.040
78532W        W50792  44.179  16.266  13.317
78533W        W50793  40.392  16.585   4.852
78534W        W50794  30.772  38.452   3.134
78535W        W50795   4.352  14.190   9.876
78536W        W50796  27.774  38.766   3.506
78537W        W50797  29.520   3.757  12.664
78538W        W50798  36.883  16.618  13.790
78539W        W50799  27.495  44.293   4.251
78540W        W50800  21.320  39.440   3.231
78541W        W50801   2.368  35.162   1.255
78542W        W50802  11.379  12.203  12.861
78543W        W50803   3.844  22.237  14.394
78544W        W50804   2.171  19.077   0.866
78545W        W50805  35.510  43.035  12.434
78546W        W50806  11.503  40.276   4.633
78547W        W50807  19.199  30.015   1.186
78548W        W50808  38.384  16.757  14.967
78549W        W50809  43.750  35.398  10.573
78550W        W50810   2.032  42.808  11.925
78551W        W50811  11.717  16.074  14.265
78552W        W50812   8.622  39.195   3.691
78553W        W50813  35.102  44.355  11.070
78554W        W50814  40.340  29.891   0.294
78555W        W50815  23.334  29.153   9.824
78556W        W50816  28.544   8.837  12.448
78557W        W50817  11.993  44.308   3.601
78558W        W50818  21.737  17.780   1.740
78559W        W50819   8.409  38.805   4.595
78560W        W50820  14.139   1.008   2.292
78561W        W50821  21.676  40.450   2.398
78562W        W50822  28.435   0.833  13.315
78563W        W50823  32.135  33.875   2.835
78564W        W50824   5.998  36.850   0.459
78565W        W50825   2.012  24.938   0.765
78566W        W50826  20.928  19.653  14.910
78567W        W50827  40.464  17.005  13.945
78568W        W50828  31.960  16.428  14.405
78569W        W50829  15.778   0.408  14.066
78570W        W50830  12.247  27.939  11.499
78571W        W50831  26.969  12.689  12.693
78572W        W50832   7.697  42.800   2.097
78573W        W50833  27.703  39.465   2.716
78574W        W50834  20.987  14.907   0.004
78575W        W50835  35.517   8.317  10.754
78576W        W50836   3.440  21.294  13.235
78577W        W50837  42.696  26.937  12.544
78578W        W50838  18.699  11.797  12.241
78579W        W50839  29.837  24.249   2.237
78580W        W50840  22.936  25.008  12.833
78581W        W50841   7.196  26.125  14.268
78582W        W50842  30.941  30.577   3.732
78583W        W50843  30.900  11.315  12.319
78584W        W50844  32.842  43.022   0.435
78585W        W50845  23.292  15.298   4.600
78586W        W50846  32.090   7.118  10.765
78587W        W50847   9.725   5.368   2.860
78588W        W50848  27.122  21.244   4.135
78589W        W50849  24.082   0.537   3.112
78590W        W50850  26.715  30.482   3.684
78591W        W50851  42.424  30.185   3.720
78592W        W50852  37.133  18.023  12.266
78593W        W50853  36.092   7.979   0.928
78594W        W50854  20.412  18.640   1.778
78595W        W50855  14.288  27.541   3.284
78596W        W50856  17.087  43.249  13.483
78597W        W50857  15.527   0.418  11.929
78598W        W50858  37.309  23.156   2.026
78599W        W50859   3.237   3.824   1.754
78600W        W50860   3.310  44.461   1.856
78601W        W50861  42.490  35.171  12.111
78602W        W50862  41.054   6.104  14.926
78603W        W50863   3.902  26.619  11.520
78604W        W50864  28.013  15.012   4.186
78605W        W50865  18.514   1.968   2.004
78606W        W50866  18.603  18.421  11.829
78607W        W50867  10.226  25.945  12.035
78608W        W50868  37.122  43.355  11.948
78609W        W50869  44.321  40.262   2.729
78610W        W50870  18.498  23.491  12.060
78611W        W50871  25.978   4.694  13.465
78612W        W50872  22.064   4.849  10.658
78613W        W50873  21.168  14.170   0.284
78614W        W50874  31.975  30.210  13.837
78615W        W50875  22.662  12.224   3.416
78616W        W50876  25.270  21.129  10.757
78617W        W50877  43.530  35.866  13.397
78618W        W50878   6.686  32.434  10.759
78619W        W50879  16.188  22.206   3.460
78620W        W50880  38.043   6.288  13.397
78621W        W50881  42.819  10.351  14.790
78622W        W50882  38.407  41.900   4.684
78623W        W50883  38.948  26.650   1.077
78624W        W50884   9.106  42.971   0.630
78625W        W50885   1.380   3.826  13.394
78626W        W50886  25.588  43.917   3.174
78627W        W50887  28.548  32.169   3.289
78628W        W50888  11.317   9.119  14.206
78629W        W50889  22.595  39.967   0.899
78630W        W50890  20.175  14.124  12.895
78631W        W50891  38.491  25.571  14.219
78632W        W50892  20.340   9.652   0.898
78633W        W50893  42.418  12.337   2.192
78634W        W50894   0.744  19.963  12.078
78635W        W50895  17.290   2.657   2.567
78636W        W50896  35.653  37.462  13.409
78637W        W50897  38.491  39.383   0.015
78638W        W50898  32.470  35.680  10.768
78639W        W50899   9.595  31.663   3.711
78640W        W50900   5.851  28.608   3.115
78641W        W50901  43.634  42.351   0.918
78642W        W50902  17.319  42.982  12.212
78643W        W50903   1.797  27.952  13.589
78644W        W50904   5.581  35.550   3.671
78645W        W50905  36.455  18.307  13.364
78646W        W50906  31.934  36.196   3.765
78647W        W50907  12.869  43.635  11.936
78648W        W50908  23.103  23.540   1.941
78649W        W50909   5.183  31.475  12.458
78650W        W50910   6.792  10.656  12.869
78651W        W50911  31.252   4.833  13.587
78652W        W50912   2.000  38.622  14.935
78653W        W50913  15.448   2.196   4.900
78654W        W50914  25.455   6.796  14.962
78655W        W50915  17.301  10.233  11.947
78656W        W50916  21.768  24.563  12.547
78657W        W50917  18.759  19.148  13.034
78658W        W50918  39.230  11.678  13.319
78659W        W50919  23.031  43.977   1.798
78660W        W50920  10.647  13.322   2.446
78661W        W50921   4.023   4.884   4.180
78662W        W50922  35.628  11.421  11.894
78663W        W50923   8.399   2.060   3.550
78664W        W50924  22.711  34.886  10.092
78665W        W50925  25.378  23.599   4.589
78666W        W50926  13.777  15.200   1.745
78667W        W50927   3.577  36.813   2.361
78668W        W50928  17.824  10.691   3.342
78669W        W50929  31.121  13.780  14.065
78670W        W50930   0.202   7.848  14.582
78671W        W50931  39.137  23.582  14.407
78672W        W50932  22.008  17.315   0.293
78673W        W50933  43.364  31.849  12.497
78674W        W50934   6.709  27.733   4.177
78675W        W50935  12.752  26.926  14.942
78676W        W50936  41.538  35.771   1.665
78677W        W50937  22.794  17.974  10.162
78678W        W50938  14.747  21.961   1.700
78679W        W50939  25.440  39.853  12.524
78680W        W50940  12.943  30.583  12.108
78681W        W50941  37.286  32.163   1.675
78682W        W50942  23.208  28.189  10.096
78683W        W50943  14.561   5.457   2.174
78684W        W50944  17.717  15.757   1.801
78685W        W50945   4.663  18.151   3.211
78686W        W50946  33.570  17.475   2.390
78687W        W50947  34.919  30.537   4.129
78688W        W50948  43.479  19.247   2.779
78689W        W50949  11.874  16.797   0.394
78690W        W50950  32.570  43.726   3.145
78691W        W50951  14.831  10.891   0.273
78692W        W50952  24.759  41.320  14.364
78693W        W50953  37.039  31.305   1.892
78694W        W50954  30.942  31.091   1.190
78695W        W50955  35.457  30.470   1.374
78696W        W50956  39.919  44.148  12.412
78697W        W50957  31.956  43.411  12.533
78698W        W50958  24.919  15.099   0.252
78699W        W50959  21.939  20.396   3.628
78700W        W50960  42.226  29.363  10.427
78701W        W50961  20.076   0.101  11.173
78702W        W50962  16.511  10.294  12.400
78703W        W50963   3.409  33.025   2.015
78704W        W50964  34.884  35.444   2.357
78705W        W50965  27.117  44.490   1.767
78706W        W50966  36.109  23.513   4.141
78707W        W50967   3.890   7.197   4.448
78708W        W50968  22.777  32.862  12.943
78709W        W50969  23.093  17.218   4.371
78710W        W50970   7.809   3.187  12.150
78711W        W50971  35.316  43.064   1.298
78712W        W50972  29.460  18.642  11.483
78713W        W50973  20.112  28.799   0.727
78714W        W50974  12.824  19.760  11.547
78715W        W50975  35.055  40.899   4.139
78716W        W50976   0.749  34.435  12.043
78717W        W50977  20.152  20.531   2.720
78718W        W50978  30.935  24.214  12.443
78719W        W50979   5.781  21.275  13.887
78720W        W50980  16.252  12.280  12.931
78721W        W50981  15.384  11.118   0.891
78722W        W50982  13.722  38.357  12.369
78723W        W50983  41.238  34.085   1.684
78724W        W50984  11.774  26.831  10.647
78725W        W50985  11.985  29.024  14.998
78726W        W50986  38.098  27.189   0.745
78727W        W50987  11.659  29.081  13.596
78728W        W50988  41.559   4.209   4.958
78729W        W50989   7.799  19.842  11.911
78730W        W50990  11.169  37.326   0.785
78731W        W50991  16.204  17.083   0.962
78732W        W50992  25.256  15.747   3.958
78733W        W50993  41.325  13.663   1.938
78734W        W50994  26.704  22.769   3.246
78735W        W50995  42.703  15.050   2.147
78736W        W50996  40.309  30.481  11.207
78737W        W50997  22.997  10.482   1.366
78738W        W50998  14.547  31.145  13.976
78739W        W50999   6.656   6.014  10.622
78740W        W51000  35.619   4.512  10.751
78741W        W51001  42.289  30.478  13.035
78742W        W51002  24.791  28.678  14.901
78743W        W51003  41.176  41.003   4.139
78744W        W51004  42.380  27.048  11.514
78745W        W51005  26.173  23.731  11.514
78746W        W51006  28.896   6.653  12.347
78747W        W51007  38.541  10.824   9.796
78748W        W51008   5.374  19.015   0.188
78749W        W51009   3.389  34.735   0.079
78750W        W51010   8.245  42.435   3.093
78751W        W51011  34.827  15.343  13.522
78752W        W51012  25.760  40.923  11.986
78753W        W51013  34.336  26.255  12.941
78754W        W51014  23.164  29.257   1.609
78755W        W51015  24.173  22.614  11.135
78756W        W51016   6.350   8.684  13.464
78757W        W51017  40.802  23.150   3.678
78758W        W51018  12.289  36.614   2.419
78759W        W51019  14.296  25.279   3.462
78760W        W51020  14.243  25.918  13.568
78761W        W51021  11.389  12.953  12.186
78762W        W51022  20.065  10.417   2.375
78763W        W51023  42.111   5.034   0.243
78764W        W51024  23.039  21.457   0.924
78765W        W51025  38.566   9.156  11.728
78766W        W51026  34.168   7.637  13.837
78767W        W51027  42.076  43.284  12.712
78768W        W51028   8.605  30.696   3.461
78769W        W51029  37.892  10.845   2.690
78770W        W51030  43.332  16.331  13.029
78771W        W51031  39.121  11.406   0.445
78772W        W51032  40.521  43.496   4.765
78773W        W51033  23.072  25.675   3.798
78774W        W51034  40.749  12.691  14.508
78775W        W51035   6.689   8.847  14.390
78776W        W51036  23.067  23.203  14.955
78777W        W51037  24.945   2.296  11.645
78778W        W51038  23.187   8.563  11.517
78779W        W51039   3.348   2.070   3.712
78780W        W51040  35.845  19.808  11.130
78781W        W51041   1.101  17.651  14.235
78782W        W51042  44.445  43.483  12.902
78783W        W51043  36.418  41.855  10.959
78784W        W51044  26.194  31.646   1.444
78785W        W51045  41.490  34.449   2.826
78786W        W51046  33.491  43.226  11.999
78787W        W51047  18.240  35.565   0.448
78788W        W51048  14.340  11.323  11.179
78789W        W51049  20.020  38.988   0.447
78790W        W51050  41.399  27.925   0.324
78791W        W51051  32.709  22.014   2.982
78792W        W51052  10.295  19.712   0.410
78793W        W51053  29.990   2.541   2.605
78794W        W51054   7.280  44.006  12.026
78795W        W51055  35.447  15.096   4.627
78796W        W51056  36.595  30.901  11.769
78797W        W51057  27.261  29.532   3.812
78798W        W51058  18.729  37.409  10.875
78799W        W51059  33.788  33.151   2.606
78800W        W51060  35.453  27.221   3.022
78801W        W51061  28.609   3.344   3.304
78802W        W51062  27.882  43.427  13.552
78803W        W51063   7.043  35.066  12.882
78804W        W51064  33.632  23.046  13.680
78805W        W51065  41.267  33.368  11.110
78806W        W51066  36.986   9.135  13.874
78807W        W51067  10.859   2.406   2.135
78808W        W51068  19.525  39.871  13.648
78809W        W51069  31.892  44.754   1.493
78810W        W51070  18.509  16.629  13.471
78811W        W51071  15.392  13.631   4.162
78812W        W51072  21.175   9.312   0.873
78813W        W51073  44.222  36.981  10.666
78814W        W51074  27.893   3.422   3.067
78815W        W51075  31.601   6.634  13.382
78816W        W51076  35.121  35.484  12.969
78817W        W51077  37.613  40.490   4.516
78818W        W51078  42.331  33.842   1.324
78819W        W51079  17.175   7.758  14.274
78820W        W51080   4.344  41.180   1.238
78821W        W51081  21.462  44.210  10.323
78822W        W51082  36.326  16.560  13.049
78823W        W51083  31.562  11.538   1.434
78824W        W51084   7.399   9.893  11.221
78825W        W51085   6.022  38.914  11.643
78826W        W51086  20.412   2.920  14.894
78827W        W51087   8.260  42.833  10.739
78828W        W51088  32.433  24.648  13.570
78829W        W51089  10.252   9.793   2.342
78830W        W51090  44.354  18.486   4.025
78831W        W51091  26.226  18.357   2.591
78832W        W51092  39.082  32.359   0.451
78833W        W51093  34.579  17.611  10.618
78834W        W51094  27.116  29.053  12.635
78835W        W51095  23.539   9.278   1.194
78836W        W51096   1.404  21.214   4.067
78837W        W51097   1.001  34.030   1.698
78838W        W51098  36.702  18.127   3.062
78839W        W51099  35.007  27.634   3.439
78840W        W51100  36.094   4.955  12.371
78841W        W51101   7.832  16.565   4.874
78842W        W51102  38.348  35.499  14.203
78843W        W51103  32.564  21.834  12.664
78844W        W51104  11.035  21.097   2.843
78845W        W51105  34.265  36.930   0.726
78846W        W51106  12.162  42.881   3.655
78847W        W51107  27.735   6.949   0.067
78848W        W51108  44.452   4.338   1.837
78849W        W51109   6.448  16.082   3.828
78850W        W51110  31.234  40.947  11.658
78851W        W51111  35.806  17.904  12.611
78852W        W51112  27.186  10.860  11.233
78853W        W51113  43.720   5.200  12.499
78854W        W51114   6.696  36.901  13.945
78855W        W51115  19.778  16.654  11.493
78856W        W51116  31.625  22.447  11.049
78857W        W51117  42.698  42.948  14.271
78858W        W51118  42.392  35.713  14.879
78859W        W51119  20.358  18.696   0.681
78860W        W51120  32.090  40.375   4.594
78861W        W51121  11.142  42.484  10.727
78862W        W51122   8.787  38.342  10.306
78863W        W51123  30.165   8.181   0.888
78864W        W51124  33.081  13.167  11.363
78865W        W51125  40.398  18.323  14.789
78866W        W51126  23.442   3.184  10.001
78867W        W51127  12.142  10.805  10.620
78868W        W51128  42.027  14.810  10.779
78869W        W51129  11.648  21.679  12.866
78870W        W51130  22.621   4.818   2.157
78871W        W51131  16.842   8.306  12.463
78872W        W51132  21.106  23.734   4.595
78873W        W51133  12.168   6.798  14.960
78874W        W51134  27.045  10.616   4.692
78875W        W51135  26.885  16.159   1.285
78876W        W51136   7.787  43.031   0.234
78877W        W51137  18.631  19.654  10.464
78878W        W51138   1.967  25.487  11.033
78879W        W51139  12.624  34.177  11.377
78880W        W51140  25.743  35.842   4.687
78881W        W51141  32.426  32.761   2.680
78882W        W51142  28.610  29.620   1.299
78883W        W51143  12.268  17.139  12.598
78884W        W51144  18.725  35.353   2.744
78885W        W51145  24.127  37.197   0.530
78886W        W51146  10.824  25.111   3.104
78887W        W51147  20.044  25.731   3.618
78888W        W51148  23.728  37.581  12.458
78889W        W51149   8.255  44.527   4.248
78890W        W51150   3.231  20.798   3.540
78891W        W51151   3.972   9.771  12.449
78892W        W51152  42.748  31.232  12.917
78893W        W51153  13.403  17.268   1.863
78894W        W51154  17.597  38.264   3.096
78895W        W51155  19.140  32.387   5.081
78896W        W51156   3.058  38.934  12.269
78897W        W51157  24.776   8.290  11.157
78898W        W51158   8.221  43.381  13.289
78899W        W51159  17.566  30.377   3.168
78900W        W51160  15.778  15.104   3.132
78901W        W51161  12.020  30.082   4.107
78902W        W51162  21.044   2.501  10.666
78903W        W51163  13.822  38.628  13.955
78904W        W51164   0.898  38.898  12.204
78905W        W51165  13.820  16.692   1.557
78906W        W51166   7.818  15.404  13.158
78907W        W51167  34.485  38.005   4.616
78908W        W51168  18.023  23.553  12.959
78909W        W51169  31.059  36.404  14.029
78910W        W51170  12.783  29.420   0.195
78911W        W51171   6.704  34.207  13.814
78912W        W51172  21.220  25.300   4.568
78913W        W51173   9.793  14.801   1.214
78914W        W51174   6.387  26.122   0.813
78915W        W51175  33.366  41.583   1.802
78916W        W51176  33.223   3.496  13.346
78917W        W51177   2.713   1.308  10.741
78918W        W51178   8.894  34.223  12.838
78919W        W51179  28.179  38.050   1.806
78920W        W51180  24.372  35.135   4.748
78921W        W51181  37.986  30.223  14.055
78922W        W51182  38.081   8.663   0.385
78923W        W51183  26.637  43.332  13.001
78924W        W51184  35.653  35.496   4.144
78925W        W51185  38.961  22.773  13.035
78926W        W51186   5.370   6.315  11.949
78927W        W51187   1.830   3.988   1.729
78928W        W51188  18.039  15.110   4.579
78929W        W51189   7.788  21.697   1.948
78930W        W51190  15.769  42.048  12.019
78931W        W51191  10.706  25.733  11.938
78932W        W51192  31.860  19.581   4.560
78933W        W51193  17.546   9.916   2.592
78934W        W51194  37.913  10.994   3.990
78935W        W51195   1.809   6.238   3.799
78936W        W51196   3.353   0.073   2.598
78937W        W51197   2.564  36.701  13.205
78938W        W51198  37.468   9.599  10.398
78939W        W51199   8.229  37.504   1.734
78940W        W51200  37.494  44.876   3.740
78941W        W51201   3.788  37.699  12.470
78942W        W51202  37.503   4.285  14.734
78943W        W51203  32.662  18.621  12.722
78944W        W51204  32.989  17.197   0.245
78945W        W51205   0.678  20.961   1.371
78946W        W51206  22.234   2.531  14.025
78947W        W51207  29.224  26.608   4.147
78948W        W51208   0.686  42.020   3.644
78949W        W51209  18.868  27.870   0.646
78950W        W51210  25.178  22.809   2.505
78951W        W51211   9.117  27.464  11.531
78952W        W51212  39.332  25.402   2.861
78953W        W51213  28.121  16.829   4.575
78954W        W51214  18.821  32.098   1.983
78955W        W51215  34.037  40.351  10.662
78956W        W51216   3.217  30.306   4.523
78957W        W51217  21.289  36.108  11.504
78958W        W51218  36.063  20.953  13.193
78959W        W51219   7.373  34.612   3.884
78960W        W51220   3.330  35.652  14.018
78961W        W51221  37.995  12.813  14.066
78962W        W51222  20.226  36.779   2.070
78963W        W51223  40.746  25.483  12.716
78964W        W51224  16.534  13.143   1.869
78965W        W51225  27.738   4.983   0.356
78966W        W51226  32.650  20.402  11.892
78967W        W51227  10.394  26.219   2.374
78968W        W51228   3.709   8.454   1.840
78969W        W51229   0.508  12.934   1.418
78970W        W51230  37.427  10.245   4.652
78971W        W51231  21.227  38.382   4.854
78972W        W51232  20.799  21.538   0.183
78973W        W51233   0.356  23.108   3.922
78974W        W51234  14.112  23.629   0.690
78975W        W51235  21.670  39.456   2.649
78976W        W51236  19.127  16.856   2.494
78977W        W51237  27.534  35.516  11.111
78978W        W51238  15.005   6.237   5.077
78979W        W51239  11.652  40.848  12.027
78980W        W51240   1.321  21.772  14.284
78981W        W51241  27.176  21.939   4.655
78982W        W51242  34.926  18.068  12.143
78983W        W51243   2.372  13.692   3.911
78984W        W51244   2.380  29.585   2.761
78985W        W51245  43.744  18.300  12.033
78986W        W51246  19.899  27.551  13.478
78987W        W51247  27.575   0.041   3.269
78988W        W51248  40.435  38.880   2.424
78989W        W51249  36.020  26.966  11.981
78990W        W51250  41.388  23.177  14.697
78991W        W51251  15.128  39.792  12.875
78992W        W51252  20.625  19.612   4.603
78993W        W51253  11.324  29.877  14.434
78994W        W51254   2.376  42.560  10.731
78995W        W51255  23.249  29.764   0.705
78996W        W51256   7.389   8.904   1.350
78997W        W51257  32.495  31.051  14.669
78998W        W51258  44.424  10.267  12.950
78999W        W51259  44.707  13.017  12.041
79000W        W51260  34.192  44.505  14.211
79001W        W51261  44.018  22.341   4.208
79002W        W51262  24.137  25.991   1.639
79003W        W51263   0.985  28.611  13.835
79004W        W51264  26.913  30.625   4.140
79005W        W51265  31.608  39.412  14.415
79006W        W51266  31.494  19.622  10.654
79007W        W51267  33.953  17.781   1.685
79008W        W51268  33.137  39.472   1.758
79009W        W51269  29.696  40.828  11.539
79010W        W51270  42.824  23.890   3.728
79011W        W51271  29.193  10.242  14.275
79012W        W51272  28.943  14.594  11.933
79013W        W51273  31.642  17.528  10.805
79014W        W51274  18.204  25.027   2.757
79015W        W51275  32.510  32.100  14.390
79016W        W51276  34.531  38.329  11.280
79017W        W51277  29.991   8.298  11.205
79018W        W51278  15.714  18.451  13.109
79019W        W51279   7.829  17.214   2.986
79020W        W51280  18.988  12.313  11.573
79021W        W51281  18.729  13.069  13.460
79022W        W51282   1.528   4.896  14.285
79023W        W51283  30.158   8.531   2.653
79024W        W51284  18.500  41.344   4.969
79025W        W51285  26.065   1.920  13.523
79026W        W51286   8.626  36.027   2.597
79027W        W51287   3.390  30.875  10.578
79028W        W51288   7.009   2.291   0.898
79029W        W51289   8.242  16.674  12.934
79030W        W51290  11.102  23.191   2.361
79031W        W51291  24.671   9.128   4.558
79032W        W51292  30.188  19.124  11.557
79033W        W51293   8.771  15.723   3.666
79034W        W51294   4.441  19.538  13.068
79035W        W51295  26.848   1.358  11.997
79036W        W51296  22.237  13.064  12.521
79037W        W51297  26.021  14.198   5.051
79038W        W51298  32.146   5.250   2.183
79039W        W51299   1.867  42.047   0.405
79040W        W51300  39.678  20.299   1.114
79041W        W51301  37.383  20.140   1.245
79042W        W51302  34.056  11.675  14.222
79043W        W51303  35.024  20.951   2.511
79044W        W51304   7.698   7.634  13.552
79045W        W51305  26.068   8.674   4.159
79046W        W51306  24.507  40.686  10.634
79047W        W51307  34.438  25.126   0.264
79048W        W51308  20.817  20.963   3.725
79049W        W51309  44.211  33.866   0.352
79050W        W51310  31.839  25.664   4.916
79051W        W51311   2.243  22.121  11.046
79052W        W51312   0.471   8.815  11.667
79053W        W51313  36.075   2.488   3.193
79054W        W51314  10.254  18.518  12.594
79055W        W51315  44.586  40.101   1.836
79056W        W51316   9.944   0.887  12.632
79057W        W51317   9.702  26.028  13.288
79058W        W51318  18.168  33.696  13.225
79059W        W51319  15.338  28.608  12.945
79060W        W51320  38.589   3.338   1.353
79061W        W51321  35.538  19.171  10.582
79062W        W51322  30.922   3.921  14.796
79063W        W51323  43.890  37.309   2.018
79064W        W51324  27.405  33.232   4.702
79065W        W51325  31.981  26.024   2.089
79066W        W51326  31.004   0.885   3.439
79067W        W51327  23.557  41.747  13.964
79068W        W51328  31.911  24.095  11.465
79069W        W51329  17.084  14.424   1.944
79070W        W51330  13.729  38.858   3.398
79071W        W51331  41.290  21.459   0.975
79072W        W51332  18.465  43.474   1.251
79073W        W51333  39.109  41.975  11.532
79074W        W51334  31.116   5.992   1.398
79075W        W51335  36.362  25.440  14.941
79076W        W51336  29.208  27.935  11.922
79077W        W51337  37.288   1.990  11.106
79078W        W51338   8.172  10.126   5.062
79079W        W51339  26.790  30.439   2.609
79080W        W51340  29.436  38.830  14.054
79081W        W51341  30.182  38.936  14.357
79082W        W51342  27.256  37.729  13.391
79083W        W51343  12.919   3.590   1.589
79084W        W51344  40.364  34.821   3.141
79085W        W51345   8.344  29.173  13.901
79086W        W51346  19.236  44.280  12.506
79087W        W51347  11.694  30.194  14.263
79088W        W51348   5.341   5.430   3.616
79089W        W51349  32.871   6.809   2.367
79090W        W51350  44.004  18.098   3.330
79091W        W51351  16.821   6.768   1.445
79092W        W51352  13.596  28.800   1.408
79093W        W51353   6.910  15.633   3.288
79094W        W51354  44.392  28.688  12.949
79095W        W51355  29.694   4.737   1.700
79096W        W51356  41.479  28.389  11.973
79097W        W51357  12.808   2.928  13.599
79098W        W51358   7.859   8.425   3.229
79099W        W51359  29.004  16.796  14.304
79100W        W51360   1.283  17.818  13.754
79101W        W51361  10.177  15.212   4.108
79102W        W51362   0.388   8.817  12.191
79103W        W51363  41.892   5.887  13.393
79104W        W51364   4.769  39.874   2.648
79105W        W51365  31.005  39.480  13.270
79106W        W51366  20.259   0.545  14.137
79107W        W51367  15.241  44.874  11.635
79108W        W51368   0.759  33.960   1.238
79109W        W51369  36.262  20.778  11.839
79110W        W51370  23.401  22.176  12.002
79111W        W51371  37.314  40.212  11.086
79112W        W51372  42.050   0.929  12.483
79113W        W51373  34.814  42.397  14.020
79114W        W51374   5.332  24.344  13.884
79115W        W51375   5.801  35.632   2.376
79116W        W51376   7.742  32.358  12.521
79117W        W51377  31.652  10.878  12.542
79118W        W51378  21.677   0.473   1.226
79119W        W51379  28.909  23.030  10.740
79120W        W51380  13.237  36.342   3.907
79121W        W51381  12.242  30.709   4.242
79122W        W51382   4.357  27.674   4.936
79123W        W51383  15.852   3.258  10.987
79124W        W51384  36.847  44.238  11.609
79125W        W51385  36.509  41.349   5.112
79126W        W51386  36.375  15.859  12.533
79127W        W51387  40.737  34.942  12.518
79128W        W51388  13.859  14.764  11.079
79129W        W51389  19.097  28.468  12.563
79130W        W51390  36.794  18.708  10.574
79131W        W51391   9.880  34.049   3.072
79132W        W51392  34.996  30.229   2.786
79133W        W51393  43.308   3.534   0.412
79134W        W51394   4.487  27.926   2.351
79135W        W51395   9.881   7.139   2.284
79136W        W51396  12.700  11.877  13.960
79137W        W51397  42.475   7.131   3.312
79138W        W51398  19.278  37.104  14.894
79139W        W51399  10.822  31.857  11.620
79140W        W51400  43.556  19.691   4.086
79141W        W51401  41.539   1.983   4.737
79142W        W51402   4.174   2.757  14.745
79143W        W51403  22.617  22.053   1.218
79144W        W51404  28.620  21.749  11.621
79145W        W51405  44.359  35.673  13.252
79146W        W51406  38.659   3.643   1.783
79147W        W51407   7.082  26.776  12.358
79148W        W51408  42.997  33.839   2.146
79149W        W51409   3.656  39.783  11.201
79150W        W51410   5.422  42.525   3.716
79151W        W51411   7.322   9.434  11.992
79152W        W51412  12.776  17.125  10.586
79153W        W51413  16.143   3.357  13.270
79154W        W51414  17.532  11.234   2.180
79155W        W51415  19.138  41.697  12.486
79156W        W51416   9.123  38.563   4.291
79157W        W51417  13.608  32.541  14.143
79158W        W51418  16.782  20.007  11.066
79159W        W51419   8.713  17.759   0.334
79160W        W51420  14.558  36.332   1.134
79161W        W51421  18.304  35.591  11.202
79162W        W51422  16.061  17.858   1.548
79163W        W51423  13.601   2.544   4.711
79164W        W51424  24.771   8.230   0.530
79165W        W51425   1.483  40.048  12.937
79166W        W51426  25.179  31.521   1.792
79167W        W51427  14.609  30.825  11.822
79168W        W51428  41.350  31.363  10.680
79169W        W51429  22.480  30.934  13.505
79170W        W51430  21.776   4.784  12.002
79171W        W51431  25.142  26.515  14.074
79172W        W51432  44.029  42.587  11.962
79173W        W51433  18.626  24.968   4.571
79174W        W51434   8.725  33.386   3.214
79175W        W51435  30.857  22.440  11.594
79176W        W51436  16.190  19.824  12.449
79177W        W51437  29.660  39.452  10.873
79178W        W51438  10.866  15.959  11.144
79179W        W51439  14.128  38.528  12.099
79180W        W51440  35.584  43.235   4.238
79181W        W51441  14.272  41.664  13.360
79182W        W51442  28.446  18.242   3.523
79183W        W51443  33.964  33.136  11.138
79184W        W51444  32.402  29.509   0.364
79185W        W51445  21.750   2.187  11.008
79186W        W51446  23.632  35.655   4.168
79187W        W51447  31.856  40.600  12.806
79188W        W51448   9.290  41.316  10.862
79189W        W51449  14.819  13.096  13.436
79190W        W51450  25.686   6.592   4.122
79191W        W51451  11.765  19.815   5.309
79192W        W51452  40.565   3.618  12.538
79193W        W51453  19.527  38.893   3.254
79194W        W51454  41.992  37.908  10.473
79195W        W51455   3.040  31.363   1.379
79196W        W51456   2.469  35.468  14.400
79197W        W51457   8.032  28.504   1.840
79198W        W51458   9.856  32.798   0.306
79199W        W51459  22.036  27.734   3.541
79200W        W51460  36.649  41.542  14.070
79201W        W51461   7.945  17.111  14.429
79202W        W51462  31.995  29.570   2.743
79203W        W51463  18.660  32.092   2.493
79204W        W51464   0.192  16.827   2.795
79205W        W51465   3.266  28.935  14.789
79206W        W51466  13.485   7.986  14.826
79207W        W51467  12.064   7.099   3.170
79208W        W51468  25.454  41.418   0.511
79209W        W51469  30.308  41.361   1.409
79210W        W51470  18.182   1.830   2.374
79211W        W51471  21.249  17.072   3.308
79212W        W51472  40.329  23.547   3.189
79213W        W51473  22.690  23.851   1.734
79214W        W51474   4.853  28.075  14.821
79215W        W51475  44.734   3.876  14.133
79216W        W51476   6.169  37.096  10.653
79217W        W51477  22.102  10.326  13.470
79218W        W51478  26.579  23.984   4.569
79219W        W51479  40.861   0.820   0.756
79220W        W51480  16.061  42.374   3.412
79221W        W51481  11.923   2.196   4.324
79222W        W51482  28.024  42.152   1.592
79223W        W51483  22.568  16.980   3.277
79224W        W51484  26.946   2.775  11.638
79225W        W51485  11.374  41.869  14.738
79226W        W51486  18.015  28.146   2.269
79227W        W51487  12.290  44.731  12.957
79228W        W51488  32.528  13.099   2.633
79229W        W51489  10.786  35.388   0.579
79230W        W51490  27.235  22.183   1.985
79231W        W51491   7.652  30.921  10.674
79232W        W51492  19.249   2.518   2.704
79233W        W51493  17.466  21.908  10.760
79234W        W51494  38.298   5.168   3.458
79235W        W51495  42.937  10.067   4.630
79236W        W51496  11.597  25.083   1.767
79237W        W51497  44.841  32.206  11.058
79238W        W51498  36.583  23.703   4.117
79239W        W51499   1.331  30.580  13.443
79240W        W51500  23.260  27.968   2.801
79241W        W51501   0.347  30.594  12.013
79242W        W51502  28.492  18.249   0.757
79243W        W51503  29.699  13.629   1.753
79244W        W51504  43.430  35.968   3.708
79245W        W51505  20.702   7.487   3.271
79246W        W51506  39.301  36.223   2.379
79247W        W51507  21.091   4.407  12.606
79248W        W51508   6.897  38.135   2.721
79249W        W51509  38.249  42.913  13.977
79250W        W51510   3.823   1.110   3.219
79251W        W51511   4.897  22.238   1.775
79252W        W51512  14.924  38.551  14.403
79253W        W51513   0.897   8.695  12.169
79254W        W51514  41.223  20.036  11.691
79255W        W51515  19.521  13.519  10.824
79256W        W51516  32.801  21.592   0.913
79257W        W51517  43.496  16.872  11.588
79258W        W51518  25.743  12.382  14.027
79259W        W51519  35.580  19.491  13.054
79260W        W51520  24.047  25.566  11.645
79261W        W51521  20.229  15.355   3.156
79262W        W51522  40.584  29.781   1.663
79263W        W51523  23.662  28.100   1.254
79264W        W51524  43.338  24.546   4.342
79265W        W51525   5.781  30.391   1.907
79266W        W51526  29.129  34.595   2.060
79267W        W51527   6.948  24.543   1.693
79268W        W51528   4.855  41.925   4.156
79269W        W51529   2.599   7.216  10.036
79270W        W51530  18.399   1.961  12.988
79271W        W51531  33.105  42.029   3.837
79272W        W51532   5.323   1.999  11.366
79273W        W51533  10.303  14.129   0.476
79274W        W51534  43.922  16.639   1.939
79275W        W51535   4.552  37.945  11.220
79276W        W51536  38.611  13.474  10.980
79277W        W51537   9.941  41.803  14.447
79278W        W51538   7.525  22.324  14.745
79279W        W51539  21.266   9.250   1.371
79280W        W51540  20.296  32.131   1.223
79281W        W51541   2.702  30.886  12.058
79282W        W51542  37.374  14.759  10.792
79283W        W51543   4.358  32.009   0.497
79284W        W51544  13.869  13.721   4.415
79285W        W51545  42.476  34.666  12.002
79286W        W51546  34.370  43.483  13.298
79287W        W51547   1.815  32.179  14.733
79288W        W51548  41.939  26.017  12.362
79289W        W51549  31.892  39.599   4.052
79290W        W51550  20.060  18.235   4.652
79291W        W51551  43.926   9.856   1.022
79292W        W51552  16.624  26.000   2.348
79293W        W51553   1.044  41.430  12.848
79294W        W51554   2.845  44.364   2.574
79295W        W51555   2.628  39.431  12.547
79296W        W51556  17.882  37.020   1.423
79297W        W51557  29.695  24.930  13.034
79298W        W51558  10.802   0.219  11.942
79299W        W51559  11.048  23.643  11.637
79300W        W51560  30.083  20.635   0.757
79301W        W51561  20.281  34.602  11.205
79302W        W51562  25.090  19.059  10.831
79303W        W51563  16.280  35.642   1.200
79304W        W51564  22.542  12.627  11.599
79305W        W51565  22.621  26.410  11.360
79306W        W51566   2.477  17.811  13.961
79307W        W51567  31.131  35.403   1.363
79308W        W51568  37.598  30.334   3.656
79309W        W51569   2.172  36.888   2.303
79310W        W51570  39.969  16.743   1.844
79311W        W51571  10.381  34.001  11.123
79312W        W51572   1.684  24.928   3.637
79313W        W51573   8.623  31.341  13.837
79314W        W51574  25.619   1.652   3.631
79315W        W51575  12.673   4.778  13.137
79316W        W51576  35.376  42.720  14.473
79317W        W51577   0.775  24.178  14.535
79318W        W51578  15.565  23.989  12.079
79319W        W51579  30.814  18.490  14.923
79320W        W51580  37.079   0.556  14.094
79321W        W51581  42.962  34.957  13.035
79322W        W51582  30.484  29.861   0.238
79323W        W51583  33.045  22.008  12.594
79324W        W51584  34.440  20.674  10.659
79325W        W51585  10.534  22.579   1.947
79326W        W51586  20.316  11.809   3.192
79327W        W51587  28.858  14.134  12.136
79328W        W51588  10.547  33.548  14.820
79329W        W51589  21.102  39.057   0.322
79330W        W51590   1.335  43.646   3.918
79331W        W51591  39.533  28.175  12.965
79332W        W51592  36.938  40.189  12.396
79333W        W51593   6.693  30.389  12.453
79334W        W51594  42.810  35.582   1.429
79335W        W51595   7.301  29.355  14.713
79336W        W51596  29.342   0.963  12.442
79337W        W51597  10.702   9.396  12.945
79338W        W51598  22.048   6.677  12.521
79339W        W51599   9.516   8.164   3.795
79340W        W51600  30.045  29.201   3.332
79341W        W51601  31.224  15.152   1.814
79342W        W51602   1.713  22.865  12.457
79343W        W51603  13.932  31.555  10.673
79344W        W51604   0.650  40.319   3.274
79345W        W51605  38.431  34.792   0.551
79346W        W51606  24.335  11.146   4.602
79347W        W51607  39.810  13.793  13.878
79348W        W51608  35.073  11.853   4.453
79349W        W51609   6.951   6.404   4.276
79350W        W51610  12.954  40.627   0.539
79351W        W51611  15.201  17.700   1.285
79352W        W51612  18.846  19.809  13.907
79353W        W51613  42.463   7.165  13.516
79354W        W51614  42.418  21.392   4.038
79355W        W51615  33.109  18.765  12.424
79356W        W51616   6.935  39.007  13.326
79357W        W51617  39.541   5.333  11.606
79358W        W51618  14.482  35.988   2.791
79359W        W51619  24.648  31.071  11.635
79360W        W51620  21.996  38.825   2.894
79361W        W51621   5.894   5.183  14.191
79362W        W51622  43.376  28.346   0.873
79363W        W51623  23.995  40.140  10.162
79364W        W51624   5.484  23.110   4.124
79365W        W51625   8.446  11.199  12.475
79366W        W51626  23.220  16.728   3.737
79367W        W51627  26.640  15.670   0.036
79368W        W51628  11.498  21.123  14.514
79369W        W51629  14.281  19.747   1.201
79370W        W51630  27.520  18.156   2.559
79371W        W51631  12.168  40.105  11.134
79372W        W51632  24.496  40.508   0.183
79373W        W51633  13.774  19.614  11.450
79374W        W51634  36.991  32.600   3.797
79375W        W51635  16.187  28.958   4.867
79376W        W51636  44.506  13.192  14.647
79377W        W51637  42.343  11.189  12.101
79378W        W51638  41.411  39.093  11.594
79379W        W51639  41.485   1.450  10.933
79380W        W51640  15.053  23.819   4.165
79381W        W51641  16.275  33.135  12.255
79382W        W51642  21.195   2.796   3.589
79383W        W51643  44.988  40.978   1.312
79384W        W51644  20.423  35.078   4.418
79385W        W51645   5.269   0.576  11.866
79386W        W51646  36.323  11.609   4.553
79387W        W51647   8.181  14.592   1.899
79388W        W51648  21.851  35.636   1.870
79389W        W51649  19.555  19.637   2.833
79390W        W51650  37.421  28.252   0.427
79391W        W51651  10.048  43.391   0.764
79392W        W51652  40.684   1.830  11.274
79393W        W51653  16.877  11.854   4.263
79394W        W51654   2.617  37.892   2.786
79395W        W51655   8.807  16.117   1.847
79396W        W51656  23.144  28.828   4.235
79397W        W51657   5.424  37.295  13.902
79398W        W51658  24.381   5.377  13.414
79399W        W51659  30.788  15.234   2.656
79400W        W51660  16.155  34.582  12.849
79401W        W51661  27.460  32.289   5.008
79402W        W51662  23.480  16.327  13.229
79403W        W51663  37.468  26.207  12.974
79404W        W51664   3.529  30.239   2.015
79405W        W51665  16.653  15.342   2.089
79406W        W51666  18.402   2.522  12.871
79407W        W51667   9.078  32.511   1.533
79408W        W51668   9.259  18.495  12.973
79409W        W51669  39.884  21.166   3.462
79410W        W51670  19.538   2.884  14.313
79411W        W51671  32.193  39.285   3.766
79412W        W51672   9.810  30.039   3.658
79413W        W51673   4.275  11.925   3.241
79414W        W51674  15.166  14.896  12.768
79415W        W51675  23.801  26.186   2.314
79416W        W51676   7.810  39.783   0.443
79417W        W51677   7.243  44.714   4.323
79418W        W51678  34.669  34.496  10.784
79419W        W51679  19.481  21.026   3.226
79420W        W51680  31.905  40.083  14.866
79421W        W51681  29.494  43.835  14.708
79422W        W51682  28.921   6.643  10.875
79423W        W51683   2.848  16.288  14.786
79424W        W51684  36.404  21.092  11.404
79425W        W51685  39.405  35.201   2.286
79426W        W51686  22.881   1.806   2.827
79427W        W51687  12.484   9.389   2.155
79428W        W51688  40.673  26.110   0.383
79429W        W51689  18.331  21.526  11.146
79430W        W51690  22.804  40.744   3.702
79431W        W51691  39.024  36.131   5.042
79432W        W51692  30.877   2.504  11.116
79433W        W51693  10.456   6.834   1.231
79434W        W51694  26.585   6.209   3.722
79435W        W51695   9.258   2.451   2.232
79436W        W51696  21.565  35.727   2.357
79437W        W51697  37.092  34.875  14.866
79438W        W51698  22.111  25.661  10.141
79439W        W51699   9.874  30.538   2.117
79440W        W51700  16.119  12.715   0.218
79441W        W51701  24.778  20.158  12.894
79442W        W51702  44.956  28.362   2.759
79443W        W51703  44.995   4.803  13.983
79444W        W51704  38.872  15.886   4.548
79445W        W51705   5.254  17.143   2.744
79446W        W51706   7.711  18.489   0.521
79447W        W51707  10.743  37.031   3.301
79448W        W51708   9.734  15.605   3.174
79449W        W51709  15.534   4.870   4.168
79450W        W51710  44.531  14.237   0.483
79451W        W51711   7.278  32.134   0.300
79452W        W51712  41.846  13.714   4.279
79453W        W51713  18.311  31.916   0.013
79454W        W51714  35.294   0.575   0.807
79455W        W51715  16.193  33.222   9.964
79456W        W51716  27.923   6.209  11.491
79457W        W51717  24.546  18.514   1.956
79458W        W51718  15.355  43.114   2.261
79459W        W51719   9.439   4.827   1.848
79460W        W51720   0.989   7.316   2.182
79461W        W51721   7.737  44.732  10.697
79462W        W51722  10.609  35.929  12.171
79463W        W51723   7.731  43.903   2.724
79464W        W51724  42.851  32.078   2.739
79465W        W51725  34.025   9.364  14.913
79466W        W51726  36.266  32.619   3.247
79467W        W51727   5.237  16.552   3.358
79468W        W51728  41.357   1.488  14.360
79469W        W51729   5.189  39.820  11.163
79470W        W51730   0.456  37.836  13.819
79471W        W51731  39.075   1.135  14.788
79472W        W51732  23.538   7.334   3.644
79473W        W51733  10.935  24.702   2.337
79474W        W51734  14.059  43.725  14.555
79475W        W51735  35.887  25.664   1.254
79476W        W51736   1.352  21.524   1.303
79477W        W51737  11.190  44.762   0.026
79478W        W51738  13.326  13.156   4.895
79479W        W51739  39.363  22.621   1.018
79480W        W51740   6.647  36.811  11.498
79481W        W51741  11.495  13.770  12.794
79482W        W51742  32.654   8.714  12.870
79483W        W51743  40.556  30.931  11.934
79484W        W51744   3.878  41.425  12.852
79485W        W51745   2.850  15.041   4.330
79486W        W51746  34.599  25.787  11.131
79487W        W51747  24.374  30.899  13.159
79488W        W51748  44.226   5.418  11.125
79489W        W51749  43.842  38.143  12.094
79490W        W51750  32.707  36.141   4.490
79491W        W51751  14.167  12.568  13.782
79492W        W51752  11.717   1.754   4.520
79493W        W51753  22.599  39.893   2.371
79494W        W51754  24.620  28.967   0.756
79495W        W51755  33.118  44.902   1.268
79496W        W51756  22.573  36.876   1.406
79497W        W51757  15.784  36.479   5.006
79498W        W51758  42.008   8.751   5.239
79499W        W51759   9.592   6.972   3.171
79500W        W51760  44.813  30.244   1.551
79501W        W51761  19.540  25.679   2.775
79502W        W51762  44.738   6.232  10.999
79503W        W51763  38.230  16.540   0.669
79504W        W51764   7.326  41.322  12.853
79505W        W51765  32.073   8.376  13.944
79506W        W51766  28.173  11.186   0.885
79507W        W51767  11.428  35.977   0.819
79508W        W51768  10.993  27.005   2.253
79509W        W51769  22.542  35.837   2.481
79510W        W51770   2.778  42.432   3.418
79511W        W51771  43.710  37.896   0.232
79512W        W51772  31.498  15.145   4.319
79513W        W51773  12.554   4.234  10.577
79514W        W51774   4.396  27.756   5.442
79515W        W51775  30.443  16.243  11.953
79516W        W51776  43.249  39.235  11.187
79517W        W51777  36.129  26.129   2.829
79518W        W51778  22.242   8.363   0.877
79519W        W51779  29.917  15.756   1.865
79520W        W51780   5.618  42.954   5.169
79521W        W51781  23.153  22.144   3.262
79522W        W51782  19.711  10.210   0.623
79523W        W51783   3.814  27.459   1.912
79524W        W51784   9.756   8.480  10.675
79525W        W51785  25.433  30.903   4.859
79526W        W51786   9.720   8.467  14.888
79527W        W51787  18.804  26.522   4.197
79528W        W51788   2.730   5.937   4.654
79529W        W51789  33.831  44.441   0.238
79530W        W51790   9.305  29.943   4.575
79531W        W51791  40.878  31.829   2.861
79532W        W51792   8.938  29.407  10.303
79533W        W51793  27.834   0.869   3.173
79534W        W51794   1.779  30.897   0.694
79535W        W51795  11.344  32.901   3.102
79536W        W51796  24.053  23.480   4.156
79537W        W51797  24.999  22.743  11.278
79538W        W51798   3.811  35.155   2.151
79539W        W51799   9.032  24.184  10.637
79540W        W51800  16.813  23.715   0.233
79541W        W51801  26.232   5.939   4.663
79542W        W51802  11.899  33.494   4.158
79543W        W51803   0.991  39.911  10.258
79544W        W51804  27.133  11.933   4.306
79545W        W51805  12.535   1.952  13.876
79546W        W51806  30.535  34.092   4.388
79547W        W51807   2.988  17.032   2.292
79548W        W51808  24.550  17.867  14.872
79549W        W51809  21.767  30.612   0.777
79550W        W51810  29.287   0.766   0.954
79551W        W51811   7.978  38.300   1.999
79552W        W51812   4.070   1.974   1.786
79553W        W51813  19.496   6.787   4.028
79554W        W51814   2.731  33.928   0.098
79555W        W51815  40.041  36.895   2.567
79556W        W51816  31.821  16.791   4.556
79557W        W51817  44.423  30.880   0.366
79558W        W51818  32.162  43.139   0.024
79559W        W51819  32.621  11.727  10.831
79560W        W51820  36.634  38.334   0.945
79561W        W51821  42.703  20.684  13.732
79562W        W51822  22.664  24.585   4.701
79563W        W51823  19.137  32.518   4.535
79564W        W51824  40.078  39.946  12.509
79565W        W51825   3.843  24.631  14.828
79566W        W51826  18.233  29.298  13.499
79567W        W51827   8.640  39.022   0.345
79568W        W51828  33.951  27.801   1.423
79569W        W51829  32.487  22.081  11.870
79570W        W51830  18.673  29.433  14.969
79571W        W51831   2.876  27.709  10.644
79572W        W51832   5.273  19.487  13.352
79573W        W51833   8.927  32.061  10.038
79574W        W51834  22.594  27.482  12.414
79575W        W51835  29.169   5.404  13.021
79576W        W51836   5.625  29.955  13.443
79577W        W51837  24.676  10.346   2.232
79578W        W51838  20.760  17.503   2.022
79579W        W51839  21.027  25.103  10.029
79580W        W51840  22.153  37.954   0.392
79581W        W51841  42.295  41.281   2.351
79582W        W51842  16.012  43.920   2.723
79583W        W51843  23.395  36.010   0.811
79584W        W51844  12.778  40.840   4.850
79585W        W51845  32.417   3.261  14.367
79586W        W51846  19.021  40.465   2.767
79587W        W51847  14.139  16.805   3.269
79588W        W51848  31.596  23.107   3.751
79589W        W51849  32.831   0.019   3.740
79590W        W51850  28.469   0.436   0.957
79591W        W51851  15.808  11.676   0.529
79592W        W51852  38.831  21.558  11.588
79593W        W51853  38.152  19.546  11.460
79594W        W51854  23.319  43.342  10.554
79595W        W51855   5.718  16.545   4.321
79596W        W51856  11.843   9.411   0.913
79597W        W51857  42.785  16.905   3.777
79598W        W51858   5.870  11.720   0.439
79599W        W51859  15.772  19.382  13.831
79600W        W51860  27.795  15.296  13.813
79601W        W51861  32.923  22.833   3.278
79602W        W51862  26.204  44.421  11.072
79603W        W51863  40.938  43.301  12.037
79604W        W51864  35.652  33.888   1.769
79605W        W51865   7.639   7.847  12.090
79606W        W51866  42.338  31.422  11.634
79607W        W51867  31.789  43.496  14.725
79608W        W51868   7.791   5.925   3.189
79609W        W51869  10.349  16.964   3.115
79610W        W51870   5.213   3.456  11.118
79611W        W51871   3.562  22.543  11.646
79612W        W51872  34.804   5.678  11.545
79613W        W51873  37.876   1.778  14.736
79614W        W51874  15.727  12.410   3.957
79615W        W51875  10.328  35.312  10.939
79616W        W51876  42.318  14.102  11.202
79617W        W51877  10.133  14.813   1.612
79618W        W51878  14.177   7.338   4.556
79619W        W51879   2.472  35.990   0.816
79620W        W51880  32.601  14.298   1.323
79621W        W51881   9.348  19.347  11.896
79622W        W51882  28.925  31.378   2.749
79623W        W51883  14.645  35.617   1.008
79624W        W51884  40.415  24.657  13.390
79625W        W51885  38.469  23.072   0.477
79626W        W51886  15.102  31.555  13.917
79627W        W51887  37.133  43.323  13.846
79628W        W51888  13.698  44.807  14.389
79629W        W51889  42.660  37.807  14.377
79630W        W51890  43.746  14.651  11.327
79631W        W51891  26.924  41.302   5.066
79632W        W51892  43.194  30.535   4.387
79633W        W51893  39.504  18.674  13.554
79634W        W51894  27.295  32.427   0.414
79635W        W51895   2.616   1.319   1.169
79636W        W51896   4.836   1.182  12.441
79637W        W51897  15.701  44.214  14.907
79638W        W51898  12.343  35.535  11.988
79639W        W51899  18.187   4.572  10.914
79640W        W51900  41.011  29.781  10.958
79641W        W51901  34.825  38.883   1.855
79642W        W51902  32.923  34.440   1.629
79643W        W51903   5.407  15.457   3.861
79644W        W51904  32.025  15.427   2.207
79645W        W51905   3.517  41.899   4.477
79646W        W51906  30.946  36.672  11.144
79647W        W51907   6.615  38.400   0.847
79648W        W51908   9.835  36.616   3.163
79649W        W51909   9.020  42.126  12.410
79650W        W51910  14.951  27.421  11.213
79651W        W51911   2.125  40.289  13.551
79652W        W51912  25.430  34.352  10.651
79653W        W51913   5.136  21.833   2.018
79654W        W51914  43.768   7.268   4.589
79655W        W51915  12.931  28.102   2.589
79656W        W51916  26.907  15.577   3.313
79657W        W51917  41.867  44.176  13.315
79658W        W51918  20.231  11.245   4.605
79659W        W51919  35.389   6.363  14.295
79660W        W51920   1.602   5.006  13.781
79661W        W51921  15.372  28.568  11.140
79662W        W51922  35.995  44.051   0.939
79663W        W51923  44.376  23.472   1.846
79664W        W51924  40.523   0.987   3.415
79665W        W51925  33.301   5.356   2.581
79666W        W51926   8.162   4.446  11.129
79667W        W51927   2.954  21.866  14.040
79668W        W51928  16.544   5.310   3.606
79669W        W51929  44.200  20.116  13.920
79670W        W51930  40.682  16.274  14.294
79671W        W51931  11.790  28.802  10.137
79672W        W51932  33.392  33.710  13.394
79673W        W51933  15.718  14.158  13.002
79674W        W51934  23.010  25.102   4.056
79675W        W51935  21.167  34.403  10.706
79676W        W51936  36.161  28.490   2.749
79677W        W51937  25.760  35.821  12.884
79678W        W51938  41.812   3.449  12.413
79679W        W51939  32.565  20.588   0.349
79680W        W51940  44.636  28.736   0.900
79681W        W51941  24.063  13.236  14.373
79682W        W51942   4.273   9.490  11.116
79683W        W51943  41.368  30.419   2.894
79684W        W51944  43.911   2.348  13.041
79685W        W51945  25.364   6.341   0.346
79686W        W51946   0.568   1.871  10.351
79687W        W51947  25.221  41.538  14.340
79688W        W51948  35.115  30.892  12.891
79689W        W51949   6.617  16.481  12.552
79690W        W51950  11.753  28.567   0.951
79691W        W51951  27.081  32.130  13.306
79692W        W51952  37.101   8.573   5.668
79693W        W51953  26.601  19.718  14.856
79694W        W51954   5.162  31.908   2.258
79695W        W51955  32.464  11.280  11.586
79696W        W51956  40.492  32.980   1.736
79697W        W51957  43.381  33.054  10.656
79698W        W51958   8.243  22.632  12.912
79699W        W51959  26.262  42.563   3.846
79700W        W51960  14.523  11.820   0.535
79701W        W51961  33.459   8.861   3.500
79702W        W51962  13.796  31.649  11.706
79703W        W51963   2.953  24.867   3.424
79704W        W51964  40.206  13.960   4.683
79705W        W51965   0.476  26.079  11.558
79706W        W51966  34.021  31.415  11.895
79707W        W51967  23.646  42.932   4.256
79708W        W51968  10.601   5.860  14.894
79709W        W51969  32.473   7.468   9.654
79710W        W51970   3.719   9.429   4.102
79711W        W51971  10.901  40.288   3.901
79712W        W51972  39.698  42.600   0.902
79713W        W51973  37.105   6.937   2.208
79714W        W51974  21.470  16.745   0.971
79715W        W51975  32.924   0.547   3.660
79716W        W51976   4.695  29.134   4.335
79717W        W51977  21.956   6.940  13.888
79718W        W51978  36.575  40.837   3.729
79719W        W51979   3.759   5.223   2.327
79720W        W51980  36.987  16.313   4.420
79721W        W51981  19.118   6.592   1.233
79722W        W51982  44.081   6.889   0.327
79723W        W51983  18.131   6.953   2.656
79724W        W51984  38.264  32.433  11.551
79725W        W51985  18.985  37.384   3.843
79726W        W51986  23.697  10.363  13.369
79727W        W51987  31.569  34.803  14.288
79728W        W51988  21.102  23.506  13.225
79729W        W51989  42.638  32.675  14.949
79730W        W51990  26.324  19.611   0.297
79731W        W51991  20.540  22.692   2.651
79732W        W51992   0.913  14.598  12.880
79733W        W51993  16.059  26.543  13.087
79734W        W51994   9.913  16.236   3.192
79735W        W51995  14.838   4.627  11.409
79736W        W51996   2.266   2.177   1.825
79737W        W51997  43.381  37.536   2.071
79738W        W51998  35.882   3.550   0.298
79739W        W51999  41.449  20.684   3.713
79740W        W52000  20.985  32.358   3.772
79741W        W52001   5.170   2.791   3.668
79742W        W52002   3.662  41.776   3.769
79743W        W52003  17.235   1.274  14.767
79744W        W52004  28.049  20.444   2.164
79745W        W52005  25.018  11.726   2.740
79746W        W52006  31.363  38.821   0.054
79747W        W52007   6.675  43.948  12.510
79748W        W52008  27.668  39.920   0.507
79749W        W52009  16.766  38.615   3.597
79750W        W52010  20.060  25.866  12.439
79751W        W52011  26.258  29.422   0.765
79752W        W52012  40.103  38.200   3.733
79753W        W52013  33.639  10.241   0.378
79754W        W52014   1.732   5.676  12.498
79755W        W52015  23.109   2.454   1.599
79756W        W52016  21.688  32.178   0.546
79757W        W52017  21.701  25.980  13.074
79758W        W52018  26.183  44.755   2.342
79759W        W52019  26.233  43.280   4.585
79760W        W52020  39.633  44.112   1.887
79761W        W52021   7.133  14.339  11.474
79762W        W52022  18.018  23.199  13.866
79763W        W52023   5.596  29.002   3.763
79764W        W52024  30.346  12.776   3.261
79765W        W52025  22.910   2.406   0.628
79766W        W52026  11.133  10.781   4.518
79767W        W52027   6.823  35.941   1.697
79768W        W52028  31.789  30.909   3.699
79769W        W52029  35.576  32.859  14.521
79770W        W52030  25.955  17.772  10.478
79771W        W52031  32.591  42.457  13.993
79772W        W52032  20.762  41.315   2.907
79773W        W52033  17.774  24.548   1.439
79774W        W52034  18.476  39.559  13.381
79775W        W52035   9.627  30.203  12.631
79776W        W52036   1.886  44.417   3.248
79777W        W52037  32.395  11.760  13.818
79778W        W52038  22.672  27.257  11.951
79779W        W52039  36.875   5.395   2.285
79780W        W52040   2.372   7.742  12.851
79781W        W52041  36.814  32.007  14.326
79782W        W52042  38.907  16.532   3.193
79783W        W52043  44.763  16.828  12.083
79784W        W52044  17.483  14.530   1.366
79785W        W52045   6.330  41.333  12.937
79786W        W52046  18.144  43.992  13.946
79787W        W52047  29.454  33.380   2.676
79788W        W52048  14.252   2.242   3.516
79789W        W52049  38.924  41.899   4.787
79790W        W52050  22.001  21.862  11.070
79791W        W52051  40.011  23.555   1.868
79792W        W52052  14.781  10.913  13.051
79793W        W52053  42.455   1.259  13.564
79794W        W52054   4.769  30.530   4.563
79795W        W52055  33.660  14.338  11.074
79796W        W52056  43.689  44.220   4.263
79797W        W52057  34.325  43.036  14.242
79798W        W52058  12.261  25.409  11.117
79799W        W52059  42.662  11.844   2.302
79800W        W52060  11.319  35.311   1.938
79801W        W52061  43.472  22.919   3.702
79802W        W52062  39.343  11.414   3.704
79803W        W52063   9.168  23.726   0.265
79804W        W52064  29.058  34.896   0.303
79805W        W52065  32.396  22.734  12.508
79806W        W52066  12.426  17.840   2.607
79807W        W52067  23.966  19.553   3.205
79808W        W52068  31.752  17.226   5.306
79809W        W52069  11.294   8.400  13.550
79810W        W52070  26.603  13.755   4.343
79811W        W52071  39.044  18.457   4.434
79812W        W52072  27.510  22.055   3.459
79813W        W52073  17.863  29.374  12.342
79814W        W52074  14.333   1.495  11.147
79815W        W52075  27.629  30.191   3.757
79816W        W52076  35.148  36.462   4.453
79817W        W52077   5.748  34.310   2.605
79818W        W52078   1.464  21.178  11.500
79819W        W52079  28.114  12.376   0.323
79820W        W52080  14.208   1.750  12.996
79821W        W52081  38.267  12.397   0.223
79822W        W52082  14.014  32.116  14.833
79823W        W52083  35.325  26.299   0.433
79824W        W52084  22.816  24.656   4.197
79825W        W52085  36.480  21.024  14.263
79826W        W52086  25.913  32.061  11.567
79827W        W52087  32.941   9.898  11.911
79828W        W52088  40.809  17.121  10.523
79829W        W52089  39.764  34.821  12.578
79830W        W52090  23.460  32.769   1.278
79831W        W52091  22.998  43.892  14.327
79832W        W52092  22.625   0.831  11.930
79833W        W52093  43.256  12.169  11.104
79834W        W52094   4.840  10.928  12.106
79835W        W52095   1.858   0.419   2.099
79836W        W52096   5.321  42.154   4.076
79837W        W52097  10.258   0.027  13.086
79838W        W52098  16.783   3.513   2.801
79839W        W52099  26.047  13.268  11.874
79840W        W52100  14.573   9.311   3.693
79841W        W52101  35.163   7.753   2.361
79842W        W52102  29.524  32.112  14.303
79843W        W52103  26.051  26.029   4.613
79844W        W52104  34.705  40.969  14.713
79845W        W52105   1.911  34.079   0.752
79846W        W52106  34.649   3.755   2.748
79847W        W52107  40.075  36.025   1.885
79848W        W52108  25.175  38.473   2.454
79849W        W52109  16.754   1.334   3.145
79850W        W52110  42.822  20.579   2.345
79851W        W52111   7.925  39.508  11.605
79852W        W52112  36.501  39.280   4.458
79853W        W52113  19.505   9.734  12.396
79854W        W52114  27.192  11.574   1.864
79855W        W52115  22.989  34.391  12.105
79856W        W52116   1.599   0.792  13.842
79857W        W52117  36.593  41.106   2.407
79858W        W52118   1.186  35.019  13.777
79859W        W52119  26.138   8.291   0.842
79860W        W52120   2.972   0.180  12.547
79861W        W52121   8.844  28.579  14.510
79862W        W52122  31.528  11.750  11.020
79863W        W52123  39.562  24.975   2.623
79864W        W52124   2.694  18.563   1.441
79865W        W52125  44.232  24.334   2.288
79866W        W52126  40.096   6.174  14.778
79867W        W52127  10.343  37.076   4.213
79868W        W52128  36.092   2.147  10.680
79869W        W52129  25.025  36.897  14.733
79870W        W52130   4.244   6.674   1.700
79871W        W52131  13.083  23.504   3.680
79872W        W52132  36.937  16.797  11.385
79873W        W52133  29.365   4.316   0.770
79874W        W52134  29.055  30.971  10.877
79875W        W52135  29.516  30.091   3.706
79876W        W52136  35.150  17.792  13.487
79877W        W52137  12.435   9.344   4.286
79878W        W52138  34.902  32.020  10.207
79879W        W52139  12.695   3.481   0.891
79880W        W52140  44.396  34.133  11.699
79881W        W52141  38.118  33.071  11.978
79882W        W52142   3.092   1.070  12.144
79883W        W52143  31.742  35.912   3.366
79884W        W52144  15.336  32.653  11.055
79885W        W52145  18.396  28.032  13.455
79886W        W52146  30.794  43.026  11.180
79887W        W52147  13.895  30.516  13.052
79888W        W52148  13.779  33.388  12.501
79889W        W52149  32.557  38.879   2.689
79890W        W52150  18.246  19.040   4.566
79891W        W52151  37.506  44.976   2.836
79892W        W52152  16.720  25.513  14.511
79893W        W52153  35.064  27.682  13.966
79894W        W52154  33.918   2.567  14.666
79895W        W52155  34.939  26.579   3.576
79896W        W52156   1.956  31.861   1.829
79897W        W52157  38.737  22.233  11.020
79898W        W52158  10.138  14.695  10.668
79899W        W52159  18.118  43.312  14.300
79900W        W52160   2.593  36.429   1.051
79901W        W52161  26.189   7.231   4.388
79902W        W52162   3.411   1.003   2.164
79903W        W52163  37.481  44.221   1.351
79904W        W52164  24.640   5.364  12.541
79905W        W52165  25.236  25.923   0.750
79906W        W52166  35.243  39.021   4.851
79907W        W52167  10.555  25.918   1.838
79908W        W52168  30.143  28.924   1.254
79909W        W52169  35.376  38.014   0.924
79910W        W52170  19.829  14.323   5.239
79911W        W52171  43.566   2.674   0.995
79912W        W52172  33.784  44.437  13.881
79913W        W52173  21.884  11.886  11.618
79914W        W52174  40.267  24.990   0.463
79915W        W52175  43.357  38.538  12.303
79916W        W52176  35.981  28.908  12.058
79917W        W52177   8.375  20.336  12.547
79918W        W52178  33.880  39.769   4.539
79919W        W52179  37.588  25.571   0.221
79920W        W52180  41.813  10.692  10.851
79921W        W52181   8.701  26.604  14.772
79922W        W52182  18.211  25.962   4.065
79923W        W52183  34.317  12.629   0.583
79924W        W52184  17.009  37.417   5.375
79925W        W52185  11.786  43.491   1.403
79926W        W52186  26.070  35.674   1.228
79927W        W52187  11.653  15.683   3.659
79928W        W52188  37.537  43.694  14.301
79929W        W52189  15.966  39.467   1.984
79930W        W52190  17.788  15.108   4.126
79931W        W52191  15.294  15.654   2.695
79932W        W52192  19.609  33.365  13.867
79933W        W52193  20.206  40.787  11.708
79934W        W52194   5.408   0.183   4.877
79935W        W52195  25.715   3.982   1.018
79936W        W52196  39.097  37.384   3.286
79937W        W52197  44.712   6.166  12.518
79938W        W52198  10.398  13.374  10.784
79939W        W52199  41.477  31.986  11.448
79940W        W52200   5.461  31.053  12.285
79941W        W52201  10.750  12.862   4.153
79942W        W52202   1.607  37.548   4.160
79943W        W52203  18.228  36.688   4.887
79944W        W52204  26.063  25.978  13.523
79945W        W52205  23.628   1.526  10.615
79946W        W52206  31.201  41.568   0.406
79947W        W52207   8.962  17.028  13.357
79948W        W52208  16.567  26.524   2.586
79949W        W52209  12.179  26.905  11.727
79950W        W52210   0.004  38.820  14.398
79951W        W52211  39.988  21.026   2.358
79952W        W52212  17.132  18.115   4.136
79953W        W52213  19.305  33.519  11.178
79954W        W52214  17.089  16.222  13.407
79955W        W52215  23.500  17.397  11.970
79956W        W52216   3.248  11.027   0.278
79957W        W52217   3.787   4.174  13.589
79958W        W52218   7.913  21.986   0.591
79959W        W52219  13.016  34.864  12.024
79960W        W52220  20.444  36.378  11.414
79961W        W52221  23.632  19.108  12.605
79962W        W52222  35.164  26.443  11.606
79963W        W52223   6.735   6.747   4.590
79964W        W52224  42.515  13.906   3.541
79965W        W52225  18.347   5.375   1.807
79966W        W52226  30.604  43.346   3.926
79967W        W52227  33.672   6.795   0.395
79968W        W52228  21.093   0.572   2.182
79969W        W52229   8.687  42.085  11.497
79970W        W52230   2.426  41.276   1.771
79971W        W52231  40.423  31.440  13.366
79972W        W52232  17.105  13.667   3.294
79973W        W52233  42.169  12.014   4.336
79974W        W52234   4.885   5.173   3.742
79975W        W52235  34.661  17.887   3.377
79976W        W52236  21.243  26.489  11.514
79977W        W52237  19.835   3.735   3.667
79978W        W52238  22.658  12.686   4.951
79979W        W52239  12.654  34.545   0.922
79980W        W52240   2.236  40.858  13.090
79981W        W52241  12.148   0.484  10.325
79982W        W52242  17.767  38.028  13.830
79983W        W52243   6.891  12.680  13.455
79984W        W52244  24.591  22.551   2.202
79985W        W52245  13.122  22.470   3.697
79986W        W52246  31.130  15.116  12.075
79987W        W52247  42.090  17.090   2.240
79988W        W52248  25.531   4.694   4.669
79989W        W52249  22.059   2.275  10.603
79990W        W52250  35.830   9.132  11.549
79991W        W52251   6.712  35.996  13.989
79992W        W52252  12.119   1.999   4.760
79993W        W52253  34.406  36.001  11.138
79994W        W52254  41.938  44.844  14.792
79995W        W52255  40.495  33.266   2.791
79996W        W52256  42.241  17.158  12.428
79997W        W52257  34.348  32.535  13.031
79998W        W52258   5.620  26.096  10.210
79999W        W52259  26.673  10.702   1.709
80000W        W52260  16.727  25.629  12.866
80001W        W52261  23.489  35.907   0.319
80002W        W52262   6.195   1.027  13.571
80003W        W52263  25.571   3.531   3.021
80004W        W52264  41.304  24.460  11.640
80005W        W52265  26.996  26.156  13.546
80006W        W52266  24.171  29.039   0.992
80007W        W52267  15.681  37.783   2.344
80008W        W52268  16.419  32.401  14.896
80009W        W52269  24.550  31.568  11.601
80010W        W52270  39.033  28.162  13.767
80011W        W52271  22.598  30.352  11.569
80012W        W52272  23.886  38.224  11.243
80013W        W52273  25.149  14.302  11.510
80014W        W52274  34.174   4.973   3.616
80015W        W52275  10.745  20.725   0.647
80016W        W52276  18.859  36.179   4.835
80017W        W52277  19.746  34.945   2.288
80018W        W52278  12.196  38.407  10.721
80019W        W52279  16.238  39.547  13.832
80020W        W52280  44.400  25.036  12.704
80021W        W52281   5.653  16.625   0.674
80022W        W52282   4.942  37.381  14.863
80023W        W52283  38.744  37.704  14.553
80024W        W52284  21.492  21.282  11.644
80025W        W52285  40.638  42.020  13.457
80026W        W52286  26.411  16.245   1.435
80027W        W52287  23.743  31.900   1.525
80028W        W52288  36.324   9.876  13.077
80029W        W52289  13.686  39.258  13.814
80030W        W52290  13.569  26.231   0.728
80031W        W52291  14.262  28.122   4.993
80032W        W52292   6.799  25.503   9.921
80033W        W52293  30.987   3.305   3.368
80034W        W52294  26.025  19.028   1.872
80035W        W52295  27.990  21.992   3.640
80036W        W52296  41.024  35.836  12.493
80037W        W52297  20.644  42.520   3.640
80038W        W52298  17.433  31.284  10.632
80039W        W52299  15.800  33.598   3.743
80040W        W52300  43.427  39.076   2.653
80041W        W52301  44.245  40.109  13.070
80042W        W52302  39.639  40.603  14.340
80043W        W52303   4.974  37.519   4.444
80044W        W52304   5.820   1.758  14.018
80045W        W52305  33.685   8.730   1.812
80046W        W52306   3.249  11.171  12.512
80047W        W52307  30.592  26.007   4.902
80048W        W52308  16.354  11.814   4.045
80049W        W52309   6.178  42.048   4.283
80050W        W52310  41.299  18.168   4.164
80051W        W52311  17.089  44.907   4.070
80052W        W52312  42.955  42.913   3.325
80053W        W52313  11.127  38.200   3.087
80054W        W52314  28.879  25.752   2.315
80055W        W52315  23.036   8.168  10.619
80056W        W52316  11.747  22.248   3.285
80057W        W52317  25.453  19.573  12.830
80058W        W52318  20.766  18.346   0.507
80059W        W52319  23.588   2.871   2.345
80060W        W52320   4.284  34.688   0.747
80061W        W52321  19.198   3.318   4.302
80062W        W52322  20.268   2.444   4.261
80063W        W52323  12.776  30.001   5.432
80064W        W52324  16.090  30.155  13.503
80065W        W52325  39.783   2.783  12.976
80066W        W52326  37.325   0.840   0.268
80067W        W52327  18.580   1.378  14.839
80068W        W52328  30.678   4.298  12.964
80069W        W52329  44.808   5.005   0.575
80070W        W52330  20.599   4.192  13.607
80071W        W52331   9.464  28.481  13.508
80072W        W52332   0.442   4.851   2.561
80073W        W52333  13.766  20.600  14.987
80074W        W52334  37.443  27.246   0.332
80075W        W52335  42.269  41.385   0.902
80076W        W52336  13.181  24.727   2.861
80077W        W52337  10.446  40.532   3.845
80078W        W52338  44.386  22.757   3.117
80079W        W52339   0.461   3.258  11.702
80080W        W52340  39.600  24.021   5.170
80081W        W52341   2.203  33.952   2.753
80082W        W52342  16.150  24.124  14.781
80083W        W52343   4.634   5.239  12.065
80084W        W52344  39.958  33.229  14.410
80085W        W52345  22.180  18.251  11.048
80086W        W52346   2.505  27.163   0.483
80087W        W52347  25.925  34.507  10.718
80088W        W52348   3.892  37.466   4.435
80089W        W52349  15.908   4.302   4.807
80090W        W52350   7.335  15.659  12.060
80091W        W52351   7.099  40.286   4.138
80092W        W52352  34.430  22.716   3.832
80093W        W52353  42.767  44.258   3.323
80094W        W52354  22.783  35.643  12.954
80095W        W52355  29.909   2.702  14.449
80096W        W52356  41.611  12.685   4.602
80097W        W52357  20.620  19.600   2.714
80098W        W52358  44.754  35.415  14.987
80099W        W52359  23.678  10.233   3.684
80100W        W52360   8.480  36.082  13.334
80101W        W52361  22.007  39.231   4.242
80102W        W52362  12.123  15.322   4.921
80103W        W52363  31.662  15.118   2.397
80104W        W52364   1.484  34.969   0.760
80105W        W52365   2.543  27.254  13.240
80106W        W52366  35.573  28.034   2.222
80107W        W52367  41.710   7.439  10.598
80108W        W52368  12.646  28.936  13.495
80109W        W52369   7.141  10.916  12.610
80110W        W52370   9.408  32.145   3.654
80111W        W52371  43.949  33.800  12.835
80112W        W52372  20.185   9.622  12.082
80113W        W52373  37.785  15.157   3.281
80114W        W52374  39.427   2.908   2.735
80115W        W52375  11.222  26.076   0.376
80116W        W52376  39.437  31.884   4.348
80117W        W52377   7.498  41.424  11.068
80118W        W52378  10.365  17.912   4.575
80119W        W52379  24.148  18.250  11.107
80120W        W52380  15.696  21.476   1.872
80121W        W52381  20.878  41.522  12.065
80122W        W52382  38.848  39.283   2.518
80123W        W52383  37.740  24.515  13.403
80124W        W52384   9.877   6.414   3.660
80125W        W52385   6.429  24.479   3.014
80126W        W52386   7.139  39.070  14.366
80127W        W52387  43.445  42.048   1.310
80128W        W52388  34.455  29.380   1.254
80129W        W52389   7.983  32.552  12.938
80130W        W52390   4.388  26.083  14.307
80131W        W52391  28.083  37.129   0.542
80132W        W52392  38.199  25.247  13.823
80133W        W52393  28.999   6.116   3.439
80134W        W52394  23.301   3.969  13.806
80135W        W52395  41.441  16.723  12.466
80136W        W52396  25.611  40.313   0.793
80137W        W52397  38.198  28.055  13.502
80138W        W52398  10.579  37.217   1.181
80139W        W52399  39.039   8.928   1.774
80140W        W52400  39.986   0.674  12.494
80141W        W52401  30.647  25.571   3.539
80142W        W52402  10.323  20.249   0.375
80143W        W52403  37.580  26.625  11.648
80144W        W52404  10.298   7.756  13.118
80145W        W52405  24.722  44.973   1.753
80146W        W52406   5.731  30.471  13.409
80147W        W52407  38.395   7.335   4.567
80148W        W52408  39.044  23.093   4.080
80149W        W52409   3.231   4.516   1.003
80150W        W52410  39.056  30.555  10.294
80151W        W52411  18.790   8.509  11.704
80152W        W52412  41.966  25.935  14.377
80153W        W52413  26.755   1.820   2.416
80154W        W52414  38.344  23.652   3.097
80155W        W52415  25.956  12.730  10.253
80156W        W52416  10.078  39.116   1.769
80157W        W52417  17.572  13.813  11.618
80158W        W52418  22.908   7.792   1.447
80159W        W52419   3.931  19.642   0.824
80160W        W52420   7.637  37.220   5.043
80161W        W52421   2.725  30.656  14.861
80162W        W52422  37.045  18.865  13.975
80163W        W52423   1.108  11.585   2.828
80164W        W52424  44.793   9.842  13.019
80165W        W52425  35.331  39.466  14.999
80166W        W52426  24.181  19.072   4.229
80167W        W52427   1.957  41.823  11.117
80168W        W52428   3.025  31.926   0.363
80169W        W52429  25.091   0.708   4.089
80170W        W52430  37.084  18.607  13.036
80171W        W52431  22.478  24.993   3.941
80172W        W52432  26.136  44.785  10.715
80173W        W52433   8.440  12.439   0.362
80174W        W52434   8.659  35.136   2.741
80175W        W52435   8.905  32.014  14.944
80176W        W52436  19.579  12.512   1.432
80177W        W52437  23.605  16.135  11.717
80178W        W52438  25.522   3.216   0.650
80179W        W52439  18.689  39.959  14.240
80180W        W52440  40.833  16.718   3.214
80181W        W52441   9.290  37.222  11.583
80182W        W52442  35.946  13.519   1.769
80183W        W52443  11.611  16.211  12.986
80184W        W52444   5.792  21.257   1.241
80185W        W52445  25.025   1.159  13.743
80186W        W52446   8.104  28.346  14.837
80187W        W52447  35.705  22.224   1.221
80188W        W52448  11.865   7.529  12.007
80189W        W52449  23.296  31.165  11.064
80190W        W52450  19.066  34.860  11.568
80191W        W52451  31.527  14.157   3.905
80192W        W52452   2.808   1.525   3.266
80193W        W52453  30.626   8.902  11.174
80194W        W52454   3.211  10.834   2.575
80195W        W52455  33.470  32.888   0.686
80196W        W52456  44.919   9.178  11.133
80197W        W52457   3.192  39.006   2.689
80198W        W52458  31.014  11.358   4.878
80199W        W52459   1.739  30.065   1.806
80200W        W52460  38.358  22.762   4.626
80201W        W52461  16.624  10.333   2.186
80202W        W52462   9.409   5.859  12.634
80203W        W52463  36.090   6.130  14.069
80204W        W52464   2.014  21.654   2.105
80205W        W52465  12.587   0.514   4.840
80206W        W52466  11.494  44.727   2.417
80207W        W52467  19.530  25.708   1.831
80208W        W52468   7.315  35.263  12.032
80209W        W52469  28.921  28.966  12.442
80210W        W52470  41.684  41.231  13.863
80211W        W52471  32.570  44.202  13.352
80212W        W52472  34.706  22.170  12.451
80213W        W52473  16.641  26.207  11.176
80214W        W52474  36.352  18.598  14.816
80215W        W52475   3.473  10.897  11.557
80216W        W52476  24.123   3.902  14.886
80217W        W52477  13.757  38.908   0.110
80218W        W52478  18.771  24.744  12.559
80219W        W52479  28.477  25.458  13.812
80220W        W52480  12.829  41.999   2.386
80221W        W52481  38.398  35.946  14.463
80222W        W52482   6.377  22.291   5.025
80223W        W52483  42.669   8.069   0.814
80224W        W52484  20.270  29.459  13.574
80225W        W52485   6.778   5.550   0.924
80226W        W52486  20.472  30.486  10.492
80227W        W52487   4.707  11.613   3.292
80228W        W52488  35.350  14.809  10.996
80229W        W52489  23.793  44.144  10.167
80230W        W52490  24.801  38.770  13.330
80231W        W52491   2.524  11.947   2.757
80232W        W52492  32.253   0.445   5.057
80233W        W52493   0.851  32.123  13.211
80234W        W52494   7.706   7.231  10.275
80235W        W52495  44.432  22.776   2.248
80236W        W52496  12.625  44.531  13.841
80237W        W52497   3.474  11.120  14.817
80238W        W52498  15.551   4.398  14.751
80239W        W52499  22.831   6.206  12.557
80240W        W52500  43.794  37.413   1.528
80241W        W52501  27.703  21.079  14.069
80242W        W52502  18.568   5.926  13.878
80243W        W52503  17.265  22.043   3.839
80244W        W52504   9.324   4.788  11.608
80245W        W52505  13.958   9.649  14.184
80246W        W52506  26.654  17.737  13.766
80247W        W52507  24.707  10.222  11.134
80248W        W52508  29.428  22.607  10.668
80249W        W52509   4.413  17.807   4.134
80250W        W52510  27.007  28.967  14.391
80251W        W52511   6.838   9.183  11.996
80252W        W52512   5.745  20.069  10.417
80253W        W52513  25.650  20.243  14.965
80254W        W52514   9.814  12.917   4.035
80255W        W52515   6.731  29.442  10.184
80256W        W52516  10.858  24.634   3.308
80257W        W52517  14.638  32.143  11.363
80258W        W52518  13.186  14.176   2.278
80259W        W52519  17.442  31.653  11.089
80260W        W52520  38.080  43.859  12.437
80261W        W52521  41.929  23.169   4.594
80262W        W52522  23.522  31.534   1.861
80263W        W52523  44.419  30.305   3.250
80264W        W52524  13.862  10.405   0.818
80265W        W52525  29.668  16.009   3.118
80266W        W52526  37.020  35.311   2.821
80267W        W52527  23.921   0.505   4.817
80268W        W52528  15.416  38.653  14.514
80269W        W52529  44.282  10.637  13.582
80270W        W52530   1.902  21.999  11.908
80271W        W52531  14.785  22.340  11.609
80272W        W52532  10.360  30.571   0.053
80273W        W52533  16.080  27.116  13.866
80274W        W52534  27.576  15.352   2.677
80275W        W52535  36.173  18.143  12.289
80276W        W52536  13.613  39.781  10.337
80277W        W52537   1.779  23.008   0.440
80278W        W52538   1.799  28.000  14.133
80279W        W52539  12.662  37.497  10.693
80280W        W52540  13.722  28.243  14.962
80281W        W52541  18.322  43.022   3.107
80282W        W52542  16.176   9.357  10.676
80283W        W52543   0.005   2.247  14.910
80284W        W52544  19.971  20.502  12.042
80285W        W52545  13.122  28.038  10.214
80286W        W52546  42.053  38.322   1.377
80287W        W52547  25.700  16.624  10.647
80288W        W52548   8.849  36.979   3.148
80289W        W52549   8.847  19.595   4.975
80290W        W52550  20.778   3.010  12.954
80291W        W52551  39.484  24.321  12.639
80292W        W52552  17.490  13.871  13.645
80293W        W52553  41.424  44.900  13.014
80294W        W52554  15.910   5.537   2.936
80295W        W52555  25.484  14.384  11.102
80296W        W52556  33.328  22.622   2.947
80297W        W52557  27.500   4.804   2.668
80298W        W52558  11.845  40.704  12.901
80299W        W52559   3.147  28.114  14.303
80300W        W52560   3.511  17.256  11.063
80301W        W52561   3.251  33.505  13.900
80302W        W52562  24.266  17.265  14.557
80303W        W52563   3.740  38.805  11.684
80304W        W52564  24.284   5.853   1.834
80305W        W52565  17.929   5.709   4.127
80306W        W52566  25.653   5.632  14.283
80307W        W52567   4.267  21.647  13.449
80308W        W52568  18.715  41.235   0.054
80309W        W52569  36.281   1.310  11.613
80310W        W52570  18.816  34.980   1.273
80311W        W52571  23.904   2.397  11.608
80312W        W52572  32.165  33.605   2.155
80313W        W52573   6.921  14.144  11.898
80314W        W52574  33.370  43.408  11.018
80315W        W52575  28.774  39.890  11.829
80316W        W52576  11.218  22.139  11.234
80317W        W52577  37.601  23.910  12.393
80318W        W52578  12.246  16.372   3.560
80319W        W52579  15.881  41.958   2.880
80320W        W52580  20.664   5.349  12.007
80321W        W52581   3.885  37.431  10.627
80322W        W52582  21.559  21.253   0.452
80323W        W52583  44.846  23.685   0.740
80324W        W52584  14.694  22.902  12.463
80325W        W52585  35.967  36.154  14.499
80326W        W52586  44.319   4.217  14.743
80327W        W52587   1.855  11.667  12.314
80328W        W52588  33.123  22.981   3.738
80329W        W52589  30.884  32.463   1.342
80330W        W52590  27.697  40.874   0.501
80331W        W52591  13.853  34.422  11.114
80332W        W52592   5.699  34.922  14.827
80333W        W52593  24.864  33.924  14.993
80334W        W52594  18.657  33.252   9.951
80335W        W52595  27.923  25.670  11.033
80336W        W52596  39.770  34.391  14.014
80337W        W52597  22.903   3.747   3.724
80338W        W52598  12.874  24.655   0.859
80339W        W52599  40.688   5.475   4.161
80340W        W52600   9.430  38.840  13.342
80341W        W52601  24.878  42.915  11.243
80342W        W52602  31.459  35.877   2.142
80343W        W52603   2.788  27.449   2.648
80344W        W52604  27.148   2.002   5.000
80345W        W52605  18.546  22.445   2.291
80346W        W52606   8.339  32.999  13.862
80347W        W52607  17.375  30.995   1.306
80348W        W52608  25.122  24.041   1.915
80349W        W52609  43.969  34.932   2.819
80350W        W52610   5.617  16.405   2.873
80351W        W52611  36.510   1.723   2.641
80352W        W52612  23.181   0.288  11.306
80353W        W52613   8.895  25.600  14.795
80354W        W52614  21.138   6.878   4.930
80355W        W52615   5.282  27.972   3.070
80356W        W52616  12.757   7.224   1.927
80357W        W52617  22.315   3.520   2.826
80358W        W52618  12.386  44.446  14.440
80359W        W52619  32.992  40.952   1.297
80360W        W52620  21.747  38.041  10.707
80361W        W52621  19.235   4.771  11.980
80362W        W52622   0.830  36.494   4.415
80363W        W52623  38.033  41.522   2.741
80364W        W52624  17.890  41.723  12.520
80365W        W52625  39.468  28.074   2.547
80366W        W52626  41.478  12.325   0.717
80367W        W52627  35.138  37.038  10.770
80368W        W52628   0.600  30.849   2.229
80369W        W52629   2.837  31.299   2.378
80370W        W52630  22.240  44.522   1.839
80371W        W52631  42.025  21.856   1.230
80372W        W52632  30.446  21.227  12.859
80373W        W52633  16.337  20.118   1.399
80374W        W52634   6.638  15.402  10.857
80375W        W52635   5.389  43.994   1.461
80376W        W52636  28.246   8.655   4.823
80377W        W52637  10.853   2.283  14.528
80378W        W52638  43.596  15.049  12.431
80379W        W52639   7.275  38.044  12.314
80380W        W52640   0.305   0.497   2.324
80381W        W52641  29.029  27.641  13.336
80382W        W52642  27.712  44.460  14.270
80383W        W52643  19.822  34.642   1.691
80384W        W52644  38.823  29.560  11.949
80385W        W52645  38.149  34.974  11.408
80386W        W52646  42.871   6.956   2.841
80387W        W52647  15.626   9.761   3.387
80388W        W52648  22.919   0.470  12.150
80389W        W52649  31.389  24.068  11.495
80390W        W52650  22.108  22.087   9.771
80391W        W52651  34.493   1.112   4.255
80392W        W52652  13.756  41.834  13.834
80393W        W52653  22.597  39.397   3.857
80394W        W52654  15.318  34.748   2.109
80395W        W52655   9.276  36.436  13.973
80396W        W52656   0.965  42.905   1.748
80397W        W52657  23.814  35.535  12.076
80398W        W52658  38.352  19.064  11.445
80399W        W52659   1.330  16.339  14.824
80400W        W52660  32.536  33.537   4.252
80401W        W52661  22.144  36.346   2.332
80402W        W52662  24.697  13.057   1.790
80403W        W52663  20.649  12.224  14.960
80404W        W52664  35.518  42.526   0.705
80405W        W52665  33.926  33.437  12.848
80406W        W52666   3.835   3.220   4.228
80407W        W52667  40.067  43.418   0.977
80408W        W52668  41.925  39.274   3.259
80409W        W52669  35.592  18.382  10.201
80410W        W52670   4.682  17.733  14.281
80411W        W52671   1.424  10.140   2.327
80412W        W52672   4.362  42.316   4.460
80413W        W52673  15.799  20.762   2.302
80414W        W52674  25.050  20.545  11.667
80415W        W52675  29.634  44.489  13.085
80416W        W52676  10.379  44.343   2.965
80417W        W52677  17.291  33.505   2.304
80418W        W52678  28.074   0.753   3.623
80419W        W52679   9.422  35.703   5.008
80420W        W52680   4.769  10.689   3.389
80421W        W52681  19.080   0.297   1.353
80422W        W52682  44.506  28.671  14.403
80423W        W52683   4.475  21.956   1.909
80424W        W52684  31.293  44.084   4.923
80425W        W52685  35.620   0.349   0.457
80426W        W52686  29.757  30.633  13.076
80427W        W52687  32.397  44.822   3.989
80428W        W52688  10.421  36.855  13.939
80429W        W52689  23.656   1.251  14.898
80430W        W52690  23.659  32.310  14.919
80431W        W52691   9.272   3.879   3.818
80432W        W52692  28.465  34.355   2.735
80433W        W52693  19.246  19.682   4.826
80434W        W52694   6.045   0.783  11.539
80435W        W52695   4.495  31.905  14.505
80436W        W52696  34.747   3.227  12.148
80437W        W52697  15.079  41.059  12.403
80438W        W52698  28.653   3.821  14.744
80439W        W52699  26.377   4.245   1.002
80440W        W52700  36.573  21.632   4.433
80441W        W52701   7.228  15.800  13.352
80442W        W52702  34.678  22.741  11.593
80443W        W52703   9.786  41.763  14.932
80444W        W52704  11.922  19.301  14.819
80445W        W52705  21.734  10.686   0.833
80446W        W52706  37.357  12.763   1.762
80447W        W52707  13.546  16.899   5.550
80448W        W52708  13.674  38.334   3.302
80449W        W52709  13.146  27.640  13.072
80450W        W52710  25.732  26.887   2.004
80451W        W52711   8.415  16.746   0.734
80452W        W52712  42.260   6.625   3.248
80453W        W52713  29.138  28.687  13.124
80454W        W52714   0.264  37.868   1.835
80455W        W52715  30.519  25.911  13.950
80456W        W52716   8.450  27.485   4.493
80457W        W52717  22.495  23.718   4.104
80458W        W52718  11.861   5.908  11.535
80459W        W52719  35.538  35.125   2.144
80460W        W52720  19.030  26.217  12.544
80461W        W52721  16.260  13.727  10.737
80462W        W52722  40.896  20.224  14.088
80463W        W52723  18.363  22.323   1.804
80464W        W52724  32.947  41.548   2.142
80465W        W52725  10.784   4.407   3.907
80466W        W52726  14.525  30.863  13.535
80467W        W52727  16.873   6.723   0.429
80468W        W52728   7.248   0.262   2.329
80469W        W52729  19.212  26.616   2.400
80470W        W52730  19.294  27.451   4.041
80471W        W52731  37.815  11.680  11.969
80472W        W52732  14.257  29.154   4.040
80473W        W52733  12.049  22.479  10.700
80474W        W52734  16.999  23.159  12.489
80475W        W52735  29.962   5.313   3.724
80476W        W52736  17.495   9.792  14.048
80477W        W52737   4.924  19.560   3.759
80478W        W52738  43.571  43.187  12.545
80479W        W52739  10.322  37.399   9.956
80480W        W52740   2.456  20.773   0.875
80481W        W52741  40.606  14.147  11.547
80482W        W52742  12.685   5.904  13.990
80483W        W52743   2.795  29.542  13.337
80484W        W52744  43.497  41.968  11.537
80485W        W52745  14.044  21.008  14.815
80486W        W52746  38.375   9.413  11.123
80487W        W52747  33.100   0.881  14.476
80488W        W52748   4.465  15.786  14.224
80489W        W52749  32.119   0.843  14.430
80490W        W52750  24.440  41.782  14.935
80491W        W52751  18.059  28.785  13.525
80492W        W52752  26.125  24.525   2.551
80493W        W52753  19.984   2.184  13.320
80494W        W52754  42.294   4.989  13.072
80495W        W52755  19.112  31.464   1.343
80496W        W52756  24.461  20.727   2.638
80497W        W52757   5.361  29.342  10.482
80498W        W52758  21.615   4.471   1.225
80499W        W52759  34.775  21.191  12.074
80500W        W52760  22.369  26.510   1.046
80501W        W52761   8.644  15.330  14.352
80502W        W52762  30.676  33.812   0.705
80503W        W52763  42.565   1.654  13.882
80504W        W52764  26.932   5.668   4.123
80505W        W52765   8.956  25.387  13.536
80506W        W52766  39.497  10.761  10.488
80507W        W52767  16.152  14.297   5.140
80508W        W52768  32.244  21.679  11.023
80509W        W52769  14.343  11.351  14.979
80510W        W52770  34.084  11.547   4.182
80511W        W52771   1.624  18.835   0.841
80512W        W52772  10.540  20.122  11.442
80513W        W52773  29.100  11.225  12.755
80514W        W52774  24.224  40.281   4.963
80515W        W52775  16.636   5.326   1.802
80516W        W52776  24.810   6.825  12.327
80517W        W52777  15.616  22.953   5.108
80518W        W52778  29.022  17.722   1.388
80519W        W52779  17.693  18.377  13.408
80520W        W52780  30.604  31.843   2.223
80521W        W52781  28.072  24.001  11.626
80522W        W52782  32.208   3.755  14.391
80523W        W52783   7.259  39.422   3.897
80524W        W52784   0.143  33.844  11.690
80525W        W52785  23.655  25.438  14.238
80526W        W52786  33.379  23.050  12.198
80527W        W52787  24.154  36.437  14.922
80528W        W52788   8.727  15.839  14.502
80529W        W52789  33.165  28.442  14.910
80530W        W52790  11.228  35.859  12.020
80531W        W52791  31.439   9.183   1.919
80532W        W52792  10.140  22.604  14.297
80533W        W52793  43.315  18.096   4.116
80534W        W52794  38.581   6.427  11.801
80535W        W52795  26.631  33.101   3.633
80536W        W52796  41.339  37.846  14.709
80537W        W52797  31.035   2.673  10.667
80538W        W52798  28.549  18.571   1.271
80539W        W52799  28.944  28.976   0.926
80540W        W52800  19.040  11.249  13.332
80541W        W52801  12.173  11.103  13.603
80542W        W52802  36.008   1.795  14.238
80543W        W52803  12.249  12.809   2.474
80544W        W52804  12.549  16.096   0.829
80545W        W52805  39.647  31.472   4.116
80546W        W52806  37.018  33.672  11.184
80547W        W52807  16.964  38.860   4.079
80548W        W52808  40.156  31.341   4.108
80549W        W52809  42.671  43.009  13.425
80550W        W52810  31.180  22.198   0.247
80551W        W52811   1.581   4.904   4.965
80552W        W52812  38.529  42.774  13.553
80553W        W52813  43.220  28.422  11.198
80554W        W52814  24.986  38.716  10.083
80555W        W52815  23.051  12.013   2.700
80556W        W52816  32.167  15.642  13.046
80557W        W52817  15.714  15.220   1.694
80558W        W52818  37.345  34.150  14.923
80559W        W52819  26.680  24.125   2.685
80560W        W52820  38.882  40.410   1.817
80561W        W52821  12.393   1.338  14.394
80562W        W52822  44.938  22.739  10.643
80563W        W52823  33.313   5.746   0.821
80564W        W52824  42.801  39.777  11.667
80565W        W52825  34.900  41.323   4.517
80566W        W52826  39.755  29.023   3.737
80567W        W52827   5.917  41.768  12.509
80568W        W52828   4.745  40.445  12.405
80569W        W52829  34.170  19.878   0.476
80570W        W52830   9.970   7.766  12.263
80571W        W52831  40.414   0.801  14.823
80572W        W52832  15.597  22.728   1.224
80573W        W52833  10.264  16.078  11.872
80574W        W52834  26.643   9.686   0.239
80575W        W52835  44.297  39.223   0.896
80576W        W52836  44.374  41.986  11.905
80577W        W52837   1.567  43.051  13.448
80578W        W52838  17.798   6.758  11.972
80579W        W52839   2.465  18.586  10.691
80580W        W52840  19.068   6.148   3.774
80581W        W52841   0.480  15.175   2.511
80582W        W52842  42.312  27.756  13.549
80583W        W52843  19.257   3.782  13.897
80584W        W52844  32.769  15.329   0.430
80585W        W52845  22.349   1.230  14.401
80586W        W52846  21.005  33.580   1.827
80587W        W52847   4.623  25.734   2.728
80588W        W52848  38.128  18.599   3.979
80589W        W52849  41.082  19.246   4.608
80590W        W52850  26.282  26.091   0.825
80591W        W52851  44.873  39.974   2.272
80592W        W52852  23.586   0.021   0.887
80593W        W52853   7.754   0.958   2.707
80594W        W52854  35.031  14.089  10.528
80595W        W52855   3.645  26.676  11.981
80596W        W52856  31.964  28.362   1.926
80597W        W52857   9.258  19.539  13.989
80598W        W52858  20.652   1.907  12.943
80599W        W52859   3.318  15.044   0.368
80600W        W52860  41.379  39.266   1.736
80601W        W52861  31.199   7.413   2.483
80602W        W52862   1.768  34.046  14.765
80603W        W52863   7.777   0.076  13.809
80604W        W52864  18.556  33.533   0.272
80605W        W52865  11.168  43.433   2.735
80606W        W52866  21.779   4.019  13.942
80607W        W52867  20.234  15.287  14.303
80608W        W52868  38.046  26.470   2.836
80609W        W52869  30.990  16.662  13.955
80610W        W52870  35.800  15.905   0.963
80611W        W52871  29.619  38.010   1.326
80612W        W52872  13.297   9.078  11.570
80613W        W52873  25.965  33.905  10.639
80614W        W52874  13.853   0.293  14.589
80615W        W52875  17.745   0.255   4.186
80616W        W52876  39.233  39.888  11.152
80617W        W52877  35.509  42.113   3.043
80618W        W52878  12.048   5.432  11.454
80619W        W52879  35.344  20.274   0.827
80620W        W52880  11.744  26.586   4.952
80621W        W52881   1.374  10.207   1.430
80622W        W52882  29.641  28.926   2.130
80623W        W52883   5.944  35.391  11.686
80624W        W52884  41.735   2.365  14.805
80625W        W52885  29.068  11.095   1.268
80626W        W52886   2.319   3.816  13.705
80627W        W52887  26.447  23.262   1.375
80628W        W52888  31.179  18.324  12.021
80629W        W52889  14.393  26.973  13.434
80630W        W52890  16.266  35.024  12.041
80631W        W52891   9.212   1.168   1.812
80632W        W52892   1.831  30.542   4.554
80633W        W52893  28.540  41.505   0.804
80634W        W52894  40.404   7.759  12.075
80635W        W52895  37.607  13.307   1.998
80636W        W52896  30.437   3.846  11.059
80637W        W52897   2.398  23.013  12.331
80638W        W52898  14.122  27.876  11.023
80639W        W52899  39.585  29.378  13.702
80640W        W52900  35.049  36.456  11.526
80641W        W52901  17.511  26.553   4.547
80642W        W52902  19.389  33.750  13.603
80643W        W52903   1.854  37.404  14.286
80644W        W52904  32.389  32.029   4.278
80645W        W52905  32.205  28.085   0.374
80646W        W52906  40.442  37.136   2.763
80647W        W52907  41.902  28.779  10.242
80648W        W52908   8.320  26.154   0.242
80649W        W52909  34.998  25.196  11.859
80650W        W52910  21.987  20.370   2.787
80651W        W52911   8.723   0.472  13.331
80652W        W52912  33.899   4.368  12.327
80653W        W52913  15.929  29.468   2.844
80654W        W52914  33.200  14.452  14.961
80655W        W52915  10.033   7.883  14.111
80656W        W52916  21.081  29.234   0.009
80657W        W52917  44.310  30.622   3.628
80658W        W52918  28.695  39.361   3.947
80659W        W52919  13.768  12.804   4.018
80660W        W52920  36.397   9.805  14.027
80661W        W52921  30.278  20.673  12.865
80662W        W52922  13.756  16.126   4.230
80663W        W52923  12.756   2.258   2.312
80664W        W52924  14.184   2.335  11.706
80665W        W52925  35.029  43.387   4.234
80666W        W52926  13.815  38.931   4.941
80667W        W52927  43.408   2.017  11.614
80668W        W52928  35.452  15.788  12.208
80669W        W52929  35.420  21.584  12.456
80670W        W52930  41.845  31.860   1.940
80671W        W52931  17.692  34.832   2.878
80672W        W52932   0.098  16.407   1.483
80673W        W52933  36.446  36.486  12.614
80674W        W52934   8.818  29.189  12.539
80675W        W52935  31.902  26.966   2.428
80676W        W52936  28.999   9.810   0.723
80677W        W52937  41.346  33.369   0.340
80678W        W52938  36.061  19.191   4.591
80679W        W52939  19.642  13.487   1.361
80680W        W52940   0.368  34.451   2.216
80681W        W52941  43.799   1.949  10.683
80682W        W52942  32.687  32.038  12.583
80683W        W52943   5.797  17.703   3.335
80684W        W52944  34.319  39.442   2.185
80685W        W52945  43.064  18.970   0.888
80686W        W52946  11.638  23.765  14.521
80687W        W52947   0.380  42.087  11.675
80688W        W52948  22.552  17.822  13.338
80689W        W52949  13.327  11.096   3.465
80690W        W52950  34.536  21.134   0.383
80691W        W52951  26.699  27.957  12.023
80692W        W52952  11.891  43.746   1.853
80693W        W52953  25.611   1.994  13.754
80694W        W52954  44.958   7.419   1.254
80695W        W52955   9.730  38.774   4.882
80696W        W52956  31.100  14.711   4.858
80697W        W52957  39.032  28.937   3.161
80698W        W52958  31.035  17.526   2.603
80699W        W52959   7.837  33.586   4.577
80700W        W52960  14.106   2.023  14.904
80701W        W52961  22.855  11.663  12.567
80702W        W52962  28.041  21.077  11.567
80703W        W52963  21.579  24.343   0.400
80704W        W52964  22.091  23.333  12.307
80705W        W52965   2.937   0.417  14.248
80706W        W52966  19.094  29.651   3.127
80707W        W52967  34.447  44.041   1.794
80708W        W52968   8.262  24.414  14.504
80709W        W52969  21.260   7.278  12.470
80710W        W52970  41.937   1.418  11.195
80711W        W52971  22.739  28.811   4.988
80712W        W52972   9.303   9.817   2.267
80713W        W52973  25.340  41.286  12.839
80714W        W52974  12.843   0.269   3.915
80715W        W52975  26.085   4.934   3.934
80716W        W52976  10.882  20.128   1.478
80717W        W52977  22.242  20.023   1.328
80718W        W52978   9.864  18.798  10.975
80719W        W52979  22.172  38.327  10.622
80720W        W52980  37.458   4.532   0.227
80721W        W52981  40.920  32.137  11.220
80722W        W52982  41.521   5.174   2.310
80723W        W52983  37.352  21.658   1.474
80724W        W52984  25.907  18.517   1.797
80725W        W52985  36.334  33.735  14.826
80726W        W52986  35.436   7.236   1.902
80727W        W52987   9.697   3.212  13.942
80728W        W52988  15.272  38.310   1.531
80729W        W52989  23.631   0.745  14.843
80730W        W52990  28.204   2.851   0.889
80731W        W52991  28.980  38.564  14.244
80732W        W52992  29.165  39.827   2.728
80733W        W52993  42.761  31.832   2.259
80734W        W52994  27.964   1.714   4.519
80735W        W52995   9.912   7.747  12.777
80736W        W52996  17.520  22.167  14.014
80737W        W52997  24.541  35.069   2.872
80738W        W52998  13.356  39.295   4.180
80739W        W52999  14.354  27.917  10.564
80740W        W53000  22.168   6.703  11.210
80741W        W53001  27.287   3.629  14.044
80742W        W53002   5.589  28.230  11.151
80743W        W53003  29.067   2.767   0.060
80744W        W53004  41.931   1.975   3.382
80745W        W53005   9.782  26.938   1.738
80746W        W53006  38.517   0.715   1.740
80747W        W53007   8.180  25.932  12.661
80748W        W53008  20.794  29.043  14.002
80749W        W53009  38.313  33.089   4.847
80750W        W53010  30.655  38.235  12.112
80751W        W53011  43.784  20.680  12.086
80752W        W53012  24.776  39.876  14.563
80753W        W53013  23.189  41.122  10.886
80754W        W53014  37.009   9.395  10.665
80755W        W53015  19.304  18.701   2.545
80756W        W53016  27.080  44.777   2.220
80757W        W53017   1.139  13.288   0.700
80758W        W53018  22.132   8.279   1.905
80759W        W53019  20.757  40.040   0.909
80760W        W53020  32.189   3.147  13.895
80761W        W53021   5.800  43.068   2.518
80762W        W53022  33.673  30.448  11.761
80763W        W53023  30.093  19.672   2.801
80764W        W53024  42.757  33.059   1.836
80765W        W53025  30.084  35.560  13.494
80766W        W53026  22.723  20.118   4.287
80767W        W53027  12.038  24.107  14.588
80768W        W53028  20.139  27.446   1.894
80769W        W53029  17.586   2.751  10.610
80770W        W53030  32.758  19.988  12.608
80771W        W53031  23.797  37.784  14.387
80772W        W53032  19.449   5.915  10.899
80773W        W53033  44.265  44.756  10.926
80774W        W53034  17.698  16.294   0.322
80775W        W53035   0.374   3.966  12.123
80776W        W53036  35.516  37.009  14.843
80777W        W53037  26.134  10.690   3.731
80778W        W53038   1.079   6.820   4.499
80779W        W53039  24.139  37.777  11.185
80780W        W53040   1.725  36.356  12.344
80781W        W53041  25.945  16.398   2.229
80782W        W53042  25.604  27.740   2.871
80783W        W53043   9.105  37.875  12.050
80784W        W53044  13.233   3.040   0.391
80785W        W53045   9.873  17.184  12.892
80786W        W53046   8.550   0.842   1.268
80787W        W53047  40.226  20.668  12.000
80788W        W53048  31.424  21.792   4.176
80789W        W53049  21.742  42.414   1.211
80790W        W53050  10.219  41.571   2.617
80791W        W53051  12.406  16.621  14.088
80792W        W53052  21.548  15.569   3.618
80793W        W53053  41.211  42.916   4.248
80794W        W53054  42.321   6.760   4.782
80795W        W53055  22.271  33.008   1.682
80796W        W53056  10.491  39.420   4.197
80797W        W53057  40.617  34.464  11.859
80798W        W53058  36.275  29.183   4.277
80799W        W53059  27.069  28.919   1.880
80800W        W53060   2.248  23.260   4.153
80801W        W53061  30.838  29.508   3.221
80802W        W53062  12.747  30.413   2.566
80803W        W53063  19.000  18.522   4.174
80804W        W53064  39.018  31.498  10.253
80805W        W53065   7.358  31.097  11.422
80806W        W53066   5.245  10.742  11.184
80807W        W53067  29.452  24.678   3.604
80808W        W53068  29.483  44.937  10.786
80809W        W53069  18.969   5.547  11.469
80810W        W53070  26.041  12.677   0.014
80811W        W53071  25.188  12.218   2.415
80812W        W53072  39.060  36.238  10.388
80813W        W53073  14.535  28.207  11.041
80814W        W53074  28.052  19.252   3.841
80815W        W53075  29.992  43.943  13.351
80816W        W53076  18.254  22.410  12.214
80817W        W53077   7.723  28.243   2.780
80818W        W53078  44.726  27.139  13.402
80819W        W53079   3.933  34.112   0.054
80820W        W53080   4.490  29.685   2.664
80821W        W53081  10.179  19.217   0.414
80822W        W53082  15.246  13.211  10.839
80823W        W53083  24.104  44.945   3.439
80824W        W53084  11.296   2.911   1.882
80825W        W53085   9.363  44.947  14.972
80826W        W53086  27.012  37.515   0.179
80827W        W53087  31.319  19.301   3.887
80828W        W53088  14.620  18.646  13.912
80829W        W53089  39.188  13.350  14.377
80830W        W53090   4.573   8.289   5.261
80831W        W53091  17.647  35.693   1.503
80832W        W53092  37.733   9.118   1.291
80833W        W53093  16.990   2.800   2.166
80834W        W53094  15.133  24.164  11.116
80835W        W53095   9.888  21.840   1.714
80836W        W53096  33.878   9.823   2.711
80837W        W53097  32.177  22.115   3.818
80838W        W53098   6.735   1.016  12.236
80839W        W53099  30.099  18.713  10.729
80840W        W53100  44.215  39.170   1.840
80841W        W53101  32.379   7.452  14.451
80842W        W53102  19.475   9.491   3.192
80843W        W53103  14.771  14.760   4.619
80844W        W53104  38.872  19.033  11.517
80845W        W53105  18.786  22.198   0.285
80846W        W53106   2.705   1.360   2.780
80847W        W53107  31.654  43.462   2.449
80848W        W53108  28.163  36.048   1.453
80849W        W53109  42.904  34.620   0.132
80850W        W53110  14.154  30.414   3.123
80851W        W53111  23.656  22.563  14.912
80852W        W53112  31.979  43.110  10.571
80853W        W53113  28.163  30.102   3.716
80854W        W53114  32.359  35.915   1.194
80855W        W53115  16.317   5.875   2.961
80856W        W53116  37.286  32.489   3.381
80857W        W53117  43.601   2.148   0.910
80858W        W53118  20.748  19.341  13.009
80859W        W53119   8.991  26.522  12.678
80860W        W53120   3.944  21.358   4.080
80861W        W53121  43.080  24.967  12.137
80862W        W53122  28.644   5.335   2.457
80863W        W53123  21.031  19.702   4.238
80864W        W53124  20.781  11.118   2.842
80865W        W53125  44.821  30.675  10.692
80866W        W53126   7.895  33.216  14.075
80867W        W53127  14.783  42.846  11.145
80868W        W53128  15.677  32.418   2.195
80869W        W53129  10.881  16.972  11.187
80870W        W53130  21.547  20.989  14.979
80871W        W53131  19.535  40.793   0.305
80872W        W53132   1.401  11.945   1.498
80873W        W53133  29.117  10.821   2.145
80874W        W53134  22.129  24.712   1.033
80875W        W53135  32.172  34.342  14.859
80876W        W53136  23.384  14.702  11.677
80877W        W53137   6.760  30.313  13.352
80878W        W53138  40.643  24.182  13.314
80879W        W53139   5.418  36.808  11.030
80880W        W53140  38.194  18.511  14.846
80881W        W53141  19.345  31.944   1.443
80882W        W53142  20.268  24.446   2.909
80883W        W53143  29.981  29.919  12.521
80884W        W53144  16.714  40.249  14.470
80885W        W53145  44.227  44.457  13.649
80886W        W53146  16.320   3.990  12.201
80887W        W53147  39.623  23.157   1.828
80888W        W53148  11.385  38.736   0.234
80889W        W53149  24.603  30.604  14.905
80890W        W53150   2.143   1.327   1.972
80891W        W53151  41.814  28.601   0.468
80892W        W53152  25.101  38.745   1.202
80893W        W53153  24.061  11.653  13.841
80894W        W53154  42.467  29.117  12.489
80895W        W53155  17.226  44.294   4.847
80896W        W53156  10.740   1.901   3.619
80897W        W53157  18.678  29.215   1.823
80898W        W53158  21.919  22.848  14.573
80899W        W53159  27.963  35.454  12.869
80900W        W53160   3.036  42.419   4.757
80901W        W53161  23.826  27.023   4.177
80902W        W53162  32.419   5.428   4.101
80903W        W53163  18.237  27.048   0.823
80904W        W53164  10.261  41.226   3.223
80905W        W53165  26.552  34.411  14.523
80906W        W53166   9.781  29.750  11.674
80907W        W53167   7.298   0.467  11.165
80908W        W53168  33.336  36.928   0.997
80909W        W53169  26.489  26.164  13.281
80910W        W53170   4.488  34.376  11.909
80911W        W53171   1.729  12.221   2.780
80912W        W53172   7.784   5.138  10.806
80913W        W53173   7.310  43.252   1.379
80914W        W53174  40.864   8.798   0.243
80915W        W53175  13.363   7.244  11.131
80916W        W53176   9.678  38.831   2.890
80917W        W53177  36.840  20.019  12.807
80918W        W53178  11.154  26.564  12.716
80919W        W53179  25.427  38.384  13.565
80920W        W53180  20.808   8.473   1.325
80921W        W53181  43.571  27.142   3.293
80922W        W53182  23.653  10.833  10.663
80923W        W53183  41.048  14.050   0.836
80924W        W53184   0.158  26.140   1.584
80925W        W53185  44.034  37.603   2.406
80926W        W53186   5.457   3.268  12.973
80927W        W53187  19.757   3.354  14.410
80928W        W53188  31.162  17.641  13.431
80929W        W53189  43.381  11.677  10.936
80930W        W53190  19.591  13.709   1.832
80931W        W53191   3.950  44.110  14.069
80932W        W53192  13.041   2.290  12.475
80933W        W53193  37.069  43.864  14.469
80934W        W53194   7.148  21.695   3.253
80935W        W53195  14.917  29.714   5.486
80936W        W53196  18.911  43.968  11.469
80937W        W53197   5.467  20.446  13.754
80938W        W53198   4.350  44.229   4.477
80939W        W53199  26.909  30.909  11.109
80940W        W53200  44.655   8.244   3.762
80941W        W53201  10.206  43.397   4.242
80942W        W53202  33.672   2.509   2.807
80943W        W53203  31.048  20.242  13.631
80944W        W53204  38.853  42.470   0.760
80945W        W53205  24.921  30.249   4.184
80946W        W53206   7.757  34.838   0.420
80947W        W53207   3.768  31.024   1.457
80948W        W53208   8.711  41.236   4.736
80949W        W53209  37.531  28.052  14.928
80950W        W53210  15.210   7.115  14.286
80951W        W53211  33.099   2.714  14.139
80952W        W53212  12.495  24.985  13.206
80953W        W53213   7.181   9.121   4.533
80954W        W53214  38.488  14.638  12.329
80955W        W53215  28.502  12.576   1.612
80956W        W53216  37.769  23.295  14.867
80957W        W53217  33.953  16.690  11.010
80958W        W53218   1.553  40.325  11.647
80959W        W53219   9.700  26.073   3.222
80960W        W53220  12.361  25.678  13.512
80961W        W53221  29.687  24.003  14.471
80962W        W53222   5.829  21.489  11.103
80963W        W53223  22.238  26.552   4.871
80964W        W53224  18.575  14.294  14.600
80965W        W53225  23.224  44.392  11.849
80966W        W53226   9.776  36.878   1.483
80967W        W53227  33.538  22.630   3.951
80968W        W53228   5.529  27.541  12.796
80969W        W53229  24.001  24.895  14.827
80970W        W53230  36.617   7.781   1.205
80971W        W53231   5.426  41.024   0.919
80972W        W53232  29.451  13.745  12.960
80973W        W53233  35.543  14.248  14.225
80974W        W53234  13.159  12.138   1.641
80975W        W53235   1.867  24.700  12.963
80976W        W53236   2.703   1.382   3.760
80977W        W53237  15.296  23.090   1.496
80978W        W53238  40.589  36.045   1.842
80979W        W53239  39.094   0.750  12.561
80980W        W53240   1.528   8.713  11.452
80981W        W53241   6.669  29.737   1.388
80982W        W53242  27.172  38.050   3.370
80983W        W53243  43.376   3.594   4.194
80984W        W53244  13.009   3.946   2.639
80985W        W53245  42.362  23.559   1.752
80986W        W53246  30.151  14.620  11.454
80987W        W53247  17.693  33.693  14.272
80988W        W53248  43.976   3.848  13.012
80989W        W53249  30.479  14.127  12.959
80990W        W53250  11.624   4.978  14.402
80991W        W53251  30.177  28.780  12.795
80992W        W53252  22.553   3.317   3.716
80993W        W53253  31.128  10.892  12.512
80994W        W53254   1.251  19.801  10.701
80995W        W53255  17.641  20.535  11.214
80996W        W53256   1.856   1.034  11.709
80997W        W53257  19.136  29.924   3.619
80998W        W53258  38.996  23.821   1.735
80999W        W53259   1.572  42.770  14.932
81000W        W53260  34.341  17.601   1.350
81001W        W53261   8.378  21.027   2.447
81002W        W53262   0.519  43.403   3.692
81003W        W53263  23.216   0.242  11.806
81004W        W53264   0.512  43.836   1.369
81005W        W53265  21.641   1.827  14.193
81006W        W53266  36.571  40.920  10.982
81007W        W53267  36.636  12.276   2.262
81008W        W53268  29.904   5.876  14.814
81009W        W53269  16.748  22.315  13.372
81010W        W53270  27.400  32.143   4.173
81011W        W53271  17.821  30.734  11.228
81012W        W53272  41.445  24.210   3.190
81013W        W53273  10.140  24.285  13.622
81014W        W53274  40.774   6.816  12.037
81015W        W53275   6.488  44.033   4.148
81016W        W53276  29.901  28.376   1.842
81017W        W53277  25.770   9.357  13.567
81018W        W53278  13.577  44.023   4.131
81019W        W53279   4.874  10.560  12.968
81020W        W53280  17.178  27.133   2.880
81021W        W53281  13.190   9.227  12.462
81022W        W53282  24.157  31.087   2.235
81023W        W53283   3.286   5.992  14.968
81024W        W53284  29.445  24.133  11.588
81025W        W53285  19.049  35.619   3.224
81026W        W53286  15.368  20.858  11.626
81027W        W53287  31.223  27.451  13.381
81028W        W53288  21.313  18.710   3.848
81029W        W53289  27.941  21.146  13.616
81030W        W53290   3.458  18.726   1.869
81031W        W53291   5.756  29.901   1.694
81032W        W53292   9.903   3.000  13.527
81033W        W53293  33.065  37.197   2.642
81034W        W53294  12.786  43.986   0.709
81035W        W53295  24.703  34.028   0.973
81036W        W53296  21.135   4.076  11.621
81037W        W53297   6.373  31.906   3.705
81038W        W53298  41.768  22.673   4.620
81039W        W53299   9.642  13.128  12.851
81040W        W53300  25.651   5.707   3.741
81041W        W53301   0.445   8.821  10.677
81042W        W53302  12.805   4.265   2.283
81043W        W53303  21.709  30.860   4.576
81044W        W53304   9.890  24.389   0.912
81045W        W53305   4.563   0.833   2.772
81046W        W53306  41.777  27.634   0.025
81047W        W53307   8.650   6.913   3.476
81048W        W53308   7.299  14.641   2.431
81049W        W53309   0.760   7.193  11.944
81050W        W53310   2.779  42.450  13.255
81051W        W53311  38.854  17.325   0.642
81052W        W53312  37.102  18.194  12.727
81053W        W53313  21.951  25.245  12.114
81054W        W53314  10.118  38.773   3.635
81055W        W53315  26.851   1.741   0.264
81056W        W53316   9.156  41.384  14.453
81057W        W53317   3.128  13.157   3.623
81058W        W53318  34.926  26.017   0.677
81059W        W53319  18.684  14.755   3.626
81060W        W53320   4.949  29.971   3.735
81061W        W53321  14.085  20.309   0.329
81062W        W53322   2.719  33.651  12.956
81063W        W53323   7.651  44.990  14.797
81064W        W53324  31.652  23.979   3.016
81065W        W53325   6.366  44.618   0.540
81066W        W53326  32.448  23.141   3.373
81067W        W53327  31.101  35.944  14.248
81068W        W53328  39.827  27.489   3.083
81069W        W53329  29.996  29.378   4.637
81070W        W53330   7.444   1.616   0.163
81071W        W53331  17.787  41.322   0.961
81072W        W53332  19.542   4.495   0.825
81073W        W53333  40.819  33.431  14.224
81074W        W53334  43.753  34.621   0.108
81075W        W53335  28.349  24.665  12.383
81076W        W53336  42.961  19.210   1.346
81077W        W53337  36.552   9.461   4.735
81078W        W53338  25.185  13.616   2.783
81079W        W53339   0.433  36.302   2.801
81080W        W53340  23.588   6.738   1.968
81081W        W53341  35.030  30.178  14.363
81082W        W53342   3.938   5.483   2.742
81083W        W53343  38.364  36.896  12.797
81084W        W53344  26.493  29.055  13.301
81085W        W53345  34.520  39.277  12.264
81086W        W53346  44.917  11.387  10.599
81087W        W53347  12.820  44.086   3.439
81088W        W53348  22.711  11.284   1.464
81089W        W53349   8.895   6.394  14.326
81090W        W53350  16.757  32.986  11.971
81091W        W53351   2.459  35.653  13.876
81092W        W53352  22.543  15.605  13.949
81093W        W53353  15.769  23.313  13.665
81094W        W53354   6.547  19.480  11.117
81095W        W53355  30.948   7.685  13.954
81096W        W53356  41.794  43.089  12.022
81097W        W53357  31.049  38.551  12.125
81098W        W53358  23.532  29.363   3.625
81099W        W53359  24.024  25.576   2.266
81100W        W53360  36.153  36.130  12.339
81101W        W53361  32.406  33.198   2.375
81102W        W53362  30.023  15.849   0.523
81103W        W53363  33.932  44.076   2.924
81104W        W53364  18.645   6.153  14.449
81105W        W53365  35.874  38.803   2.895
81106W        W53366  41.010  13.130  14.261
81107W        W53367  23.765  28.017   5.013
81108W        W53368   1.296  38.546   3.320
81109W        W53369  26.210  44.908  11.207
81110W        W53370  40.408  15.546   3.666
81111W        W53371  28.000  25.065   3.150
81112W        W53372  39.564   1.723   0.817
81113W        W53373   8.774  21.758   3.480
81114W        W53374   9.722  11.596  14.350
81115W        W53375  27.400  36.893  12.558
81116W        W53376  21.219  21.228   1.820
81117W        W53377  33.154   5.245  12.054
81118W        W53378  40.296  11.201  12.945
81119W        W53379   3.393   3.822   3.085
81120W        W53380  42.849  19.404  14.864
81121W        W53381  30.533  44.672   0.512
81122W        W53382  26.962  35.099  12.512
81123W        W53383  13.236  29.321  12.607
81124W        W53384  26.765  40.003  11.171
81125W        W53385  35.679  31.688   4.318
81126W        W53386  44.749  13.536   3.322
81127W        W53387   5.411  15.331  14.513
81128W        W53388  16.564  22.499  10.681
81129W        W53389  20.800  43.334   2.439
81130W        W53390  18.048  41.759  10.995
81131W        W53391   0.553  16.886   5.091
81132W        W53392  44.038  25.653   0.224
81133W        W53393  42.367  31.711   4.663
81134W        W53394  11.216  22.294   0.766
81135W        W53395   6.285  15.938  13.533
81136W        W53396   0.881   1.409   4.334
81137W        W53397  14.186  17.635  10.911
81138W        W53398  29.873  10.748  14.501
81139W        W53399   1.400  38.062   3.106
81140W        W53400  25.988  44.462   0.846
81141W        W53401  35.895  42.072  10.909
81142W        W53402  11.290   0.919  11.867
81143W        W53403  27.508  42.810   1.938
81144W        W53404  19.065   4.235   2.753
81145W        W53405  16.770  33.146  10.459
81146W        W53406  33.874  31.560  13.839
81147W        W53407  20.319  14.258  14.836
81148W        W53408   3.254  15.857  10.980
81149W        W53409  39.954   7.703  14.353
81150W        W53410  44.472  33.190   1.371
81151W        W53411  27.973  27.033   3.890
81152W        W53412   3.547  36.550  10.769
81153W        W53413  25.444  13.431   1.204
81154W        W53414  17.694  37.431  12.323
81155W        W53415  15.810  31.178   4.519
81156W        W53416  16.689  39.790  13.770
81157W        W53417   3.064  18.663   3.757
81158W        W53418  40.116  31.621  11.547
81159W        W53419  34.993  14.877   4.814
81160W        W53420  29.522  35.844   2.060
81161W        W53421  16.778  37.938   0.795
81162W        W53422  41.168  27.604  10.749
81163W        W53423  18.125  35.473   4.655
81164W        W53424  44.232  30.586   2.160
81165W        W53425  18.888   7.699   1.896
81166W        W53426   5.188  19.108  12.899
81167W        W53427  31.654  20.003   3.331
81168W        W53428  21.073  20.501   4.595
81169W        W53429  23.747  38.244   2.564
81170W        W53430   6.326  31.243  11.074
81171W        W53431   9.255  19.750  14.468
81172W        W53432  44.893  40.276   2.819
81173W        W53433  38.942  22.507   3.265
81174W        W53434  24.177  23.524  14.288
81175W        W53435  19.107  44.495  12.045
81176W        W53436   9.619  29.031  13.405
81177W        W53437  40.388   8.643   2.845
81178W        W53438  10.559  37.867   1.692
81179W        W53439  30.567  30.035  10.195
81180W        W53440  37.695  16.572  11.581
81181W        W53441  36.040  25.003   3.919
81182W        W53442  43.847  33.101  11.421
81183W        W53443  14.831  40.112  11.496
81184W        W53444  36.913  18.382   0.896
81185W        W53445  43.479   1.361   4.525
81186W        W53446  29.126   7.108  11.029
81187W        W53447  35.026  28.993  14.965
81188W        W53448   3.964  12.842  11.200
81189W        W53449  36.057  23.955   1.812
81190W        W53450   7.418  29.568   2.799
81191W        W53451  13.011   2.037  10.503
81192W        W53452  28.235  33.182  14.409
81193W        W53453  38.426  32.653   4.595
81194W        W53454  33.638  26.733  12.482
81195W        W53455  41.608   7.879   2.123
81196W        W53456   1.430  10.682   2.361
81197W        W53457   8.785  34.400   2.311
81198W        W53458  38.776  28.895   3.607
81199W        W53459  26.570  12.286  10.688
81200W        W53460  26.568  10.313  12.219
81201W        W53461  17.891  21.574  11.844
81202W        W53462  21.630  18.771  12.964
81203W        W53463  26.045  33.328  12.036
81204W        W53464  11.096  11.253   3.281
81205W        W53465  33.620  40.988  11.408
81206W        W53466  35.951  11.734   3.292
81207W        W53467  13.702  16.292  14.773
81208W        W53468  13.742   5.626   4.813
81209W        W53469  44.439  27.190   3.900
81210W        W53470  39.517  13.182  14.754
81211W        W53471  26.494   4.281   0.519
81212W        W53472  16.602  24.609   0.369
81213W        W53473  43.332  33.274   3.176
81214W        W53474  37.897  25.929   4.270
81215W        W53475  40.992   8.306   0.547
81216W        W53476   2.275  18.148   2.864
81217W        W53477  25.124   7.216  14.986
81218W        W53478  37.058  39.059  12.901
81219W        W53479  25.753   6.247  11.863
81220W        W53480  25.239  10.327   3.300
81221W        W53481   1.808  31.696  10.594
81222W        W53482  15.404  38.808   3.238
81223W        W53483   0.581  26.640  10.409
81224W        W53484  13.273  29.925  10.697
81225W        W53485  42.797   5.712   1.751
81226W        W53486  15.062  36.929   4.616
81227W        W53487  40.766  32.897  12.335
81228W        W53488  33.469  13.771  13.499
81229W        W53489   5.741  19.222  11.410
81230W        W53490   3.604   4.707   2.385
81231W        W53491  33.250  15.035   3.853
81232W        W53492   2.453  15.084   2.181
81233W        W53493   3.890  37.141   3.826
81234W        W53494  28.408  19.951  14.966
81235W        W53495  32.469  18.149   0.880
81236W        W53496  27.938  30.631  11.567
81237W        W53497  12.299  15.100  10.352
81238W        W53498  21.653  31.403   3.378
81239W        W53499  11.100  41.107  10.642
81240W        W53500  26.133   1.259   0.325
81241W        W53501  40.128  40.701  12.080
81242W        W53502  34.448   2.682  14.605
81243W        W53503  13.833  28.642   2.205
81244W        W53504  43.379   7.311  14.886
81245W        W53505  30.072   6.201  13.568
81246W        W53506  24.656  13.332   4.657
81247W        W53507  16.353  33.707  13.979
81248W        W53508  34.061   2.966   1.734
81249W        W53509   7.727  27.200   4.115
81250W        W53510  19.427   5.842  12.302
81251W        W53511  41.876  33.812  13.030
81252W        W53512  17.072  37.681   0.414
81253W        W53513   5.822  33.473  12.445
81254W        W53514  23.563  24.308   0.802
81255W        W53515  10.934   8.809   2.193
81256W        W53516  40.795  15.773   2.348
81257W        W53517  37.546  23.320   3.310
81258W        W53518  39.617  18.626  11.217
81259W        W53519  17.338  24.191   0.813
81260W        W53520  21.100  32.143   4.585
81261W        W53521  34.142  13.297   0.463
81262W        W53522  16.227  25.864  14.447
81263W        W53523  40.753  12.101  13.845
81264W        W53524   9.890  16.295  10.857
81265W        W53525  17.876  33.844  12.313
81266W        W53526  16.538  36.963  13.956
81267W        W53527  41.569  35.315   0.183
81268W        W53528  16.382   4.363   3.619
81269W        W53529   6.776   1.196   3.149
81270W        W53530   2.195   9.831   1.887
81271W        W53531  17.948  37.489   0.325
81272W        W53532  41.695  14.647   2.886
81273W        W53533  19.956  34.835  10.187
81274W        W53534   1.966  32.601  13.559
81275W        W53535  42.245  20.433   4.107
81276W        W53536  23.219  25.969   1.385
81277W        W53537  34.896   6.434   3.754
81278W        W53538   7.913   8.825   4.509
81279W        W53539  37.990  44.106  10.367
81280W        W53540  40.656  10.065   1.904
81281W        W53541   1.487  27.218   1.403
81282W        W53542  33.912  27.215  13.795
81283W        W53543  17.069   1.480  11.657
81284W        W53544   1.344   4.466   2.420
81285W        W53545   9.784  35.929  12.452
81286W        W53546   4.116  41.513   0.883
81287W        W53547  42.925  31.077  13.735
81288W        W53548  32.856   7.913  12.020
81289W        W53549  24.566  29.405   4.554
81290W        W53550  32.961   5.208  13.014
81291W        W53551  11.654  38.785  12.075
81292W        W53552  44.179  38.478   3.071
81293W        W53553  43.921  23.077  12.041
81294W        W53554  35.901   0.783   1.352
81295W        W53555   5.389  32.354   2.396
81296W        W53556   8.770  12.209   1.967
81297W        W53557  27.663   5.154   4.171
81298W        W53558  18.080   9.456  10.895
81299W        W53559  35.482  43.287  12.874
81300W        W53560  27.261   2.884  10.748
81301W        W53561  15.025  19.589   0.293
81302W        W53562  15.094  24.421  14.476
81303W        W53563   7.218   5.449   1.181
81304W        W53564   3.670  19.512   0.397
81305W        W53565  13.439  34.205   0.198
81306W        W53566  25.055   6.756   2.096
81307W        W53567   3.866  29.258   3.814
81308W        W53568  43.412  12.581   1.290
81309W        W53569  32.228   8.015  14.777
81310W        W53570  15.012  43.774  11.796
81311W        W53571  41.746  26.736   3.674
81312W        W53572  30.191  37.018   0.415
81313W        W53573  11.205  36.760   3.174
81314W        W53574  25.933  33.393   2.253
81315W        W53575   7.431  14.122  11.104
81316W        W53576  39.575  23.266  14.458
81317W        W53577  13.222  38.206   2.686
81318W        W53578  20.506  22.321  13.417
81319W        W53579   2.941  15.346   0.207
81320W        W53580  35.483  35.127   0.329
81321W        W53581  36.894  12.207   4.658
81322W        W53582  42.691   2.967   4.770
81323W        W53583  16.897  18.999   0.861
81324W        W53584  21.562  24.176  14.412
81325W        W53585  15.327  15.800   0.738
81326W        W53586   1.278  14.506   5.072
81327W        W53587  32.196  13.513   4.225
81328W        W53588  25.333  39.399  13.028
81329W        W53589  14.978  21.543   1.453
81330W        W53590  21.800  25.943  14.919
81331W        W53591  33.820  23.642   1.402
81332W        W53592  41.324  13.762   2.821
81333W        W53593   8.671  39.833  13.874
81334W        W53594  34.742   0.932  10.940
81335W        W53595  16.041  10.283  10.772
81336W        W53596  29.280   5.602   4.268
81337W        W53597  31.319  17.540   4.147
81338W        W53598   7.942  28.701  10.652
81339W        W53599   1.216  26.203   3.732
81340W        W53600  22.534  22.501   4.616
81341W        W53601  43.887  43.384   2.963
81342W        W53602   7.673  44.870   4.575
81343W        W53603  21.913  28.103   0.485
81344W        W53604  18.545  33.324   0.762
81345W        W53605  18.723  34.140   1.509
81346W        W53606  33.702  43.312  10.630
81347W        W53607  27.971  16.188   4.577
81348W        W53608   7.272  20.491   2.340
81349W        W53609  30.910  38.267  12.554
81350W        W53610  27.169   8.236  11.528
81351W        W53611  21.770   1.308   1.893
81352W        W53612  30.460  40.675   3.846
81353W        W53613  21.811  11.664  13.363
81354W        W53614  30.056  31.011   2.964
81355W        W53615  33.956  10.796  14.309
81356W        W53616  36.950  14.045   0.398
81357W        W53617  13.323  23.061   2.232
81358W        W53618  27.710  43.531  14.596
81359W        W53619   5.766  36.619  14.848
81360W        W53620  26.633  33.859   5.056
81361W        W53621  10.975  39.825  13.687
81362W        W53622  44.927  41.007   4.007
81363W        W53623   6.619  15.117  13.989
81364W        W53624   4.322   4.231   4.563
81365W        W53625   3.091  36.006   4.610
81366W        W53626  32.528   5.741  14.995
81367W        W53627  27.456  10.295  12.059
81368W        W53628   9.219   5.267   1.754
81369W        W53629   2.900  30.425   4.080
81370W        W53630   0.860  44.594   0.916
81371W        W53631  11.591  24.998   3.582
81372W        W53632   3.292  22.600  12.063
81373W        W53633   5.655  21.810  13.833
81374W        W53634  28.440   0.391   2.513
81375W        W53635  43.809   5.183   4.569
81376W        W53636  37.856   0.170   4.593
81377W        W53637  15.816   7.958   4.234
81378W        W53638  14.643  31.162  14.872
81379W        W53639  15.228  13.635   5.075
81380W        W53640   9.877  36.062   0.819
81381W        W53641  30.976  25.669   4.802
81382W        W53642  25.101  13.690  10.670
81383W        W53643  35.504   0.343  13.276
81384W        W53644  36.824   0.899   0.319
81385W        W53645  18.748  16.629  13.963
81386W        W53646  20.970  27.879  11.185
81387W        W53647  12.899  34.570  12.904
81388W        W53648  39.485  38.075   0.851
81389W        W53649  15.408  27.248  11.069
81390W        W53650  44.777   8.638  12.177
81391W        W53651  14.275  41.981   2.810
81392W        W53652   4.298   0.444   3.826
81393W        W53653  18.097  42.915  11.651
81394W        W53654  32.918  16.663  13.970
81395W        W53655  10.156  25.347   4.026
81396W        W53656   6.430   4.457   1.031
81397W        W53657   3.888  21.846   4.296
81398W        W53658  18.586  13.325  14.724
81399W        W53659  26.464  34.553  10.642
81400W        W53660   5.846  26.633  12.325
81401W        W53661  26.629  39.851   3.654
81402W        W53662  38.794  38.387  14.029
81403W        W53663  20.914  22.660  13.412
81404W        W53664  32.182   8.734   0.704
81405W        W53665   1.350  10.167   0.531
81406W        W53666  26.189  12.675   4.438
81407W        W53667  15.442  17.369  11.090
81408W        W53668  39.439  39.266   1.280
81409W        W53669  28.664  26.103  13.401
81410W        W53670  40.773   5.342  10.941
81411W        W53671   6.538   1.978   3.310
81412W        W53672  44.325  24.572   4.812
81413W        W53673   7.162  32.828  11.501
81414W        W53674  20.643  25.715  14.647
81415W        W53675   4.079  33.850  12.853
81416W        W53676  14.281  18.329   4.812
81417W        W53677  37.905   0.339   1.784
81418W        W53678   1.003  38.833   4.537
81419W        W53679  40.355  29.717  10.548
81420W        W53680  35.627  27.521   4.526
81421W        W53681  31.669   2.761   2.385
81422W        W53682  39.542  31.507   2.850
81423W        W53683  33.135  17.793   2.260
81424W        W53684  25.673  41.603   3.730
81425W        W53685  27.016  25.284   4.981
81426W        W53686  40.930  41.570   2.699
81427W        W53687  11.750  24.231  11.197
81428W        W53688  16.869   8.094   2.625
81429W        W53689  10.555  17.711  12.971
81430W        W53690  12.763   5.794   3.909
81431W        W53691   1.742   7.814   4.108
81432W        W53692  20.631   1.804   1.452
81433W        W53693  43.668  20.459  11.129
81434W        W53694  20.634  37.287  14.993
81435W        W53695  19.581  31.001   2.410
81436W        W53696   7.803   8.287  11.261
81437W        W53697  37.093  42.400  14.345
81438W        W53698   3.029  34.783  12.148
81439W        W53699  13.817  12.875  14.812
81440W        W53700  31.358  41.378   0.895
81441W        W53701  25.779  25.742   0.355
81442W        W53702   8.814  21.775  12.814
81443W        W53703  24.412  30.030  11.028
81444W        W53704   2.912  13.560   4.411
81445W        W53705  36.275   3.914   0.325
81446W        W53706  16.562  20.762   1.694
81447W        W53707  39.954   8.112  11.469
81448W        W53708  41.367   2.957   2.329
81449W        W53709  11.641  39.774   3.902
81450W        W53710  22.049  37.887  12.495
81451W        W53711  23.477  31.739   3.211
81452W        W53712  30.641  20.772  11.106
81453W        W53713  21.993  21.405  14.344
81454W        W53714  15.338  14.505   1.410
81455W        W53715  11.962  42.333  13.071
81456W        W53716  41.100  13.858   3.781
81457W        W53717  32.490  25.534   2.527
81458W        W53718  37.524  34.887  12.584
81459W        W53719  35.597  35.422   1.692
81460W        W53720  12.073  38.496  11.969
81461W        W53721  13.080  17.235  11.557
81462W        W53722  11.178  23.827   0.734
81463W        W53723  29.606  44.221  11.432
81464W        W53724   0.767  41.894   0.391
81465W        W53725  23.000  29.616  12.890
81466W        W53726  25.630  36.470   3.648
81467W        W53727  18.986  16.373  11.662
81468W        W53728  39.014  11.017  12.041
81469W        W53729  44.508   0.269   4.533
81470W        W53730  15.301  34.627   1.357
81471W        W53731  30.955  20.781  13.873
81472W        W53732   4.977  31.710  11.499
81473W        W53733  42.742  34.375   4.578
81474W        W53734  40.016  11.074   0.997
81475W        W53735  44.846  33.758   4.109
81476W        W53736  25.761  43.230   3.376
81477W        W53737   2.478  15.780   4.355
81478W        W53738  28.744  10.719  10.359
81479W        W53739  28.889  42.389   1.232
81480W        W53740   8.167   9.320   0.459
81481W        W53741  43.293  11.865  13.359
81482W        W53742  15.708  11.229  14.570
81483W        W53743  43.297  14.098  13.475
81484W        W53744  14.305  10.921   0.295
81485W        W53745  43.824  17.760  11.977
81486W        W53746   9.756  38.037  11.451
81487W        W53747  10.657  22.287   3.306
81488W        W53748  27.447  40.578   3.763
81489W        W53749  15.591   6.339   2.915
81490W        W53750  30.568  28.369   2.298
81491W        W53751  16.063  15.179   3.536
81492W        W53752  35.833  13.249  11.944
81493W        W53753  13.321  41.684  14.963
81494W        W53754  30.640  40.358   0.803
81495W        W53755   7.108   5.336   4.048
81496W        W53756   0.933  39.106   0.407
81497W        W53757  14.630  37.402   4.114
81498W        W53758  32.758  25.030   4.049
81499W        W53759  40.662  14.249  14.000
81500W        W53760  16.575  35.933   4.130
81501W        W53761   3.393   9.405   1.876
81502W        W53762  35.124  33.944   1.540
81503W        W53763  23.738  42.458   1.336
81504W        W53764  39.949   8.847   2.705
81505W        W53765  20.673  41.336  13.081
81506W        W53766  29.686  27.140   2.098
81507W        W53767  34.097  24.869   2.194
81508W        W53768  10.126   1.071  11.200
81509W        W53769   7.769  25.884   4.083
81510W        W53770  21.493   3.615   3.759
81511W        W53771  14.707  12.688   1.464
81512W        W53772  33.569  42.100  13.853
81513W        W53773   6.696  27.039   3.409
81514W        W53774   1.667  36.088   4.092
81515W        W53775  15.123  39.457  13.521
81516W        W53776   4.747   1.418  10.085
81517W        W53777  27.755   4.372   2.853
81518W        W53778  21.220   0.263   1.306
81519W        W53779  30.610  26.985  10.491
81520W        W53780   5.244  14.921   3.435
81521W        W53781  19.069  16.764   0.843
81522W        W53782  27.501  30.020   1.040
81523W        W53783  22.920   0.433   1.705
81524W        W53784  40.270   7.623   2.961
81525W        W53785  28.595  20.052   2.696
81526W        W53786  18.531  38.375   3.385
81527W        W53787  19.747  16.042  14.423
81528W        W53788   2.905  19.175  12.237
81529W        W53789  23.125  16.027  12.959
81530W        W53790  35.042   8.648   4.250
81531W        W53791  44.290  17.468  10.645
81532W        W53792   2.270  12.689  13.858
81533W        W53793  36.047  40.413  12.497
81534W        W53794   3.943  14.208  11.271
81535W        W53795  13.196   8.290   1.036
81536W        W53796  43.299  16.171  14.430
81537W        W53797  17.742  29.900   3.317
81538W        W53798  38.929  31.807  10.660
81539W        W53799  23.769  22.722  12.059
81540W        W53800  19.836  27.153   3.669
81541W        W53801  22.760  44.866   3.548
81542W        W53802  18.110  41.368   3.271
81543W        W53803   9.218  11.235  10.544
81544W        W53804   5.155  11.656  11.580
81545W        W53805  44.906  36.695   3.145
81546W        W53806  42.901  23.347   3.709
81547W        W53807  33.791  26.235   2.185
81548W        W53808  24.016   5.133  11.722
81549W        W53809  11.317  30.479   2.367
81550W        W53810  28.044  11.363  13.819
81551W        W53811  24.553   2.942   4.272
81552W        W53812  11.921  41.126   1.773
81553W        W53813   1.241  23.296  14.494
81554W        W53814   6.371  40.820   2.194
81555W        W53815  13.885  11.132   2.281
81556W        W53816  33.582   2.448   0.524
81557W        W53817  31.015  18.796   2.725
81558W        W53818  14.838  40.920   1.829
81559W        W53819  14.655  19.952   0.319
81560W        W53820  13.754  32.587  10.749
81561W        W53821  38.358  33.429  11.550
81562W        W53822  12.328  39.802  11.568
81563W        W53823  39.237  29.738  13.888
81564W        W53824  41.402  29.401  12.419
81565W        W53825  22.676  14.170  14.823
81566W        W53826  14.567   1.293  10.723
81567W        W53827  24.761   7.110  11.829
81568W        W53828  37.548  15.161   1.894
81569W        W53829  16.295  20.825  14.078
81570W        W53830  27.723   7.208   1.776
81571W        W53831  36.905  35.073   0.875
81572W        W53832   3.465  41.837  14.804
81573W        W53833  30.353  18.728  12.841
81574W        W53834  31.854   2.780   0.926
81575W        W53835  27.496  37.065  11.241
81576W        W53836  24.993  10.078   4.938
81577W        W53837  40.617  22.247   0.660
81578W        W53838  33.797  24.876   2.906
81579W        W53839  25.577  15.781  13.842
81580W        W53840  17.013  40.648  14.331
81581W        W53841  44.862   0.231   2.304
81582W        W53842  17.995  18.902   2.588
81583W        W53843  43.357  26.751   0.497
81584W        W53844  17.648   4.160   1.261
81585W        W53845   1.765  34.405   1.377
81586W        W53846  13.346  26.083  13.429
81587W        W53847  25.446  13.661   0.428
81588W        W53848   0.463  33.642  13.488
81589W        W53849  30.345  22.927  11.102
81590W        W53850  44.252  29.225   4.127
81591W        W53851  27.672  19.365  13.852
81592W        W53852   9.268  28.223  14.981
81593W        W53853  11.168  31.202   0.241
81594W        W53854  39.086  42.263   1.222
81595W        W53855   3.260  26.179  14.995
81596W        W53856  10.814  38.011   2.695
81597W        W53857  20.580  15.132  13.927
81598W        W53858  10.720  40.053   1.247
81599W        W53859  29.109  29.098   3.215
81600W        W53860   3.209  20.201   0.863
81601W        W53861  17.153   3.400  10.643
81602W        W53862  38.295  19.830  11.058
81603W        W53863  42.744  42.247  11.506
81604W        W53864   7.710  19.239   0.135
81605W        W53865  15.848  27.797   0.370
81606W        W53866   9.694   6.494   0.031
81607W        W53867  18.734  38.687   0.898
81608W        W53868  18.397   9.850   2.863
81609W        W53869   9.137  43.251   3.334
81610W        W53870  42.332   8.351  10.629
81611W        W53871  33.564  41.803  13.416
81612W        W53872  13.456   7.328  12.916
81613W        W53873  30.432  18.974   0.683
81614W        W53874  35.066  40.351  11.498
81615W        W53875  12.740  38.830   0.284
81616W        W53876  21.084  29.201   3.230
81617W        W53877  25.551  30.567  11.582
81618W        W53878  13.314   9.125  14.448
81619W        W53879  17.701   6.581  14.442
81620W        W53880  28.236   3.822   0.724
81621W        W53881  35.633   3.991  10.744
81622W        W53882  34.572  21.565   4.102
81623W        W53883  35.650  44.752  10.692
81624W        W53884  11.239   9.593   2.389
81625W        W53885  22.592  24.783  10.149
81626W        W53886  33.184  33.621   2.384
81627W        W53887  28.560  11.613   0.558
81628W        W53888  19.246  39.463  14.743
81629W        W53889  31.092  39.587   0.208
81630W        W53890  26.916  33.560  10.687
81631W        W53891  24.044  15.060  11.139
81632W        W53892  29.088   6.401   4.423
81633W        W53893  12.207  40.837   4.067
81634W        W53894   8.569  24.513   4.694
81635W        W53895   5.157   7.733   2.519
81636W        W53896  38.767  27.599  12.013
81637W        W53897  42.306  44.956   2.763
81638W        W53898   7.366  20.314  11.130
81639W        W53899  22.117  44.995  12.336
81640W        W53900  43.100  23.926  14.234
81641W        W53901   7.064   0.334   3.272
81642W        W53902  10.120  26.544   0.762
81643W        W53903  30.157  19.785  10.942
81644W        W53904  33.614  40.331  12.466
81645W        W53905  20.671  18.647  10.869
81646W        W53906  37.300  36.036   3.281
81647W        W53907  34.797   7.514   0.386
81648W        W53908  13.797  34.970   4.907
81649W        W53909  33.045   2.943  12.933
81650W        W53910   9.434   0.680  12.589
81651W        W53911   5.878  11.208   4.673
81652W        W53912   6.352  16.111  10.430
81653W        W53913  17.801  20.678   2.807
81654W        W53914   3.499  28.425  11.013
81655W        W53915  30.380  32.615   5.498
81656W        W53916   6.738  34.414   2.384
81657W        W53917  42.028  39.493  13.934
81658W        W53918  17.797  23.224   4.961
81659W        W53919  28.675  17.390  11.144
81660W        W53920  31.754  28.741   2.262
81661W        W53921  19.068  42.897  12.111
81662W        W53922  43.378   4.320  11.110
81663W        W53923   6.320  32.578   0.836
81664W        W53924   5.612  20.039  14.966
81665W        W53925  24.300   6.394  12.545
81666W        W53926   2.599   4.152   0.289
81667W        W53927  34.367   7.869   3.700
81668W        W53928  39.492  31.048  10.863
81669W        W53929  10.211  42.990  12.493
81670W        W53930   0.263  36.814  13.033
81671W        W53931   4.064  19.564   2.300
81672W        W53932  36.500  18.158   4.988
81673W        W53933  35.059  26.594   2.608
81674W        W53934  41.981  17.345  10.209
81675W        W53935  38.396  43.805   0.737
81676W        W53936  28.920  35.506   0.812
81677W        W53937  32.427  21.077   3.760
81678W        W53938  30.077   4.339   0.013
81679W        W53939  39.283  26.874  10.750
81680W        W53940  14.770  10.892   1.690
81681W        W53941  27.917  18.106  14.096
81682W        W53942  24.978  36.551  12.884
81683W        W53943   5.940  20.272   1.349
81684W        W53944  42.917  13.178   2.405
81685W        W53945  37.538  16.786   1.748
81686W        W53946  14.723  21.707  11.142
81687W        W53947  21.017  29.871   2.137
81688W        W53948  43.298  29.977   0.978
81689W        W53949  27.527  31.663  12.939
81690W        W53950  26.047  27.954   1.661
81691W        W53951   9.774  26.294  13.708
81692W        W53952   9.386  21.365  13.451
81693W        W53953  23.593  20.233   3.652
81694W        W53954  14.545  36.318   3.188
81695W        W53955  31.955  16.318   1.696
81696W        W53956  17.044  38.230   1.146
81697W        W53957  14.813  15.179  12.489
81698W        W53958  42.342  20.880   2.333
81699W        W53959  42.689  31.582  10.346
81700W        W53960  33.156   9.685  13.905
81701W        W53961  18.169  28.010  12.917
81702W        W53962  25.221  25.705  11.133
81703W        W53963  12.254  17.873  14.311
81704W        W53964  34.580   3.885   1.303
81705W        W53965  33.167  17.822   0.514
81706W        W53966  31.438  36.627  11.001
81707W        W53967  18.121  29.291   0.067
81708W        W53968   0.166  36.119   4.163
81709W        W53969  35.578  27.483  14.844
81710W        W53970  36.869   2.151  14.673
81711W        W53971  24.047  25.387   1.397
81712W        W53972  34.865   0.431  12.041
81713W        W53973  23.637  44.753  11.148
81714W        W53974   1.835  24.839  10.584
81715W        W53975  30.242   3.512   4.893
81716W        W53976  34.289   7.621  11.975
81717W        W53977  20.875  19.218  12.510
81718W        W53978  34.726  44.293  10.616
81719W        W53979  28.662  41.447  14.894
81720W        W53980  32.357  22.518  13.339
81721W        W53981   2.231  10.735  14.487
81722W        W53982  37.098  35.378  13.578
81723W        W53983  32.339  34.344  12.111
81724W        W53984   9.329  20.992   4.671
81725W        W53985  42.763   5.989   2.687
81726W        W53986  12.369  36.127  13.754
81727W        W53987  28.069   6.220  10.562
81728W        W53988  12.541   3.290  13.872
81729W        W53989   9.665  23.727   0.468
81730W        W53990  21.563  40.811   2.771
81731W        W53991  37.240   7.196  11.991
81732W        W53992  15.804  20.519   0.841
81733W        W53993  42.353  14.831  14.008
81734W        W53994  23.792  35.824   5.158
81735W        W53995   3.200  44.258  13.597
81736W        W53996  16.684  19.316   4.590
81737W        W53997  39.498  32.792   4.140
81738W        W53998  17.660  25.315   3.110
81739W        W53999  34.982   6.902  12.957
81740W        W54000   8.722   9.150  12.229
81741W        W54001  14.187  31.408   3.032
81742W        W54002  32.415  33.557   0.831
81743W        W54003  28.894  30.342   0.965
81744W        W54004  24.652  44.477   4.077
81745W        W54005  18.638  34.350  14.836
81746W        W54006   3.248   6.378  10.498
81747W        W54007  24.142  28.835  12.441
81748W        W54008   8.403  23.625   3.559
81749W        W54009  43.732  31.726   3.767
81750W        W54010  23.105  12.364   3.659
81751W        W54011  23.696  40.843   3.756
81752W        W54012   4.462   8.904   0.294
81753W        W54013  19.617  17.820  10.701
81754W        W54014  25.653  34.418  13.805
81755W        W54015  12.005  44.832   4.198
81756W        W54016  42.853  26.252  14.802
81757W        W54017   3.796  35.548  11.588
81758W        W54018   7.237  17.577  10.742
81759W        W54019  39.065  19.547  13.360
81760W        W54020  17.146   8.005  10.710
81761W        W54021  22.134  28.508  13.824
81762W        W54022  35.015  31.728   4.960
81763W        W54023  19.618   6.714   1.199
81764W        W54024  30.899  11.729  11.722
81765W        W54025  26.023  44.553  12.942
81766W        W54026  23.759  32.137   4.052
81767W        W54027  10.891  29.618  12.840
81768W        W54028  29.671  25.508   1.354
81769W        W54029  26.013  13.352  14.085
81770W        W54030  29.565  13.554   0.680
81771W        W54031  29.542  23.930   1.009
81772W        W54032   9.789  13.900   2.629
81773W        W54033   1.726  25.967   0.951
81774W        W54034  35.352  37.542  11.543
81775W        W54035  22.240  33.062   2.687
81776W        W54036  10.653  22.508  10.144
81777W        W54037  15.850  22.697   4.702
81778W        W54038  20.491  16.719   0.706
81779W        W54039   6.879  39.477  13.616
81780W        W54040  30.006  27.420  12.027
81781W        W54041  11.641  12.309   1.910
81782W        W54042  28.707  34.082   4.022
81783W        W54043  16.027  42.654   3.868
81784W        W54044  25.001  11.335   0.221
81785W        W54045  25.666  43.681  11.885
81786W        W54046  13.310   7.847   0.289
81787W        W54047  35.665  17.780  13.449
81788W        W54048   2.506  22.622  12.886
81789W        W54049   7.272  36.314   3.215
81790W        W54050  19.337   6.524   0.760
81791W        W54051  11.333  25.567  10.633
81792W        W54052  22.553  38.002  11.534
81793W        W54053  24.621  31.620   4.293
81794W        W54054  14.954  14.854   1.717
81795W        W54055  28.396  13.842  11.482
81796W        W54056   4.613  12.749   4.087
81797W        W54057  17.072  19.998  11.961
81798W        W54058   6.179  42.346   1.163
81799W        W54059  33.136  13.586   0.430
81800W        W54060  21.813   6.744  12.036
81801W        W54061  44.590   1.115   5.081
81802W        W54062  33.088   5.431   4.879
81803W        W54063   9.327  37.357   0.428
81804W        W54064  13.482  16.747   1.951
81805W        W54065   6.155  16.965  13.512
81806W        W54066   6.888  13.663  12.135
81807W        W54067  26.555  44.466  10.633
81808W        W54068  17.857   2.219   2.353
81809W        W54069  24.185  32.161   3.729
81810W        W54070  30.159  41.896  14.281
81811W        W54071  18.817   6.758  11.873
81812W        W54072  28.959  36.688  13.237
81813W        W54073  12.818  38.369   0.024
81814W        W54074  37.122  11.344   4.922
81815W        W54075  41.018  39.889   4.782
81816W        W54076  10.898   4.846  13.854
81817W        W54077  29.673  36.544  14.787
81818W        W54078  14.882  44.336  13.010
81819W        W54079  10.281  14.099   1.479
81820W        W54080   3.340  33.049  10.830
81821W        W54081   0.285  14.683  12.090
81822W        W54082  44.266  44.417   1.319
81823W        W54083  21.971  42.997   0.225
81824W        W54084  11.418  19.499   4.713
81825W        W54085   4.880  24.843   0.613
81826W        W54086  12.090  25.894  12.083
81827W        W54087   6.228  30.196  12.370
81828W        W54088  29.242  37.836   1.021
81829W        W54089  29.456  27.913   0.986
81830W        W54090  20.990  35.722  13.442
81831W        W54091  39.265   8.595  11.003
81832W        W54092  43.287  33.356  13.457
81833W        W54093   9.426  39.987  14.998
81834W        W54094  31.984  17.296  11.939
81835W        W54095  35.334  40.463   4.073
81836W        W54096  20.543   7.301   1.886
81837W        W54097  44.012  11.258   1.104
81838W        W54098  15.558   3.194  12.479
81839W        W54099  25.548  12.675   0.742
81840W        W54100  33.100  22.676   4.177
81841W        W54101  14.857  25.021   2.807
81842W        W54102  24.173  24.696   3.749
81843W        W54103  39.455  44.413  12.418
81844W        W54104  31.521  16.419   4.796
81845W        W54105  38.114  22.285   4.550
81846W        W54106  15.069  44.982   3.164
81847W        W54107   8.149  36.404   0.913
81848W        W54108  42.017  11.219  13.360
81849W        W54109  13.645  38.007   4.378
81850W        W54110  15.317  21.254   3.638
81851W        W54111  23.283  36.630   4.212
81852W        W54112  12.098  18.752  13.379
81853W        W54113   7.212   2.707   4.173
81854W        W54114  44.501  34.930   4.562
81855W        W54115  38.816  33.094   3.864
81856W        W54116   7.706   6.783  13.636
81857W        W54117   3.925  43.956   4.276
81858W        W54118   3.804   2.874  12.056
81859W        W54119  18.696  31.968   3.373
81860W        W54120  40.819  12.461  11.058
81861W        W54121   5.436   6.465  14.395
81862W        W54122  20.765   3.382  10.632
81863W        W54123   7.428  18.604   1.520
81864W        W54124  37.880  36.890   3.563
81865W        W54125  33.795  37.041   1.879
81866W        W54126  14.253  35.126  10.726
81867W        W54127  13.649  16.342   0.387
81868W        W54128   8.374  22.804  10.733
81869W        W54129  18.549   3.351   2.643
81870W        W54130   4.794   9.087   2.661
81871W        W54131  26.542  23.386   4.570
81872W        W54132  36.907  28.823   3.643
81873W        W54133  39.736  14.190   1.273
81874W        W54134  24.518  38.743  14.798
81875W        W54135  25.277   9.702   2.107
81876W        W54136  34.347  20.350   0.632
81877W        W54137  25.844   0.609  13.900
81878W        W54138  30.139  22.032   0.464
81879W        W54139  22.530   0.770  12.437
81880W        W54140  43.249  21.574   0.220
81881W        W54141   7.454  36.433   3.691
81882W        W54142   3.286  38.712   0.416
81883W        W54143   7.794  35.166   3.604
81884W        W54144   2.973  35.513   3.736
81885W        W54145  36.162  24.643  11.828
81886W        W54146  42.762   2.773   3.781
81887W        W54147  16.006  19.579  14.301
81888W        W54148  42.778   4.741  12.930
81889W        W54149  22.625  31.514  12.015
81890W        W54150  10.813  31.039   2.880
81891W        W54151  32.976  16.889   1.889
81892W        W54152   0.629  12.417  14.876
81893W        W54153  24.499  35.124   2.353
81894W        W54154  16.155   0.173  13.792
81895W        W54155  14.871  43.904   0.814
81896W        W54156  15.515  44.974  13.270
81897W        W54157  17.663  23.957  14.426
81898W        W54158   8.881  37.501   2.901
81899W        W54159  20.701  25.300   4.090
81900W        W54160   1.643  10.999  14.909
81901W        W54161  42.993  12.259  13.517
81902W        W54162  17.014  41.905  14.549
81903W        W54163  19.213   9.049   0.275
81904W        W54164  36.792  34.581   0.715
81905W        W54165  15.319  13.337   3.596
81906W        W54166  13.882  32.168  13.803
81907W        W54167   6.940   4.872  12.568
81908W        W54168  13.188  23.702  11.193
81909W        W54169  39.562  26.692  12.826
81910W        W54170  30.673   1.924   4.646
81911W        W54171  27.959  35.482  10.686
81912W        W54172  40.247  21.365   3.751
81913W        W54173  30.212  22.044  13.091
81914W        W54174  26.123  34.902   0.572
81915W        W54175  36.665   8.128   3.713
81916W        W54176   6.931  19.104  12.627
81917W        W54177  26.908  18.971  14.329
81918W        W54178  17.765  13.213  10.720
81919W        W54179  11.922  32.563  11.211
81920W        W54180  25.660  22.890  12.440
81921W        W54181  40.608  34.809   0.471
81922W        W54182  36.863  44.558  12.800
81923W        W54183  35.246  31.852   5.412
81924W        W54184   7.852  29.175  12.741
81925W        W54185  16.178  38.930   4.568
81926W        W54186  23.650  23.599  14.363
81927W        W54187  37.854  40.512   1.829
81928W        W54188   3.345  32.992   1.499
81929W        W54189   3.970  34.088   4.106
81930W        W54190  29.993  44.603  14.891
81931W        W54191  25.513  41.074   1.446
81932W        W54192  16.626  33.712   4.862
81933W        W54193  27.178  25.112   4.523
81934W        W54194  30.396   4.202   3.236
81935W        W54195  33.713  38.080   3.972
81936W        W54196  42.402  33.338  10.714
81937W        W54197  12.683  13.162  12.095
81938W        W54198  36.433  32.418  11.219
81939W        W54199   1.799  41.717   0.802
81940W        W54200  43.827   9.423   0.320
81941W        W54201  32.592  29.366  11.184
81942W        W54202  36.465  13.327  12.034
81943W        W54203  38.050  17.585  11.114
81944W        W54204  25.088  15.557  13.936
81945W        W54205  44.733   8.094  12.100
81946W        W54206  19.943  29.619   0.625
81947W        W54207  12.267  16.576   2.232
81948W        W54208  23.777  39.751  12.871
81949W        W54209   4.679   1.324   2.871
81950W        W54210   7.204  22.197   3.841
81951W        W54211   9.111  16.544   1.720
81952W        W54212   8.230   7.237  10.945
81953W        W54213  25.522  25.445   0.761
81954W        W54214  34.643   8.602  13.604
81955W        W54215  44.726  27.829  11.474
81956W        W54216   0.088   4.910   1.422
81957W        W54217  15.026  13.570  11.158
81958W        W54218   3.901  34.019   0.572
81959W        W54219  38.590  15.230  10.625
81960W        W54220  17.288   0.951  13.017
81961W        W54221   8.405  20.536  13.038
81962W        W54222  22.985  16.959   9.996
81963W        W54223  18.867  25.444  11.384
81964W        W54224  26.609  29.609   2.698
81965W        W54225  30.353   6.347   3.422
81966W        W54226   7.166  16.520   1.934
81967W        W54227  18.591  27.710   0.244
81968W        W54228  29.898  35.525  14.100
81969W        W54229  32.570  29.581  12.994
81970W        W54230  23.517  26.715   4.542
81971W        W54231  23.793  15.365   4.733
81972W        W54232  17.663  38.069  12.947
81973W        W54233  21.578  42.691   4.533
81974W        W54234  23.261  15.069  11.324
81975W        W54235  20.802  41.606  14.453
81976W        W54236  32.836  40.885   0.777
81977W        W54237  32.872   3.264  11.655
81978W        W54238  13.625   6.346   1.895
81979W        W54239  39.808  40.959   2.257
81980W        W54240   7.059  22.129   2.937
81981W        W54241  24.658   5.566  11.199
81982W        W54242   5.906   0.242   0.174
81983W        W54243  19.630  23.246   2.417
81984W        W54244  32.793  26.076   4.159
81985W        W54245  30.196   6.640  14.556
81986W        W54246  29.660  20.057   0.411
81987W        W54247   1.457   1.507  14.456
81988W        W54248  22.738   2.353   1.249
81989W        W54249   1.657   3.387   3.290
81990W        W54250  15.388   5.260   1.259
81991W        W54251  40.290  39.250  14.360
81992W        W54252  12.144   9.706  11.981
81993W        W54253  22.516  34.663  13.899
81994W        W54254  16.812   9.138   0.998
81995W        W54255  21.249  35.092   0.795
81996W        W54256  18.303  36.823  13.691
81997W        W54257  24.655  38.489   1.050
81998W        W54258  11.627  27.868   3.085
81999W        W54259  11.840  31.472   3.666
82000W        W54260  35.980  43.580  10.644
82001W        W54261  16.730  21.555  14.889
82002W        W54262   4.180  31.854  13.177
82003W        W54263  37.395  41.276   1.973
82004W        W54264  21.667   9.840   0.387
82005W        W54265  32.862  29.563   3.755
82006W        W54266  40.373  18.158   4.574
82007W        W54267   6.868  20.855   3.799
82008W        W54268  13.321  34.422   1.893
82009W        W54269   3.191  30.970   3.251
82010W        W54270  34.816  29.683   4.739
82011W        W54271  23.339   7.195   4.887
82012W        W54272  42.358  25.419   1.650
82013W        W54273   7.283  15.073   0.013
82014W        W54274  18.261  21.089   2.313
82015W        W54275  21.239  14.312   2.858
82016W        W54276  33.614  16.303   3.296
82017W        W54277  35.628  21.009  14.829
82018W        W54278   5.245   1.297   1.724
82019W        W54279  41.452  18.489  13.807
82020W        W54280   5.079  11.591  10.192
82021W        W54281  34.810  19.581  13.577
82022W        W54282   1.377   1.576   0.328
82023W        W54283  19.703   8.198  11.259
82024W        W54284  17.167   5.485   1.348
82025W        W54285  11.165  40.472  12.538
82026W        W54286  40.864  13.059  13.718
82027W        W54287  13.216   0.005  12.125
82028W        W54288  19.321  26.956  13.814
82029W        W54289  19.141   3.943   1.432
82030W        W54290  31.096  40.169   0.359
82031W        W54291  43.578  26.071  11.933
82032W        W54292  20.465  33.416  14.864
82033W        W54293  20.510   1.268   1.712
82034W        W54294  41.016  27.605  12.577
82035W        W54295  24.925  30.208  14.862
82036W        W54296  12.800  39.397  12.387
82037W        W54297  26.434  14.799   0.460
82038W        W54298   9.728  13.233   1.335
82039W        W54299  22.650  18.102   2.610
82040W        W54300  42.858  19.024  11.673
82041W        W54301  40.432  31.013  14.286
82042W        W54302   3.487  34.928  11.079
82043W        W54303  26.937   9.946  11.679
82044W        W54304  27.045  10.265   2.389
82045W        W54305  37.252  15.683  12.398
82046W        W54306  24.542  14.019   1.916
82047W        W54307  29.188  42.894  10.661
82048W        W54308  35.599  18.151   5.057
82049W        W54309   2.754   1.986   1.861
82050W        W54310  25.511   2.243   0.552
82051W        W54311  24.389   6.339   0.663
82052W        W54312  33.217  38.517  11.973
82053W        W54313  18.532  37.530  14.340
82054W        W54314  11.165   7.309   1.003
82055W        W54315  14.641  22.225  13.939
82056W        W54316  44.480  35.491   1.388
82057W        W54317  36.390  16.653   1.219
82058W        W54318  21.971  15.680  11.784
82059W        W54319  18.715  44.052   2.044
82060W        W54320   1.210  34.993  13.253
82061W        W54321  20.297   8.600   4.760
82062W        W54322  37.180  35.116  13.127
82063W        W54323  11.174  11.396  11.609
82064W        W54324  43.027   4.799   3.354
82065W        W54325   6.203   0.476   3.784
82066W        W54326  26.209  33.574  11.579
82067W        W54327  20.628  36.934   0.382
82068W        W54328  44.458  16.103  10.602
82069W        W54329  11.297   5.836   2.900
82070W        W54330  16.752  38.911   1.858
82071W        W54331  40.533  43.236   1.670
82072W        W54332  22.565  19.528  10.970
82073W        W54333  20.490  39.725   0.406
82074W        W54334   6.229  18.767  14.338
82075W        W54335  15.197   6.235   1.438
82076W        W54336  31.956  19.096   3.286
82077W        W54337   4.513   4.972   4.048
82078W        W54338  12.129  22.564  11.531
82079W        W54339   2.169  38.291  11.482
82080W        W54340  34.389  14.697   0.547
82081W        W54341  26.177  42.797   2.716
82082W        W54342  23.520   2.194  13.788
82083W        W54343  39.149  22.198  10.708
82084W        W54344  41.558  19.224   4.803
82085W        W54345   7.382   6.405  14.595
82086W        W54346  41.844  20.440   2.991
82087W        W54347  23.117  38.855   1.333
82088W        W54348  32.515  17.145   4.049
82089W        W54349   0.001   8.744   0.749
82090W        W54350  16.274   2.681   2.775
82091W        W54351  43.678  15.349  10.417
82092W        W54352   5.189  11.084   1.364
82093W        W54353  37.424  23.926   0.791
82094W        W54354  35.304  43.148  11.479
82095W        W54355   5.086  32.834  12.099
82096W        W54356  11.173  22.090  12.803
82097W        W54357  40.945   3.875  14.358
82098W        W54358  27.884  38.428  11.676
82099W        W54359   6.206  10.933   4.083
82100W        W54360   6.309  15.879  14.359
82101W        W54361   8.270  31.360   4.175
82102W        W54362   2.896  11.577   2.709
82103W        W54363  40.326  26.584   5.073
82104W        W54364  16.886  28.395   4.067
82105W        W54365  16.500   6.938  14.325
82106W        W54366   0.302  31.676   1.280
82107W        W54367  39.201  12.540  13.460
82108W        W54368  28.373  39.795  14.887
82109W        W54369  13.294  42.959  14.594
82110W        W54370   5.432   6.905   2.616
82111W        W54371  28.012  14.702  11.669
82112W        W54372   2.710  42.114   0.832
82113W        W54373  40.875  32.515  14.012
82114W        W54374  15.227  15.793  10.214
82115W        W54375  38.758  19.572  12.323
82116W        W54376  20.062   9.059   4.635
82117W        W54377  30.626  44.375  12.999
82118W        W54378  26.508  10.264  11.642
82119W        W54379  35.398  42.757  10.684
82120W        W54380  24.452  12.605   1.863
82121W        W54381  23.591  37.340   2.626
82122W        W54382  13.092   3.114   3.227
82123W        W54383  34.146   4.928   1.775
82124W        W54384   0.600  28.162   4.876
82125W        W54385  34.142  22.170  12.468
82126W        W54386  41.935  43.451   0.871
82127W        W54387  37.295   5.547  13.295
82128W        W54388  43.778   3.573   0.619
82129W        W54389  35.283   0.955   4.411
82130W        W54390  35.939  32.521  14.681
82131W        W54391   9.913  22.683   0.305
82132W        W54392  20.312  39.203   5.071
82133W        W54393  41.232  29.225  14.514
82134W        W54394  28.719  19.060   1.190
82135W        W54395  24.010  22.013  14.828
82136W        W54396  31.323   2.237  10.723
82137W        W54397  12.693  32.711  12.956
82138W        W54398  29.656  29.127   3.713
82139W        W54399  34.877   3.738   3.222
82140W        W54400  20.229  44.800  13.502
82141W        W54401  31.851   7.476  14.469
82142W        W54402   1.169   6.137   1.354
82143W        W54403   8.852  23.947   1.472
82144W        W54404  19.160  34.552   3.009
82145W        W54405  43.266  43.692   4.120
82146W        W54406  25.656  42.101   4.587
82147W        W54407  40.411  32.414   0.359
82148W        W54408  27.999   0.576   2.753
82149W        W54409  36.364   3.192   0.931
82150W        W54410  44.594  26.073  13.620
82151W        W54411   1.292   7.932  13.848
82152W        W54412  11.809  23.501  13.363
82153W        W54413  27.032   0.272   0.297
82154W        W54414  18.061   8.018  13.768
82155W        W54415  40.399  35.390  14.576
82156W        W54416  31.863  27.581   0.276
82157W        W54417  10.639  37.122  11.014
82158W        W54418  39.883  14.423   4.694
82159W        W54419  36.195   7.715   2.332
82160W        W54420  18.616  11.942  14.376
82161W        W54421  13.432   4.966   1.491
82162W        W54422  14.543   7.465   3.711
82163W        W54423  25.664  37.850   4.776
82164W        W54424  32.387  35.152  10.691
82165W        W54425  22.987   2.766   4.163
82166W        W54426  21.959  26.779   1.760
82167W        W54427  35.484  10.730   0.894
82168W        W54428  25.609  27.934  13.667
82169W        W54429  35.464   2.315  10.737
82170W        W54430  42.452   2.308   2.786
82171W        W54431   1.222  22.692  10.420
82172W        W54432  13.728  42.372  13.007
82173W        W54433  32.715  26.998   2.771
82174W        W54434  37.554  34.398   4.397
82175W        W54435  10.905   9.242   0.798
82176W        W54436   2.000   0.164   4.572
82177W        W54437  28.437  10.107  14.050
82178W        W54438  31.934  21.754   4.113
82179W        W54439  42.439   3.399   1.228
82180W        W54440  31.182  34.916  13.385
82181W        W54441   6.151  33.124  10.393
82182W        W54442  13.797   5.698   2.748
82183W        W54443  18.027  41.513  13.759
82184W        W54444  28.059  30.101   2.715
82185W        W54445  35.879  37.991   4.401
82186W        W54446  41.518  27.178   1.914
82187W        W54447  44.771  16.171  12.559
82188W        W54448  25.442  33.848  10.618
82189W        W54449   3.353   4.209   3.675
82190W        W54450  18.117  34.297   0.009
82191W        W54451  25.730  38.998  14.272
82192W        W54452  37.357  43.723   3.113
82193W        W54453  29.875  43.189  12.498
82194W        W54454  15.067  12.799  14.289
82195W        W54455  17.828  34.534  11.030
82196W        W54456  42.061   1.162  10.714
82197W        W54457  36.519   0.333  10.733
82198W        W54458  19.873  43.975   0.361
82199W        W54459   4.362   9.856  12.801
82200W        W54460   7.275  22.173  11.112
82201W        W54461  22.414   8.841   3.703
82202W        W54462  34.313  15.722  12.326
82203W        W54463  24.269   5.330  14.393
82204W        W54464   6.942   2.845  12.517
82205W        W54465  42.978  26.514   0.223
82206W        W54466  42.881  11.706  11.808
82207W        W54467   3.516  28.685   1.465
82208W        W54468  21.958   8.785   4.194
82209W        W54469  10.160   8.864  14.221
82210W        W54470  40.537   6.808   4.293
82211W        W54471  24.475  11.213   3.124
82212W        W54472  19.665  19.673  10.353
82213W        W54473  24.312   6.683  12.980
82214W        W54474   9.334   9.264  14.029
82215W        W54475  44.976  17.790   0.006
82216W        W54476  39.334  24.374  10.703
82217W        W54477  23.463   3.966  13.303
82218W        W54478  17.110  18.592   0.590
82219W        W54479  31.155  43.974   0.783
82220W        W54480   7.675  39.772  12.921
82221W        W54481   9.231   4.312  13.889
82222W        W54482  43.294  32.013   3.755
82223W        W54483   7.795  42.968  14.326
82224W        W54484  29.977  39.818   1.702
82225W        W54485  19.311  36.580  14.827
82226W        W54486  39.365  27.676   1.401
82227W        W54487  35.067  28.618  12.042
82228W        W54488  35.843  18.214   4.622
82229W        W54489  39.395  44.537   3.290
82230W        W54490  30.576  32.003  13.458
82231W        W54491  32.863  43.070  10.256
82232W        W54492   7.361  12.400  13.381
82233W        W54493  20.242   2.530   2.828
82234W        W54494  44.369  42.453   4.240
82235W        W54495  16.221  14.813   0.392
82236W        W54496   1.887   9.637  13.356
82237W        W54497  43.299  41.820   3.802
82238W        W54498  14.536  13.531  11.344
82239W        W54499   1.251   0.234  14.967
82240W        W54500  18.231  18.068   4.877
82241W        W54501  43.971  33.829   0.845
82242W        W54502  30.334  17.831  12.789
82243W        W54503   7.962   1.836   2.732
82244W        W54504  13.673  22.375  14.877
82245W        W54505  21.557  23.602   1.202
82246W        W54506  10.589  27.571  13.106
82247W        W54507   3.473  26.691  11.225
82248W        W54508  12.188  25.633  11.617
82249W        W54509   4.863  39.748  11.578
82250W        W54510  33.509  33.007  12.065
82251W        W54511  11.326  27.086  13.636
82252W        W54512  12.832  12.395  13.879
82253W        W54513  19.987  40.556   0.152
82254W        W54514  11.058   4.916  11.975
82255W        W54515   3.975  25.021   2.089
82256W        W54516  39.237  24.711  13.406
82257W        W54517  24.730  33.959   3.688
82258W        W54518  21.650  32.000  14.337
82259W        W54519  21.780  25.662   4.915
82260W        W54520  31.018  20.553   0.886
82261W        W54521  42.125  18.638   4.370
82262W        W54522  16.650  42.173   0.832
82263W        W54523  15.087  27.244   1.853
82264W        W54524  12.068   6.709   4.160
82265W        W54525  15.146  38.130   4.063
82266W        W54526   6.479   2.292  11.161
82267W        W54527  39.878  27.907  13.221
82268W        W54528  33.927  42.839  10.713
82269W        W54529   5.257  26.438   0.343
82270W        W54530  36.350  19.758  11.000
82271W        W54531  38.041  10.238  12.501
82272W        W54532   3.189  37.804  14.970
82273W        W54533  29.939  18.357   0.084
82274W        W54534  22.745   1.762   0.671
82275W        W54535  16.760  43.575   3.227
82276W        W54536   5.992  16.640  13.125
82277W        W54537  29.174  23.931   4.140
82278W        W54538  34.481   0.539   1.752
82279W        W54539  35.306  44.427  12.018
82280W        W54540  19.510  18.564  11.648
82281W        W54541  37.904   8.869  10.609
82282W        W54542   3.210  36.229  14.960
82283W        W54543  36.996   8.901  10.639
82284W        W54544  30.112  24.785  14.498
82285W        W54545  29.875  27.593   2.300
82286W        W54546   9.697   4.631  12.549
82287W        W54547   8.417  41.484  14.881
82288W        W54548   7.907  16.327  14.932
82289W        W54549  11.775   7.121   1.641
82290W        W54550  16.424  14.923   3.211
82291W        W54551  26.550  28.712  10.716
82292W        W54552  36.957  41.049   3.450
82293W        W54553   6.439  41.334   4.597
82294W        W54554   4.346  39.472   3.890
82295W        W54555  35.582  11.171  14.947
82296W        W54556  30.047  28.522  14.990
82297W        W54557  29.462  19.754   1.739
82298W        W54558   2.405  27.031   4.428
82299W        W54559  40.902  29.968   2.099
82300W        W54560  30.883  14.379   1.779
82301W        W54561  26.459  38.434   3.443
82302W        W54562  22.252  31.925  10.806
82303W        W54563  39.931   7.477   3.769
82304W        W54564  11.001   8.266   0.941
82305W        W54565   3.880  25.667  10.462
82306W        W54566  22.734  44.946   0.485
82307W        W54567  18.559  10.584  10.734
82308W        W54568  22.627  20.370   1.208
82309W        W54569  22.787  30.966  10.236
82310W        W54570  24.116   6.482   2.296
82311W        W54571  25.715  10.835   4.899
82312W        W54572  20.466  32.014  13.804
82313W        W54573  32.564  22.324   4.065
82314W        W54574  40.876  18.717  13.503
82315W        W54575  42.339  11.546   0.385
82316W        W54576   9.140   0.807   3.255
82317W        W54577  23.533  24.726   1.111
82318W        W54578  23.288  41.033  13.345
82319W        W54579  42.475   5.856   3.619
82320W        W54580   3.830  19.548  14.862
82321W        W54581  28.610  42.146  14.349
82322W        W54582  12.036  29.159  10.956
82323W        W54583  41.508  20.837  14.501
82324W        W54584  12.806  31.031  12.604
82325W        W54585  29.346   8.325   2.856
82326W        W54586  38.092  30.833  12.574
82327W        W54587   5.948   7.526  14.903
82328W        W54588  44.402  18.258  11.529
82329W        W54589   5.326   9.748   3.696
82330W        W54590  21.382  22.096  13.041
82331W        W54591   5.743  23.227  13.952
82332W        W54592  33.372  26.435  10.135
82333W        W54593  16.012  42.575  12.425
82334W        W54594  10.518  28.887  10.279
82335W        W54595  43.802  14.186   4.349
82336W        W54596  29.427  17.211  14.711
82337W        W54597  10.638   1.720   1.733
82338W        W54598  13.959  15.228   2.754
82339W        W54599  40.470  28.290   4.412
82340W        W54600  29.685  39.265  13.292
82341W        W54601   5.979  35.819   4.820
82342W        W54602  28.581  32.589  14.503
82343W        W54603  25.144  30.109   1.672
82344W        W54604  33.102   7.189  12.644
82345W        W54605  12.827  16.171   4.331
82346W        W54606   3.986  38.668   0.979
82347W        W54607  32.973  33.622  10.541
82348W        W54608  19.302   0.448  14.351
82349W        W54609  11.566  25.448  14.860
82350W        W54610  36.962   1.788  14.316
82351W        W54611  12.852   7.292  13.412
82352W        W54612  44.533  20.849  14.294
82353W        W54613  29.678  30.571  13.970
82354W        W54614   3.782  37.952  12.943
82355W        W54615  20.744  17.322  13.977
82356W        W54616  42.088  27.623  12.869
82357W        W54617  17.212  32.916  12.636
82358W        W54618  20.372  31.416   2.880
82359W        W54619  43.493   3.890   4.618
82360W        W54620  18.077  43.954  10.738
82361W        W54621   0.031  41.380   4.360
82362W        W54622  33.862  15.761  14.041
82363W        W54623   4.390  31.633  12.543
82364W        W54624  26.973  24.028   2.282
82365W        W54625   1.171   3.282  11.158
82366W        W54626   7.876   4.204  14.047
82367W        W54627  27.550  11.847   4.606
82368W        W54628  22.640  17.566  10.494
82369W        W54629   9.597   2.491  10.597
82370W        W54630   4.253  16.290   2.870
82371W        W54631  44.015  13.294  12.449
82372W        W54632  35.138   3.943   2.828
82373W        W54633   7.864   5.254   1.468
82374W        W54634  30.023  14.142   4.208
82375W        W54635   9.817  44.771   3.376
82376W        W54636  42.815   8.079  12.589
82377W        W54637  30.027   9.184  11.660
82378W        W54638  34.819  17.146   1.879
82379W        W54639  42.397  42.341   1.264
82380W        W54640  12.019  19.211  12.520
82381W        W54641  40.595  12.774  11.467
82382W        W54642  44.228  14.099  13.018
82383W        W54643  43.335  29.704   4.848
82384W        W54644  38.454  10.286   9.793
82385W        W54645  27.437  34.627   0.854
82386W        W54646   2.410   6.909  10.548
82387W        W54647   0.558  43.923  11.188
82388W        W54648  36.897  30.429   4.698
82389W        W54649  28.388  10.211   3.981
82390W        W54650   5.489  25.257  10.115
82391W        W54651  22.190  12.425   4.598
82392W        W54652   3.928  35.658   1.218
82393W        W54653   4.363   5.233   3.597
82394W        W54654  16.115  10.772   0.489
82395W        W54655  32.612  14.440   3.985
82396W        W54656   9.278  26.345   2.194
82397W        W54657   9.389   9.746   4.622
82398W        W54658  38.416  29.074   4.301
82399W        W54659  15.840  13.192   4.894
82400W        W54660  10.630  11.380  11.613
82401W        W54661  11.642  24.913  14.950
82402W        W54662  35.550  12.376   3.179
82403W        W54663  23.250  18.278   0.878
82404W        W54664   8.691  22.633   2.801
82405W        W54665  33.957  19.073   4.627
82406W        W54666   1.727  15.198  14.991
82407W        W54667  42.662  27.757  13.924
82408W        W54668  10.028   1.815  10.197
82409W        W54669   6.486   5.522  10.616
82410W        W54670  11.830  24.966  11.782
82411W        W54671  41.308  27.903   3.413
82412W        W54672  23.540  38.117  11.668
82413W        W54673  40.534  34.747  11.455
82414W        W54674  41.096  38.072   1.297
82415W        W54675  19.591  43.114   0.570
82416W        W54676  19.093  29.094  13.116
82417W        W54677   9.208  17.171   2.333
82418W        W54678  41.327   7.312   0.377
82419W        W54679  37.319   8.801   3.366
82420W        W54680  43.890  17.824   0.505
82421W        W54681  39.982   6.830  14.953
82422W        W54682  30.386  43.024   2.238
82423W        W54683  31.922   1.434   2.797
82424W        W54684  41.937   6.595   1.444
82425W        W54685  41.473  43.243  14.249
82426W        W54686  23.057   0.918   2.763
82427W        W54687  43.110   8.422  14.973
82428W        W54688  43.509  20.131   3.821
82429W        W54689   1.941  41.938   1.256
82430W        W54690  26.190  25.082  11.675
82431W        W54691  16.091  26.556   3.924
82432W        W54692  44.239  13.243  12.002
82433W        W54693  14.323  15.745  14.243
82434W        W54694  30.236  40.409  10.754
82435W        W54695  14.162  22.677   1.735
82436W        W54696   0.417  14.762   0.987
82437W        W54697  33.525  23.510   0.540
82438W        W54698  22.081  12.840  11.440
82439W        W54699  15.744  34.234  12.892
82440W        W54700  23.024   1.180   2.272
82441W        W54701  31.865  38.558  13.514
82442W        W54702  34.326  33.522  11.060
82443W        W54703   6.639   8.850   0.810
82444W        W54704  28.813  33.957  14.197
82445W        W54705  35.508  21.439  10.647
82446W        W54706  31.478  16.807   1.755
82447W        W54707  13.213  25.026   2.439
82448W        W54708  29.453  20.213  12.424
82449W        W54709  40.488  29.104  11.741
82450W        W54710  24.246  15.591   4.918
82451W        W54711  21.071  35.497  14.992
82452W        W54712  43.408   0.956  10.098
82453W        W54713  18.978  11.283  14.219
82454W        W54714  29.500  12.596   2.689
82455W        W54715  17.727  39.270   1.682
82456W        W54716   5.879   9.271  14.421
82457W        W54717   5.999  30.370   2.387
82458W        W54718   4.317  23.134  11.625
82459W        W54719  37.591  16.879  10.762
82460W        W54720  11.737  40.625   3.675
82461W        W54721  35.867  12.414   3.604
82462W        W54722   1.573   6.674   3.601
82463W        W54723  11.138  22.994  11.120
82464W        W54724  37.843  33.442   2.678
82465W        W54725   1.924  34.785  11.112
82466W        W54726  15.167  28.266   1.957
82467W        W54727  43.543  43.192  11.280
82468W        W54728  34.297   7.407  13.184
82469W        W54729   9.260  13.364   0.070
82470W        W54730  19.494   3.287  14.880
82471W        W54731  24.112  14.049  12.543
82472W        W54732  32.627  36.865   0.327
82473W        W54733  42.345  41.896   1.753
82474W        W54734  28.521  35.014  10.179
82475W        W54735   4.343  34.824  11.547
82476W        W54736  17.578  37.384   3.085
82477W        W54737  25.152  42.219   4.663
82478W        W54738  24.789  23.465   2.733
82479W        W54739  36.537  28.612   0.393
82480W        W54740  13.796  12.363  13.484
82481W        W54741  12.850  22.103  13.800
82482W        W54742  36.259  17.033  14.829
82483W        W54743  27.103  41.606   2.346
82484W        W54744  36.816  44.242   1.921
82485W        W54745  13.703  10.754   2.912
82486W        W54746  40.088  38.482  12.488
82487W        W54747  43.363  17.044  12.443
82488W        W54748  35.929  19.725   3.252
82489W        W54749   8.076  19.338   0.501
82490W        W54750  37.427  33.248   3.658
82491W        W54751  36.442  18.764   4.219
82492W        W54752  33.427  13.588   1.729
82493W        W54753  39.954   9.144   1.272
82494W        W54754   1.948  29.145  10.713
82495W        W54755  17.283  16.331  12.574
82496W        W54756  22.649   8.240   4.219
82497W        W54757  24.639  13.741  11.635
82498W        W54758  43.916   4.752   9.875
82499W        W54759  42.864  42.314  12.558
82500W        W54760  14.811  33.952  12.065
82501W        W54761  37.602  37.881  14.940
82502W        W54762  34.937  42.521   2.388
82503W        W54763  31.399   0.789   4.754
82504W        W54764  44.373  16.785   1.433
82505W        W54765  13.880   0.177  11.023
82506W        W54766  21.802  15.280   1.932
82507W        W54767  41.801   0.075   4.191
82508W        W54768  38.235  18.232   1.056
82509W        W54769   2.586  16.384  13.293
82510W        W54770  31.213  12.738  11.070
82511W        W54771  39.366  15.568   2.805
82512W        W54772  36.431  34.215  10.472
82513W        W54773   4.123  30.089  13.323
82514W        W54774  15.711  28.857  13.548
82515W        W54775  38.551   5.742   2.718
82516W        W54776  44.398  22.559  13.333
82517W        W54777  29.993  44.913  11.014
82518W        W54778  15.848  15.830  11.619
82519W        W54779  13.611  26.198  14.814
82520W        W54780  12.864  37.001  10.561
82521W        W54781  17.739  12.428   0.209
82522W        W54782  31.198  34.577   2.339
82523W        W54783  21.952  40.031   1.322
82524W        W54784  23.921  32.413   2.743
82525W        W54785  33.334   5.928   2.335
82526W        W54786  12.380  26.513   2.872
82527W        W54787  18.661   8.642  12.185
82528W        W54788  26.494  38.800  12.837
82529W        W54789  28.581   0.926   3.651
82530W        W54790  34.383  36.493  10.750
82531W        W54791   1.722  36.666   2.801
82532W        W54792   7.971  16.857  14.876
82533W        W54793  22.396  41.789   1.299
82534W        W54794  36.477   1.856  14.464
82535W        W54795  11.382  31.412   3.409
82536W        W54796  20.264  21.751   2.165
82537W        W54797   3.804  19.210   3.225
82538W        W54798  39.455  17.131  14.865
82539W        W54799  36.123  41.762  10.526
82540W        W54800  33.839   9.300  12.468
82541W        W54801  44.806   1.821  14.188
82542W        W54802   8.557   4.327  12.966
82543W        W54803  41.884  21.246  10.961
82544W        W54804  17.348   2.590  11.122
82545W        W54805  13.499  23.094  11.103
82546W        W54806  34.943  20.455  12.486
82547W        W54807   1.626   7.642  14.121
82548W        W54808  16.400  36.042   1.486
82549W        W54809  28.536   7.870   3.726
82550W        W54810   9.916  41.574   2.183
82551W        W54811  22.479  32.413  13.071
82552W        W54812  11.473  30.085   9.784
82553W        W54813  26.144  44.005   1.916
82554W        W54814  13.741  31.263   4.373
82555W        W54815  13.761  29.933   2.870
82556W        W54816  43.406   1.198   0.953
82557W        W54817   4.724   1.070  14.419
82558W        W54818  15.491  17.047   3.149
82559W        W54819   0.545  21.737  12.080
82560W        W54820  23.242  21.479   2.296
82561W        W54821  29.104  16.569   2.027
82562W        W54822  11.640  43.405  10.695
82563W        W54823  21.543  21.592  12.058
82564W        W54824   7.656  43.855   1.713
82565W        W54825   3.231  32.037  12.419
82566W        W54826  24.451  36.514   1.652
82567W        W54827  41.026  42.960  14.981
82568W        W54828  16.608  43.523   1.985
82569W        W54829  11.203  29.406   4.112
82570W        W54830  32.613  16.279   2.360
82571W        W54831   5.164  44.447   4.179
82572W        W54832  28.358  12.188   0.811
82573W        W54833  34.459   0.619   4.503
82574W        W54834  42.862  26.483  14.340
82575W        W54835  32.913  22.209  12.128
82576W        W54836  30.198  24.661   2.353
82577W        W54837  36.964  12.154   1.843
82578W        W54838  20.823  23.033  11.176
82579W        W54839  14.219  39.375  12.515
82580W        W54840   4.687  33.594   4.269
82581W        W54841   3.753  25.017   3.168
82582W        W54842   8.752  25.858   2.780
82583W        W54843  19.573  38.775   0.309
82584W        W54844  14.066   4.923   5.237
82585W        W54845  21.076  37.771   2.688
82586W        W54846   9.685  41.808  13.783
82587W        W54847  11.136  20.734  10.441
82588W        W54848  16.631   1.824   2.253
82589W        W54849  38.447  10.004  13.953
82590W        W54850  36.478  43.977  12.423
82591W        W54851  39.974  23.178   1.055
82592W        W54852  22.957  24.040   0.379
82593W        W54853  14.411   0.242   3.885
82594W        W54854  24.419  15.732  12.462
82595W        W54855  15.059  19.245   1.467
82596W        W54856  28.136  16.219   1.796
82597W        W54857  10.109  40.507  12.491
82598W        W54858  22.597  34.145   3.213
82599W        W54859  10.584  25.676   4.109
82600W        W54860  41.557  23.218  11.258
82601W        W54861  23.980  44.441  14.191
82602W        W54862  13.090  28.675  11.984
82603W        W54863  28.288  15.753   4.658
82604W        W54864  25.125  20.906   3.180
82605W        W54865  34.955  23.379  12.414
82606W        W54866  39.240  34.578  11.518
82607W        W54867  32.403   4.356   2.285
82608W        W54868  19.937   3.753  10.411
82609W        W54869  12.857  22.603   1.295
82610W        W54870  24.088  11.930   2.666
82611W        W54871   2.450  39.315  13.573
82612W        W54872  31.752  30.895  13.382
82613W        W54873   7.954  39.054   0.910
82614W        W54874  12.383  13.075  13.925
82615W        W54875  33.129  27.120   1.232
82616W        W54876  21.768   3.183   5.017
82617W        W54877  32.635  41.133  13.762
82618W        W54878  39.482  15.350   1.784
82619W        W54879  33.014  44.654   0.818
82620W        W54880  25.444  41.607  10.639
82621W        W54881   5.507   4.416   3.315
82622W        W54882  33.033  16.820   4.601
82623W        W54883   8.305  40.428  13.058
82624W        W54884   8.432  16.173  12.899
82625W        W54885  16.343   5.421   2.691
82626W        W54886  17.901  36.619  14.744
82627W        W54887  24.305   7.324  11.540
82628W        W54888  29.611  38.702  12.033
82629W        W54889  35.052  24.499   2.636
82630W        W54890  18.765  37.313   2.763
82631W        W54891  23.955  11.303  10.727
82632W        W54892  11.537   2.795  13.039
82633W        W54893   7.245  44.805  10.427
82634W        W54894  19.588  38.523  13.063
82635W        W54895  10.978  15.169  14.620
82636W        W54896  13.801  19.253  14.066
82637W        W54897  24.221   8.897   4.787
82638W        W54898  39.596   3.401   3.248
82639W        W54899  38.151  31.773   4.136
82640W        W54900  34.938   3.741   4.288
82641W        W54901  15.606  29.562   4.697
82642W        W54902  37.855  22.696   4.386
82643W        W54903  28.664  42.020   2.893
82644W        W54904  39.798  23.231   3.647
82645W        W54905  38.268  26.991  13.497
82646W        W54906  13.480   2.884  13.029
82647W        W54907  42.383  43.113   4.131
82648W        W54908  11.870  33.100   2.639
82649W        W54909   1.995   5.799   1.254
82650W        W54910   3.785   2.272  12.044
82651W        W54911  32.696  36.534  13.374
82652W        W54912   6.403   6.940  14.484
82653W        W54913  38.204  35.124   2.391
82654W        W54914   5.286   4.805   3.639
82655W        W54915  41.220  18.368  13.360
82656W        W54916   7.180  27.655  11.927
82657W        W54917  40.511   7.430  11.316
82658W        W54918   8.629  15.197   3.630
82659W        W54919   4.314  11.188  13.854
82660W        W54920  20.217   9.934   3.250
82661W        W54921  34.804  25.452   3.604
82662W        W54922   8.115  28.160   1.026
82663W        W54923  14.261  16.380  14.766
82664W        W54924  34.133  30.507  11.991
82665W        W54925  23.541  10.468  11.454
82666W        W54926  16.771   5.035   3.239
82667W        W54927  34.880  25.098  14.512
82668W        W54928  27.397   5.334   3.761
82669W        W54929  28.039  22.177  14.776
82670W        W54930  38.581  20.671  13.440
82671W        W54931  33.721  40.506  11.124
82672W        W54932  25.168  14.691   0.022
82673W        W54933  32.507  41.352  13.312
82674W        W54934  32.599  17.501  14.921
82675W        W54935  28.085  15.714  10.952
82676W        W54936   0.035   2.707  12.470
82677W        W54937  24.447  10.536  11.942
82678W        W54938  30.506  37.323  11.932
82679W        W54939  11.117  20.993  14.186
82680W        W54940  16.316   4.433  12.496
82681W        W54941   7.752  11.408   0.754
82682W        W54942  42.559  14.553  12.485
82683W        W54943   7.957  33.209  12.426
82684W        W54944   3.271  34.367  14.320
82685W        W54945  23.660   1.744   4.458
82686W        W54946   6.207  42.712   0.769
82687W        W54947   4.287   1.768  10.957
82688W        W54948  25.036  37.887   4.063
82689W        W54949  30.849   5.003  13.859
82690W        W54950  18.550   0.745  10.817
82691W        W54951  39.967   9.675   1.590
82692W        W54952  40.608  30.025   3.477
82693W        W54953  40.348  43.005   3.241
82694W        W54954   9.911  17.740   1.857
82695W        W54955  23.122  18.332   4.427
82696W        W54956  41.468  27.350  11.085
82697W        W54957  23.972   7.410   2.402
82698W        W54958  32.897  11.595   2.653
82699W        W54959  42.417   0.693  13.178
82700W        W54960  17.207   9.121   0.660
82701W        W54961   9.185  44.931   3.751
82702W        W54962   5.915  19.613  14.936
82703W        W54963  38.740  38.775   3.425
82704W        W54964  18.674  38.347  10.569
82705W        W54965  11.183  40.484  14.304
82706W        W54966  33.380  26.592   3.643
82707W        W54967  35.082  37.573   1.432
82708W        W54968  11.907  26.570   0.293
82709W        W54969  41.367  13.189   1.004
82710W        W54970   6.618  16.808  14.424
82711W        W54971  44.027  12.435  13.385
82712W        W54972  21.116  13.391  13.300
82713W        W54973  26.559  19.239  11.389
82714W        W54974  39.418  29.491   0.235
82715W        W54975  13.830  13.209   1.712
82716W        W54976  38.593  38.043   0.828
82717W        W54977  26.575  11.594  12.041
82718W        W54978  32.101  36.373   1.902
82719W        W54979  20.106   6.869   1.328
82720W        W54980  38.880  26.012  12.365
82721W        W54981   7.610  17.809   2.553
82722W        W54982  39.629  37.502  14.397
82723W        W54983  36.197  40.559   0.206
82724W        W54984  22.137   6.698   1.322
82725W        W54985  34.052  20.715   0.347
82726W        W54986  37.497  20.191   4.746
82727W        W54987  25.999  25.751   2.811
82728W        W54988  20.124   8.619  11.969
82729W        W54989  29.641  12.673  14.503
82730W        W54990  19.138  38.060   1.954
82731W        W54991  18.043   0.490   1.743
82732W        W54992  34.150   8.298   0.521
82733W        W54993  16.749  31.979   0.775
82734W        W54994  29.428   6.731  10.744
82735W        W54995  38.135  24.970   2.771
82736W        W54996  41.878  31.779   4.191
82737W        W54997   2.731  35.562   4.602
82738W        W54998  11.859  33.135   1.826
82739W        W54999   4.749  24.679   3.234
82740W        W55000  29.112   9.124   3.350
82741W        W55001   2.943  30.003  12.568
82742W        W55002  44.954   0.764  11.454
82743W        W55003  20.099  40.266   1.757
82744W        W55004   7.546   1.747   4.104
82745W        W55005   2.973  25.955  11.965
82746W        W55006  20.135  20.273   0.866
82747W        W55007  40.871   6.905   1.983
82748W        W55008  17.156   8.910  11.474
82749W        W55009  38.916  30.996  12.129
82750W        W55010  27.989  10.358  13.932
82751W        W55011  18.925  32.469   4.066
82752W        W55012  44.545  30.511   9.932
82753W        W55013   6.490   0.961   1.381
82754W        W55014  37.940  43.961  14.522
82755W        W55015  37.013   4.201   2.929
82756W        W55016  23.674  14.503   2.745
82757W        W55017  37.612  36.986  14.858
82758W        W55018  28.869  17.573  14.868
82759W        W55019  32.615  28.515  10.553
82760W        W55020  31.394  20.489  12.443
82761W        W55021  24.686   7.127   0.332
82762W        W55022  41.017  34.985  12.958
82763W        W55023  38.236  20.885  10.543
82764W        W55024  16.649  14.865   1.194
82765W        W55025  37.854  17.281  12.176
82766W        W55026  17.140  26.728   0.009
82767W        W55027  33.860  23.314   3.209
82768W        W55028  25.229  16.208  14.349
82769W        W55029   8.603   3.776  13.410
82770W        W55030  10.707  15.080  14.144
82771W        W55031  38.446  44.990   3.933
82772W        W55032  44.348  33.623  10.665
82773W        W55033  43.568  15.109  11.130
82774W        W55034  26.922  12.932  13.689
82775W        W55035   9.794  43.133   2.918
82776W        W55036   9.748  18.046  12.103
82777W        W55037  24.776  27.523  13.493
82778W        W55038  10.914  30.066  14.185
82779W        W55039  16.915  23.111  14.419
82780W        W55040  30.943  22.090  11.239
82781W        W55041  26.926  36.510  12.962
82782W        W55042  13.816  13.671   3.907
82783W        W55043  20.595   4.144   3.214
82784W        W55044  34.812  24.581   3.881
82785W        W55045  23.086  27.661   4.896
82786W        W55046  44.962   2.150   0.709
82787W        W55047  15.318   9.798   1.786
82788W        W55048  11.153  34.871  13.465
82789W        W55049  29.906   9.903  14.916
82790W        W55050  18.110  22.665  14.994
82791W        W55051  17.171  33.668   3.243
82792W        W55052   2.517  44.935   0.917
82793W        W55053   6.983  17.140  13.037
82794W        W55054  16.721   6.042  12.465
82795W        W55055  31.391  18.224  14.926
82796W        W55056  23.689  34.113  14.724
82797W        W55057  41.923   0.487   1.714
82798W        W55058  23.146  17.275   4.888
82799W        W55059  31.609  32.139   2.441
82800W        W55060  38.741   0.184   2.020
82801W        W55061   0.475  17.734  13.353
82802W        W55062  39.814  17.753  11.149
82803W        W55063  29.111  36.123   4.029
82804W        W55064  40.485  16.938   2.887
82805W        W55065   9.103  14.155   4.019
82806W        W55066  38.379  26.224   4.249
82807W        W55067  22.041  11.076   4.073
82808W        W55068   0.462   8.612   3.352
82809W        W55069  25.136  24.922   3.727
82810W        W55070   6.648   3.252  12.329
82811W        W55071  32.815  41.337  12.192
82812W        W55072   4.629   7.912  13.038
82813W        W55073  40.573  18.717   4.189
82814W        W55074  22.281  41.445  11.070
82815W        W55075  41.349  35.936   0.722
82816W        W55076  42.769   6.689  14.277
82817W        W55077  42.091   2.307   2.205
82818W        W55078  12.585  35.396   0.437
82819W        W55079  43.969  15.387  10.832
82820W        W55080   7.621  26.575   9.807
82821W        W55081  20.111  38.259   1.762
82822W        W55082  32.479  10.587   2.393
82823W        W55083  28.525  23.754  12.382
82824W        W55084  34.052   7.414   0.005
82825W        W55085   4.665  38.311  12.865
82826W        W55086  34.399  29.417  11.193
82827W        W55087  15.803  24.059   0.181
82828W        W55088  43.814  20.254   4.225
82829W        W55089   5.317  28.659   0.346
82830W        W55090  40.694  20.114  11.670
82831W        W55091  32.622  11.392  12.056
82832W        W55092  41.520  23.068   0.895
82833W        W55093  18.261  40.048   4.571
82834W        W55094  10.844   1.748  14.771
82835W        W55095  23.595  28.585  11.471
82836W        W55096   1.518  26.034  11.488
82837W        W55097  11.074  29.316   0.878
82838W        W55098  15.721   8.858   4.026
82839W        W55099  40.800   9.814   0.295
82840W        W55100  17.337  11.593  13.244
82841W        W55101   5.705   0.723   0.307
82842W        W55102  28.142  23.050   3.947
82843W        W55103  17.174  40.346  14.727
82844W        W55104  41.918  26.077   2.281
82845W        W55105   0.288  38.527   4.539
82846W        W55106  37.793  44.331   0.925
82847W        W55107  14.151  42.259  11.372
82848W        W55108   8.834  17.771   3.778
82849W        W55109  15.983  21.904   2.668
82850W        W55110   0.797  13.769   4.824
82851W        W55111  44.729   3.664   1.849
82852W        W55112  41.064  23.624   0.447
82853W        W55113  31.044  19.542   4.246
82854W        W55114   5.799  35.122   2.282
82855W        W55115  29.264  28.138  13.289
82856W        W55116   4.651   2.803  11.667
82857W        W55117  28.514  44.021  14.865
82858W        W55118  36.595  15.129   3.709
82859W        W55119   6.372  21.203  13.971
82860W        W55120  40.883  18.237   0.377
82861W        W55121  40.831  19.162   4.160
82862W        W55122  20.554  26.571  13.600
82863W        W55123  13.686  33.474  14.291
82864W        W55124  22.664  20.557   4.563
82865W        W55125  28.413  10.602   2.771
82866W        W55126  42.196  17.334   5.043
82867W        W55127  34.578  42.058  12.458
82868W        W55128   1.013  16.292  12.015
82869W        W55129  22.366  19.927   5.005
82870W        W55130  38.588  40.055   0.849
82871W        W55131  35.381  18.148   2.721
82872W        W55132  14.644   6.588  13.978
82873W        W55133  36.848  43.956  12.061
82874W        W55134  26.123  42.496   0.468
82875W        W55135  29.822   5.703   1.802
82876W        W55136   4.667  43.959  14.513
82877W        W55137  38.873   1.632  14.861
82878W        W55138  27.808  18.133  11.606
82879W        W55139  12.192  15.114   0.080
82880W        W55140   5.478  22.290  13.701
82881W        W55141  30.563  15.294  13.785
82882W        W55142  10.157  18.243  13.001
82883W        W55143   5.194  31.614  13.014
82884W        W55144  30.601  40.598   1.721
82885W        W55145  34.655   5.888  14.793
82886W        W55146  12.690   4.590   1.694
82887W        W55147   8.865   9.962  10.349
82888W        W55148   1.170  17.852  11.585
82889W        W55149   8.844  14.036  11.562
82890W        W55150  41.543  36.891   4.373
82891W        W55151  19.783  13.219   1.799
82892W        W55152  28.749  14.201  14.567
82893W        W55153  21.963  41.785  10.745
82894W        W55154  32.590  23.024  13.547
82895W        W55155  29.561  23.757   2.310
82896W        W55156  18.617  15.951  12.533
82897W        W55157  44.446   7.614   3.221
82898W        W55158  28.615  36.845   1.411
82899W        W55159  11.115  28.522  11.974
82900W        W55160  27.953  35.286  11.459
82901W        W55161   1.319  18.530   1.665
82902W        W55162  43.350   9.111   4.650
82903W        W55163   6.430   8.840  12.957
82904W        W55164  11.339  42.383  12.080
82905W        W55165  13.687  18.233  11.459
82906W        W55166  40.076   5.653  13.505
82907W        W55167  24.228  24.602  11.132
82908W        W55168  35.022  38.456   4.177
82909W        W55169  20.280   6.707  11.146
82910W        W55170   4.876  17.330  14.522
82911W        W55171   1.176  33.824  12.629
82912W        W55172  11.177  22.527   2.785
82913W        W55173  23.497   3.533   0.723
82914W        W55174   5.640  25.563   3.633
82915W        W55175  10.779   4.919   3.788
82916W        W55176  23.987  13.097  11.116
82917W        W55177  44.105  35.723   3.325
82918W        W55178  42.260  41.570  13.534
82919W        W55179  15.379  23.645  13.891
82920W        W55180  19.999  12.636  11.946
82921W        W55181  26.042  42.638  14.963
82922W        W55182   8.921   4.179   1.186
82923W        W55183   3.140  12.635  10.808
82924W        W55184   4.020  26.154   1.520
82925W        W55185  21.856  12.417   4.036
82926W        W55186  39.869  10.318   2.802
82927W        W55187  42.896   1.892   3.919
82928W        W55188  29.996  37.593   3.613
82929W        W55189  10.977  21.761  12.097
82930W        W55190  20.342  31.663  11.705
82931W        W55191   4.973   2.805  14.437
82932W        W55192   5.698  19.028  12.861
82933W        W55193  37.442  44.900   4.880
82934W        W55194  17.159   1.996  10.612
82935W        W55195  39.089   6.578   4.713
82936W        W55196  26.741   1.515   3.677
82937W        W55197  14.194  20.165  12.372
82938W        W55198  40.835  38.557  11.985
82939W        W55199  34.015  41.864  14.028
82940W        W55200  28.770  27.646   1.636
82941W        W55201   7.708  11.249   1.640
82942W        W55202  16.065   1.026   1.882
82943W        W55203  28.398  44.936   0.854
82944W        W55204   1.219  27.375  12.445
82945W        W55205  22.677   4.345   2.404
82946W        W55206  36.959  36.587  13.650
82947W        W55207  30.107   7.186  11.094
82948W        W55208  11.372  16.687   0.399
82949W        W55209  44.017   3.750   3.842
82950W        W55210  13.933  41.526  11.906
82951W        W55211  27.887  39.936   2.932
82952W        W55212  42.857   4.296   0.143
82953W        W55213  44.777   1.241   4.608
82954W        W55214  22.666  17.811   1.247
82955W        W55215   3.769   1.439  14.075
82956W        W55216  12.896  38.297  11.077
82957W        W55217  14.226  44.004  11.496
82958W        W55218  33.846  17.779   1.177
82959W        W55219  43.451  38.433   3.838
82960W        W55220  25.634  21.859  12.606
82961W        W55221  23.727  16.144   2.630
82962W        W55222   9.752  33.895  12.754
82963W        W55223   0.750  36.951   4.202
82964W        W55224  22.828  12.163  13.956
82965W        W55225   2.800  27.162  13.934
82966W        W55226  24.407  16.271   1.665
82967W        W55227  24.971  19.787  14.460
82968W        W55228  20.615   1.971  14.550
82969W        W55229  23.267   9.488  10.655
82970W        W55230  10.473  29.895  12.934
82971W        W55231  23.117  10.220  14.984
82972W        W55232   0.418  11.291   4.385
82973W        W55233  41.806  17.859   4.995
82974W        W55234  22.236   7.183  12.500
82975W        W55235   4.794   5.915  13.940
82976W        W55236  15.345  17.838   0.798
82977W        W55237  18.854  27.060   1.167
82978W        W55238  17.068   9.178  13.006
82979W        W55239   1.497   9.705   1.427
82980W        W55240   6.156  20.296  10.620
82981W        W55241  33.649  35.861   3.206
82982W        W55242  11.873  34.003   0.788
82983W        W55243  31.383  36.922  12.540
82984W        W55244   2.026  24.013   3.310
82985W        W55245  26.594   5.202   0.033
82986W        W55246  39.498   2.819  14.780
82987W        W55247  18.609  19.087  11.084
82988W        W55248  39.611  42.913  14.926
82989W        W55249   7.161  23.032  12.492
82990W        W55250  35.928  15.311  11.611
82991W        W55251  18.754   0.898   0.453
82992W        W55252  15.842  26.063   0.806
82993W        W55253   0.323  43.508  12.840
82994W        W55254  27.174   2.753  13.068
82995W        W55255   7.126  29.114   3.924
82996W        W55256  34.631   3.651  14.313
82997W        W55257   8.169  32.178   4.608
82998W        W55258  42.793  24.541   2.956
82999W        W55259  43.745  40.249   4.588
83000W        W55260  13.537   2.471  14.439
83001W        W55261  33.558  18.709  11.159
83002W        W55262  39.487  34.628   1.094
83003W        W55263  20.776  41.444  10.647
83004W        W55264  26.166   1.074   1.757
83005W        W55265  32.398  25.527   0.848
83006W        W55266   7.733  24.970  10.063
83007W        W55267   9.166   7.308   1.217
83008W        W55268  30.586   1.119  10.628
83009W        W55269  24.215   5.610   0.709
83010W        W55270  37.572   3.753   4.796
83011W        W55271   9.273   1.697  11.165
83012W        W55272  30.648  33.153   4.599
83013W        W55273  40.835  23.302  10.744
83014W        W55274  28.306  30.965  10.794
83015W        W55275  33.845  28.985  13.901
83016W        W55276  38.388  25.686   4.636
83017W        W55277   2.189  34.998   2.831
83018W        W55278   3.351   7.183   1.044
83019W        W55279   2.513  11.927   1.888
83020W        W55280   2.399  38.350  12.443
83021W        W55281   2.857  21.359  14.728
83022W        W55282  29.093  38.914  11.933
83023W        W55283  44.792  34.948  13.024
83024W        W55284  40.760  17.656   1.692
83025W        W55285  33.921  20.580   0.917
83026W        W55286  34.037  14.538  12.632
83027W        W55287  14.610   1.344  11.596
83028W        W55288   6.718   7.372   3.926
83029W        W55289  30.033  15.694  12.263
83030W        W55290  33.357  28.095   4.647
83031W        W55291  44.916   1.872   3.572
83032W        W55292  38.152  20.732   0.875
83033W        W55293   6.653  22.981  11.325
83034W        W55294   5.200  19.813   4.851
83035W        W55295  26.231  38.933  11.422
83036W        W55296  14.456  28.462  10.602
83037W        W55297  24.099  21.114   0.700
83038W        W55298  36.742   8.269  11.129
83039W        W55299  17.538  25.190   0.886
83040W        W55300  27.214  17.911   4.250
83041W        W55301  22.773  37.105   0.486
83042W        W55302  43.458  33.201  14.864
83043W        W55303  34.033   3.163   2.245
83044W        W55304  41.959   7.772  11.599
83045W        W55305  30.597  22.666   0.239
83046W        W55306  15.158  37.068  11.899
83047W        W55307   4.393  17.854  14.906
83048W        W55308  24.619   3.859   0.076
83049W        W55309  41.034  34.962   0.764
83050W        W55310  43.258  13.662  13.746
83051W        W55311  22.461   3.045  14.993
83052W        W55312  29.072   8.609   0.400
83053W        W55313   3.433  39.278  12.043
83054W        W55314  21.430  27.971  13.248
83055W        W55315  18.973  39.292  12.482
83056W        W55316   0.243  23.698  10.975
83057W        W55317  34.589   0.492  14.883
83058W        W55318   2.216  17.652   1.330
83059W        W55319   7.411   2.220   4.862
83060W        W55320  26.700  14.674  13.638
83061W        W55321  14.650  24.056   4.371
83062W        W55322  28.541  35.488  14.826
83063W        W55323  33.672   1.640  12.891
83064W        W55324  42.255   9.922  10.330
83065W        W55325  32.803  22.528   2.844
83066W        W55326  23.167  25.243  11.669
83067W        W55327  26.405  43.491   4.107
83068W        W55328  43.741   7.348   1.900
83069W        W55329   9.118  12.275  12.908
83070W        W55330  39.555   5.755   4.617
83071W        W55331  40.957  27.666   0.408
83072W        W55332  41.473  44.436  10.628
83073W        W55333  32.263  41.496  13.772
83074W        W55334   1.769   5.826   3.090
83075W        W55335  33.812   7.480  14.556
83076W        W55336   4.887  41.073   1.664
83077W        W55337  39.130  15.140  12.953
83078W        W55338  37.957   0.681   3.858
83079W        W55339  15.504  17.542  12.852
83080W        W55340  24.134  44.869   0.985
83081W        W55341  38.820  34.325  14.938
83082W        W55342  12.740  42.816   4.762
83083W        W55343  44.255  30.411  10.912
83084W        W55344  28.139  22.481   3.447
83085W        W55345  20.522   7.348  12.076
83086W        W55346  33.498  34.863  10.728
83087W        W55347  15.200  39.368   0.106
83088W        W55348   2.993  31.378  13.567
83089W        W55349   3.217  19.008  10.613
83090W        W55350   8.236  40.123   3.652
83091W        W55351   3.187   9.867   1.952
83092W        W55352  31.185   6.846  14.362
83093W        W55353  35.876  16.775   0.541
83094W        W55354  17.877   7.532  10.172
83095W        W55355  19.074  37.514  11.230
83096W        W55356  30.363  42.615  13.824
83097W        W55357  30.598  33.933  10.814
83098W        W55358  41.088  16.602  14.408
83099W        W55359  30.651  28.606  12.630
83100W        W55360  29.523   0.521   3.676
83101W        W55361  11.743  20.777   2.416
83102W        W55362  14.087   1.845  11.942
83103W        W55363   7.100  38.085   3.554
83104W        W55364  23.333  18.778   4.626
83105W        W55365  39.286  40.363   2.613
83106W        W55366  44.612   8.708   1.474
83107W        W55367  43.903  34.186   2.184
83108W        W55368   2.051  33.048   2.191
83109W        W55369  26.237  29.089  11.563
83110W        W55370  32.561  28.774   4.171
83111W        W55371   0.173   4.216   5.035
83112W        W55372   8.869  43.303   4.626
83113W        W55373  14.865  39.017   1.509
83114W        W55374   9.471  16.304  12.739
83115W        W55375   1.327  28.279   3.725
83116W        W55376  36.977   5.744  13.985
83117W        W55377  14.201  30.369  10.726
83118W        W55378  16.340  27.588  13.928
83119W        W55379  13.518  20.935   2.495
83120W        W55380   5.150  38.404   0.684
83121W        W55381  30.456  12.321   4.182
83122W        W55382  43.664  41.991  12.863
83123W        W55383  24.716   1.843  13.405
83124W        W55384  43.978  33.152   0.409
83125W        W55385  10.734  23.658  14.340
83126W        W55386  42.288  22.326  13.950
83127W        W55387  17.484  21.570   0.372
83128W        W55388  42.818  32.203   5.190
83129W        W55389  36.894  25.483   1.738
83130W        W55390  17.755  40.757  13.937
83131W        W55391  16.604  43.194   4.166
83132W        W55392   1.923  26.237   0.519
83133W        W55393   7.321  21.481  14.840
83134W        W55394  31.541  24.267   3.994
83135W        W55395  26.141   5.287   3.264
83136W        W55396  22.464   1.171   2.243
83137W        W55397   9.203  25.991  12.108
83138W        W55398  16.762  33.122  12.463
83139W        W55399  43.754  30.420  11.097
83140W        W55400  25.819  15.733  10.722
83141W        W55401  23.636  29.631   1.018
83142W        W55402   4.364   2.828   1.928
83143W        W55403  11.556  12.798   4.850
83144W        W55404  24.770  42.811  12.823
83145W        W55405   2.219  21.529  14.753
83146W        W55406  22.153  31.506  11.131
83147W        W55407  20.558  20.509   3.771
83148W        W55408  28.714  10.425  14.389
83149W        W55409  26.169  29.457  12.078
83150W        W55410  18.944   8.327  12.477
83151W        W55411  23.657  30.436  14.604
83152W        W55412  22.437   7.558   0.644
83153W        W55413  34.566  26.775   1.847
83154W        W55414   1.570  42.255  13.835
83155W        W55415  15.702  42.074   0.790
83156W        W55416  15.011   3.277  12.489
83157W        W55417  26.343  38.938  10.776
83158W        W55418  33.109   0.886   4.079
83159W        W55419  16.164  13.572  12.447
83160W        W55420  17.577   8.379  14.032
83161W        W55421  26.605  13.552   0.066
83162W        W55422  29.126  36.147   2.212
83163W        W55423  15.402  19.655  10.831
83164W        W55424  29.846   1.105   5.002
83165W        W55425  19.055   8.538   5.104
83166W        W55426  33.474  12.644  13.567
83167W        W55427  40.275   5.424  13.084
83168W        W55428  38.354  40.393  11.974
83169W        W55429   9.843  42.303  11.119
83170W        W55430  30.165  17.257   4.571
83171W        W55431  37.595  18.616  11.615
83172W        W55432  44.817  14.378  14.308
83173W        W55433  29.704   3.190   0.871
83174W        W55434  10.765  42.721  13.146
83175W        W55435  23.306  16.752   4.233
83176W        W55436  37.078  32.002   1.241
83177W        W55437   9.647   0.220  12.831
83178W        W55438   9.492  39.861   1.766
83179W        W55439  16.692  22.833  13.359
83180W        W55440  23.281  22.241   2.703
83181W        W55441  14.366  40.867  11.188
83182W        W55442   7.181  34.142  14.049
83183W        W55443   1.049  26.163   1.713
83184W        W55444  44.582  39.919   5.084
83185W        W55445  34.550   9.883   1.575
83186W        W55446  43.316  11.612   2.898
83187W        W55447  20.805   7.462   4.654
83188W        W55448  12.197  18.955   2.402
83189W        W55449   8.758  10.276  11.220
83190W        W55450  37.090  42.084   5.063
83191W        W55451  12.758  22.149  10.956
83192W        W55452   9.908   9.193   0.710
83193W        W55453  44.729  29.713   0.712
83194W        W55454   1.371  30.550   0.778
83195W        W55455   9.466  30.466   2.446
83196W        W55456  29.960  21.731  13.404
83197W        W55457  36.246  23.995  13.332
83198W        W55458  35.855  29.929  11.880
83199W        W55459  31.335   6.545  11.577
83200W        W55460   0.444  29.408   0.919
83201W        W55461  14.120  10.273   1.679
83202W        W55462  17.754  12.588  13.405
83203W        W55463  37.423  20.213   4.234
83204W        W55464   0.200  22.038  12.301
83205W        W55465  15.264  34.841   2.612
83206W        W55466  11.649  14.326  12.170
83207W        W55467  23.336  32.408   4.124
83208W        W55468  43.763  43.428  11.721
83209W        W55469  39.475   2.663   0.685
83210W        W55470  10.386  41.053   2.724
83211W        W55471  43.982  21.604   3.723
83212W        W55472  31.204  35.497  14.470
83213W        W55473  20.511   9.762  13.871
83214W        W55474  37.756  28.970   2.082
83215W        W55475  32.640  39.968  14.483
83216W        W55476   5.504  21.990  14.985
83217W        W55477  36.099   0.067   4.105
83218W        W55478  11.617  26.438  13.843
83219W        W55479  21.076  44.014   4.569
83220W        W55480   3.505  14.004   4.754
83221W        W55481  12.064  38.166  13.997
83222W        W55482  22.222  16.045   0.888
83223W        W55483  23.107  22.341  14.935
83224W        W55484   6.901  10.252  14.417
83225W        W55485  24.801   4.852  12.581
83226W        W55486  12.309  24.970   4.509
83227W        W55487  26.229  20.296  11.144
83228W        W55488  43.931   1.647   4.482
83229W        W55489   0.199  25.959  12.014
83230W        W55490  20.143  15.043  14.749
83231W        W55491   1.790  12.134  11.905
83232W        W55492  18.124  14.152   1.867
83233W        W55493  12.873  25.931   3.118
83234W        W55494  18.129  11.125   0.287
83235W        W55495  10.772  42.463  12.685
83236W        W55496  43.979   6.613  12.994
83237W        W55497  13.831  31.110   0.505
83238W        W55498  26.267  19.442  12.356
83239W        W55499   0.813   2.376   3.270
83240W        W55500  31.982   7.508   2.858
83241W        W55501  36.974  37.431  14.507
83242W        W55502  14.215  36.256   4.359
83243W        W55503  13.595   9.254   1.904
83244W        W55504   1.513  11.754   2.534
83245W        W55505  36.561  13.124  13.999
83246W        W55506  26.414   5.440  11.010
83247W        W55507  23.768  38.822   3.261
83248W        W55508  40.966  34.906   3.369
83249W        W55509  25.784  23.731   3.541
83250W        W55510  19.999  29.215   4.838
83251W        W55511  11.254  14.449  12.496
83252W        W55512  15.706   0.170  10.235
83253W        W55513  29.808  43.317   1.634
83254W        W55514  11.243  27.374   0.975
83255W        W55515  36.447  23.167  14.649
83256W        W55516  14.283   7.403   2.273
83257W        W55517  35.850   3.724   1.261
83258W        W55518  26.228  25.241  10.452
83259W        W55519  28.765  29.449  13.312
83260W        W55520   5.636  11.242   0.293
83261W        W55521  20.478  14.620   0.728
83262W        W55522  24.972  28.488   3.400
83263W        W55523  14.598  32.600  10.607
83264W        W55524  22.334  38.451   0.408
83265W        W55525  44.464  18.119  11.034
83266W        W55526   4.380  14.989  11.009
83267W        W55527   0.778   2.412  13.515
83268W        W55528  22.572  15.396   3.664
83269W        W55529  38.365  42.437  10.614
83270W        W55530  22.685  16.263  11.313
83271W        W55531  13.664  36.050  14.060
83272W        W55532  39.272   3.427   0.323
83273W        W55533  20.492  38.065  11.021
83274W        W55534  12.999  37.357   2.405
83275W        W55535  31.086   1.863   2.458
83276W        W55536  23.051  38.134  10.819
83277W        W55537  10.768   1.765   4.144
83278W        W55538  34.002  18.865   1.260
83279W        W55539  31.739  22.965   2.018
83280W        W55540  22.937  17.091  14.444
83281W        W55541  21.734  11.869  14.269
83282W        W55542  34.398   6.322   4.530
83283W        W55543  35.851  12.825   1.434
83284W        W55544   4.797  37.052   3.337
83285W        W55545  41.722   6.698  14.415
83286W        W55546  27.359  18.681  14.392
83287W        W55547   1.875   6.246  13.714
83288W        W55548  27.513  18.060  13.278
83289W        W55549  20.831   8.961   1.488
83290W        W55550  23.284   3.585  11.107
83291W        W55551   3.441  31.596  12.186
83292W        W55552  27.071  37.992  14.879
83293W        W55553  13.132  26.909   2.316
83294W        W55554  16.069  29.128  11.636
83295W        W55555   3.066  10.540  11.344
83296W        W55556  16.172  41.537  12.427
83297W        W55557  35.620   8.409   4.795
83298W        W55558  28.961   0.799  10.473
83299W        W55559  32.859   1.523   3.589
83300W        W55560  35.719  39.296  12.025
83301W        W55561  23.714  30.828   2.290
83302W        W55562  11.422  26.449  13.127
83303W        W55563  32.523   4.433   0.368
83304W        W55564  23.987   7.251  11.920
83305W        W55565  25.419  30.555   2.181
83306W        W55566  13.773  17.662   1.157
83307W        W55567   2.275  21.808   4.594
83308W        W55568  15.700  19.529  11.957
83309W        W55569   2.486  36.449  14.662
83310W        W55570   1.850  35.475  11.547
83311W        W55571  15.767  19.325  10.603
83312W        W55572   1.512  40.879   2.076
83313W        W55573   6.360  11.706  14.966
83314W        W55574  40.572   0.997   5.177
83315W        W55575  36.862  24.093  11.979
83316W        W55576  27.661  11.398   1.066
83317W        W55577  10.440  38.548   4.490
83318W        W55578   5.074   0.919   2.762
83319W        W55579  12.213  10.639   1.702
83320W        W55580  41.009  21.908   4.345
83321W        W55581  39.356   2.341  14.716
83322W        W55582  20.235  43.471   4.632
83323W        W55583   8.011  23.097  10.969
83324W        W55584  35.096  40.535  13.430
83325W        W55585  38.591  27.036   3.184
83326W        W55586   6.457  11.248   0.704
83327W        W55587  29.409   3.959   0.404
83328W        W55588  16.800   0.258  11.150
83329W        W55589   7.951  42.518   0.223
83330W        W55590  37.339  29.487  11.190
83331W        W55591  33.333  33.610  13.917
83332W        W55592  11.269  33.059   4.350
83333W        W55593   3.349  19.997   3.194
83334W        W55594  16.850  12.041  14.945
83335W        W55595  44.081  29.831   1.665
83336W        W55596  19.159  39.880  14.444
83337W        W55597  15.257   7.851  13.074
83338W        W55598   7.354   4.212   3.097
83339W        W55599  18.513  37.956   2.115
83340W        W55600  17.585  36.111   4.102
83341W        W55601  12.251  20.323   1.811
83342W        W55602  11.801  15.418  11.133
83343W        W55603  44.216  38.718   0.927
83344W        W55604  30.591  13.570  14.979
83345W        W55605  43.880  26.596  11.954
83346W        W55606  30.646  38.064  13.851
83347W        W55607   5.885  38.656  14.820
83348W        W55608  21.596  38.559   2.683
83349W        W55609   3.002  26.637  13.500
83350W        W55610   2.325  14.639   3.150
83351W        W55611  21.001  30.439  10.356
83352W        W55612   4.179  13.603   0.367
83353W        W55613  16.375  15.646  10.773
83354W        W55614   0.656  32.956  12.430
83355W        W55615   7.723  40.381  10.309
83356W        W55616  31.916   0.901  11.354
83357W        W55617  20.724  35.535  13.012
83358W        W55618  21.693  27.638   4.826
83359W        W55619   4.407  36.413  11.566
83360W        W55620   7.619  38.612   3.965
83361W        W55621  34.555   6.781  11.887
83362W        W55622  38.110  30.928  14.616
83363W        W55623  35.332   2.994   3.663
83364W        W55624  17.026  22.456   1.625
83365W        W55625  23.018  21.167   4.969
83366W        W55626  24.072   3.313  11.291
83367W        W55627  27.487  33.802   2.173
83368W        W55628  42.328  36.385   4.483
83369W        W55629  41.027  18.315  12.887
83370W        W55630  42.265  42.396  14.915
83371W        W55631  18.165  31.992   1.067
83372W        W55632  33.657  36.374  12.086
83373W        W55633  29.474  22.802  14.012
83374W        W55634  35.452  19.688  12.057
83375W        W55635  28.322   1.560  13.236
83376W        W55636  30.927  15.891  12.869
83377W        W55637  32.897  13.227  13.227
83378W        W55638   3.836  17.795   2.152
83379W        W55639  26.397  14.093  12.041
83380W        W55640  44.307  44.684  14.640
83381W        W55641  29.464  12.154   2.357
83382W        W55642  39.158  19.068  13.531
83383W        W55643  25.032  23.790   1.446
83384W        W55644  28.612   1.869   4.101
83385W        W55645  19.365   0.308  11.131
83386W        W55646  17.193   5.626  13.678
83387W        W55647  25.702   4.599   1.683
83388W        W55648   4.894  25.443  12.897
83389W        W55649  38.864   0.854  11.216
83390W        W55650  11.679   8.197  11.282
83391W        W55651  30.197  34.901   0.696
83392W        W55652  33.397  19.619   0.773
83393W        W55653   3.869  41.304   1.451
83394W        W55654  33.415   5.780   1.784
83395W        W55655  37.964   4.264   0.972
83396W        W55656  44.933  10.407  10.174
83397W        W55657  13.161  40.499   4.640
83398W        W55658  43.285  14.058   1.497
83399W        W55659   6.331   3.451   2.856
83400W        W55660  33.585   0.804  12.122
83401W        W55661   0.239  21.168   4.114
83402W        W55662   3.950  40.040   3.219
83403W        W55663  12.089  39.541   3.192
83404W        W55664  16.098  12.600  10.457
83405W        W55665  40.409  15.550  11.634
83406W        W55666  23.732  15.750   2.984
83407W        W55667  30.490  35.042   4.868
83408W        W55668   4.907   3.649  12.176
83409W        W55669  22.021  10.405  12.445
83410W        W55670  43.574  10.138  10.745
83411W        W55671   2.098  37.345   4.050
83412W        W55672  31.823   7.461   4.828
83413W        W55673  29.925  11.302  10.740
83414W        W55674  35.595   7.430   0.867
83415W        W55675   7.787   6.871   3.247
83416W        W55676  12.127  39.601  11.145
83417W        W55677  31.872  31.175   1.476
83418W        W55678  36.630  24.607  12.011
83419W        W55679  18.837  44.255  10.583
83420W        W55680  22.259  35.149  13.570
83421W        W55681  28.394  23.956  12.963
83422W        W55682   7.715  26.465   2.754
83423W        W55683   8.932  41.283   3.672
83424W        W55684  33.053   2.622  13.333
83425W        W55685  32.324   4.268  12.490
83426W        W55686  42.331  20.683  14.717
83427W        W55687  41.073  13.826   2.363
83428W        W55688  13.420  35.419  14.762
83429W        W55689  31.960  14.828  14.018
83430W        W55690  43.143   0.015   5.035
83431W        W55691  33.913  21.057   4.567
83432W        W55692   1.859  14.103  12.476
83433W        W55693  42.533  33.137   2.287
83434W        W55694  41.008  26.626  10.506
83435W        W55695  35.294  24.518   0.075
83436W        W55696  21.850  42.276  12.620
83437W        W55697   1.077  43.014  12.365
83438W        W55698  34.879  15.658  13.932
83439W        W55699  17.031  37.152   0.403
83440W        W55700  18.790  40.372   4.102
83441W        W55701   8.046  34.076   1.477
83442W        W55702  19.067  41.842   0.292
83443W        W55703  15.723  35.485  11.899
83444W        W55704  16.404  41.356   1.441
83445W        W55705  21.849  27.478  11.003
83446W        W55706   2.296   0.307   1.408
83447W        W55707  38.085  39.060   1.755
83448W        W55708  17.040  33.961   2.211
83449W        W55709  31.168   8.880   3.744
83450W        W55710   2.672  20.174  11.987
83451W        W55711  27.311   5.416   4.622
83452W        W55712  43.919  34.022   3.670
83453W        W55713  27.810  12.120   3.586
83454W        W55714  14.496  40.517  14.019
83455W        W55715  21.197  21.729  11.210
83456W        W55716  40.270  27.100  10.689
83457W        W55717  35.628  13.484  12.356
83458W        W55718  21.710  37.014  10.876
83459W        W55719   8.980  16.197   3.840
83460W        W55720  43.882  29.572  14.713
83461W        W55721   3.250   5.263  14.397
83462W        W55722   7.801  43.230  10.448
83463W        W55723  38.402  41.830  14.149
83464W        W55724   0.343  34.728  11.988
83465W        W55725   6.714   9.333   4.688
83466W        W55726  44.321  22.569   3.601
83467W        W55727  43.905  10.316   1.245
83468W        W55728  12.943  18.071  13.813
83469W        W55729  33.683  18.630   5.106
83470W        W55730  12.853  21.018  14.303
83471W        W55731  22.213  17.790  12.626
83472W        W55732  13.851  20.276   3.593
83473W        W55733  16.125  33.034  13.836
83474W        W55734  30.811  32.766  10.906
83475W        W55735  21.641  22.089  11.952
83476W        W55736   5.708  10.352  12.414
83477W        W55737  21.067  12.628   4.136
83478W        W55738  30.401   9.114  14.013
83479W        W55739   7.181  42.907   2.354
83480W        W55740  21.892  22.684   2.269
83481W        W55741  37.947  14.537  14.112
83482W        W55742  30.143   0.829  12.678
83483W        W55743   3.370  36.656  13.670
83484W        W55744  34.485   2.443  12.800
83485W        W55745  22.049   5.923  12.903
83486W        W55746   3.221  19.773   3.736
83487W        W55747  22.790  29.389   3.229
83488W        W55748  19.127   8.837   2.674
83489W        W55749  34.513  10.893  13.791
83490W        W55750   8.507  23.378   1.739
83491W        W55751   5.988   0.408   1.683
83492W        W55752  25.191   3.943  13.070
83493W        W55753  14.623  40.291   4.596
83494W        W55754  44.812  24.754   1.856
83495W        W55755  19.217  34.422  12.079
83496W        W55756  34.805  20.240  10.193
83497W        W55757   2.298  14.513  14.078
83498W        W55758   4.304   4.175   2.744
83499W        W55759  21.927  37.542   1.312
83500W        W55760  29.493  10.467  11.586
83501W        W55761  24.337  25.421   2.700
83502W        W55762   4.405  13.665  13.530
83503W        W55763  33.715  25.272   4.110
83504W        W55764  25.860   4.221  11.135
83505W        W55765   3.791  23.537   1.267
83506W        W55766  11.730  43.943  12.788
83507W        W55767  20.506  18.155  14.566
83508W        W55768   9.214  22.052   2.311
83509W        W55769  36.673  29.537   4.943
83510W        W55770  44.718  33.495  14.509
83511W        W55771   3.179  25.237   1.497
83512W        W55772  27.958  15.713   0.961
83513W        W55773   1.904  29.002  13.893
83514W        W55774   6.368  35.050   3.837
83515W        W55775  22.789  43.750  12.415
83516W        W55776  28.177   8.464  10.606
83517W        W55777  24.729  32.455   4.639
83518W        W55778  25.701  25.264   1.740
83519W        W55779  37.862   0.220   0.051
83520W        W55780  20.225  15.847  13.546
83521W        W55781  12.120  27.183   3.370
83522W        W55782  39.501  11.371  11.544
83523W        W55783   6.814  42.510  12.642
83524W        W55784  26.661  29.218   0.500
83525W        W55785  25.549  30.743  13.456
83526W        W55786  32.933  11.892   2.201
83527W        W55787  41.241   0.408  14.966
83528W        W55788  42.845   3.388   3.107
83529W        W55789   2.006  30.445  11.721
83530W        W55790   4.662   5.827   1.372
83531W        W55791  28.518  23.744  11.493
83532W        W55792   2.563  43.117  13.611
83533W        W55793  21.021  42.780  10.636
83534W        W55794   7.384  16.832   3.162
83535W        W55795  13.544  28.205   3.221
83536W        W55796  30.510  15.166   4.410
83537W        W55797   3.617  38.357  11.953
83538W        W55798  27.288   1.853  12.921
83539W        W55799  28.146  22.709  14.546
83540W        W55800  26.364  29.229   2.393
83541W        W55801  15.238  15.714  14.339
83542W        W55802   4.548  40.932  12.531
83543W        W55803  30.446  27.492   1.155
83544W        W55804  14.177  18.769  14.844
83545W        W55805   0.942   4.325   1.387
83546W        W55806   4.723   0.895  10.147
83547W        W55807  22.855  19.612   5.063
83548W        W55808  19.220   5.807   4.144
83549W        W55809  20.779  37.025   3.755
83550W        W55810   1.417  11.859   2.027
83551W        W55811  16.663   2.927   4.789
83552W        W55812   0.159  19.692   3.200
83553W        W55813   4.237   6.415  12.717
83554W        W55814   7.473  16.026  12.934
83555W        W55815   3.209  24.899  12.423
83556W        W55816   1.826  13.048   3.105
83557W        W55817  22.766  27.960  10.295
83558W        W55818  28.245  15.558  13.831
83559W        W55819  40.335  28.222  10.701
83560W        W55820  31.646  44.384   0.732
83561W        W55821  25.030  17.113  13.895
83562W        W55822  33.320  29.860  13.871
83563W        W55823  18.484   4.828   0.955
83564W        W55824  40.055   6.545   0.890
83565W        W55825  37.360  20.939  12.511
83566W        W55826  15.326   3.458  12.092
83567W        W55827  26.662  14.539  11.117
83568W        W55828  29.363  10.665  14.532
83569W        W55829  17.129  42.082   4.366
83570W        W55830   4.804  29.672  11.523
83571W        W55831  22.305  40.741  11.831
83572W        W55832  12.954  23.514  10.762
83573W        W55833  29.675  24.587   4.776
83574W        W55834  31.047  22.093  14.370
83575W        W55835  28.206  16.008   4.139
83576W        W55836  31.801  38.141   5.030
83577W        W55837  33.451  15.816   0.934
83578W        W55838  30.384   2.146  11.071
83579W        W55839   4.291  20.946   1.717
83580W        W55840  39.090  38.292   1.295
83581W        W55841  18.480  23.589   1.943
83582W        W55842  15.745   7.835   1.292
83583W        W55843  24.782   0.238  14.454
83584W        W55844  20.592  21.320  10.559
83585W        W55845  41.446  11.191  13.058
83586W        W55846  27.489  15.564  14.796
83587W        W55847   7.333  41.389   3.087
83588W        W55848  40.890  30.459   2.235
83589W        W55849  39.983  42.285  14.020
83590W        W55850  44.351  32.386   1.811
83591W        W55851  39.072  42.253   2.749
83592W        W55852  20.485  40.957   4.663
83593W        W55853  27.208   2.701   3.321
83594W        W55854  42.904   4.106  11.091
83595W        W55855  19.796  23.213  14.779
83596W        W55856   7.441  28.979  12.082
83597W        W55857   9.398  28.259   2.896
83598W        W55858  33.537   0.980  13.491
83599W        W55859  22.831  43.257  10.701
83600W        W55860   5.487  42.054   2.640
83601W        W55861  42.096  20.740   4.573
83602W        W55862  12.136   0.227  13.105
83603W        W55863  42.272  19.558   3.814
83604W        W55864  29.884   3.760  13.055
83605W        W55865  10.271  25.294  11.153
83606W        W55866  40.840  36.571   4.045
83607W        W55867  14.813  34.378   2.206
83608W        W55868  21.842  16.785  13.625
83609W        W55869  26.111  36.462  11.427
83610W        W55870   3.342  42.416  14.131
83611W        W55871  38.051  30.027  13.538
83612W        W55872   3.323   5.873   4.366
83613W        W55873  42.352  27.187  14.499
83614W        W55874  30.538  15.132   3.895
83615W        W55875  17.750  19.539   1.626
83616W        W55876  34.536   8.374  10.366
83617W        W55877   0.903  10.836  10.788
83618W        W55878  36.324  41.629  14.471
83619W        W55879  29.081  20.662  14.773
83620W        W55880   2.302   6.367  10.610
83621W        W55881  15.672  29.750   3.725
83622W        W55882  44.459   4.275  13.361
83623W        W55883   0.774   5.332   0.749
83624W        W55884   7.803  22.542   5.176
83625W        W55885  24.508  27.537  14.858
83626W        W55886  14.775  36.212  14.828
83627W        W55887   7.120   2.683   3.643
83628W        W55888  41.084  44.205  14.439
83629W        W55889  30.962  31.004  14.768
83630W        W55890  23.258  11.208   4.726
83631W        W55891  17.639  42.748  13.945
83632W        W55892   4.032   7.119  11.698
83633W        W55893  16.305  44.035   4.097
83634W        W55894  40.300  10.659  11.170
83635W        W55895   7.701  26.198  10.169
83636W        W55896  44.425  11.220  11.676
83637W        W55897  44.366  23.198  14.435
83638W        W55898  28.946  36.367   1.778
83639W        W55899  24.729  34.670  11.637
83640W        W55900   7.681  17.728   3.062
83641W        W55901  40.791  18.347   4.865
83642W        W55902  22.399  37.274  12.903
83643W        W55903  16.180  34.316   2.401
83644W        W55904   6.820  20.244   2.251
83645W        W55905  19.993  36.067   0.438
83646W        W55906  25.889   6.671  10.976
83647W        W55907  21.994  32.942  12.436
83648W        W55908  13.722  35.554  12.855
83649W        W55909  21.299  19.219   4.040
83650W        W55910  24.632   2.571   0.898
83651W        W55911  17.155  27.096  12.987
83652W        W55912  13.153  28.361  12.382
83653W        W55913  16.165  20.079  14.353
83654W        W55914  11.090  43.232  12.492
83655W        W55915  44.260  30.799  13.610
83656W        W55916  44.006  16.809  11.652
83657W        W55917  36.541  27.148   0.241
83658W        W55918   8.737   0.478   3.392
83659W        W55919  43.802  35.203   0.482
83660W        W55920  41.925   2.736   2.862
83661W        W55921  10.286  10.520   4.028
83662W        W55922  26.114  12.273  10.452
83663W        W55923  32.570  44.456  13.797
83664W        W55924  22.026  23.142   4.502
83665W        W55925  41.269  23.104  11.664
83666W        W55926   8.094  28.449  12.386
83667W        W55927  10.769  44.923  14.762
83668W        W55928   7.909  16.653   0.742
83669W        W55929  41.480  34.885  11.622
83670W        W55930  38.082  19.184   2.519
83671W        W55931  37.802   8.314   2.868
83672W        W55932  27.520  31.933   1.920
83673W        W55933   2.459   4.342   1.254
83674W        W55934   8.907  30.148   0.924
83675W        W55935  14.366  10.954   2.371
83676W        W55936  11.642  36.999  11.002
83677W        W55937  24.280  19.230   0.818
83678W        W55938   4.296  19.999   3.209
83679W        W55939  11.859  44.510  14.329
83680W        W55940  20.142  14.128   3.512
83681W        W55941  20.567  41.048   3.892
83682W        W55942  18.975  32.626   1.257
83683W        W55943  30.945  10.884  11.515
83684W        W55944  34.577  18.029  11.384
83685W        W55945  44.360  33.960  14.080
83686W        W55946  37.139  16.118  11.251
83687W        W55947  38.078   4.846  12.572
83688W        W55948  43.101  40.729  10.632
83689W        W55949  14.119  19.964  11.378
83690W        W55950  34.509  15.700  11.425
83691W        W55951   0.301  16.475   2.050
83692W        W55952  15.628  16.826  13.993
83693W        W55953  36.955  21.058   3.221
83694W        W55954  31.976  12.788  10.662
83695W        W55955  35.723  16.372   0.247
83696W        W55956  23.072   2.481  13.799
83697W        W55957  38.913  10.766   2.286
83698W        W55958  33.208  44.417  13.005
83699W        W55959  32.088   1.299  14.676
83700W        W55960   4.470  23.806   2.667
83701W        W55961   5.837  40.836   4.517
83702W        W55962  24.113  16.625   4.629
83703W        W55963   1.052  19.590  13.931
83704W        W55964  41.477  29.813  12.083
83705W        W55965  25.440  30.566  12.449
83706W        W55966  24.149  44.750   4.271
83707W        W55967  16.515   8.277   1.366
83708W        W55968  25.706  30.982  10.821
83709W        W55969  21.709  10.507   2.427
83710W        W55970  40.813  17.205   1.425
83711W        W55971  25.639  38.563   3.766
83712W        W55972   0.083   7.842  11.442
83713W        W55973  32.661  18.534   1.810
83714W        W55974  12.900  21.066   1.809
83715W        W55975  26.446  39.061   1.198
83716W        W55976  32.466  35.395   1.323
83717W        W55977  16.518  17.490  14.357
83718W        W55978  26.899  36.406   1.187
83719W        W55979  39.317  23.983  12.994
83720W        W55980  12.071  27.853   2.790
83721W        W55981   3.451  26.193  12.083
83722W        W55982  22.010  33.490   2.840
83723W        W55983  10.644  32.939  13.613
83724W        W55984  16.855  25.453   0.394
83725W        W55985  42.598  29.363  14.208
83726W        W55986  44.988  30.061   4.679
83727W        W55987  34.709  24.166   0.359
83728W        W55988  14.117  26.977  10.348
83729W        W55989  36.428  38.477   1.442
83730W        W55990   0.398   8.250  14.302
83731W        W55991   4.581  19.584  14.136
83732W        W55992  43.019   7.348   4.087
83733W        W55993   1.942  39.955   4.612
83734W        W55994  36.056  31.959   1.328
83735W        W55995  16.771  22.711   0.196
83736W        W55996   8.755  12.106   1.213
83737W        W55997  36.429  29.122  14.957
83738W        W55998  26.511  33.042  12.030
83739W        W55999  22.744  14.786  12.345
83740W        W56000  37.489  22.987  11.539
83741W        W56001  28.639  41.027   0.972
83742W        W56002  27.461  11.151  10.620
83743W        W56003  25.452  15.267   2.831
83744W        W56004   8.671  22.797   4.310
83745W        W56005  17.680   5.452   5.428
83746W        W56006  25.952  22.189  11.471
83747W        W56007   4.745  15.555   0.906
83748W        W56008   2.246  27.709  13.483
83749W        W56009   0.061  27.905   3.535
83750W        W56010  23.739   1.392   0.814
83751W        W56011  28.538  42.280  11.522
83752W        W56012   9.934  37.092  13.859
83753W        W56013   3.044  24.006  12.057
83754W        W56014   1.281  25.666  13.897
83755W        W56015  18.970  16.453  14.912
83756W        W56016  19.719  31.131  14.351
83757W        W56017  19.347   1.197   2.293
83758W        W56018  34.577  24.127   3.634
83759W        W56019  38.996  12.546  13.989
83760W        W56020  38.402   6.770  12.141
83761W        W56021  39.883  22.984  11.606
83762W        W56022  24.199  12.132   1.699
83763W        W56023  37.968  29.537  10.340
83764W        W56024  18.106  13.611   4.599
83765W        W56025  35.116  29.836   3.612
83766W        W56026  14.373  39.500   1.829
83767W        W56027  42.807   6.492   5.092
83768W        W56028  29.949  44.404   4.708
83769W        W56029  21.997  28.810  13.378
83770W        W56030  17.887  22.975  11.404
83771W        W56031  18.172   9.824  13.362
83772W        W56032   0.943  20.164  13.433
83773W        W56033  44.898  44.438  14.298
83774W        W56034  16.643   6.028   0.901
83775W        W56035  22.616  29.837  11.428
83776W        W56036  11.693  40.962   2.237
83777W        W56037  38.407   7.253  10.226
83778W        W56038  33.824  33.474  11.969
83779W        W56039  18.037  38.894   2.387
83780W        W56040  21.661  23.519  12.568
83781W        W56041  38.864  32.432   4.449
83782W        W56042  16.965   8.257   4.049
83783W        W56043  36.427  11.272   4.160
83784W        W56044   6.292  21.522   0.602
83785W        W56045  20.214  15.780  14.509
83786W        W56046  43.655  23.794  11.453
83787W        W56047   8.896  32.863  11.230
83788W        W56048  31.287  24.246   0.859
83789W        W56049  42.370  42.336  13.952
83790W        W56050  20.940  36.813   0.794
83791W        W56051  22.655   2.387  11.403
83792W        W56052  28.937  30.447   4.838
83793W        W56053  30.650   0.746  12.898
83794W        W56054  17.369  27.689  14.167
83795W        W56055   3.675  40.994  13.949
83796W        W56056  39.074   1.533  13.717
83797W        W56057   9.304  21.884   4.852
83798W        W56058  36.747  41.469   3.233
83799W        W56059  38.347  26.571  14.431
83800W        W56060  15.802  19.496  11.082
83801W        W56061  15.236  21.002  14.839
83802W        W56062  11.381  28.802  12.952
83803W        W56063  11.779   0.994   2.264
83804W        W56064  11.591  23.609  14.022
83805W        W56065  33.679  42.282   2.265
83806W        W56066  19.249  27.243  12.657
83807W        W56067  40.086  16.711  12.141
83808W        W56068   6.700  14.759  13.018
83809W        W56069  18.330   1.711  13.433
83810W        W56070  42.103  31.521  11.043
83811W        W56071  11.814  41.638   3.488
83812W        W56072  12.245  25.975  12.910
83813W        W56073  10.702  37.399   1.891
83814W        W56074  11.758   5.008  13.530
83815W        W56075  16.376   8.503  11.220
83816W        W56076  33.586   1.125   5.153
83817W        W56077  12.256  31.326  10.612
83818W        W56078  22.234  39.441  14.763
83819W        W56079   1.855  38.809   4.089
83820W        W56080  38.822  23.547   2.675
83821W        W56081  23.377   7.443  14.775
83822W        W56082  26.936  41.298   1.415
83823W        W56083  14.609  30.004   2.810
83824W        W56084  43.516  12.213   0.747
83825W        W56085  35.299  12.701   2.369
83826W        W56086   1.272  27.040   4.258
83827W        W56087  10.297  43.814   2.945
83828W        W56088  35.016  21.283  10.975
83829W        W56089  28.371  10.839  14.407
83830W        W56090   3.450  25.915  11.663
83831W        W56091  12.743  41.753   4.516
83832W        W56092  30.674  29.799   5.123
83833W        W56093  42.269  14.880   4.521
83834W        W56094  16.625  27.497   0.507
83835W        W56095  20.998   7.213  11.193
83836W        W56096   3.207   0.326  14.703
83837W        W56097  39.220  30.237   3.651
83838W        W56098  11.867   4.265  13.073
83839W        W56099  30.581  30.498   3.384
83840W        W56100  12.746  12.198  13.422
83841W        W56101   1.219   0.068   2.182
83842W        W56102   9.205  24.599   3.711
83843W        W56103  34.541  44.884  12.814
83844W        W56104  19.603  34.554   1.216
83845W        W56105  16.958  14.630  12.714
83846W        W56106  16.748  10.676  10.678
83847W        W56107  35.982  17.152   0.878
83848W        W56108   3.041  33.184   2.777
83849W        W56109  22.030  13.830   2.856
83850W        W56110   6.388  11.671  14.452
83851W        W56111  41.828  41.418   4.031
83852W        W56112   7.828  41.730  11.955
83853W        W56113  35.716   6.824  12.444
83854W        W56114   1.286  31.422  13.045
83855W        W56115  32.027   0.097   2.324
83856W        W56116  12.398  44.879   2.182
83857W        W56117  31.648  38.012   1.158
83858W        W56118  18.091  38.773  13.278
83859W        W56119  21.913   6.978   0.952
83860W        W56120  15.021  14.085   5.613
83861W        W56121   3.833  42.779  12.510
83862W        W56122  29.488   1.782  10.997
83863W        W56123  42.130  36.619  12.049
83864W        W56124  25.783   7.527   4.477
83865W        W56125   4.904   0.413   4.402
83866W        W56126   8.775   3.001  12.857
83867W        W56127  10.107  42.523  13.942
83868W        W56128  12.076  22.621  13.008
83869W        W56129  11.845  39.538  11.594
83870W        W56130   3.295  32.147   4.120
83871W        W56131  26.361   1.188  11.922
83872W        W56132  34.796  23.450   1.805
83873W        W56133  12.810  18.230   1.376
83874W        W56134  14.890   3.789  12.382
83875W        W56135  41.282  43.734  12.494
83876W        W56136  38.069  40.983   2.692
83877W        W56137   6.149   2.664   0.376
83878W        W56138  31.546  11.343   3.226
83879W        W56139  16.856  18.922  14.895
83880W        W56140   5.233  19.226   1.926
83881W        W56141  39.966  25.577   4.725
83882W        W56142  12.560  25.157  12.357
83883W        W56143  44.366  20.602  10.710
83884W        W56144  21.985  36.195   3.768
83885W        W56145  12.072  34.505   1.781
83886W        W56146  20.054  31.192  11.041
83887W        W56147  10.554  17.027   1.357
83888W        W56148  34.918  21.151   1.790
83889W        W56149   6.157  15.654  10.220
83890W        W56150   6.976  32.933  13.428
83891W        W56151  11.682  17.687   2.655
83892W        W56152  24.527  38.098  10.466
83893W        W56153  30.424  16.190   2.709
83894W        W56154   3.552  41.464  11.468
83895W        W56155   1.723  28.891   3.174
83896W        W56156  29.483   6.376   2.283
83897W        W56157  37.342  14.404  12.678
83898W        W56158  37.554   1.759   2.924
83899W        W56159   0.972  23.127   3.247
83900W        W56160  40.874  16.674  13.918
83901W        W56161   6.466  28.578  12.916
83902W        W56162  40.777  41.463  11.659
83903W        W56163  15.345  35.439  14.211
83904W        W56164  35.981  17.004  10.723
83905W        W56165  32.935  25.491   0.206
83906W        W56166  17.337  19.295   5.035
83907W        W56167  36.318  23.183   1.180
83908W        W56168  14.348   2.873  10.459
83909W        W56169  14.370  21.570   3.685
83910W        W56170  30.901   5.136   0.110
83911W        W56171  44.520   1.008  11.146
83912W        W56172  24.533  10.148   3.236
83913W        W56173   7.865   4.304   3.588
83914W        W56174  42.927  11.575   4.633
83915W        W56175   1.724  33.121   4.190
83916W        W56176  24.683  44.024  10.388
83917W        W56177  24.186  31.345   4.111
83918W        W56178  41.811  15.302  11.623
83919W        W56179   1.239  30.549   1.731
83920W        W56180  44.739  34.487  14.800
83921W        W56181  35.945   5.148  11.061
83922W        W56182  20.376  12.846   0.383
83923W        W56183  12.312  23.541  12.948
83924W        W56184   4.739  43.446  11.489
83925W        W56185   1.495  42.347   0.752
83926W        W56186   7.968  10.568   2.367
83927W        W56187   2.539  13.914   2.634
83928W        W56188  42.526   0.376   3.965
83929W        W56189  21.001  43.014  13.304
83930W        W56190  42.783   1.514   1.758
83931W        W56191  10.246  18.673   3.384
83932W        W56192   3.502  40.922   1.620
83933W        W56193   9.953  44.587  14.392
83934W        W56194  37.341  29.616   0.776
83935W        W56195   8.013  25.084  13.890
83936W        W56196  27.017   4.969  14.774
83937W        W56197   9.198  26.714  11.325
83938W        W56198  44.568   0.399   2.715
83939W        W56199  29.465  18.348  11.035
83940W        W56200  37.352  25.129  13.880
83941W        W56201  27.877  34.892   1.281
83942W        W56202  33.938  21.197  11.140
83943W        W56203  40.431  40.693  14.502
83944W        W56204  20.707  44.976  12.343
83945W        W56205  19.838  35.526   1.854
83946W        W56206   5.670   3.753  12.904
83947W        W56207   2.422   9.460   4.459
83948W        W56208  22.132  32.006   2.905
83949W        W56209   7.351  41.051   2.211
83950W        W56210  33.576  44.510  11.115
83951W        W56211  29.151  41.839   2.981
83952W        W56212  20.245   3.000   4.248
83953W        W56213  27.916   2.209  13.909
83954W        W56214  42.952  28.203   0.528
83955W        W56215  12.877  43.077   3.764
83956W        W56216  38.466   1.971  14.887
83957W        W56217  39.312  20.006  11.025
83958W        W56218   6.124  12.584   0.389
83959W        W56219   0.259  29.026   4.062
83960W        W56220  19.151  17.030  12.478
83961W        W56221   8.219  39.288   0.230
83962W        W56222  30.587  23.023  10.643
83963W        W56223  35.627  33.015   2.254
83964W        W56224  16.570  22.730  11.591
83965W        W56225  27.951  36.855   3.228
83966W        W56226  14.643  36.514   2.128
83967W        W56227   7.277  42.042  10.650
83968W        W56228  23.543  24.407  12.598
83969W        W56229  13.462  26.556  13.582
83970W        W56230   8.848  43.540   3.640
83971W        W56231  40.121  11.652  12.369
83972W        W56232  35.511   0.533   4.180
83973W        W56233   0.012  27.552  12.871
83974W        W56234  28.067   7.240   4.663
83975W        W56235   7.902  38.854  13.576
83976W        W56236  28.939  24.659   0.890
83977W        W56237  25.174   2.399  11.111
83978W        W56238  24.163  33.456   2.653
83979W        W56239  33.031   3.766   1.327
83980W        W56240  13.931  26.746  13.464
83981W        W56241  37.370   9.700   3.427
83982W        W56242  28.940  11.785   4.606
83983W        W56243  10.636  15.197  10.735
83984W        W56244  27.679   4.941  13.164
83985W        W56245   6.469   1.247  14.936
83986W        W56246  25.953  36.337  13.762
83987W        W56247  20.477  12.727  14.799
83988W        W56248  11.913  13.909   2.269
83989W        W56249  29.484   4.656  12.641
83990W        W56250  26.500  27.520   4.987
83991W        W56251   6.202  35.805  13.040
83992W        W56252  17.278  38.829  13.059
83993W        W56253  15.183  42.935  12.085
83994W        W56254   5.288   1.055  11.716
83995W        W56255  28.020  43.275  10.777
83996W        W56256   0.284  17.562  11.026
83997W        W56257  32.544  23.993   1.893
83998W        W56258  20.741   1.643   4.178
83999W        W56259  39.086  15.226   1.427
84000W        W56260  43.438  29.655  14.980
84001W        W56261   9.888  21.194  10.734
84002W        W56262  30.543  19.118  14.119
84003W        W56263  32.434   0.063   0.915
84004W        W56264  13.246  31.442   1.346
84005W        W56265  24.719   9.677  11.643
84006W        W56266  33.722  44.849   4.166
84007W        W56267  33.629  44.681  12.912
84008W        W56268  28.559  13.106  13.856
84009W        W56269  36.870  20.678  12.592
84010W        W56270  28.962   4.694  10.607
84011W        W56271  23.749  11.751  13.414
84012W        W56272   5.282  19.174   4.588
84013W        W56273  25.561  25.714  11.558
84014W        W56274   2.087  30.527   0.487
84015W        W56275  30.444  12.133  14.467
84016W        W56276   1.004  36.084   3.143
84017W        W56277  42.732  24.921  13.508
84018W        W56278  34.441  10.057  13.351
84019W        W56279  30.969  32.446  14.792
84020W        W56280  22.038   6.426  12.986
84021W        W56281   7.406  41.492   4.802
84022W        W56282  38.420  13.645   2.934
84023W        W56283  11.687  43.969  13.297
84024W        W56284  12.144  44.755   0.935
84025W        W56285  24.314   9.850   4.422
84026W        W56286  15.026  39.323  10.603
84027W        W56287   6.240   4.652  14.801
84028W        W56288  14.850  37.456  13.939
84029W        W56289   8.247  27.496  13.929
84030W        W56290  31.090  44.869  14.289
84031W        W56291  18.193   8.161   4.144
84032W        W56292  26.511   4.502   1.400
84033W        W56293  37.363  26.567  12.123
84034W        W56294  41.006  18.597   2.633
84035W        W56295  19.193  21.018   2.793
84036W        W56296  15.433  19.981  12.965
84037W        W56297  10.682   2.320   1.636
84038W        W56298  37.338   3.975   0.194
84039W        W56299  20.184  23.489  11.008
84040W        W56300   8.754  22.689  14.050
84041W        W56301   7.889  42.423  11.115
84042W        W56302   8.302   6.542  14.837
84043W        W56303  24.558  16.904  13.947
84044W        W56304  35.399  42.502   3.742
84045W        W56305  44.731  41.375  12.383
84046W        W56306  29.626   7.161   0.945
84047W        W56307   9.706  14.589   1.803
84048W        W56308  19.451   6.826   4.910
84049W        W56309  33.040  29.373   2.749
84050W        W56310  23.194  25.199   3.589
84051W        W56311  12.107  18.116  11.665
84052W        W56312  22.012  41.270  10.644
84053W        W56313   6.572  41.233   3.324
84054W        W56314   5.631  25.069  13.356
84055W        W56315  24.633  32.943  14.229
84056W        W56316  17.441  41.751   1.728
84057W        W56317  34.964   4.269   1.269
84058W        W56318  17.133  30.474   0.538
84059W        W56319   5.721  31.486  11.891
84060W        W56320  35.364  41.286  10.715
84061W        W56321  44.527  29.176  13.034
84062W        W56322   1.984  17.780  14.505
84063W        W56323  43.374  37.708   1.578
84064W        W56324  14.648  18.271   0.225
84065W        W56325  11.120  14.753  14.287
84066W        W56326  14.595   9.187   1.539
84067W        W56327  24.100  40.797   0.380
84068W        W56328  44.842   8.123  14.081
84069W        W56329  20.052   1.688   3.307
84070W        W56330  42.502  21.553  11.883
84071W        W56331  19.686   7.128   0.346
84072W        W56332  42.593  39.371  12.950
84073W        W56333   6.429  25.177  12.070
84074W        W56334  13.663  40.683   4.844
84075W        W56335  20.570  29.476   2.831
84076W        W56336  40.291  16.106  12.925
84077W        W56337  28.948   8.597  13.552
84078W        W56338  33.486  20.538  10.432
84079W        W56339   4.692  19.731  12.436
84080W        W56340   4.367  43.830  13.732
84081W        W56341   8.778   5.238   2.379
84082W        W56342  33.402   0.006   4.984
84083W        W56343  30.386  10.385  11.502
84084W        W56344   2.488  10.301  12.965
84085W        W56345  33.081  38.115  12.913
84086W        W56346  23.962   3.715   2.363
84087W        W56347  11.167   1.326   0.884
84088W        W56348  28.260  43.798  12.504
84089W        W56349   0.008   3.503  13.909
84090W        W56350  37.969  15.938   0.398
84091W        W56351  16.991  26.680   4.551
84092W        W56352  17.472  38.831   4.097
84093W        W56353  27.400  21.586  14.062
84094W        W56354  21.267  38.121  12.018
84095W        W56355   2.666  40.366  12.358
84096W        W56356  13.641  34.646   0.917
84097W        W56357  38.252  22.164  11.176
84098W        W56358  19.648  31.726  11.129
84099W        W56359  24.956  44.419   4.650
84100W        W56360   0.670  33.846  12.491
84101W        W56361  18.696  32.134   0.295
84102W        W56362   1.323  21.237   1.724
84103W        W56363  13.124   1.739   0.981
84104W        W56364  32.849  29.876   2.764
84105W        W56365  25.847   4.195  14.486
84106W        W56366  15.201  14.922   9.802
84107W        W56367  30.135  11.725   0.809
84108W        W56368  17.284  37.840   1.411
84109W        W56369  43.496  16.662  14.913
84110W        W56370  18.739  35.566   0.312
84111W        W56371   0.439  18.980  12.481
84112W        W56372  14.889  12.048   0.801
84113W        W56373  32.141  40.137  14.409
84114W        W56374   3.488   4.317   3.197
84115W        W56375  37.575  17.243   0.364
84116W        W56376   5.462  41.795  12.227
84117W        W56377  21.258  13.173  13.755
84118W        W56378  20.808  15.606  10.896
84119W        W56379  30.938  15.374  12.906
84120W        W56380   0.272   8.917  13.576
84121W        W56381  12.811   5.113   1.750
84122W        W56382  32.390  35.061   1.747
84123W        W56383  40.754   6.012   3.270
84124W        W56384  25.586   1.332  13.044
84125W        W56385  14.578  11.237  11.627
84126W        W56386  19.555  30.702   2.831
84127W        W56387   8.560  42.494  13.653
84128W        W56388  34.816  30.658  13.631
84129W        W56389   5.978  20.727   4.895
84130W        W56390  28.169  44.188   1.814
84131W        W56391   0.164  29.529  12.844
84132W        W56392  27.723  35.856   3.658
84133W        W56393   0.865  16.850  11.337
84134W        W56394   6.119  23.314  11.171
84135W        W56395  39.476  37.949  11.178
84136W        W56396  42.337  35.292   1.345
84137W        W56397   9.297  35.669  12.399
84138W        W56398   4.759  30.608   3.977
84139W        W56399  36.344  15.077   0.927
84140W        W56400   6.413  11.755   1.445
84141W        W56401   2.939  23.229  11.627
84142W        W56402  35.511  16.549   4.893
84143W        W56403  42.039  28.016  14.775
84144W        W56404  11.656  32.643   2.754
84145W        W56405  12.241   9.312  12.478
84146W        W56406  40.111   3.414   3.285
84147W        W56407  13.042  20.201  11.375
84148W        W56408  43.002   0.547  11.618
84149W        W56409  13.340  44.502  12.095
84150W        W56410  19.683  28.591   3.743
84151W        W56411  43.282   9.451   2.368
84152W        W56412  18.437   0.844   2.328
84153W        W56413  36.851  34.892   1.366
84154W        W56414  22.689  25.961  11.124
84155W        W56415  10.855  24.615  10.761
84156W        W56416  20.098   5.580   5.518
84157W        W56417  27.508   4.378  11.554
84158W        W56418  10.064   4.725  12.915
84159W        W56419  30.119   2.467  13.761
84160W        W56420  28.982  37.584  13.753
84161W        W56421  28.576   2.294   1.995
84162W        W56422  34.876  14.674  11.752
84163W        W56423   0.847  10.365  12.920
84164W        W56424  26.139  25.222   1.012
84165W        W56425  29.574  35.557  13.685
84166W        W56426  31.489  44.830   4.277
84167W        W56427   4.026  32.429  10.667
84168W        W56428  42.871  18.065  11.704
84169W        W56429  40.949   7.236   4.737
84170W        W56430   1.515  17.361  13.794
84171W        W56431  15.821  24.073  10.787
84172W        W56432  28.195   9.779  10.520
84173W        W56433   9.330  27.214   0.900
84174W        W56434  34.679  28.154   1.859
84175W        W56435   0.397  20.643   0.789
84176W        W56436  32.001   3.968   1.112
84177W        W56437  28.448   6.005   4.107
84178W        W56438  11.486  31.965  14.759
84179W        W56439  21.214  38.615  11.105
84180W        W56440  33.391   1.379  14.532
84181W        W56441   2.559  17.751   2.713
84182W        W56442  37.621  32.992   1.373
84183W        W56443   1.271   5.429   2.098
84184W        W56444  12.984  44.495   3.786
84185W        W56445  40.210  43.879  13.451
84186W        W56446  32.907  30.174   2.276
84187W        W56447   8.184  31.570   0.387
84188W        W56448  31.599   5.368  10.942
84189W        W56449  38.026  30.433   1.798
84190W        W56450  33.496  43.790  10.654
84191W        W56451  11.706   9.844   1.181
84192W        W56452  27.020  23.828   0.819
84193W        W56453  12.359  20.208   4.777
84194W        W56454  34.151  15.119   0.791
84195W        W56455   5.525  29.060  10.083
84196W        W56456   7.229  14.486  10.744
84197W        W56457  24.764  29.056  13.984
84198W        W56458  26.470   9.593   0.719
84199W        W56459  40.503  17.798  14.699
84200W        W56460  29.928  37.386   1.405
84201W        W56461  12.159  30.006  14.404
84202W        W56462  31.507  27.910  12.156
84203W        W56463  43.998   6.730   3.610
84204W        W56464  24.155  18.065  12.058
84205W        W56465  33.253  36.384  13.577
84206W        W56466  31.361  20.668  13.550
84207W        W56467  10.776  21.233   2.329
84208W        W56468  43.564  39.077   3.178
84209W        W56469  28.617  10.677   1.701
84210W        W56470  38.495  36.008   4.151
84211W        W56471  22.737   3.884  14.921
84212W        W56472  14.376  19.238  14.741
84213W        W56473  37.915  27.605   1.675
84214W        W56474  16.140  16.691  10.323
84215W        W56475  19.560  10.653   0.890
84216W        W56476  39.309  11.675  11.120
84217W        W56477   9.123  12.576   4.586
84218W        W56478  10.907   6.821   0.360
84219W        W56479  40.967  11.828   1.596
84220W        W56480  15.069  11.594  14.962
84221W        W56481  36.326   1.317   3.057
84222W        W56482  31.397  35.509   3.456
84223W        W56483   0.849  29.656  11.721
84224W        W56484  29.476   1.962   4.663
84225W        W56485   4.766  22.951  13.945
84226W        W56486  11.377  34.130  14.381
84227W        W56487  21.473  16.200   3.098
84228W        W56488  22.663  26.681   4.613
84229W        W56489  24.410  24.244  13.914
84230W        W56490  11.908   6.026  14.312
84231W        W56491   4.347  17.841   1.995
84232W        W56492  39.446  16.852  13.360
84233W        W56493   5.340  27.915   0.038
84234W        W56494  33.069  14.100   0.404
84235W        W56495  24.240   4.729  11.507
84236W        W56496  42.000  38.137  11.398
84237W        W56497  29.393  18.755   3.539
84238W        W56498  26.542  38.455   2.930
84239W        W56499  37.824  37.891  11.826
84240W        W56500  25.734  26.190  11.315
84241W        W56501  19.826  25.499   3.173
84242W        W56502  18.634  27.710  14.402
84243W        W56503  11.114  35.325  14.682
84244W        W56504  44.135  18.385  13.607
84245W        W56505   8.284  14.111   3.861
84246W        W56506   0.925   7.930  11.282
84247W        W56507  16.557  37.275   1.497
84248W        W56508  18.752  43.254  12.767
84249W        W56509  26.604  16.982  12.026
84250W        W56510   9.705   8.372   2.447
84251W        W56511   4.336  10.793  12.182
84252W        W56512  14.113  15.343   3.218
84253W        W56513  28.613  30.110  14.456
84254W        W56514  24.604  21.673   3.916
84255W        W56515  30.109  28.147   0.362
84256W        W56516  38.798   5.733  14.850
84257W        W56517  12.790  30.029   1.677
84258W        W56518  28.697   0.499   4.031
84259W        W56519  31.397  28.692  13.465
84260W        W56520  32.106   3.278   2.633
84261W        W56521  35.905  22.532   1.845
84262W        W56522  31.612  13.598  14.231
84263W        W56523  36.543  23.177   4.133
84264W        W56524  44.807  22.961  11.147
84265W        W56525  21.589  25.687  11.059
84266W        W56526  24.567   4.291  14.693
84267W        W56527  21.519  14.208  11.458
84268W        W56528  29.982   3.458   0.351
84269W        W56529  41.381  40.148   1.869
84270W        W56530  32.000  44.988  11.321
84271W        W56531  16.991  26.495  11.500
84272W        W56532  14.809  15.799  13.076
84273W        W56533  10.295   4.967  13.297
84274W        W56534  12.390   5.821  13.396
84275W        W56535  35.742   9.047   3.615
84276W        W56536  32.169  15.728   4.557
84277W        W56537  33.374  27.073   2.394
84278W        W56538  15.098   6.195   2.894
84279W        W56539  25.092  35.686   3.773
84280W        W56540  32.532  17.365   4.933
84281W        W56541  12.296   9.814  11.515
84282W        W56542  31.471  40.559  12.466
84283W        W56543  10.735  18.656  12.704
84284W        W56544  32.374  10.832   3.410
84285W        W56545  10.288   3.612  14.950
84286W        W56546   2.245  32.516  11.209
84287W        W56547  37.095  27.210   4.620
84288W        W56548  39.937  34.400   0.311
84289W        W56549   6.889   9.153   0.471
84290W        W56550  13.028  41.496  12.024
84291W        W56551  40.406   2.392  13.133
84292W        W56552  12.112  35.453  14.496
84293W        W56553  10.297  40.106   4.105
84294W        W56554  17.528   8.157   2.233
84295W        W56555  30.860  38.996   3.374
84296W        W56556  40.795  23.500   2.167
84297W        W56557  19.627  23.928   3.745
84298W        W56558  20.738   4.818  11.198
84299W        W56559  27.244  36.637   0.236
84300W        W56560  19.689  38.304   0.535
84301W        W56561  44.989   0.026  12.022
84302W        W56562  30.127  22.832  12.563
84303W        W56563   6.300  19.606   3.741
84304W        W56564   3.686  30.559   3.675
84305W        W56565  26.516  27.068   1.275
84306W        W56566   4.734   9.711  11.077
84307W        W56567  31.964  35.374  14.883
84308W        W56568   5.078  23.543  14.798
84309W        W56569  27.123  34.958   3.856
84310W        W56570  35.873   0.755   4.646
84311W        W56571  19.398   9.717   4.564
84312W        W56572  15.748   9.253  11.757
84313W        W56573  13.590  30.698   2.317
84314W        W56574  37.073   8.246   5.250
84315W        W56575  23.951   2.474  13.909
84316W        W56576  11.010  18.059   0.359
84317W        W56577   6.348  36.067   3.837
84318W        W56578  35.281   1.435   1.263
84319W        W56579   4.456  12.398  12.903
84320W        W56580   0.331  41.562  11.692
84321W        W56581   0.500  32.440  11.569
84322W        W56582  39.841  41.284  11.195
84323W        W56583   2.529  20.310   4.624
84324W        W56584  38.678  27.513  10.243
84325W        W56585  41.755  21.047   9.922
84326W        W56586  29.360  40.511   0.468
84327W        W56587  30.491   3.335   0.304
84328W        W56588  21.903  28.781   9.664
84329W        W56589   0.071  11.876  13.080
84330W        W56590   1.157  25.129   1.849
84331W        W56591  32.660  15.779  10.863
84332W        W56592  35.945  29.760   1.914
84333W        W56593  24.228  34.868  11.069
84334W        W56594  35.597  28.821  14.286
84335W        W56595  27.639  14.430  10.838
84336W        W56596   4.203  33.791  11.596
84337W        W56597  33.063  27.980  11.022
84338W        W56598  16.559  24.291  13.554
84339W        W56599  11.420  30.532  11.174
84340W        W56600   6.440  37.429  12.673
84341W        W56601   3.645  24.898   4.102
84342W        W56602   1.296  15.399   1.155
84343W        W56603  26.652  41.402  11.593
84344W        W56604  44.215   5.622   5.107
84345W        W56605  32.846  11.252  10.635
84346W        W56606  37.278  38.854   0.484
84347W        W56607  31.755   6.769  12.556
84348W        W56608   3.716  11.752  14.399
84349W        W56609  21.711  25.752  14.439
84350W        W56610  40.877  40.797   3.770
84351W        W56611  16.425  14.615   5.506
84352W        W56612  37.106  44.399   0.315
84353W        W56613  20.071   3.526   4.294
84354W        W56614  33.972  10.874  11.081
84355W        W56615  41.026  35.042   0.235
84356W        W56616  43.432  16.174   4.342
84357W        W56617  12.818  11.252   4.667
84358W        W56618  18.693   1.735  11.687
84359W        W56619  21.784  17.190  13.936
84360W        W56620   3.851  35.009   3.204
84361W        W56621  36.430  41.362  10.695
84362W        W56622  24.349   3.425   1.007
84363W        W56623   6.498  15.823  11.130
84364W        W56624  39.832  43.757  10.723
84365W        W56625   7.438  16.505   3.559
84366W        W56626  31.849   6.865  11.230
84367W        W56627   1.307  16.789  11.570
84368W        W56628  36.620  11.166  10.659
84369W        W56629  32.171   9.137   3.234
84370W        W56630  21.791  16.501   2.825
84371W        W56631  43.178  11.373  12.523
84372W        W56632  34.747   5.676  13.493
84373W        W56633  14.062  39.865   4.315
84374W        W56634   4.096  43.741   0.904
84375W        W56635  11.203   8.881   3.679
84376W        W56636   5.847  39.533  14.747
84377W        W56637  37.949  21.262  14.991
84378W        W56638   1.669  29.200  13.453
84379W        W56639  22.612   4.142   1.372
84380W        W56640  44.296  10.177   2.743
84381W        W56641   7.743  13.412   1.838
84382W        W56642  31.056  12.873  13.174
84383W        W56643  40.280  38.890   4.114
84384W        W56644   3.829  34.624  10.829
84385W        W56645  31.824   6.823   2.580
84386W        W56646   2.241  26.132   2.811
84387W        W56647  26.250   2.381  13.333
84388W        W56648  19.160   8.523  12.037
84389W        W56649  41.294  29.986  14.592
84390W        W56650  13.663  13.396   0.674
84391W        W56651  23.078  10.374  11.676
84392W        W56652   9.067   6.872  12.830
84393W        W56653  30.207  30.468  11.135
84394W        W56654  17.658  15.675  11.656
84395W        W56655  33.510  41.037  13.934
84396W        W56656  13.109  10.766   0.459
84397W        W56657  17.270  27.965   5.025
84398W        W56658  35.410  31.444  14.210
84399W        W56659   8.692  23.744   0.525
84400W        W56660  27.956  42.769   0.748
84401W        W56661   8.701  20.660  10.944
84402W        W56662  14.205  43.296  14.954
84403W        W56663  27.749  42.376   3.600
84404W        W56664  29.448   1.332   1.021
84405W        W56665  32.657  11.681   4.286
84406W        W56666   2.355  11.196  14.198
84407W        W56667  19.280  26.287   4.680
84408W        W56668  43.925  22.692  10.745
84409W        W56669  14.230   8.238   0.854
84410W        W56670  34.990  14.135   1.283
84411W        W56671  31.079  30.318   2.285
84412W        W56672  30.968   9.890   2.404
84413W        W56673   1.015  38.469  13.976
84414W        W56674   1.167  39.065   2.797
84415W        W56675  28.887  25.089  10.494
84416W        W56676  17.341  28.680   0.931
84417W        W56677   3.677  23.182  12.978
84418W        W56678  19.770  19.625   5.055
84419W        W56679  43.756   7.673   3.793
84420W        W56680  31.582   3.310   0.996
84421W        W56681  19.131   8.472  14.330
84422W        W56682  16.135  15.172   4.037
84423W        W56683   1.737  36.974  11.447
84424W        W56684  20.619  40.835   2.406
84425W        W56685  26.967  28.905   2.750
84426W        W56686  41.967  11.274   2.849
84427W        W56687  19.495   0.485  13.046
84428W        W56688  33.038  36.783  11.436
84429W        W56689   4.304   2.430  11.537
84430W        W56690  26.002  19.525   2.487
84431W        W56691  24.243  31.903   3.277
84432W        W56692  31.916  16.773   2.995
84433W        W56693  37.062  27.505   3.269
84434W        W56694  29.211   5.764   3.792
84435W        W56695  23.170  35.340  12.460
84436W        W56696   2.719  36.318   2.819
84437W        W56697  43.056   7.164   9.909
84438W        W56698   0.993  35.907  12.041
84439W        W56699   7.809  12.692   4.593
84440W        W56700  17.575  25.123  10.816
84441W        W56701  16.668  44.855  12.485
84442W        W56702  25.034   8.349  13.977
84443W        W56703  23.176   6.724   4.601
84444W        W56704  19.535  14.661   0.337
84445W        W56705  16.164   2.984  10.620
84446W        W56706  29.726   2.485   4.601
84447W        W56707  32.386  37.141   3.796
84448W        W56708   7.446  28.535  11.357
84449W        W56709   3.525   8.728  12.385
84450W        W56710   1.864  36.150  11.158
84451W        W56711  16.182  19.147  11.677
84452W        W56712  15.441  31.605   3.135
84453W        W56713  34.503  37.508   0.292
84454W        W56714  36.795  21.778  14.686
84455W        W56715   1.065  11.760  11.179
84456W        W56716  37.658   2.508  12.031
84457W        W56717  24.467  33.429   4.375
84458W        W56718  13.344  42.698   3.362
84459W        W56719  44.458  37.918   2.304
84460W        W56720  31.510  24.408   4.475
84461W        W56721  27.224  37.383  11.857
84462W        W56722  10.246   3.378   2.826
84463W        W56723  19.509  18.534   4.182
84464W        W56724  17.652   8.393   9.752
84465W        W56725  28.072  11.032  10.211
84466W        W56726  38.015   9.592   5.496
84467W        W56727  43.298  14.789  14.165
84468W        W56728  37.786  37.465  11.533
84469W        W56729   8.131   1.337   1.843
84470W        W56730   7.306  17.591  14.450
84471W        W56731  13.021   3.969  12.204
84472W        W56732  26.044  36.400  14.772
84473W        W56733   1.173  17.614  11.118
84474W        W56734  13.954   5.484  14.675
84475W        W56735   4.815  42.907   1.157
84476W        W56736  26.067  35.421  13.024
84477W        W56737  41.951  41.789   0.980
84478W        W56738  19.829  16.333  14.888
84479W        W56739  30.623   3.341  11.942
84480W        W56740   3.273  36.453   3.660
84481W        W56741  16.985  32.965  11.369
84482W        W56742   3.337  27.902  10.468
84483W        W56743  10.185  39.626  14.401
84484W        W56744  18.246  34.317  11.211
84485W        W56745  19.773  28.653  12.105
84486W        W56746  13.698  10.563  12.353
84487W        W56747  20.090  33.969  14.352
84488W        W56748  30.872  43.071  14.928
84489W        W56749  32.231  41.963  12.552
84490W        W56750  14.278  10.157   0.645
84491W        W56751   6.304  44.101   1.498
84492W        W56752   1.533  35.781  11.158
84493W        W56753  25.692  26.136   1.983
84494W        W56754  41.786  40.860  12.791
84495W        W56755  30.385  21.464   2.311
84496W        W56756  15.190  14.580  12.339
84497W        W56757  36.270  22.629  11.978
84498W        W56758   9.914   2.626   0.822
84499W        W56759   4.212  41.235  12.232
84500W        W56760  39.064  39.336   0.808
84501W        W56761  35.562  36.933  13.422
84502W        W56762  11.178  36.812   1.788
84503W        W56763  30.414  32.150   1.796
84504W        W56764   6.742  35.872  10.915
84505W        W56765  34.943  16.920   4.041
84506W        W56766  34.388  12.614  14.534
84507W        W56767  20.838  30.099  12.092
84508W        W56768  17.458   5.008   2.235
84509W        W56769   3.497  17.771  13.071
84510W        W56770   3.273  13.092   4.620
84511W        W56771  11.623   3.501  13.396
84512W        W56772   1.662  25.000  13.911
84513W        W56773  44.790  34.878  14.064
84514W        W56774   1.777  28.095   3.495
84515W        W56775  40.405  15.133  13.887
84516W        W56776  28.125   2.068  11.215
84517W        W56777  13.298  22.276  14.027
84518W        W56778  34.582   7.131   2.428
84519W        W56779  36.650   8.872  13.572
84520W        W56780  38.728  18.167  13.530
84521W        W56781  41.600   9.198   1.480
84522W        W56782   2.664  26.413   2.737
84523W        W56783  14.872  18.333   4.155
84524W        W56784   1.697  41.901   3.692
84525W        W56785  35.871  18.361   1.822
84526W        W56786  26.133  35.132  11.383
84527W        W56787   2.773  25.750   3.686
84528W        W56788  32.152  28.152   1.321
84529W        W56789  40.329   7.368  12.598
84530W        W56790   8.455  39.938   4.087
84531W        W56791  23.065  13.847  12.029
84532W        W56792  23.168   6.248  13.856
84533W        W56793   7.683  44.367  14.516
84534W        W56794  19.674  36.871   3.205
84535W        W56795  15.029  35.293  13.240
84536W        W56796  41.533  25.939   0.922
84537W        W56797  32.155  37.374  12.588
84538W        W56798  24.587  29.553   4.074
84539W        W56799  26.550  23.319  12.649
84540W        W56800  17.757   9.263   1.462
84541W        W56801   3.965  43.344  14.394
84542W        W56802  22.623  23.035  10.591
84543W        W56803   0.022  16.555  11.735
84544W        W56804  25.173  24.375  13.145
84545W        W56805  34.062  28.126  14.252
84546W        W56806  22.463  33.519  11.932
84547W        W56807  18.714  41.330  12.627
84548W        W56808  34.995  40.859   0.975
84549W        W56809  11.282  10.272   4.604
84550W        W56810  17.011   4.621   4.127
84551W        W56811  25.955  20.591  12.116
84552W        W56812  38.790   3.795  13.957
84553W        W56813  28.706  24.649   2.581
84554W        W56814  32.286  37.102   2.269
84555W        W56815  23.951   3.244   1.419
84556W        W56816  41.284   8.215   2.901
84557W        W56817  22.068  32.733   1.292
84558W        W56818  29.868  43.882  11.163
84559W        W56819  22.708   7.297   4.190
84560W        W56820  33.945  14.521   4.739
84561W        W56821  20.101  12.618   2.722
84562W        W56822  27.562  30.606   4.206
84563W        W56823  18.543  29.019  10.586
84564W        W56824  14.270   0.620   0.292
84565W        W56825  37.485  35.537   2.114
84566W        W56826  13.046  44.837   2.805
84567W        W56827  25.978  43.719  13.521
84568W        W56828   9.259  19.005  12.858
84569W        W56829  26.065  36.444  14.254
84570W        W56830  44.570   4.781   4.420
84571W        W56831   8.451  29.771   1.832
84572W        W56832  22.515  14.345   3.724
84573W        W56833  39.398  21.498  12.035
84574W        W56834  23.664  18.460   4.984
84575W        W56835  44.246   1.947  10.096
84576W        W56836  15.812  32.085   2.554
84577W        W56837  37.369  18.600   1.967
84578W        W56838  22.710  35.518   0.650
84579W        W56839  34.859  26.394   0.272
84580W        W56840   0.359  13.956  11.598
84581W        W56841   2.161   9.635   3.184
84582W        W56842   8.419  29.443   4.594
84583W        W56843  18.620  33.648   1.181
84584W        W56844  38.903  20.349  11.070
84585W        W56845  42.241  43.915   0.883
84586W        W56846  39.562  25.721  11.574
84587W        W56847  24.724  38.613   4.473
84588W        W56848  18.521  16.664   2.890
84589W        W56849  20.197  39.248  13.079
84590W        W56850  37.411  31.874   3.784
84591W        W56851  14.070  14.508  10.203
84592W        W56852  16.839  22.006   1.751
84593W        W56853  14.164   8.490   1.330
84594W        W56854  13.491   4.304  14.803
84595W        W56855  10.049  42.831  14.348
84596W        W56856  43.498  25.801  10.426
84597W        W56857  19.352  41.695   3.294
84598W        W56858  41.659  21.486  13.325
84599W        W56859  27.446   0.450  12.570
84600W        W56860  22.682  39.824   0.411
84601W        W56861  14.595  32.854   2.065
84602W        W56862  25.119   0.543   3.599
84603W        W56863  23.609  22.273  10.598
84604W        W56864  31.919  19.623   5.063
84605W        W56865  39.188  13.276   5.044
84606W        W56866  15.175  22.798   1.913
84607W        W56867   2.831  39.448   0.461
84608W        W56868   0.032  44.505   2.931
84609W        W56869   0.763  20.833   2.293
84610W        W56870  28.666   5.769  11.697
84611W        W56871   9.909  11.221   4.469
84612W        W56872  36.569  11.442  11.100
84613W        W56873  40.863  36.488  11.386
84614W        W56874  19.760   5.882  12.738
84615W        W56875  18.010   6.323  11.213
84616W        W56876  42.477  18.101   0.053
84617W        W56877  40.746  44.026   3.517
84618W        W56878  21.434  22.135   0.937
84619W        W56879  39.086  43.905  11.091
84620W        W56880  12.149  26.667   0.850
84621W        W56881  31.471   6.336   0.463
84622W        W56882  29.065  12.816  11.897
84623W        W56883  12.607   7.435   0.014
84624W        W56884  16.084   8.176  12.018
84625W        W56885  23.869   5.361  13.436
84626W        W56886  36.426   1.919  14.964
84627W        W56887  20.032  22.406  13.059
84628W        W56888   7.610   2.195   2.832
84629W        W56889  33.029   2.274   1.407
84630W        W56890  25.153   2.666   4.281
84631W        W56891  35.820  43.868  14.071
84632W        W56892  12.570  23.555  12.502
84633W        W56893   6.233  29.490   1.210
84634W        W56894  30.356  43.317   1.722
84635W        W56895   8.017  27.521  11.467
84636W        W56896   5.774  28.038  12.943
84637W        W56897  24.428  27.414  10.636
84638W        W56898  10.341  11.043   4.110
84639W        W56899  13.607  36.489   1.218
84640W        W56900  14.532  32.963   3.550
84641W        W56901  43.500  28.041   1.280
84642W        W56902  31.895  21.753   2.461
84643W        W56903  23.612  10.655   4.652
84644W        W56904   3.737   9.612  11.231
84645W        W56905  35.564  34.507  14.010
84646W        W56906   0.685   8.222  12.478
84647W        W56907  23.649  12.188  11.767
84648W        W56908  39.337  20.255   4.572
84649W        W56909   0.370   1.781  12.403
84650W        W56910  11.369  11.175   4.830
84651W        W56911   1.102  44.947   0.552
84652W        W56912  38.064  39.066  12.394
84653W        W56913   5.416  31.720   4.337
84654W        W56914  10.126  12.075  11.207
84655W        W56915  33.999  26.993  13.350
84656W        W56916  43.364  35.599   2.966
84657W        W56917   6.697  24.418  11.529
84658W        W56918  18.840  36.373  14.917
84659W        W56919  29.215  44.001   4.706
84660W        W56920  44.770  34.291   2.717
84661W        W56921   5.748   8.826  14.728
84662W        W56922  17.647   5.644   1.668
84663W        W56923  18.330  28.222   3.262
84664W        W56924  29.737  29.585   9.992
84665W        W56925   2.743  20.589  11.234
84666W        W56926  40.414  11.709  13.019
84667W        W56927  31.168   8.269  11.312
84668W        W56928  29.698   6.198  11.956
84669W        W56929   6.247   2.793  13.046
84670W        W56930  23.430  36.318   4.675
84671W        W56931  32.002  26.237  14.843
84672W        W56932  37.112  20.372   1.686
84673W        W56933   4.474  42.184  12.385
84674W        W56934  28.653  12.582   0.188
84675W        W56935  43.460  17.570   0.314
84676W        W56936  23.875  14.420   5.051
84677W        W56937  11.746  11.396   1.693
84678W        W56938   3.020  20.000   2.347
84679W        W56939   4.233  41.981   2.966
84680W        W56940   9.405  40.620  13.838
84681W        W56941   9.668   4.012  14.497
84682W        W56942   5.489  27.714  11.149
84683W        W56943  38.519  36.847  14.669
84684W        W56944   5.697  21.295   3.699
84685W        W56945  14.824  12.536  12.191
84686W        W56946  17.238  13.300  12.404
84687W        W56947  43.025   7.430   2.702
84688W        W56948  33.796  18.661   1.703
84689W        W56949  15.136  24.960  12.024
84690W        W56950   2.546   6.599   4.001
84691W        W56951   6.241  31.450  12.955
84692W        W56952   1.554  38.969   4.564
84693W        W56953   9.937   0.456   2.870
84694W        W56954  26.249  17.666   0.439
84695W        W56955  35.544  40.758   3.642
84696W        W56956  23.516  42.631   3.202
84697W        W56957  37.302  10.603   4.293
84698W        W56958  23.501   0.857   4.815
84699W        W56959  10.278  32.244   3.140
84700W        W56960  29.245   3.770   3.812
84701W        W56961  41.821  38.036  14.370
84702W        W56962  25.194  32.519   0.455
84703W        W56963  12.601   1.775  10.651
84704W        W56964  32.381  35.378   4.148
84705W        W56965   7.928  34.674   3.708
84706W        W56966  37.959  28.605   2.409
84707W        W56967  14.297   2.430   0.773
84708W        W56968  24.481  42.265  12.288
84709W        W56969   1.299   7.229   0.530
84710W        W56970   7.070  22.031  13.031
84711W        W56971  27.909  22.240   2.241
84712W        W56972  23.535  20.165  14.317
84713W        W56973  12.705  17.547   1.760
84714W        W56974   9.588  31.002   0.857
84715W        W56975  16.168   3.787  14.209
84716W        W56976  41.488  32.125   5.067
84717W        W56977  18.534  41.750   2.832
84718W        W56978  14.249   3.840  11.408
84719W        W56979  34.411  24.113   2.263
84720W        W56980  11.592  12.351   0.579
84721W        W56981  26.931  40.653   0.825
84722W        W56982  12.852   3.506  12.369
84723W        W56983  41.877  19.673   0.903
84724W        W56984  19.804  42.896  14.612
84725W        W56985  34.575  43.791  10.626
84726W        W56986  10.856   3.369   3.544
84727W        W56987  34.788  14.064   3.882
84728W        W56988  10.790  32.080  12.070
84729W        W56989  16.091  27.901  11.091
84730W        W56990  31.469   1.289  12.470
84731W        W56991  39.735   6.768  12.027
84732W        W56992  24.979  33.536   4.467
84733W        W56993   4.432  11.756  14.043
84734W        W56994  29.847  13.647   3.205
84735W        W56995  25.240  37.981   2.588
84736W        W56996   9.622  35.752  11.599
84737W        W56997  11.299   1.398   4.495
84738W        W56998  21.244  40.221  14.331
84739W        W56999  29.496  39.617  11.890
84740W        W57000  22.573  43.556   1.793
84741W        W57001  21.690  38.007  13.310
84742W        W57002  23.864  24.524  13.506
84743W        W57003  23.133  25.573  10.702
84744W        W57004  31.807   4.478  13.068
84745W        W57005  33.227  40.344  10.960
84746W        W57006   4.692  18.278  14.849
84747W        W57007  28.414  16.113   1.357
84748W        W57008   2.088   3.251   2.247
84749W        W57009   7.192  39.940   2.753
84750W        W57010  31.428  26.424  11.437
84751W        W57011  23.433   0.862  13.138
84752W        W57012  24.274  32.921   2.791
84753W        W57013  42.904  12.562  11.942
84754W        W57014  26.593  41.010  13.832
84755W        W57015  27.703   7.539   4.878
84756W        W57016  44.920  28.062  12.998
84757W        W57017  30.017  28.104  13.785
84758W        W57018   2.844  17.632  11.525
84759W        W57019  15.304  36.528  12.159
84760W        W57020  11.057  14.311   1.946
84761W        W57021  28.380  32.600   5.083
84762W        W57022   8.176  12.940  13.000
84763W        W57023  13.723  37.891   2.900
84764W        W57024   8.332  19.788   0.566
84765W        W57025  23.184  29.878  14.269
84766W        W57026  30.893  28.279   1.906
84767W        W57027  12.386  22.491  11.097
84768W        W57028  16.295  40.457   0.264
84769W        W57029  30.458  41.247   3.775
84770W        W57030  33.260  39.767   1.330
84771W        W57031  18.875  25.149   4.127
84772W        W57032  22.831  35.003   1.418
84773W        W57033  18.639  41.331  11.593
84774W        W57034  37.898  28.619   3.747
84775W        W57035  34.855  21.232   3.332
84776W        W57036  13.728   8.340  11.740
84777W        W57037  37.576  36.898   1.823
84778W        W57038   7.971   3.112   2.445
84779W        W57039  36.030  26.681   2.912
84780W        W57040   2.336  43.377  13.996
84781W        W57041   7.649  12.217  12.030
84782W        W57042  17.718   2.782  11.431
84783W        W57043  40.929   9.641   2.148
84784W        W57044  24.682  18.454   0.276
84785W        W57045   8.648  16.566  11.105
84786W        W57046  34.863  21.040  13.480
84787W        W57047  36.489  35.116   4.056
84788W        W57048  44.518  37.901   1.418
84789W        W57049  18.872  16.770  12.012
84790W        W57050  32.357  38.910  12.166
84791W        W57051  11.930  38.453   3.794
84792W        W57052  18.482  42.416  12.226
84793W        W57053  28.009  36.620   2.743
84794W        W57054  11.016  17.431   4.206
84795W        W57055  25.661  34.371  12.415
84796W        W57056  11.413  21.082  10.685
84797W        W57057  42.344  25.825  13.180
84798W        W57058  41.016  18.114  11.319
84799W        W57059   0.192   9.682  14.035
84800W        W57060  32.936  29.562  14.057
84801W        W57061  20.163   8.205   0.792
84802W        W57062  36.547   0.941  14.734
84803W        W57063  35.292  31.364  12.882
84804W        W57064   1.704  33.460  11.213
84805W        W57065  19.064  12.140  12.924
84806W        W57066  16.512  12.148   2.758
84807W        W57067  17.580  20.479  12.090
84808W        W57068  29.849   1.255   2.225
84809W        W57069  31.739  42.980  13.397
84810W        W57070  30.983  13.315   4.267
84811W        W57071  28.864  19.089  10.662
84812W        W57072   2.709  15.305   3.888
84813W        W57073  32.035  42.288   0.386
84814W        W57074  15.510  34.722   5.321
84815W        W57075   3.007  19.676  12.952
84816W        W57076  27.343  36.274   1.428
84817W        W57077  18.262  26.135   0.752
84818W        W57078  17.608  36.282  11.550
84819W        W57079  20.549  13.706   2.817
84820W        W57080  21.958  25.747  11.446
84821W        W57081  30.415  15.835   0.903
84822W        W57082  32.080  25.734  14.771
84823W        W57083  15.824   8.827   0.350
84824W        W57084  28.283  35.410  11.084
84825W        W57085  22.708  17.270   5.177
84826W        W57086  28.158   7.740   4.686
84827W        W57087  20.914  35.231   4.759
84828W        W57088   0.633  18.331   4.122
84829W        W57089  12.781  13.067   1.750
84830W        W57090  24.681  42.480  11.414
84831W        W57091  43.944  10.648   3.548
84832W        W57092  40.957  42.577  10.508
84833W        W57093  25.623   9.969   1.360
84834W        W57094  18.646  38.195   4.303
84835W        W57095  19.490  15.288  14.734
84836W        W57096  34.579   0.317   1.284
84837W        W57097  40.505   4.747   0.679
84838W        W57098  41.066  21.491  14.842
84839W        W57099  40.764  35.035  11.101
84840W        W57100  38.954  36.427   4.628
84841W        W57101  22.999  21.567  13.015
84842W        W57102  25.167  21.966  10.871
84843W        W57103  29.596  43.860  13.705
84844W        W57104  32.074  19.113  10.632
84845W        W57105  11.254  35.492   4.739
84846W        W57106  37.411  33.607  12.406
84847W        W57107   0.322   6.386  11.658
84848W        W57108  41.859  12.402   0.383
84849W        W57109  22.594   4.942  11.261
84850W        W57110   0.899  27.027  14.272
84851W        W57111  23.745  11.255  14.994
84852W        W57112  11.241  28.588   2.251
84853W        W57113  21.684  22.065  12.500
84854W        W57114  35.796  16.620   1.037
84855W        W57115  14.129  18.693   1.260
84856W        W57116  36.016  36.460   0.785
84857W        W57117  41.543   4.462  14.754
84858W        W57118  19.192  13.296  13.418
84859W        W57119  32.700  33.624   2.143
84860W        W57120  27.555  23.509   3.353
84861W        W57121  32.604  13.157  13.631
84862W        W57122   0.702  27.088   0.045
84863W        W57123  21.233  30.444  12.082
84864W        W57124  26.723  29.112   3.422
84865W        W57125  33.038   3.880  11.576
84866W        W57126  20.627  38.073   1.801
84867W        W57127   5.141  28.112   5.572
84868W        W57128  33.947  30.141   4.068
84869W        W57129  23.826  24.331   2.823
84870W        W57130  15.439  11.393   4.805
84871W        W57131  18.216   2.644   0.768
84872W        W57132  10.213  24.959  14.891
84873W        W57133  35.845  42.753  11.965
84874W        W57134  24.275  42.735  13.523
84875W        W57135  20.690  40.876  12.367
84876W        W57136  37.531   5.318   4.467
84877W        W57137   2.242  42.862   4.605
84878W        W57138  18.997  31.427  11.125
84879W        W57139  25.702  38.904  11.527
84880W        W57140  42.953  40.002   1.671
84881W        W57141  21.613  36.324   3.005
84882W        W57142  35.293  44.938  13.526
84883W        W57143  42.255   2.200  12.308
84884W        W57144  26.222   3.470  11.960
84885W        W57145  12.075  37.624   2.194
84886W        W57146   4.486  13.650   4.629
84887W        W57147   6.720  16.743   1.724
84888W        W57148  31.387  39.743   4.012
84889W        W57149   1.506   7.400  14.553
84890W        W57150  28.266  22.510  11.993
84891W        W57151  25.232   0.504  11.547
84892W        W57152  43.937   2.995   1.861
84893W        W57153  30.537   7.884  10.921
84894W        W57154  35.253  42.685  13.978
84895W        W57155  17.274  39.484   1.420
84896W        W57156  42.499  35.361  14.297
84897W        W57157  33.906  14.215  11.530
84898W        W57158  30.986  32.103   0.373
84899W        W57159  12.408  37.557  11.908
84900W        W57160   7.170  29.880   2.442
84901W        W57161  42.934  19.933  14.961
84902W        W57162  10.772  39.861   4.148
84903W        W57163  25.195  32.008   0.894
84904W        W57164  26.603  20.108  13.439
84905W        W57165  33.403  31.477  13.017
84906W        W57166  39.415   8.457   5.034
84907W        W57167  30.502  32.872   5.054
84908W        W57168  12.681  37.290   3.221
84909W        W57169   1.994   9.906  11.620
84910W        W57170  15.833  34.922   1.325
84911W        W57171  41.098  42.843  11.236
84912W        W57172  37.101  24.707   0.153
84913W        W57173  35.599  16.126  11.020
84914W        W57174  36.501  27.625   1.243
84915W        W57175  37.148  12.315   3.285
84916W        W57176  10.194  17.610   4.185
84917W        W57177  23.759   8.955   2.601
84918W        W57178  37.479  18.255   3.044
84919W        W57179   8.872  31.087   3.239
84920W        W57180  11.797  12.969  14.877
84921W        W57181  13.636  36.901   3.493
84922W        W57182  11.115  14.184  12.967
84923W        W57183  38.432   3.924  11.876
84924W        W57184  37.375  11.394   1.413
84925W        W57185  41.959  34.565  10.586
84926W        W57186   3.205  43.497   0.808
84927W        W57187  17.135  40.049  13.761
84928W        W57188   7.931  44.163   4.093
84929W        W57189   6.278  23.734  13.023
84930W        W57190  15.826   7.585   3.290
84931W        W57191  13.759  25.255  14.427
84932W        W57192   4.249   0.842  11.104
84933W        W57193  13.118  19.716  14.527
84934W        W57194   0.017  35.574   1.383
84935W        W57195   1.277  42.619  10.338
84936W        W57196  25.978  31.325   4.205
84937W        W57197  30.232  43.827   3.517
84938W        W57198   8.863  16.306  11.971
84939W        W57199  35.136  29.676  14.283
84940W        W57200  31.085  28.000   0.044
84941W        W57201  32.965  29.282  10.725
84942W        W57202  44.994  28.877   2.662
84943W        W57203  34.062  13.641   1.358
84944W        W57204  25.779  12.179   0.013
84945W        W57205  10.398   9.567  13.631
84946W        W57206  30.348   9.154  10.811
84947W        W57207  13.480  32.069   3.080
84948W        W57208  15.597   7.736  14.917
84949W        W57209   9.872   5.640  12.496
84950W        W57210  37.998  16.086  11.907
84951W        W57211  43.190  22.984  11.556
84952W        W57212  37.994   7.866   2.690
84953W        W57213  39.457   6.189  13.831
84954W        W57214  25.184  40.043   0.901
84955W        W57215   7.464  38.891   4.521
84956W        W57216  26.886  17.581   1.287
84957W        W57217  35.988  30.369   4.362
84958W        W57218  15.448  18.166   0.090
84959W        W57219  20.170  13.557   2.439
84960W        W57220   4.908   4.415   2.182
84961W        W57221  13.705   2.183   3.728
84962W        W57222  43.298  11.231  14.744
84963W        W57223  42.787  25.134  11.624
84964W        W57224  26.190  31.573   0.233
84965W        W57225  42.094  31.937   3.381
84966W        W57226  23.987   7.427  10.217
84967W        W57227   3.269  27.654   2.685
84968W        W57228  22.061  12.239  10.448
84969W        W57229  40.951  28.281  11.204
84970W        W57230  32.775  28.979  10.341
84971W        W57231   7.390   3.489  14.652
84972W        W57232  13.586  26.198   1.882
84973W        W57233  34.608   6.469  14.076
84974W        W57234   0.785  40.987   1.681
84975W        W57235  29.217  20.770  11.119
84976W        W57236  16.481   7.707   5.711
84977W        W57237  38.943   1.837   4.667
84978W        W57238  12.184  18.289   4.573
84979W        W57239  33.284  25.478   3.789
84980W        W57240  34.457  39.176   3.729
84981W        W57241  16.184  19.595   4.546
84982W        W57242  15.440  18.131   3.362
84983W        W57243  42.117  25.893   4.044
84984W        W57244  19.215   7.334   0.458
84985W        W57245  27.192  27.525   2.594
84986W        W57246  44.925   4.322   4.122
84987W        W57247  15.542  29.483  14.063
84988W        W57248  34.371  16.191  10.681
84989W        W57249  30.511  43.515   2.181
84990W        W57250   2.298   3.669   1.853
84991W        W57251  26.624   6.829  11.521
84992W        W57252  18.598  11.828   2.097
84993W        W57253  20.763   6.657  11.337
84994W        W57254  26.559   7.514   4.113
84995W        W57255   9.135  35.284   3.182
84996W        W57256   0.907  18.307   4.949
84997W        W57257   1.410  10.793  10.927
84998W        W57258  12.601  18.564   1.719
84999W        W57259   9.337  21.697  12.651
85000W        W57260   9.189  15.726  11.918
85001W        W57261  37.622   6.244  11.563
85002W        W57262   4.836  12.729   0.207
85003W        W57263   9.195   2.451   3.218
85004W        W57264  10.272   6.731  10.960
85005W        W57265  21.232   6.570   3.128
85006W        W57266  38.641   6.604   1.330
85007W        W57267  23.991   5.558   3.503
85008W        W57268  35.595  43.873  10.936
85009W        W57269  13.854  15.484  14.336
85010W        W57270  40.938  12.406   2.275
85011W        W57271  10.269  28.445   1.407
85012W        W57272  20.995  36.890  12.531
85013W        W57273  28.139  38.307  13.510
85014W        W57274  42.309  35.251   4.843
85015W        W57275  31.534  43.511   4.154
85016W        W57276  34.352  34.424  12.055
85017W        W57277  28.137  26.313   9.840
85018W        W57278   9.832   4.209  14.059
85019W        W57279  10.179   0.645   3.898
85020W        W57280   4.688  15.765   5.117
85021W        W57281  11.529  44.564  13.890
85022W        W57282  20.708  11.240  14.059
85023W        W57283   0.371  38.308   3.666
85024W        W57284  21.663  24.919  12.928
85025W        W57285  38.226  12.181  10.705
85026W        W57286  42.899   7.364  11.867
85027W        W57287  32.319  28.000   1.798
85028W        W57288  41.896   3.943  12.420
85029W        W57289  33.505   7.075  10.836
85030W        W57290  29.150  38.528  13.741
85031W        W57291  21.138   1.575   4.516
85032W        W57292  40.012   0.170   2.693
85033W        W57293   3.218   3.197  14.470
85034W        W57294  30.441  36.490   4.621
85035W        W57295  31.936  42.301   4.399
85036W        W57296  11.380  38.094   4.270
85037W        W57297  18.206  21.121   1.177
85038W        W57298   7.957  38.012  11.499
85039W        W57299   8.364  28.437  14.379
85040W        W57300  21.790  38.335  14.024
85041W        W57301  42.229  26.114  13.945
85042W        W57302   6.969  39.511   1.500
85043W        W57303  29.184  39.825   0.177
85044W        W57304  13.989   2.065  12.624
85045W        W57305  43.887  13.910  10.639
85046W        W57306  35.568  19.392  11.033
85047W        W57307  42.892  38.913  12.908
85048W        W57308  44.281  22.577   0.502
85049W        W57309  38.764   3.333   0.437
85050W        W57310  27.514  32.630   1.258
85051W        W57311  37.916  36.262  13.982
85052W        W57312  24.149  20.853  12.995
85053W        W57313  27.501   9.657  14.339
85054W        W57314   8.930  21.340   1.597
85055W        W57315  19.992  17.248  12.188
85056W        W57316  24.747  12.283  13.660
85057W        W57317  29.007   4.099   2.104
85058W        W57318  27.827  26.276   2.909
85059W        W57319   0.519  37.121  12.076
85060W        W57320  29.255  11.346   0.786
85061W        W57321   6.514  25.249  10.290
85062W        W57322   3.428  44.558   3.319
85063W        W57323  44.058  44.251  14.503
85064W        W57324  21.058  40.533  13.974
85065W        W57325   9.829  28.629   0.480
85066W        W57326  33.939  31.921   2.804
85067W        W57327  12.674  16.052   2.689
85068W        W57328  12.190  21.206   0.437
85069W        W57329  25.965  22.046   1.184
85070W        W57330  44.173  17.986  13.278
85071W        W57331  30.167   0.706   1.423
85072W        W57332  35.888  33.011   2.742
85073W        W57333   3.467  16.083   1.903
85074W        W57334  38.268   0.286  13.435
85075W        W57335  36.357  35.174  11.558
85076W        W57336  26.542  30.096  14.276
85077W        W57337  24.568  31.193  13.556
85078W        W57338  25.910  43.369  12.570
85079W        W57339  41.378  32.585   4.157
85080W        W57340  35.644  26.673  11.604
85081W        W57341  18.785  35.388  13.961
85082W        W57342   1.969  26.133  13.613
85083W        W57343  34.543  30.228  14.808
85084W        W57344  16.776   3.267   0.594
85085W        W57345  43.379  44.517  12.974
85086W        W57346  43.737  12.697   2.261
85087W        W57347   1.263  43.544   2.339
85088W        W57348  11.604   0.826  14.348
85089W        W57349  20.070  15.321  10.644
85090W        W57350  28.534  32.551   3.689
85091W        W57351  23.388  21.137   0.280
85092W        W57352  37.546   5.094  13.803
85093W        W57353  17.035  44.603   0.430
85094W        W57354  16.718  11.436   4.042
85095W        W57355  30.122  10.636   0.774
85096W        W57356  11.016  40.853   2.698
85097W        W57357  15.353  14.266  13.373
85098W        W57358  29.736  43.398  14.536
85099W        W57359  33.685  39.538  12.008
85100W        W57360  20.736   4.746   4.713
85101W        W57361  37.976  43.018   4.804
85102W        W57362  31.007  15.871   0.225
85103W        W57363  40.356  13.897   4.218
85104W        W57364  16.007  31.916   1.791
85105W        W57365   4.332  40.255  12.938
85106W        W57366  19.169   4.797   1.645
85107W        W57367  38.630  35.987  14.909
85108W        W57368   6.090   3.625   4.080
85109W        W57369  14.645  40.010   3.351
85110W        W57370  42.104  25.439  13.615
85111W        W57371  27.061   7.358   2.981
85112W        W57372  17.419   7.250  10.341
85113W        W57373  10.378  33.691   3.692
85114W        W57374  18.185  30.434   2.251
85115W        W57375  32.958  32.798   0.921
85116W        W57376  42.179  37.636  14.308
85117W        W57377  14.842  35.435  11.954
85118W        W57378  23.329  12.144  14.051
85119W        W57379  13.678  18.529  12.274
85120W        W57380  33.328   7.163   4.579
85121W        W57381  42.594   2.828   1.292
85122W        W57382   7.426  27.936  14.935
85123W        W57383   2.530   7.665   3.340
85124W        W57384  35.475  16.379   0.704
85125W        W57385  32.597   7.285   5.074
85126W        W57386  37.115   4.160  12.000
85127W        W57387  16.029  41.847  12.853
85128W        W57388  27.375  11.086   1.949
85129W        W57389  26.724  21.168   5.124
85130W        W57390   8.276  16.944  11.150
85131W        W57391   3.916  35.128  10.073
85132W        W57392  12.067  41.472   4.752
85133W        W57393  28.050  17.792   1.890
85134W        W57394  20.401  33.425  12.606
85135W        W57395  34.646  20.087   3.588
85136W        W57396  23.052  31.686  13.257
85137W        W57397  42.307   5.560   3.235
85138W        W57398  14.113   5.722   2.324
85139W        W57399  23.283  23.008   4.275
85140W        W57400  42.406  41.823   1.230
85141W        W57401  34.331  40.044   4.695
85142W        W57402  24.792  17.660   0.287
85143W        W57403  28.568  40.981  13.261
85144W        W57404  38.504  37.180  13.305
85145W        W57405  30.709  22.356   1.679
85146W        W57406   3.805   7.278   3.134
85147W        W57407  17.902   1.810  13.148
85148W        W57408  34.873  37.415  13.824
85149W        W57409  26.570  24.992  10.752
85150W        W57410  14.100  25.036  11.989
85151W        W57411  14.643  17.196   5.063
85152W        W57412  13.211   2.661  13.437
85153W        W57413  13.962   7.776   0.051
85154W        W57414  25.685  39.966  12.063
85155W        W57415  10.747  41.492  12.358
85156W        W57416   0.241  32.123  14.500
85157W        W57417  22.977  27.111  13.803
85158W        W57418  20.155   0.220   2.123
85159W        W57419  33.349  35.608  13.087
85160W        W57420  44.750  10.246  11.576
85161W        W57421  43.479   9.831   0.314
85162W        W57422   1.323  41.949   0.452
85163W        W57423  17.499  22.783   3.745
85164W        W57424  42.851  30.599  10.723
85165W        W57425  29.442  43.357  14.957
85166W        W57426  38.838  11.562  12.781
85167W        W57427  40.404  27.769  11.569
85168W        W57428  17.405  36.112  12.025
85169W        W57429   6.949  24.228   2.147
85170W        W57430  32.932   4.085   0.322
85171W        W57431  14.655   5.461   3.531
85172W        W57432  14.162  42.579  13.776
85173W        W57433  42.804  37.569   0.885
85174W        W57434  39.496   1.712   4.171
85175W        W57435   9.413  27.901  11.546
85176W        W57436   8.753  17.050  11.023
85177W        W57437  44.525  16.573  10.816
85178W        W57438   5.357  39.371  14.455
85179W        W57439  27.955  22.992  10.666
85180W        W57440  40.323  35.456  13.567
85181W        W57441  11.749  41.905  13.424
85182W        W57442   9.300  18.323   2.355
85183W        W57443  28.095  31.208  13.435
85184W        W57444  29.205  21.133   1.020
85185W        W57445  13.817   5.043  14.432
85186W        W57446  31.194   6.830   0.320
85187W        W57447  33.645  37.786  13.582
85188W        W57448  19.113  36.377   2.780
85189W        W57449  26.229  38.165  12.467
85190W        W57450  28.745   5.501  12.157
85191W        W57451   5.323  39.744  12.675
85192W        W57452  19.531  40.153   5.005
85193W        W57453  35.535  16.487   3.334
85194W        W57454  34.869  15.492  10.685
85195W        W57455   3.668   3.876  13.995
85196W        W57456  37.548  35.599  13.746
85197W        W57457  20.178  23.525  13.926
85198W        W57458   9.326  25.415  13.894
85199W        W57459  40.974  16.699  10.780
85200W        W57460  41.443   6.581   1.267
85201W        W57461  41.820   1.239  12.132
85202W        W57462   1.322  22.771   0.448
85203W        W57463  29.122  11.721  10.646
85204W        W57464  20.117  14.502  11.945
85205W        W57465  27.906  33.920  13.839
85206W        W57466   1.660  42.825   2.731
85207W        W57467  37.995  12.164   4.588
85208W        W57468  13.725  10.732   3.403
85209W        W57469  34.144  27.008   3.112
85210W        W57470  11.157  13.799   1.948
85211W        W57471  44.061  25.271  12.344
85212W        W57472   3.834  43.087  13.917
85213W        W57473  43.786  30.183   1.376
85214W        W57474  21.868  44.714  11.610
85215W        W57475   6.636  38.740   1.903
85216W        W57476  30.518  35.755  11.204
85217W        W57477  32.757  14.846   2.180
85218W        W57478  27.033   0.223  14.198
85219W        W57479  18.152  34.447  11.692
85220W        W57480  16.440  35.815   4.915
85221W        W57481  16.510  15.798  12.238
85222W        W57482  11.867  14.200   4.032
85223W        W57483  14.469   9.696   4.189
85224W        W57484  25.335   7.693  12.366
85225W        W57485  15.364  13.548  12.536
85226W        W57486  14.070   9.411  11.216
85227W        W57487  12.262  39.918  13.786
85228W        W57488  29.926  42.979   2.475
85229W        W57489   3.684  15.268  14.570
85230W        W57490  28.094   2.233  12.405
85231W        W57491  31.976  12.573   0.388
85232W        W57492   5.209  37.955   3.314
85233W        W57493   4.045  32.620   3.671
85234W        W57494  36.012  22.515  10.591
85235W        W57495  30.736   1.722  11.330
85236W        W57496  21.754   9.240   1.672
85237W        W57497  33.415  21.699  13.511
85238W        W57498  24.600   4.952   3.296
85239W        W57499  24.721   4.176   2.789
85240W        W57500  41.051   3.712  12.895
85241W        W57501  32.343  35.617   2.196
85242W        W57502  15.592   3.885   4.675
85243W        W57503  25.515  35.426  14.782
85244W        W57504   8.695  30.204   3.260
85245W        W57505  27.403  34.838  12.598
85246W        W57506  34.978   4.257  14.707
85247W        W57507  11.784   9.226  11.151
85248W        W57508  32.453  17.769  10.996
85249W        W57509  13.404  24.295   2.682
85250W        W57510  30.386  38.406  12.537
85251W        W57511  24.191  29.116  11.940
85252W        W57512   3.244  19.865  13.573
85253W        W57513  37.159  31.583   3.204
85254W        W57514  16.695  28.430   0.341
85255W        W57515  13.139  37.355  10.808
85256W        W57516  38.475  38.117   3.665
85257W        W57517  38.400   7.377   5.433
85258W        W57518  42.103  33.009   4.581
85259W        W57519  37.951  39.179  13.917
85260W        W57520   0.439  34.974   2.277
85261W        W57521  26.583  31.885  14.207
85262W        W57522  28.422  39.270  10.179
85263W        W57523  20.004  43.365  13.774
85264W        W57524   3.843  25.347   1.704
85265W        W57525  25.200  31.895   2.227
85266W        W57526  26.390  24.982   3.716
85267W        W57527   7.698  27.181  13.600
85268W        W57528   3.562  15.555  13.925
85269W        W57529  11.837  28.160   4.015
85270W        W57530  32.193  36.135   3.234
85271W        W57531  23.391  28.701   3.241
85272W        W57532  23.753  36.900  14.435
85273W        W57533  13.069  43.367   2.818
85274W        W57534   7.822  15.795  12.407
85275W        W57535  32.040   4.276  13.576
85276W        W57536   6.044  43.505   4.526
85277W        W57537  41.207  37.569   3.198
85278W        W57538  12.278  39.011   2.291
85279W        W57539   9.542  33.302   2.788
85280W        W57540   9.025  42.740  10.294
85281W        W57541  20.261   7.355  12.945
85282W        W57542   7.754  14.186  14.368
85283W        W57543   8.191   6.049  14.909
85284W        W57544  30.377  43.022  14.139
85285W        W57545  42.928  10.258   0.832
85286W        W57546  20.296  32.598   0.997
85287W        W57547  19.164  41.325   2.288
85288W        W57548  37.082  40.655   3.782
85289W        W57549  26.656   6.752  14.029
85290W        W57550  23.955  33.770  13.037
85291W        W57551  27.020  16.263   3.122
85292W        W57552  11.640  39.082  12.515
85293W        W57553  34.838  24.230   4.959
85294W        W57554  32.053  22.112   1.800
85295W        W57555  36.472   5.680  12.580
85296W        W57556   0.903   1.166  11.025
85297W        W57557   6.300  14.160   2.673
85298W        W57558  10.480  13.870   3.279
85299W        W57559  41.485  30.008   0.062
85300W        W57560  29.486  35.558  14.965
85301W        W57561  24.193  19.602  14.015
85302W        W57562  21.695  19.018   2.618
85303W        W57563   4.412   0.520  11.916
85304W        W57564  43.830  21.239  10.676
85305W        W57565  10.412   5.138   9.932
85306W        W57566   0.094  15.262   3.832
85307W        W57567  18.584  28.063   2.383
85308W        W57568  43.307  10.655  10.959
85309W        W57569   1.738  16.199   2.884
85310W        W57570   5.271  42.735   1.828
85311W        W57571  20.720  13.818  11.574
85312W        W57572   5.886  31.116  13.162
85313W        W57573   8.232  28.922   4.578
85314W        W57574  42.525  25.307  11.025
85315W        W57575  16.810  44.411   3.674
85316W        W57576  39.960  15.130  12.653
85317W        W57577  44.384  10.024   0.828
85318W        W57578  13.411  29.003   3.758
85319W        W57579   0.432  40.129   1.699
85320W        W57580   7.185  34.770  13.400
85321W        W57581   4.748   1.824   2.668
85322W        W57582  31.618  19.728  13.475
85323W        W57583  13.983  44.395   1.738
85324W        W57584  37.835  38.982   4.111
85325W        W57585  28.932  31.492  13.744
85326W        W57586   6.931   3.844   1.419
85327W        W57587  44.163  11.480  14.798
85328W        W57588  25.442  14.267  13.893
85329W        W57589  35.003   0.280   1.645
85330W        W57590  30.467  30.427   0.885
85331W        W57591  34.970  33.662  14.678
85332W        W57592  14.805  14.078  12.946
85333W        W57593  42.765  24.646   3.456
85334W        W57594   5.924  40.584   2.789
85335W        W57595  12.930  37.785  11.063
85336W        W57596  30.726  41.002  11.646
85337W        W57597   1.038  44.984  11.277
85338W        W57598  22.634  18.579   2.804
85339W        W57599  37.953  37.827  14.496
85340W        W57600  36.046  39.884  12.403
85341W        W57601  36.420   7.908  14.215
85342W        W57602  23.969  23.442   1.499
85343W        W57603  28.140  42.200  14.806
85344W        W57604  11.643  17.315  11.867
85345W        W57605  28.305  12.662   2.066
85346W        W57606   8.345  14.721   1.411
85347W        W57607   1.404   3.195   1.750
85348W        W57608  15.642   9.276   1.171
85349W        W57609  16.528   2.000  13.372
85350W        W57610   8.825  31.022  14.964
85351W        W57611  23.106  13.156   1.756
85352W        W57612   4.609  28.418   2.370
85353W        W57613  14.277  19.184  14.233
85354W        W57614  40.010  27.581   3.553
85355W        W57615  19.851  32.137   2.867
85356W        W57616  31.188  37.613   0.389
85357W        W57617  34.977  43.886   1.963
85358W        W57618   2.855  34.178  14.619
85359W        W57619  42.762   0.803  14.977
85360W        W57620   0.037  21.613  12.056
85361W        W57621  33.374  18.964  11.571
85362W        W57622  40.571  28.919  14.959
85363W        W57623  25.147  21.287  12.163
85364W        W57624  27.206  29.375   3.324
85365W        W57625  18.570   7.635  14.424
85366W        W57626  12.199  37.174  13.846
85367W        W57627  16.498  41.324   4.291
85368W        W57628  18.684  18.113   0.743
85369W        W57629  42.496  10.655   2.367
85370W        W57630  42.991   7.230   3.283
85371W        W57631  25.647   3.727  12.913
85372W        W57632  44.315  10.036   1.364
85373W        W57633  32.137  39.340   2.154
85374W        W57634  14.671  27.976  14.830
85375W        W57635  34.008  20.064   0.936
85376W        W57636   0.923  11.577   0.292
85377W        W57637  34.110   3.883   1.519
85378W        W57638  30.793  39.464  14.774
85379W        W57639  14.670  22.726  14.007
85380W        W57640  39.545  13.953   1.722
85381W        W57641  22.376  39.965   3.862
85382W        W57642  39.327  17.063  11.569
85383W        W57643  20.677  21.161  12.790
85384W        W57644  37.972  11.941  13.810
85385W        W57645  30.930  10.684  14.783
85386W        W57646  37.791  35.070  10.495
85387W        W57647  17.425   4.025   3.516
85388W        W57648  42.525   7.985  12.019
85389W        W57649  29.130   0.865  12.953
85390W        W57650   3.041  20.529  14.482
85391W        W57651  35.358  44.851   2.476
85392W        W57652  21.188   4.504   4.580
85393W        W57653  42.878   9.462  12.061
85394W        W57654  22.693  27.476  14.959
85395W        W57655  29.126  12.647   0.387
85396W        W57656  26.193  36.647   3.255
85397W        W57657   1.258  32.386   3.915
85398W        W57658  37.488  12.472  10.353
85399W        W57659  20.634  38.504  12.540
85400W        W57660  20.545  11.664  11.833
85401W        W57661  23.151   5.579   0.386
85402W        W57662  39.212  43.339   4.267
85403W        W57663  33.622  17.229  12.043
85404W        W57664   8.146  34.513  12.537
85405W        W57665  37.655  21.106   2.728
85406W        W57666  20.030  37.574   2.342
85407W        W57667  14.618  27.936   3.136
85408W        W57668  31.394  36.854  14.423
85409W        W57669  35.191  20.640  13.499
85410W        W57670  18.216  10.875   1.369
85411W        W57671  19.215  28.885   1.287
85412W        W57672  42.476  19.037   3.151
85413W        W57673  24.689   2.836   1.703
85414W        W57674   7.320   2.425   2.466
85415W        W57675   7.450  37.229  11.961
85416W        W57676   7.250  42.291   1.380
85417W        W57677  36.936   6.759  11.942
85418W        W57678  27.168   2.919   0.825
85419W        W57679   8.630  39.532   0.030
85420W        W57680  11.358  28.644  13.858
85421W        W57681  24.611  38.596  13.781
85422W        W57682  19.981  26.442  11.161
85423W        W57683  31.927   2.418  11.319
85424W        W57684  36.972  11.605  14.923
85425W        W57685  22.568  35.866   1.340
85426W        W57686  16.797  23.212   3.738
85427W        W57687  24.856  41.387   2.312
85428W        W57688  39.871  24.522  14.894
85429W        W57689  24.726  12.348   3.322
85430W        W57690  32.426  39.607   4.861
85431W        W57691   7.424  18.051   1.712
85432W        W57692   2.419  30.506  13.333
85433W        W57693  38.492  14.316  11.501
85434W        W57694  12.701   4.845   3.229
85435W        W57695   3.420  35.396   1.858
85436W        W57696  13.227  36.600   3.436
85437W        W57697  18.591   6.922   3.941
85438W        W57698  25.034  14.727  12.898
85439W        W57699  19.710  10.305   3.664
85440W        W57700  20.716   9.415  10.957
85441W        W57701  36.355  32.545   4.232
85442W        W57702  20.765  16.141   1.919
85443W        W57703  32.553  35.316  12.027
85444W        W57704  43.927  10.908   3.111
85445W        W57705  14.715  38.065   3.739
85446W        W57706  13.492  27.027   1.959
85447W        W57707  24.180   0.551  13.555
85448W        W57708  38.681  13.744  13.554
85449W        W57709  37.162  18.167   2.156
85450W        W57710  38.962  41.314   4.127
85451W        W57711  13.904  15.132  13.531
85452W        W57712  22.224   2.420  11.653
85453W        W57713  25.031  20.496  14.966
85454W        W57714  29.646   0.389  10.539
85455W        W57715  18.475   7.844   4.976
85456W        W57716  31.661  36.791   4.109
85457W        W57717  14.972  16.077  12.479
85458W        W57718  30.279  19.680   2.326
85459W        W57719  10.410  27.193   3.783
85460W        W57720   5.393   0.730  13.144
85461W        W57721  38.226  44.217   4.618
85462W        W57722   9.968   4.913   2.731
85463W        W57723  16.516  16.287   0.338
85464W        W57724  43.135  16.215   1.429
85465W        W57725  31.170  19.119  13.792
85466W        W57726  17.611  25.779  12.814
85467W        W57727  25.997  32.032   1.787
85468W        W57728  30.090  30.194   2.427
85469W        W57729   1.681  40.928  14.912
85470W        W57730  18.549   2.887   1.766
85471W        W57731  40.960  17.108  14.450
85472W        W57732  24.614  27.591   9.612
85473W        W57733  23.987  27.588   4.788
85474W        W57734   2.822  30.361   2.653
85475W        W57735  43.440   3.003  11.598
85476W        W57736  25.004  27.613  14.805
85477W        W57737  28.003  43.575  11.201
85478W        W57738  15.054   1.853   1.699
85479W        W57739  27.009  30.295   3.293
85480W        W57740  43.429  15.078   4.857
85481W        W57741  27.567  22.554  12.447
85482W        W57742  42.052  35.075  10.711
85483W        W57743  16.068   6.785   0.763
85484W        W57744  33.006   7.213  11.676
85485W        W57745  24.761  22.572   2.755
85486W        W57746  40.107  42.953   0.037
85487W        W57747   0.262  17.624  14.321
85488W        W57748  39.358  19.749  13.739
85489W        W57749  40.833  39.504   2.515
85490W        W57750  12.748  23.206   3.369
85491W        W57751  43.852  40.638   3.596
85492W        W57752  10.475  38.077  13.546
85493W        W57753  22.340  35.896  13.381
85494W        W57754   8.237  14.064  12.636
85495W        W57755  10.384  33.934  14.406
85496W        W57756  22.515  38.855   2.812
85497W        W57757  34.920  43.758   0.025
85498W        W57758   0.435  42.871   3.242
85499W        W57759  15.268  44.489  13.360
85500W        W57760  11.713  24.398  14.996
85501W        W57761   2.446  30.550   5.245
85502W        W57762  18.696  22.268   2.792
85503W        W57763   5.351  29.107  11.450
85504W        W57764  23.205  26.602  12.144
85505W        W57765  34.502   3.660   3.566
85506W        W57766  43.560  25.932   4.261
85507W        W57767  35.879  30.067  10.902
85508W        W57768  31.829  20.797   4.151
85509W        W57769  35.013   4.730   0.008
85510W        W57770  18.760  28.399   0.715
85511W        W57771   8.193  41.009  10.628
85512W        W57772  21.288  24.549  10.964
85513W        W57773   0.884  35.572   4.887
85514W        W57774  40.746  15.751  14.397
85515W        W57775  21.603  32.859   3.437
85516W        W57776  19.092  31.645   4.283
85517W        W57777   0.010  33.386  14.087
85518W        W57778  24.953  11.145   2.718
85519W        W57779  21.569  32.695  11.914
85520W        W57780  18.700   0.518  13.345
85521W        W57781  40.634  19.313  14.074
85522W        W57782  44.999   8.771  11.416
85523W        W57783  35.375  26.199   0.921
85524W        W57784  11.127  16.494  13.564
85525W        W57785   9.138  24.057   4.195
85526W        W57786   9.814  18.601  12.876
85527W        W57787  34.564  24.177  13.576
85528W        W57788  16.007  11.195  12.553
85529W        W57789   6.378  35.557  10.767
85530W        W57790  40.061   5.413   1.787
85531W        W57791  32.934  35.614  10.564
85532W        W57792  37.896  44.283  12.629
85533W        W57793   2.382   5.607   4.170
85534W        W57794  31.590  26.555  12.812
85535W        W57795   7.591  12.746   2.754
85536W        W57796  38.317  13.584  11.425
85537W        W57797  44.727  31.511  14.719
85538W        W57798  13.280  27.027  12.962
85539W        W57799  37.391   3.878  11.002
85540W        W57800  10.315  28.669  11.869
85541W        W57801  40.146  43.539   1.494
85542W        W57802  19.557  26.930  14.275
85543W        W57803  29.021  23.765   1.288
85544W        W57804  19.499  39.928   2.239
85545W        W57805  10.437  15.118  14.820
85546W        W57806  17.626  12.871  13.008
85547W        W57807  31.152  26.850  11.620
85548W        W57808  20.803   1.985  11.555
85549W        W57809   2.924  21.455  13.062
85550W        W57810  40.063  21.481  11.177
85551W        W57811  24.157   2.768   0.752
85552W        W57812  37.721  14.528  13.623
85553W        W57813   7.258  28.417  13.999
85554W        W57814  28.000  40.783   1.752
85555W        W57815  38.107  28.675  10.670
85556W        W57816  37.218   1.392  14.522
85557W        W57817   0.303  43.213  10.631
85558W        W57818  24.594  16.827   4.649
85559W        W57819  35.447  31.030   4.644
85560W        W57820  40.532  23.184   4.120
85561W        W57821   2.041  25.961  11.719
85562W        W57822  15.190  13.611   2.925
85563W        W57823  28.889   0.407   2.802
85564W        W57824  17.286   0.205  13.398
85565W        W57825  43.399  28.264   4.700
85566W        W57826  11.955  41.982   1.932
85567W        W57827  25.192  43.438  12.966
85568W        W57828   2.196  23.705  11.134
85569W        W57829   3.936   6.916  13.810
85570W        W57830  38.968   2.234  13.042
85571W        W57831   1.871  40.519  12.943
85572W        W57832  25.154  21.585   1.350
85573W        W57833  31.908   8.856   1.740
85574W        W57834   8.882  35.099  12.878
85575W        W57835  17.528  10.808   2.951
85576W        W57836  25.887  29.577   0.346
85577W        W57837  36.932  25.646  10.809
85578W        W57838   5.644  16.989  14.280
85579W        W57839  35.036  28.497   0.237
85580W        W57840  14.785  28.879  12.061
85581W        W57841  26.630  12.087  11.923
85582W        W57842  19.972  14.288  10.604
85583W        W57843   6.457  42.434   3.717
85584W        W57844  11.150  40.030  11.177
85585W        W57845  34.177   6.227  13.912
85586W        W57846  21.916  31.602  14.036
85587W        W57847  39.854  27.105  14.313
85588W        W57848  37.562   0.680   3.260
85589W        W57849  27.140  15.840   0.058
85590W        W57850  18.155  26.325   1.771
85591W        W57851  35.547  34.517   4.083
85592W        W57852   4.750  36.014  12.638
85593W        W57853  28.325  40.810  12.832
85594W        W57854  25.590  30.055   1.395
85595W        W57855  39.232   7.752  14.337
85596W        W57856  33.059  12.309   0.815
85597W        W57857  43.476  38.079  12.937
85598W        W57858   0.013  20.599   3.611
85599W        W57859  10.239  30.000  14.865
85600W        W57860  17.217  15.067  10.463
85601W        W57861   4.190  24.214   2.806
85602W        W57862  24.624   3.913   3.228
85603W        W57863   3.381  37.337  10.681
85604W        W57864  10.292  39.848   2.670
85605W        W57865   3.206   6.144   0.759
85606W        W57866   2.634   7.897  13.995
85607W        W57867  22.092  41.831  14.265
85608W        W57868  15.719   8.416   0.652
85609W        W57869  11.372  11.954   0.858
85610W        W57870   4.188  10.187   4.760
85611W        W57871  20.901  26.953   0.501
85612W        W57872  13.879  32.121  14.319
85613W        W57873  22.870   7.327   1.145
85614W        W57874  42.128  25.063  10.830
85615W        W57875  26.514  42.948  10.474
85616W        W57876  29.584   3.352  13.026
85617W        W57877   6.209  14.482   2.228
85618W        W57878  27.964   9.709  14.707
85619W        W57879  40.531   7.358   1.540
85620W        W57880  15.373   9.596  14.937
85621W        W57881  31.733  17.718   2.223
85622W        W57882  21.030  16.025  13.330
85623W        W57883   1.414  27.596  14.795
85624W        W57884  23.696  15.380   3.349
85625W        W57885   2.912  23.456   3.862
85626W        W57886  33.212  24.771  13.871
85627W        W57887  20.238  16.114   1.921
85628W        W57888  38.807  22.759  13.895
85629W        W57889   4.837  29.815   1.267
85630W        W57890  38.410  43.041   0.302
85631W        W57891   6.938  38.904   4.520
85632W        W57892  11.606  10.815   2.550
85633W        W57893  32.595  15.385  11.190
85634W        W57894  37.043  42.284   3.474
85635W        W57895   7.397  19.577  12.057
85636W        W57896  23.971  20.453   3.353
85637W        W57897  20.597  29.618   3.842
85638W        W57898  41.982  27.378  13.314
85639W        W57899  19.182  42.674   3.109
85640W        W57900  31.432   3.695  13.929
85641W        W57901  44.218  43.852   0.742
85642W        W57902  26.810  44.329  13.617
85643W        W57903  26.443  14.686  13.027
85644W        W57904  13.835  26.429   0.304
85645W        W57905   7.212  41.439  11.476
85646W        W57906  14.608  14.782   2.093
85647W        W57907  35.000  39.936  12.649
85648W        W57908  21.655  18.835  11.624
85649W        W57909   3.771  26.860  12.447
85650W        W57910  43.817  16.145  14.535
85651W        W57911  38.677   7.311   5.002
85652W        W57912  13.561  22.437   0.896
85653W        W57913  39.432  36.406  13.078
85654W        W57914   1.533  39.022  14.588
85655W        W57915   4.912  39.460  11.994
85656W        W57916  39.364  21.867  13.820
85657W        W57917   4.736  30.352  11.012
85658W        W57918  33.590  32.451  11.944
85659W        W57919  23.701  38.774  11.036
85660W        W57920  29.698   9.833  13.620
85661W        W57921  43.800   7.046  14.051
85662W        W57922  33.698   6.087   0.843
85663W        W57923  12.382   9.905  12.414
85664W        W57924   7.226  41.848   4.442
85665W        W57925  12.390  29.389   2.659
85666W        W57926  16.126   3.370  10.251
85667W        W57927  20.794  41.222   4.330
85668W        W57928  39.766  30.097   4.072
85669W        W57929  42.934   5.594  11.283
85670W        W57930   2.402  40.890  14.402
85671W        W57931  12.538   1.865   4.498
85672W        W57932  31.569   4.116   4.192
85673W        W57933  31.666  41.786   3.264
85674W        W57934  11.088  34.318  14.850
85675W        W57935   6.646   6.839  13.082
85676W        W57936  26.951  44.326  11.561
85677W        W57937  25.149  17.384  13.466
85678W        W57938  29.401  36.389  13.302
85679W        W57939  13.129  23.525  11.661
85680W        W57940  17.112   9.351   0.204
85681W        W57941   5.706  39.136   0.554
85682W        W57942  25.323   4.008  12.579
85683W        W57943  25.012  40.758  11.494
85684W        W57944  32.431  22.035  11.356
85685W        W57945  16.332  38.264   2.311
85686W        W57946   2.181  19.758  13.937
85687W        W57947   3.359  32.667   4.161
85688W        W57948  24.133  38.890   4.980
85689W        W57949   3.423  19.723   0.899
85690W        W57950   4.263  14.612  10.183
85691W        W57951  35.448   9.245  13.040
85692W        W57952  40.534  20.271   2.728
85693W        W57953  16.846  10.693   4.556
85694W        W57954  40.000  28.463  12.860
85695W        W57955  43.460  12.370  14.392
85696W        W57956  42.768  11.315   0.690
85697W        W57957  21.291  14.163  12.429
85698W        W57958   2.780  35.319   2.839
85699W        W57959  36.842   2.395   2.174
85700W        W57960  25.082  11.876  11.141
85701W        W57961  28.999  42.489  11.418
85702W        W57962  11.853  31.181  12.566
85703W        W57963  19.550  38.396  13.554
85704W        W57964  15.104  14.580  14.758
85705W        W57965  40.122  20.516   2.511
85706W        W57966   4.731  18.541  11.297
85707W        W57967   1.580  26.959  13.627
85708W        W57968  21.570   4.337   3.461
85709W        W57969  12.584  38.354   0.472
85710W        W57970  21.819  37.099  13.054
85711W        W57971   5.354  37.456   0.279
85712W        W57972  12.740  35.889  12.066
85713W        W57973   1.444  14.341   4.597
85714W        W57974  21.257   1.516  11.482
85715W        W57975  32.182  29.035   0.522
85716W        W57976  18.459  11.364   3.359
85717W        W57977  14.839  26.187  14.313
85718W        W57978  23.010  29.563   3.677
85719W        W57979   9.817  41.239  14.988
85720W        W57980  26.857   6.990   3.311
85721W        W57981   6.875   0.693  10.930
85722W        W57982  34.034  20.249   5.047
85723W        W57983   8.145  22.638  11.159
85724W        W57984  39.553  16.672  10.547
85725W        W57985  10.948  17.615  14.418
85726W        W57986  34.830  11.351  14.404
85727W        W57987   4.688  33.529   1.825
85728W        W57988   6.480  43.515   4.189
85729W        W57989   6.999   1.765  10.777
85730W        W57990  42.545  33.607  14.849
85731W        W57991  11.384  26.060   2.131
85732W        W57992   8.215  25.259  11.892
85733W        W57993  33.847  18.781   4.212
85734W        W57994  18.379  16.000  13.006
85735W        W57995  18.979  11.968   2.397
85736W        W57996  11.404  12.954  11.643
85737W        W57997  30.674   1.504   0.241
85738W        W57998  35.615   0.819   3.280
85739W        W57999  36.646  22.233  12.845
85740W        W58000   2.162  24.476  13.304
85741W        W58001  25.667  41.030   2.013
85742W        W58002  40.059  35.059  14.782
85743W        W58003  31.717  30.581  14.930
85744W        W58004  11.238  38.232   0.311
85745W        W58005  44.552  28.078  10.962
85746W        W58006   3.015  18.500  13.543
85747W        W58007   5.215  44.552  10.230
85748W        W58008  13.520   1.416  10.732
85749W        W58009  23.039   9.315  14.143
85750W        W58010  35.860  39.805  13.284
85751W        W58011  30.356   3.103  11.524
85752W        W58012  23.174  34.117  14.464
85753W        W58013  18.940  17.795   1.871
85754W        W58014  37.873  20.882   0.421
85755W        W58015  39.618  17.761  14.501
85756W        W58016  39.444   4.350  10.528
85757W        W58017   6.730  13.156   1.231
85758W        W58018  31.809  26.935  12.046
85759W        W58019  36.414  43.395   3.403
85760W        W58020  21.286   9.263  14.663
85761W        W58021   1.264  34.115   1.192
85762W        W58022  40.390  10.918  14.391
85763W        W58023  18.094  12.618  12.615
85764W        W58024  40.478  39.146   4.535
85765W        W58025  26.680  14.239  11.630
85766W        W58026  25.962   6.814   2.001
85767W        W58027  20.185   1.797  13.628
85768W        W58028  25.494  24.050   1.452
85769W        W58029  12.750  14.201   4.824
85770W        W58030  16.088  23.500   0.879
85771W        W58031  27.187  11.348   2.338
85772W        W58032   3.233  32.461   3.312
85773W        W58033  17.123  36.953   3.696
85774W        W58034  41.761   0.210  12.155
85775W        W58035  29.620  18.027   4.224
85776W        W58036   5.250  43.413  13.967
85777W        W58037  17.291   6.442   4.876
85778W        W58038  35.313  42.087   4.980
85779W        W58039  24.982  25.444  12.657
85780W        W58040  23.673   8.857  13.922
85781W        W58041  17.645  40.524  10.822
85782W        W58042   9.198  40.981   4.020
85783W        W58043   5.799  20.541   1.780
85784W        W58044   4.151  43.861  10.490
85785W        W58045  30.473  39.344  11.211
85786W        W58046  15.739  38.074  14.991
85787W        W58047  34.962   4.798  13.066
85788W        W58048  21.582  23.897   3.256
85789W        W58049   7.219   4.200  12.019
85790W        W58050  29.463  10.800  14.013
85791W        W58051   5.926  13.867  10.702
85792W        W58052  43.936  28.459  14.835
85793W        W58053  20.302  25.542   0.993
85794W        W58054  18.321  41.009   0.784
85795W        W58055  30.053  30.165   1.901
85796W        W58056  30.545  23.628   2.240
85797W        W58057  16.521  33.544  10.224
85798W        W58058  25.501  20.546   3.680
85799W        W58059  20.590  41.710   0.879
85800W        W58060  11.328  44.281  13.495
85801W        W58061  25.574  12.226   4.290
85802W        W58062  27.516  31.935  10.134
85803W        W58063  44.529   1.926   1.998
85804W        W58064   8.903  21.533   4.882
85805W        W58065   5.788   1.187   2.296
85806W        W58066  12.771  40.236  10.676
85807W        W58067   1.789  42.095   1.721
85808W        W58068   9.172   3.388  10.701
85809W        W58069  11.576  27.680   2.587
85810W        W58070  35.448  30.919   1.726
85811W        W58071  10.800  23.289  11.900
85812W        W58072  20.605  33.731   4.315
85813W        W58073  44.183   9.472   0.772
85814W        W58074  13.043  35.567  13.611
85815W        W58075   7.935  26.251  14.360
85816W        W58076  29.069  44.421   4.134
85817W        W58077  14.618  41.010  10.753
85818W        W58078   6.203  23.056  12.572
85819W        W58079  30.259  26.833   3.951
85820W        W58080  35.407  24.542  11.150
85821W        W58081  38.111  27.844  11.272
85822W        W58082  24.220   0.759   2.028
85823W        W58083  30.026   4.608  14.324
85824W        W58084  33.545  43.060   1.958
85825W        W58085  25.464   9.771  13.349
85826W        W58086  41.252  17.720   0.048
85827W        W58087  40.215  14.348  11.259
85828W        W58088   9.682  23.946   2.380
85829W        W58089  44.824  27.890  12.002
85830W        W58090   5.196  27.082   4.120
85831W        W58091  18.679  26.593   2.292
85832W        W58092  24.232  39.010  11.120
85833W        W58093  30.947  27.831   0.721
85834W        W58094  25.122  25.630  13.602
85835W        W58095  42.774  29.941   1.036
85836W        W58096  29.905  44.383  11.038
85837W        W58097   5.871  31.154   4.123
85838W        W58098  29.944  14.831  14.504
85839W        W58099  25.925  39.505   4.923
85840W        W58100  16.512   6.806  10.137
85841W        W58101  40.600   4.868  12.785
85842W        W58102  37.024  11.234  11.003
85843W        W58103  41.092  29.612  11.440
85844W        W58104  27.911  43.942  14.338
85845W        W58105  40.909  11.158  11.637
85846W        W58106  35.835  17.620   1.211
85847W        W58107   7.194  20.765  11.294
85848W        W58108   9.743  33.397  11.953
85849W        W58109  28.823   4.473  11.426
85850W        W58110  28.308  21.982  11.979
85851W        W58111  41.229  44.500  12.085
85852W        W58112   9.666  14.494   0.735
85853W        W58113   7.176  10.365   4.134
85854W        W58114  27.877  30.568   2.883
85855W        W58115  29.010  41.644  13.504
85856W        W58116   8.238   0.422   1.431
85857W        W58117   0.383  37.322  11.082
85858W        W58118  16.204  35.236  13.510
85859W        W58119  32.566  22.177  14.098
85860W        W58120  17.106   9.761  14.403
85861W        W58121  25.099  14.579  12.407
85862W        W58122  43.900  26.788   9.953
85863W        W58123  11.720   9.622   0.215
85864W        W58124  40.218   3.884   0.703
85865W        W58125  29.106  27.312  12.931
85866W        W58126  24.427  34.591   4.068
85867W        W58127   3.222  41.086   0.812
85868W        W58128  17.794  44.969   4.635
85869W        W58129  26.592  33.074   4.594
85870W        W58130  18.217   5.654   2.243
85871W        W58131  14.213  37.320   0.270
85872W        W58132  18.680  35.943  13.981
85873W        W58133  21.054  25.183  11.640
85874W        W58134  44.437  43.931   4.032
85875W        W58135   8.555  44.578  13.045
85876W        W58136  37.871  13.113   2.390
85877W        W58137  43.201  21.592   2.324
85878W        W58138  21.689  43.434  14.427
85879W        W58139   4.262   3.392   3.241
85880W        W58140  15.762  17.494   3.221
85881W        W58141   8.684   5.030  11.271
85882W        W58142  20.189  42.546  13.035
85883W        W58143  13.818  31.237  11.422
85884W        W58144  33.450  21.952   1.845
85885W        W58145  26.344  30.532  13.745
85886W        W58146  40.217  40.143   3.718
85887W        W58147  32.250  28.059  13.877
85888W        W58148  25.210   2.524   4.887
85889W        W58149  16.562  23.955   1.873
85890W        W58150  16.240   9.617   0.561
85891W        W58151   2.512  19.676  11.968
85892W        W58152  35.638  33.027  11.143
85893W        W58153  10.363   2.091   2.992
85894W        W58154  26.582  43.761   1.777
85895W        W58155  36.294   7.350  11.827
85896W        W58156  12.376   6.706  11.186
85897W        W58157  21.836  18.374   4.080
85898W        W58158  31.936  44.813   2.772
85899W        W58159  26.448  42.960  14.391
85900W        W58160  36.206  28.145  11.679
85901W        W58161  41.064  11.214  13.417
85902W        W58162  17.268  23.208   2.945
85903W        W58163   7.371  18.638  11.286
85904W        W58164  29.939  41.490  12.412
85905W        W58165  10.763  41.751   3.827
85906W        W58166  33.527  15.743   0.415
85907W        W58167  30.961  21.982   0.674
85908W        W58168  41.297  13.132   3.259
85909W        W58169  19.121  12.701   2.753
85910W        W58170  34.995  13.919   1.771
85911W        W58171  11.671  23.560   4.182
85912W        W58172   7.690  11.710   5.000
85913W        W58173  10.698  11.408   0.426
85914W        W58174  37.868   9.610   1.343
85915W        W58175   4.797  25.587  11.346
85916W        W58176   2.579  17.323  12.800
85917W        W58177  40.383   8.774   0.016
85918W        W58178   4.072  33.928  14.049
85919W        W58179   7.512  13.666  13.444
85920W        W58180  44.472  26.728   1.023
85921W        W58181   9.279  38.966   4.619
85922W        W58182  23.276  33.990  11.993
85923W        W58183   8.721   9.259  12.757
85924W        W58184   3.506  21.181   4.300
85925W        W58185  14.572  41.961   3.226
85926W        W58186  40.909   9.242  10.995
85927W        W58187  20.180  18.877  14.768
85928W        W58188  10.420  29.682  10.789
85929W        W58189   3.222  35.341   4.695
85930W        W58190   8.865  14.829   1.271
85931W        W58191  40.510  29.681   2.740
85932W        W58192  42.060  16.763   1.820
85933W        W58193  16.473   8.795  14.275
85934W        W58194   3.654  35.975  14.955
85935W        W58195  31.142  23.983   2.215
85936W        W58196  18.424   2.145   1.494
85937W        W58197  14.843   5.143  11.277
85938W        W58198  43.253  44.961   4.518
85939W        W58199  10.718  21.896   4.144
85940W        W58200  20.060  21.091   0.448
85941W        W58201  32.126   4.601   1.917
85942W        W58202  29.520  28.679  13.927
85943W        W58203  30.242  31.470   0.777
85944W        W58204  25.639  43.433   2.402
85945W        W58205  33.475   8.249  10.546
85946W        W58206   6.780   6.745  11.537
85947W        W58207   9.080   5.904  14.564
85948W        W58208  40.938  16.750  12.554
85949W        W58209  14.097  40.379   3.376
85950W        W58210  10.646   8.929   1.367
85951W        W58211  29.079  28.909  11.891
85952W        W58212  18.113  27.524   0.334
85953W        W58213  14.319  28.903  13.459
85954W        W58214   8.270  20.517  11.736
85955W        W58215  34.233   8.422   3.730
85956W        W58216   5.406  36.072   0.259
85957W        W58217  43.864  29.644  14.208
85958W        W58218  44.800  44.248   2.307
85959W        W58219  36.853  29.612  13.009
85960W        W58220  39.473  28.357   3.984
85961W        W58221  18.351  19.027  10.627
85962W        W58222  40.602  15.449   4.141
85963W        W58223   4.334  28.481   4.516
85964W        W58224   6.192  30.194   0.205
85965W        W58225  37.105  35.595  14.069
85966W        W58226  34.971   7.130  12.009
85967W        W58227  32.488   8.139   4.624
85968W        W58228  12.332  33.154   3.590
85969W        W58229   5.147   2.188  12.733
85970W        W58230   3.262  26.593   1.218
85971W        W58231  17.248   7.355   3.190
85972W        W58232   4.742   3.338  14.330
85973W        W58233  36.832  27.448  13.591
85974W        W58234  23.467  24.027   0.379
85975W        W58235  23.543  12.390  12.268
85976W        W58236  33.903  10.196  13.846
85977W        W58237  30.218  25.528   2.715
85978W        W58238  43.920   1.980   2.707
85979W        W58239  18.494  25.537  12.232
85980W        W58240  19.348  36.855   2.126
85981W        W58241  40.279  13.273   1.310
85982W        W58242  14.916  20.991  10.633
85983W        W58243  12.876  10.033  12.399
85984W        W58244   6.054  28.407   0.837
85985W        W58245  44.422  23.040  14.927
85986W        W58246  17.991  36.273  14.322
85987W        W58247  19.166  40.948   4.064
85988W        W58248   3.910  23.694   0.756
85989W        W58249  14.573  23.557   0.470
85990W        W58250  27.618   3.456   1.312
85991W        W58251  33.538  40.976   4.314
85992W        W58252   0.143  21.708  14.817
85993W        W58253   1.829   0.530  11.694
85994W        W58254   7.154  15.887  10.278
85995W        W58255  27.379  31.204   1.956
85996W        W58256  42.832  31.072  10.452
85997W        W58257  25.905   3.613   0.370
85998W        W58258  22.150  16.569  14.616
85999W        W58259  43.381  13.701   3.095
86000W        W58260   0.456  20.297  12.425
86001W        W58261  26.557  16.388   2.812
86002W        W58262   2.057  11.432   0.546
86003W        W58263   0.120  11.558  11.613
86004W        W58264   1.002   9.446  12.816
86005W        W58265   7.287  10.295   1.424
86006W        W58266  15.740  30.046   4.542
86007W        W58267  10.136   6.166   5.010
86008W        W58268  14.354  10.647  10.570
86009W        W58269  42.125   6.894  11.709
86010W        W58270  41.309  33.881   0.344
86011W        W58271   4.919  23.357   1.967
86012W        W58272  17.657  36.453  12.410
86013W        W58273  43.245  39.859   5.079
86014W        W58274  30.115   0.215   0.462
86015W        W58275  11.692  42.564   1.330
86016W        W58276  20.276  12.218   0.927
86017W        W58277  38.890  44.872  13.928
86018W        W58278  41.308  40.383   2.729
86019W        W58279  25.756   1.285   4.639
86020W        W58280  28.405  33.527  10.017
86021W        W58281   7.369   7.713   3.185
86022W        W58282  36.915  19.914   5.417
86023W        W58283  41.210  27.453   3.653
86024W        W58284   5.921  13.344  10.698
86025W        W58285   7.368  30.034  11.865
86026W        W58286   0.845  38.641   2.688
86027W        W58287   6.882   4.873  11.302
86028W        W58288  28.915  25.963   0.402
86029W        W58289  35.473   8.819   1.648
86030W        W58290  10.241  27.200   2.850
86031W        W58291  27.343  39.455  12.520
86032W        W58292  31.809   2.788  14.017
86033W        W58293  34.895  18.330   2.785
86034W        W58294   3.831  32.181   0.694
86035W        W58295  13.523  26.453   1.208
86036W        W58296  24.139  26.428   2.629
86037W        W58297   2.859  16.277  12.392
86038W        W58298  38.282   3.636  13.944
86039W        W58299  13.723   0.694   3.815
86040W        W58300   7.761  42.377  11.647
86041W        W58301  21.364  22.205   3.666
86042W        W58302  25.916  13.222  11.394
86043W        W58303  13.041  41.583  12.817
86044W        W58304   0.919  13.132  11.855
86045W        W58305   1.359  15.302   0.659
86046W        W58306  33.853  32.155  12.373
86047W        W58307   1.361  27.411   3.274
86048W        W58308  16.189  17.617  14.731
86049W        W58309  16.812  26.020  13.853
86050W        W58310  35.898  14.927   0.746
86051W        W58311  28.950  37.035   4.131
86052W        W58312  33.115  36.803  13.158
86053W        W58313  25.162  30.620   2.712
86054W        W58314  13.831   4.129  11.371
86055W        W58315  29.561   6.258  14.984
86056W        W58316  33.085  24.073  10.595
86057W        W58317  33.271  35.954   2.268
86058W        W58318  36.573   6.188  12.504
86059W        W58319  16.083  32.169   5.144
86060W        W58320   7.613  32.795  13.981
86061W        W58321  36.944  37.458   3.731
86062W        W58322  42.325  18.825  14.276
86063W        W58323  25.149  11.877  11.991
86064W        W58324  13.199  12.754   0.365
86065W        W58325  27.274  36.048   2.087
86066W        W58326  26.704  19.508  12.603
86067W        W58327  23.687  29.079  12.484
86068W        W58328  15.347   7.249   3.352
86069W        W58329  11.165  10.641   0.837
86070W        W58330   5.234  40.850   2.270
86071W        W58331  30.134  36.299  13.022
86072W        W58332  17.805  26.092   3.802
86073W        W58333  19.859  30.118  13.914
86074W        W58334  35.349  18.342  11.965
86075W        W58335   7.880  15.849   1.838
86076W        W58336  11.541  23.606   2.219
86077W        W58337  41.898  12.279  11.526
86078W        W58338  41.926  29.185  11.272
86079W        W58339  38.649  34.064  13.941
86080W        W58340  29.658  14.665  11.281
86081W        W58341  15.873   7.266  12.370
86082W        W58342  26.715  12.083  13.920
86083W        W58343  34.179  27.587   0.587
86084W        W58344  44.914  39.113  11.147
86085W        W58345  21.477  19.875  11.649
86086W        W58346  14.882  11.850   4.212
86087W        W58347  43.680  28.660  11.046
86088W        W58348  15.921  11.219   4.679
86089W        W58349  31.775  19.596  14.778
86090W        W58350   2.743  30.882   0.357
86091W        W58351  35.096  23.030   0.382
86092W        W58352   5.440  30.387   0.852
86093W        W58353  18.964   9.553   1.963
86094W        W58354  39.317  10.731  12.357
86095W        W58355  34.838  29.903   3.174
86096W        W58356  11.765  17.667   0.687
86097W        W58357  21.405   8.750   1.246
86098W        W58358  12.171  40.032   0.978
86099W        W58359  18.520  25.253  14.352
86100W        W58360  33.538  37.286   1.322
86101W        W58361  22.573  21.605   2.576
86102W        W58362  12.694  33.230  13.049
86103W        W58363  27.508  34.373  14.154
86104W        W58364  21.124  25.006  13.620
86105W        W58365  42.428   5.817  13.486
86106W        W58366  29.359  37.438  14.072
86107W        W58367  22.252  30.102   3.764
86108W        W58368  33.942  42.053   0.511
86109W        W58369  15.137  38.793   0.795
86110W        W58370   9.810  35.551  14.073
86111W        W58371  19.536  39.046  11.059
86112W        W58372  39.001   0.002   4.180
86113W        W58373  38.112  39.334   3.396
86114W        W58374  31.842  11.790   4.655
86115W        W58375  26.070  11.386  10.910
86116W        W58376  34.910   0.940   2.766
86117W        W58377  15.464  30.458   3.608
86118W        W58378  37.517  17.370   3.425
86119W        W58379  11.370  25.402  13.635
86120W        W58380  20.543  23.482   1.439
86121W        W58381  28.538  42.495  11.062
86122W        W58382   6.137  13.154  13.212
86123W        W58383  12.841  19.820   1.307
86124W        W58384   1.977  25.153  13.536
86125W        W58385  16.728   3.478  10.944
86126W        W58386   2.979  21.666  12.070
86127W        W58387   0.063  33.490  14.886
86128W        W58388  38.385  32.497  14.862
86129W        W58389   8.667   3.438   0.821
86130W        W58390   1.795  41.520   2.564
86131W        W58391   5.190   9.245  11.312
86132W        W58392  29.689  17.954  11.747
86133W        W58393   3.621  13.271   3.832
86134W        W58394  10.123   9.914   3.217
86135W        W58395  33.986  18.492  13.586
86136W        W58396   0.944  11.366  11.936
86137W        W58397  44.998   4.776  13.136
86138W        W58398  11.744   3.690   4.557
86139W        W58399   6.759  28.140   1.870
86140W        W58400  22.994  44.808  13.361
86141W        W58401   1.440  33.395  12.551
86142W        W58402  42.987   9.072  12.410
86143W        W58403  33.434  24.433  13.510
86144W        W58404  25.054  32.585   2.432
86145W        W58405  11.748  28.467   2.299
86146W        W58406   2.299  35.999   2.728
86147W        W58407   0.710  21.758   2.032
86148W        W58408  10.120  22.028  14.881
86149W        W58409  25.959  35.965   1.914
86150W        W58410  44.861   7.612  11.850
86151W        W58411  24.232  36.423  10.663
86152W        W58412  37.954   7.363  14.273
86153W        W58413  12.637  10.366   3.357
86154W        W58414  24.020  38.791   3.733
86155W        W58415  14.493   1.256   0.987
86156W        W58416  13.147   5.655   0.735
86157W        W58417  35.837  36.513   2.650
86158W        W58418  20.191  39.026  13.571
86159W        W58419   8.254  16.246   0.699
86160W        W58420  29.955  11.994   0.400
86161W        W58421  14.705   7.099   2.185
86162W        W58422  28.219   7.705   1.543
86163W        W58423  20.649   5.304   2.410
86164W        W58424  37.047  19.854   0.932
86165W        W58425  10.265  31.214   3.170
86166W        W58426  33.385   3.240   3.936
86167W        W58427  17.030  38.957  14.322
86168W        W58428  24.373  13.045  14.793
86169W        W58429  18.095  27.725   4.480
86170W        W58430  25.049  39.024   5.091
86171W        W58431  19.962  34.960  11.064
86172W        W58432  32.380  44.256   2.244
86173W        W58433  29.481  32.837  11.097
86174W        W58434  43.960  43.997   1.411
86175W        W58435  42.039  14.195  13.879
86176W        W58436  10.369  25.222  13.344
86177W        W58437   8.154  35.913   0.733
86178W        W58438  26.916  16.606   0.431
86179W        W58439   9.625  12.144   2.150
86180W        W58440  38.979  11.979  12.497
86181W        W58441  17.543  14.130   0.999
86182W        W58442  22.915   1.716  11.983
86183W        W58443   6.334  21.991  13.433
86184W        W58444  29.491  23.305  14.009
86185W        W58445  25.045   5.015   3.631
86186W        W58446  30.547  44.051  12.089
86187W        W58447   8.357  23.397   0.737
86188W        W58448  35.000   0.346  11.525
86189W        W58449   0.575   9.234  14.512
86190W        W58450  15.422  37.624   1.905
86191W        W58451  12.806   4.758  10.617
86192W        W58452  19.466  34.042  11.298
86193W        W58453  33.614  22.679  10.217
86194W        W58454  19.678  24.577   3.448
86195W        W58455  13.112  27.861   4.039
86196W        W58456  23.652  29.591   0.022
86197W        W58457   5.952  29.063   2.369
86198W        W58458   7.826   5.081   3.328
86199W        W58459  20.457  27.406   0.658
86200W        W58460  29.370  20.703   0.265
86201W        W58461  40.336   1.954   5.093
86202W        W58462   9.529  42.706  14.383
86203W        W58463  31.340  29.347   3.209
86204W        W58464  26.185  34.436   1.838
86205W        W58465  10.504  25.752  11.130
86206W        W58466  18.185   7.846  13.299
86207W        W58467  41.716   8.784  11.115
86208W        W58468  43.397  18.434  14.304
86209W        W58469   0.029   4.802  14.515
86210W        W58470   4.881  10.506   0.882
86211W        W58471  37.041  20.815  14.958
86212W        W58472  39.354   1.531   2.839
86213W        W58473  12.317  18.521  12.955
86214W        W58474   0.440  37.305  11.596
86215W        W58475  18.722  27.133  11.976
86216W        W58476  36.809  37.356   1.916
86217W        W58477  42.796  18.900   4.870
86218W        W58478  32.899  21.725  11.680
86219W        W58479  21.127  40.547  12.418
86220W        W58480   2.499   7.165   1.259
86221W        W58481  20.785   8.399   3.299
86222W        W58482   3.174  15.250  14.440
86223W        W58483  21.989  36.843   3.224
86224W        W58484  44.947   0.040   0.887
86225W        W58485   8.382  36.661   3.318
86226W        W58486  37.125  38.930  11.945
86227W        W58487  44.114  39.898  13.543
86228W        W58488  26.084  43.992  11.922
86229W        W58489  44.374  29.471  11.171
86230W        W58490   3.279   2.832   1.994
86231W        W58491  39.625  34.990   1.876
86232W        W58492  28.098   6.902  11.177
86233W        W58493  29.773  32.092  10.238
86234W        W58494  35.926  27.210  11.538
86235W        W58495   1.769  33.065   1.754
86236W        W58496  13.470  34.340   1.405
86237W        W58497  39.500  33.905   3.286
86238W        W58498  21.087  37.409  14.329
86239W        W58499  13.011   4.872   3.672
86240W        W58500  39.563   2.722   4.740
86241W        W58501  20.000   5.221  12.555
86242W        W58502  41.232   9.730   2.833
86243W        W58503  16.228  14.124   2.849
86244W        W58504  17.007  11.147  11.567
86245W        W58505   6.897   9.680   0.456
86246W        W58506   7.034   2.751   2.193
86247W        W58507  16.626  41.879  11.050
86248W        W58508   2.855  11.770  14.874
86249W        W58509  11.622  18.241  11.714
86250W        W58510  16.715   7.289  10.261
86251W        W58511  43.723  38.099   4.127
86252W        W58512  18.586   5.622  14.672
86253W        W58513  19.227  40.521   4.372
86254W        W58514  36.633  33.360  11.023
86255W        W58515  36.131  14.323   1.848
86256W        W58516  42.696  27.433   2.354
86257W        W58517  29.014  12.360   2.790
86258W        W58518  22.946  11.398  14.462
86259W        W58519  37.368  34.607   0.572
86260W        W58520  14.704  21.130  13.063
86261W        W58521   0.947   9.684  13.519
86262W        W58522  37.878  44.928  14.270
86263W        W58523  17.810  30.878   4.883
86264W        W58524   6.796  28.136  13.982
86265W        W58525  17.175  41.311  13.258
86266W        W58526  32.002  40.803   1.479
86267W        W58527  14.606  42.580   3.682
86268W        W58528  27.462  41.965   3.199
86269W        W58529  10.929  22.073   3.698
86270W        W58530  35.810  16.835   0.040
86271W        W58531  10.692   4.805   3.287
86272W        W58532   2.835  44.517   0.854
86273W        W58533   7.296   5.300  11.445
86274W        W58534  15.449  10.564   0.801
86275W        W58535  28.674   9.737  12.910
86276W        W58536  13.060   1.827   4.569
86277W        W58537   3.127  39.408  12.456
86278W        W58538   5.810  42.361   0.788
86279W        W58539  44.428  30.867  13.140
86280W        W58540   6.173  20.869  11.712
86281W        W58541  13.227   5.716  11.465
86282W        W58542  37.415  27.071   2.757
86283W        W58543  11.124  27.710   2.814
86284W        W58544   8.795  19.472  14.870
86285W        W58545  22.109  26.528  13.330
86286W        W58546  10.416  28.235   2.960
86287W        W58547  13.854  34.352   1.809
86288W        W58548   6.726  38.050  11.065
86289W        W58549  40.382  44.857  12.498
86290W        W58550  11.380  22.661   2.307
86291W        W58551  10.830  26.542   3.624
86292W        W58552   6.214  44.338  12.800
86293W        W58553  36.597  35.456  11.920
86294W        W58554  29.952  12.057  14.352
86295W        W58555  16.091  37.413  11.136
86296W        W58556  43.044  18.751   2.725
86297W        W58557  34.806  20.005   4.609
86298W        W58558  29.253  18.003   1.833
86299W        W58559  40.863  19.431   3.716
86300W        W58560  40.743  34.357   1.660
86301W        W58561  20.992  31.003   2.723
86302W        W58562  40.092   6.922  12.851
86303W        W58563  24.498  42.025  14.052
86304W        W58564   0.592  13.008   3.127
86305W        W58565   7.345  35.999  12.440
86306W        W58566  44.780  39.011  14.832
86307W        W58567   0.016  43.910   1.398
86308W        W58568  14.281   9.040   4.596
86309W        W58569  15.704  40.143   9.988
86310W        W58570   9.865  26.702  13.063
86311W        W58571  33.175   0.012   3.265
86312W        W58572  39.461   6.750   1.399
86313W        W58573  36.805   6.396   4.775
86314W        W58574  38.916  34.066   0.441
86315W        W58575  35.950  22.557   2.956
86316W        W58576  32.606  14.123   2.142
86317W        W58577   0.668  37.242   4.994
86318W        W58578  41.638  37.844   3.955
86319W        W58579  18.152  35.995  13.878
86320W        W58580  19.581  17.533  13.352
86321W        W58581  13.799  25.900   3.258
86322W        W58582  22.950  17.394  14.866
86323W        W58583  44.064  20.637   3.739
86324W        W58584   9.088   5.497  12.828
86325W        W58585  40.780  13.438   3.722
86326W        W58586  36.254  32.124   4.529
86327W        W58587  18.613  21.567   0.813
86328W        W58588  31.578  13.115  14.411
86329W        W58589   9.718  10.178  14.264
86330W        W58590  36.484  39.802   4.462
86331W        W58591  28.788   1.781   2.844
86332W        W58592   3.295  25.196   3.252
86333W        W58593   0.591  19.632  14.872
86334W        W58594   2.819  35.937  11.432
86335W        W58595  34.138  28.413   2.782
86336W        W58596  21.512   0.074  11.652
86337W        W58597   5.164  42.666  14.338
86338W        W58598  42.329  24.457  12.027
86339W        W58599  21.051   7.949  13.012
86340W        W58600  33.607   7.678   0.966
86341W        W58601  29.095  14.285   0.204
86342W        W58602  28.669  13.784  12.473
86343W        W58603   7.901  30.995  11.158
86344W        W58604  32.317  24.806   3.961
86345W        W58605  27.491  31.773   5.004
86346W        W58606  17.142  18.549   0.088
86347W        W58607  22.509  24.771  13.570
86348W        W58608   2.943   9.947  14.288
86349W        W58609   5.282  44.089   0.493
86350W        W58610  23.048  26.184  13.464
86351W        W58611   0.976  22.021   0.117
86352W        W58612  41.173  37.477  13.426
86353W        W58613   4.028  35.365   3.587
86354W        W58614   5.356  26.776  14.443
86355W        W58615  36.485  34.115  11.636
86356W        W58616  43.565  33.375  11.038
86357W        W58617  41.069   1.182   1.720
86358W        W58618  16.673  31.200   4.188
86359W        W58619   7.936  24.562  12.370
86360W        W58620  13.448  34.140  11.047
86361W        W58621  22.517  21.767  11.068
86362W        W58622  24.023   8.222  10.694
86363W        W58623  24.635  41.866  13.580
86364W        W58624  34.344   2.001  11.652
86365W        W58625  12.779  17.603  13.609
86366W        W58626   2.200  21.065   2.167
86367W        W58627  39.307  25.145  13.764
86368W        W58628  24.582  34.997   0.403
86369W        W58629  41.045   2.048   4.188
86370W        W58630  21.989  41.875   4.646
86371W        W58631   9.623  44.392  12.475
86372W        W58632  35.633  33.986   4.172
86373W        W58633  37.562  37.311   3.199
86374W        W58634   8.759   6.766  10.823
86375W        W58635  26.064  17.777  12.135
86376W        W58636  12.324  12.940   1.990
86377W        W58637  16.324   2.087   4.108
86378W        W58638   9.882  40.807  13.835
86379W        W58639  44.516  36.578  14.065
86380W        W58640  41.500  38.056  11.373
86381W        W58641  26.074  11.397  11.948
86382W        W58642  38.328   1.837  13.445
86383W        W58643  15.336  43.235   4.449
86384W        W58644  44.238  37.205  14.686
86385W        W58645   1.806  16.215  13.959
86386W        W58646  35.095  33.014  12.921
86387W        W58647  19.087  15.184  13.488
86388W        W58648  38.877  41.904  14.383
86389W        W58649   1.391  37.323   1.795
86390W        W58650  41.265  28.536  12.406
86391W        W58651  32.500   9.672   2.886
86392W        W58652   5.280  31.347   2.970
86393W        W58653  42.528  39.105  14.519
86394W        W58654  31.516  31.144  12.356
86395W        W58655  41.481   1.809   2.262
86396W        W58656   2.707  32.555   3.315
86397W        W58657  23.132  29.821   3.252
86398W        W58658  22.232  11.286  13.969
86399W        W58659  27.802  15.554   3.311
86400W        W58660  16.231  25.174  11.180
86401W        W58661   9.178  44.863  13.981
86402W        W58662  11.127  24.324   0.634
86403W        W58663   7.157   7.753   1.860
86404W        W58664  33.329  19.738  10.285
86405W        W58665   7.518  21.056   0.331
86406W        W58666  34.871  25.363   1.227
86407W        W58667   0.381  36.582   4.180
86408W        W58668   4.931  27.472   3.783
86409W        W58669  41.377  43.350  13.756
86410W        W58670   1.362  16.000  13.819
86411W        W58671  26.662  42.504  14.638
86412W        W58672  12.380   7.420   2.352
86413W        W58673   5.879  28.064   2.367
86414W        W58674  36.989  11.083  14.903
86415W        W58675  15.266   1.177   1.134
86416W        W58676  13.066  31.407   0.185
86417W        W58677  16.612  18.051   4.073
86418W        W58678  13.659   6.894   3.376
86419W        W58679  32.224   4.170  13.074
86420W        W58680  22.945  34.392  11.107
86421W        W58681  10.924  35.018   3.112
86422W        W58682  19.012  27.988   2.088
86423W        W58683  27.471  23.457  12.073
86424W        W58684  29.986  22.748   0.912
86425W        W58685  31.340  14.260   4.909
86426W        W58686   0.740  13.797   3.378
86427W        W58687  17.189  11.632   5.032
86428W        W58688  22.581  24.566  12.587
86429W        W58689  30.769  44.235   4.112
86430W        W58690  27.939  13.996  10.960
86431W        W58691  43.068  13.718  11.038
86432W        W58692   5.416   9.637   1.496
86433W        W58693   0.170  14.543   3.336
86434W        W58694  24.243  20.426  12.017
86435W        W58695  25.008  39.296   0.309
86436W        W58696   0.312  16.610  11.010
86437W        W58697   0.534  21.751   2.589
86438W        W58698   9.125   3.410  12.134
86439W        W58699  12.106  31.458  12.946
86440W        W58700  21.415  36.859  12.833
86441W        W58701  41.428  31.016  11.652
86442W        W58702  15.708  12.305   2.199
86443W        W58703  18.269  30.862  13.423
86444W        W58704  18.687  26.436  14.750
86445W        W58705  28.222  16.682   2.651
86446W        W58706  41.305  10.396   0.807
86447W        W58707  13.134  39.275  14.029
86448W        W58708  19.695  37.410  13.339
86449W        W58709  41.807   6.423  11.937
86450W        W58710  28.106   0.185  11.592
86451W        W58711   9.287  22.642  13.728
86452W        W58712  18.181  37.966  12.925
86453W        W58713  10.449  30.037   4.275
86454W        W58714  16.562   1.792  12.408
86455W        W58715  14.153   7.802  13.845
86456W        W58716  13.877  25.053   1.732
86457W        W58717  12.347  29.893   2.795
86458W        W58718  41.638  26.037   1.816
86459W        W58719   0.709   4.167  11.635
86460W        W58720  19.029  27.743  11.494
86461W        W58721  10.286  33.261  13.825
86462W        W58722  44.610  39.849  11.640
86463W        W58723  33.882  32.943   1.271
86464W        W58724  44.857  32.855  11.972
86465W        W58725   9.839  22.554  11.246
86466W        W58726  10.060  18.123  11.681
86467W        W58727  42.230  19.997   2.259
86468W        W58728  44.022  15.539   4.151
86469W        W58729  32.938  20.626   1.893
86470W        W58730   7.775  35.792  11.078
86471W        W58731  36.997  23.623  12.163
86472W        W58732  34.360  26.738  11.101
86473W        W58733   9.693  11.658   2.317
86474W        W58734   1.990   0.841   1.800
86475W        W58735  12.892  22.762  11.964
86476W        W58736  17.782  32.617  14.364
86477W        W58737   9.815  31.473   0.973
86478W        W58738  35.770   1.404  11.714
86479W        W58739  40.988   3.650   3.098
86480W        W58740  16.550  13.220  14.177
86481W        W58741  29.602  43.479  11.382
86482W        W58742  12.055  38.740  12.447
86483W        W58743  20.808  25.601   4.531
86484W        W58744  18.718  26.716  14.325
86485W        W58745  32.111   3.369  14.772
86486W        W58746  19.165  20.523  10.703
86487W        W58747  39.780  34.742  14.478
86488W        W58748  37.161  32.865  14.424
86489W        W58749   0.411  37.876   4.710
86490W        W58750  43.942  34.583   1.294
86491W        W58751  24.929   5.905  12.941
86492W        W58752   8.285  26.678  11.933
86493W        W58753  40.801  32.411  12.135
86494W        W58754  25.215  29.091  11.611
86495W        W58755   5.213   1.137  11.166
86496W        W58756   4.021  37.389  12.898
86497W        W58757  27.591  16.257  11.937
86498W        W58758  42.581  31.161   0.971
86499W        W58759  20.238  28.522   3.196
86500W        W58760  44.756   2.054   2.564
86501W        W58761  28.202  20.182   1.739
86502W        W58762  37.323  33.494   2.621
86503W        W58763  41.472  31.343  13.472
86504W        W58764  41.711  39.110   1.059
86505W        W58765  32.444   5.162   3.135
86506W        W58766  37.587   9.690  11.403
86507W        W58767  34.007  29.070   3.306
86508W        W58768  29.739  35.045   2.812
86509W        W58769   3.842   0.684  14.271
86510W        W58770  29.403  14.884   1.904
86511W        W58771  23.646  41.402   3.717
86512W        W58772  31.506  44.578  13.371
86513W        W58773   5.203  22.002  14.034
86514W        W58774  44.441  27.213  14.305
86515W        W58775  41.148  25.568  14.788
86516W        W58776  13.860  34.784   2.325
86517W        W58777  35.877  39.561   4.572
86518W        W58778  15.525   6.082  11.953
86519W        W58779  12.086  17.474  14.790
86520W        W58780  30.769  18.742   3.343
86521W        W58781  22.122  41.833  14.775
86522W        W58782  33.397   3.011  13.318
86523W        W58783  19.387  35.957   1.256
86524W        W58784  32.567  24.150   3.450
86525W        W58785   8.758  40.339  13.451
86526W        W58786  14.093  30.351  14.864
86527W        W58787   0.474  29.196   1.641
86528W        W58788  44.437  41.545   0.524
86529W        W58789  43.547   9.158  14.970
86530W        W58790  30.553  11.162   3.555
86531W        W58791   1.391   5.900  10.775
86532W        W58792   9.339  33.898  11.608
86533W        W58793  11.890  25.877  14.725
86534W        W58794  30.212  32.879   1.477
86535W        W58795  38.594  39.379   0.571
86536W        W58796  42.351  21.508  10.986
86537W        W58797  12.760  20.828  14.805
86538W        W58798  38.862  32.647   1.549
86539W        W58799  29.103  33.142  14.920
86540W        W58800   9.219  10.322   3.282
86541W        W58801  29.022  22.513  12.468
86542W        W58802   8.408  11.620   3.617
86543W        W58803  33.558  38.828  13.546
86544W        W58804  29.661  23.011   5.217
86545W        W58805  12.817  28.003   9.778
86546W        W58806   9.635  20.751  10.884
86547W        W58807  34.924  23.311   3.371
86548W        W58808   6.287  13.702  11.441
86549W        W58809   7.704  27.604   9.704
86550W        W58810   5.175  27.541   1.924
86551W        W58811  10.901  13.730  12.079
86552W        W58812   9.133  22.689   4.071
86553W        W58813   1.704  24.611   3.203
86554W        W58814  40.865  30.447   0.388
86555W        W58815  38.934  24.526   0.505
86556W        W58816   6.147  11.023  11.065
86557W        W58817  21.837   3.693   0.264
86558W        W58818   7.653  23.121  14.552
86559W        W58819  32.255  38.464   2.663
86560W        W58820   6.642  23.036  10.827
86561W        W58821  12.269  14.240   2.083
86562W        W58822  43.293  44.395  12.047
86563W        W58823   6.957  31.139  12.043
86564W        W58824  44.859  33.528  10.766
86565W        W58825  19.490  12.702   0.035
86566W        W58826  14.372  24.972  12.441
86567W        W58827  11.836  22.797  14.411
86568W        W58828   6.741   4.633  14.717
86569W        W58829   0.472  37.908   1.150
86570W        W58830  33.526  34.931   2.301
86571W        W58831  30.053   0.167  12.556
86572W        W58832  36.850  37.952  11.994
86573W        W58833  40.538  26.923  11.085
86574W        W58834  17.517   3.658  14.340
86575W        W58835  32.026  31.935  10.715
86576W        W58836   6.192  32.038  14.981
86577W        W58837  15.142  14.823   2.195
86578W        W58838  32.850  12.351   4.305
86579W        W58839  19.910  33.957  13.449
86580W        W58840  29.059   4.180   2.619
86581W        W58841  40.527  37.054   1.934
86582W        W58842  18.506   6.176  11.134
86583W        W58843  38.741  30.554  12.916
86584W        W58844  13.654  28.492   4.264
86585W        W58845  43.328  22.798  12.990
86586W        W58846  19.815  36.853   2.356
86587W        W58847  16.935  15.204   9.761
86588W        W58848  11.343  20.639  13.857
86589W        W58849  19.622   5.887  10.409
86590W        W58850   3.884  12.384   0.176
86591W        W58851  27.882   4.298  11.146
86592W        W58852  44.824  34.127  11.391
86593W        W58853  29.171  25.251   1.429
86594W        W58854  17.092  18.292   5.080
86595W        W58855  16.100  14.382  13.984
86596W        W58856   5.489   7.326  14.756
86597W        W58857  35.501  33.729  13.390
86598W        W58858   9.107  17.573  14.619
86599W        W58859  20.032  21.627  14.632
86600W        W58860   2.662  37.671  11.049
86601W        W58861  26.491  43.839   3.727
86602W        W58862   2.470   0.323  12.459
86603W        W58863  33.017   5.890   4.608
86604W        W58864  31.224  31.182   5.048
86605W        W58865  24.650  31.372   4.744
86606W        W58866   0.571   1.860  11.909
86607W        W58867  19.206  35.708   4.392
86608W        W58868  25.695  23.205   4.497
86609W        W58869  25.756  28.191  11.626
86610W        W58870  25.111  12.383  12.953
86611W        W58871  30.648  37.368   0.905
86612W        W58872  40.824  11.291  14.357
86613W        W58873  15.855  20.975   1.819
86614W        W58874  31.287  11.130   1.206
86615W        W58875  41.360  12.446  14.358
86616W        W58876  13.251  38.570  14.863
86617W        W58877   2.297  16.503   3.646
86618W        W58878   7.694  36.860  11.711
86619W        W58879   8.643  20.301  13.846
86620W        W58880  39.493  29.428   1.228
86621W        W58881  39.693  26.635  11.009
86622W        W58882  29.648  27.402   3.639
86623W        W58883  15.684  10.136  11.087
86624W        W58884  13.392   0.231  13.501
86625W        W58885  24.099   3.422   4.581
86626W        W58886  33.872  13.285  11.980
86627W        W58887  44.410   6.677  13.510
86628W        W58888  17.856  43.166   3.335
86629W        W58889  20.594  31.892  11.090
86630W        W58890  21.751  41.358  12.350
86631W        W58891  40.429  29.715  14.361
86632W        W58892  11.340  16.037  13.415
86633W        W58893   2.944   0.617  11.981
86634W        W58894  39.231  38.284   0.313
86635W        W58895  17.524  39.077   1.209
86636W        W58896  16.541  42.693   4.229
86637W        W58897  18.806   3.701  12.489
86638W        W58898  25.786  14.881  11.070
86639W        W58899  18.045   6.952   3.526
86640W        W58900  11.896  16.530  11.788
86641W        W58901  32.520  27.949  13.067
86642W        W58902  30.121  27.961  14.849
86643W        W58903   0.235  43.361   3.241
86644W        W58904  32.966  37.641   4.192
86645W        W58905  25.534   1.441  14.516
86646W        W58906  22.146  17.691  10.751
86647W        W58907  18.695  12.810   4.489
86648W        W58908  40.074  20.108  10.632
86649W        W58909   0.486   4.083  11.188
86650W        W58910  30.672  42.465   3.797
86651W        W58911  26.645  38.450  14.129
86652W        W58912   6.943  32.668  12.057
86653W        W58913   0.047  31.425   1.671
86654W        W58914  44.875   0.857  12.331
86655W        W58915  36.917  25.070   2.133
86656W        W58916  10.357  27.933   1.397
86657W        W58917  30.585   0.915   2.580
86658W        W58918   0.345  30.546  10.577
86659W        W58919  31.033  20.836   4.670
86660W        W58920   1.178  24.112   0.928
86661W        W58921  24.649   6.934  10.711
86662W        W58922  44.831  39.471   3.205
86663W        W58923  27.111  28.413   1.949
86664W        W58924   0.256  17.548  13.790
86665W        W58925  23.483  30.882   1.413
86666W        W58926  13.592  13.113  11.049
86667W        W58927  42.920   2.685   3.264
86668W        W58928  26.433  24.977  13.818
86669W        W58929  42.753  36.871  13.004
86670W        W58930  39.048  21.011  10.291
86671W        W58931  21.082  39.785   4.328
86672W        W58932  20.412  32.933  14.350
86673W        W58933  23.197   9.428  12.859
86674W        W58934  42.681   3.882   1.793
86675W        W58935  25.001  43.140   3.156
86676W        W58936  35.202  44.498  13.265
86677W        W58937   6.532  13.193  12.002
86678W        W58938  12.173  20.811   0.819
86679W        W58939   7.438  24.173  11.997
86680W        W58940  25.630  29.675  13.988
86681W        W58941   8.741  37.952   1.412
86682W        W58942  25.669  14.689   0.024
86683W        W58943  32.484  25.278   3.665
86684W        W58944  42.753   3.433  13.400
86685W        W58945  21.283  11.098   2.755
86686W        W58946   4.927  32.087   3.714
86687W        W58947  26.001  40.386  13.653
86688W        W58948  39.843  17.191  11.596
86689W        W58949   4.006  31.205   2.748
86690W        W58950  15.260  40.514  14.434
86691W        W58951  17.469  37.367   0.684
86692W        W58952  17.260  10.868   3.377
86693W        W58953  10.776  41.944   0.989
86694W        W58954  27.949  38.182   2.975
86695W        W58955  31.941  43.853  11.190
86696W        W58956  40.861  43.797   0.366
86697W        W58957  38.852  33.407   2.755
86698W        W58958  13.887  31.428  13.177
86699W        W58959  36.465  25.726   1.881
86700W        W58960  21.122  16.588  13.793
86701W        W58961   5.922  19.984  13.667
86702W        W58962  28.916  10.900  14.521
86703W        W58963  16.827  17.627  11.138
86704W        W58964   2.517  21.721   1.016
86705W        W58965  31.034  15.183   4.062
86706W        W58966  27.973  16.783  12.506
86707W        W58967   3.957  11.159  12.966
86708W        W58968  11.391   0.903  10.896
86709W        W58969  15.078  44.000  13.375
86710W        W58970  30.040   1.923  12.559
86711W        W58971  11.853  41.813  14.971
86712W        W58972  13.678  31.950   2.627
86713W        W58973  37.830  31.496  11.452
86714W        W58974  38.777  20.743   4.384
86715W        W58975  31.358  44.182   0.347
86716W        W58976  14.769  32.033   0.294
86717W        W58977  39.853  15.646  14.342
86718W        W58978  13.257   1.328  12.640
86719W        W58979  23.079   8.522   2.972
86720W        W58980  22.643  44.344   1.318
86721W        W58981  41.586   3.648  14.076
86722W        W58982  25.922  14.088  11.126
86723W        W58983  24.064  12.763   3.154
86724W        W58984  41.286  39.077  12.922
86725W        W58985  32.030   0.715   3.106
86726W        W58986  28.666   1.261  10.372
86727W        W58987  27.095  20.238   2.280
86728W        W58988  18.139   4.960   1.349
86729W        W58989  35.314  15.880   0.767
86730W        W58990  34.866  18.613   4.640
86731W        W58991  22.454  13.228   2.294
86732W        W58992   0.018  16.262   2.931
86733W        W58993  44.406   1.127   1.527
86734W        W58994  10.163  17.834   3.317
86735W        W58995  37.057  17.629  13.482
86736W        W58996  21.875  20.793   5.048
86737W        W58997  40.532  40.099   4.988
86738W        W58998  37.001  42.538   4.147
86739W        W58999  29.626  21.209   0.293
86740W        W59000   6.679  42.925   0.869
86741W        W59001  20.119  21.286  11.098
86742W        W59002   2.129  20.026  12.873
86743W        W59003   8.178  27.646   0.361
86744W        W59004   8.161  43.386  12.256
86745W        W59005  25.139  12.140  10.704
86746W        W59006  37.529   3.230  13.048
86747W        W59007  41.539  40.978   4.510
86748W        W59008  15.076  14.188   2.377
86749W        W59009  27.204  40.352  13.449
86750W        W59010  40.987  43.716   1.373
86751W        W59011  27.125  15.800  13.102
86752W        W59012  13.230  29.412  10.741
86753W        W59013  26.109   1.323   1.312
86754W        W59014   6.797  40.147   3.749
86755W        W59015  29.410  25.455  11.998
86756W        W59016  14.830  37.385  12.404
86757W        W59017   0.433  21.798   0.319
86758W        W59018  44.878  27.716  10.763
86759W        W59019  28.714  37.397   3.652
86760W        W59020  20.112   4.101  13.452
86761W        W59021  29.145  40.960  12.457
86762W        W59022  29.090  24.519   4.494
86763W        W59023   2.174  24.995  12.609
86764W        W59024   4.794  33.503   2.322
86765W        W59025  21.262  12.054   2.832
86766W        W59026  32.481  33.613  13.917
86767W        W59027  10.608  34.854   1.329
86768W        W59028  13.777  24.598  11.991
86769W        W59029   7.007  27.460   0.645
86770W        W59030  18.872  33.512  13.614
86771W        W59031  39.106  15.699   1.677
86772W        W59032   8.219  35.877   0.190
86773W        W59033  33.515  43.781   0.746
86774W        W59034  16.967  12.912  11.219
86775W        W59035  24.532  25.064   4.108
86776W        W59036  34.206  38.923   4.172
86777W        W59037   8.399   4.286   3.540
86778W        W59038  39.913  42.761   3.357
86779W        W59039  15.625  31.693  10.685
86780W        W59040  14.610   0.404  12.070
86781W        W59041  44.687  34.646   1.806
86782W        W59042  25.768   5.801  10.630
86783W        W59043  15.823  36.488   4.485
86784W        W59044   8.580  26.969   0.278
86785W        W59045  20.157  42.479   0.487
86786W        W59046  20.679  11.886   0.936
86787W        W59047   1.968  11.817  10.930
86788W        W59048  17.573  23.056  14.096
86789W        W59049  21.695  27.298   4.304
86790W        W59050  21.131  44.925  13.318
86791W        W59051  27.957   7.140   0.479
86792W        W59052  34.016  40.686   1.385
86793W        W59053  43.651  17.874   1.850
86794W        W59054  22.156  32.024  14.270
86795W        W59055  39.466  16.095   0.284
86796W        W59056  29.414  33.064   3.825
86797W        W59057  40.303  42.546  11.134
86798W        W59058   5.313  39.981   1.876
86799W        W59059   7.321  19.332   3.622
86800W        W59060   6.999   6.502  11.926
86801W        W59061   8.485  27.439  13.477
86802W        W59062  36.055   8.767   2.941
86803W        W59063  43.832  22.672  13.047
86804W        W59064  44.920  38.486  11.558
86805W        W59065  33.888  13.673  14.786
86806W        W59066  44.880  18.717  13.863
86807W        W59067  33.108  23.041  13.562
86808W        W59068  33.936   5.047   0.799
86809W        W59069  33.961  10.893  14.872
86810W        W59070  15.325  12.087   4.088
86811W        W59071  17.882   4.372  13.804
86812W        W59072  19.560  37.302   2.277
86813W        W59073  19.058  26.935   0.323
86814W        W59074   8.867  17.038   1.728
86815W        W59075  36.512   0.369   5.107
86816W        W59076  43.098  32.450  11.795
86817W        W59077  40.937   3.692   2.601
86818W        W59078  21.798  14.687   1.206
86819W        W59079  27.227  27.044  11.785
86820W        W59080  36.418   6.161   5.061
86821W        W59081  25.710  33.973   3.732
86822W        W59082  13.890   4.453  10.972
86823W        W59083  26.460  11.049   1.407
86824W        W59084  40.657  37.489  14.331
86825W        W59085  43.051  26.081  10.547
86826W        W59086  37.137   6.340  11.410
86827W        W59087  30.399  42.784   1.712
86828W        W59088  33.578   4.196  11.385
86829W        W59089  19.174  10.744  14.905
86830W        W59090  10.782   9.852   2.260
86831W        W59091  24.072  24.435   3.313
86832W        W59092  32.537  15.026   3.128
86833W        W59093  21.243  24.286  13.861
86834W        W59094  43.222  20.604  13.805
86835W        W59095   7.193  10.332   3.241
86836W        W59096  42.955  36.213  13.397
86837W        W59097  29.643  39.455   3.888
86838W        W59098   4.329   9.921  13.303
86839W        W59099   1.714  11.174  10.681
86840W        W59100  21.986   8.892   0.390
86841W        W59101  14.994  30.977   4.967
86842W        W59102  11.578  16.953  10.510
86843W        W59103  16.486  38.787  11.074
86844W        W59104  29.338  15.905   4.721
86845W        W59105  33.488  18.812  12.065
86846W        W59106  13.123  26.109  14.996
86847W        W59107  44.937  39.517  11.435
86848W        W59108  28.526   2.388  12.599
86849W        W59109  38.954  13.281   0.789
86850W        W59110   4.812  28.529  10.960
86851W        W59111  18.758  27.737   3.832
86852W        W59112  35.026   6.262   1.803
86853W        W59113  13.652  29.454   1.933
86854W        W59114  27.586  31.610   9.723
86855W        W59115   0.678  24.808  13.307
86856W        W59116  38.426   0.905  10.903
86857W        W59117  12.564  33.935  13.966
86858W        W59118  10.782   6.962  14.873
86859W        W59119  13.325  30.263  12.939
86860W        W59120   7.731  33.557   1.022
86861W        W59121   2.890  20.950   1.284
86862W        W59122  12.103  39.511   0.495
86863W        W59123   4.517  26.968   4.618
86864W        W59124  30.992  16.528   0.779
86865W        W59125   4.782  31.497  10.688
86866W        W59126  22.151  20.840   3.809
86867W        W59127  33.440  40.040   4.721
86868W        W59128  19.148  29.626   4.079
86869W        W59129  29.646  34.493   4.182
86870W        W59130  42.517  23.438   0.858
86871W        W59131  22.458  43.263   3.732
86872W        W59132  18.391   6.280   3.088
86873W        W59133  17.214  39.539  13.765
86874W        W59134  11.567   6.041  11.946
86875W        W59135  32.128  30.660  12.130
86876W        W59136  25.112  19.749   3.752
86877W        W59137  22.922   1.188   3.647
86878W        W59138   0.202  18.730   0.185
86879W        W59139  28.009   4.882  12.348
86880W        W59140   8.917  20.471   1.420
86881W        W59141   8.334  42.525   0.964
86882W        W59142   7.966   7.372  12.107
86883W        W59143   3.573  36.196   4.894
86884W        W59144  28.743   7.474  11.055
86885W        W59145  41.522   8.289   3.355
86886W        W59146  38.356   3.248   3.540
86887W        W59147   6.794   1.401  14.220
86888W        W59148   2.462   3.158   0.945
86889W        W59149  44.160   5.345   1.944
86890W        W59150  12.050  25.238  14.952
86891W        W59151  37.988  43.427   2.593
86892W        W59152   9.155  24.766   1.236
86893W        W59153  11.396  41.256   1.809
86894W        W59154  18.784  16.263   3.082
86895W        W59155  43.344  42.514  13.908
86896W        W59156  34.713  40.021   2.775
86897W        W59157  10.905  25.978  14.413
86898W        W59158  40.638  12.641  10.597
86899W        W59159  37.380  35.363  12.435
86900W        W59160   9.934  42.388  12.617
86901W        W59161  38.461   0.417  10.687
86902W        W59162  17.024   7.399   1.846
86903W        W59163  13.202  15.101  11.633
86904W        W59164  24.162  40.012   5.404
86905W        W59165   8.130  32.728   1.208
86906W        W59166  32.879  43.200   2.718
86907W        W59167  38.981  18.770   5.148
86908W        W59168  32.171  15.473   2.714
86909W        W59169   6.108  35.960   0.739
86910W        W59170  20.809  21.458  11.009
86911W        W59171  10.240   4.451  13.399
86912W        W59172   5.779  43.112  13.154
86913W        W59173  34.952   9.858  11.181
86914W        W59174  34.908  24.014  13.964
86915W        W59175  20.094  25.571  12.845
86916W        W59176   5.090  18.657   0.871
86917W        W59177  17.320  28.891   4.576
86918W        W59178  22.950  15.758   3.745
86919W        W59179  33.241   3.221   5.221
86920W        W59180  44.780  44.303  13.065
86921W        W59181  34.103   6.157  12.398
86922W        W59182  43.580   5.731  14.875
86923W        W59183  18.198  28.615  10.643
86924W        W59184   7.913  43.797   0.804
86925W        W59185  12.376  34.403   1.333
86926W        W59186  40.568  17.160   3.356
86927W        W59187   3.844   2.825   4.556
86928W        W59188  33.904  39.777   2.330
86929W        W59189  25.445   5.080  11.104
86930W        W59190   5.890  19.588   3.117
86931W        W59191  25.998  15.248   2.887
86932W        W59192   7.599   1.904  13.258
86933W        W59193  41.376  32.926   3.754
86934W        W59194  20.075  44.192  10.442
86935W        W59195  40.269   9.783  12.304
86936W        W59196   0.876  40.558   2.608
86937W        W59197  21.330   0.041   3.643
86938W        W59198  40.797  10.563   0.951
86939W        W59199  12.319  13.785   1.874
86940W        W59200  43.895  31.719  11.495
86941W        W59201  19.811  24.094   0.467
86942W        W59202  40.887  10.806  14.521
86943W        W59203  35.031  28.676  13.539
86944W        W59204  16.371  20.348  12.451
86945W        W59205  23.975  25.098  11.936
86946W        W59206   4.676   1.909   3.536
86947W        W59207  30.376   4.222  14.245
86948W        W59208   6.133  12.864  11.991
86949W        W59209   1.967  38.333  12.765
86950W        W59210   8.885  10.721   2.133
86951W        W59211  43.305   6.007   0.272
86952W        W59212  39.656  38.072  12.667
86953W        W59213  39.489   3.476  11.241
86954W        W59214  22.422  14.615  11.399
86955W        W59215  41.280  33.522  13.321
86956W        W59216  14.101   6.078   3.620
86957W        W59217  22.530  40.352   1.244
86958W        W59218  27.944  17.798   2.750
86959W        W59219   6.516   0.568   2.577
86960W        W59220  18.515  28.636   2.787
86961W        W59221  29.434  38.371   0.939
86962W        W59222  18.599  44.247  14.267
86963W        W59223  11.930  40.976  12.459
86964W        W59224  26.486  21.350  12.472
86965W        W59225  23.662  14.235  14.420
86966W        W59226  42.801   3.441   0.349
86967W        W59227  40.760  26.534  13.950
86968W        W59228  17.795  21.252   3.731
86969W        W59229  28.139  39.125   5.258
86970W        W59230   0.847  32.589  14.983
86971W        W59231   2.210  33.798  11.609
86972W        W59232  22.072   2.492   2.790
86973W        W59233  29.611   4.178   3.872
86974W        W59234   6.735  11.863  12.839
86975W        W59235   0.907  41.840  13.524
86976W        W59236  23.009  24.906  13.357
86977W        W59237  30.792  42.773   2.045
86978W        W59238   1.384  42.419  11.596
86979W        W59239  35.649  22.169  14.660
86980W        W59240  40.141  43.458   2.950
86981W        W59241  28.383  12.797   3.911
86982W        W59242   5.291  11.298  10.794
86983W        W59243   6.115  32.927  13.137
86984W        W59244   8.610  19.526   2.241
86985W        W59245  35.150   0.648  14.264
86986W        W59246  40.495  19.793  12.958
86987W        W59247  33.733  44.023   1.153
86988W        W59248   3.495  10.104  11.136
86989W        W59249  37.957  15.315  13.440
86990W        W59250  25.005   8.756  13.479
86991W        W59251  40.086  14.684  12.882
86992W        W59252   7.656   9.695   0.082
86993W        W59253  31.987  22.625  12.961
86994W        W59254  41.802  41.334  14.555
86995W        W59255  27.210  22.554  12.024
86996W        W59256  32.626  19.125  10.778
86997W        W59257  32.090  28.032   4.091
86998W        W59258   5.364  29.461  14.843
86999W        W59259  40.884  22.577  12.428
87000W        W59260  38.358  12.893   1.823
87001W        W59261  16.058  16.599   2.343
87002W        W59262  15.553  10.315  10.604
87003W        W59263  30.701  38.459  11.258
87004W        W59264  11.055  43.038  14.349
87005W        W59265  21.251  31.220  10.821
87006W        W59266   2.160  11.120  10.946
87007W        W59267  21.132  42.475  11.602
87008W        W59268  23.639  34.602   3.239
87009W        W59269  25.522  18.858   1.805
87010W        W59270  31.819  35.176   3.817
87011W        W59271  39.549   6.721   3.566
87012W        W59272  12.434  33.536   1.570
87013W        W59273   2.380  36.938   1.789
87014W        W59274  32.470   3.069   3.155
87015W        W59275   8.281  30.925   0.890
87016W        W59276  21.166  16.374   4.190
87017W        W59277  17.499  36.069  14.454
87018W        W59278   6.733   5.123  13.062
87019W        W59279  10.821  26.453  10.628
87020W        W59280   0.548   1.908  11.358
87021W        W59281  33.684  42.847  11.159
87022W        W59282   3.308   1.834   0.362
87023W        W59283  16.301   0.052   0.955
87024W        W59284   8.956  15.517   0.756
87025W        W59285  19.794  42.541  10.682
87026W        W59286   9.181  41.635  12.489
87027W        W59287  14.687  39.048  13.094
87028W        W59288  21.594   9.303   3.720
87029W        W59289  20.917  16.694  14.785
87030W        W59290  17.384  22.631  13.856
87031W        W59291  19.667   2.422  14.033
87032W        W59292  11.568  23.720  12.525
87033W        W59293  16.916  26.972   9.932
87034W        W59294   2.344  38.040   2.364
87035W        W59295   7.166  41.927   3.918
87036W        W59296  29.702  40.853  10.779
87037W        W59297  19.066  29.564  12.901
87038W        W59298  30.405  22.014   2.321
87039W        W59299  31.198  44.385  14.465
87040W        W59300  36.952  13.528   0.353
87041W        W59301  14.739  21.033   4.616
87042W        W59302  21.444  21.059   2.255
87043W        W59303  40.102  15.158   2.990
87044W        W59304   6.766  40.427  13.761
87045W        W59305   1.065   0.833   2.270
87046W        W59306  14.759  30.508   4.218
87047W        W59307   4.897  26.699  13.394
87048W        W59308  33.080   3.657   3.798
87049W        W59309  17.337  31.539   3.424
87050W        W59310  20.336   1.718   0.326
87051W        W59311  34.352   9.296  12.389
87052W        W59312   4.349   5.817   2.772
87053W        W59313   3.223  13.143   1.540
87054W        W59314  26.918  20.085   2.755
87055W        W59315  36.478  39.528   4.012
87056W        W59316  21.112   3.886  12.736
87057W        W59317  19.780  28.037  10.499
87058W        W59318  11.274  23.589   4.565
87059W        W59319  42.805  43.679  10.760
87060W        W59320  19.317  37.290   1.778
87061W        W59321  16.810   5.690  11.049
87062W        W59322  42.375  24.327  10.904
87063W        W59323  33.157  34.004   0.271
87064W        W59324  11.830  23.720   2.656
87065W        W59325  43.383   1.833  14.793
87066W        W59326   0.231  12.136  11.956
87067W        W59327  14.217   3.385   4.377
87068W        W59328  11.112  13.272  13.451
87069W        W59329   6.731  17.745   3.747
87070W        W59330  42.394  15.733   2.863
87071W        W59331  34.144  35.917   2.661
87072W        W59332   3.841  41.639  13.339
87073W        W59333  15.266  44.828   1.859
87074W        W59334  29.591  31.429  11.348
87075W        W59335  33.507  31.049  12.314
87076W        W59336   1.758  37.946  11.291
87077W        W59337  12.628  29.556   0.701
87078W        W59338   6.382   6.855  12.546
87079W        W59339  10.668  29.060   0.677
87080W        W59340  24.077   4.411  14.798
87081W        W59341  38.130  26.081  11.752
87082W        W59342   1.415  13.176   4.858
87083W        W59343  17.627  32.134   1.863
87084W        W59344  18.139  30.509  10.729
87085W        W59345  26.471   6.430  12.530
87086W        W59346   0.770  41.268   2.314
87087W        W59347  40.997  39.092  14.329
87088W        W59348  32.969  37.321  14.012
87089W        W59349  19.722  23.549   4.350
87090W        W59350  25.529   9.690   4.504
87091W        W59351  15.834   4.761  11.618
87092W        W59352  21.808  42.232  14.009
87093W        W59353  17.702  36.953   0.941
87094W        W59354  44.861  29.842   1.891
87095W        W59355   4.600  21.110   3.626
87096W        W59356  18.292  35.036   1.223
87097W        W59357   8.303  31.365  10.593
87098W        W59358  31.484   7.904  10.423
87099W        W59359  29.033   2.687   2.262
87100W        W59360   8.141  43.321  10.828
87101W        W59361  42.355  18.524  11.162
87102W        W59362   7.525  28.600   5.132
87103W        W59363   4.895   4.160  14.400
87104W        W59364  17.949  43.080   0.278
87105W        W59365  27.037   9.466  13.617
87106W        W59366  19.240  42.984   0.951
87107W        W59367   4.466  30.002   3.911
87108W        W59368  26.164  42.256  10.918
87109W        W59369   3.326  21.142  11.687
87110W        W59370  33.459  35.766  10.583
87111W        W59371  31.855   9.830  14.259
87112W        W59372  21.640  36.528   0.168
87113W        W59373   2.746  35.373  13.537
87114W        W59374  23.229  33.565   3.147
87115W        W59375  20.697  43.908  10.780
87116W        W59376  18.307   3.117  14.520
87117W        W59377  26.960   0.535   3.560
87118W        W59378  12.599  34.678  12.416
87119W        W59379   2.974   5.317   2.922
87120W        W59380  33.400  14.332  10.090
87121W        W59381  29.996  22.689  13.412
87122W        W59382  40.025   8.634   3.221
87123W        W59383  17.476  30.502   1.521
87124W        W59384  35.059   4.410   3.676
87125W        W59385  10.405  34.415  10.549
87126W        W59386   6.866  16.009  13.778
87127W        W59387  24.138  21.112   5.018
87128W        W59388  10.857  12.235   4.860
87129W        W59389   5.409  22.986   3.097
87130W        W59390   4.017   9.846   0.538
87131W        W59391  39.898  25.598   0.491
87132W        W59392   6.120  33.541  14.767
87133W        W59393  13.603  44.028  12.139
87134W        W59394  37.677  42.310  11.202
87135W        W59395   2.457   2.655  12.382
87136W        W59396  20.445  29.206   4.555
87137W        W59397   4.642  41.488   0.903
87138W        W59398  25.439  16.127   3.685
87139W        W59399   4.003  35.892  13.821
87140W        W59400  38.320  27.106  14.362
87141W        W59401   3.812  29.511  10.672
87142W        W59402  42.882  26.398  10.135
87143W        W59403  30.462   4.401  11.069
87144W        W59404   7.266  41.756   1.473
87145W        W59405  17.976  44.907   0.902
87146W        W59406  38.470  31.116  11.368
87147W        W59407   3.731  16.569   2.601
87148W        W59408  36.452  19.151   0.550
87149W        W59409  33.582   6.273   4.179
87150W        W59410  38.021  17.061  11.179
87151W        W59411  21.124  44.519   4.497
87152W        W59412  37.157  19.245   2.727
87153W        W59413   8.766  26.985  11.958
87154W        W59414  32.590  31.433   3.275
87155W        W59415   4.590   8.089  10.046
87156W        W59416  18.206  22.493  14.478
87157W        W59417  38.826   1.879  14.040
87158W        W59418  30.540  41.987   2.082
87159W        W59419   1.714   9.822  12.875
87160W        W59420  32.290  25.230  11.225
87161W        W59421  27.510  34.655   2.644
87162W        W59422   0.350  16.224  13.319
87163W        W59423  33.022  22.090   2.138
87164W        W59424   1.022  19.008  11.159
87165W        W59425   3.527  42.909   4.225
87166W        W59426  18.004  44.838  14.517
87167W        W59427  16.689  37.699   4.564
87168W        W59428  34.610  35.190   3.486
87169W        W59429   0.482   1.029   3.321
87170W        W59430  39.789  42.836   5.008
87171W        W59431  23.516  12.082   3.900
87172W        W59432  33.785  20.778   5.562
87173W        W59433   0.864   1.620  13.241
87174W        W59434   9.689   0.209  11.042
87175W        W59435   8.747  42.862   0.970
87176W        W59436   8.713  44.307  11.101
87177W        W59437  16.531  14.540   1.729
87178W        W59438  20.089  44.700  10.646
87179W        W59439   7.228  26.023   1.773
87180W        W59440  42.943  29.695   0.195
87181W        W59441  35.423   0.455   3.652
87182W        W59442  14.377  18.664   0.419
87183W        W59443   2.366  13.105  11.292
87184W        W59444  20.055  37.051   4.668
87185W        W59445   3.903  18.209  13.260
87186W        W59446  27.398  19.321   4.144
87187W        W59447   6.670   4.376   4.193
87188W        W59448  14.261  23.248  11.644
87189W        W59449  11.568  43.864   2.266
87190W        W59450   6.131  22.274   2.151
87191W        W59451  44.347   9.246   0.330
87192W        W59452   5.175  44.315   2.246
87193W        W59453   3.900  40.039  10.826
87194W        W59454   4.339  13.675   4.138
87195W        W59455  32.325  19.451   3.168
87196W        W59456  31.944  18.572   2.655
87197W        W59457   5.631  32.953  13.985
87198W        W59458  15.560  12.753   4.698
87199W        W59459  34.027  16.884  11.853
87200W        W59460  22.048   1.933  11.377
87201W        W59461  27.706  41.765   0.298
87202W        W59462  30.921  17.555   4.502
87203W        W59463  19.839  19.324  11.635
87204W        W59464   2.861  22.052   3.412
87205W        W59465  14.611   2.587  11.549
87206W        W59466  17.274  28.507  11.997
87207W        W59467  15.708  36.044   0.745
87208W        W59468  23.396  23.078  11.991
87209W        W59469  25.818  29.837  14.869
87210W        W59470  26.124  11.568   0.743
87211W        W59471   8.414  35.388  11.579
87212W        W59472  31.998  11.084  13.104
87213W        W59473  42.413  33.614  10.266
87214W        W59474  18.136  18.262   2.478
87215W        W59475  20.004   1.623   4.656
87216W        W59476   6.943  35.553   3.686
87217W        W59477  44.854   1.640   2.237
87218W        W59478  11.822  26.481  12.464
87219W        W59479  30.380  43.799  11.151
87220W        W59480  33.071  29.277  11.370
87221W        W59481  34.322  32.223   2.698
87222W        W59482  35.262  16.098   0.285
87223W        W59483  17.334  14.166   0.481
87224W        W59484  25.239  12.356   3.369
87225W        W59485  17.821  40.055  12.674
87226W        W59486  35.040   5.130   4.529
87227W        W59487  26.169  13.668  12.185
87228W        W59488  11.618  30.126   3.238
87229W        W59489  17.737  22.012   1.278
87230W        W59490  40.500  38.909  11.762
87231W        W59491  39.481   9.582  10.985
87232W        W59492  40.100  31.109   3.641
87233W        W59493  34.803  31.105  14.279
87234W        W59494   4.969  32.668   4.088
87235W        W59495  25.620  11.493  11.130
87236W        W59496   2.914  12.452   3.580
87237W        W59497  34.582  23.545   0.827
87238W        W59498  44.899  43.835  14.481
87239W        W59499   5.975  18.063   1.768
87240W        W59500  25.302  22.224   3.768
87241W        W59501  30.059   0.444   0.983
87242W        W59502  11.110  32.845   2.222
87243W        W59503  41.377   8.010   0.716
87244W        W59504  41.408  16.092   0.709
87245W        W59505  24.053  20.957   2.432
87246W        W59506   4.190   4.098  13.271
87247W        W59507  14.405   7.182  10.875
87248W        W59508  13.210   4.295  12.540
87249W        W59509  26.565  30.673   0.387
87250W        W59510   3.376  12.691  10.346
87251W        W59511  22.134  38.969   0.335
87252W        W59512   8.072  14.656  11.599
87253W        W59513  25.447  28.603   3.243
87254W        W59514   8.184  17.882  10.977
87255W        W59515  24.143  43.993   0.497
87256W        W59516  35.962  33.507  10.667
87257W        W59517  25.960   6.407   4.767
87258W        W59518   3.310  29.651   3.302
87259W        W59519  38.541  32.381   2.714
87260W        W59520   7.899  36.997   1.896
87261W        W59521  39.871  42.482  14.484
87262W        W59522   9.773  29.510  13.592
87263W        W59523  25.044  42.495   3.213
87264W        W59524  38.851  14.739   1.906
87265W        W59525  12.597  41.715   0.485
87266W        W59526   7.060  19.554  11.134
87267W        W59527   2.306   4.725   4.421
87268W        W59528  38.115  18.861   0.424
87269W        W59529  11.900  15.773  13.852
87270W        W59530  22.192  39.845  11.948
87271W        W59531  41.000  27.154   0.448
87272W        W59532  24.705  42.745  14.742
87273W        W59533  25.608  44.047   3.666
87274W        W59534  43.894  23.514  11.111
87275W        W59535   2.412  11.630   0.130
87276W        W59536  10.607  37.001  13.027
87277W        W59537  41.496  31.989  12.807
87278W        W59538  43.850  32.621  13.618
87279W        W59539  39.370  24.505   1.331
87280W        W59540   7.916  17.234  13.060
87281W        W59541   5.388   8.007  14.282
87282W        W59542  44.890  39.842   4.199
87283W        W59543  12.151   2.007  10.749
87284W        W59544  18.065  37.513  11.541
87285W        W59545  38.815  19.993  13.371
87286W        W59546  17.580  17.767   2.173
87287W        W59547  14.548  28.715  14.838
87288W        W59548  40.474  33.544   0.975
87289W        W59549  37.899  36.269   0.322
87290W        W59550  10.920  20.663   2.079
87291W        W59551  25.121   3.518   3.926
87292W        W59552  32.101   2.354   1.223
87293W        W59553   4.677  20.014  11.975
87294W        W59554  18.215   3.897  14.879
87295W        W59555  19.776  27.736  13.955
87296W        W59556  22.000  24.688   3.899
87297W        W59557  29.718  14.008   2.332
87298W        W59558  21.231  34.630   4.226
87299W        W59559  27.223  43.471   3.806
87300W        W59560   4.661   7.723  10.736
87301W        W59561   6.056   1.556  14.933
87302W        W59562  29.968  43.495  13.698
87303W        W59563  25.202  41.297  10.271
87304W        W59564  35.004  44.020  13.448
87305W        W59565  43.580   9.588   0.753
87306W        W59566  14.560  16.747   9.965
87307W        W59567  12.621   4.478   0.768
87308W        W59568   3.693  21.095   3.639
87309W        W59569  27.962  36.353   3.226
87310W        W59570   5.748  12.530  12.006
87311W        W59571   5.236  10.258  13.214
87312W        W59572  10.789  34.792   4.588
87313W        W59573  17.162   1.504  10.746
87314W        W59574  14.718  17.815   4.239
87315W        W59575   3.346  29.658  12.546
87316W        W59576   1.839  37.014  13.387
87317W        W59577  28.681   8.005  14.934
87318W        W59578  14.645  41.262  14.976
87319W        W59579  31.649   1.117  14.915
87320W        W59580  27.435  28.976  11.087
87321W        W59581  14.198  19.288   2.333
87322W        W59582  10.874  17.862  13.372
87323W        W59583  13.291  23.020  11.598
87324W        W59584   9.439  11.689   1.859
87325W        W59585  28.022  29.646  12.852
87326W        W59586  43.469  26.711   2.913
87327W        W59587  24.718  37.795  12.492
87328W        W59588  39.063  35.841   4.627
87329W        W59589  36.169  19.558   0.369
87330W        W59590  24.749  34.937   3.874
87331W        W59591  17.298  35.486  12.366
87332W        W59592   5.659   0.381  12.190
87333W        W59593  13.285  19.363   2.243
87334W        W59594   1.850  20.292   0.410
87335W        W59595  16.037  10.792   4.091
87336W        W59596   0.255  34.414   0.837
87337W        W59597  20.409   5.570  12.497
87338W        W59598  41.972  29.697   1.526
87339W        W59599  32.075  24.137   0.217
87340W        W59600  20.402   3.368  13.091
87341W        W59601  20.330  19.704   5.115
87342W        W59602  23.698  16.711  12.901
87343W        W59603  43.362  27.019  11.729
87344W        W59604   9.157  12.339  12.053
87345W        W59605  25.703  34.018   1.417
87346W        W59606   6.835  35.472   3.171
87347W        W59607  41.690  38.965   0.569
87348W        W59608  40.077  12.785   1.424
87349W        W59609  17.240  14.030  11.964
87350W        W59610  35.887  39.458   2.370
87351W        W59611  41.557  39.464  13.121
87352W        W59612  21.834  20.352  10.411
87353W        W59613  20.011  29.365  11.526
87354W        W59614  25.880   3.959   3.735
87355W        W59615  22.302  20.466   0.407
87356W        W59616  41.379  10.729  12.818
87357W        W59617  24.551   6.874  11.442
87358W        W59618  26.519  43.847  13.090
87359W        W59619  39.109  29.052  13.699
87360W        W59620  27.364   1.821   0.399
87361W        W59621  36.999  22.343  13.845
87362W        W59622   4.185  22.572   0.138
87363W        W59623  35.912   1.947  13.361
87364W        W59624  40.129  39.589  13.387
87365W        W59625  14.896   6.820   4.193
87366W        W59626  16.626   7.760  14.970
87367W        W59627  24.197  43.003  13.966
87368W        W59628  12.843  32.757  12.170
87369W        W59629  38.183  39.539   1.931
87370W        W59630  20.532  40.385  11.648
87371W        W59631   7.598  10.626   0.934
87372W        W59632  18.523  20.756   0.357
87373W        W59633   8.216  44.227   0.818
87374W        W59634  11.349  25.712   2.907
87375W        W59635  29.941  38.887  13.037
87376W        W59636   4.423  35.572  13.931
87377W        W59637   6.321   5.224  11.978
87378W        W59638  33.910  44.470  10.214
87379W        W59639  36.025   6.770   0.352
87380W        W59640  29.429  27.567  13.700
87381W        W59641  15.268  31.571   3.630
87382W        W59642  20.313  38.639   4.210
87383W        W59643  10.815   9.699   0.321
87384W        W59644  38.260  33.584  13.979
87385W        W59645  14.116   5.407  13.336
87386W        W59646  13.886   6.437   2.379
87387W        W59647  28.628  26.820  11.042
87388W        W59648  15.734  40.726   4.124
87389W        W59649  12.320  37.310  11.483
87390W        W59650  30.996  24.377  13.076
87391W        W59651  22.508  31.473   0.861
87392W        W59652   3.402  39.012  14.496
87393W        W59653  42.084  12.773  11.510
87394W        W59654  11.401  11.780   1.799
87395W        W59655  11.355   5.442  14.511
87396W        W59656  43.819  24.114  13.534
87397W        W59657  28.841  34.904  11.594
87398W        W59658   1.305  39.135  11.922
87399W        W59659  12.374  15.615  10.490
87400W        W59660   8.893  16.531  13.550
87401W        W59661  22.318  41.929   0.717
87402W        W59662  15.187  26.122  12.042
87403W        W59663  19.549  18.207   4.603
87404W        W59664  16.415  18.005   0.002
87405W        W59665  16.974  17.719  10.527
87406W        W59666   3.244  18.249   1.828
87407W        W59667   1.390  32.125  13.365
87408W        W59668  24.769  27.246   1.802
87409W        W59669  22.730  29.074  14.000
87410W        W59670  37.067  37.924  14.336
87411W        W59671  16.840  40.807  11.868
87412W        W59672  21.754  44.318   0.801
87413W        W59673   5.377  26.278  14.324
87414W        W59674   6.904  12.889  14.998
87415W        W59675  26.996  12.478   0.410
87416W        W59676  36.713  30.887   3.506
87417W        W59677   1.059  28.586   4.285
87418W        W59678  31.645   7.281  12.595
87419W        W59679  25.869  34.720   1.478
87420W        W59680  22.820  11.332   3.794
87421W        W59681  38.358  13.890   0.513
87422W        W59682  28.438  19.714   1.721
87423W        W59683  34.580   3.384   0.410
87424W        W59684  33.910  37.787   2.888
87425W        W59685  15.760  40.720   3.241
87426W        W59686  33.878  16.071   0.765
87427W        W59687  34.117  37.302   4.175
87428W        W59688  23.427  39.881  14.916
87429W        W59689  41.344  25.454   4.941
87430W        W59690   0.412  12.469   3.754
87431W        W59691  21.939  37.444   0.354
87432W        W59692  36.782   7.293   0.460
87433W        W59693  28.032  22.835   4.408
87434W        W59694   4.827   8.696   5.005
87435W        W59695   6.100  40.865  11.148
87436W        W59696  35.758  36.396   3.623
87437W        W59697  34.082   1.857  14.949
87438W        W59698  18.946  23.965   0.840
87439W        W59699   7.744   0.744  12.009
87440W        W59700   0.381  11.570  14.536
87441W        W59701  32.556  21.648   1.400
87442W        W59702  37.290  41.003  11.660
87443W        W59703  14.082  34.728  14.098
87444W        W59704  29.352  31.038   1.437
87445W        W59705   6.728  44.480   3.448
87446W        W59706  10.718  37.903  12.684
87447W        W59707  38.888   0.586  10.291
87448W        W59708  23.794  18.975  13.071
87449W        W59709  18.803  37.474   9.798
87450W        W59710  43.834  10.796   4.021
87451W        W59711  12.387   8.650   0.781
87452W        W59712   3.349   4.191  14.415
87453W        W59713  13.870  29.111  10.219
87454W        W59714  23.257  41.000  12.374
87455W        W59715  40.797  16.746   0.381
87456W        W59716   3.975  41.229  11.428
87457W        W59717  18.558  40.624  13.342
87458W        W59718  11.376  21.562   4.534
87459W        W59719   7.926   1.560   1.403
87460W        W59720  32.100   6.390  12.507
87461W        W59721  41.713   7.891   5.332
87462W        W59722   7.801  37.190  10.334
87463W        W59723  33.217  31.900  11.481
87464W        W59724  43.531  40.408  10.949
87465W        W59725  33.684  16.265  13.927
87466W        W59726  14.648  35.460  10.583
87467W        W59727  14.435  36.010  10.748
87468W        W59728  28.192  36.598  14.388
87469W        W59729   5.769  42.600  13.119
87470W        W59730  40.786   2.738   1.895
87471W        W59731  12.785  13.602   4.190
87472W        W59732   1.591  27.995   0.551
87473W        W59733  23.501  13.868   3.393
87474W        W59734  32.003   5.892  12.537
87475W        W59735  40.636  44.451  14.575
87476W        W59736   5.202   4.968   1.313
87477W        W59737  39.580   6.317  11.831
87478W        W59738   2.700  27.658   0.335
87479W        W59739   5.991  25.275  11.038
87480W        W59740  28.065  44.706  13.318
87481W        W59741  30.358  25.749  12.053
87482W        W59742  12.819  33.779   0.825
87483W        W59743  38.372   6.690   0.513
87484W        W59744  10.599  44.453  11.533
87485W        W59745  11.387  31.499   1.369
87486W        W59746   5.572   7.475   0.247
87487W        W59747  19.365  32.293   2.766
87488W        W59748   8.410  31.158  12.958
87489W        W59749   5.662  22.227  12.375
87490W        W59750  32.568   5.165  14.464
87491W        W59751  30.345  12.948   1.415
87492W        W59752  34.564  21.299   5.571
87493W        W59753  10.340  28.640   3.297
87494W        W59754  20.741   4.289   2.296
87495W        W59755   9.287  18.766   3.678
87496W        W59756  16.199   7.272  10.292
87497W        W59757   8.917   7.732   1.356
87498W        W59758   2.290  30.515  14.376
87499W        W59759  26.395  38.073  11.065
87500W        W59760  14.693  12.742  10.222
87501W        W59761  35.444  29.914   1.952
87502W        W59762  14.778   0.494   3.596
87503W        W59763   1.202  21.710   4.739
87504W        W59764   1.825  22.457  13.607
87505W        W59765  35.019  19.987  11.547
87506W        W59766  43.765  33.052   1.721
87507W        W59767  20.742   6.564   4.976
87508W        W59768   3.233  31.016  13.856
87509W        W59769   7.228  32.451  13.395
87510W        W59770   6.911  39.125  11.338
87511W        W59771  44.308  16.171   0.260
87512W        W59772   4.298  31.578  10.517
87513W        W59773  13.713   6.907  11.312
87514W        W59774  30.067  26.159  13.861
87515W        W59775  31.842  41.755  13.893
87516W        W59776  33.982  20.535   3.331
87517W        W59777  40.362  15.468  13.456
87518W        W59778  13.267   8.396  13.030
87519W        W59779  13.166  37.099   4.464
87520W        W59780   7.510   9.692   2.327
87521W        W59781  42.790   0.284  14.507
87522W        W59782  38.515  33.722   1.512
87523W        W59783   3.293  13.009   0.209
87524W        W59784   5.530  14.655  13.408
87525W        W59785   2.364   1.770  12.343
87526W        W59786   1.862  26.627   3.872
87527W        W59787  28.592   1.604  11.927
87528W        W59788  40.995   0.416   4.140
87529W        W59789  29.012  28.223   2.461
87530W        W59790  18.689  28.909  12.493
87531W        W59791  21.218  38.875   1.729
87532W        W59792  44.757  12.314   2.611
87533W        W59793  14.675  42.000  13.425
87534W        W59794  19.066  20.657  14.440
87535W        W59795  15.311  42.477  11.888
87536W        W59796  30.480  16.074   4.844
87537W        W59797  10.177  21.102  11.960
87538W        W59798   1.967  11.221  14.545
87539W        W59799  13.989  16.305  14.335
87540W        W59800  35.499  10.784   3.118
87541W        W59801  13.150  10.972   3.921
87542W        W59802  22.135   5.809  12.397
87543W        W59803  20.772  37.868  14.208
87544W        W59804  31.129  13.888   0.477
87545W        W59805  25.464  23.763   0.235
87546W        W59806   9.358  20.201   3.746
87547W        W59807  35.298  20.191  10.049
87548W        W59808   4.160   3.238  13.476
87549W        W59809   6.077  28.406  11.133
87550W        W59810  44.843  31.983  10.602
87551W        W59811  37.083  19.210   4.526
87552W        W59812  27.505  26.355   3.304
87553W        W59813  25.068   3.238  14.968
87554W        W59814  30.970  10.874   2.149
87555W        W59815  34.688  16.076   0.278
87556W        W59816  20.047  43.017  10.664
87557W        W59817  35.370   3.429  12.848
87558W        W59818  44.005   3.167  14.862
87559W        W59819  44.274  15.736   3.747
87560W        W59820  27.561  23.860  13.521
87561W        W59821  15.735  20.780  13.940
87562W        W59822  40.973  40.143  13.801
87563W        W59823  36.404  21.251  12.485
87564W        W59824  13.579   4.762   2.717
87565W        W59825  28.422   5.425  14.910
87566W        W59826   7.269  13.637   1.748
87567W        W59827   4.228  26.419   4.518
87568W        W59828   6.920  21.169   2.085
87569W        W59829  44.174  29.497   3.640
87570W        W59830  31.023  32.948  12.481
87571W        W59831  17.327   3.814  12.999
87572W        W59832  12.819   6.637   1.278
87573W        W59833   8.804  20.801  13.869
87574W        W59834  13.140  27.076   0.979
87575W        W59835  40.544  18.245  11.149
87576W        W59836  44.561  44.954   3.295
87577W        W59837  32.997   5.974  10.372
87578W        W59838  37.982   3.311  10.357
87579W        W59839   8.281  18.628   4.095
87580W        W59840  10.178  24.670   2.093
87581W        W59841  31.418  41.834   4.904
87582W        W59842   7.945   3.477   4.198
87583W        W59843  29.702  28.956   4.562
87584W        W59844  36.436  31.549   1.384
87585W        W59845  31.118   0.898  11.335
87586W        W59846   7.411   7.564  11.524
87587W        W59847  13.295   6.299   4.613
87588W        W59848   6.665  29.826  10.551
87589W        W59849  13.296  20.499   3.829
87590W        W59850  44.551  23.077  10.703
87591W        W59851   8.834  41.901   3.100
87592W        W59852  39.274  21.554   4.611
87593W        W59853  31.294  42.887   1.815
87594W        W59854  33.590   6.941  12.841
87595W        W59855  18.605  31.185  13.162
87596W        W59856  31.524  32.579   2.721
87597W        W59857  38.313   6.834   3.728
87598W        W59858   1.468  21.171   3.100
87599W        W59859  25.675  30.137   2.417
87600W        W59860  30.932  43.703  11.979
87601W        W59861  11.380  11.649   3.123
87602W        W59862  39.332  14.971   3.683
87603W        W59863  44.462   9.634  12.163
87604W        W59864  21.583  23.666  11.092
87605W        W59865  42.450  21.912   0.914
87606W        W59866   9.692   8.210   1.419
87607W        W59867  41.397  42.425  11.186
87608W        W59868   0.530  41.861  11.244
87609W        W59869  42.960  10.573   4.692
87610W        W59870  15.273  37.288  14.932
87611W        W59871   5.560   1.659   4.448
87612W        W59872   1.279  27.084  11.994
87613W        W59873  15.519   1.262  13.413
87614W        W59874  31.496  42.595  11.306
87615W        W59875  30.199   3.696  14.404
87616W        W59876   9.234  42.943   5.124
87617W        W59877   1.804   1.061  11.187
87618W        W59878  27.369  27.476  13.799
87619W        W59879  37.810  21.730  14.793
87620W        W59880  22.191  31.368   3.320
87621W        W59881  24.123  28.328   2.717
87622W        W59882   9.067   4.702  10.642
87623W        W59883   9.124  28.404  13.973
87624W        W59884  16.638  39.547  11.551
87625W        W59885  44.654  14.056  11.918
87626W        W59886  37.397   4.824   4.659
87627W        W59887  40.005  13.135  12.515
87628W        W59888  37.909  12.779   0.053
87629W        W59889  31.042  25.518   4.339
87630W        W59890  31.602  36.590   2.711
87631W        W59891  10.916  41.618  11.453
87632W        W59892  35.586  38.036   0.454
87633W        W59893  33.580  40.533   1.119
87634W        W59894  38.571   1.473   2.245
87635W        W59895  36.975  42.442  12.946
87636W        W59896  34.749   5.240   3.205
87637W        W59897  27.898  44.967   4.099
87638W        W59898  31.448   6.938  12.966
87639W        W59899  36.032  44.873   4.603
87640W        W59900  11.665  37.942   0.251
87641W        W59901  23.539  21.648   0.995
87642W        W59902   2.437  16.293  10.991
87643W        W59903   1.515  16.801  14.536
87644W        W59904  24.761  27.006   2.257
87645W        W59905  41.197  15.672  14.987
87646W        W59906  23.046   9.175   0.978
87647W        W59907  32.536  44.535   0.973
87648W        W59908  21.024   5.203  13.837
87649W        W59909  24.021  12.703   0.883
87650W        W59910  41.989  30.445   3.580
87651W        W59911  14.299  22.731  14.863
87652W        W59912  18.731   3.302  12.818
87653W        W59913   5.611   5.011  11.394
87654W        W59914  28.157  22.743  13.573
87655W        W59915   6.280  10.859   3.171
87656W        W59916  16.150   5.754  13.954
87657W        W59917  21.623  31.405  12.514
87658W        W59918   0.966  42.450   3.672
87659W        W59919  43.373  21.477  12.481
87660W        W59920   6.697  15.908   4.292
87661W        W59921   6.454  41.847  13.498
87662W        W59922  17.030  42.706   2.683
87663W        W59923  11.074  17.097  10.538
87664W        W59924   5.435  33.369   0.782
87665W        W59925  43.315  12.186   4.344
87666W        W59926  14.534  41.126   2.205
87667W        W59927  41.755   4.186  12.861
87668W        W59928   7.447   3.160  11.806
87669W        W59929  35.925  38.576   1.343
87670W        W59930  20.466  36.546   0.735
87671W        W59931  37.526  31.148   1.772
87672W        W59932  35.657   5.030   2.843
87673W        W59933  13.345   4.911   0.263
87674W        W59934  26.907   2.240   4.580
87675W        W59935  15.865  22.179   2.240
87676W        W59936  35.420  30.038  14.754
87677W        W59937  27.953   2.240  10.443
87678W        W59938  32.151  32.065   1.160
87679W        W59939  26.903  43.667   0.159
87680W        W59940  28.433  32.544  11.129
87681W        W59941  38.612  28.176   3.147
87682W        W59942  19.722  14.320   3.745
87683W        W59943  21.104  38.244  12.558
87684W        W59944   9.506  23.244   2.024
87685W        W59945  31.003  44.413  13.984
87686W        W59946  38.652  27.920   0.925
87687W        W59947   2.779  41.969   3.187
87688W        W59948  24.068  38.375   2.169
87689W        W59949  16.701   5.864  14.013
87690W        W59950   3.951  25.414  11.883
87691W        W59951  41.070  11.223  13.917
87692W        W59952  38.031  17.144  14.857
87693W        W59953  22.563  17.057  10.263
87694W        W59954  32.918  32.417  12.862
87695W        W59955  32.030  18.170   1.862
87696W        W59956  40.343   4.687  14.798
87697W        W59957  21.502   9.255  12.977
87698W        W59958  28.285   0.907   4.082
87699W        W59959  20.641  22.942   4.579
87700W        W59960  34.382  22.054   0.811
87701W        W59961  30.407  37.806  12.016
87702W        W59962  23.126  11.952   0.349
87703W        W59963   4.912  42.887  12.152
87704W        W59964  12.939  33.545   1.419
87705W        W59965   6.229  17.827   3.606
87706W        W59966  44.975   6.907   0.280
87707W        W59967  14.192  27.429  13.763
87708W        W59968   1.914  26.646  12.850
87709W        W59969  30.006  17.154  10.665
87710W        W59970   7.662  30.016   1.297
87711W        W59971  25.059   1.222  10.736
87712W        W59972  29.318  19.229   3.342
87713W        W59973  23.286  29.004  11.552
87714W        W59974  26.926  44.345   0.382
87715W        W59975  24.470   1.355   3.788
87716W        W59976  41.786  37.266   4.643
87717W        W59977   0.440  27.512  10.891
87718W        W59978  36.277   2.977  12.921
87719W        W59979   4.716   2.476   0.332
87720W        W59980  30.770  20.811  12.876
87721W        W59981  18.933  14.672  12.375
87722W        W59982  35.487  26.471   4.771
87723W        W59983  19.599  41.752   1.457
87724W        W59984  11.686  28.085   3.541
87725W        W59985  35.504  33.848   2.777
87726W        W59986   7.148   5.957   4.091
87727W        W59987   0.321  22.605   1.624
87728W        W59988   0.376  29.461   4.323
87729W        W59989  14.090  16.608  12.171
87730W        W59990  14.845  25.724  11.986
87731W        W59991  41.893  22.763  13.521
87732W        W59992  27.220  10.285  12.572
87733W        W59993  40.963  24.755   2.151
87734W        W59994  18.507  32.689  14.133
87735W        W59995  41.715   7.897  11.159
87736W        W59996  20.034  11.264   2.359
87737W        W59997  19.743  35.725  10.144
87738W        W59998  44.535  24.697  12.359
87739W        W59999   9.242   3.997   2.395
87740W        W60000   5.969   7.959  13.803
87741W        W60001  32.116   0.829   2.614
87742W        W60002  22.648  27.770   0.388
87743W        W60003   2.688  32.711   4.733
87744W        W60004  25.004  11.349   3.195
87745W        W60005  23.595   6.321   1.553
87746W        W60006  20.027  40.132   4.822
87747W        W60007  10.187  16.320  14.610
87748W        W60008  28.254  33.409  12.457
87749W        W60009   6.562  16.886   4.115
87750W        W60010   7.349   4.296  14.190
87751W        W60011  36.524   9.167  10.692
87752W        W60012  24.507  19.984   0.595
87753W        W60013  16.137   2.992   0.548
87754W        W60014  32.283   9.131   4.174
87755W        W60015  41.895  22.499  12.818
87756W        W60016  44.973  30.871   1.440
87757W        W60017   7.387   1.482  12.949
87758W        W60018  11.143  13.959  12.472
87759W        W60019  14.871   1.332  13.879
87760W        W60020  15.546  26.466   4.602
87761W        W60021  10.495  11.248   1.924
87762W        W60022  23.991  20.005  12.121
87763W        W60023  18.263  39.959   3.485
87764W        W60024  13.784  14.033   1.656
87765W        W60025   0.809  42.403   1.799
87766W        W60026  22.252  18.559   0.440
87767W        W60027   7.764  22.074  13.303
87768W        W60028  25.235  42.274   2.316
87769W        W60029  28.853  17.141   4.836
87770W        W60030  29.587   5.652   3.432
87771W        W60031  10.756   8.042  11.538
87772W        W60032  20.251  28.484   2.652
87773W        W60033   1.826  15.380  12.904
87774W        W60034  37.366  40.450  13.872
87775W        W60035  20.524  36.078   0.452
87776W        W60036  13.179   3.439   0.064
87777W        W60037  38.823   1.936   1.286
87778W        W60038  33.923   9.307  13.533
87779W        W60039  16.052  22.684  10.640
87780W        W60040  41.827  11.584  12.399
87781W        W60041  15.870  33.360   1.421
87782W        W60042   1.026  23.450   2.836
87783W        W60043  36.471  42.223   3.356
87784W        W60044  31.171  11.508  10.237
87785W        W60045  14.160  12.140   4.553
87786W        W60046  30.841  25.552  12.058
87787W        W60047  14.217  33.970   1.808
87788W        W60048  28.163  20.017  12.993
87789W        W60049   4.726  34.600   0.393
87790W        W60050  30.404  44.312  11.234
87791W        W60051  40.086  37.542   0.339
87792W        W60052  32.670  37.812  11.220
87793W        W60053  37.860   9.881   0.853
87794W        W60054  33.417  15.395  13.480
87795W        W60055   9.960  33.393   3.725
87796W        W60056  37.238   1.360   3.579
87797W        W60057  33.935  23.440  14.405
87798W        W60058  31.991  21.081  14.626
87799W        W60059  31.632  11.606  10.475
87800W        W60060  19.538  34.501   0.381
87801W        W60061   7.403   7.224   3.377
87802W        W60062  25.615  27.886  11.237
87803W        W60063  30.920  36.488   3.717
87804W        W60064   3.699  42.119  13.331
87805W        W60065   2.981  25.190   4.792
87806W        W60066  12.678  12.279   4.305
87807W        W60067  31.368  31.503  14.905
87808W        W60068  27.167  18.581   3.164
87809W        W60069  27.747  34.559   1.790
87810W        W60070   7.194  21.092   4.893
87811W        W60071  28.159  24.453   1.921
87812W        W60072  41.590   9.787  11.980
87813W        W60073  36.965  11.323   4.393
87814W        W60074  22.025  29.557  12.526
87815W        W60075   8.259  15.578  11.603
87816W        W60076  31.607  34.588   3.201
87817W        W60077  21.789  36.291  11.591
87818W        W60078  16.179  23.086   4.556
87819W        W60079  35.594  37.099  11.619
87820W        W60080  12.721   2.959   0.889
87821W        W60081  17.426  24.971  11.652
87822W        W60082  27.231   2.879  13.565
87823W        W60083   4.914  30.536   0.232
87824W        W60084  32.360  44.927  10.524
87825W        W60085   3.446   4.703   2.860
87826W        W60086  16.651  17.695   0.374
87827W        W60087  32.541  27.639  14.035
87828W        W60088  12.373  26.884   4.324
87829W        W60089  25.264  35.073   3.236
87830W        W60090   1.355  10.940   0.788
87831W        W60091   0.907  30.327   0.794
87832W        W60092  18.416  19.775   0.496
87833W        W60093  31.651   3.064  11.425
87834W        W60094  29.408  18.246  13.355
87835W        W60095  13.321  21.716   2.879
87836W        W60096  29.776  41.988  10.900
87837W        W60097  19.097  38.221  13.385
87838W        W60098  34.075  33.136   1.773
87839W        W60099   1.794   9.265   3.315
87840W        W60100  25.506  15.249  13.838
87841W        W60101  28.156   8.432  11.585
87842W        W60102  35.586  22.916   3.181
87843W        W60103  33.880  37.402  13.981
87844W        W60104  13.322  24.785   0.685
87845W        W60105  39.550  33.328   2.790
87846W        W60106  15.740   8.250  12.759
87847W        W60107  34.731  19.903  11.130
87848W        W60108  34.023  12.593   4.306
87849W        W60109  31.995  20.261  12.029
87850W        W60110   8.236   4.691   0.809
87851W        W60111  27.931  23.123  14.909
87852W        W60112  36.620   5.311  10.873
87853W        W60113  41.234  42.439  13.079
87854W        W60114   3.033  43.031  14.942
87855W        W60115  12.840  13.579   1.776
87856W        W60116  31.602  30.547   0.452
87857W        W60117  26.745  12.837  11.501
87858W        W60118  12.782  33.210   1.801
87859W        W60119  34.865  20.041  12.867
87860W        W60120  38.343   8.814  14.851
87861W        W60121  17.748  33.145   1.615
87862W        W60122  19.180  38.091   2.486
87863W        W60123  15.760  22.970   0.766
87864W        W60124  27.125  11.684   0.770
87865W        W60125  28.155  24.388  12.812
87866W        W60126  15.994  22.030  13.734
87867W        W60127  37.578  17.090   4.940
87868W        W60128  10.795  34.986  14.988
87869W        W60129   3.660  11.757   4.651
87870W        W60130   6.715   3.772   2.636
87871W        W60131  21.682  18.492   2.659
87872W        W60132   0.333  14.659  14.415
87873W        W60133   0.032  14.081   3.145
87874W        W60134  37.950  40.768  11.167
87875W        W60135  30.057  35.910   1.201
87876W        W60136  14.636  18.683  11.121
87877W        W60137  36.005  13.856   2.609
87878W        W60138  21.777  27.068  11.337
87879W        W60139   6.500   6.420  12.781
87880W        W60140  21.167  11.196   0.269
87881W        W60141   7.829  34.414   4.193
87882W        W60142   7.282   8.390  12.955
87883W        W60143  39.915  19.813   1.821
87884W        W60144  17.188  17.688  13.812
87885W        W60145  42.429  44.897  10.755
87886W        W60146  40.328  34.062   3.602
87887W        W60147   8.430  30.075   2.806
87888W        W60148  33.900  16.256   2.711
87889W        W60149  19.135   3.903  13.367
87890W        W60150   4.407  13.190   4.269
87891W        W60151  44.343   6.485   1.684
87892W        W60152  26.103  21.386  11.174
87893W        W60153  32.024  34.500   4.362
87894W        W60154  44.749  30.488   4.542
87895W        W60155  39.753  10.820  13.584
87896W        W60156  10.292   7.302  14.915
87897W        W60157  23.695  43.796   3.767
87898W        W60158   2.290  37.499  14.526
87899W        W60159  18.017  21.520  14.344
87900W        W60160  24.788  18.369  14.772
87901W        W60161  40.916   9.371  12.986
87902W        W60162  27.169  11.446   1.303
87903W        W60163  23.118  25.689  13.989
87904W        W60164  37.509  18.174  10.748
87905W        W60165  32.401   7.687  11.396
87906W        W60166  44.296  42.297   1.505
87907W        W60167  19.634  38.418  14.043
87908W        W60168   0.460  34.033   4.444
87909W        W60169  37.529  10.434   2.450
87910W        W60170   0.239   9.645  11.129
87911W        W60171  22.747  16.857  12.525
87912W        W60172  15.984  17.667   0.214
87913W        W60173  23.244  12.189  14.889
87914W        W60174  20.095   8.896   5.139
87915W        W60175   2.042   3.659   2.650
87916W        W60176   0.604  14.808  12.521
87917W        W60177   5.962  18.390  10.679
87918W        W60178  35.571  20.130  10.866
87919W        W60179  15.150  10.080   0.820
87920W        W60180  23.964   0.370   1.730
87921W        W60181  41.986  30.373   4.541
87922W        W60182  44.754  16.679   3.734
87923W        W60183  14.892  23.695  11.089
87924W        W60184  30.624  32.115   3.129
87925W        W60185  20.516  19.995  10.224
87926W        W60186   6.227   8.397  13.996
87927W        W60187  41.563   3.227  14.937
87928W        W60188  19.469  12.690  14.044
87929W        W60189   7.352  11.247  10.515
87930W        W60190  42.340  26.494  10.321
87931W        W60191  41.638  23.705  13.881
87932W        W60192  27.667  32.858   0.288
87933W        W60193  43.667   2.225  14.976
87934W        W60194  36.119  13.243   3.239
87935W        W60195  38.840  31.663  13.533
87936W        W60196  17.999  11.332  11.595
87937W        W60197  23.963  27.629   5.286
87938W        W60198  27.133   0.134  13.502
87939W        W60199  17.802  30.558  14.368
87940W        W60200  37.305  12.094   3.728
87941W        W60201  21.366  26.935  13.059
87942W        W60202  30.829  12.856   1.262
87943W        W60203  13.321  25.340  13.557
87944W        W60204  41.888  24.245   3.655
87945W        W60205  13.701   8.467   2.767
87946W        W60206  16.411  41.128   2.716
87947W        W60207  18.566   6.232   3.882
87948W        W60208  18.226  44.984   0.420
87949W        W60209  24.306  44.358  10.180
87950W        W60210   5.540  32.910   2.840
87951W        W60211  28.316   2.258   4.263
87952W        W60212  35.470   6.384  13.406
87953W        W60213  11.081   1.818  13.411
87954W        W60214  44.461   9.426   4.111
87955W        W60215  36.840  32.550  10.348
87956W        W60216  29.191  29.702  14.398
87957W        W60217  33.840  25.756  11.095
87958W        W60218  41.000  33.574   4.068
87959W        W60219  34.955  19.662  11.963
87960W        W60220  35.314  15.614  14.895
87961W        W60221  28.380  32.901  12.895
87962W        W60222   7.783  27.129  11.726
87963W        W60223   7.898  34.377  12.972
87964W        W60224  40.572   6.812  13.041
87965W        W60225  19.058   5.203  12.885
87966W        W60226   0.652   2.320   4.204
87967W        W60227   4.342  28.202   2.788
87968W        W60228  23.667  14.172   0.340
87969W        W60229   8.294  42.369   3.603
87970W        W60230   8.376  28.978  14.404
87971W        W60231  19.569  25.651  14.110
87972W        W60232   5.326  19.500   0.377
87973W        W60233  11.931  16.541  14.357
87974W        W60234  18.649  36.029  10.462
87975W        W60235  31.989  40.822   2.983
87976W        W60236  36.318   6.827   4.222
87977W        W60237  11.224  12.814   3.506
87978W        W60238   1.960  32.522  12.572
87979W        W60239  19.587  19.347  14.416
87980W        W60240  20.714  30.467  13.842
87981W        W60241  30.727  41.838  10.724
87982W        W60242  27.801  14.317  13.562
87983W        W60243   0.298  44.880  12.427
87984W        W60244  39.369   4.383  11.128
87985W        W60245  14.773  38.823   4.798
87986W        W60246   9.542   1.257  13.937
87987W        W60247  19.238  21.717   1.938
87988W        W60248  35.839  14.144   4.252
87989W        W60249  19.550  31.177   1.455
87990W        W60250  17.970  14.626  12.033
87991W        W60251  21.246  16.423   0.087
87992W        W60252   8.674  23.889   3.898
87993W        W60253  37.529  28.366  12.229
87994W        W60254  15.280   8.330   3.231
87995W        W60255  23.084   0.811   0.351
87996W        W60256  33.065  10.643   4.625
87997W        W60257  33.128   2.765  11.601
87998W        W60258  25.510  21.545  11.006
87999W        W60259  36.992  43.566   4.724
88000W        W60260   2.021  44.048  14.693
88001W        W60261  29.648  34.122   4.909
88002W        W60262  20.797  12.296   1.813
88003W        W60263  32.154  10.281   2.940
88004W        W60264   1.079  11.614  12.415
88005W        W60265  21.026   2.472  12.539
88006W        W60266  28.600  28.612  13.777
88007W        W60267  36.101  34.025  12.055
88008W        W60268  31.548  29.541   0.846
88009W        W60269  15.061  32.110  14.824
88010W        W60270  29.132   6.355   3.881
88011W        W60271  11.328  10.776   1.707
88012W        W60272  17.849  12.658   2.794
88013W        W60273  35.928  29.062   0.078
88014W        W60274  32.983   7.744  13.011
88015W        W60275  43.404  23.081   1.770
88016W        W60276  24.084  43.901   2.820
88017W        W60277  25.759  20.912   2.705
88018W        W60278  38.886  12.639  11.202
88019W        W60279  39.086   8.927  14.304
88020W        W60280  44.158  25.970   3.755
88021W        W60281   9.805   7.985  10.832
88022W        W60282   7.404  21.733  14.364
88023W        W60283  37.885   6.101  12.920
88024W        W60284  26.713   7.923   4.564
88025W        W60285   2.729  12.723  12.596
88026W        W60286   5.321  10.865   0.003
88027W        W60287  17.291  30.891   4.862
88028W        W60288  39.322  38.912   2.784
88029W        W60289  43.426  41.625  13.741
88030W        W60290  17.156   8.602  13.832
88031W        W60291  14.224  11.885   3.179
88032W        W60292  35.552  39.307  14.583
88033W        W60293  35.271  16.910   3.177
88034W        W60294   4.311  44.002   2.456
88035W        W60295   4.804  18.634   4.125
88036W        W60296   8.688  10.205   3.289
88037W        W60297  44.037  16.300  10.906
88038W        W60298  16.898  43.787   1.640
88039W        W60299  24.705  10.918   1.692
88040W        W60300  43.843  42.443   4.502
88041W        W60301  34.370  14.736  10.361
88042W        W60302   6.882  10.589  11.313
88043W        W60303  42.567  19.044   0.758
88044W        W60304  28.919   8.672   1.279
88045W        W60305  13.676  18.310   1.914
88046W        W60306  42.500  13.097  11.492
88047W        W60307  37.519  19.760  14.201
88048W        W60308  12.898  39.894   1.113
88049W        W60309  15.233  14.387  12.859
88050W        W60310  29.907   2.984  10.230
88051W        W60311  30.892  21.858  10.415
88052W        W60312  43.968  40.612  14.853
88053W        W60313  37.908  26.956   4.218
88054W        W60314   4.578  17.317  12.369
88055W        W60315  25.502  29.947   4.026
88056W        W60316  30.754  40.543  10.603
88057W        W60317  20.788   7.900   2.665
88058W        W60318  41.523   0.980   3.201
88059W        W60319  44.305  19.562   1.009
88060W        W60320  22.553  15.426  12.231
88061W        W60321  27.021  23.496   3.400
88062W        W60322  27.441  43.535   0.704
88063W        W60323   8.192  15.228   3.377
88064W        W60324  40.180  19.403  14.298
88065W        W60325  33.685  30.474  11.255
88066W        W60326  15.834  11.847  11.559
88067W        W60327  35.674   2.981  12.566
88068W        W60328  23.810  27.915  11.677
88069W        W60329  23.365  23.140   1.268
88070W        W60330   1.486  28.423   3.218
88071W        W60331  13.661  41.760   0.723
88072W        W60332  34.658  31.997  10.664
88073W        W60333  20.157  31.859   4.076
88074W        W60334  39.063   4.245   2.912
88075W        W60335  43.291  20.484  13.271
88076W        W60336   0.018  28.063   0.174
88077W        W60337  29.245  24.699   2.708
88078W        W60338   0.240   7.814   2.388
88079W        W60339  11.753  13.389   0.214
88080W        W60340   7.310  13.166   2.685
88081W        W60341  12.838   7.961   1.712
88082W        W60342  10.309  27.685   3.707
88083W        W60343  35.358  12.592   4.827
88084W        W60344  18.329  38.382   0.749
88085W        W60345   7.943  27.453   4.538
88086W        W60346   9.826   7.622  11.196
88087W        W60347  13.193  12.916  14.416
88088W        W60348  32.502   8.776  14.745
88089W        W60349  17.626  29.753  12.960
88090W        W60350  13.339  36.301  11.514
88091W        W60351  35.089  12.885   0.031
88092W        W60352  23.419  10.186   4.568
88093W        W60353   8.939   1.203  11.749
88094W        W60354   0.191  15.231  13.916
88095W        W60355  43.789  28.261  13.542
88096W        W60356   9.246  10.346   0.480
88097W        W60357   6.909  14.650  11.104
88098W        W60358  29.117  12.771   2.384
88099W        W60359   0.825  27.669   4.744
88100W        W60360  35.415  19.547   3.130
88101W        W60361  27.468  36.408  14.835
88102W        W60362  41.282  26.115   3.825
88103W        W60363   1.548  13.763   1.454
88104W        W60364  22.567  41.078  13.377
88105W        W60365  27.629   4.404  14.080
88106W        W60366   6.455  38.448   2.776
88107W        W60367  26.630   0.464  14.485
88108W        W60368  31.574   6.436  11.136
88109W        W60369   6.873  20.691  10.579
88110W        W60370  44.026  35.789  11.350
88111W        W60371  21.533  39.293   1.793
88112W        W60372  27.531   8.882   0.971
88113W        W60373  23.555  30.876   3.650
88114W        W60374  28.180  32.653  13.527
88115W        W60375  22.035   5.660  13.335
88116W        W60376  20.956  34.073  14.129
88117W        W60377  16.512  35.067  14.418
88118W        W60378  18.657  25.513  10.413
88119W        W60379   5.401  24.650  14.586
88120W        W60380  30.672  24.269  11.141
88121W        W60381  32.881   9.155  10.718
88122W        W60382  31.136  37.620  10.078
88123W        W60383  13.118  26.921  13.465
88124W        W60384  16.043   0.238   2.830
88125W        W60385  24.496   6.442   3.692
88126W        W60386   8.221   9.499   3.829
88127W        W60387  13.595  20.212   0.837
88128W        W60388  19.596  19.459  14.959
88129W        W60389  26.093  37.685  12.335
88130W        W60390  38.240  38.682   1.396
88131W        W60391  41.757   6.289   4.051
88132W        W60392   1.980   1.987   1.423
88133W        W60393  22.992  16.339  13.352
88134W        W60394  28.476  42.346  10.564
88135W        W60395  14.732   6.616  14.846
88136W        W60396   0.321  24.164   4.174
88137W        W60397   0.981   8.615   3.355
88138W        W60398  42.482  34.332   1.435
88139W        W60399  37.947  34.814  12.271
88140W        W60400  27.123   0.498   0.777
88141W        W60401  22.057  32.555   4.656
88142W        W60402  32.826   5.824   2.401
88143W        W60403  10.314   4.675   3.624
88144W        W60404   3.429  36.911   0.843
88145W        W60405   8.434  17.337   2.845
88146W        W60406   3.476  31.646   1.267
88147W        W60407  17.221   5.529  14.639
88148W        W60408   8.270  44.029  11.900
88149W        W60409  24.508  24.762  10.727
88150W        W60410  37.037  37.010  14.842
88151W        W60411   4.466  13.298   1.456
88152W        W60412  18.758  28.939   0.792
88153W        W60413  17.311  12.175   2.344
88154W        W60414  10.335  37.380   3.756
88155W        W60415  15.515  30.983   4.155
88156W        W60416  20.045  39.941  11.036
88157W        W60417  29.499  11.362  13.931
88158W        W60418  22.120  19.322   2.788
88159W        W60419   7.213  20.114   3.199
88160W        W60420  32.326   8.721   2.999
88161W        W60421  34.863   2.759   0.826
88162W        W60422  36.407  44.910   1.484
88163W        W60423  16.867  26.004   0.851
88164W        W60424  14.693  39.422  12.240
88165W        W60425  20.554  11.326   3.246
88166W        W60426  15.810  15.720   1.725
88167W        W60427  43.316   1.652   4.135
88168W        W60428  14.237   2.281  14.450
88169W        W60429  16.643  11.364   2.238
88170W        W60430  18.919  29.541  12.030
88171W        W60431  33.484  12.630   2.828
88172W        W60432  13.374  15.771   4.311
88173W        W60433   7.722  27.200   1.446
88174W        W60434  15.599  36.403   1.352
88175W        W60435   1.840   3.477   1.702
88176W        W60436  24.137  28.148  10.406
88177W        W60437  39.409  43.457  12.400
88178W        W60438  25.176  31.591   0.273
88179W        W60439   0.830  40.307  10.600
88180W        W60440  16.723   2.994   1.247
88181W        W60441  36.572  25.636  14.449
88182W        W60442  19.319   6.709  11.988
88183W        W60443  11.352  35.009  12.886
88184W        W60444  26.022  43.843   3.968
88185W        W60445  33.318  44.412   1.328
88186W        W60446  10.358  26.034  14.417
88187W        W60447   8.632  36.613  14.867
88188W        W60448   1.709  37.409  11.140
88189W        W60449   1.666  24.111   1.066
88190W        W60450  36.606  44.865  11.001
88191W        W60451  31.092  36.918  10.715
88192W        W60452  16.821  33.875  10.498
88193W        W60453   1.222  20.784   4.289
88194W        W60454  14.795  32.533   1.217
88195W        W60455  43.804  32.311  14.508
88196W        W60456   2.267  19.197   1.862
88197W        W60457  12.321  12.233  13.922
88198W        W60458  18.656  32.301  13.786
88199W        W60459  18.173  36.547  12.457
88200W        W60460  11.074  39.323  13.054
88201W        W60461  40.678  21.547  12.475
88202W        W60462   7.314  31.147  14.048
88203W        W60463  44.315   5.273   4.570
88204W        W60464  29.000  40.920   3.267
88205W        W60465  24.251  23.450  10.398
88206W        W60466  37.233  15.569  10.217
88207W        W60467  33.394   0.087   0.311
88208W        W60468  26.082   5.323  14.341
88209W        W60469   1.320  15.881   2.804
88210W        W60470  39.585   7.172   1.933
88211W        W60471  15.782   0.393  13.511
88212W        W60472  37.093  10.858  11.693
88213W        W60473  11.548  29.188  10.778
88214W        W60474  42.548   4.939   1.159
88215W        W60475  13.699  21.060   0.256
88216W        W60476   9.184  14.678  13.761
88217W        W60477  33.267  32.794   4.019
88218W        W60478  12.588  26.061   3.834
88219W        W60479  10.876   1.193  12.082
88220W        W60480   4.749  37.347   3.747
88221W        W60481  18.795  21.964  14.389
88222W        W60482  30.717   9.545  14.046
88223W        W60483  20.033  37.794  11.000
88224W        W60484  40.780   1.257   2.647
88225W        W60485   4.261   0.786   2.326
88226W        W60486  12.845  42.735  12.147
88227W        W60487  29.176  28.789   4.089
88228W        W60488   0.805  36.961  11.153
88229W        W60489  40.330  11.450  14.362
88230W        W60490   5.231  28.403   3.834
88231W        W60491  40.240   3.198  10.718
88232W        W60492  13.906  41.442   4.147
88233W        W60493  33.163  42.476  14.900
88234W        W60494  11.614  42.498  12.622
88235W        W60495  19.073  30.466   4.525
88236W        W60496  37.914  23.307   2.443
88237W        W60497  35.154   5.870  13.868
88238W        W60498  40.004   8.035   2.343
88239W        W60499  16.178  21.070  14.511
88240W        W60500  41.035  10.768  11.968
88241W        W60501   3.229   4.313  12.844
88242W        W60502  18.522  17.942  11.636
88243W        W60503  44.981  35.149   3.186
88244W        W60504   9.819  25.161  13.098
88245W        W60505  23.918  25.134   1.860
88246W        W60506   0.968  44.786  14.074
88247W        W60507  25.043   2.995   3.903
88248W        W60508  20.718  33.373  13.039
88249W        W60509  23.972  41.958   1.988
88250W        W60510  32.390  10.120  11.743
88251W        W60511  14.766  14.840  10.671
88252W        W60512  25.195   6.846  11.978
88253W        W60513   0.449  24.066   1.758
88254W        W60514  30.578  19.759   4.122
88255W        W60515   7.681  40.422   3.237
88256W        W60516  35.473  27.239   2.455
88257W        W60517   3.777  36.368   0.266
88258W        W60518  20.798  13.005   2.697
88259W        W60519   0.778  41.482  12.431
88260W        W60520   0.537  41.681   4.020
88261W        W60521  10.871  21.304   3.301
88262W        W60522  35.106  32.682  14.402
88263W        W60523  16.835  30.106  12.500
88264W        W60524  12.100  34.106   2.163
88265W        W60525  11.251  27.684  13.963
88266W        W60526  42.010  26.654  10.722
88267W        W60527  43.315   7.983   3.816
88268W        W60528  21.504   8.650  11.621
88269W        W60529  25.128   8.773   4.541
88270W        W60530  19.227   8.443   1.188
88271W        W60531  22.125   5.136   4.093
88272W        W60532  34.657  22.403   4.591
88273W        W60533  26.357   9.380  12.806
88274W        W60534  35.072   0.549   0.304
88275W        W60535   1.479  16.361  10.681
88276W        W60536  11.198  33.492   1.485
88277W        W60537  42.946  32.458  13.514
88278W        W60538  35.966  39.051  14.346
88279W        W60539  26.198  36.490   4.771
88280W        W60540   3.376  15.840  13.495
88281W        W60541  36.468  44.795  13.009
88282W        W60542  17.729  33.426  13.094
88283W        W60543  20.799  15.395   4.308
88284W        W60544   1.760   5.001  11.534
88285W        W60545  17.558   1.435   2.715
88286W        W60546  28.106  33.789  11.184
88287W        W60547   9.639  44.046  12.076
88288W        W60548  29.093   6.771  13.258
88289W        W60549   1.015   2.694  13.977
88290W        W60550  40.370  23.152  11.708
88291W        W60551  27.143  26.472   0.813
88292W        W60552  31.180  24.169  11.976
88293W        W60553   0.359  33.412   0.860
88294W        W60554   0.888   8.167   0.960
88295W        W60555  24.299  22.771   1.530
88296W        W60556   0.349  18.133  12.349
88297W        W60557  18.675  21.854   4.635
88298W        W60558   7.853   5.660   4.642
88299W        W60559  44.336  25.150   2.602
88300W        W60560  24.673  21.559  10.516
88301W        W60561  44.712  17.912   0.440
88302W        W60562  31.045  44.776  13.254
88303W        W60563   5.696   9.565  12.894
88304W        W60564  35.110  39.990  10.588
88305W        W60565   1.225   6.132  14.346
88306W        W60566  36.614  44.976  12.536
88307W        W60567  44.464   5.704  12.491
88308W        W60568   1.895   7.163  14.854
88309W        W60569   7.264  40.490   0.464
88310W        W60570  18.284   3.196  11.061
88311W        W60571  41.669  35.821   2.187
88312W        W60572  39.628  17.024   2.975
88313W        W60573  23.679  38.568  14.997
88314W        W60574  38.781  28.068  12.869
88315W        W60575  13.203  34.012  14.772
88316W        W60576   9.401  35.136   0.928
88317W        W60577   2.751  18.017   0.457
88318W        W60578  25.575  34.453  14.740
88319W        W60579   0.156  22.650   4.190
88320W        W60580  15.425   3.983  12.182
88321W        W60581  21.756  33.439   2.370
88322W        W60582   5.692  36.297  13.055
88323W        W60583   7.965  14.174   2.147
88324W        W60584   3.537   0.238   4.143
88325W        W60585  13.727  25.315   0.856
88326W        W60586  24.123  29.174   2.497
88327W        W60587  40.859  10.380  13.008
88328W        W60588  12.337  31.498   0.932
88329W        W60589  42.498  44.859  13.096
88330W        W60590   5.675  39.634   1.805
88331W        W60591  35.608   0.620  14.531
88332W        W60592  15.389  40.354   0.289
88333W        W60593  31.410  35.258   4.458
88334W        W60594  17.079  19.261  12.483
88335W        W60595  26.658  30.855  12.516
88336W        W60596  30.189  33.831   0.933
88337W        W60597   8.190   1.395  10.777
88338W        W60598  19.325  28.424  12.098
88339W        W60599  43.493  32.734  11.610
88340W        W60600  26.232  22.544   3.338
88341W        W60601  44.419  22.974   1.776
88342W        W60602  16.092   9.805   1.844
88343W        W60603  41.949  29.042  10.773
88344W        W60604   1.730  26.730  11.943
88345W        W60605   7.260  39.826   1.206
88346W        W60606  11.193  29.160  11.539
88347W        W60607  13.906  30.006   5.395
88348W        W60608  12.420  37.869   0.630
88349W        W60609  14.270  14.661   0.430
88350W        W60610  35.417   0.877  13.894
88351W        W60611  35.584  34.852   0.786
88352W        W60612  39.489  32.072  10.452
88353W        W60613  36.289  26.712   2.172
88354W        W60614   2.254  13.443  10.660
88355W        W60615  29.564  26.089   1.179
88356W        W60616  10.647  41.894  10.946
88357W        W60617   9.407  17.223  13.650
88358W        W60618  16.642  32.824  13.836
88359W        W60619  22.274  33.307  11.458
88360W        W60620  44.349  43.235   3.159
88361W        W60621  29.468  43.330  11.848
88362W        W60622  24.682  33.557   2.703
88363W        W60623  26.697  13.213  13.042
88364W        W60624  15.123  14.680   5.166
88365W        W60625  27.797  22.609   5.117
88366W        W60626  35.934  41.952   3.290
88367W        W60627  21.197  36.411  10.510
88368W        W60628  17.162  14.165  12.834
88369W        W60629  36.002  11.818   1.135
88370W        W60630  39.140  40.392  14.435
88371W        W60631  18.741  43.705  13.001
88372W        W60632  21.245  17.097   1.741
88373W        W60633  22.286   7.864   1.622
88374W        W60634  36.913  21.104  14.526
88375W        W60635  10.715  21.906   1.490
88376W        W60636  20.222  38.143   4.212
88377W        W60637  21.083  24.917   3.273
88378W        W60638  43.381   1.524  14.381
88379W        W60639  25.557  38.575  14.939
88380W        W60640  14.342  18.163   4.300
88381W        W60641  11.323  14.867   1.354
88382W        W60642  30.449  23.542   3.815
88383W        W60643  10.318  26.643   2.662
88384W        W60644   7.236  28.423   2.667
88385W        W60645  23.490   0.979   2.418
88386W        W60646   4.870  25.146  14.305
88387W        W60647   6.208  43.065  14.456
88388W        W60648   4.966   8.678  13.585
88389W        W60649  19.554  39.287   0.450
88390W        W60650   6.740   4.619   2.638
88391W        W60651   2.797   3.496   1.767
88392W        W60652  20.266  16.079  14.952
88393W        W60653  42.748  40.017   3.722
88394W        W60654  43.429   0.489   3.785
88395W        W60655   6.613  10.288   4.667
88396W        W60656  42.933   5.177  10.887
88397W        W60657  25.975   7.066   0.591
88398W        W60658   1.796  31.133  13.892
88399W        W60659  34.875  19.689  14.484
88400W        W60660  25.137   2.974   1.917
88401W        W60661  33.825  32.042  13.551
88402W        W60662  15.525  23.670   2.148
88403W        W60663  26.672   8.494   3.909
88404W        W60664  11.834   3.430  10.357
88405W        W60665  27.486  20.239  10.718
88406W        W60666  27.687  30.972   3.260
88407W        W60667  43.977  22.991   2.327
88408W        W60668  11.826   2.465   3.302
88409W        W60669   5.225   3.562   0.813
88410W        W60670  12.159  21.291   4.186
88411W        W60671   3.840  40.501  13.339
88412W        W60672  15.246  29.133  11.340
88413W        W60673  12.800  31.378   2.480
88414W        W60674  16.208   2.854  13.415
88415W        W60675  16.546  30.597  12.420
88416W        W60676  37.851  25.282   1.036
88417W        W60677  13.139  29.004  11.595
88418W        W60678  30.380  40.094  13.056
88419W        W60679  29.987  29.482   2.921
88420W        W60680   5.409  30.003  12.099
88421W        W60681  34.581   4.448   0.971
88422W        W60682  10.101   6.709  10.324
88423W        W60683  38.142  32.890   1.469
88424W        W60684  26.486  18.208   3.880
88425W        W60685  40.425   7.393   5.217
88426W        W60686  24.299  32.456   0.812
88427W        W60687  20.293  17.721   2.115
88428W        W60688  36.441  43.894   3.162
88429W        W60689  36.989  23.119  11.502
88430W        W60690   9.779  31.069   3.644
88431W        W60691  30.055  18.213   3.575
88432W        W60692  42.533   7.203  14.389
88433W        W60693   3.174  27.583   3.599
88434W        W60694  26.425   0.908   1.338
88435W        W60695  32.399  42.998   2.562
88436W        W60696  33.909  19.680   2.279
88437W        W60697   5.213  18.210  14.830
88438W        W60698  12.853  39.871   3.098
88439W        W60699  41.808   9.614   4.127
88440W        W60700  20.697  30.961   0.902
88441W        W60701   2.276  16.092  14.132
88442W        W60702   3.480  17.832  14.756
88443W        W60703  35.444  13.795  12.777
88444W        W60704  32.960  10.698   0.671
88445W        W60705  32.081  29.252  11.118
88446W        W60706  20.729  24.099  13.886
88447W        W60707   5.027  12.127  11.422
88448W        W60708  15.189  34.431   2.940
88449W        W60709  37.322   9.278   0.523
88450W        W60710  36.663  18.542  13.858
88451W        W60711  25.536  32.300  14.498
88452W        W60712  11.849  35.427   2.228
88453W        W60713  33.235  28.311  14.010
88454W        W60714  19.654  31.940   2.396
88455W        W60715  27.211   3.314  10.409
88456W        W60716  28.011  27.161   1.403
88457W        W60717  15.741  32.633  13.868
88458W        W60718  40.829  21.265   1.148
88459W        W60719  10.186  42.426   4.559
88460W        W60720  43.693  43.014   4.623
88461W        W60721  18.618   2.328  11.949
88462W        W60722  26.597  40.987  13.311
88463W        W60723  27.789  23.274   1.248
88464W        W60724   4.591  19.968   3.746
88465W        W60725  11.748  22.894  10.529
88466W        W60726  39.369  14.010  10.788
88467W        W60727   2.800  20.770   4.486
88468W        W60728  11.059   3.410   1.928
88469W        W60729  17.048   6.586  11.378
88470W        W60730   1.548   7.945  13.025
88471W        W60731  31.449  39.311  12.973
88472W        W60732  41.504  17.932  11.748
88473W        W60733  16.084  43.287   0.049
88474W        W60734  18.986  13.722   2.776
88475W        W60735  16.267   8.405   3.234
88476W        W60736  25.581  44.007  13.359
88477W        W60737  28.728   0.075   3.248
88478W        W60738  29.185  11.637  12.379
88479W        W60739  22.290  33.968   0.220
88480W        W60740  13.744  36.813  11.099
88481W        W60741  28.113  22.712  11.071
88482W        W60742  34.453  34.059  10.982
88483W        W60743  27.647  35.961  13.957
88484W        W60744  29.873  11.130  11.688
88485W        W60745  31.548  24.804   4.100
88486W        W60746  33.867  21.012  14.510
88487W        W60747  30.708   8.363  11.542
88488W        W60748  40.339  41.690  14.450
88489W        W60749  16.783  42.036   3.308
88490W        W60750  39.410  16.105  14.776
88491W        W60751  27.619  10.440  12.967
88492W        W60752  25.079  40.537   0.904
88493W        W60753   5.185  25.706   1.955
88494W        W60754  40.917  31.048  10.693
88495W        W60755   1.173  28.922  11.194
88496W        W60756  40.262  37.979   4.191
88497W        W60757  29.091  26.082   0.919
88498W        W60758  17.156  22.694   4.502
88499W        W60759  37.877   7.300  13.273
88500W        W60760   8.101  23.057  11.491
88501W        W60761  10.406  20.253   3.747
88502W        W60762   7.377  27.145  12.589
88503W        W60763  39.414   6.268   4.982
88504W        W60764  40.362  31.959   2.808
88505W        W60765   9.234   8.552   9.836
88506W        W60766  18.554   0.389   1.230
88507W        W60767  34.565   6.808   0.420
88508W        W60768   9.629  18.156  11.183
88509W        W60769  28.621   9.040  13.502
88510W        W60770  25.686  39.247  10.327
88511W        W60771  15.289   3.478   3.667
88512W        W60772  20.466  14.274  11.605
88513W        W60773   9.620  22.240   0.329
88514W        W60774   0.634  17.231   1.873
88515W        W60775  16.152   3.696   3.116
88516W        W60776  31.522  43.086  14.319
88517W        W60777  11.330   7.692  10.696
88518W        W60778  15.092  29.743   2.883
88519W        W60779  29.411   5.177   2.849
88520W        W60780  30.413  34.383   3.628
88521W        W60781  25.955  39.244   0.372
88522W        W60782  18.844  15.624  13.389
88523W        W60783  21.392  33.099  11.637
88524W        W60784  26.744  18.784   0.246
88525W        W60785  29.644  43.280   0.403
88526W        W60786   2.554  35.976   3.248
88527W        W60787   3.485  25.480  13.067
88528W        W60788  17.629  10.339   0.362
88529W        W60789  20.607  38.816   1.283
88530W        W60790  22.385  25.405   0.272
88531W        W60791  39.266  41.541  13.547
88532W        W60792   1.976  27.146   0.493
88533W        W60793  27.683   1.969  14.569
88534W        W60794  25.196   9.189   3.282
88535W        W60795  15.051   7.429  12.774
88536W        W60796  13.199   2.400  11.590
88537W        W60797  17.168  41.640   4.641
88538W        W60798  43.096  25.328   0.930
88539W        W60799  43.362  35.513  14.273
88540W        W60800  20.253  16.535  13.927
88541W        W60801  19.303  35.635  11.468
88542W        W60802  19.202  11.862  11.529
88543W        W60803  18.913  19.972   0.454
88544W        W60804  33.189  40.007  14.513
88545W        W60805   0.538  30.108  12.920
88546W        W60806   7.187   1.400  12.479
88547W        W60807   3.439   6.214   1.556
88548W        W60808  38.316  12.619   2.791
88549W        W60809  23.527   7.541   3.130
88550W        W60810   0.428   0.406  14.342
88551W        W60811  38.882  31.642  11.558
88552W        W60812  13.064   3.288  10.664
88553W        W60813  40.881  35.573  11.489
88554W        W60814  19.534   9.894  14.267
88555W        W60815  14.725  21.667  14.781
88556W        W60816  26.249  32.650   1.187
88557W        W60817  16.808  18.066   2.755
88558W        W60818  34.114   6.651  13.541
88559W        W60819  30.192  32.378  13.453
88560W        W60820   8.357  34.026  13.504
88561W        W60821  20.303  11.722   2.327
88562W        W60822  15.681   6.847  13.007
88563W        W60823  33.272  20.202  10.094
88564W        W60824  37.684   6.192   4.256
88565W        W60825  41.428  17.020   0.700
88566W        W60826  22.197  31.741   0.539
88567W        W60827  31.832  41.119   0.004
88568W        W60828  18.464  24.048   1.712
88569W        W60829  26.226  40.340  12.379
88570W        W60830  18.087  31.212  11.419
88571W        W60831   8.299  13.625  12.922
88572W        W60832  41.082  16.549  12.084
88573W        W60833  21.674  44.852  12.099
88574W        W60834  10.910   1.750  14.260
88575W        W60835   9.769  28.081  14.257
88576W        W60836  36.299  42.175  13.129
88577W        W60837  16.424  14.190   3.780
88578W        W60838   2.907  11.079   4.061
88579W        W60839   5.707   4.082  12.025
88580W        W60840  39.969  29.518   3.684
88581W        W60841  13.572  41.652  12.862
88582W        W60842  31.522  26.983  10.648
88583W        W60843  37.712  11.297  10.582
88584W        W60844   1.344  29.637  14.414
88585W        W60845  12.373  23.186   0.178
88586W        W60846  37.679   1.306  11.813
88587W        W60847  36.869  36.298   9.952
88588W        W60848  23.743  44.869  13.995
88589W        W60849  15.011  20.490   4.133
88590W        W60850  34.120  10.105   0.531
88591W        W60851  43.950  12.827   2.739
88592W        W60852  40.402  16.479  13.894
88593W        W60853  40.807  43.231   3.461
88594W        W60854  27.759  27.139  10.506
88595W        W60855  41.684   1.963   3.826
88596W        W60856  44.341  44.193   1.789
88597W        W60857  13.129   9.770  10.713
88598W        W60858  12.235  32.735   2.577
88599W        W60859  28.074  28.571   0.719
88600W        W60860  36.382  29.966  13.895
88601W        W60861   9.210   5.033  12.645
88602W        W60862  13.193   9.762   3.816
88603W        W60863   2.955  19.042  11.129
88604W        W60864  27.543  16.299   3.109
88605W        W60865   2.964   5.226  10.740
88606W        W60866   5.985   0.887  14.018
88607W        W60867   4.598   9.169   0.734
88608W        W60868  14.368  24.911   2.856
88609W        W60869  33.418  33.190  14.204
88610W        W60870   1.830  13.861   2.313
88611W        W60871  31.948   6.839  13.066
88612W        W60872  21.305  15.168   0.353
88613W        W60873   4.412  29.972  14.761
88614W        W60874  33.461  11.692   0.032
88615W        W60875  20.651   3.867   4.813
88616W        W60876  30.375  21.153   3.771
88617W        W60877  38.785   5.378   3.648
88618W        W60878  30.260  44.277   0.269
88619W        W60879  15.454  40.583   0.873
88620W        W60880  15.797  16.570   4.229
88621W        W60881   4.157  29.184   0.867
88622W        W60882  43.452  41.722  12.460
88623W        W60883  43.364  42.235  12.466
88624W        W60884  11.837  34.541   3.653
88625W        W60885   3.745   5.309  14.969
88626W        W60886  36.874  26.221  11.284
88627W        W60887  27.464  26.663  10.614
88628W        W60888  19.232  17.031   0.413
88629W        W60889  27.742  32.162   3.796
88630W        W60890  44.420   2.880   5.076
88631W        W60891  40.946   8.625  11.603
88632W        W60892  22.770  38.719  14.003
88633W        W60893  31.673  29.494   1.818
88634W        W60894  27.493  41.230  12.558
88635W        W60895  27.440  41.999   2.291
88636W        W60896  23.635  11.368   1.478
88637W        W60897  40.954  32.893   1.523
88638W        W60898  23.659  29.367   2.690
88639W        W60899  17.112  40.377   2.809
88640W        W60900  36.117  19.678   2.325
88641W        W60901  40.878  30.116   4.392
88642W        W60902  43.889   8.931   2.839
88643W        W60903   6.678  30.270   3.196
88644W        W60904  35.969  34.306  11.659
88645W        W60905  25.924  41.288   2.779
88646W        W60906   3.908  32.615  14.411
88647W        W60907  13.260  14.292  12.037
88648W        W60908  44.523  15.850  13.347
88649W        W60909  42.487  37.362  10.935
88650W        W60910   5.371  36.160  12.062
88651W        W60911  10.026  28.140  10.996
88652W        W60912   3.247  31.592   2.265
88653W        W60913  32.654  25.006   0.867
88654W        W60914  22.785  11.349  12.177
88655W        W60915  37.439  37.090   0.355
88656W        W60916  15.331  43.416  11.971
88657W        W60917  30.893  10.047  14.155
88658W        W60918   6.997  12.400  11.690
88659W        W60919  31.826  23.645   2.620
88660W        W60920   3.017   7.824  12.092
88661W        W60921  22.423  42.848   2.154
88662W        W60922  18.724   8.120   3.383
88663W        W60923  22.156  43.459   0.480
88664W        W60924  29.890   5.326   4.683
88665W        W60925  36.027  24.825   4.389
88666W        W60926   8.361  12.393   2.245
88667W        W60927  30.940  20.669   3.321
88668W        W60928  41.873  23.314  14.867
88669W        W60929  27.224   6.629   3.272
88670W        W60930  22.094   0.714  13.064
88671W        W60931   5.687  31.071  10.664
88672W        W60932  18.640  22.092   0.965
88673W        W60933   5.028  11.397  14.493
88674W        W60934  12.181  32.474  12.946
88675W        W60935   4.484  19.988   0.266
88676W        W60936   7.914   2.466   3.578
88677W        W60937  15.606  43.266  14.844
88678W        W60938  44.045  18.836  11.102
88679W        W60939  40.034  42.989  13.315
88680W        W60940  37.157  22.960   3.328
88681W        W60941  34.208  44.397  13.587
88682W        W60942  37.739   7.134  11.897
88683W        W60943   9.174  23.488  14.243
88684W        W60944  29.675  32.373  11.851
88685W        W60945  33.326  26.572   2.213
88686W        W60946  37.512  21.242  12.138
88687W        W60947  20.218   0.047   3.785
88688W        W60948  21.162  27.745   2.217
88689W        W60949  28.127  42.426   2.615
88690W        W60950  22.821  35.964  14.378
88691W        W60951  13.318  35.236  14.273
88692W        W60952  26.417  16.526  10.981
88693W        W60953  35.941  44.296   3.650
88694W        W60954  32.028  11.814  11.018
88695W        W60955  38.565  26.648   1.404
88696W        W60956   1.607  36.619  12.753
88697W        W60957  25.098  44.139   5.054
88698W        W60958  14.875  18.931  12.074
88699W        W60959  33.178  29.099   0.381
88700W        W60960  21.901  10.146   1.673
88701W        W60961  43.579  41.039   4.881
88702W        W60962  32.066  42.040  11.671
88703W        W60963  20.011  22.119   3.159
88704W        W60964  13.208  43.045   4.796
88705W        W60965  42.098  24.663   0.406
88706W        W60966   8.435  15.687  13.992
88707W        W60967  38.983  35.961  12.476
88708W        W60968  28.416  15.830   0.748
88709W        W60969  26.014   5.280  11.970
88710W        W60970   0.102  40.811  14.066
88711W        W60971   3.667   7.039  14.256
88712W        W60972  40.368   8.896   2.401
88713W        W60973   4.130  33.413   1.155
88714W        W60974  20.581  24.792  12.840
88715W        W60975  35.961  18.046   4.057
88716W        W60976  35.798  21.703   3.548
88717W        W60977  38.529  36.423   1.433
88718W        W60978  33.894  13.750   2.640
88719W        W60979   4.017  40.573   0.400
88720W        W60980  36.899  33.150  13.034
88721W        W60981   9.195  30.652   0.971
88722W        W60982  23.612   8.344   0.858
88723W        W60983  35.028  25.000  12.500
88724W        W60984  11.660   8.212  12.656
88725W        W60985   0.802  20.759   4.593
88726W        W60986  32.343  38.540   3.856
88727W        W60987  14.142  15.539  11.995
88728W        W60988  41.009   2.001   4.710
88729W        W60989  40.515  34.545  13.886
88730W        W60990  24.251  21.355   1.133
88731W        W60991  29.399   8.839   2.414
88732W        W60992  20.656   0.036   2.773
88733W        W60993   8.311   9.334   3.346
88734W        W60994  30.883  36.091  14.694
88735W        W60995  25.214  25.110   1.913
88736W        W60996  30.178  42.917  12.003
88737W        W60997  21.999  44.996  13.799
88738W        W60998  29.592  28.149  12.867
88739W        W60999  44.494  38.814  11.922
88740W        W61000  21.756  33.063  10.579
88741W        W61001  32.198  15.563   3.697
88742W        W61002   9.578  38.133   3.151
88743W        W61003  26.702  24.881   4.123
88744W        W61004  18.671   8.705  12.714
88745W        W61005  28.413  27.706  11.892
88746W        W61006  18.307  43.317  11.947
88747W        W61007  22.233  18.506   1.361
88748W        W61008  32.161  18.902   0.930
88749W        W61009  34.833   8.156   4.213
88750W        W61010  19.307  42.817  14.506
88751W        W61011  19.681  27.166  12.385
88752W        W61012  22.083  14.287  13.698
88753W        W61013  13.264   8.078  10.803
88754W        W61014   3.980  14.819  14.457
88755W        W61015  42.356  43.551   1.236
88756W        W61016  21.165  37.760   4.182
88757W        W61017  19.980  20.808   3.207
88758W        W61018  42.697  31.311   2.315
88759W        W61019  29.043  38.938  10.222
88760W        W61020   7.109   4.165   1.825
88761W        W61021  28.182  12.215   5.057
88762W        W61022  42.630  20.834   2.775
88763W        W61023  32.994  27.974  12.306
88764W        W61024  21.077   5.711   3.136
88765W        W61025  35.159  35.558   4.069
88766W        W61026  21.879  10.632  12.893
88767W        W61027  39.524  20.103  14.987
88768W        W61028   4.896  42.792  11.143
88769W        W61029  15.258   3.957   0.913
88770W        W61030  22.171  31.068  12.928
88771W        W61031  10.480  27.209  11.865
88772W        W61032   0.494  23.441   2.814
88773W        W61033  15.982  10.621   3.579
88774W        W61034  38.339  33.681  10.494
88775W        W61035  36.077  16.740  11.634
88776W        W61036   6.795  39.616   3.738
88777W        W61037  27.429   2.111  12.043
88778W        W61038  23.474  15.649  14.899
88779W        W61039  18.684   1.331  12.068
88780W        W61040  33.530   3.699   1.111
88781W        W61041   2.765  41.070   3.195
88782W        W61042  17.497  23.092  13.049
88783W        W61043  27.106  12.975   4.400
88784W        W61044  25.540  13.126   0.314
88785W        W61045  41.384  12.219  11.496
88786W        W61046  36.948  38.343   1.364
88787W        W61047  33.514  14.116   3.588
88788W        W61048  11.144  42.351  14.833
88789W        W61049   3.382  44.315  11.603
88790W        W61050  34.588   5.279   3.712
88791W        W61051  31.465   3.444   1.862
88792W        W61052  16.313   1.182  13.991
88793W        W61053  13.789  10.886  11.211
88794W        W61054   7.937  12.257  14.279
88795W        W61055  34.735  10.317   1.809
88796W        W61056  21.342  25.199   1.714
88797W        W61057   5.821   7.614   4.103
88798W        W61058  24.907  27.418  10.428
88799W        W61059  35.925  38.427  12.033
88800W        W61060   4.239  32.092   3.275
88801W        W61061  12.767  14.722  10.971
88802W        W61062  22.138  37.080   1.144
88803W        W61063  13.265  41.516  10.774
88804W        W61064  42.729  17.501   1.055
88805W        W61065  38.474  20.631  12.934
88806W        W61066  12.186  34.075   4.712
88807W        W61067   4.668  18.627  14.303
88808W        W61068  11.133  14.941  12.564
88809W        W61069  36.283  22.698  14.926
88810W        W61070  32.903   1.623  13.338
88811W        W61071  21.704  29.218   1.879
88812W        W61072  24.958  33.670  13.990
88813W        W61073   0.626  19.646   1.166
88814W        W61074   9.360   5.655  14.933
88815W        W61075  10.167  33.418   5.155
88816W        W61076  14.646  28.628   2.357
88817W        W61077  37.810  13.559  11.410
88818W        W61078  42.757   6.168  12.516
88819W        W61079  17.056  13.684  13.005
88820W        W61080   6.352  16.723  14.915
88821W        W61081   2.455  15.904  11.891
88822W        W61082  41.268   9.666  14.742
88823W        W61083  14.682   8.099   2.204
88824W        W61084  16.328  37.445  14.062
88825W        W61085  44.010  31.010   1.497
88826W        W61086  18.714  43.005   1.190
88827W        W61087  14.183  18.662   4.405
88828W        W61088   2.784  30.634  12.960
88829W        W61089   8.234  10.290  12.573
88830W        W61090  20.589   6.404  10.584
88831W        W61091  20.711   4.401   1.365
88832W        W61092   2.169  40.642   4.154
88833W        W61093   2.950  26.171   2.388
88834W        W61094  13.836  14.292  13.830
88835W        W61095   5.742  23.385  12.164
88836W        W61096  21.174   7.681   2.385
88837W        W61097  27.414  30.918  11.175
88838W        W61098   5.911   2.703  11.121
88839W        W61099  43.877  14.238  14.590
88840W        W61100   5.871  29.177   9.722
88841W        W61101  32.098   1.759  13.939
88842W        W61102  37.965  34.664   2.251
88843W        W61103   9.324   4.475   2.595
88844W        W61104  20.032  35.977  12.314
88845W        W61105  26.120  24.581   3.518
88846W        W61106  37.316  19.530  10.592
88847W        W61107  32.241  38.440  11.999
88848W        W61108  33.554  26.200  14.256
88849W        W61109  11.162  13.712   3.875
88850W        W61110  36.760   7.792  10.956
88851W        W61111   2.816  11.856   0.388
88852W        W61112  21.209  30.142  10.732
88853W        W61113  25.560  43.444   2.935
88854W        W61114  32.929  22.860   0.764
88855W        W61115  36.545   8.286  13.841
88856W        W61116  15.626  44.315   2.458
88857W        W61117  18.408  42.890  14.273
88858W        W61118  21.271  37.292  10.850
88859W        W61119  37.096  37.902  14.857
88860W        W61120  12.299  11.148  14.124
88861W        W61121   4.698  11.893   3.733
88862W        W61122  39.866   9.852   3.063
88863W        W61123  19.202   4.322   3.232
88864W        W61124  41.466  43.959   2.169
88865W        W61125   2.673  39.986  11.218
88866W        W61126  37.923  30.650  13.072
88867W        W61127  16.126  12.330  13.854
88868W        W61128   5.199  37.037   2.056
88869W        W61129   7.108   4.096   4.116
88870W        W61130   1.205  32.637  14.281
88871W        W61131  32.871  25.112  13.123
88872W        W61132  10.777  31.961   4.376
88873W        W61133  21.507  39.561  12.956
88874W        W61134  30.174   1.693   4.885
88875W        W61135  19.583  34.470   2.136
88876W        W61136  16.863  23.480   2.160
88877W        W61137  33.621  32.140   0.633
88878W        W61138  38.025  26.963   0.283
88879W        W61139  43.479  35.032  10.139
88880W        W61140  34.379   3.078   4.099
88881W        W61141  42.552  24.216  12.746
88882W        W61142  26.811  40.451   4.198
88883W        W61143   0.643  36.991   2.230
88884W        W61144   2.708  11.501  14.450
88885W        W61145  34.616  25.682   0.920
88886W        W61146  10.033  16.319  11.353
88887W        W61147  27.219  38.562  12.469
88888W        W61148  42.276  34.632  13.429
88889W        W61149   1.250  40.422   2.170
88890W        W61150  12.443  19.578  13.270
88891W        W61151   6.419  39.687  13.455
88892W        W61152  31.067  42.496   0.748
88893W        W61153  44.007  18.506   3.653
88894W        W61154  19.077  29.211  11.666
88895W        W61155  39.564  11.179   4.144
88896W        W61156  27.664  17.631   0.822
88897W        W61157  17.147  16.542   1.848
88898W        W61158  30.543  25.026  14.004
88899W        W61159  27.433  31.128   3.725
88900W        W61160  16.793  33.474  12.911
88901W        W61161  39.982  40.962  14.516
88902W        W61162  26.169   5.446   1.448
88903W        W61163  12.163  19.568  12.075
88904W        W61164  29.659   8.186   3.234
88905W        W61165  40.896  15.155  10.685
88906W        W61166  21.272  11.900  14.496
88907W        W61167  10.755  44.983  13.266
88908W        W61168  37.792  14.265   3.267
88909W        W61169   0.386   7.670   0.484
88910W        W61170  39.476  38.960  13.122
88911W        W61171  44.745   5.890  13.892
88912W        W61172  16.194  34.474   0.504
88913W        W61173  37.319  15.689  10.965
88914W        W61174  21.406  39.837  10.681
88915W        W61175   4.411  11.375  10.971
88916W        W61176  13.076   0.253   2.500
88917W        W61177  31.861  14.022  12.685
88918W        W61178   5.424  16.626  13.449
88919W        W61179  20.114  34.635   2.112
88920W        W61180   1.725  14.665  11.619
88921W        W61181  32.412  27.483   1.916
88922W        W61182  34.153  40.754   2.349
88923W        W61183  14.122   5.438   0.371
88924W        W61184  26.628  41.844   4.269
88925W        W61185   6.837  36.004   3.134
88926W        W61186   0.509  43.279  14.034
88927W        W61187  34.046   2.306  13.404
88928W        W61188  36.455  43.865   3.692
88929W        W61189  27.119  11.892   3.308
88930W        W61190  34.845   4.101   2.392
88931W        W61191  37.438   1.535  14.989
88932W        W61192  20.592  39.958  14.954
88933W        W61193  35.523  40.772   0.787
88934W        W61194  23.858  22.964   1.322
88935W        W61195  35.977  43.531   3.197
88936W        W61196  33.006  39.902   4.436
88937W        W61197  22.891  44.555   4.767
88938W        W61198   9.446  21.756   3.125
88939W        W61199  20.057  42.439  14.540
88940W        W61200  31.264  18.742   1.871
88941W        W61201  40.554  21.801   2.908
88942W        W61202  15.675  32.478   4.703
88943W        W61203  40.808  14.152   3.071
88944W        W61204  39.859  10.369  11.115
88945W        W61205   8.238  36.234  12.029
88946W        W61206   8.770  36.108   0.883
88947W        W61207  31.654   0.997   2.871
88948W        W61208  39.342  26.739   0.771
88949W        W61209   7.472  31.336  14.863
88950W        W61210  10.317  21.183   4.990
88951W        W61211  27.705   5.970   3.776
88952W        W61212  44.398  33.407   2.299
88953W        W61213  37.657   0.413  11.634
88954W        W61214  35.371   3.922  12.976
88955W        W61215  39.083  32.022  10.118
88956W        W61216  26.699  27.635   0.450
88957W        W61217  23.249  19.034   2.216
88958W        W61218  18.911   7.209   3.609
88959W        W61219  20.595  33.000  12.367
88960W        W61220  20.016   2.241   2.427
88961W        W61221  43.849   8.497  10.650
88962W        W61222  31.524  37.781  10.654
88963W        W61223  22.296  29.187   9.612
88964W        W61224  41.952  25.785   3.519
88965W        W61225   3.169  43.839  10.685
88966W        W61226   0.263   5.779  13.756
88967W        W61227  11.745  18.177   0.832
88968W        W61228  28.648  41.991   4.253
88969W        W61229  26.579  22.779   1.282
88970W        W61230  27.512  17.870   2.112
88971W        W61231  10.911  12.866   0.679
88972W        W61232   0.183   1.287  12.517
88973W        W61233  10.142  32.834   1.456
88974W        W61234  32.990  38.403  14.913
88975W        W61235   7.217  25.546  14.953
88976W        W61236  19.120  25.999  10.798
88977W        W61237  16.132  42.353   4.263
88978W        W61238  20.375  42.705  12.519
88979W        W61239  23.197  23.944   0.875
88980W        W61240   8.281  31.646   3.677
88981W        W61241  34.526  43.081  12.534
88982W        W61242  34.715  26.167   3.395
88983W        W61243  27.544  23.103  12.459
88984W        W61244  32.684  38.827  13.442
88985W        W61245  39.862  37.897   3.316
88986W        W61246  24.428  21.669  12.822
88987W        W61247  41.887  24.192   4.570
88988W        W61248  17.817  11.953   1.774
88989W        W61249  25.073  23.638   3.151
88990W        W61250  28.759  25.529  11.169
88991W        W61251  19.928   7.826  14.810
88992W        W61252  16.693   9.038  11.790
88993W        W61253  44.805  11.379   1.746
88994W        W61254  12.099   7.165  12.336
88995W        W61255  34.146  19.792  12.287
88996W        W61256  12.897   7.335   2.964
88997W        W61257   3.902  39.458   3.619
88998W        W61258  18.119  15.051   1.435
88999W        W61259  12.001  32.086  14.686
89000W        W61260  17.159  23.464  11.035
89001W        W61261  29.220  11.422  11.198
89002W        W61262  29.738  32.939   1.338
89003W        W61263   7.164  26.510   0.317
89004W        W61264  37.507  42.821  11.160
89005W        W61265   0.922  20.181  14.369
89006W        W61266  38.008   6.595   4.203
89007W        W61267   9.392  31.497  11.608
89008W        W61268  36.964  25.019  12.036
89009W        W61269  34.191  43.006  13.381
89010W        W61270  21.713  26.101   4.589
89011W        W61271  17.096  29.496  12.023
89012W        W61272   9.944  18.045   4.158
89013W        W61273  33.679  12.674   0.023
89014W        W61274  20.989  13.645   4.098
89015W        W61275  22.175  25.091   2.333
89016W        W61276   9.454  17.620   2.450
89017W        W61277  20.300  17.668  12.093
89018W        W61278  20.135  40.947  14.824
89019W        W61279   2.014  14.083   1.749
89020W        W61280  27.717  22.739   1.311
89021W        W61281  44.374  42.253  12.337
89022W        W61282  38.157  25.133  11.705
89023W        W61283  40.885  31.586  10.517
89024W        W61284  17.952  27.867   3.158
89025W        W61285   1.441  41.775  11.007
89026W        W61286  38.180   1.392   3.150
89027W        W61287  16.604  19.822   2.480
89028W        W61288  10.823  41.911  11.881
89029W        W61289  10.752  31.030   4.466
89030W        W61290  28.563  19.161  12.200
89031W        W61291   1.518   6.387  11.197
89032W        W61292  25.378  35.425   0.635
89033W        W61293   4.458  35.081  11.970
89034W        W61294   3.413   3.991   4.122
89035W        W61295  31.353  41.876   1.352
89036W        W61296  18.390  24.109   0.728
89037W        W61297  33.983  13.287   0.949
89038W        W61298  10.573  25.756  14.005
89039W        W61299  38.629   1.378  10.687
89040W        W61300  23.404  36.111  10.645
89041W        W61301  44.894  38.493   3.537
89042W        W61302  44.515  22.532  14.940
89043W        W61303  27.804  37.063  12.945
89044W        W61304  24.770   5.733  13.411
89045W        W61305  32.981   6.354  13.366
89046W        W61306   2.411  39.993   1.361
89047W        W61307  11.240   7.778   3.829
89048W        W61308  13.262   1.544   2.406
89049W        W61309  40.262  20.076   4.197
89050W        W61310  18.651  41.086  11.120
89051W        W61311  22.354  15.526   3.181
89052W        W61312   0.085  12.822  13.439
89053W        W61313  38.283  31.568   4.621
89054W        W61314  16.717  23.789  13.130
89055W        W61315  31.621  43.247  13.837
89056W        W61316  17.696  36.391  10.758
89057W        W61317  34.105  13.017   1.928
89058W        W61318  23.921  14.906  11.624
89059W        W61319   2.331  38.830  13.386
89060W        W61320  28.147   1.027  14.091
89061W        W61321  10.940  29.542  12.119
89062W        W61322   4.472   6.857  13.874
89063W        W61323  40.011  11.229  13.386
89064W        W61324  37.807   9.709   3.132
89065W        W61325  38.454  39.540   1.039
89066W        W61326  37.152  24.529  11.972
89067W        W61327  25.536  34.880   4.490
89068W        W61328  32.678  20.299   1.299
89069W        W61329   3.849  18.066   4.071
89070W        W61330   5.393   6.274  12.828
89071W        W61331  30.679  27.062  11.487
89072W        W61332  22.215  30.135   4.680
89073W        W61333  12.776   5.696   4.419
89074W        W61334  28.672  16.631  10.685
89075W        W61335  33.353   5.245  13.366
89076W        W61336  22.538  29.742   3.535
89077W        W61337   3.320  15.606  13.014
89078W        W61338  38.102   2.058   4.199
89079W        W61339  29.968  39.918   2.283
89080W        W61340  15.590  27.968  13.657
89081W        W61341  22.888  12.815   3.221
89082W        W61342  18.751   5.453   5.154
89083W        W61343  25.488  24.514   0.945
89084W        W61344  42.710  37.055  14.777
89085W        W61345  25.684   8.053   2.914
89086W        W61346  42.345  29.646   1.107
89087W        W61347  17.862  19.271  11.508
89088W        W61348   8.457  23.006   0.384
89089W        W61349  21.495  13.475   2.397
89090W        W61350  41.942   5.246   1.583
89091W        W61351  36.516   2.679   2.796
89092W        W61352  27.138  26.085   1.172
89093W        W61353   1.451  23.114   0.845
89094W        W61354  35.549   3.320   4.559
89095W        W61355   0.980  30.442   4.737
89096W        W61356  21.536   2.421   4.049
89097W        W61357  39.681  40.476   4.942
89098W        W61358  30.372  32.849  13.159
89099W        W61359  28.986  42.348  10.908
89100W        W61360  37.749   3.453   2.770
89101W        W61361  43.970   3.947   2.872
89102W        W61362  30.573   3.711  12.343
89103W        W61363  15.266  40.852   3.243
89104W        W61364   2.737  37.125  13.425
89105W        W61365  19.720  15.149   0.681
89106W        W61366  38.858  33.842   4.570
89107W        W61367  32.593  37.948   2.709
89108W        W61368   7.634   8.358   2.378
89109W        W61369  17.248   2.377   0.802
89110W        W61370  30.984   0.864  11.854
89111W        W61371   5.528  36.394   3.665
89112W        W61372  21.286  33.082  14.038
89113W        W61373   5.329  27.367  10.666
89114W        W61374   3.993  11.189  14.717
89115W        W61375   6.933  13.388   0.218
89116W        W61376   1.240  10.677  14.209
89117W        W61377  10.651   2.122  12.072
89118W        W61378  29.272   0.043   0.497
89119W        W61379  42.321  25.561   4.571
89120W        W61380  19.256  21.511   0.050
89121W        W61381  33.926  33.188  14.293
89122W        W61382  44.452  41.989   0.826
89123W        W61383   0.059  12.039   4.592
89124W        W61384  31.183  38.607   0.509
89125W        W61385  36.882  17.928  10.497
89126W        W61386  22.293  22.774   4.224
89127W        W61387  44.849   1.917  11.518
89128W        W61388  18.553  31.070  14.409
89129W        W61389  12.726  15.787   2.156
89130W        W61390  38.320  10.792  13.536
89131W        W61391   7.911   8.871   1.313
89132W        W61392   3.095   2.264   4.130
89133W        W61393  20.619   9.889   1.389
89134W        W61394   1.656  18.567  11.141
89135W        W61395  32.546   8.642   4.740
89136W        W61396  29.360  35.517  11.897
89137W        W61397  19.327  42.241   4.241
89138W        W61398  22.550  41.992  14.520
89139W        W61399  30.415  36.838  13.492
89140W        W61400  40.865  37.841   2.703
89141W        W61401   3.801  25.995   3.369
89142W        W61402  11.924  25.569   2.866
89143W        W61403   7.810  43.056  12.481
89144W        W61404   0.322  24.520  13.071
89145W        W61405  27.928   0.809  13.388
89146W        W61406  33.437  39.969  12.148
89147W        W61407  10.965  29.983   0.838
89148W        W61408  36.538   3.880   2.274
89149W        W61409  41.949  17.500   4.149
89150W        W61410  17.486  29.168  12.046
89151W        W61411  39.022  41.059  13.798
89152W        W61412  41.351  24.490   2.731
89153W        W61413  25.528  33.460   3.793
89154W        W61414  14.818  17.444   5.487
89155W        W61415  31.043  42.523   4.315
89156W        W61416  23.067  20.189   1.768
89157W        W61417  17.139   2.499  10.675
89158W        W61418   6.230  37.608  10.623
89159W        W61419   2.711  44.504   3.782
89160W        W61420  10.312  10.320  12.014
89161W        W61421  22.377  30.196  11.128
89162W        W61422  16.077  35.960  11.716
89163W        W61423  22.247  42.534  13.910
89164W        W61424  29.421  26.569   1.405
89165W        W61425  11.827   4.550  11.680
89166W        W61426  34.494   4.458   0.462
89167W        W61427   3.753   7.244  12.958
89168W        W61428  32.422  32.131   0.738
89169W        W61429  26.022  12.558  14.519
89170W        W61430   9.370  37.138  10.616
89171W        W61431  10.094  23.456  14.890
89172W        W61432  19.609  13.789  13.993
89173W        W61433  37.691  19.575  12.392
89174W        W61434  38.026   0.309   1.296
89175W        W61435  34.448  23.547  11.177
89176W        W61436  44.184  27.676   2.194
89177W        W61437  34.789   1.858  10.962
89178W        W61438  42.768   2.726  14.344
89179W        W61439   6.938  14.559  13.420
89180W        W61440   4.911  43.904   1.276
89181W        W61441  37.637   1.192   2.262
89182W        W61442  10.290  38.330  10.470
89183W        W61443  41.406  26.487  13.242
89184W        W61444   7.819  16.593  12.140
89185W        W61445  22.639  36.913  14.571
89186W        W61446  11.785   3.374   0.824
89187W        W61447   9.882  33.947   4.082
89188W        W61448  20.063  20.245   3.163
89189W        W61449  17.625  14.085  12.602
89190W        W61450  13.076  42.164   1.184
89191W        W61451   1.553  41.048  12.021
89192W        W61452   8.382   4.277   0.462
89193W        W61453  17.135  18.973  13.314
89194W        W61454  32.467  41.262  12.560
89195W        W61455  24.667  29.880   0.280
89196W        W61456   0.233  43.850   1.879
89197W        W61457   6.849  44.889   3.126
89198W        W61458  38.450  15.722  10.690
89199W        W61459  36.097  36.462   1.304
89200W        W61460  31.931  42.787   4.624
89201W        W61461  10.699  29.019   3.888
89202W        W61462  42.529  40.311   2.346
89203W        W61463  14.828  44.189  12.047
89204W        W61464  38.895   1.407   4.386
89205W        W61465  17.336  13.682   0.873
89206W        W61466   7.336  28.062  10.646
89207W        W61467  41.984  30.469   0.789
89208W        W61468  31.539  27.279   2.240
89209W        W61469   4.409  25.850   1.306
89210W        W61470  44.332   9.735  10.860
89211W        W61471  39.112  28.686   0.863
89212W        W61472   0.977  23.429  14.915
89213W        W61473   8.738   8.628  13.551
89214W        W61474  27.253   7.294  10.853
89215W        W61475   0.402  40.494   4.175
89216W        W61476   4.911  14.138  11.337
89217W        W61477  30.206  31.935  13.869
89218W        W61478  13.307  42.151   0.728
89219W        W61479  14.751  40.060  14.057
89220W        W61480   7.630   2.881   3.365
89221W        W61481   5.749   6.215  14.035
89222W        W61482  25.958  33.347  14.969
89223W        W61483  30.219  30.002  10.626
89224W        W61484  15.809  38.298   2.382
89225W        W61485  40.949  42.260   3.106
89226W        W61486  27.962  35.785  11.119
89227W        W61487  39.264  21.455  10.710
89228W        W61488  29.569  37.782  12.400
89229W        W61489  33.164  25.163   0.926
89230W        W61490   5.042   1.269  14.806
89231W        W61491   9.070  22.251  12.923
89232W        W61492  24.477  32.364  10.630
89233W        W61493  42.719  28.170   4.103
89234W        W61494  13.406   2.797  14.860
89235W        W61495   3.461   4.223   2.689
89236W        W61496  38.813  21.538  13.350
89237W        W61497  13.483  42.445   1.972
89238W        W61498   5.246  19.231  13.820
89239W        W61499  16.764  24.746  12.729
89240W        W61500  37.819   6.774   3.751
89241W        W61501  30.039  35.024   4.573
89242W        W61502   3.890   9.359  10.800
89243W        W61503  13.334   6.595  11.489
89244W        W61504  39.260  20.477  14.735
89245W        W61505  13.806  10.400  14.056
89246W        W61506  43.377   3.166  12.999
89247W        W61507   7.168  38.546   2.249
89248W        W61508  43.333  21.076   2.347
89249W        W61509  26.794  28.634  14.731
89250W        W61510   4.925  15.525   1.807
89251W        W61511  32.083  12.424   2.296
89252W        W61512   4.369  38.519   3.114
89253W        W61513  22.558  20.432  12.459
89254W        W61514  34.634  39.579   1.775
89255W        W61515  20.537  17.124  13.520
89256W        W61516   7.754  25.971   0.988
89257W        W61517  12.657  18.657   3.605
89258W        W61518  27.781  10.175  13.467
89259W        W61519   6.701  13.695   1.044
89260W        W61520  44.411  24.033  10.470
89261W        W61521  10.841  37.714  14.418
89262W        W61522  37.666  39.448   3.028
89263W        W61523  30.797  32.064  10.227
89264W        W61524  32.412  30.468   4.978
89265W        W61525  16.813  17.737   3.167
89266W        W61526  26.632  19.246   0.060
89267W        W61527  11.235  31.149   4.673
89268W        W61528  37.040  10.362   2.299
89269W        W61529  13.102   5.805   3.309
89270W        W61530  31.573  38.286   3.272
89271W        W61531  36.842  20.677   3.798
89272W        W61532   7.156  16.157   4.276
89273W        W61533  34.123  18.282  14.419
89274W        W61534  28.527  42.968   4.341
89275W        W61535  17.287  14.386  12.347
89276W        W61536  38.788   7.386   1.940
89277W        W61537  30.544  11.139   1.539
89278W        W61538   1.713  24.183   2.907
89279W        W61539  21.564   6.744   2.635
89280W        W61540  44.427  39.177  13.586
89281W        W61541  24.089  22.986  12.414
89282W        W61542   9.500   7.624  12.484
89283W        W61543  10.443  38.877   0.423
89284W        W61544   4.679   2.831   3.387
89285W        W61545  28.128  34.989  11.845
89286W        W61546   2.388   5.729  10.620
89287W        W61547  36.430   1.289  11.111
89288W        W61548  35.856  16.030  10.588
89289W        W61549  35.664   4.800   0.665
89290W        W61550  44.965  26.373   2.414
89291W        W61551  10.645   7.248   0.296
89292W        W61552  35.296  37.847  11.956
89293W        W61553  16.460   6.611   1.851
89294W        W61554  36.533  19.696   4.185
89295W        W61555  34.567   3.492   5.210
89296W        W61556  24.578   4.378  11.643
89297W        W61557  33.585  37.283   3.174
89298W        W61558  36.130  17.595   2.615
89299W        W61559   9.270  26.770  14.903
89300W        W61560   8.473  44.957   1.739
89301W        W61561   7.686  21.203   3.603
89302W        W61562  24.979  13.824  13.009
89303W        W61563  44.938  26.114  10.676
89304W        W61564   6.625  32.847  13.063
89305W        W61565  39.234   7.306  13.142
89306W        W61566  34.508  44.021  11.506
89307W        W61567   6.059  30.850   1.953
89308W        W61568   2.300   5.891   1.684
89309W        W61569   9.415   7.774   4.558
89310W        W61570  26.561   7.705  11.241
89311W        W61571   9.569  10.551   4.581
89312W        W61572  16.839  36.870   3.268
89313W        W61573  44.880  23.086   4.148
89314W        W61574  19.545  12.164  13.440
89315W        W61575   8.810  33.566   3.707
89316W        W61576   4.541  22.796  14.414
89317W        W61577  40.340  25.485   3.068
89318W        W61578  17.557   3.176   3.833
89319W        W61579  10.824   5.915   2.704
89320W        W61580  20.628  17.730   1.168
89321W        W61581   7.799  27.412   3.644
89322W        W61582   5.744  18.094  13.965
89323W        W61583  25.978  43.209  13.465
89324W        W61584   3.432   3.847   0.422
89325W        W61585   4.497  26.883  12.450
89326W        W61586  40.894  27.665   3.215
89327W        W61587  34.104  21.283   4.963
89328W        W61588  23.865   7.618   0.989
89329W        W61589  42.952   1.231   4.213
89330W        W61590   0.351  23.488  14.432
89331W        W61591   8.751  32.167   0.423
89332W        W61592  37.015  36.315   0.307
89333W        W61593  11.714  41.899  11.982
89334W        W61594  10.635  42.440   1.938
89335W        W61595  33.866  42.026  13.021
89336W        W61596  14.334  32.485   1.500
89337W        W61597  27.559  29.237  11.537
89338W        W61598  12.161  16.530   0.062
89339W        W61599   6.018  34.623  14.166
89340W        W61600   0.800   5.210  11.442
89341W        W61601   0.902  29.218   2.278
89342W        W61602  39.909  24.172  14.377
89343W        W61603  33.465  20.634   9.911
89344W        W61604  27.723  15.497  13.000
89345W        W61605  41.551  42.839   3.678
89346W        W61606  24.231  39.391   2.872
89347W        W61607  29.787  32.905   0.512
89348W        W61608  10.918  36.483   0.406
89349W        W61609  25.720  37.979  13.514
89350W        W61610  33.948   9.140   0.899
89351W        W61611  12.002  21.189  14.561
89352W        W61612  30.539  13.742  13.370
89353W        W61613  22.431  11.310  10.758
89354W        W61614  38.724  37.574  10.287
89355W        W61615  11.182  25.491  11.930
89356W        W61616  42.022   9.199  12.613
89357W        W61617  28.234   0.952   5.324
89358W        W61618  24.296  27.128   3.524
89359W        W61619   0.027  23.496   1.173
89360W        W61620  31.228  14.092   0.976
89361W        W61621  13.046  24.923   9.985
89362W        W61622  11.322   5.614   1.906
89363W        W61623  44.029  35.817  13.600
89364W        W61624  36.538  19.122  10.814
89365W        W61625  42.105  12.843   2.353
89366W        W61626  24.643  21.606   4.941
89367W        W61627  39.204  21.033   0.245
89368W        W61628  34.138  23.049   2.790
89369W        W61629  40.952  39.294  13.430
89370W        W61630  41.956  22.050  11.488
89371W        W61631   3.968   1.772   2.325
89372W        W61632  11.841  32.662  14.516
89373W        W61633  26.104  40.976   4.052
89374W        W61634   8.212  33.373  12.016
89375W        W61635  37.948  39.452   3.927
89376W        W61636  15.804  12.794  12.609
89377W        W61637  36.686  31.507   0.954
89378W        W61638  40.552  35.561   2.899
89379W        W61639  30.716  25.546   1.250
89380W        W61640  42.875  37.030   1.768
89381W        W61641   1.999   9.387  12.902
89382W        W61642  14.197  30.031  12.461
89383W        W61643  30.415  29.383   0.074
89384W        W61644  36.527  37.346  10.994
89385W        W61645  28.506   1.458  14.856
89386W        W61646   9.839  26.013  14.129
89387W        W61647   9.444  13.876  13.896
89388W        W61648   3.974  43.809  14.668
89389W        W61649   3.313  27.166  11.170
89390W        W61650  21.442  22.542  13.315
89391W        W61651  11.591   8.175   3.833
89392W        W61652  44.747  36.195  10.776
89393W        W61653  38.378  17.556  10.674
89394W        W61654  26.992  19.587   3.424
89395W        W61655   7.980  19.631  10.625
89396W        W61656  24.239  15.075   4.800
89397W        W61657  43.995  38.018   3.195
89398W        W61658  40.947  42.283  11.999
89399W        W61659  24.093  41.961  12.398
89400W        W61660   4.388  23.644  12.719
89401W        W61661   1.218  29.627  10.755
89402W        W61662  25.397   3.265   1.139
89403W        W61663  41.637  44.779   3.315
89404W        W61664   3.030  11.798  13.637
89405W        W61665  21.237  13.931   3.249
89406W        W61666   6.822  23.567   0.960
89407W        W61667   7.701  43.584   1.270
89408W        W61668   9.372  19.922   1.287
89409W        W61669  15.085  12.852   1.147
89410W        W61670  28.527  37.294   1.667
89411W        W61671  29.185  12.338  11.608
89412W        W61672   6.406  23.959   3.174
89413W        W61673  10.717  16.066  14.432
89414W        W61674  24.083  31.626   0.785
89415W        W61675  36.076  36.902  13.463
89416W        W61676  11.297  31.618  13.258
89417W        W61677  42.827  24.506  12.152
89418W        W61678  10.234  27.062   1.984
89419W        W61679   6.896  10.405  10.621
89420W        W61680   3.229   7.088   1.841
89421W        W61681  39.714  38.438   0.493
89422W        W61682   2.052  42.263   0.866
89423W        W61683  30.405   2.156  11.960
89424W        W61684  12.150  41.339  13.037
89425W        W61685  28.085   2.889  13.161
89426W        W61686  18.012  42.744   5.019
89427W        W61687  34.700  39.766  14.563
89428W        W61688  36.266  27.152  12.452
89429W        W61689  25.596   7.194   0.263
89430W        W61690  32.655  14.145   2.645
89431W        W61691  15.283  17.315   0.919
89432W        W61692   5.284  14.187  12.624
89433W        W61693  13.230  25.127  11.713
89434W        W61694  10.949  34.074  11.998
89435W        W61695  30.624  40.385  13.482
89436W        W61696  18.557  16.139   4.056
89437W        W61697  25.235  13.586   1.758
89438W        W61698   3.311  28.163  12.373
89439W        W61699  38.804  11.084  14.360
89440W        W61700  10.714   8.353   2.325
89441W        W61701   1.193  44.061  14.177
89442W        W61702  24.642  15.092   3.164
89443W        W61703  39.856  32.882   2.858
89444W        W61704  35.042  14.651   1.170
89445W        W61705  10.782  33.881   0.849
89446W        W61706   1.151  38.287   0.796
89447W        W61707  29.545  26.152  13.726
89448W        W61708  18.652  43.103   3.960
89449W        W61709  27.403  17.721  11.618
89450W        W61710   1.944   2.047   2.360
89451W        W61711   5.291  16.880   0.993
89452W        W61712  14.259  26.152   3.360
89453W        W61713  32.539  29.447   1.397
89454W        W61714  35.114  22.490  12.375
89455W        W61715  31.413  13.130   4.502
89456W        W61716  31.543  23.417   4.629
89457W        W61717  22.189  18.233  14.996
89458W        W61718  10.285  43.828   3.981
89459W        W61719   4.715  21.475  11.603
89460W        W61720  34.076   6.619  12.692
89461W        W61721  43.842  20.721  10.714
89462W        W61722  37.125  40.092  11.532
89463W        W61723  22.313  25.525   0.777
89464W        W61724   8.165   1.270  13.441
89465W        W61725  23.165   1.648  13.422
89466W        W61726  10.317  19.149  14.482
89467W        W61727  17.943  41.020  13.514
89468W        W61728  37.359  13.025   5.007
89469W        W61729  10.339  13.136  14.528
89470W        W61730  39.061  15.111   0.500
89471W        W61731  28.620   3.912  11.031
89472W        W61732  36.021  44.401  11.451
89473W        W61733  34.401  31.411   2.298
89474W        W61734  27.761  28.354  14.764
89475W        W61735  16.536  21.808  11.613
89476W        W61736  15.670  13.740   3.172
89477W        W61737  24.953  19.667  12.852
89478W        W61738  18.736  38.857  10.701
89479W        W61739  18.094  21.232  10.287
89480W        W61740   6.186  19.251  13.883
89481W        W61741  15.584  27.249  10.573
89482W        W61742  20.760   9.398   1.251
89483W        W61743  22.951  42.068  10.925
89484W        W61744  39.466  24.969   1.109
89485W        W61745  22.269   1.433   1.819
89486W        W61746  31.734  13.981   3.447
89487W        W61747  25.518   1.948   1.756
89488W        W61748   6.774  21.231   3.084
89489W        W61749  39.075  35.599  12.850
89490W        W61750  33.947  14.994   4.489
89491W        W61751   2.026   0.939   2.311
89492W        W61752  19.745   1.991   4.956
89493W        W61753  17.089  34.399   1.941
89494W        W61754  29.985  20.785   3.780
89495W        W61755  16.604   3.507  13.483
89496W        W61756  43.630   2.571   2.192
89497W        W61757  44.279  34.879  12.910
89498W        W61758  37.405  31.222   2.277
89499W        W61759  24.623  37.257  12.521
89500W        W61760   0.323  15.764  10.396
89501W        W61761  24.459  31.927   1.897
89502W        W61762   1.934  41.996  13.578
89503W        W61763  21.302  32.671   0.768
89504W        W61764   7.752  27.129   9.933
89505W        W61765  10.449  39.516   1.862
89506W        W61766  30.456  38.818   3.627
89507W        W61767   8.276  18.108   3.825
89508W        W61768  23.542  24.738   2.624
89509W        W61769   7.388  42.737   4.923
89510W        W61770  20.999  31.623  12.866
89511W        W61771  11.835  28.093  14.239
89512W        W61772  10.922  31.883  10.762
89513W        W61773  38.017   3.763  13.487
89514W        W61774   0.596  11.527   2.745
89515W        W61775  40.490  40.354   4.098
89516W        W61776  18.191  10.999   3.123
89517W        W61777   4.024  37.392  13.810
89518W        W61778   9.858  29.675  10.666
89519W        W61779  42.326  22.877  10.673
89520W        W61780  42.210   7.424   2.976
89521W        W61781  23.501  26.922  11.518
89522W        W61782  27.480   5.779   1.380
89523W        W61783   4.237   5.811   1.658
89524W        W61784  28.624  35.942   0.507
89525W        W61785  35.441   7.315   2.437
89526W        W61786  37.267  13.685  12.484
89527W        W61787  39.436  31.276  12.331
89528W        W61788  39.624  14.794   0.913
89529W        W61789   7.327  12.615  12.896
89530W        W61790  24.043  11.158   2.235
89531W        W61791  27.532   0.812   0.807
89532W        W61792  37.646  42.837   4.118
89533W        W61793  18.772  14.268  13.084
89534W        W61794  20.586  29.670   4.377
89535W        W61795  34.810  42.985   2.532
89536W        W61796  11.121   7.794   2.229
89537W        W61797  12.033   8.432   3.695
89538W        W61798   9.331   3.938   1.391
89539W        W61799  42.734  10.328  11.664
89540W        W61800  34.023   0.888   2.191
89541W        W61801  27.753  24.338  13.457
89542W        W61802  13.909   2.363   1.937
89543W        W61803  21.462  17.723   3.169
89544W        W61804  40.425   4.714   5.136
89545W        W61805  39.822  10.696  12.467
89546W        W61806  22.687  12.313  12.093
89547W        W61807  22.802  16.673   1.427
89548W        W61808  43.722  29.320   1.579
89549W        W61809  32.354  30.681  12.584
89550W        W61810  34.998  31.394   0.566
89551W        W61811  23.767  21.711  11.502
89552W        W61812  11.761  38.752  11.147
89553W        W61813  12.876  39.776   0.106
89554W        W61814   6.098  21.535  11.584
89555W        W61815  19.587  11.627   4.543
89556W        W61816  11.118  20.672  12.923
89557W        W61817   1.452  27.037   2.268
89558W        W61818  20.617  37.770   4.150
89559W        W61819  31.995  32.602  11.330
89560W        W61820   9.825   4.749  13.409
89561W        W61821  27.144   4.176  14.087
89562W        W61822   9.731  40.400   4.590
89563W        W61823   7.172  20.299   1.845
89564W        W61824  11.268   3.653   1.342
89565W        W61825  14.352  17.723   0.927
89566W        W61826   9.863   9.354   4.130
89567W        W61827  12.091  27.890  10.643
89568W        W61828  20.772  36.464   0.238
89569W        W61829  12.624  29.902  10.157
89570W        W61830   8.381  14.391   2.336
89571W        W61831  14.180  30.628   3.598
89572W        W61832  36.879   6.861   1.327
89573W        W61833  40.546  39.879   1.166
89574W        W61834   1.055  15.840  12.690
89575W        W61835  18.383  36.927  12.724
89576W        W61836  34.121   0.780   0.438
89577W        W61837  28.717  38.520   0.414
89578W        W61838  29.815  14.798  11.792
89579W        W61839  22.118  34.843   2.285
89580W        W61840  31.592  17.309  11.257
89581W        W61841  22.321  39.373  14.253
89582W        W61842  10.989  11.595   2.771
89583W        W61843   6.535  21.728   1.516
89584W        W61844  29.529  11.817   0.946
89585W        W61845  20.194  10.496  12.271
89586W        W61846  43.303  24.359  13.910
89587W        W61847  14.983  38.506   0.317
89588W        W61848  16.278  44.476   4.389
89589W        W61849  27.979  32.978  14.890
89590W        W61850  36.813   7.223  11.712
89591W        W61851  26.092  22.874  13.416
89592W        W61852  17.179  26.166   4.518
89593W        W61853   6.464  26.069  14.219
89594W        W61854  43.573  16.688   4.549
89595W        W61855  14.119   0.791  13.823
89596W        W61856  30.647  33.637  14.502
89597W        W61857  15.096  33.274  13.530
89598W        W61858   4.805   9.736   4.410
89599W        W61859  39.772  38.853   1.282
89600W        W61860  15.247   8.351  12.554
89601W        W61861   9.597  31.995  14.505
89602W        W61862  40.594   4.373   2.404
89603W        W61863  31.902  37.563   2.628
89604W        W61864   0.229  39.275   0.917
89605W        W61865  33.601  41.012   1.311
89606W        W61866  22.197  19.000   3.740
89607W        W61867   9.376   0.687   1.775
89608W        W61868  38.250   7.864  13.849
89609W        W61869   0.832  43.918  14.548
89610W        W61870  14.768  21.799   4.105
89611W        W61871  16.149  29.490   3.687
89612W        W61872  19.513   1.136   0.859
89613W        W61873  14.743  25.251   3.773
89614W        W61874  28.239   8.172   1.756
89615W        W61875  33.861  29.577   4.593
89616W        W61876  18.681  12.314   0.652
89617W        W61877  10.556  10.641  10.773
89618W        W61878  22.665   7.233   2.067
89619W        W61879   8.152   4.714  10.662
89620W        W61880  15.677  35.068   2.326
89621W        W61881  17.376  37.109   4.124
89622W        W61882  36.687  39.330  12.506
89623W        W61883   3.732  21.666   2.868
89624W        W61884  27.559  40.368   2.781
89625W        W61885  20.109   5.499  14.861
89626W        W61886  18.458  41.119  13.504
89627W        W61887   0.738  29.630  13.945
89628W        W61888  39.086  41.586   2.253
89629W        W61889  17.232  28.988  11.116
89630W        W61890  26.172  22.323   3.805
89631W        W61891   0.813  42.399  14.218
89632W        W61892  32.488  20.077  11.524
89633W        W61893   6.728   8.975  12.530
89634W        W61894  17.599   3.669   1.100
89635W        W61895  25.707  43.911   2.171
89636W        W61896  35.576   7.493   4.136
89637W        W61897   0.846  25.900  10.684
89638W        W61898  41.981  15.295   1.027
89639W        W61899  19.215   9.556  12.883
89640W        W61900   7.217  12.650  14.312
89641W        W61901  18.592  42.055   0.278
89642W        W61902  28.200  39.146  11.563
89643W        W61903   6.368   1.853  14.118
89644W        W61904  19.098  15.523  13.913
89645W        W61905   5.684  34.879   1.492
89646W        W61906  41.110  11.776  11.443
89647W        W61907  37.879  21.256   4.566
89648W        W61908  41.828   6.827   4.067
89649W        W61909  18.070   3.653   0.875
89650W        W61910  14.158  31.328  14.650
89651W        W61911  21.986  42.912  13.411
89652W        W61912  19.219  18.775  11.283
89653W        W61913   9.334  33.948   4.402
89654W        W61914   9.868   7.473   0.745
89655W        W61915  11.889   7.832  11.571
89656W        W61916  10.939  26.268  14.859
89657W        W61917  24.939   4.993  11.147
89658W        W61918  28.352  27.299   3.680
89659W        W61919  24.444  41.335  12.003
89660W        W61920  15.341  13.626  11.558
89661W        W61921  32.950  13.773  10.630
89662W        W61922  35.527  44.005   2.867
89663W        W61923   3.485  41.001  11.167
89664W        W61924   6.211  12.568  12.491
89665W        W61925  17.275  23.299   1.897
89666W        W61926  26.714  33.586  12.880
89667W        W61927  26.044  42.663   3.362
89668W        W61928  31.103   2.048  11.192
89669W        W61929  40.729  22.736   0.479
89670W        W61930   7.616  15.240   4.059
89671W        W61931   9.342   8.599  11.545
89672W        W61932  24.048   7.422  14.106
89673W        W61933   2.788  11.702   4.313
89674W        W61934   3.452  41.412   1.815
89675W        W61935  17.899   7.142   4.833
89676W        W61936   0.020  27.986   4.043
89677W        W61937  33.098  37.515   3.353
89678W        W61938   0.511  24.148   2.269
89679W        W61939  24.428  26.149   0.221
89680W        W61940  25.089  27.707   4.132
89681W        W61941  35.462  27.741   4.095
89682W        W61942  28.557  12.326   4.606
89683W        W61943  22.496  20.045  12.819
89684W        W61944  21.526   8.399   3.661
89685W        W61945  13.414   3.773  14.732
89686W        W61946  25.499  28.163  12.490
89687W        W61947  19.735  34.171   2.754
89688W        W61948  23.836   4.857   3.668
89689W        W61949  13.867  32.534   1.288
89690W        W61950   3.925   4.422   0.102
89691W        W61951   2.697  26.402  14.478
89692W        W61952  16.784  33.085   1.773
89693W        W61953  27.667   1.898   0.827
89694W        W61954  43.979   2.950   0.780
89695W        W61955  32.337   3.155  12.075
89696W        W61956   7.719   5.332   0.973
89697W        W61957  42.400  33.183   0.929
89698W        W61958  39.951  20.972   4.926
89699W        W61959  13.584  11.564   2.273
89700W        W61960  42.379  12.612  14.415
89701W        W61961  17.823   0.322  14.472
89702W        W61962   8.708  10.795   2.610
89703W        W61963   1.974  34.141   3.248
89704W        W61964   9.895  22.738   2.762
89705W        W61965  41.792  15.577   2.355
89706W        W61966  28.102  43.306   3.261
89707W        W61967  10.117  37.162   2.283
89708W        W61968   0.797  12.781   3.544
89709W        W61969   4.031  20.601  11.095
89710W        W61970  44.549  17.208   3.699
89711W        W61971   2.462  21.647  11.924
89712W        W61972   5.937  31.104  12.662
89713W        W61973  40.729  21.236   3.699
89714W        W61974  30.492   7.433  13.459
89715W        W61975  15.604  12.112   2.664
89716W        W61976  20.961  10.737   0.125
89717W        W61977  21.798  18.647  13.814
89718W        W61978  38.860  30.487   3.311
89719W        W61979  42.871  15.744   4.620
89720W        W61980   1.763  19.167   1.210
89721W        W61981  30.738  30.144  11.953
89722W        W61982   0.773   7.398   3.664
89723W        W61983  18.462  44.565   0.642
89724W        W61984   8.247  15.763   2.721
89725W        W61985  38.516   2.471   3.100
89726W        W61986  14.320  34.620   4.533
89727W        W61987  41.935   7.777   3.911
89728W        W61988  23.701  21.000  11.097
89729W        W61989   4.189  39.063  11.627
89730W        W61990  38.317  35.169  10.606
89731W        W61991  19.029   5.613  12.579
89732W        W61992  35.760  27.452  12.014
89733W        W61993   7.688  40.339   1.340
89734W        W61994  10.809  16.845  13.365
89735W        W61995   5.451  37.977  12.114
89736W        W61996  35.406  24.930   4.715
89737W        W61997  29.249  22.247   1.870
89738W        W61998  41.183  36.187  12.118
89739W        W61999  11.606  39.727  13.327
89740W        W62000  29.902   9.920   3.385
89741W        W62001  33.569   1.841   5.098
89742W        W62002  34.488  40.052   4.205
89743W        W62003  22.064  40.526   4.419
89744W        W62004  29.377  40.963  11.162
89745W        W62005  12.469  25.443   4.671
89746W        W62006  14.627   1.374  14.341
89747W        W62007  29.099  13.169   0.595
89748W        W62008  41.385  19.706   0.749
89749W        W62009  43.743  15.882   2.913
89750W        W62010   1.978   5.363   3.280
89751W        W62011  39.681   1.415   2.073
89752W        W62012  10.402  37.722   2.882
89753W        W62013   8.442   9.929   2.214
89754W        W62014  18.321   5.168   2.317
89755W        W62015  42.798  35.290   4.639
89756W        W62016  42.454  37.061  12.628
89757W        W62017   6.843  18.141  12.387
89758W        W62018  36.367  29.399  11.140
89759W        W62019   2.995  10.896  13.465
89760W        W62020  23.056  21.558  10.215
89761W        W62021  13.514  28.043   0.848
89762W        W62022  23.581  21.698   1.495
89763W        W62023   3.460   8.960   0.212
89764W        W62024  43.433   5.940   1.201
89765W        W62025  31.073   1.674  14.846
89766W        W62026  28.109  12.249   3.172
89767W        W62027  33.847   8.285  12.989
89768W        W62028   8.439  40.315  13.863
89769W        W62029  31.620   1.998   0.132
89770W        W62030  39.736  21.142  11.855
89771W        W62031  43.428   3.466   2.330
89772W        W62032  36.423  17.010   3.851
89773W        W62033  40.044  38.372   4.729
89774W        W62034   2.261  29.965  14.042
89775W        W62035  37.549  32.049  11.479
89776W        W62036  22.996  36.085   2.437
89777W        W62037  41.826   8.787  12.038
89778W        W62038  43.600  13.200   0.185
89779W        W62039  44.385  26.620   2.655
89780W        W62040  43.127   1.528   2.430
89781W        W62041  39.530   4.406   2.132
89782W        W62042  16.069  35.192  14.156
89783W        W62043   0.793  10.812   4.906
89784W        W62044  33.286  37.483   4.575
89785W        W62045   0.290  35.873  12.907
89786W        W62046   8.163  27.338   1.217
89787W        W62047  16.838   2.863   3.889
89788W        W62048  22.795  29.046   9.732
89789W        W62049  25.936  34.379   2.328
89790W        W62050  17.307  19.281   3.741
89791W        W62051  36.353  39.066   0.808
89792W        W62052  41.201  44.209   3.740
89793W        W62053  24.007  21.087  10.082
89794W        W62054  11.725  31.145  10.640
89795W        W62055  43.440  34.209   0.021
89796W        W62056  38.644  22.790  11.951
89797W        W62057  34.082  26.759   1.297
89798W        W62058  24.151  24.444   5.066
89799W        W62059  10.843  36.030   1.128
89800W        W62060  20.208  23.980   1.847
89801W        W62061  43.050  29.322  14.835
89802W        W62062  40.543  40.528   3.221
89803W        W62063   5.736  11.720   2.021
89804W        W62064  19.636   7.129  11.868
89805W        W62065  41.108  17.566  10.710
89806W        W62066  37.045  20.623   9.818
89807W        W62067   1.990  18.589   2.891
89808W        W62068  41.553  44.676   4.991
89809W        W62069  12.588  37.768  11.457
89810W        W62070  34.050  33.554   0.443
89811W        W62071   7.472  33.981   4.509
89812W        W62072  43.398  21.069   4.867
89813W        W62073  15.115  19.213   3.310
89814W        W62074  29.939  21.057  12.993
89815W        W62075  16.111   7.197  14.017
89816W        W62076   8.076  31.058   0.433
89817W        W62077   7.506  44.846  12.840
89818W        W62078  44.393  33.085   2.706
89819W        W62079  41.622  12.352  10.693
89820W        W62080  22.833  42.526   4.445
89821W        W62081  30.780  26.506   2.038
89822W        W62082  10.358  14.534  14.010
89823W        W62083  33.734  31.120   4.809
89824W        W62084  28.032  39.270  10.988
89825W        W62085  23.104  20.148   1.255
89826W        W62086   5.678  38.776  12.582
89827W        W62087  14.775   7.138  10.530
89828W        W62088   4.408  21.929  10.699
89829W        W62089  11.185  29.056  14.811
89830W        W62090  25.992  11.591  13.326
89831W        W62091  17.773  28.721   4.347
89832W        W62092  30.420  44.830   3.671
89833W        W62093  35.302  34.422  13.002
89834W        W62094  12.906   3.536  11.086
89835W        W62095  14.356  30.455  14.411
89836W        W62096  31.652  14.990  11.468
89837W        W62097  17.695  42.560   0.292
89838W        W62098  44.587   4.244   0.219
89839W        W62099  26.111  21.192   1.040
89840W        W62100  35.124   8.198   1.760
89841W        W62101  42.659  41.604   9.786
89842W        W62102  14.081  33.932   0.797
89843W        W62103  13.499  35.051  11.850
89844W        W62104  12.980   9.796  13.250
89845W        W62105  29.737  26.145  14.263
89846W        W62106   6.696  33.045   2.268
89847W        W62107  35.974  10.619   3.070
89848W        W62108  24.586  32.848  13.723
89849W        W62109  34.739   6.304  11.613
89850W        W62110  23.076   3.963  12.946
89851W        W62111   2.213  10.714  12.064
89852W        W62112   7.997  11.921  11.131
89853W        W62113  32.336   4.331  10.999
89854W        W62114   7.812  17.503  13.507
89855W        W62115   0.322  29.882  13.769
89856W        W62116  11.044  33.318   2.944
89857W        W62117  25.720   2.034   2.650
89858W        W62118   6.168  20.531  12.581
89859W        W62119  36.816  30.016   2.263
89860W        W62120  12.797  44.274   2.096
89861W        W62121  20.811  11.599  13.261
89862W        W62122  23.747  35.058   0.018
89863W        W62123  32.281  12.616  11.049
89864W        W62124  15.632  43.270   4.031
89865W        W62125  16.789  44.073  14.922
89866W        W62126   4.720   0.466   0.259
89867W        W62127  36.576  12.782  13.020
89868W        W62128  11.211  30.457  12.492
89869W        W62129   0.287   0.939   1.053
89870W        W62130  42.487  13.472  11.846
89871W        W62131  11.356  26.690   3.812
89872W        W62132   0.692  23.198  11.587
89873W        W62133  14.373  15.329  13.403
89874W        W62134  22.694  25.235   1.440
89875W        W62135  36.553   4.942  10.514
89876W        W62136  27.137  41.569   3.768
89877W        W62137  36.719  38.824   1.185
89878W        W62138  34.863  28.477   3.377
89879W        W62139  22.499  41.535  12.129
89880W        W62140  32.186  26.960  12.462
89881W        W62141  15.251  25.241  12.453
89882W        W62142  30.236  20.174  13.046
89883W        W62143  36.020  18.927   5.083
89884W        W62144   8.255   5.140   3.047
89885W        W62145   1.312  21.667   3.189
89886W        W62146  26.616  42.198  10.005
89887W        W62147   5.324   5.568   2.653
89888W        W62148  42.481  44.464  14.451
89889W        W62149  14.082  39.823  13.318
89890W        W62150  20.278  24.988  13.991
89891W        W62151  44.365  17.158  12.307
89892W        W62152  14.740  41.502   0.414
89893W        W62153   9.564  15.248   0.040
89894W        W62154   5.896  20.111  11.432
89895W        W62155  13.429  25.511   4.778
89896W        W62156  44.513  15.009   2.461
89897W        W62157  42.888  12.317   2.426
89898W        W62158   5.951  36.778   4.535
89899W        W62159  24.656  40.490  13.359
89900W        W62160  43.260  10.364  12.209
89901W        W62161   9.788  12.187   2.645
89902W        W62162  33.990   7.762   4.217
89903W        W62163  25.580  28.653  10.771
89904W        W62164  31.865  17.793  14.349
89905W        W62165  29.108   9.163  11.242
89906W        W62166  26.189   0.857  12.533
89907W        W62167   1.511   6.128  11.628
89908W        W62168  25.946  37.618   3.220
89909W        W62169  36.336  13.815   4.841
89910W        W62170   7.432   4.403  13.361
89911W        W62171   5.133   4.034   3.136
89912W        W62172  21.811   7.145   4.655
89913W        W62173  40.958  20.304  12.592
89914W        W62174   8.378  25.771   4.311
89915W        W62175   9.932  43.340  14.974
89916W        W62176   9.833  44.908  14.766
89917W        W62177  36.922  40.574   3.274
89918W        W62178  26.558   2.033   1.674
89919W        W62179  29.507  22.206  11.585
89920W        W62180  13.371  24.308   3.939
89921W        W62181  20.572  21.115   0.472
89922W        W62182  39.287  32.437   1.770
89923W        W62183  37.634  35.279  12.907
89924W        W62184  24.163  14.431   2.586
89925W        W62185  40.970  42.084   2.547
89926W        W62186   7.536   1.299   4.864
89927W        W62187  41.039  18.752  11.505
89928W        W62188   4.929  18.406  10.828
89929W        W62189  23.535  20.100  12.333
89930W        W62190  25.101   4.428  11.522
89931W        W62191  34.400  34.454   4.042
89932W        W62192   8.833  25.874  13.440
89933W        W62193  29.563  41.899   2.396
89934W        W62194  37.018  32.522  12.031
89935W        W62195  16.074  14.148   2.306
89936W        W62196   9.443   9.098   1.474
89937W        W62197  30.111  22.540   0.435
89938W        W62198  31.263  29.604  10.987
89939W        W62199  26.536  33.610  13.795
89940W        W62200  14.156  11.281   0.981
89941W        W62201  19.391   9.529  11.165
89942W        W62202  25.993  44.739   4.245
89943W        W62203  39.996  22.661   2.170
89944W        W62204  10.667  41.005   1.897
89945W        W62205  10.823  43.267   3.635
89946W        W62206  17.229  37.695  13.908
89947W        W62207   8.409  20.662   1.482
89948W        W62208  41.750  20.565   0.731
89949W        W62209   9.906   4.257   1.193
89950W        W62210  31.080  15.404   3.578
89951W        W62211  19.539   3.823  11.721
89952W        W62212  26.631  20.951  11.551
89953W        W62213  21.244  38.708  12.737
89954W        W62214  38.487  17.092  14.580
89955W        W62215  12.636  20.835   1.074
89956W        W62216   0.424  34.941   4.394
89957W        W62217   6.710  35.903  11.415
89958W        W62218  13.106  33.653   2.344
89959W        W62219   5.550  24.077   3.171
89960W        W62220  13.145  26.085   0.991
89961W        W62221   5.266   5.776  12.975
89962W        W62222  29.044   7.390  14.012
89963W        W62223   0.219  25.453   2.236
89964W        W62224   8.785  32.546   5.177
89965W        W62225  38.748  27.575  13.001
89966W        W62226  21.384   4.731   4.124
89967W        W62227  17.325  33.249  11.683
89968W        W62228  43.916  12.758  12.992
89969W        W62229  39.795  28.495   1.621
89970W        W62230  38.541   5.255  10.703
89971W        W62231  41.767  13.560  14.839
89972W        W62232  10.704  23.700  10.673
89973W        W62233  44.040  32.966   4.883
89974W        W62234  17.118   9.366  11.693
89975W        W62235  14.137  26.591   3.578
89976W        W62236   4.334  13.127  11.570
89977W        W62237  40.249   2.952  14.720
89978W        W62238  18.528  21.521  13.007
89979W        W62239  21.214  29.711  12.113
89980W        W62240  11.678   9.022  10.687
89981W        W62241  17.242  21.598  14.902
89982W        W62242  21.471  13.514  11.918
89983W        W62243  34.937   5.582  12.049
89984W        W62244  33.467  34.638  12.860
89985W        W62245  14.929  28.900  14.024
89986W        W62246   2.872  28.338  11.596
89987W        W62247  27.203  20.122   4.067
89988W        W62248  26.372  41.331  12.948
89989W        W62249  19.626  42.266   1.433
89990W        W62250   0.151   1.363   3.103
89991W        W62251   0.861  35.185   3.129
89992W        W62252  24.174  36.060  14.215
89993W        W62253  21.232  18.581   2.302
89994W        W62254  26.948  27.483  14.962
89995W        W62255  32.262  29.770  11.147
89996W        W62256   6.467  43.875  11.566
89997W        W62257   2.064   7.271  11.265
89998W        W62258   2.296  23.467   0.422
89999W        W62259  28.877  34.073   2.907
90000W        W62260  43.323   4.944  13.569
90001W        W62261  39.205   1.706  12.990
90002W        W62262   8.784  26.008  12.475
90003W        W62263  27.498   8.524  12.465
90004W        W62264  35.516  38.799  11.036
90005W        W62265  22.222  20.143  10.670
90006W        W62266  36.539  32.325   3.810
90007W        W62267  16.743   3.195   2.405
90008W        W62268  27.066   0.939  13.106
90009W        W62269  34.727  44.975  12.312
90010W        W62270   1.430  11.459   1.676
90011W        W62271  29.854  15.508   3.218
90012W        W62272  35.288  36.582   3.564
90013W        W62273  36.981  26.958  14.451
90014W        W62274  14.347   7.655  11.069
90015W        W62275  30.178  33.997  11.194
90016W        W62276   7.824  35.480  13.521
90017W        W62277  11.577  21.971  11.544
90018W        W62278  20.305  30.776   1.199
90019W        W62279  20.745   3.132   1.653
90020W        W62280   1.352   6.205   4.695
90021W        W62281  30.169  26.692  14.069
90022W        W62282   9.744  32.836   2.678
90023W        W62283  36.474  23.129  12.162
90024W        W62284  43.054   7.124  12.864
90025W        W62285   1.838  22.333   4.670
90026W        W62286  13.650  15.303   1.226
90027W        W62287  27.588  15.916  11.062
90028W        W62288   0.934  13.257  12.339
90029W        W62289  27.630  38.297   1.803
90030W        W62290   2.251  16.366   0.944
90031W        W62291  16.004  13.776   0.399
90032W        W62292  23.110   1.227  11.852
90033W        W62293  27.877  19.568   0.410
90034W        W62294  13.752   3.899  14.109
90035W        W62295   6.186  44.722   0.050
90036W        W62296  22.928  10.755  12.614
90037W        W62297  33.717   7.686  14.090
90038W        W62298  38.667  36.022   1.993
90039W        W62299  34.627  25.913   3.826
90040W        W62300  29.665  39.626  12.405
90041W        W62301  41.426   1.231  13.439
90042W        W62302   5.715  18.366   3.658
90043W        W62303   5.106  11.097   2.662
90044W        W62304  21.785  20.126  14.675
90045W        W62305  23.213  28.245   1.895
90046W        W62306  39.781  11.615  14.718
90047W        W62307  41.044  28.548  14.697
90048W        W62308   7.771  10.548  12.811
90049W        W62309   4.442  43.054  11.932
90050W        W62310   1.391  14.603  11.219
90051W        W62311  42.509  27.649  12.555
90052W        W62312  28.000  26.888  12.244
90053W        W62313  42.912   3.604   3.583
90054W        W62314  42.209  28.075   3.840
90055W        W62315  20.780  32.023   2.653
90056W        W62316  22.025  40.472   3.903
90057W        W62317  24.249  39.835  13.103
90058W        W62318  35.800  19.798  12.712
90059W        W62319  12.224  42.419   4.560
90060W        W62320   4.240   0.353  10.933
90061W        W62321  31.737  39.090  13.659
90062W        W62322  24.235   1.771  13.179
90063W        W62323  30.056  16.833  13.323
90064W        W62324  28.468  22.071  14.457
90065W        W62325  14.135  32.860   2.795
90066W        W62326  43.201   4.079   4.173
90067W        W62327  38.694  33.287  10.557
90068W        W62328  31.625  22.028  13.692
90069W        W62329   5.791  18.958   4.486
90070W        W62330  12.711  42.820  13.076
90071W        W62331   9.724  14.722   2.302
90072W        W62332   5.162  16.818   4.070
90073W        W62333   5.701  13.701  12.085
90074W        W62334  10.266   1.026   2.477
90075W        W62335  15.344  28.049  10.665
90076W        W62336  39.952  23.791   4.581
90077W        W62337  41.317   3.337   0.399
90078W        W62338   1.617   7.927   3.607
90079W        W62339   2.812   2.658  13.392
90080W        W62340  31.074  39.259  11.526
90081W        W62341  20.057  19.417   9.944
90082W        W62342  35.274   7.385  14.409
90083W        W62343  10.843  14.057   4.215
90084W        W62344   9.599  42.360   2.787
90085W        W62345  36.328   7.342   4.823
90086W        W62346  21.461  43.305   3.611
90087W        W62347  37.448  41.491  10.946
90088W        W62348   4.677  40.001  11.168
90089W        W62349  38.447  24.810  13.774
90090W        W62350  29.576   8.281  11.567
90091W        W62351   8.089  25.774  14.472
90092W        W62352   8.169  18.509   2.246
90093W        W62353  12.566  43.508   2.741
90094W        W62354   4.984  31.873  13.509
90095W        W62355  42.390  38.551   2.979
90096W        W62356  14.877  39.578  14.317
90097W        W62357   5.993  16.179   1.369
90098W        W62358  37.347  13.258  13.433
90099W        W62359  13.086  40.004  14.708
90100W        W62360  22.246  31.059  11.439
90101W        W62361   6.699  37.628   5.026
90102W        W62362  34.354  17.174   2.796
90103W        W62363  27.447  24.727  11.931
90104W        W62364   4.286  19.290  11.555
90105W        W62365  28.009  13.053  11.503
90106W        W62366   3.246   7.262   2.755
90107W        W62367  44.757  20.832  12.013
90108W        W62368  33.833  12.062   0.178
90109W        W62369   8.109  41.754   1.155
90110W        W62370  42.004  26.203  11.436
90111W        W62371  37.381  32.988  11.560
90112W        W62372  31.350  19.640   4.681
90113W        W62373  30.109  21.128   0.545
90114W        W62374  38.079   4.399   1.467
90115W        W62375  14.863  13.294  13.909
90116W        W62376  34.862  26.655  11.956
90117W        W62377  43.782  40.419  12.452
90118W        W62378  12.694  21.259   1.369
90119W        W62379  27.658  22.496  11.022
90120W        W62380   8.389  15.697   4.580
90121W        W62381   3.573  12.107  12.000
90122W        W62382  33.009  22.391   3.748
90123W        W62383  40.546   5.717   4.605
90124W        W62384  29.499  34.620  13.560
90125W        W62385   2.227  24.772  14.873
90126W        W62386  31.172  34.054   1.815
90127W        W62387  33.639  22.489   0.419
90128W        W62388  26.905  16.748  12.773
90129W        W62389  28.158  20.469   1.205
90130W        W62390  42.847  22.952  12.898
90131W        W62391  29.927  30.643   1.697
90132W        W62392  13.737  17.728  14.728
90133W        W62393  14.649  26.653  14.870
90134W        W62394  19.640  34.509   3.159
90135W        W62395  28.815  15.807   4.702
90136W        W62396  33.831   3.143  10.248
90137W        W62397   4.261   3.669  14.865
90138W        W62398   9.542  33.911   1.354
90139W        W62399  39.927  32.704  14.610
90140W        W62400  25.993  15.871   2.224
90141W        W62401  13.319  35.776  11.475
90142W        W62402  24.193  31.871   4.155
90143W        W62403  18.637  32.640   0.414
90144W        W62404  38.924  33.473  14.665
90145W        W62405  25.946  31.701  13.054
90146W        W62406  41.664  41.940  13.428
90147W        W62407  29.059  32.428  13.323
90148W        W62408   5.441  40.003   3.195
90149W        W62409  37.610  15.435  10.573
90150W        W62410  43.062  38.464   4.592
90151W        W62411  41.452  41.871  12.930
90152W        W62412  15.072  12.097   3.319
90153W        W62413  15.650  36.030   0.229
90154W        W62414  39.072  36.457  14.443
90155W        W62415  34.324  17.090  12.734
90156W        W62416  24.088  39.815   4.706
90157W        W62417  43.761  36.115  10.423
90158W        W62418  28.583  32.532   4.617
90159W        W62419   0.237   3.867  11.637
90160W        W62420  10.293   6.288  12.881
90161W        W62421   9.727   6.403  11.627
90162W        W62422  33.409  12.378   0.387
90163W        W62423  27.845  27.896  10.766
90164W        W62424  25.539  43.492  13.372
90165W        W62425  28.560  38.494   1.866
90166W        W62426  44.285  25.648  10.701
90167W        W62427   7.341  39.583  13.391
90168W        W62428  11.690  19.552   2.784
90169W        W62429  44.653  24.178   0.710
90170W        W62430   4.780  37.661   3.326
90171W        W62431  26.222   7.809   4.431
90172W        W62432  24.454  32.443  11.966
90173W        W62433  32.960  37.824  13.848
90174W        W62434  33.708  21.118  10.539
90175W        W62435  38.393  39.135  10.374
90176W        W62436  43.119   5.937  10.376
90177W        W62437  12.095  35.954   2.128
90178W        W62438  27.376   4.621  13.403
90179W        W62439  35.535  22.293  12.946
90180W        W62440   7.455  37.684  13.259
90181W        W62441  29.019  18.652   2.720
90182W        W62442   3.913  29.898  13.760
90183W        W62443  22.950   6.374  11.118
90184W        W62444  25.523   8.235  11.600
90185W        W62445   6.797  21.603  13.190
90186W        W62446  35.023  40.929   1.876
90187W        W62447  11.709   3.720   0.034
90188W        W62448   4.086  28.169  13.538
90189W        W62449  14.370  20.937  13.426
90190W        W62450  42.688  33.431   3.607
90191W        W62451  36.508  39.025   2.330
90192W        W62452  32.281  39.476  12.944
90193W        W62453  12.640  37.085  13.428
90194W        W62454   4.032  17.830  11.563
90195W        W62455   9.849  10.068  12.003
90196W        W62456  42.943  24.171   3.301
90197W        W62457  41.287  31.616   0.768
90198W        W62458  10.149  30.172   0.342
90199W        W62459   9.481  26.556  11.728
90200W        W62460   5.001   1.318   4.632
90201W        W62461   4.320  19.642   4.567
90202W        W62462  36.597  35.121   0.058
90203W        W62463  11.865  43.526  12.488
90204W        W62464  13.359  23.134  14.792
90205W        W62465  31.901  29.488   0.193
90206W        W62466  11.283  39.097   0.603
90207W        W62467  25.157  14.336   2.213
90208W        W62468   6.967   4.938   2.282
90209W        W62469  16.736  41.084  13.070
90210W        W62470  15.879   0.192  12.259
90211W        W62471  29.901  24.410  11.682
90212W        W62472  40.517  37.295   1.483
90213W        W62473   4.406  18.742  12.543
90214W        W62474   8.209  40.518   3.315
90215W        W62475  38.935  35.741  10.316
90216W        W62476  38.354  17.883  13.781
90217W        W62477  36.658   9.544   3.588
90218W        W62478  11.424  38.465  13.953
90219W        W62479  30.214  12.373  13.013
90220W        W62480  41.896  42.614   1.296
90221W        W62481   7.920  13.173  10.686
90222W        W62482  17.068  22.627  14.263
90223W        W62483  20.064  29.963   3.889
90224W        W62484  17.355  41.456   0.239
90225W        W62485  37.050   5.104  10.691
90226W        W62486  25.133  25.117  13.524
90227W        W62487  36.375  33.314   0.663
90228W        W62488  21.509  43.408  12.629
90229W        W62489   5.395  12.918   1.908
90230W        W62490  28.261  10.707  10.567
90231W        W62491  43.319   2.176   4.020
90232W        W62492   8.043  44.635   1.749
90233W        W62493  28.605  15.142  14.372
90234W        W62494   2.561   6.835  11.453
90235W        W62495  24.958  29.118  13.460
90236W        W62496  23.680  41.386   4.908
90237W        W62497   4.144  26.606   1.760
90238W        W62498  30.164  37.011   2.847
90239W        W62499  35.799  28.180   4.167
90240W        W62500  22.128  11.072   3.129
90241W        W62501  29.992  42.831  10.295
90242W        W62502  33.099  31.375   0.760
90243W        W62503  17.761   6.877  14.905
90244W        W62504  20.453  29.765   0.455
90245W        W62505  22.539  18.307   2.154
90246W        W62506  33.562  17.105  14.978
90247W        W62507  42.388  21.141  10.634
90248W        W62508  17.224  35.304   4.350
90249W        W62509   7.823  40.852   4.447
90250W        W62510   8.395   3.423  14.417
90251W        W62511  30.682  41.616   2.430
90252W        W62512  35.915  21.500   4.039
90253W        W62513   1.730  43.006   0.371
90254W        W62514  40.576  30.537   0.836
90255W        W62515  34.495   7.245  11.203
90256W        W62516  27.053   8.949  10.865
90257W        W62517  33.908  30.902  11.060
90258W        W62518  12.823  43.278   5.029
90259W        W62519  21.397   6.612  10.229
90260W        W62520  43.964   6.718   0.811
90261W        W62521  40.167  18.051  13.629
90262W        W62522   2.852   4.422  13.205
90263W        W62523  12.109  11.267   0.505
90264W        W62524  32.958  34.057  11.256
90265W        W62525  24.146   9.391  14.571
90266W        W62526  44.409  43.988  12.897
90267W        W62527   5.816  40.738  12.147
90268W        W62528  22.614  17.398  13.641
90269W        W62529  44.559  43.905  10.223
90270W        W62530  42.363  44.850  11.258
90271W        W62531  19.990   3.568  10.917
90272W        W62532  10.901  16.691   0.191
90273W        W62533  43.725  31.456  11.936
90274W        W62534  21.007  35.158  14.612
90275W        W62535   0.951  36.543   3.416
90276W        W62536  30.355  34.578  14.050
90277W        W62537  38.960  27.744  11.544
90278W        W62538  35.563  25.034   0.034
90279W        W62539  17.806  19.652  14.883
90280W        W62540  26.157  32.465   3.205
90281W        W62541  16.777   6.900  11.085
90282W        W62542  19.595  44.662  11.825
90283W        W62543  29.467   6.104   1.838
90284W        W62544  26.537  35.927   1.288
90285W        W62545  20.366  35.356   3.878
90286W        W62546  13.307  38.997  10.704
90287W        W62547   6.490   9.850  13.932
90288W        W62548  10.716  42.214   2.406
90289W        W62549  44.955  38.998  11.644
90290W        W62550   8.874  41.412   4.264
90291W        W62551  14.752  13.576   2.158
90292W        W62552  26.984   6.175  10.450
90293W        W62553  33.874  30.216   4.584
90294W        W62554  43.940   9.417   2.961
90295W        W62555  26.112   6.339   1.414
90296W        W62556  37.491  29.372   2.809
90297W        W62557  39.888  36.974   3.050
90298W        W62558  19.131  43.258  13.441
90299W        W62559   3.657   1.255   1.181
90300W        W62560  19.013  13.588   3.721
90301W        W62561   1.371  19.443   3.699
90302W        W62562  32.449  23.629  10.157
90303W        W62563  28.547  30.407  11.534
90304W        W62564   9.224   1.019   4.287
90305W        W62565   7.201  39.656   4.861
90306W        W62566  20.125  36.965   0.561
90307W        W62567  10.867  27.212  12.215
90308W        W62568  14.080   7.357   0.324
90309W        W62569  42.533  15.674   4.245
90310W        W62570  43.298  36.054   2.719
90311W        W62571  30.124  24.274  13.560
90312W        W62572  22.865  43.100  11.570
90313W        W62573  27.637   1.451  14.463
90314W        W62574  15.029  17.091  14.542
90315W        W62575   4.605  22.427  14.840
90316W        W62576  34.574  11.882   3.384
90317W        W62577  34.537  41.353   0.428
90318W        W62578   8.305  12.765  12.024
90319W        W62579  40.932  15.120   4.378
90320W        W62580  10.353  41.193   1.181
90321W        W62581  18.686  33.056   1.366
90322W        W62582  31.413   2.099  14.657
90323W        W62583  26.136  25.578   4.830
90324W        W62584  30.554  27.075   4.303
90325W        W62585   6.756  35.889   2.198
90326W        W62586  26.105  26.774   1.262
90327W        W62587  40.744  37.942   1.689
90328W        W62588   8.624  41.865   4.168
90329W        W62589  22.325  25.269   1.862
90330W        W62590   2.836   6.376  12.148
90331W        W62591  20.730  25.291   3.223
90332W        W62592  40.565  17.814  13.374
90333W        W62593   8.313  41.722  11.729
90334W        W62594  44.421  30.149   1.888
90335W        W62595  31.676  25.755   2.638
90336W        W62596  16.782  30.117   2.255
90337W        W62597  44.463  42.234   3.422
90338W        W62598  41.581  10.703  11.331
90339W        W62599  20.827  17.638  12.079
90340W        W62600  39.401  25.996   3.652
90341W        W62601   4.167   7.487   4.911
90342W        W62602  17.230   6.763  14.286
90343W        W62603  37.993   6.013   4.714
90344W        W62604  28.034  29.602   4.597
90345W        W62605   0.346  23.039   1.903
90346W        W62606   5.585  43.725   0.304
90347W        W62607  26.214  40.632  13.253
90348W        W62608  41.286  11.653  13.280
90349W        W62609  39.515  10.358  11.483
90350W        W62610  36.790  34.364   3.667
90351W        W62611  20.135  18.117   2.923
90352W        W62612  23.988  42.460   1.798
90353W        W62613  12.373   7.857  13.800
90354W        W62614  25.669  14.086  10.109
90355W        W62615  23.888  40.472   5.312
90356W        W62616   5.428  35.187   0.660
90357W        W62617  27.673   0.548  10.528
90358W        W62618  20.563  19.924  13.976
90359W        W62619  27.006  17.918  11.080
90360W        W62620   0.841  26.394   1.297
90361W        W62621  15.259   0.457  14.739
90362W        W62622  28.996  34.075  11.908
90363W        W62623  44.448  15.238   4.638
90364W        W62624   6.138  29.887  10.368
90365W        W62625  16.369  35.559  13.937
90366W        W62626  14.160  38.420  12.640
90367W        W62627  44.823  10.033  13.871
90368W        W62628  17.228  31.263   3.856
90369W        W62629  30.288  34.036   1.958
90370W        W62630  31.925  36.123   0.431
90371W        W62631  43.535  28.804  11.508
90372W        W62632  23.531  41.847  13.083
90373W        W62633  30.684  43.682   2.771
90374W        W62634   9.248   5.447   2.251
90375W        W62635  42.847  28.151   4.601
90376W        W62636  22.253   1.841   0.423
90377W        W62637  44.969  10.141  13.388
90378W        W62638  44.375  23.659   0.504
90379W        W62639  42.116  22.774  11.154
90380W        W62640  20.802  32.111   1.238
90381W        W62641   8.312  12.599  14.889
90382W        W62642  38.311  25.343  10.796
90383W        W62643  34.214  29.583   2.081
90384W        W62644  36.422  14.555  14.088
90385W        W62645  17.739  33.626  13.542
90386W        W62646  15.154  25.029  14.449
90387W        W62647  17.636   7.094  14.452
90388W        W62648   2.483  33.759  13.418
90389W        W62649  37.960  35.549  10.622
90390W        W62650  15.814  28.518   3.078
90391W        W62651  20.982   3.804   0.944
90392W        W62652  41.311  42.939   1.648
90393W        W62653   9.204  34.585   2.037
90394W        W62654  38.791  20.191   0.717
90395W        W62655  29.703  10.289  14.344
90396W        W62656  30.525   5.681  10.707
90397W        W62657  38.232  11.962  11.998
90398W        W62658   5.527  33.003  11.874
90399W        W62659  14.534   1.704  13.961
90400W        W62660  37.234  41.334   3.112
90401W        W62661   2.398  30.851   1.865
90402W        W62662   2.231   1.173   1.471
90403W        W62663  36.836  38.347   2.774
90404W        W62664  16.006  38.321  12.400
90405W        W62665   0.736  32.043  12.686
90406W        W62666  13.278   5.738   2.801
90407W        W62667  20.053  19.505   2.174
90408W        W62668  36.188  38.566   0.884
90409W        W62669  27.140  10.114  14.454
90410W        W62670   6.189  36.786  13.865
90411W        W62671  42.963  27.932   2.009
90412W        W62672  39.554  10.884   4.630
90413W        W62673   8.731  36.411  12.076
90414W        W62674   8.430   7.888   4.501
90415W        W62675  11.296  38.765  10.869
90416W        W62676  22.448  20.244   2.602
90417W        W62677  41.443  16.668   4.937
90418W        W62678   1.317  23.889   1.439
90419W        W62679  23.688  30.328   2.185
90420W        W62680  27.047  28.045   3.766
90421W        W62681  29.980  18.196  14.572
90422W        W62682  41.452   3.938  11.658
90423W        W62683  30.080  31.989   4.215
90424W        W62684  34.442  27.616   1.293
90425W        W62685   8.949  23.448   4.772
90426W        W62686  12.830  26.111  11.556
90427W        W62687  35.557  12.879  14.743
90428W        W62688  35.151  29.110  14.432
90429W        W62689  23.964  22.228  12.008
90430W        W62690  20.223  22.697   3.620
90431W        W62691   9.702  15.896  12.574
90432W        W62692  26.938  16.552  10.952
90433W        W62693  30.101  32.848   4.726
90434W        W62694   7.773  14.183  10.692
90435W        W62695  24.688  15.241   2.324
90436W        W62696  25.694  39.098   3.763
90437W        W62697   2.519  25.635   0.274
90438W        W62698  31.356  12.834   3.178
90439W        W62699   8.852  20.635   4.346
90440W        W62700  24.646  14.930   4.474
90441W        W62701  12.569  27.525   4.439
90442W        W62702  24.126  35.984   1.480
90443W        W62703  35.672  16.000   3.223
90444W        W62704  32.539  33.593   2.671
90445W        W62705  16.726   4.482   4.548
90446W        W62706  14.013  16.394  11.721
90447W        W62707   9.413  17.215  12.630
90448W        W62708  26.447  15.492   3.099
90449W        W62709  34.602  18.069  14.325
90450W        W62710   9.370  36.394  12.911
90451W        W62711  38.416  19.997   4.475
90452W        W62712  27.594  20.243   4.373
90453W        W62713  38.330  38.924   0.496
90454W        W62714   2.441  17.981  10.254
90455W        W62715  44.947  44.408   0.169
90456W        W62716   4.979   6.729  14.404
90457W        W62717  10.666  29.605   2.684
90458W        W62718  44.252  38.625   1.732
90459W        W62719  16.527  12.633  14.017
90460W        W62720   4.917  26.007   4.746
90461W        W62721  30.985  10.388   1.695
90462W        W62722  33.037   3.445   1.947
90463W        W62723  42.004  13.279  13.017
90464W        W62724   0.272  38.110   4.210
90465W        W62725  15.588  37.347   1.024
90466W        W62726  28.931  20.852   2.158
90467W        W62727   9.321  10.714  10.616
90468W        W62728  27.011  36.343   2.728
90469W        W62729  44.517  16.617  11.670
90470W        W62730   4.458   5.741   3.678
90471W        W62731  21.487  29.454   0.359
90472W        W62732  19.272  35.960   2.459
90473W        W62733   4.214   5.234  14.732
90474W        W62734  43.697  42.964   3.710
90475W        W62735  26.652  26.926   4.157
90476W        W62736  43.445  40.601  14.684
90477W        W62737   6.665  29.838   5.055
90478W        W62738  24.603  22.762   3.232
90479W        W62739  31.693   9.412  13.415
90480W        W62740  21.455  12.603  12.208
90481W        W62741  42.262   2.764   3.721
90482W        W62742  20.423   7.030  13.395
90483W        W62743  18.803  36.948  13.630
90484W        W62744  17.700  22.955  11.934
90485W        W62745  13.775  25.446   3.906
90486W        W62746  10.558  31.504   3.554
90487W        W62747  31.914   5.761   4.926
90488W        W62748  27.170  13.264  13.352
90489W        W62749   1.529   2.882   4.220
90490W        W62750  27.792  10.193   1.192
90491W        W62751  40.018  36.835   4.590
90492W        W62752  30.412  18.542  11.499
90493W        W62753  14.320   3.836  12.355
90494W        W62754  27.101  40.852  13.437
90495W        W62755  37.621   7.347   0.869
90496W        W62756  17.502  17.219  11.944
90497W        W62757  39.653  17.872  13.588
90498W        W62758  41.999   4.449  12.373
90499W        W62759   3.277   4.346   1.846
90500W        W62760   4.988  16.165   1.432
90501W        W62761  26.739   5.845  14.406
90502W        W62762  33.906  12.991   4.956
90503W        W62763  37.451  20.624   2.004
90504W        W62764  37.304   0.884   4.506
90505W        W62765  29.025  30.640   3.801
90506W        W62766  42.712   9.214   2.262
90507W        W62767  42.361   0.516  14.732
90508W        W62768   5.360  40.946   0.404
90509W        W62769  33.132  40.461  14.269
90510W        W62770  37.448  22.256  10.169
90511W        W62771   9.807  42.833  12.829
90512W        W62772  41.822   3.270   0.397
90513W        W62773  10.265   5.361   2.790
90514W        W62774  23.744  44.765   1.332
90515W        W62775   7.529   4.811   9.848
90516W        W62776  18.375   8.878   2.216
90517W        W62777  13.791   6.129  12.006
90518W        W62778  37.403  36.693  12.493
90519W        W62779   4.396   7.910  14.436
90520W        W62780   9.800  22.421  12.620
90521W        W62781   0.409  27.190   0.472
90522W        W62782  23.312  22.436   4.414
90523W        W62783  31.087  14.651   1.328
90524W        W62784  12.096  21.082  11.442
90525W        W62785   4.813  38.588   4.002
90526W        W62786  22.482   7.680   1.142
90527W        W62787  19.018  43.762  11.009
90528W        W62788  36.387  16.680   0.710
90529W        W62789  42.551  20.469   4.531
90530W        W62790   6.160  23.293   1.654
90531W        W62791  30.918  34.422  13.385
90532W        W62792  10.376  24.465   0.774
90533W        W62793  39.395  10.977   2.247
90534W        W62794   4.754  11.381   1.341
90535W        W62795  15.165  29.150  12.372
90536W        W62796  16.931  31.365  10.526
90537W        W62797  13.739  12.512  12.940
90538W        W62798  12.615  17.811   4.190
90539W        W62799  38.550   4.340  14.279
90540W        W62800  34.929   4.784   0.813
90541W        W62801  18.107  19.375  12.602
90542W        W62802  12.586  39.454   0.975
90543W        W62803   8.839  29.908   3.655
90544W        W62804   2.471  39.482  14.461
90545W        W62805  42.604  27.793   0.763
90546W        W62806  18.618  44.702   4.935
90547W        W62807  31.477   6.693   4.775
90548W        W62808  16.793   6.438  14.282
90549W        W62809  32.280   6.396   0.763
90550W        W62810  38.881  34.982   1.370
90551W        W62811  40.733  29.619  11.836
90552W        W62812  28.491  22.648  13.003
90553W        W62813   3.707  40.857   4.906
90554W        W62814   7.601  43.302  10.935
90555W        W62815  14.373  44.377  11.844
90556W        W62816   9.955   6.717   1.300
90557W        W62817  23.432  43.030  14.323
90558W        W62818  18.945  35.848   1.528
90559W        W62819  37.777  38.291  13.830
90560W        W62820  41.367  44.257  11.647
90561W        W62821  38.501   7.744  10.042
90562W        W62822   7.643  44.637  14.067
90563W        W62823   6.477  33.310  13.924
90564W        W62824  10.636  44.473  12.403
90565W        W62825  34.515  39.722  12.496
90566W        W62826  28.882  37.111  13.992
90567W        W62827  24.123  37.424  11.562
90568W        W62828  36.853  25.318  13.905
90569W        W62829  40.274  13.719   1.915
90570W        W62830  20.592   5.790   3.315
90571W        W62831  10.206   6.472  11.466
90572W        W62832  37.252   6.794   2.825
90573W        W62833  44.917  35.083   2.387
90574W        W62834   2.269  17.017   3.607
90575W        W62835  16.566  30.825  11.935
90576W        W62836  29.349  26.073   3.700
90577W        W62837  21.706   9.236   4.213
90578W        W62838  10.140  38.594  11.403
90579W        W62839  43.418  40.922   0.557
90580W        W62840  22.568  32.630   1.419
90581W        W62841  35.899  23.026   2.187
90582W        W62842   2.878   9.773   3.302
90583W        W62843  10.761  15.919   4.603
90584W        W62844  39.097  18.078  10.660
90585W        W62845  35.336  24.244   4.064
90586W        W62846  44.295   2.511  11.935
90587W        W62847  30.985  10.170  14.866
90588W        W62848  33.717  30.583   2.516
90589W        W62849   8.488  32.340  14.959
90590W        W62850  18.984  20.943  11.199
90591W        W62851   0.460  30.889  14.065
90592W        W62852   4.456  20.938  10.220
90593W        W62853  14.137  39.369   4.896
90594W        W62854  43.181  28.952  11.865
90595W        W62855   2.324   9.114   4.004
90596W        W62856   3.422   2.762  12.825
90597W        W62857   9.355  26.496  13.087
90598W        W62858  23.724   1.289   1.748
90599W        W62859  13.822   2.836  13.944
90600W        W62860   1.431  39.805  12.485
90601W        W62861  42.508  20.250  14.953
90602W        W62862   0.975  19.235   2.198
90603W        W62863  34.233   8.747  10.545
90604W        W62864  37.190  14.379   2.895
90605W        W62865   8.655  39.626  13.064
90606W        W62866  32.635  29.577  14.891
90607W        W62867  37.606   6.295   0.542
90608W        W62868  17.177  19.775  12.434
90609W        W62869  28.526   6.686  11.998
90610W        W62870  35.910  21.479  12.492
90611W        W62871   3.743  13.282   1.649
90612W        W62872   8.732   5.245   1.877
90613W        W62873  11.866   7.854   0.595
90614W        W62874  26.662   7.888  14.449
90615W        W62875   3.776   6.490   2.758
90616W        W62876  37.841  25.553   2.960
90617W        W62877  39.123   9.362   3.104
90618W        W62878  40.926  23.130   2.870
90619W        W62879   7.761   4.379   1.301
90620W        W62880   1.809  32.609   1.513
90621W        W62881  28.618   6.224   4.562
90622W        W62882  29.039  36.630  13.745
90623W        W62883  30.495  11.682  11.415
90624W        W62884  28.407  27.247  12.112
90625W        W62885  25.180  34.511  11.475
90626W        W62886  44.010  41.781  11.580
90627W        W62887  28.735   5.928  14.242
90628W        W62888  35.382  26.756  13.539
90629W        W62889  18.232   1.557  11.900
90630W        W62890  33.354  13.230  13.469
90631W        W62891  42.050   7.745  13.027
90632W        W62892  19.170   5.756   5.034
90633W        W62893   4.915  43.248  14.982
90634W        W62894  36.894   2.869  13.486
90635W        W62895  26.109  16.917  12.361
90636W        W62896  34.186  22.621  13.053
90637W        W62897  20.688   5.687  13.076
90638W        W62898  19.026  41.407  11.225
90639W        W62899  33.974  29.440  14.094
90640W        W62900   0.350  21.754  13.540
90641W        W62901  18.812  16.263  12.142
90642W        W62902  15.321   5.361  14.960
90643W        W62903  35.738  32.115   4.606
90644W        W62904  25.502  17.635  14.716
90645W        W62905   7.539  21.934  12.858
90646W        W62906   8.935  38.057   2.794
90647W        W62907  30.661   9.360   2.926
90648W        W62908  41.519   4.875  14.123
90649W        W62909  34.897  27.944  10.806
90650W        W62910  34.225  44.349   0.574
90651W        W62911   6.384  10.426  11.569
90652W        W62912   4.814  21.710   3.206
90653W        W62913  22.927  19.186  11.034
90654W        W62914  35.598   4.485   3.611
90655W        W62915   3.345  25.477  10.755
90656W        W62916  18.682  11.249   2.858
90657W        W62917  43.260  34.818   1.439
90658W        W62918  44.267  33.047  12.662
90659W        W62919  16.476   8.626   2.730
90660W        W62920  32.033  24.479   2.243
90661W        W62921  43.482  30.580   1.751
90662W        W62922  27.069   4.278  10.634
90663W        W62923  14.172  15.648   0.342
90664W        W62924  16.993  11.716   3.622
90665W        W62925  19.571  33.132   1.874
90666W        W62926  28.487  25.221   4.367
90667W        W62927  41.208  21.404  11.662
90668W        W62928  15.576  10.102   0.545
90669W        W62929   1.826   1.018  13.025
90670W        W62930  40.289  22.200  12.809
90671W        W62931  21.191  30.847   4.060
90672W        W62932   6.620  28.948   3.744
90673W        W62933  24.133   1.557  14.859
90674W        W62934  22.588  28.463  11.383
90675W        W62935  42.049  36.453  13.824
90676W        W62936  23.948  13.769  14.406
90677W        W62937  14.837  29.444   5.038
90678W        W62938  10.262  13.819  11.765
90679W        W62939  26.453  31.119   2.726
90680W        W62940  13.692  40.335   0.819
90681W        W62941  37.870  13.281  13.341
90682W        W62942  33.382   0.002  13.822
90683W        W62943  27.996  30.401   3.346
90684W        W62944  23.163  33.439  13.980
90685W        W62945  37.615  30.599  14.102
90686W        W62946  31.849   5.127   2.580
90687W        W62947  33.652  44.126   5.123
90688W        W62948   6.155  27.920  12.392
90689W        W62949  40.631   7.935   0.544
90690W        W62950   3.730  23.185   4.539
90691W        W62951  14.135  34.384  13.332
90692W        W62952  44.282  15.764   2.263
90693W        W62953  42.804  27.005  14.327
90694W        W62954  44.013  42.403  13.235
90695W        W62955  13.681  24.959  12.929
90696W        W62956  36.006  23.816  12.082
90697W        W62957   2.431  40.179  13.950
90698W        W62958  10.214   0.669   0.237
90699W        W62959  42.027  27.201  10.935
90700W        W62960  34.449  11.485   3.054
90701W        W62961  24.288  33.559   2.143
90702W        W62962   1.042  25.761  11.134
90703W        W62963  24.712  34.741  12.533
90704W        W62964  18.557  35.287  13.084
90705W        W62965  44.734   3.351  10.439
90706W        W62966  27.909  36.361   3.771
90707W        W62967  44.940  33.451  13.573
90708W        W62968  37.113  25.194   2.622
90709W        W62969  29.651  42.062   0.881
90710W        W62970  42.961  21.114  14.580
90711W        W62971  14.084  18.180   3.150
90712W        W62972   4.254  36.819   2.327
90713W        W62973  41.986   7.155   2.569
90714W        W62974  20.800  33.986  11.555
90715W        W62975  43.347  44.091  14.852
90716W        W62976  14.291   2.909   2.796
90717W        W62977   5.130   2.769   0.185
90718W        W62978  12.310  35.593   2.421
90719W        W62979  22.105  19.621  10.718
90720W        W62980   1.424  23.630   0.987
90721W        W62981   2.497   0.825   1.132
90722W        W62982  20.943  17.518   3.328
90723W        W62983   9.157  16.531  12.418
90724W        W62984  29.907  27.091   1.177
90725W        W62985  36.909  19.366   4.981
90726W        W62986  37.436  20.019  11.518
90727W        W62987  24.704  39.234  13.503
90728W        W62988  32.650  34.881   4.007
90729W        W62989   8.055  26.029   1.885
90730W        W62990  10.658  17.270   3.424
90731W        W62991   8.954  42.431  13.326
90732W        W62992  43.344   4.382   3.459
90733W        W62993  17.177  32.172  13.037
90734W        W62994  17.370  42.876  14.444
90735W        W62995   0.225  25.098   2.641
90736W        W62996  27.925  28.549   4.605
90737W        W62997  22.560   1.883  11.259
90738W        W62998  10.798  24.712  14.109
90739W        W62999   4.997  28.083  13.301
90740W        W63000   1.373   1.431  10.965
90741W        W63001  16.231  14.240  13.061
90742W        W63002   6.593   3.784  14.469
90743W        W63003  34.001  21.309   2.168
90744W        W63004   2.660  29.575  14.811
90745W        W63005   4.447  33.713   3.316
90746W        W63006  25.494   8.816  10.933
90747W        W63007  17.174  39.315  11.216
90748W        W63008  25.146  43.847   0.408
90749W        W63009  31.134  10.384  12.009
90750W        W63010  18.806  33.017  13.360
90751W        W63011   3.391  17.380  14.050
90752W        W63012  18.809  41.826  11.536
90753W        W63013  38.654  15.868  13.840
90754W        W63014  24.184  18.706  10.519
90755W        W63015  18.148  21.314   4.099
90756W        W63016   7.194   6.509   4.730
90757W        W63017  22.022  42.413   4.663
90758W        W63018  10.073  23.473   0.766
90759W        W63019  42.557  33.630   2.736
90760W        W63020   8.690  32.729   0.805
90761W        W63021  15.469   7.318   2.853
90762W        W63022   9.723  14.108   0.380
90763W        W63023  32.880  21.706  13.447
90764W        W63024  41.046  38.395   4.138
90765W        W63025   8.621  42.949   4.330
90766W        W63026  26.611  18.282  11.095
90767W        W63027  27.023  18.965   2.847
90768W        W63028  22.052   4.444   2.770
90769W        W63029  26.818  26.714   4.599
90770W        W63030  10.940   5.292  10.958
90771W        W63031  22.100   3.973   1.875
90772W        W63032   7.635  15.339  10.779
90773W        W63033  43.239  26.105  13.047
90774W        W63034   7.278  35.280   3.388
90775W        W63035  22.918  29.807   2.345
90776W        W63036   7.585   0.238  10.784
90777W        W63037   9.812  26.575   2.653
90778W        W63038  41.933  12.755  13.026
90779W        W63039  20.100  17.609   1.236
90780W        W63040  18.737   8.732  13.255
90781W        W63041  18.960  13.771  12.434
90782W        W63042  11.053  28.248  13.982
90783W        W63043  20.030   1.025   0.912
90784W        W63044  34.891  26.730   3.079
90785W        W63045  13.568   6.788   3.877
90786W        W63046   5.269  27.677  14.165
90787W        W63047  31.633   5.543  12.430
90788W        W63048  36.945  42.298   4.613
90789W        W63049  38.914  40.736   2.759
90790W        W63050  11.372   9.515  11.211
90791W        W63051  24.149  22.200  11.516
90792W        W63052   7.643  34.337   0.285
90793W        W63053  40.285  21.201  13.114
90794W        W63054  34.917  32.142  12.477
90795W        W63055   4.028   0.377  13.412
90796W        W63056  27.656  44.414  13.302
90797W        W63057   9.503  40.476   0.418
90798W        W63058  22.206   8.301   4.942
90799W        W63059  41.907   5.242   3.643
90800W        W63060  40.820  41.537  14.283
90801W        W63061  31.479  39.521  13.496
90802W        W63062   2.829   6.656  10.715
90803W        W63063  41.498  41.936  11.087
90804W        W63064  23.652  33.582  14.746
90805W        W63065  44.179   2.457   9.927
90806W        W63066  13.886  13.685   4.959
90807W        W63067  30.860  31.537   4.850
90808W        W63068  43.848  20.920   2.366
90809W        W63069  26.134  37.072   1.289
90810W        W63070  19.723  15.193   3.164
90811W        W63071  23.183  42.706   4.116
90812W        W63072  32.854  19.350   3.202
90813W        W63073   9.095  17.948   3.353
90814W        W63074   5.894   6.136  11.958
90815W        W63075  18.029  38.921  11.093
90816W        W63076  10.415  34.947   3.121
90817W        W63077  32.066  14.792   5.429
90818W        W63078  44.887  12.558  13.853
90819W        W63079  14.752  10.943  13.893
90820W        W63080  11.826   0.898  12.591
90821W        W63081  30.792   2.195   3.705
90822W        W63082  40.269  20.235   1.789
90823W        W63083  26.770  24.384  11.155
90824W        W63084  43.789  43.383   2.457
90825W        W63085  24.523  14.269  12.325
90826W        W63086  26.725  32.025  14.701
90827W        W63087  16.056  36.823   0.260
90828W        W63088  14.383  22.102  10.143
90829W        W63089  32.411  29.192   0.953
90830W        W63090  20.309  13.672   3.351
90831W        W63091  10.890  20.530  12.125
90832W        W63092  18.031   1.235  11.535
90833W        W63093  38.552   2.672   1.741
90834W        W63094  40.538  42.386   4.054
90835W        W63095  17.732  11.126   0.876
90836W        W63096  35.387  43.859   0.256
90837W        W63097  41.521  17.398   3.644
90838W        W63098  43.082   8.835   1.237
90839W        W63099  31.082  28.680   3.788
90840W        W63100   5.321  14.861   0.288
90841W        W63101  42.854  32.455   0.373
90842W        W63102  43.017   3.291  11.577
90843W        W63103  40.024   3.797  13.008
90844W        W63104   8.854  34.534  10.656
90845W        W63105  40.800  30.597  13.508
90846W        W63106  39.831  31.675   0.738
90847W        W63107  14.488  32.080   4.454
90848W        W63108   6.472  14.051   2.209
90849W        W63109  21.523   3.976  11.968
90850W        W63110  38.029  16.328  13.384
90851W        W63111  13.135   4.651   0.896
90852W        W63112  42.214   9.192   0.295
90853W        W63113   5.747  17.460   4.845
90854W        W63114  31.478  11.067  12.989
90855W        W63115  17.079   1.708  14.975
90856W        W63116  30.993  26.047  12.132
90857W        W63117   4.411   3.778   1.436
90858W        W63118  41.031  36.364   2.758
90859W        W63119  32.440  32.351  11.368
90860W        W63120  34.944  40.469  10.678
90861W        W63121  11.879  29.503   5.384
90862W        W63122  28.509  14.162   4.353
90863W        W63123  36.590   8.914   4.719
90864W        W63124  38.191  21.267   3.720
90865W        W63125  39.242  30.610  13.054
90866W        W63126  29.201   2.709   0.919
90867W        W63127  37.576   9.874   5.565
90868W        W63128   0.868  14.121   0.882
90869W        W63129  18.920  42.268  13.102
90870W        W63130  38.387  22.468   1.221
90871W        W63131   3.902  17.203  11.947
90872W        W63132  28.420  11.601   0.064
90873W        W63133  37.840  32.133   3.680
90874W        W63134   3.901   2.314   4.591
90875W        W63135   9.775  20.262   4.729
90876W        W63136  11.093  24.220   2.242
90877W        W63137  16.838  29.384   1.685
90878W        W63138  36.120  28.449  13.447
90879W        W63139  19.137  17.139  14.434
90880W        W63140   8.241  16.551  10.784
90881W        W63141   2.774   7.351   0.380
90882W        W63142  23.647  22.697   4.709
90883W        W63143  27.149  14.785  14.991
90884W        W63144  36.151   9.136   4.560
90885W        W63145  17.710  24.305  11.027
90886W        W63146  43.062  24.414  14.369
90887W        W63147  25.723  10.727   0.745
90888W        W63148  32.594  14.105   3.151
90889W        W63149  15.304   3.882  14.838
90890W        W63150  38.028  24.654  11.882
90891W        W63151  24.512  14.068   4.159
90892W        W63152  15.251  36.118   1.614
90893W        W63153   9.759  13.617   3.562
90894W        W63154  17.859   7.383  14.846
90895W        W63155   2.207  32.974  12.454
90896W        W63156  35.194  19.678   2.433
90897W        W63157  43.900  33.740  12.312
90898W        W63158  22.166  29.016   3.918
90899W        W63159  21.803  17.187   1.850
90900W        W63160  10.675  17.120   1.885
90901W        W63161  35.501  13.208   1.647
90902W        W63162   0.261   4.410  13.793
90903W        W63163   2.681  16.622   2.439
90904W        W63164  31.548  24.065   2.519
90905W        W63165  11.471  32.628  11.476
90906W        W63166  11.050   3.417   0.381
90907W        W63167   4.381  39.671   0.326
90908W        W63168   1.859  24.242   1.517
90909W        W63169  43.277  28.502   1.361
90910W        W63170   2.365  18.717  11.536
90911W        W63171   9.908  11.661   0.935
90912W        W63172  31.685  24.178   0.541
90913W        W63173  42.355  29.962  13.017
90914W        W63174  30.453   4.662  10.634
90915W        W63175  39.535  18.105  14.890
90916W        W63176  18.744  44.973   0.437
90917W        W63177  39.246   0.058  13.101
90918W        W63178  37.305  23.650   3.646
90919W        W63179  39.916  17.676  12.604
90920W        W63180  43.189  33.708  11.359
90921W        W63181  44.087  11.527  12.965
90922W        W63182  32.004  13.189  14.732
90923W        W63183   8.524  20.034  13.398
90924W        W63184  36.580   6.157  11.177
90925W        W63185  21.093  12.292  10.640
90926W        W63186  11.862  37.160  12.422
90927W        W63187  32.015  23.768   0.559
90928W        W63188  32.725  16.885  11.632
90929W        W63189   9.477  42.735   4.187
90930W        W63190   9.701   4.705   2.308
90931W        W63191  15.099  32.002  12.293
90932W        W63192  13.112  43.719   3.197
90933W        W63193  40.955  22.907   4.099
90934W        W63194  28.387  26.000   0.276
90935W        W63195   8.535  40.288  12.525
90936W        W63196  26.178  18.629   3.763
90937W        W63197  39.565  12.655   0.963
90938W        W63198  39.979  27.585   4.076
90939W        W63199  27.605  41.187  10.149
90940W        W63200   8.896  21.265  12.682
90941W        W63201  19.834  27.026   4.547
90942W        W63202   4.162  20.806   3.648
90943W        W63203  31.285  31.694   5.094
90944W        W63204  35.599   5.393  12.063
90945W        W63205  14.264   0.122  14.368
90946W        W63206  39.076  44.485   4.225
90947W        W63207  36.917  10.573   0.397
90948W        W63208  36.129  34.908  12.901
90949W        W63209  39.320  37.413  13.336
90950W        W63210  27.040  27.651   1.241
90951W        W63211  39.030  33.523  13.272
90952W        W63212   8.991  11.400   4.686
90953W        W63213   3.647  30.566  12.327
90954W        W63214   6.416  21.261  12.876
90955W        W63215  42.513  34.856   4.545
90956W        W63216  23.794  32.412   4.513
90957W        W63217  17.266  33.420   2.814
90958W        W63218  14.644  31.127   4.156
90959W        W63219  25.677  19.083  13.385
90960W        W63220  18.613  19.204   3.792
90961W        W63221  43.273  40.315   1.923
90962W        W63222  43.794  36.159   2.545
90963W        W63223  23.240  22.593  12.849
90964W        W63224   4.311  10.778   3.675
90965W        W63225  11.873  14.691   3.801
90966W        W63226   2.222  15.171  14.793
90967W        W63227  10.165  30.423   1.098
90968W        W63228  41.072  26.593   1.646
90969W        W63229  24.108  23.895   1.698
90970W        W63230  39.376  21.093   3.575
90971W        W63231  38.861  26.511   0.103
90972W        W63232  40.139   0.625  11.386
90973W        W63233  30.071  15.568  11.469
90974W        W63234  27.974   5.174  10.565
90975W        W63235   6.793  43.653  11.130
90976W        W63236  25.419  26.833  14.369
90977W        W63237  23.100  28.162  14.938
90978W        W63238   4.212  24.613  12.461
90979W        W63239  32.233  37.129  13.027
90980W        W63240  20.357   1.386   0.713
90981W        W63241   2.834  12.126  13.275
90982W        W63242   9.511  26.885  12.185
90983W        W63243  35.613  11.406  13.922
90984W        W63244  32.451  39.940  11.099
90985W        W63245  32.100  17.798   3.699
90986W        W63246   8.762  18.556  12.554
90987W        W63247  34.320  33.842   1.000
90988W        W63248   0.967  18.781   1.946
90989W        W63249   0.394  20.128  14.357
90990W        W63250   2.288  20.228   1.635
90991W        W63251  30.194  10.452  14.238
90992W        W63252  14.329  39.435   4.399
90993W        W63253  18.773  20.602   1.705
90994W        W63254  11.055  36.664   3.655
90995W        W63255  43.786  13.270  12.896
90996W        W63256  38.048  27.062  12.188
90997W        W63257  19.139   4.293  12.862
90998W        W63258  33.669  44.159  12.904
90999W        W63259   5.402   7.800   1.567
91000W        W63260  38.875  24.293   1.527
91001W        W63261  14.374   5.216  14.523
91002W        W63262  35.990  34.509   0.055
91003W        W63263   3.440  30.821   0.878
91004W        W63264  30.097   3.809  12.572
91005W        W63265  16.826   6.037   3.152
91006W        W63266  25.277   8.290   0.493
91007W        W63267  31.707   4.332  14.777
91008W        W63268  23.146  34.186  14.985
91009W        W63269  19.691  44.140  11.670
91010W        W63270  32.099   8.914   4.609
91011W        W63271  14.831   2.945   3.761
91012W        W63272  25.510  37.305   3.290
91013W        W63273  25.995   9.421   0.505
91014W        W63274  10.605  31.307  11.165
91015W        W63275  26.059   1.882   3.183
91016W        W63276  40.215  29.131   1.118
91017W        W63277  16.384  43.985   1.778
91018W        W63278  23.488  42.948   1.558
91019W        W63279  33.549  35.513  12.117
91020W        W63280  14.797  12.597  13.020
91021W        W63281  11.247  34.512   0.380
91022W        W63282  15.287  43.013  11.139
91023W        W63283  13.405  16.724  10.196
91024W        W63284  44.918  39.898  13.792
91025W        W63285  11.874  18.137   3.237
91026W        W63286  40.291  12.288  12.863
91027W        W63287   3.949  19.046   4.210
91028W        W63288  36.514  44.552  14.481
91029W        W63289   5.404  11.680  12.022
91030W        W63290  24.173   0.991   4.760
91031W        W63291   5.171   0.245  13.064
91032W        W63292  31.921   8.302   1.872
91033W        W63293  13.699  26.653   1.677
91034W        W63294  34.954  16.498   0.121
91035W        W63295  37.552   5.352  14.240
91036W        W63296  25.041  20.782  12.122
91037W        W63297  31.646  12.736  11.985
91038W        W63298  30.933   5.749  12.959
91039W        W63299  37.114  26.550  12.570
91040W        W63300  36.294  22.867   1.903
91041W        W63301  14.492   5.896   3.299
91042W        W63302   5.714  41.088   1.700
91043W        W63303  37.279  11.560   3.577
91044W        W63304  28.505  44.953  13.317
91045W        W63305  16.211  11.215  14.763
91046W        W63306  31.484  13.299  14.879
91047W        W63307  30.515   9.630   2.327
91048W        W63308  43.000  22.930  11.054
91049W        W63309  19.844   0.545  11.043
91050W        W63310  16.712  12.848  12.002
91051W        W63311  35.756  31.124  11.990
91052W        W63312  37.069  36.731   2.632
91053W        W63313  42.322  17.224  10.635
91054W        W63314  24.833   3.961  12.419
91055W        W63315  16.182  41.817  14.346
91056W        W63316  33.580   8.670   2.670
91057W        W63317  16.286  35.463  12.626
91058W        W63318  21.940  36.936  12.574
91059W        W63319  18.261  27.589  13.207
91060W        W63320  42.292  22.318  10.643
91061W        W63321  33.090  24.619   4.246
91062W        W63322  22.289  21.067   0.989
91063W        W63323  14.413   3.009   0.086
91064W        W63324   0.840   5.738  12.112
91065W        W63325  40.429  22.797   3.649
91066W        W63326  36.459   3.383   3.124
91067W        W63327   6.543  44.574  13.767
91068W        W63328  42.423  29.198   0.433
91069W        W63329  28.051  30.427   9.770
91070W        W63330   3.816  30.727  14.901
91071W        W63331   5.891   6.757   1.706
91072W        W63332  35.837   2.715  12.970
91073W        W63333   0.509  19.448   2.242
91074W        W63334  42.338   4.767  13.531
91075W        W63335  29.937  34.077  12.704
91076W        W63336  40.886  15.307  11.708
91077W        W63337   8.359  39.041   3.266
91078W        W63338  28.414  43.900  11.237
91079W        W63339  41.972  16.156  13.489
91080W        W63340   5.878   5.457   2.028
91081W        W63341  34.499  22.746  10.711
91082W        W63342  31.153  18.272  12.782
91083W        W63343  44.329  44.547  14.147
91084W        W63344   7.579   3.240  11.338
91085W        W63345  36.641  18.016  12.890
91086W        W63346  44.693   2.450   4.239
91087W        W63347   3.684  43.728   3.171
91088W        W63348  36.817  18.851  14.837
91089W        W63349  41.023   5.705  14.585
91090W        W63350  31.517  26.159   4.885
91091W        W63351  32.617  27.421   0.969
91092W        W63352  39.851   3.681  13.502
91093W        W63353  12.759   3.052  12.587
91094W        W63354  19.135  37.060   0.402
91095W        W63355  16.240   4.349  10.582
91096W        W63356  32.002  22.130  13.088
91097W        W63357  16.709  18.556   2.654
91098W        W63358  11.789  32.303   1.482
91099W        W63359   6.290  41.939  12.155
91100W        W63360  18.172  23.802  14.404
91101W        W63361  32.906  41.248   1.732
91102W        W63362  19.639  15.656   1.367
91103W        W63363  19.755   3.344  13.570
91104W        W63364  36.511  25.400   3.175
91105W        W63365  14.766  19.534   2.182
91106W        W63366  29.253  11.026  13.583
91107W        W63367  43.579  20.508   0.416
91108W        W63368  32.837  18.121  14.855
91109W        W63369  10.796  13.184  12.697
91110W        W63370  19.764  44.790   4.630
91111W        W63371  23.330   3.757   2.937
91112W        W63372  34.439   5.355   2.373
91113W        W63373  24.925  13.408  14.008
91114W        W63374   2.276  36.883  10.758
91115W        W63375  32.657  31.327   0.387
91116W        W63376   0.132  44.181  11.401
91117W        W63377  17.362   8.892   0.216
91118W        W63378  37.499  22.161  13.928
91119W        W63379  18.430  13.422   2.392
91120W        W63380  23.557  39.989  10.359
91121W        W63381  34.077  21.063   2.596
91122W        W63382  17.833  42.823   0.714
91123W        W63383  38.953  12.085  13.522
91124W        W63384  21.233  35.553   4.052
91125W        W63385   9.535  35.055   4.515
91126W        W63386  15.554  27.662   1.368
91127W        W63387  32.343   1.321  12.520
91128W        W63388  41.232  19.887   5.190
91129W        W63389  12.312  16.125  11.105
91130W        W63390  24.893  18.680  11.194
91131W        W63391  16.305  41.597   2.879
91132W        W63392  27.910  13.632  14.334
91133W        W63393  34.981   6.096  12.026
91134W        W63394  41.880  23.121  10.879
91135W        W63395  25.614   5.761   0.955
91136W        W63396  36.505  21.204  11.931
91137W        W63397  44.534  41.444  11.091
91138W        W63398  13.157  12.678   1.714
91139W        W63399   1.834  22.779  11.150
91140W        W63400  29.911  17.303   0.282
91141W        W63401  21.469  14.030  11.955
91142W        W63402  20.575   1.268  14.715
91143W        W63403  14.796  35.942  10.393
91144W        W63404  44.718  29.495   0.247
91145W        W63405  37.865  24.534   2.714
91146W        W63406   6.176  39.503   1.834
91147W        W63407  33.616  13.699  13.021
91148W        W63408  19.693  44.850   3.114
91149W        W63409  12.202   6.965   3.665
91150W        W63410  39.855  14.215  10.734
91151W        W63411  29.531  16.380  10.755
91152W        W63412  36.592  30.381   5.140
91153W        W63413  10.280   1.392  10.850
91154W        W63414   0.831   1.836   4.031
91155W        W63415  22.853  16.517   4.205
91156W        W63416  41.839  40.107  12.159
91157W        W63417  10.256   6.751   0.695
91158W        W63418  29.619  43.421   2.442
91159W        W63419  28.254  33.183   0.323
91160W        W63420  14.327  23.176   3.232
91161W        W63421  14.849  41.856  11.972
91162W        W63422   5.804  18.382  11.819
91163W        W63423  22.389  22.842   2.305
91164W        W63424  30.762  42.537   1.220
91165W        W63425   5.685  25.208   3.237
91166W        W63426  10.898  10.946  11.620
91167W        W63427  10.868  15.217  12.201
91168W        W63428   5.475  24.957   3.647
91169W        W63429  28.853   4.973  12.079
91170W        W63430  20.234  23.504  14.786
91171W        W63431  11.860  17.221   2.826
91172W        W63432  37.635  19.015   2.803
91173W        W63433   3.138  37.076  11.514
91174W        W63434   3.135  42.749  14.479
91175W        W63435  36.953  42.052  13.357
91176W        W63436   4.672   3.991  14.972
91177W        W63437  29.731  22.205   0.167
91178W        W63438  17.368  26.119   0.868
91179W        W63439  42.118  21.237  12.483
91180W        W63440   5.186  11.982  12.383
91181W        W63441  15.631  29.164  10.339
91182W        W63442  16.790  18.097  13.092
91183W        W63443   6.782   8.352   3.510
91184W        W63444   2.814  21.668   0.441
91185W        W63445  37.084  37.544   2.309
91186W        W63446  37.772  10.426  10.545
91187W        W63447  15.688  17.849   1.190
91188W        W63448  37.334   4.390   3.571
91189W        W63449  10.713   4.831  11.213
91190W        W63450  33.613  43.865  13.407
91191W        W63451  34.571  11.383  13.954
91192W        W63452  37.296   6.341   4.597
91193W        W63453  35.382  23.861  13.602
91194W        W63454   5.426  44.007  13.370
91195W        W63455   4.491  15.345   0.436
91196W        W63456  23.449  43.456   1.762
91197W        W63457  31.865  16.794  12.019
91198W        W63458  40.289  36.058   4.594
91199W        W63459   3.935  25.485  12.383
91200W        W63460  34.750  32.547   2.192
91201W        W63461  40.049  29.806  11.183
91202W        W63462  17.301  44.831   4.771
91203W        W63463  10.616  38.945   3.624
91204W        W63464  18.188  15.571  11.007
91205W        W63465  14.509   9.800   0.923
91206W        W63466   7.209   7.186   1.800
91207W        W63467   5.850  37.304   1.254
91208W        W63468  31.078  35.977   0.311
91209W        W63469  23.935  23.981   1.216
91210W        W63470   2.854   9.696  14.754
91211W        W63471  12.660   8.898  14.506
91212W        W63472  38.284  11.422   4.241
91213W        W63473  29.733  22.941  13.010
91214W        W63474  11.220  24.188   1.724
91215W        W63475  33.070   6.510   1.498
91216W        W63476  28.333  32.657  10.025
91217W        W63477  11.391   7.817   0.368
91218W        W63478  37.270  39.507  12.819
91219W        W63479  22.672  38.898   3.685
91220W        W63480   1.974  28.597  12.029
91221W        W63481   8.152  22.765   4.834
91222W        W63482   5.378  43.896   1.964
91223W        W63483  27.159  38.985   1.412
91224W        W63484  42.629  17.668  10.749
91225W        W63485  23.754  21.119   3.153
91226W        W63486  16.566  16.716  14.995
91227W        W63487   8.746  29.688  12.579
91228W        W63488   7.879  16.814  11.669
91229W        W63489  24.201  38.946  10.602
91230W        W63490  24.024  13.587  12.350
91231W        W63491  11.153  34.420   1.958
91232W        W63492  44.220  11.816   3.254
91233W        W63493   9.149   8.370  13.781
91234W        W63494  19.761   6.297  14.958
91235W        W63495  11.397   9.447   3.052
91236W        W63496   2.942   1.067   2.408
91237W        W63497  35.469  44.013   4.742
91238W        W63498  27.734  30.159  10.673
91239W        W63499  28.460   3.836  13.746
91240W        W63500  12.792   6.783  13.360
91241W        W63501  23.695  34.625  10.764
91242W        W63502   6.863  41.623   3.148
91243W        W63503  21.955  35.911  10.674
91244W        W63504  42.259   0.484   1.327
91245W        W63505  34.516  23.418  14.956
91246W        W63506  24.094   0.291  10.709
91247W        W63507  41.025  13.231   1.867
91248W        W63508  30.918   0.430   0.770
91249W        W63509  35.051  35.372   0.516
91250W        W63510  27.747   3.037   2.691
91251W        W63511  43.221  40.218  13.214
91252W        W63512   2.301  43.941  12.428
91253W        W63513  31.004  39.478  12.775
91254W        W63514  24.483  43.858  11.405
91255W        W63515  19.318  21.114  14.364
91256W        W63516   0.398   9.745  12.207
91257W        W63517  12.186  38.660   1.230
91258W        W63518  38.932  37.972   3.052
91259W        W63519  13.208  19.997   4.031
91260W        W63520  31.749  29.370  12.745
91261W        W63521  26.269  26.479  11.161
91262W        W63522   3.495  29.167  12.372
91263W        W63523   5.436   1.375   0.791
91264W        W63524  22.148  26.227  11.490
91265W        W63525   1.256  42.856   3.679
91266W        W63526  14.179  27.425  14.814
91267W        W63527  27.734  13.186  12.859
91268W        W63528  23.574  39.059   3.704
91269W        W63529  44.579  11.883   4.211
91270W        W63530   1.941   5.967  10.719
91271W        W63531  21.282   3.489  10.822
91272W        W63532  21.935   8.414  13.976
91273W        W63533   0.480  20.551  10.712
91274W        W63534  43.002  15.169  14.433
91275W        W63535   4.514   0.134   4.769
91276W        W63536  32.916  24.682  11.966
91277W        W63537  41.964  40.013  10.711
91278W        W63538  34.894   2.665   2.748
91279W        W63539  18.786  43.429   0.844
91280W        W63540  33.100  27.572   2.604
91281W        W63541  43.996  38.972   1.411
91282W        W63542  36.552   2.838   3.308
91283W        W63543  41.927   4.660  12.866
91284W        W63544  31.997  32.782  10.131
91285W        W63545  26.640  34.559   2.743
91286W        W63546  31.328  16.995  14.338
91287W        W63547  23.795   4.201   2.240
91288W        W63548  16.067  21.758   4.157
91289W        W63549   3.258  34.599  10.764
91290W        W63550  28.670  19.505   0.006
91291W        W63551  13.664   4.590  10.129
91292W        W63552   1.170  19.826   1.045
91293W        W63553   6.209   8.403   0.381
91294W        W63554  19.435  32.554  11.768
91295W        W63555  30.514   9.643  12.694
91296W        W63556  24.494  27.041  11.532
91297W        W63557  32.330  18.235  11.135
91298W        W63558  19.464  33.051  11.487
91299W        W63559  25.988   0.930  14.919
91300W        W63560  21.196  25.981  13.242
91301W        W63561  20.757  29.226  12.599
91302W        W63562   8.746  19.074  12.523
91303W        W63563  12.285   1.352   1.750
91304W        W63564   2.739  22.742   0.078
91305W        W63565  36.493   9.297  13.856
91306W        W63566   2.994  30.895  11.044
91307W        W63567  13.544  13.740   2.905
91308W        W63568  33.940  11.233  11.479
91309W        W63569  27.673  23.102   2.199
91310W        W63570  36.504  11.124  12.288
91311W        W63571   0.503  19.941   0.282
91312W        W63572  42.939  37.946   4.641
91313W        W63573  16.557  33.809  14.700
91314W        W63574  37.630  24.722  10.710
91315W        W63575  31.375   9.122   4.198
91316W        W63576  35.549  32.447   0.488
91317W        W63577  14.195  42.752   0.019
91318W        W63578  43.535  18.134  10.747
91319W        W63579  17.061  16.715   2.340
91320W        W63580  42.431   0.716  13.701
91321W        W63581   7.896  11.751   4.522
91322W        W63582  17.778  40.030  10.685
91323W        W63583  33.455  38.016   1.752
91324W        W63584  16.338  36.387   4.539
91325W        W63585  27.084  19.944  10.624
91326W        W63586  41.377  17.523  13.256
91327W        W63587   7.669  11.025   4.211
91328W        W63588  43.011   5.816   2.233
91329W        W63589  21.138  41.492   2.266
91330W        W63590  30.085   2.315   3.540
91331W        W63591  31.625  10.156   3.577
91332W        W63592  15.280  22.297   3.586
91333W        W63593  40.305   1.497   2.611
91334W        W63594  11.547  44.801   4.462
91335W        W63595  21.062  19.567  11.752
91336W        W63596  14.128  40.433   2.833
91337W        W63597  34.886  38.781   4.564
91338W        W63598  28.915  11.902  12.000
91339W        W63599   2.439  28.115   0.279
91340W        W63600  42.335   5.654   0.046
91341W        W63601  27.685  23.052   3.111
91342W        W63602  41.093  30.506  10.699
91343W        W63603  14.872   9.113   3.288
91344W        W63604  32.844  10.368  12.460
91345W        W63605  33.923   8.260   2.811
91346W        W63606  23.714  42.771  11.068
91347W        W63607   9.821  30.553   0.193
91348W        W63608  33.084   0.986  13.255
91349W        W63609  31.118  20.288  14.126
91350W        W63610  19.024  16.620  13.494
91351W        W63611  22.535  12.787  14.833
91352W        W63612  38.096   9.275   4.532
91353W        W63613  39.410  29.348  14.199
91354W        W63614  38.297  44.111   1.875
91355W        W63615  28.406  32.962   2.247
91356W        W63616  17.379  19.495  12.014
91357W        W63617  11.831  43.179  14.738
91358W        W63618   9.132  35.762  11.523
91359W        W63619   8.201  19.308  14.998
91360W        W63620   1.204  18.301  13.531
91361W        W63621  37.967  18.223  10.391
91362W        W63622  18.193  44.898   2.477
91363W        W63623  10.849  13.133   3.683
91364W        W63624  30.539   0.289   4.729
91365W        W63625   1.641  18.087   3.702
91366W        W63626  37.480  39.639  14.478
91367W        W63627  23.942  10.361  11.976
91368W        W63628  16.264  38.445  11.953
91369W        W63629  20.391  24.348   1.167
91370W        W63630  28.596  37.598   3.190
91371W        W63631  36.804  14.165   3.677
91372W        W63632   6.148  37.433  10.132
91373W        W63633  22.764   7.733   0.277
91374W        W63634  31.770   5.348  14.883
91375W        W63635  31.411  20.663  11.533
91376W        W63636  37.822  28.418   1.404
91377W        W63637   6.813   7.942   0.850
91378W        W63638  23.573  31.516  12.817
91379W        W63639  11.702  12.750   3.716
91380W        W63640  36.507  24.899   3.278
91381W        W63641   3.343  11.359   1.652
91382W        W63642   4.730  22.882   1.884
91383W        W63643  20.259  11.151   2.832
91384W        W63644  30.202  34.350   1.311
91385W        W63645   8.147  44.373  14.773
91386W        W63646  26.521  21.947   3.916
91387W        W63647  41.486  38.731   1.652
91388W        W63648  13.505  37.021  13.614
91389W        W63649  12.243  15.648  10.979
91390W        W63650  42.667  21.538   4.693
91391W        W63651  28.482  44.808  11.680
91392W        W63652  33.068  37.476  11.119
91393W        W63653   9.741   4.716  11.160
91394W        W63654  10.752  15.896   2.690
91395W        W63655  37.065  17.144   0.377
91396W        W63656  30.479  42.906  14.629
91397W        W63657  21.268   2.845  13.824
91398W        W63658  12.302  11.140   4.409
91399W        W63659  32.014   1.771  11.938
91400W        W63660   3.296  44.902   0.033
91401W        W63661   5.997  17.179   2.325
91402W        W63662  16.219  32.198   3.346
91403W        W63663  42.524  44.723  12.141
91404W        W63664  36.442  43.183  13.018
91405W        W63665  13.221   0.723  13.483
91406W        W63666  34.665  33.818  14.271
91407W        W63667   2.385   5.241  10.816
91408W        W63668  25.581  31.511   2.125
91409W        W63669  43.322  36.040  12.067
91410W        W63670  43.359  13.623  13.254
91411W        W63671  41.251  32.488  14.386
91412W        W63672  39.911  15.146  13.659
91413W        W63673  37.824  10.264   0.458
91414W        W63674  13.760  30.724  11.513
91415W        W63675  41.535  13.866   1.511
91416W        W63676  18.564   4.677   1.443
91417W        W63677  29.133  23.333  12.647
91418W        W63678   3.150  20.325  11.057
91419W        W63679  17.679  16.291   4.505
91420W        W63680   0.265   4.780   0.419
91421W        W63681  27.209   9.288   0.913
91422W        W63682   3.895   6.670  11.449
91423W        W63683  35.445   6.828  11.441
91424W        W63684   0.260  10.355  13.762
91425W        W63685  17.520   1.823   1.803
91426W        W63686  20.154  32.153   4.526
91427W        W63687  29.150  37.029   2.615
91428W        W63688  12.441   0.776   2.807
91429W        W63689  28.558  20.708  12.431
91430W        W63690  29.165  33.617   5.321
91431W        W63691  17.281  44.353  11.979
91432W        W63692  34.356  33.823   3.738
91433W        W63693   2.730   5.391  13.061
91434W        W63694  40.279   5.236  11.096
91435W        W63695  14.666  40.973  13.810
91436W        W63696  20.826  20.841  13.147
91437W        W63697  20.754  27.607  14.798
91438W        W63698   3.976   8.961   4.121
91439W        W63699  25.930   3.362  12.379
91440W        W63700  28.247  29.060   3.748
91441W        W63701  30.961  29.632   1.260
91442W        W63702   8.649  28.244  13.751
91443W        W63703  25.782  26.576  10.123
91444W        W63704  37.525  44.377  10.628
91445W        W63705   8.410  13.877   0.304
91446W        W63706  27.258  15.163  13.771
91447W        W63707  31.417   4.617   1.446
91448W        W63708  16.733  40.894  13.970
91449W        W63709  26.662   3.762   2.652
91450W        W63710  37.901  10.711   9.349
91451W        W63711   7.707   2.831  14.814
91452W        W63712   9.296  44.506   4.687
91453W        W63713  43.884  14.049   0.901
91454W        W63714  38.828  32.963   4.761
91455W        W63715  39.750   9.239   1.763
91456W        W63716  16.167  21.606  13.998
91457W        W63717   4.856  24.260   4.144
91458W        W63718   7.490  29.064   3.251
91459W        W63719  42.772  44.311  11.971
91460W        W63720  13.105  19.801  11.074
91461W        W63721  24.020  38.225   0.999
91462W        W63722   8.827  20.202  10.718
91463W        W63723  14.672   3.767  14.316
91464W        W63724  23.963  33.611  12.540
91465W        W63725  21.182  44.942   3.169
91466W        W63726  17.596  21.036   2.492
91467W        W63727   0.679   6.798   1.420
91468W        W63728  31.963  11.808   1.772
91469W        W63729  11.688   9.850   0.662
91470W        W63730  27.692   0.978  11.684
91471W        W63731  18.727   9.493  12.746
91472W        W63732  21.834  44.908  10.699
91473W        W63733  42.016  11.631  10.412
91474W        W63734  11.469  24.602   1.927
91475W        W63735   6.325   7.288   3.626
91476W        W63736  33.410   3.006   1.707
91477W        W63737  34.872  42.740  14.402
91478W        W63738   2.313  21.600   3.452
91479W        W63739  15.249  25.144   4.553
91480W        W63740  43.685  44.955   3.613
91481W        W63741  43.011   2.378   1.777
91482W        W63742  12.739   8.280   0.744
91483W        W63743  29.029   0.677  14.925
91484W        W63744  27.052   3.892  12.179
91485W        W63745  37.452  13.333   1.112
91486W        W63746  19.996   6.425  14.501
91487W        W63747   6.531   9.402   0.203
91488W        W63748  16.827  44.267  14.251
91489W        W63749   4.859  27.690   1.019
91490W        W63750  12.726  36.881   1.212
91491W        W63751  17.094  23.989  10.196
91492W        W63752  33.569  28.568   2.142
91493W        W63753  21.672  22.990  11.673
91494W        W63754  27.022  13.590   2.661
91495W        W63755  16.927  40.415   1.267
91496W        W63756   4.767  40.450  11.435
91497W        W63757  29.190   0.481  12.592
91498W        W63758  35.976  36.777  12.243
91499W        W63759  32.042  19.235  12.937
91500W        W63760  32.395  19.964  10.395
91501W        W63761  34.466  41.288  13.485
91502W        W63762  31.095  17.125   3.939
91503W        W63763  27.550   1.997   4.670
91504W        W63764  31.089   7.522  14.925
91505W        W63765  21.987   1.718  12.872
91506W        W63766  11.241   9.371   4.601
91507W        W63767  22.231   5.546  11.939
91508W        W63768  41.640  18.567   4.231
91509W        W63769   1.454  40.487  10.787
91510W        W63770  31.547  34.590   4.631
91511W        W63771  41.206   8.839  11.176
91512W        W63772  18.684   2.956   3.945
91513W        W63773   3.529  34.312  14.775
91514W        W63774  25.618  26.397   1.356
91515W        W63775  16.217  14.116  12.433
91516W        W63776  38.055  41.572   2.215
91517W        W63777  18.594  14.109  10.676
91518W        W63778  20.045  20.653  14.255
91519W        W63779  33.569  24.427  14.027
91520W        W63780  11.758  16.957  13.170
91521W        W63781   6.118   2.178  11.937
91522W        W63782  33.314  33.468  11.900
91523W        W63783  10.085  22.207  13.047
91524W        W63784  18.889  14.289   3.480
91525W        W63785  36.343  28.164  10.666
91526W        W63786  25.380   9.638   1.045
91527W        W63787  35.329  14.138   4.206
91528W        W63788  31.933  10.554   3.328
91529W        W63789  38.715   9.034  12.206
91530W        W63790  32.396  25.845   4.450
91531W        W63791   4.718   8.709   3.124
91532W        W63792   8.481  10.418   2.335
91533W        W63793  44.448  36.670  11.538
91534W        W63794  34.079  40.851  10.544
91535W        W63795   8.153  43.351  11.338
91536W        W63796  42.554   8.435  11.076
91537W        W63797   9.746  37.128   3.186
91538W        W63798  10.038  19.595   2.023
91539W        W63799  31.796  33.255  13.458
91540W        W63800   2.225   8.768   0.647
91541W        W63801  18.300  41.976  11.588
91542W        W63802  23.572   8.523   2.827
91543W        W63803  20.315   8.040   5.474
91544W        W63804  16.017  41.151   5.358
91545W        W63805  29.974  42.231   3.160
91546W        W63806   8.175  16.886   2.749
91547W        W63807   7.317  16.244  14.341
91548W        W63808  28.217   1.331  10.633
91549W        W63809   6.300  39.759  11.436
91550W        W63810  22.213  25.730  14.337
91551W        W63811   6.137  34.538  13.583
91552W        W63812  42.464   7.790   4.787
91553W        W63813   7.958  27.943   5.513
91554W        W63814   5.661  44.928  11.473
91555W        W63815  35.944  14.389  12.442
91556W        W63816  27.008  19.400  14.745
91557W        W63817  10.668   1.221   1.846
91558W        W63818  17.385  40.814  11.760
91559W        W63819  42.321   7.297   0.340
91560W        W63820  40.860  11.447   2.293
91561W        W63821  32.161   1.841   2.474
91562W        W63822  11.361  31.650  14.375
91563W        W63823  31.407   5.722   4.661
91564W        W63824  13.051  43.619  13.855
91565W        W63825   9.134  38.395  13.396
91566W        W63826  43.416  17.599   0.864
91567W        W63827  43.540  18.112   0.942
91568W        W63828  30.670   5.947   4.276
91569W        W63829  39.037  34.519  11.983
91570W        W63830  14.200  18.753   2.373
91571W        W63831  44.721  37.545  10.542
91572W        W63832  43.225  22.282  13.060
91573W        W63833  22.579  11.190  12.645
91574W        W63834  37.306  21.953  11.105
91575W        W63835  31.848  34.408  11.095
91576W        W63836  28.165  13.820  12.094
91577W        W63837  44.857   0.760   2.387
91578W        W63838  33.359  21.430   1.755
91579W        W63839  31.631  13.813  14.799
91580W        W63840  37.005   2.263   4.317
91581W        W63841  21.588  40.046   0.523
91582W        W63842   3.026  26.958   3.301
91583W        W63843  31.373  36.054  14.884
91584W        W63844  10.238  35.693  10.604
91585W        W63845  22.553  39.299  10.831
91586W        W63846  44.050   9.902   2.363
91587W        W63847   7.389  10.293  12.031
91588W        W63848  33.452  23.125  13.202
91589W        W63849   0.431  22.625  12.952
91590W        W63850  43.821  27.542  12.969
91591W        W63851  36.421  34.928   2.002
91592W        W63852  33.154  39.374  11.166
91593W        W63853  26.474   0.517   3.382
91594W        W63854  34.342  11.667  12.048
91595W        W63855  17.583  13.911   3.118
91596W        W63856  41.661   1.425  10.429
91597W        W63857   1.000  23.114  11.147
91598W        W63858  36.063   3.484  13.395
91599W        W63859  35.995  41.427  13.090
91600W        W63860  38.404  27.429  10.693
91601W        W63861   9.016   3.839   4.757
91602W        W63862  18.648  36.279   2.568
91603W        W63863  14.592   5.336   0.800
91604W        W63864  36.803   1.336   3.291
91605W        W63865  10.125  13.808  10.887
91606W        W63866  13.083   3.791  14.351
91607W        W63867  32.076  14.243   2.182
91608W        W63868  41.650  42.978  13.523
91609W        W63869  25.764   4.450  13.947
91610W        W63870  13.896  20.594   2.376
91611W        W63871   5.059  13.756   1.814
91612W        W63872   0.722   7.181   1.757
91613W        W63873  17.113   0.424  14.948
91614W        W63874  33.485  28.965  11.497
91615W        W63875   1.011  35.092  10.620
91616W        W63876  12.069  44.949   2.582
91617W        W63877   4.217  35.908  11.545
91618W        W63878  11.292  18.783   3.159
91619W        W63879  43.864  18.422   4.648
91620W        W63880  38.820  39.368  12.022
91621W        W63881  30.053   0.109  14.790
91622W        W63882  22.407   4.186  11.968
91623W        W63883  18.895  40.908  14.351
91624W        W63884   7.411  16.071   3.828
91625W        W63885  43.738  26.186  13.888
91626W        W63886  20.920  39.269   4.328
91627W        W63887  19.670  44.905  10.939
91628W        W63888  38.024  14.531  11.585
91629W        W63889   8.796  25.421   3.684
91630W        W63890  16.291  29.896   4.483
91631W        W63891  27.068  12.448   4.254
91632W        W63892  10.247  14.165  10.140
91633W        W63893  24.182  23.980   4.169
91634W        W63894  25.979  29.693  12.988
91635W        W63895   4.150   4.022  11.917
91636W        W63896  43.778  19.762   1.354
91637W        W63897  12.173  12.377   4.159
91638W        W63898   2.958  43.877   1.393
91639W        W63899  22.473   3.598  10.778
91640W        W63900  17.088  27.497  11.205
91641W        W63901  13.130   6.873  14.336
91642W        W63902  20.579   2.712  13.399
91643W        W63903  35.127   4.583  12.145
91644W        W63904  30.448  44.950  10.695
91645W        W63905  41.309  18.146  14.164
91646W        W63906  24.653  25.657  13.857
91647W        W63907  34.494  26.617  13.284
91648W        W63908  36.210  32.114   0.045
91649W        W63909  32.067  36.875   2.765
91650W        W63910  13.764  29.028   4.183
91651W        W63911  19.047  34.548   3.507
91652W        W63912  24.484   8.591   1.429
91653W        W63913   3.159   8.909   3.642
91654W        W63914  14.582  18.259   0.752
91655W        W63915   3.399  14.238  13.083
91656W        W63916  13.687  14.450  11.470
91657W        W63917   3.728  26.210   3.829
91658W        W63918  33.953  10.664  10.615
91659W        W63919   3.591   8.249  14.153
91660W        W63920   5.257  41.469   0.193
91661W        W63921   0.952   3.404  14.323
91662W        W63922   3.863  29.388   0.270
91663W        W63923  20.199   4.285  12.919
91664W        W63924  44.989   4.237   1.020
91665W        W63925  25.625   1.076  13.916
91666W        W63926  44.278  24.214   4.095
91667W        W63927   8.700   9.434  10.648
91668W        W63928   5.387  17.836  10.963
91669W        W63929  26.766  25.443  11.113
91670W        W63930  36.880   1.525  11.839
91671W        W63931  25.752  13.671  10.466
91672W        W63932  33.452  43.238  12.870
91673W        W63933  42.595  29.656   0.621
91674W        W63934  11.675  42.845  12.058
91675W        W63935  22.773  11.684   0.727
91676W        W63936  32.669  38.077   4.192
91677W        W63937   8.328  32.132   2.842
91678W        W63938  18.697  12.718  11.544
91679W        W63939   4.982   8.608   9.985
91680W        W63940   0.481  33.920   0.795
91681W        W63941  23.630  39.811   0.812
91682W        W63942  31.124  36.399  10.638
91683W        W63943  39.769   2.522  11.167
91684W        W63944   2.064   7.401   4.096
91685W        W63945  28.085  12.175   4.483
91686W        W63946  33.904  37.922  12.437
91687W        W63947  30.704  30.053   5.578
91688W        W63948   4.732  42.894   0.297
91689W        W63949  39.962   3.069  11.225
91690W        W63950  40.359  33.898   4.739
91691W        W63951  43.182  35.900   2.237
91692W        W63952   8.462  25.734   2.096
91693W        W63953  24.148  35.375   0.692
91694W        W63954  23.415  12.682   3.262
91695W        W63955  42.056  14.325   2.684
91696W        W63956  26.680   8.936  13.525
91697W        W63957  34.465   6.890  13.821
91698W        W63958   0.777  34.445   0.861
91699W        W63959  28.682  12.906  12.297
91700W        W63960  20.054   7.086   1.976
91701W        W63961  23.610   8.093   2.277
91702W        W63962  22.226  15.129   3.932
91703W        W63963   5.486  31.816  14.553
91704W        W63964  31.308   6.918   2.613
91705W        W63965  14.677  39.277   2.167
91706W        W63966  30.915   4.238  11.194
91707W        W63967  32.396  36.611   2.371
91708W        W63968  15.581  43.309  14.325
91709W        W63969  41.381  23.756   1.431
91710W        W63970  38.063  12.424  13.759
91711W        W63971  15.219  32.462  12.492
91712W        W63972   7.531  28.198   5.460
91713W        W63973  35.264  29.317   1.356
91714W        W63974  19.582  34.704  14.480
91715W        W63975  15.866  23.678  14.022
91716W        W63976   2.331  20.260  14.261
91717W        W63977   5.194  24.012   1.371
91718W        W63978  36.024   6.024   1.467
91719W        W63979  37.762   2.737  13.331
91720W        W63980   4.246  31.005   3.331
91721W        W63981   5.794  34.846   4.696
91722W        W63982  11.175  41.958   3.635
91723W        W63983   6.647  33.906   1.728
91724W        W63984  15.704  29.531   0.574
91725W        W63985  12.160   7.459  11.025
91726W        W63986  10.715  33.245  12.534
91727W        W63987  44.932  25.499  14.996
91728W        W63988  11.206  29.922   3.921
91729W        W63989  42.234   5.043   3.308
91730W        W63990   5.193  14.750   2.156
91731W        W63991   8.949  29.716   2.832
91732W        W63992  34.540  31.141   1.340
91733W        W63993  42.149  32.128   4.441
91734W        W63994  30.060  34.171  13.222
91735W        W63995  19.713  18.366  10.723
91736W        W63996  11.769  24.663   2.827
91737W        W63997   0.022  24.097   2.102
91738W        W63998   5.882  11.630   1.443
91739W        W63999  21.222  30.129   1.748
91740W        W64000   3.786  40.929  13.018
91741W        W64001  35.159  23.212  12.869
91742W        W64002  25.900  31.153  13.026
91743W        W64003  13.805  30.671   1.337
91744W        W64004   2.984  40.444  10.471
91745W        W64005  39.136   9.389  14.497
91746W        W64006  26.440  30.485   2.253
91747W        W64007   4.162   4.488  12.891
91748W        W64008  29.780   4.329   4.940
91749W        W64009  36.790  25.122  10.749
91750W        W64010   9.426  37.732   1.217
91751W        W64011  16.109  38.676  14.951
91752W        W64012  19.766   4.886   3.896
91753W        W64013  42.021   3.787   2.899
91754W        W64014  28.032  18.539   1.356
91755W        W64015  14.140  13.720  13.416
91756W        W64016  33.938   8.675  13.349
91757W        W64017  22.552  28.732   0.441
91758W        W64018   2.078  29.517  13.866
91759W        W64019  37.497   4.536  13.331
91760W        W64020   0.170  43.064   2.803
91761W        W64021  36.359   2.181   0.750
91762W        W64022  26.809  44.685  14.494
91763W        W64023  15.870  26.964  13.383
91764W        W64024   0.916  16.619   4.793
91765W        W64025  38.102   1.921  14.290
91766W        W64026  28.913  42.881   5.092
91767W        W64027   1.091  30.134   2.027
91768W        W64028  19.822  15.614   3.476
91769W        W64029  21.210  13.223   0.800
91770W        W64030  29.433  42.894   5.155
91771W        W64031   4.831  42.580   2.450
91772W        W64032  38.809  19.040   1.183
91773W        W64033   6.168   8.681  10.955
91774W        W64034   4.356  20.484   0.267
91775W        W64035  32.374  39.091  11.702
91776W        W64036  14.522   8.762  11.449
91777W        W64037  34.199  39.517  11.922
91778W        W64038  31.383  14.658  12.117
91779W        W64039  42.945  17.309   4.068
91780W        W64040   9.795  43.722  13.863
91781W        W64041  39.354  20.136   4.053
91782W        W64042   3.174  41.119   2.159
91783W        W64043  10.269  20.799  12.612
91784W        W64044  39.145  25.938  11.078
91785W        W64045  37.642  32.965  10.209
91786W        W64046  10.840  36.834   2.801
91787W        W64047  23.344   5.513  12.199
91788W        W64048   1.204  13.168  13.024
91789W        W64049  13.190   0.854  12.059
91790W        W64050  36.307   4.161  14.881
91791W        W64051  33.814  24.562  11.259
91792W        W64052  26.616  21.313  10.604
91793W        W64053  17.364   8.146   2.733
91794W        W64054  17.005  26.760  13.879
91795W        W64055  40.574  24.945  14.566
91796W        W64056  14.199   0.858   0.788
91797W        W64057  18.597   7.946  11.574
91798W        W64058  13.442  12.528  11.299
91799W        W64059  36.537  37.811   1.912
91800W        W64060   4.286  23.171  14.661
91801W        W64061   6.956  16.689  10.752
91802W        W64062   4.617  27.364  12.513
91803W        W64063  14.759  16.843   1.814
91804W        W64064  11.749   8.089  13.503
91805W        W64065  28.633  38.682   4.558
91806W        W64066  21.081   0.662   5.075
91807W        W64067  30.403  41.024  12.907
91808W        W64068  44.387  27.000  13.831
91809W        W64069  14.502  40.489   0.458
91810W        W64070  38.039  35.438  13.461
91811W        W64071  25.214  19.597  12.391
91812W        W64072  28.028   1.337   3.250
91813W        W64073  20.246  36.004   1.678
91814W        W64074   3.711  34.301  13.985
91815W        W64075   9.655   4.352   1.700
91816W        W64076  24.594  11.641   0.061
91817W        W64077   0.725   7.193  11.427
91818W        W64078  36.471  11.163  14.887
91819W        W64079  23.246  18.265  11.946
91820W        W64080  22.547   2.652   2.728
91821W        W64081   6.070   7.687   5.110
91822W        W64082  33.637  32.506   1.417
91823W        W64083  19.046  30.513  14.959
91824W        W64084   2.803   0.000  14.645
91825W        W64085  21.018   1.235  13.974
91826W        W64086   4.302   9.105   2.443
91827W        W64087  32.991  38.931  14.761
91828W        W64088   7.440  35.393  12.935
91829W        W64089   8.715  36.918   1.255
91830W        W64090  10.375  21.602   4.620
91831W        W64091  25.690  35.358   4.871
91832W        W64092  31.536  29.633  12.352
91833W        W64093  33.911   2.570   3.320
91834W        W64094  32.959  11.173  11.485
91835W        W64095  23.329  14.334   4.920
91836W        W64096  31.336  26.198   0.347
91837W        W64097   2.138  24.195   0.866
91838W        W64098  37.855   1.258  14.910
91839W        W64099   5.894  38.595  13.928
91840W        W64100  34.797   0.757  12.491
91841W        W64101  40.551  43.790  13.041
91842W        W64102  10.085  14.800   0.757
91843W        W64103   7.598   4.252  14.982
91844W        W64104  25.894  30.876   0.813
91845W        W64105  26.994  21.100  13.330
91846W        W64106  39.933  34.363   1.287
91847W        W64107  14.675  12.885   2.930
91848W        W64108  31.090   2.735   2.870
91849W        W64109  42.787  25.628  10.723
91850W        W64110   4.502  33.872  12.024
91851W        W64111   7.906   6.371   3.438
91852W        W64112  31.159  37.022   4.885
91853W        W64113   5.607  33.012  13.106
91854W        W64114  11.236  11.284   3.781
91855W        W64115  39.921   2.107   3.285
91856W        W64116  22.610  26.938  10.555
91857W        W64117   3.744  32.621   0.934
91858W        W64118  41.338  14.251  10.912
91859W        W64119  20.577   3.800   2.245
91860W        W64120  21.757  20.959   2.650
91861W        W64121  19.514  18.139  10.304
91862W        W64122  28.953  13.881  12.923
91863W        W64123  17.514  39.821   3.314
91864W        W64124  16.167  42.711   1.410
91865W        W64125  19.259  38.462  11.700
91866W        W64126  20.142   7.357   1.549
91867W        W64127   9.337  19.493  14.902
91868W        W64128  40.132  41.534   1.712
91869W        W64129  40.903  25.982  14.568
91870W        W64130  11.350  10.893  12.450
91871W        W64131   2.267  38.067   0.422
91872W        W64132  28.733   7.663   0.363
91873W        W64133  13.309  23.938  13.498
91874W        W64134  17.111   8.649  12.939
91875W        W64135  36.851  35.074  11.654
91876W        W64136  31.912  32.180   0.700
91877W        W64137   3.921  29.891   3.234
91878W        W64138  32.624  31.296  14.214
91879W        W64139   9.688   3.456   0.888
91880W        W64140  14.706  19.160  13.882
91881W        W64141  18.046  10.765   1.828
91882W        W64142  24.390  41.946   0.626
91883W        W64143  30.868  39.322  14.268
91884W        W64144  28.534  24.483  11.948
91885W        W64145   9.910   0.799  11.574
91886W        W64146  43.083  42.490   2.028
91887W        W64147  34.901  36.902  11.200
91888W        W64148  29.560   7.013  12.631
91889W        W64149  43.919  13.173   4.461
91890W        W64150  25.059   4.422  12.403
91891W        W64151  16.655  38.967   1.361
91892W        W64152  25.674  19.290  11.513
91893W        W64153   9.405  30.896   4.229
91894W        W64154  39.911  11.868   0.672
91895W        W64155   8.951  23.461  11.075
91896W        W64156  35.882  30.873  13.546
91897W        W64157  41.873  27.629  11.188
91898W        W64158  43.492   2.468  12.495
91899W        W64159  37.986   6.993  10.062
91900W        W64160  42.592  24.560   1.372
91901W        W64161  41.761  28.577  13.589
91902W        W64162  22.436  11.237  14.442
91903W        W64163   2.251   3.998  10.555
91904W        W64164  13.737  23.660   1.651
91905W        W64165  43.462  21.765   2.736
91906W        W64166   0.916  12.024   4.064
91907W        W64167   8.262  12.861   3.379
91908W        W64168   8.631  21.836  11.451
91909W        W64169  25.172   6.077  13.410
91910W        W64170  25.013   7.850  14.215
91911W        W64171   0.148  34.513  11.295
91912W        W64172  31.272  18.308  11.171
91913W        W64173  31.896  38.359   3.697
91914W        W64174  37.295  38.135   0.339
91915W        W64175  12.994   6.216  11.652
91916W        W64176  42.090  11.206  10.097
91917W        W64177   3.952  37.967  12.044
91918W        W64178  22.692  42.789  13.822
91919W        W64179  14.649   8.837   0.718
91920W        W64180   9.274  23.669   2.209
91921W        W64181  40.608   0.343  11.471
91922W        W64182   5.687  39.288  14.074
91923W        W64183  24.471   1.385   1.372
91924W        W64184  16.363  24.881   4.203
91925W        W64185  19.569  28.470  14.464
91926W        W64186  44.953  24.456   2.863
91927W        W64187   8.601  40.030  10.804
91928W        W64188  33.424  42.914   1.473
91929W        W64189  30.954   4.838   4.467
91930W        W64190  15.304  33.404   4.610
91931W        W64191  27.103   5.618   3.115
91932W        W64192   7.774  41.282  13.075
91933W        W64193  13.189  22.959  10.724
91934W        W64194  22.085   3.703   2.377
91935W        W64195   2.150  11.428   3.736
91936W        W64196  38.572   2.392   1.295
91937W        W64197  27.101  12.814  12.215
91938W        W64198  10.305  32.512   0.298
91939W        W64199  10.765  18.982  11.074
91940W        W64200  14.675  39.132  14.116
91941W        W64201  17.575  13.483  11.169
91942W        W64202   8.887   2.686  14.279
91943W        W64203  29.646  11.852   4.175
91944W        W64204  23.349   5.768  13.959
91945W        W64205  25.278  13.325   4.990
91946W        W64206   1.173  41.960   3.768
91947W        W64207  25.647  33.938   0.577
91948W        W64208  41.413  22.688  12.518
91949W        W64209  22.289  33.798   4.182
91950W        W64210  41.049  29.451   4.869
91951W        W64211   1.229  31.898  10.653
91952W        W64212  20.096  33.503   0.716
91953W        W64213  42.970  38.498   4.072
91954W        W64214  44.503   6.696  11.555
91955W        W64215  10.685   4.917  10.694
91956W        W64216  44.783  10.185   1.215
91957W        W64217  34.680   2.992  14.946
91958W        W64218   3.776  42.864   3.801
91959W        W64219  22.665  10.312   4.069
91960W        W64220  27.938  31.623   2.721
91961W        W64221  20.643   5.868   3.816
91962W        W64222   6.613  44.773  14.279
91963W        W64223  17.759   2.406   2.824
91964W        W64224  16.938  23.288   0.908
91965W        W64225   4.197  13.253  14.940
91966W        W64226  12.140  24.656   4.117
91967W        W64227  32.204  17.805  11.983
91968W        W64228   8.996  22.815   1.252
91969W        W64229  18.204  26.015   0.250
91970W        W64230  24.684  38.308   3.191
91971W        W64231  35.618  24.124  11.405
91972W        W64232   0.545  28.452  13.321
91973W        W64233   5.911  29.790  11.151
91974W        W64234  34.609  42.859  10.105
91975W        W64235  16.268   1.949  10.734
91976W        W64236   7.742   8.111  13.715
91977W        W64237  19.569  36.625   2.737
91978W        W64238  12.182  40.904  13.313
91979W        W64239  21.312  30.880   2.201
91980W        W64240  10.717  20.779  10.799
91981W        W64241  44.288  10.516   0.930
91982W        W64242  12.667   9.753   4.605
91983W        W64243  13.832  24.087  13.956
91984W        W64244  25.499  38.786  10.186
91985W        W64245  23.534   6.610   2.931
91986W        W64246  25.017  16.438  12.370
91987W        W64247  41.099   2.552  11.626
91988W        W64248  31.174  39.684  14.484
91989W        W64249  37.791   6.734  14.856
91990W        W64250  18.335   9.691   3.423
91991W        W64251  14.242   2.404  11.211
91992W        W64252   0.198  27.670   0.452
91993W        W64253  37.809  13.627  10.586
91994W        W64254  36.664  27.272   2.424
91995W        W64255  24.120  18.585  12.173
91996W        W64256  28.136  23.794   2.794
91997W        W64257  11.396   1.287   1.356
91998W        W64258  11.989  40.452   4.713
91999W        W64259  37.260   9.935  14.083
92000W        W64260  10.044  29.409  11.058
92001W        W64261  18.042  36.057  11.066
92002W        W64262  12.667   9.372  13.257
92003W        W64263  23.644  19.774  11.425
92004W        W64264  18.157  11.436  11.124
92005W        W64265   0.700  12.034   2.751
92006W        W64266  42.460  21.097  11.621
92007W        W64267  27.234  38.269  13.422
92008W        W64268  12.150   4.661   0.853
92009W        W64269   0.437  15.161  12.175
92010W        W64270  39.746  40.107  14.378
92011W        W64271  34.345  10.503  11.167
92012W        W64272  10.676  32.431  12.968
92013W        W64273  28.998  43.231   3.174
92014W        W64274   3.822   5.357   0.951
92015W        W64275   8.637  12.992   0.045
92016W        W64276  25.598  22.701   1.138
92017W        W64277  18.196  15.872   1.276
92018W        W64278  14.412  22.235  11.974
92019W        W64279  39.878   3.006   2.968
92020W        W64280   8.891  17.085  12.855
92021W        W64281  12.606  30.446   4.552
92022W        W64282   2.415  21.050  14.776
92023W        W64283  20.702  14.045   0.096
92024W        W64284  26.350   4.167  11.069
92025W        W64285  16.522  27.112  12.277
92026W        W64286  35.607  11.095  12.552
92027W        W64287  27.525  33.670   3.822
92028W        W64288   6.978  18.588  12.596
92029W        W64289  39.323  26.187  14.895
92030W        W64290   5.216  32.154  14.846
92031W        W64291  18.850  25.392  11.898
92032W        W64292  24.254  21.970  11.075
92033W        W64293   8.759  17.810  12.086
92034W        W64294  15.197  42.743   3.526
92035W        W64295  30.594  12.855   2.675
92036W        W64296  30.118  36.829  13.049
92037W        W64297   6.389  16.810   0.797
92038W        W64298  35.756  42.619   1.918
92039W        W64299  25.447   1.234  11.078
92040W        W64300  42.452   0.595  14.224
92041W        W64301  38.471  30.085  14.939
92042W        W64302  32.420  25.600  12.071
92043W        W64303  13.180   6.886  12.952
92044W        W64304  20.811  23.172  13.548
92045W        W64305  15.103   4.757  10.987
92046W        W64306  16.341  29.010   1.469
92047W        W64307  16.144  14.227  11.485
92048W        W64308  35.118  18.107  14.970
92049W        W64309  13.780  19.689   1.335
92050W        W64310   5.634  40.640  11.152
92051W        W64311   3.483  18.348   4.354
92052W        W64312  27.578  32.299  11.056
92053W        W64313  41.414  28.652   4.521
92054W        W64314  28.076   6.832  12.615
92055W        W64315  32.450  20.951  14.874
92056W        W64316  13.421  40.309  10.793
92057W        W64317  31.604   2.060  11.136
92058W        W64318  22.307   1.369  10.740
92059W        W64319  40.350  18.500   3.320
92060W        W64320   5.012  40.408  10.482
92061W        W64321  28.948  29.558   4.600
92062W        W64322  39.937  20.794  13.126
92063W        W64323  22.115  24.667  10.347
92064W        W64324  35.664  40.876   1.266
92065W        W64325  38.058   7.163  12.807
92066W        W64326  37.058   8.242  13.910
92067W        W64327  43.664  36.550   0.327
92068W        W64328   0.786   6.668  14.104
92069W        W64329  12.566  12.193   0.300
92070W        W64330  42.835  23.669  11.841
92071W        W64331  28.089  41.390  13.837
92072W        W64332  30.513  21.777  11.179
92073W        W64333  33.922  35.374   3.951
92074W        W64334   6.407  28.496   3.897
92075W        W64335  23.386  32.621  13.287
92076W        W64336  20.739  42.782  12.902
92077W        W64337   9.706   6.795   0.432
92078W        W64338  41.608   5.133   0.279
92079W        W64339  38.535  41.060   1.432
92080W        W64340  27.559   4.832   3.180
92081W        W64341  42.862   3.153  12.938
92082W        W64342  28.161  34.310   3.167
92083W        W64343  15.862  36.504  10.934
92084W        W64344  19.047  34.103  14.417
92085W        W64345   9.605  32.059  12.695
92086W        W64346  44.217   6.701  10.705
92087W        W64347  32.886  39.569  11.612
92088W        W64348   2.034   6.342  14.206
92089W        W64349   3.323  15.469  14.877
92090W        W64350  44.887  23.229  12.300
92091W        W64351  28.992   2.161   2.324
92092W        W64352   5.898  28.107   1.267
92093W        W64353  29.905  31.136   1.962
92094W        W64354  25.952  18.732  11.966
92095W        W64355  36.573  22.941   3.303
92096W        W64356  32.258  17.752   2.123
92097W        W64357  23.760  17.650  13.062
92098W        W64358  30.946  14.515   0.842
92099W        W64359   9.109  44.358  13.873
92100W        W64360  27.712  32.088   4.586
92101W        W64361   4.529  30.862   4.900
92102W        W64362  43.547  33.329   4.172
92103W        W64363   3.052  15.419  11.171
92104W        W64364  27.863   4.419  14.547
92105W        W64365  44.860  44.084   3.291
92106W        W64366  26.652  40.001  14.213
92107W        W64367  16.076  32.029   3.818
92108W        W64368  22.126  43.073  11.121
92109W        W64369  12.951   2.146   1.843
92110W        W64370  27.171  34.820  13.553
92111W        W64371  42.314  27.001  10.516
92112W        W64372  43.203  17.266   1.226
92113W        W64373  12.890  18.229   4.296
92114W        W64374  20.254  36.395   1.332
92115W        W64375  36.832  37.462  14.997
92116W        W64376  26.212  41.852   5.451
92117W        W64377   8.952  41.566   2.713
92118W        W64378  15.699  17.102   1.703
92119W        W64379  25.658  42.830   1.987
92120W        W64380  42.410   1.358  11.041
92121W        W64381  42.446  17.828   3.704
92122W        W64382   7.332  28.535   9.798
92123W        W64383  25.692  33.578  10.250
92124W        W64384  19.740  32.656   2.836
92125W        W64385  25.346  29.591  11.595
92126W        W64386   3.320  15.034   2.066
92127W        W64387  26.696   3.662   4.485
92128W        W64388  12.501  25.595   2.877
92129W        W64389  18.003   5.213  10.046
92130W        W64390   1.762  41.959  12.177
92131W        W64391  31.342  38.921  11.162
92132W        W64392  10.783   5.707   2.215
92133W        W64393  13.560   5.424   0.969
92134W        W64394  28.993   0.935   4.601
92135W        W64395   1.758  30.527   4.037
92136W        W64396  23.777   6.444  12.534
92137W        W64397   6.866  12.106  11.298
92138W        W64398  16.754  38.798  13.250
92139W        W64399  14.046  24.581  12.478
92140W        W64400  37.502  34.548   1.859
92141W        W64401   8.804  38.206  13.949
92142W        W64402  12.404  42.038   2.756
92143W        W64403   1.272   9.994   4.876
92144W        W64404  17.495   4.954  12.196
92145W        W64405   1.363  41.828  11.510
92146W        W64406  16.606  11.151  14.439
92147W        W64407  22.721  31.394  13.548
92148W        W64408  15.143   6.751   3.291
92149W        W64409  38.775  12.416  12.745
92150W        W64410  35.772  32.528   2.114
92151W        W64411  28.538  26.128   2.428
92152W        W64412   5.215  40.265   1.476
92153W        W64413   7.594  10.623  10.745
92154W        W64414   8.414  33.014  11.116
92155W        W64415  10.724  41.517  10.582
92156W        W64416   2.131  39.403  12.557
92157W        W64417   6.850   9.360   3.673
92158W        W64418  18.608  41.970  12.004
92159W        W64419  29.408   6.748   2.643
92160W        W64420  39.061  35.144  13.133
92161W        W64421  18.637  27.675   1.964
92162W        W64422  21.983  18.602   3.214
92163W        W64423   7.735  36.055   3.080
92164W        W64424   6.383  38.100  10.671
92165W        W64425  41.411   2.492   1.042
92166W        W64426  35.109  35.488   0.014
92167W        W64427   3.299  23.313   3.521
92168W        W64428  22.445  18.054  10.556
92169W        W64429  13.396  35.384  11.054
92170W        W64430  29.208  14.394   1.138
92171W        W64431   2.294  33.778   0.922
92172W        W64432  17.874  18.705   3.364
92173W        W64433  15.930  41.003   4.515
92174W        W64434  34.163  28.201   3.267
92175W        W64435   6.154  21.934   2.529
92176W        W64436  43.401  33.867  13.568
92177W        W64437  39.087  37.899   2.571
92178W        W64438  13.300   1.738  14.445
92179W        W64439  11.628  30.749  11.591
92180W        W64440   0.054  39.588   1.309
92181W        W64441  15.031   1.930  13.886
92182W        W64442   7.909  19.513  13.795
92183W        W64443  25.678  42.182  12.945
92184W        W64444  39.519  11.390   4.632
92185W        W64445  25.865  21.144   0.003
92186W        W64446  27.833  19.676   3.672
92187W        W64447   9.677  18.953   1.270
92188W        W64448  10.141  40.622   2.537
92189W        W64449  23.954  10.253   0.335
92190W        W64450  30.093  40.159  11.221
92191W        W64451  35.409  33.441   0.288
92192W        W64452   3.406   2.567   3.781
92193W        W64453  41.845   6.419  10.814
92194W        W64454  19.128  19.683  12.219
92195W        W64455   9.594  12.139  14.877
92196W        W64456  12.301  13.411   4.154
92197W        W64457  26.025  21.890  11.061
92198W        W64458  30.517  36.274  14.348
92199W        W64459  12.183  14.048   1.070
92200W        W64460  10.163   3.792  14.465
92201W        W64461   8.601  39.797  11.994
92202W        W64462  29.048  35.332   1.313
92203W        W64463  17.056  33.628  14.796
92204W        W64464  16.613   5.408  11.819
92205W        W64465   4.026  21.728  14.600
92206W        W64466  24.560  19.660   4.583
92207W        W64467  28.985  21.260  13.005
92208W        W64468   7.897  44.053   1.280
92209W        W64469  42.303  29.539  13.806
92210W        W64470  27.603  10.331   3.101
92211W        W64471  41.954  12.586  13.527
92212W        W64472  40.493   8.328  14.284
92213W        W64473  22.119   4.364  12.741
92214W        W64474   9.161  37.835  13.783
92215W        W64475  37.955  13.914  12.302
92216W        W64476  17.315  26.005   3.511
92217W        W64477  33.491  30.088  12.110
92218W        W64478  13.563  35.297  12.358
92219W        W64479  25.070  40.188  13.464
92220W        W64480  12.383  35.108   2.177
92221W        W64481  27.552   9.178  14.042
92222W        W64482  18.013  15.316   3.715
92223W        W64483  32.352  32.950  13.032
92224W        W64484  38.279  31.211   4.211
92225W        W64485  26.987  16.783   3.300
92226W        W64486  23.110  25.645   3.291
92227W        W64487  29.500  21.980   4.601
92228W        W64488  32.122  34.256  10.683
92229W        W64489  30.524  24.145   4.729
92230W        W64490  15.378   5.803   3.100
92231W        W64491  13.175  38.449   3.177
92232W        W64492  18.656  26.458   0.967
92233W        W64493  17.785  14.865   2.183
92234W        W64494  23.095  23.416   2.469
92235W        W64495  28.989  33.219   2.820
92236W        W64496  12.419   1.298   2.801
92237W        W64497  15.030  10.896  14.375
92238W        W64498  21.955  21.223  10.574
92239W        W64499  29.208  11.903  14.277
92240W        W64500  29.920  25.225  13.519
92241W        W64501  15.110  21.989  13.902
92242W        W64502  38.314  13.382   0.474
92243W        W64503  28.398  37.462  10.939
92244W        W64504  38.195  11.208   0.998
92245W        W64505  19.587  31.941  13.809
92246W        W64506  29.504  32.680   9.787
92247W        W64507  44.197  21.768   3.291
92248W        W64508  31.142  22.579   1.974
92249W        W64509  35.335  19.048   3.222
92250W        W64510  13.552  21.543   0.435
92251W        W64511  12.089  17.261  11.614
92252W        W64512  30.139  19.153  13.439
92253W        W64513  30.673   3.525   3.708
92254W        W64514  22.505  28.648  12.371
92255W        W64515   7.187  15.206   3.217
92256W        W64516  43.277  29.669  12.930
92257W        W64517  44.740   3.370   3.071
92258W        W64518   0.170  37.425  14.776
92259W        W64519   4.954  19.215   4.155
92260W        W64520  32.813  19.602   4.578
92261W        W64521  35.782  42.018   4.731
92262W        W64522  15.260  21.322  12.434
92263W        W64523  34.627  22.019  11.248
92264W        W64524  16.363  16.337  13.964
92265W        W64525  37.969  28.440  14.370
92266W        W64526   0.307  39.509   0.432
92267W        W64527  13.316   6.784   4.378
92268W        W64528  18.757   8.140   4.632
92269W        W64529   0.399  13.653  12.953
92270W        W64530  34.466  39.337  13.758
92271W        W64531  39.608   2.233   0.944
92272W        W64532  33.134   9.724   0.791
92273W        W64533  20.785  29.663  11.802
92274W        W64534  14.880  14.105  10.185
92275W        W64535  44.397  23.743  10.933
92276W        W64536  20.078  15.873   4.308
92277W        W64537  27.030  32.291  12.024
92278W        W64538  22.285  26.814  11.993
92279W        W64539  36.460  31.397   0.264
92280W        W64540  20.173  33.337  11.583
92281W        W64541  27.056  38.813  12.021
92282W        W64542  17.849  22.124  11.591
92283W        W64543  43.473   8.175  10.893
92284W        W64544   8.197   9.238  10.454
92285W        W64545   0.976  15.400  14.461
92286W        W64546  32.904  17.372  11.549
92287W        W64547   8.146  37.949   0.080
92288W        W64548  40.230  16.094  11.059
92289W        W64549  38.952  44.750  11.470
92290W        W64550  17.154   4.364   1.220
92291W        W64551  42.683  21.533  11.389
92292W        W64552  43.283  27.334   4.546
92293W        W64553   7.725   7.861  14.622
92294W        W64554  21.242  35.661  12.068
92295W        W64555  18.758  37.763   1.209
92296W        W64556  15.219   1.371   3.006
92297W        W64557   6.699  27.472  11.822
92298W        W64558   5.332  40.270   4.492
92299W        W64559   4.808  34.064   2.192
92300W        W64560  18.160  23.180  11.774
92301W        W64561   1.322  18.104  14.391
92302W        W64562  17.657  16.034  14.852
92303W        W64563  10.831  39.546   4.570
92304W        W64564  39.275  12.598   1.894
92305W        W64565  13.218  33.694  14.321
92306W        W64566  24.995  10.109  11.564
92307W        W64567  21.176  40.859   0.935
92308W        W64568   3.457   3.082   2.421
92309W        W64569  15.555  28.527  10.649
92310W        W64570  34.280  18.084   9.738
92311W        W64571   9.209  22.500   0.863
92312W        W64572  23.469  13.360   2.126
92313W        W64573  17.860  37.664   0.817
92314W        W64574  16.780  19.521  11.213
92315W        W64575  42.608   2.199   0.878
92316W        W64576  18.051   3.514  13.807
92317W        W64577  36.600  42.791  11.270
92318W        W64578   5.233  15.245   4.363
92319W        W64579  35.965  38.662   1.854
92320W        W64580  26.446   2.933   3.958
92321W        W64581  42.421  24.502  13.571
92322W        W64582  21.414  30.622  14.376
92323W        W64583   2.747  38.553  14.514
92324W        W64584  27.272   6.208   1.185
92325W        W64585  22.704   7.235  13.715
92326W        W64586  28.975   1.679  12.441
92327W        W64587  30.958  36.661   2.366
92328W        W64588  42.546  26.539  13.878
92329W        W64589  38.155  31.046  13.403
92330W        W64590  34.842  21.739  14.763
92331W        W64591  28.028  20.291  14.840
92332W        W64592  20.918  16.709   1.033
92333W        W64593  37.724  41.191   3.036
92334W        W64594  36.979  24.271   1.014
92335W        W64595  41.033  11.996  12.450
92336W        W64596   4.169  27.701   2.741
92337W        W64597  43.558  10.948   1.784
92338W        W64598  40.562   6.155   0.023
92339W        W64599  38.819  20.195  14.645
92340W        W64600  37.674  34.405  12.458
92341W        W64601  31.054  40.320  12.245
92342W        W64602  38.507  10.196  11.589
92343W        W64603  41.949  29.433   4.482
92344W        W64604  22.503  37.763  12.785
92345W        W64605  17.806  32.494  12.580
92346W        W64606   7.396  29.791  14.298
92347W        W64607  39.601  38.346   1.370
92348W        W64608  25.030   6.725  11.503
92349W        W64609  23.012  43.040   1.358
92350W        W64610  19.232   7.517   5.033
92351W        W64611  12.783  39.716  14.384
92352W        W64612  39.785   1.321  14.406
92353W        W64613  12.169  31.395  12.096
92354W        W64614  24.614  21.423   2.398
92355W        W64615   5.231  34.981  10.656
92356W        W64616   2.316  30.597   1.417
92357W        W64617  14.388  44.760   0.355
92358W        W64618  44.475  21.252  11.439
92359W        W64619  34.011  30.999   3.836
92360W        W64620  43.775  40.926  14.444
92361W        W64621  43.516  17.320  12.884
92362W        W64622  11.871   6.212   4.610
92363W        W64623  22.587  11.109   3.378
92364W        W64624  41.852  43.486   0.341
92365W        W64625   7.178  17.589   1.841
92366W        W64626  37.944  27.705   3.726
92367W        W64627  34.665  14.507   4.148
92368W        W64628  32.153  25.315   3.263
92369W        W64629  21.059  18.111   4.770
92370W        W64630  42.283   7.175  14.831
92371W        W64631  12.048  28.997   3.644
92372W        W64632  41.464  19.011   1.247
92373W        W64633  39.544  39.086   0.817
92374W        W64634  13.673   1.679  11.573
92375W        W64635  19.862  42.385  11.994
92376W        W64636  29.102  21.706  12.155
92377W        W64637   9.714  23.717   1.899
92378W        W64638  17.998  17.649  13.005
92379W        W64639   9.789   7.744  13.283
92380W        W64640  42.973   1.920  13.990
92381W        W64641   7.871  22.152  11.912
92382W        W64642  10.678  43.218  14.018
92383W        W64643  20.074  38.941   4.644
92384W        W64644  39.852   6.358   0.222
92385W        W64645  10.835  10.239   2.724
92386W        W64646  37.058   7.497   2.192
92387W        W64647  34.326   5.389   2.869
92388W        W64648   1.736  35.265  11.091
92389W        W64649  28.032  15.977  14.036
92390W        W64650  10.724  13.662  11.568
92391W        W64651  34.377   7.693  11.477
92392W        W64652  23.479  42.292  14.769
92393W        W64653  28.354  19.597   2.204
92394W        W64654  11.639  14.268  13.024
92395W        W64655   2.712  19.689  12.516
92396W        W64656   5.644  40.511   4.168
92397W        W64657  41.734   9.886   2.772
92398W        W64658  20.264  28.007  11.760
92399W        W64659  15.476  14.695   3.089
92400W        W64660  17.564  24.943   1.751
92401W        W64661   4.993  16.330  12.054
92402W        W64662  14.077  12.224   0.448
92403W        W64663  16.322  37.666  14.863
92404W        W64664  28.251  44.211   5.006
92405W        W64665  18.006   4.827   0.789
92406W        W64666  25.091  27.889  13.806
92407W        W64667  18.229  20.737   0.812
92408W        W64668  29.019  11.261   3.776
92409W        W64669  34.170  19.592   1.824
92410W        W64670  21.085  17.986   0.206
92411W        W64671  40.462   1.004  12.124
92412W        W64672  35.181   9.848  11.632
92413W        W64673  20.224  35.276  13.915
92414W        W64674  30.583  20.996  14.790
92415W        W64675  22.773   1.335  12.567
92416W        W64676  13.691  26.851  10.015
92417W        W64677  22.682  34.174   4.592
92418W        W64678  12.099  19.341   1.638
92419W        W64679  39.441  19.689   0.328
92420W        W64680  17.837  34.492  13.969
92421W        W64681  30.966  23.320  11.061
92422W        W64682  16.650   2.900  13.790
92423W        W64683  18.734  44.670  11.496
92424W        W64684  11.320  40.805  11.603
92425W        W64685  11.177  11.606   2.271
92426W        W64686  44.975  37.985  14.326
92427W        W64687  36.140  10.724  11.475
92428W        W64688  43.839  40.503   1.167
92429W        W64689  41.863  13.320   2.241
92430W        W64690  17.678  21.550  12.317
92431W        W64691  18.023   3.245  12.779
92432W        W64692  43.506  39.988  12.350
92433W        W64693  22.958   8.784  11.100
92434W        W64694  25.448  36.460  12.424
92435W        W64695  20.015   4.306   1.863
92436W        W64696  18.046  21.597   1.303
92437W        W64697  24.553  11.392   0.512
92438W        W64698  23.982   3.775  10.678
92439W        W64699  31.108  12.794  12.667
92440W        W64700  19.241  17.531   4.247
92441W        W64701  20.251  37.399  10.722
92442W        W64702  16.821  35.529  10.930
92443W        W64703  40.437  29.326   4.295
92444W        W64704  21.550  20.346   3.945
92445W        W64705  35.135  43.506  11.155
92446W        W64706   9.761  40.148   0.853
92447W        W64707  18.643  17.261   4.562
92448W        W64708  42.267  17.669  12.426
92449W        W64709  25.500   0.490   5.268
92450W        W64710  18.538  16.174  14.369
92451W        W64711  15.326  15.617  13.282
92452W        W64712  12.879  25.615  14.893
92453W        W64713   1.787  22.322  10.956
92454W        W64714   4.371  43.400  10.555
92455W        W64715  14.147  33.236  14.295
92456W        W64716  24.656  42.896   4.054
92457W        W64717   4.738   7.184  10.743
92458W        W64718   5.365  39.112   0.946
92459W        W64719   6.595  31.984  14.027
92460W        W64720  23.958  27.603  13.124
92461W        W64721   1.647  21.546  14.596
92462W        W64722  15.066  20.961   3.225
92463W        W64723  35.531  42.956  14.906
92464W        W64724  17.370  37.058  12.206
92465W        W64725  27.458  29.230   1.698
92466W        W64726  29.957   1.330   0.795
92467W        W64727  27.007  23.629  11.946
92468W        W64728  35.321  36.528   2.641
92469W        W64729   5.374  18.238   2.734
92470W        W64730   0.865  31.870   2.960
92471W        W64731   5.899  25.663  10.242
92472W        W64732  12.555  20.587   0.213
92473W        W64733  40.783  11.755   4.040
92474W        W64734  26.624  39.328  11.502
92475W        W64735  17.609   7.674   3.669
92476W        W64736  35.618  15.381  14.078
92477W        W64737  38.631  23.573   0.333
92478W        W64738   2.917   2.395   2.704
92479W        W64739  44.420  24.399  14.085
92480W        W64740  38.479  22.705  12.856
92481W        W64741  11.633   9.727  12.017
92482W        W64742  24.542  26.805   2.656
92483W        W64743  32.626  17.202   2.119
92484W        W64744  16.656  13.787  10.364
92485W        W64745  42.825  27.891  13.461
92486W        W64746  29.604  36.012  12.964
92487W        W64747  43.346  15.251  13.880
92488W        W64748  27.906  33.122   4.825
92489W        W64749  23.062   0.680   3.671
92490W        W64750  44.226   3.877  12.572
92491W        W64751  12.593  18.102   0.104
92492W        W64752  23.009  29.978   1.513
92493W        W64753   9.610  39.957  11.169
92494W        W64754  43.588  39.344  10.759
92495W        W64755  39.536   4.138  12.072
92496W        W64756  38.752   4.927   2.475
92497W        W64757  41.729   9.744  12.982
92498W        W64758  29.165  27.735   3.384
92499W        W64759   2.183  37.083   1.319
92500W        W64760   7.024  21.620  12.185
92501W        W64761  43.235  21.602   0.982
92502W        W64762  23.752   1.429  11.407
92503W        W64763  21.466  18.064   1.369
92504W        W64764  22.128  39.380  10.577
92505W        W64765  16.335  17.263  13.847
92506W        W64766   5.595  21.598   1.795
92507W        W64767  44.340   1.997  11.578
92508W        W64768  28.908  32.373   1.776
92509W        W64769  39.349  24.531   0.812
92510W        W64770   2.106   4.718   4.940
92511W        W64771  17.567   5.136  12.665
92512W        W64772  43.770   5.883   4.086
92513W        W64773  43.161  42.975   2.812
92514W        W64774  31.274  31.017  11.131
92515W        W64775  31.612  33.889   0.944
92516W        W64776  21.820  38.918   3.382
92517W        W64777   3.511  22.263  13.347
92518W        W64778  22.255  36.847  13.792
92519W        W64779  11.195   9.263  10.681
92520W        W64780  12.365   3.909   3.143
92521W        W64781   6.188   5.722  12.913
92522W        W64782  13.370  29.807  12.713
92523W        W64783  42.259  12.331  11.167
92524W        W64784  39.349  37.521   2.850
92525W        W64785   9.984  25.578  13.357
92526W        W64786   9.710  14.157   3.536
92527W        W64787   9.623   7.339  12.060
92528W        W64788  26.281  24.140  12.400
92529W        W64789  16.910  36.032   1.530
92530W        W64790  17.136  23.696  13.411
92531W        W64791  38.640  41.840  11.695
92532W        W64792  25.079  16.882   0.639
92533W        W64793  15.329  21.522  14.997
92534W        W64794  24.715  43.409   1.356
92535W        W64795   7.736  32.878   0.441
92536W        W64796  15.045  33.056   0.228
92537W        W64797  17.404  11.971   0.899
92538W        W64798  14.739  25.748   2.420
92539W        W64799  36.889   7.367  14.501
92540W        W64800  44.239   5.448  13.254
92541W        W64801   7.713  38.436   4.459
92542W        W64802   3.604   4.469  10.948
92543W        W64803  28.385  39.153   4.601
92544W        W64804  20.740  38.256   0.436
92545W        W64805  30.607  22.036  13.417
92546W        W64806  21.906   9.731  12.030
92547W        W64807   3.297  35.674  11.512
92548W        W64808  42.069  10.893  11.237
92549W        W64809  23.254   3.292  13.540
92550W        W64810  31.956   9.348   5.065
92551W        W64811  17.255  17.245   1.381
92552W        W64812  17.564  35.193   1.677
92553W        W64813  11.758  16.206   3.622
92554W        W64814   9.716  23.619   1.376
92555W        W64815  17.082  29.083   0.739
92556W        W64816  16.601  32.875  14.880
92557W        W64817  38.691  32.238   3.723
92558W        W64818  12.370  31.572   4.299
92559W        W64819  42.144   7.383  11.857
92560W        W64820  33.408   1.688  10.304
92561W        W64821  33.853   4.875  13.040
92562W        W64822   1.481  16.222   3.735
92563W        W64823  36.455   4.852   0.421
92564W        W64824   3.453  16.499  13.897
92565W        W64825  37.086  33.890   1.260
92566W        W64826   7.668   4.185  11.111
92567W        W64827  40.924  16.047  12.054
92568W        W64828  29.680  32.336   5.454
92569W        W64829  25.678  18.293  11.624
92570W        W64830  29.991  30.029  10.160
92571W        W64831  23.279  33.894  11.444
92572W        W64832  14.776  41.561   2.234
92573W        W64833  33.452  19.835  14.346
92574W        W64834  22.244  25.620  11.877
92575W        W64835   7.140  37.575   1.738
92576W        W64836  21.591  26.065   0.982
92577W        W64837  25.233  14.206   4.530
92578W        W64838  25.713  33.665  14.143
92579W        W64839  18.663  44.126  13.283
92580W        W64840  40.104  43.799   4.777
92581W        W64841   4.679  43.399   1.412
92582W        W64842  20.919  15.015   1.341
92583W        W64843  15.668  21.543   3.917
92584W        W64844  30.938  28.782  13.800
92585W        W64845  24.720   7.286   1.318
92586W        W64846  24.601  39.001  10.274
92587W        W64847  42.046  23.466   3.220
92588W        W64848  24.227  32.177   1.492
92589W        W64849  37.572  15.640  14.705
92590W        W64850  33.864  17.181  10.906
92591W        W64851   7.263   3.678   1.779
92592W        W64852  27.676   5.734   0.747
92593W        W64853  31.622   8.719   4.587
92594W        W64854  20.584  40.324   1.306
92595W        W64855   1.974   0.782  10.768
92596W        W64856   8.029  43.307   0.673
92597W        W64857   2.453  28.319  12.064
92598W        W64858  37.324  15.647   4.887
92599W        W64859   1.433  44.715  14.968
92600W        W64860  29.945   8.384   3.624
92601W        W64861  22.038   6.369   3.703
92602W        W64862  22.226  22.410  14.459
92603W        W64863   3.784   7.645   3.728
92604W        W64864  37.081  24.128   3.596
92605W        W64865  27.240  13.417  11.969
92606W        W64866   6.695  42.411  14.424
92607W        W64867  30.005  27.505  10.976
92608W        W64868   2.798   2.295   4.604
92609W        W64869  27.034  35.115  10.349
92610W        W64870   1.722  31.786  11.621
92611W        W64871  15.066  31.525  12.492
92612W        W64872  21.001  28.197  13.094
92613W        W64873  28.379   6.820   2.393
92614W        W64874   2.183  11.598   4.568
92615W        W64875   3.746  10.858   0.261
92616W        W64876   0.959  28.105   4.507
92617W        W64877  39.037  44.075   2.396
92618W        W64878   9.267   7.137  10.622
92619W        W64879  44.869  21.813  12.996
92620W        W64880  41.456  11.631   1.412
92621W        W64881  14.576  43.978  13.396
92622W        W64882  16.044  10.182   0.284
92623W        W64883  31.948  33.684   4.955
92624W        W64884  21.070  31.352   4.132
92625W        W64885  20.312   4.571  13.352
92626W        W64886   7.241  20.592   1.405
92627W        W64887  30.599   3.250   4.146
92628W        W64888  20.044  34.583   2.654
92629W        W64889  41.323  14.263   1.272
92630W        W64890  24.063  28.455  11.691
92631W        W64891  15.859  28.750  13.070
92632W        W64892  20.192  33.381   2.234
92633W        W64893  24.301  42.879   1.903
92634W        W64894   4.967  21.574  14.222
92635W        W64895  32.105  27.354  12.781
92636W        W64896  37.581  17.117   4.418
92637W        W64897  10.752  40.428   0.824
92638W        W64898  13.885  36.061   3.971
92639W        W64899  24.582   5.100  13.001
92640W        W64900  18.259  14.019   5.133
92641W        W64901  39.505  32.720  12.089
92642W        W64902   3.962  40.812   1.221
92643W        W64903   1.072   9.465  14.395
92644W        W64904  39.327  11.572  14.966
92645W        W64905   6.179  15.255   4.384
92646W        W64906  40.353  12.093  10.813
92647W        W64907  41.439   8.280   0.278
92648W        W64908  25.032  13.692  13.567
92649W        W64909  44.861  16.223   1.939
92650W        W64910  29.389  33.637   4.131
92651W        W64911  19.333  23.513  11.679
92652W        W64912  26.454  37.330  13.842
92653W        W64913  36.395  12.130   3.607
92654W        W64914  22.873   0.317   3.307
92655W        W64915   4.816  42.603   2.960
92656W        W64916  35.697  13.522   2.356
92657W        W64917  28.461   1.844   4.574
92658W        W64918  34.534   9.244  12.870
92659W        W64919  27.199  24.724  12.870
92660W        W64920  29.028  42.758   2.456
92661W        W64921  22.637  21.232  13.944
92662W        W64922  18.050  15.560   4.166
92663W        W64923  37.061  14.607   1.124
92664W        W64924  16.442  24.030  11.599
92665W        W64925  17.121   8.221   0.023
92666W        W64926  20.079  30.373  13.149
92667W        W64927  12.116  37.390   2.681
92668W        W64928  23.828  35.846   3.719
92669W        W64929   2.342  41.526   3.885
92670W        W64930  12.363  44.423  11.422
92671W        W64931  26.194  17.283  12.026
92672W        W64932  25.254  37.804  14.267
92673W        W64933   2.295  41.543  10.725
92674W        W64934  34.489  12.633  13.555
92675W        W64935  23.979   7.313   3.309
92676W        W64936  27.722  31.964  14.955
92677W        W64937  28.193   0.205  12.447
92678W        W64938  33.302  36.317   3.087
92679W        W64939  37.034  16.267   2.391
92680W        W64940   2.248   9.443  11.001
92681W        W64941  14.664  39.314   3.089
92682W        W64942  40.747  42.302   0.554
92683W        W64943  37.032  31.659   2.305
92684W        W64944  20.634  32.270   3.391
92685W        W64945   2.540  44.212   5.039
92686W        W64946  10.813  25.059   1.376
92687W        W64947  25.914  38.440   9.628
92688W        W64948  25.932  21.564  14.050
92689W        W64949   3.311  19.457  10.861
92690W        W64950  11.713  21.572   1.940
92691W        W64951  11.465  25.199   4.492
92692W        W64952  30.463  29.764   3.802
92693W        W64953  15.220  29.125   3.562
92694W        W64954  25.041   5.250  11.861
92695W        W64955   0.861  22.126   4.710
92696W        W64956  24.776  11.460   2.359
92697W        W64957  35.338  10.568  13.503
92698W        W64958  29.380  36.454   0.200
92699W        W64959  19.351   4.144   4.121
92700W        W64960  41.999  10.623   0.757
92701W        W64961  32.583  10.158   2.671
92702W        W64962   1.413  25.728   3.731
92703W        W64963  14.835  12.729  13.811
92704W        W64964  35.079  20.657   1.854
92705W        W64965  18.514   9.779  12.381
92706W        W64966   2.697   0.263  13.801
92707W        W64967  31.510  37.384  11.575
92708W        W64968  44.920  36.541   3.645
92709W        W64969  21.604   0.956  12.816
92710W        W64970  34.438   8.407   1.415
92711W        W64971   4.680   0.961  13.616
92712W        W64972  17.306  14.445  14.452
92713W        W64973  26.145  19.538  11.535
92714W        W64974  29.834   4.268  13.374
92715W        W64975   0.964  13.358   3.207
92716W        W64976  34.242  41.330  12.137
92717W        W64977   5.312  23.346  14.291
92718W        W64978  37.981   1.169  10.904
92719W        W64979   9.690  43.670  11.097
92720W        W64980   5.735   2.824   4.048
92721W        W64981  32.200  43.494  13.008
92722W        W64982  42.347  26.998   4.770
92723W        W64983  34.456  21.634   0.494
92724W        W64984  33.667  34.158  13.493
92725W        W64985  29.006  39.976  10.507
92726W        W64986  19.530  30.453   4.234
92727W        W64987   8.362  20.811   1.979
92728W        W64988  12.956  25.188  14.615
92729W        W64989  25.819   2.350   1.908
92730W        W64990  26.911  39.302   0.468
92731W        W64991  40.973  34.875  13.810
92732W        W64992  29.077  10.615  12.081
92733W        W64993   0.898  27.416  10.655
92734W        W64994  14.325  33.930  13.494
92735W        W64995  34.920  23.311  11.177
92736W        W64996  41.980   5.706   1.317
92737W        W64997  13.536  12.027  14.422
92738W        W64998   4.297  34.398  10.649
92739W        W64999   8.830   6.116   1.287
92740W        W65000  11.156   3.406  11.167
92741W        W65001  26.046   5.189   0.208
92742W        W65002  44.358   9.648   4.580
92743W        W65003  34.468  20.716  12.422
92744W        W65004  33.385  26.536   3.123
92745W        W65005  39.821  14.692  13.919
92746W        W65006  11.386  35.314  13.293
92747W        W65007  27.396  43.600   0.013
92748W        W65008   4.359  44.232  10.144
92749W        W65009  43.428  15.728  10.711
92750W        W65010  31.841   8.843   5.049
92751W        W65011   0.538  20.612   2.847
92752W        W65012   8.936  20.314  11.214
92753W        W65013  25.449  15.106   0.241
92754W        W65014   5.715  18.144   0.772
92755W        W65015  37.406  20.225   3.254
92756W        W65016  30.677  39.910  14.515
92757W        W65017  40.382  41.207  14.259
92758W        W65018  43.267   9.740  14.352
92759W        W65019  24.632  38.864   3.192
92760W        W65020  15.353  44.471   4.211
92761W        W65021   5.979  26.242  14.993
92762W        W65022   8.158  13.219   4.079
92763W        W65023  24.162  11.489   3.720
92764W        W65024  27.808  39.272   3.438
92765W        W65025  17.659  34.450  13.001
92766W        W65026  18.666  27.992  14.824
92767W        W65027  39.666  30.694   0.938
92768W        W65028  43.507  24.488   0.725
92769W        W65029  39.862  33.668   4.934
92770W        W65030  39.769  44.026  14.382
92771W        W65031   2.686  42.411   2.099
92772W        W65032  39.328  42.361  14.992
92773W        W65033   3.471  42.069   2.464
92774W        W65034  41.469  17.964  13.560
92775W        W65035  24.854  25.715   3.337
92776W        W65036  15.278   7.559   1.314
92777W        W65037  39.984  23.709  13.269
92778W        W65038  42.017  26.960   1.894
92779W        W65039  17.262  20.993  14.415
92780W        W65040  20.752  31.128   3.781
92781W        W65041  11.244   1.789   3.561
92782W        W65042  33.390  30.996  11.032
92783W        W65043  18.852  35.535  13.442
92784W        W65044  14.582  36.481   2.653
92785W        W65045  38.726  19.623   4.994
92786W        W65046  22.725  44.006   4.216
92787W        W65047   9.187  40.940  14.711
92788W        W65048  33.023  35.426   2.200
92789W        W65049  17.040   9.594   0.811
92790W        W65050  43.977  32.493  10.757
92791W        W65051   0.782   5.933   4.467
92792W        W65052  36.547  19.692   5.149
92793W        W65053  21.484  32.858  12.417
92794W        W65054   7.250  11.300   1.411
92795W        W65055   4.456  11.353   0.913
92796W        W65056  44.668  28.067  13.450
92797W        W65057  24.673  30.560   2.920
92798W        W65058  34.146   2.302   3.762
92799W        W65059   4.241  15.295  14.422
92800W        W65060  28.957  17.646  10.720
92801W        W65061  22.620   1.410  10.322
92802W        W65062  10.263  30.504   4.414
92803W        W65063  20.827  21.379  14.406
92804W        W65064  17.544  16.842  10.703
92805W        W65065  30.948   8.297   1.382
92806W        W65066  11.571   5.315   1.448
92807W        W65067  36.784  30.170   1.319
92808W        W65068  13.156  39.023   3.756
92809W        W65069  41.727  24.685   4.574
92810W        W65070  43.340  30.858   2.173
92811W        W65071  11.201  41.869   4.632
92812W        W65072  21.274  30.692  10.718
92813W        W65073  15.947  21.768   1.255
92814W        W65074  40.452  21.605   1.144
92815W        W65075  31.922   6.835   0.745
92816W        W65076  10.369  28.051  11.741
92817W        W65077  13.966  36.941   1.724
92818W        W65078  36.902  31.057  12.973
92819W        W65079   8.664  42.917   1.993
92820W        W65080  16.255  21.845  11.176
92821W        W65081   4.419  20.261  14.804
92822W        W65082  42.994   1.562   4.625
92823W        W65083  39.114  24.716  11.012
92824W        W65084   5.171  14.568  10.506
92825W        W65085   2.806  19.530  11.034
92826W        W65086  37.652  12.129   3.299
92827W        W65087  22.874  37.645   2.286
92828W        W65088  36.934  44.783  11.613
92829W        W65089   4.800  19.210  10.432
92830W        W65090  29.402  26.207   2.777
92831W        W65091   1.425  33.896  12.065
92832W        W65092  11.759  26.101   0.175
92833W        W65093   0.439   1.935  14.951
92834W        W65094  24.472  17.804   1.389
92835W        W65095  25.698  25.254  11.755
92836W        W65096  31.168  30.807  10.236
92837W        W65097  12.889  28.564  11.511
92838W        W65098  30.739  23.479  12.659
92839W        W65099  33.687  19.042   2.543
92840W        W65100  23.987  28.821   2.841
92841W        W65101   9.416   4.462  14.347
92842W        W65102  43.053  15.311   2.433
92843W        W65103  44.881  14.502   0.178
92844W        W65104  22.582  21.513   1.174
92845W        W65105  37.646  35.704  14.737
92846W        W65106  38.522  30.924   3.639
92847W        W65107  40.792  11.257   4.169
92848W        W65108   0.426  29.959  14.820
92849W        W65109   9.596  37.462  14.023
92850W        W65110  43.947   1.845  14.785
92851W        W65111  24.314  18.240  14.620
92852W        W65112   8.723  20.560  14.306
92853W        W65113  31.717  17.212  14.061
92854W        W65114   7.675   9.342  12.641
92855W        W65115  26.880  40.104  11.645
92856W        W65116  37.858   3.414   4.448
92857W        W65117  44.911   3.144   1.637
92858W        W65118  43.224  33.888   1.433
92859W        W65119  14.158  16.394   4.059
92860W        W65120  25.534  41.982  10.302
92861W        W65121  28.394  35.034   2.146
92862W        W65122  44.535   8.797   0.964
92863W        W65123  30.526  27.152   2.971
92864W        W65124  40.405  21.515   0.197
92865W        W65125  14.498  17.335   4.171
92866W        W65126  10.835  37.544  13.906
92867W        W65127  20.551  14.631  11.226
92868W        W65128  15.282  18.560   3.119
92869W        W65129  21.960  10.863  13.845
92870W        W65130  25.315   1.249   2.620
92871W        W65131   0.733  29.667   4.619
92872W        W65132  34.970  25.980  12.513
92873W        W65133  44.135  32.517  10.201
92874W        W65134  13.059  44.191  13.798
92875W        W65135  31.253  30.938  13.449
92876W        W65136  18.663  24.778   3.759
92877W        W65137   9.755  14.642  13.155
92878W        W65138  12.937  20.323  14.972
92879W        W65139  21.663  17.737  13.866
92880W        W65140  17.404  42.631   3.668
92881W        W65141  10.341   6.258   0.810
92882W        W65142  27.981  40.550  13.819
92883W        W65143  27.067   0.505  12.162
92884W        W65144  11.509   9.433  12.457
92885W        W65145  42.991  15.702   5.137
92886W        W65146  38.173  38.530   0.191
92887W        W65147  23.770   0.355   3.566
92888W        W65148  41.911  14.855  13.383
92889W        W65149  21.711  13.325   4.193
92890W        W65150   1.650   6.287  14.564
92891W        W65151  29.961  26.890   0.211
92892W        W65152  24.351  32.587  13.329
92893W        W65153  20.828   3.803  10.916
92894W        W65154   5.914  30.658  12.920
92895W        W65155  43.942  27.425  14.955
92896W        W65156  32.610  37.251  11.110
92897W        W65157  25.745   9.820  13.804
92898W        W65158  26.602  23.523   0.767
92899W        W65159  33.893   0.807  11.445
92900W        W65160  43.416  32.558   4.625
92901W        W65161  25.429  28.399  13.773
92902W        W65162  15.013  40.325  14.898
92903W        W65163   5.663  32.517   1.561
92904W        W65164  15.583   8.611  10.034
92905W        W65165  22.076   3.320  11.539
92906W        W65166  37.028  32.851  13.460
92907W        W65167  14.881  10.711  11.955
92908W        W65168   5.550   4.406   0.867
92909W        W65169  11.451  44.216  14.265
92910W        W65170  31.714  39.995   3.726
92911W        W65171  37.288  26.774   3.441
92912W        W65172  23.330  11.701  12.684
92913W        W65173  21.963   6.958   4.181
92914W        W65174  42.884  29.566   4.184
92915W        W65175  44.872   5.801  10.712
92916W        W65176   3.925  21.726   0.675
92917W        W65177   8.359   4.326  14.329
92918W        W65178  36.806  34.200  14.023
92919W        W65179  20.967   2.049   4.663
92920W        W65180   9.292  25.488   1.847
92921W        W65181  13.554  28.429   1.794
92922W        W65182  36.625   6.723  12.557
92923W        W65183  36.498  26.572   2.650
92924W        W65184  32.055   0.801  14.948
92925W        W65185   9.650  30.911   1.713
92926W        W65186  32.150  31.703   0.766
92927W        W65187   5.695  27.854   5.022
92928W        W65188   9.628  37.447  12.606
92929W        W65189  16.451   5.750  14.855
92930W        W65190  18.577  15.240  11.149
92931W        W65191  42.090  17.745   4.573
92932W        W65192  16.263  21.319  11.838
92933W        W65193  19.234  22.816  12.956
92934W        W65194  14.810  35.533   4.605
92935W        W65195   9.388  22.649  11.471
92936W        W65196  35.392  35.432  14.336
92937W        W65197  31.979  29.885   4.639
92938W        W65198  30.164  31.708  11.649
92939W        W65199  28.172  43.933  12.009
92940W        W65200  21.655  31.367   4.722
92941W        W65201  22.965  20.769  13.322
92942W        W65202   7.258   1.878   3.690
92943W        W65203  31.175  24.494   2.264
92944W        W65204  36.604  40.873  13.504
92945W        W65205   8.097  34.284  10.986
92946W        W65206  13.701   3.870  10.903
92947W        W65207   9.709  17.346  14.254
92948W        W65208  13.653   0.228   0.917
92949W        W65209  36.105  36.399  14.023
92950W        W65210  13.289  42.915   1.912
92951W        W65211  18.242  32.400  14.466
92952W        W65212  28.075   0.049  11.112
92953W        W65213  23.022  25.221  14.201
92954W        W65214  30.841   2.215   2.149
92955W        W65215  14.108  36.516   2.279
92956W        W65216  43.429  22.681   2.699
92957W        W65217  15.556  31.673  14.146
92958W        W65218  18.459  12.812   0.887
92959W        W65219  11.372  27.329  14.846
92960W        W65220  36.683  28.045   3.871
92961W        W65221   6.985   2.198   3.394
92962W        W65222  36.904  19.514   3.245
92963W        W65223  21.335  20.315   5.005
92964W        W65224  11.080  37.417  12.692
92965W        W65225  42.428  31.989  12.297
92966W        W65226  21.689   2.669   1.825
92967W        W65227  44.375   6.692   4.815
92968W        W65228  29.151  10.222   1.376
92969W        W65229  28.526  41.465  11.954
92970W        W65230  13.684   4.673   1.839
92971W        W65231  19.164  13.696  14.354
92972W        W65232   3.645   7.362   4.916
92973W        W65233   2.441  31.476  14.283
92974W        W65234  18.200   5.800   3.182
92975W        W65235  23.252  43.494   3.736
92976W        W65236  37.519  41.316  12.880
92977W        W65237   1.797   9.871  14.806
92978W        W65238  22.093  36.055   2.813
92979W        W65239  25.910  22.085   2.211
92980W        W65240  36.631   1.898   0.427
92981W        W65241  30.626  24.457   1.816
92982W        W65242  33.354  20.386  13.831
92983W        W65243  15.818  15.580  13.447
92984W        W65244  35.425  29.235   0.199
92985W        W65245  17.309  25.453   2.240
92986W        W65246  42.844  16.288   4.495
92987W        W65247  34.995  15.011   2.722
92988W        W65248   7.133  38.856   1.793
92989W        W65249  26.062  28.526  10.596
92990W        W65250   3.433  25.363   4.104
92991W        W65251  26.077  35.935   0.422
92992W        W65252   2.962   0.790   1.438
92993W        W65253  43.421  37.539  12.332
92994W        W65254  13.151  26.494  13.184
92995W        W65255   5.301  15.820   0.323
92996W        W65256  36.013  25.563   3.758
92997W        W65257   0.747  14.434  13.328
92998W        W65258  21.683  21.640   3.958
92999W        W65259  39.645  11.141  14.892
93000W        W65260  35.763  22.528   4.059
93001W        W65261  37.289   5.606  14.916
93002W        W65262  41.554  34.336   0.414
93003W        W65263   6.655   0.276  11.939
93004W        W65264   7.177  12.123  12.964
93005W        W65265   7.587  16.719   1.703
93006W        W65266  23.556  23.595  13.481
93007W        W65267   2.017  39.318   2.927
93008W        W65268  20.677  16.194   4.920
93009W        W65269  14.342  21.051   3.699
93010W        W65270  12.002  43.957  11.899
93011W        W65271  30.060  31.502   4.809
93012W        W65272  28.671  36.863   3.711
93013W        W65273  16.163  35.550   1.706
93014W        W65274  29.098   9.406   2.924
93015W        W65275  28.447  17.306   5.211
93016W        W65276   5.414   4.486   2.300
93017W        W65277  32.340  41.362  14.947
93018W        W65278  19.064  14.510  13.935
93019W        W65279  32.572  14.276  12.501
93020W        W65280  41.097   2.913  13.533
93021W        W65281  33.071   7.202   2.078
93022W        W65282  11.975  27.801   5.452
93023W        W65283  31.336  24.634   1.241
93024W        W65284  19.328   9.295   2.265
93025W        W65285  23.818   8.864   1.929
93026W        W65286  15.296   1.921   0.265
93027W        W65287   6.338  22.592   2.596
93028W        W65288  23.169   8.926  13.746
93029W        W65289   2.812  41.184  14.885
93030W        W65290  31.629  18.296  12.982
93031W        W65291  40.258   7.871   3.859
93032W        W65292  33.511   2.940   3.063
93033W        W65293  13.424  32.578   4.676
93034W        W65294  23.266  43.273  12.148
93035W        W65295  38.774  43.284  14.806
93036W        W65296  13.085  36.235  14.777
93037W        W65297  18.126  21.195  10.811
93038W        W65298  13.808  39.826  11.446
93039W        W65299  41.261  14.264   4.046
93040W        W65300  18.355  35.549   4.194
93041W        W65301  16.611   4.351  12.928
93042W        W65302   1.275  25.329   4.947
93043W        W65303  38.891   4.317  12.581
93044W        W65304  40.527  39.751  12.371
93045W        W65305   1.337   6.499  12.524
93046W        W65306   4.133   9.042  13.573
93047W        W65307   0.824  44.749  12.274
93048W        W65308   1.586  44.056  13.761
93049W        W65309  20.729  11.652   1.415
93050W        W65310  44.321  17.012   4.116
93051W        W65311   5.940  35.926   0.255
93052W        W65312  28.102  17.694   4.106
93053W        W65313   3.307  32.892   0.992
93054W        W65314  12.804   7.886  14.254
93055W        W65315   8.693  40.794  11.298
93056W        W65316  35.377  28.560   3.728
93057W        W65317   1.321  28.092   1.344
93058W        W65318  15.732   5.806   4.598
93059W        W65319  28.049  19.072   0.491
93060W        W65320  11.427   1.391  11.634
93061W        W65321  19.202  15.648  14.951
93062W        W65322  34.142   6.869   4.546
93063W        W65323  19.226  11.301   1.660
93064W        W65324  38.859  42.911  11.318
93065W        W65325  33.658  39.804  13.133
93066W        W65326  27.978  16.632   1.332
93067W        W65327  27.616  35.672   4.966
93068W        W65328  29.912  32.415   1.123
93069W        W65329  12.641  16.564   2.607
93070W        W65330  27.759  43.879   0.402
93071W        W65331  36.398  10.383   4.655
93072W        W65332  42.694   9.809  13.013
93073W        W65333  32.258  26.676  14.882
93074W        W65334  42.373   2.312   1.342
93075W        W65335   1.239  31.432  12.158
93076W        W65336  11.880  33.309   5.077
93077W        W65337  17.650  27.705  12.958
93078W        W65338  42.979  15.297  12.930
93079W        W65339  21.931  22.121   3.838
93080W        W65340  24.963   8.896  11.010
93081W        W65341  10.080  17.555  14.950
93082W        W65342  40.463   2.129   0.971
93083W        W65343  34.000  25.349   2.846
93084W        W65344  31.133  20.053  12.636
93085W        W65345  16.653   0.106   3.416
93086W        W65346  20.610   4.567  12.476
93087W        W65347  11.277  13.672   0.724
93088W        W65348  10.443  21.440   4.119
93089W        W65349   3.863  13.778  13.604
93090W        W65350  29.160  19.838   4.150
93091W        W65351  38.901  13.543   4.689
93092W        W65352  13.296  30.145   2.667
93093W        W65353  30.502  11.034  13.046
93094W        W65354  39.576  29.863  12.043
93095W        W65355  27.121  18.675  13.028
93096W        W65356  44.861  21.288   0.976
93097W        W65357  41.629  44.838  11.832
93098W        W65358   3.188  34.503   4.069
93099W        W65359  30.458   7.656  14.430
93100W        W65360  31.040  22.953   2.334
93101W        W65361   3.454  43.088  11.253
93102W        W65362  23.626  36.536   1.974
93103W        W65363   8.718  17.456  12.519
93104W        W65364  34.369  36.357  11.499
93105W        W65365  24.414   2.183   0.550
93106W        W65366  21.699  43.848  13.884
93107W        W65367   8.347  35.004   0.263
93108W        W65368  40.438   9.305  11.220
93109W        W65369  37.365   4.846  14.246
93110W        W65370   3.263  17.393  14.545
93111W        W65371   9.589  18.811   4.616
93112W        W65372  25.580  38.346   3.308
93113W        W65373  31.460   5.079  12.620
93114W        W65374  24.600  42.536  14.252
93115W        W65375  41.050  32.933   0.382
93116W        W65376   8.368  31.433  13.399
93117W        W65377  27.442  23.697   2.394
93118W        W65378   6.140  15.271  10.995
93119W        W65379  25.192  16.823  13.437
93120W        W65380   4.004  35.440   0.198
93121W        W65381  37.966  35.375   0.043
93122W        W65382  20.453  18.156   0.932
93123W        W65383  44.727   2.247  14.478
93124W        W65384  40.972  43.290   0.433
93125W        W65385  18.871  20.685  13.374
93126W        W65386  38.151  43.427  13.719
93127W        W65387  24.435  34.349   1.294
93128W        W65388   6.833  12.704   4.334
93129W        W65389  19.769  30.853  13.937
93130W        W65390  30.465  33.298   3.763
93131W        W65391   0.330  29.728  11.613
93132W        W65392  43.128   2.346   0.825
93133W        W65393  25.279  20.716  11.068
93134W        W65394   6.200  13.126   4.585
93135W        W65395  44.970  38.472   2.670
93136W        W65396  26.084  19.859   2.880
93137W        W65397  27.136  24.494  11.525
93138W        W65398  44.975  29.202  10.507
93139W        W65399   1.932  13.895  11.156
93140W        W65400  24.086  12.970   2.664
93141W        W65401  39.382  44.265  13.517
93142W        W65402   2.403   0.783   5.052
93143W        W65403  13.360  31.471   2.712
93144W        W65404  11.951  42.445  14.289
93145W        W65405  23.850  12.717  12.942
93146W        W65406  19.575   4.356  10.711
93147W        W65407  28.882  14.718  13.030
93148W        W65408  16.522   6.322  12.028
93149W        W65409  34.057  41.749  11.450
93150W        W65410   7.165  35.509  12.507
93151W        W65411  29.305  18.636   4.810
93152W        W65412  21.165  38.819   4.552
93153W        W65413  37.056  15.355   3.746
93154W        W65414  30.098  21.656   0.825
93155W        W65415  30.588  14.116  12.440
93156W        W65416  21.183   4.188  10.798
93157W        W65417  41.842  36.725   2.235
93158W        W65418  11.593   9.108  11.605
93159W        W65419   4.963  14.239   5.044
93160W        W65420  40.972  12.410  13.054
93161W        W65421  30.329  34.959  13.720
93162W        W65422  40.160   9.408   0.417
93163W        W65423  44.232  12.090  13.041
93164W        W65424  14.437  21.355  11.819
93165W        W65425   1.316  32.276  14.617
93166W        W65426  20.071   2.750   1.712
93167W        W65427   3.957  44.702   0.978
93168W        W65428  28.614  20.573  13.378
93169W        W65429   5.946   9.295   3.071
93170W        W65430  20.041  39.010  14.096
93171W        W65431  16.349  25.961   0.794
93172W        W65432  14.583   6.172   2.858
93173W        W65433   3.781  31.266  14.916
93174W        W65434  18.086  25.122  11.186
93175W        W65435  33.455  29.638  13.415
93176W        W65436  35.029  36.342  12.988
93177W        W65437  30.980   0.576  14.861
93178W        W65438  16.812  38.434   2.553
93179W        W65439  23.051  22.667   2.473
93180W        W65440  31.967  26.783  10.437
93181W        W65441  11.149  41.230  12.874
93182W        W65442   5.397   1.027   3.929
93183W        W65443  40.797   3.144  12.632
93184W        W65444  37.445  36.411  13.831
93185W        W65445  29.943  12.229  10.784
93186W        W65446  40.528  40.151  14.483
93187W        W65447  23.034  19.683  10.742
93188W        W65448  11.352  38.398   3.509
93189W        W65449  37.352  44.772  12.833
93190W        W65450   2.204  36.453   0.673
93191W        W65451  44.977  23.931   4.508
93192W        W65452   8.984  44.801  11.757
93193W        W65453   0.939   4.657  11.551
93194W        W65454   8.613  34.971  11.918
93195W        W65455  13.073  35.367  10.661
93196W        W65456   7.756  41.542   2.722
93197W        W65457  21.776  29.075   4.236
93198W        W65458  22.913  36.532  14.290
93199W        W65459  18.244   8.371  14.358
93200W        W65460  21.171  12.189   5.117
93201W        W65461  15.254  36.385  14.767
93202W        W65462  13.857  11.457  11.254
93203W        W65463  13.812   8.716   0.412
93204W        W65464  28.060   4.335   1.420
93205W        W65465  15.679  18.075   1.844
93206W        W65466  24.694  27.107   4.387
93207W        W65467  29.762   7.775  12.404
93208W        W65468   2.251   8.639   2.146
93209W        W65469  43.484  34.052   4.582
93210W        W65470  11.690  32.110  11.920
93211W        W65471   6.870   9.167   1.831
93212W        W65472   1.510  12.400   0.441
93213W        W65473  43.692  28.835   3.037
93214W        W65474   1.767  32.982   2.603
93215W        W65475  12.727   2.305   3.616
93216W        W65476  22.843  17.324   0.749
93217W        W65477  14.246  41.366  11.210
93218W        W65478   9.100   3.847  12.397
93219W        W65479  38.967  39.037  12.393
93220W        W65480  20.947  14.782   0.893
93221W        W65481  17.245  18.366   2.778
93222W        W65482  37.037  37.262  12.566
93223W        W65483  27.502  38.779   4.502
93224W        W65484   3.282  28.414  11.902
93225W        W65485  13.877  26.222  12.641
93226W        W65486  43.528   2.331   3.546
93227W        W65487  24.124  27.567   3.230
93228W        W65488  20.015  30.773   3.193
93229W        W65489  21.508   7.333  14.167
93230W        W65490  42.926  31.510  13.463
93231W        W65491  25.523  38.870  10.695
93232W        W65492  21.353  29.344   4.145
93233W        W65493  44.716  25.674   0.920
93234W        W65494  36.089  28.967  11.276
93235W        W65495  24.034   8.439   1.632
93236W        W65496   7.686  22.727  12.029
93237W        W65497  32.184  18.736  11.131
93238W        W65498  30.221  34.372  11.551
93239W        W65499   6.508  24.528   1.934
93240W        W65500  39.639  21.620   1.899
93241W        W65501  26.057  43.952   3.460
93242W        W65502  44.627   9.287   3.629
93243W        W65503  41.291  11.559  12.364
93244W        W65504   5.760   4.191  14.259
93245W        W65505  28.456  16.207  13.048
93246W        W65506   9.663  14.566  12.396
93247W        W65507   6.904  22.802   3.302
93248W        W65508   3.868  29.185   4.888
93249W        W65509  20.143  40.117   0.409
93250W        W65510  41.220  43.210  12.465
93251W        W65511   2.212  26.667   1.274
93252W        W65512  31.103   9.447   1.622
93253W        W65513   2.107   5.455  12.126
93254W        W65514  42.390  11.267  10.557
93255W        W65515  42.716  28.596  10.467
93256W        W65516  18.628  27.420  11.550
93257W        W65517  43.800  19.578   0.833
93258W        W65518  31.541  14.399  12.539
93259W        W65519   1.011  29.141  11.742
93260W        W65520  43.660  26.983   0.003
93261W        W65521  32.073  36.283  10.181
93262W        W65522  32.625  23.758   2.347
93263W        W65523  23.588  12.422   4.337
93264W        W65524  28.424  42.312   3.270
93265W        W65525  22.617  27.483   3.215
93266W        W65526   8.365  15.756  12.576
93267W        W65527  23.035  27.717   2.387
93268W        W65528  42.016  19.303  11.100
93269W        W65529  27.073  28.158   1.253
93270W        W65530   6.483  42.222   5.010
93271W        W65531  38.916   6.653  11.461
93272W        W65532   6.854  18.277   1.394
93273W        W65533  32.169  21.645  12.270
93274W        W65534  27.964  29.886   3.239
93275W        W65535   3.917   4.429  11.682
93276W        W65536  39.982  40.269   4.177
93277W        W65537   0.755  13.444   2.286
93278W        W65538  44.442  37.068   4.594
93279W        W65539  37.525  17.207   2.942
93280W        W65540  35.825  16.794  14.538
93281W        W65541   0.219   7.941  12.009
93282W        W65542  43.338  16.339  12.134
93283W        W65543  23.421  21.102  11.552
93284W        W65544  32.107  26.124   2.644
93285W        W65545  36.054  39.086   4.213
93286W        W65546  25.017  10.640   2.521
93287W        W65547   6.933  33.968   3.721
93288W        W65548  42.087   4.595  11.145
93289W        W65549  26.446  13.147  13.894
93290W        W65550  33.092  31.660  11.910
93291W        W65551  19.833  14.737  14.317
93292W        W65552  44.488  24.132   4.566
93293W        W65553   1.890   4.384  13.068
93294W        W65554  17.142  37.335  14.778
93295W        W65555  44.133  40.054  11.688
93296W        W65556  13.866  29.412  11.999
93297W        W65557  32.156  19.188  13.989
93298W        W65558  25.408  39.285  12.503
93299W        W65559   5.283   1.014   2.291
93300W        W65560  31.103  40.596   4.314
93301W        W65561  23.745  43.258  13.987
93302W        W65562  37.068  15.255  11.078
93303W        W65563  28.194  10.760   3.221
93304W        W65564  21.074  36.519   4.615
93305W        W65565   9.226  22.598   4.558
93306W        W65566  29.961  30.477  13.536
93307W        W65567   7.747  37.848  13.680
93308W        W65568   9.259  18.806   2.120
93309W        W65569  29.224   9.615  11.999
93310W        W65570   0.239  28.857  14.031
93311W        W65571   2.849  34.901   0.195
93312W        W65572  22.063  27.548   4.004
93313W        W65573  40.008  33.450  13.368
93314W        W65574  15.584  13.801   3.688
93315W        W65575  37.421  32.113  10.402
93316W        W65576  35.872  21.266  13.539
93317W        W65577  19.666  17.063  14.411
93318W        W65578  12.278  40.866  13.843
93319W        W65579   2.339  35.296  11.560
93320W        W65580  20.236   4.411  11.214
93321W        W65581  10.373   4.005   3.054
93322W        W65582  34.539  43.298   2.254
93323W        W65583  44.951   8.342  14.515
93324W        W65584  18.588  18.261  13.165
93325W        W65585  33.468  17.550   4.178
93326W        W65586  44.326  13.523   1.658
93327W        W65587  20.113  20.200  13.996
93328W        W65588  38.408  26.918  11.513
93329W        W65589  34.946  17.775  14.609
93330W        W65590  22.662   6.873   0.496
93331W        W65591   6.950  29.676  14.063
93332W        W65592  34.426  12.606  11.202
93333W        W65593  13.457  42.493   1.084
93334W        W65594  16.639  32.628  13.347
93335W        W65595   9.363  30.838  12.999
93336W        W65596  31.403   3.038  14.214
93337W        W65597  38.992   2.885   3.772
93338W        W65598  25.061  39.079   2.167
93339W        W65599  26.473   8.405   4.403
93340W        W65600  35.898  10.096  12.843
93341W        W65601  32.726   0.268   3.262
93342W        W65602  40.940  36.466  13.583
93343W        W65603  38.864  16.858  11.453
93344W        W65604  34.371  18.976  11.102
93345W        W65605  29.602  20.455   0.713
93346W        W65606  21.795   2.162   1.619
93347W        W65607  36.437  41.480  10.181
93348W        W65608  16.355  22.596  10.010
93349W        W65609   8.750   6.268  11.552
93350W        W65610  29.423  25.109   0.310
93351W        W65611  17.157  33.949  13.472
93352W        W65612  26.481  36.822  12.601
93353W        W65613  30.934  31.592  13.442
93354W        W65614  32.140  13.270   2.300
93355W        W65615  24.212  11.840  12.075
93356W        W65616  31.921  24.837  11.182
93357W        W65617   3.375  16.424  11.843
93358W        W65618  20.847  30.489   4.774
93359W        W65619  34.400   9.247  10.623
93360W        W65620  20.596  22.639  11.818
93361W        W65621  41.245   9.347   2.452
93362W        W65622  20.046   8.913   3.109
93363W        W65623   5.964  37.542   4.220
93364W        W65624  23.291  10.019  13.001
93365W        W65625  24.769  31.619   1.480
93366W        W65626  43.467  19.768   2.750
93367W        W65627  39.476  44.382  11.489
93368W        W65628   6.930  38.858   0.818
93369W        W65629  15.143   5.662  11.420
93370W        W65630  27.891  35.376   3.764
93371W        W65631  41.608  39.985   1.376
93372W        W65632  37.212  42.427  12.471
93373W        W65633  18.981  40.831  13.516
93374W        W65634  10.062  24.509   1.607
93375W        W65635  11.895  37.808  13.555
93376W        W65636  16.252   0.412   3.314
93377W        W65637  43.397  28.066   2.276
93378W        W65638  12.405  34.066   0.867
93379W        W65639  36.905   9.792   3.203
93380W        W65640   4.373  23.960   1.797
93381W        W65641  28.830  28.134   1.502
93382W        W65642  24.281  28.497  14.854
93383W        W65643  42.878  35.911   1.813
93384W        W65644  19.728  39.426   2.391
93385W        W65645  22.590  23.924  14.352
93386W        W65646  16.599  23.528   4.093
93387W        W65647  31.770  20.204  11.146
93388W        W65648  36.434  29.617   1.652
93389W        W65649  24.426  25.701   5.175
93390W        W65650   0.651   3.876  14.360
93391W        W65651  13.653   5.645   0.491
93392W        W65652  22.803  43.483  11.974
93393W        W65653  10.784   3.340  14.931
93394W        W65654  18.653   2.892   0.893
93395W        W65655  29.427  13.161   1.002
93396W        W65656   5.695  37.637   0.846
93397W        W65657   8.590  28.503  14.960
93398W        W65658   5.420  31.522   1.455
93399W        W65659  32.407  22.157   1.424
93400W        W65660  36.074   7.875  12.641
93401W        W65661  43.987  23.201   4.587
93402W        W65662  33.121  18.712   3.634
93403W        W65663   5.263  16.663   4.562
93404W        W65664  36.547  17.470   1.735
93405W        W65665  38.995  23.221   0.460
93406W        W65666  44.375  14.017   2.233
93407W        W65667  37.134  33.630   1.804
93408W        W65668  38.173  13.099  11.445
93409W        W65669   7.778   8.429  12.751
93410W        W65670  37.827  26.635   1.872
93411W        W65671  44.874  24.318   4.890
93412W        W65672  27.077  28.358   3.119
93413W        W65673  14.746  10.099   1.261
93414W        W65674  38.391  35.564   4.420
93415W        W65675  29.647  35.098  13.458
93416W        W65676   7.722  22.539   0.898
93417W        W65677   9.749  14.505  11.481
93418W        W65678   1.724  39.859   2.670
93419W        W65679  43.471  25.271   0.284
93420W        W65680  32.934  17.366  12.305
93421W        W65681  40.503  34.108  12.651
93422W        W65682  36.025  33.163  12.910
93423W        W65683  22.284  20.970  14.247
93424W        W65684   4.165  39.698   0.935
93425W        W65685  30.381  40.120   1.833
93426W        W65686  33.682  32.163  14.920
93427W        W65687  35.617  14.207   1.868
93428W        W65688  27.168  30.595   4.578
93429W        W65689  32.297   5.767   2.308
93430W        W65690  42.112  20.825   2.788
93431W        W65691  32.886  36.615   3.214
93432W        W65692  11.189  42.975  12.038
93433W        W65693  23.235  19.975   2.246
93434W        W65694  13.883  29.550   1.018
93435W        W65695  10.700  22.736  11.164
93436W        W65696   2.764  33.087   3.740
93437W        W65697  35.403  27.730  12.306
93438W        W65698   1.299  15.136  12.083
93439W        W65699  26.122  31.539   1.944
93440W        W65700  41.799   5.460  12.471
93441W        W65701  22.528   6.319  11.420
93442W        W65702  11.563  10.438  14.049
93443W        W65703  28.752  24.543  14.400
93444W        W65704   6.502   5.694  11.692
93445W        W65705  22.212   8.789   4.639
93446W        W65706  14.647  11.975   4.666
93447W        W65707  43.518  38.456  11.822
93448W        W65708  30.428  28.010  12.443
93449W        W65709  44.307  33.658  11.993
93450W        W65710  32.603  24.209  11.095
93451W        W65711   1.271   9.234  10.616
93452W        W65712  44.881  38.448  12.075
93453W        W65713  25.090  27.722   1.223
93454W        W65714  20.620  23.210   1.008
93455W        W65715  41.821  38.788   4.736
93456W        W65716  30.127  37.462  12.251
93457W        W65717  43.468   6.460   1.220
93458W        W65718  35.071   0.348  12.977
93459W        W65719   7.421  22.575  12.487
93460W        W65720  35.495  20.793   0.292
93461W        W65721  36.548   6.335   2.832
93462W        W65722  25.415   9.707  12.838
93463W        W65723  32.132  20.703   2.307
93464W        W65724   2.995  28.592  13.866
93465W        W65725  23.390  14.805   2.348
93466W        W65726  30.009  38.146  13.502
93467W        W65727  10.733   2.467   4.048
93468W        W65728   9.260   1.953   2.166
93469W        W65729  38.959   5.436  14.254
93470W        W65730   1.768  19.649  14.242
93471W        W65731  20.757   2.408   2.888
93472W        W65732   1.390   7.098   3.020
93473W        W65733  43.004   1.880  11.916
93474W        W65734   1.889  10.218  13.767
93475W        W65735   3.718  30.169   2.805
93476W        W65736  13.772  41.503  13.400
93477W        W65737  11.670  30.644  14.522
93478W        W65738  42.055  32.934  11.978
93479W        W65739  25.568   0.198  13.798
93480W        W65740  26.200  15.909  10.385
93481W        W65741   7.382  44.963   1.909
93482W        W65742   2.164  18.547  11.097
93483W        W65743  37.598  29.080   0.733
93484W        W65744  41.879   4.252   1.636
93485W        W65745  27.202  44.347  14.396
93486W        W65746  36.580   2.234   1.740
93487W        W65747  16.984   9.529  12.651
93488W        W65748   6.732   7.846   3.653
93489W        W65749   8.375  34.496   1.502
93490W        W65750  38.517   0.386   3.042
93491W        W65751  16.495   1.741   1.704
93492W        W65752   4.034  10.591  14.923
93493W        W65753  43.174  32.101   1.838
93494W        W65754  23.153  31.670   0.178
93495W        W65755   2.927   7.935   1.691
93496W        W65756  27.181  22.997   3.231
93497W        W65757  41.848  18.030  14.293
93498W        W65758  35.059   3.197  10.696
93499W        W65759  19.553  13.817  11.236
93500W        W65760  43.384  20.993  10.673
93501W        W65761   3.577  37.318  10.191
93502W        W65762   4.845  26.682  14.386
93503W        W65763  32.305  33.702   3.293
93504W        W65764  10.706  14.777   2.258
93505W        W65765   8.221  43.424   0.211
93506W        W65766  13.052  10.118  13.928
93507W        W65767   8.816  36.623  14.330
93508W        W65768  24.141   3.403  14.007
93509W        W65769  37.099   3.363   1.418
93510W        W65770   4.863  24.273   3.554
93511W        W65771  30.680  34.494  12.554
93512W        W65772  20.158  36.472   2.493
93513W        W65773  35.697  20.962  10.412
93514W        W65774  43.000  26.367  10.981
93515W        W65775   7.780  41.807  10.445
93516W        W65776  36.317  31.911   1.760
93517W        W65777  40.014   1.191  12.616
93518W        W65778  10.179  31.074   1.748
93519W        W65779  38.912  15.867  12.452
93520W        W65780   7.921  25.108   0.820
93521W        W65781  30.682  14.363   2.311
93522W        W65782  42.057  42.241  13.546
93523W        W65783  12.798   2.496   4.091
93524W        W65784  31.640   6.708   1.250
93525W        W65785  38.525   5.909   0.753
93526W        W65786  25.852   7.906  12.466
93527W        W65787  34.332   8.142   4.138
93528W        W65788  29.107  37.553  11.601
93529W        W65789   7.004  40.925   4.839
93530W        W65790  13.454  23.714  13.951
93531W        W65791  29.453   8.524  12.451
93532W        W65792   0.375  41.068  14.418
93533W        W65793  27.333   2.612  12.075
93534W        W65794   1.770  36.586   3.815
93535W        W65795  24.252   9.179  12.162
93536W        W65796  11.741   6.772   3.756
93537W        W65797   2.559  21.071  12.845
93538W        W65798  12.154  24.584   1.340
93539W        W65799   0.532   0.416   1.861
93540W        W65800   4.809  20.990   0.443
93541W        W65801  42.000  27.604  14.455
93542W        W65802  31.455  40.542  13.566
93543W        W65803  15.561  27.142  13.739
93544W        W65804  15.959  10.760   2.727
93545W        W65805  38.711   0.965   4.179
93546W        W65806  43.278   6.052  14.325
93547W        W65807  27.132  44.778  11.678
93548W        W65808  36.565  38.478   2.346
93549W        W65809  25.159   7.916   4.968
93550W        W65810   5.237  19.675  14.891
93551W        W65811  29.879  10.191  12.523
93552W        W65812  10.861  38.501   3.417
93553W        W65813   4.018  32.308   0.244
93554W        W65814  30.437  27.410  14.803
93555W        W65815  11.954  20.019   3.484
93556W        W65816   4.231  21.785  13.951
93557W        W65817  24.081  39.782   0.495
93558W        W65818   8.721  40.560   1.447
93559W        W65819  42.409   7.840   2.783
93560W        W65820   0.419  28.137   2.667
93561W        W65821  42.368  39.018  11.192
93562W        W65822   1.688   5.891  11.178
93563W        W65823  20.618   5.658   4.273
93564W        W65824  11.043  25.029   0.909
93565W        W65825   8.395  26.228   3.660
93566W        W65826   1.709  33.063  13.414
93567W        W65827  27.388  39.505   3.289
93568W        W65828  39.911   3.355   4.636
93569W        W65829  40.524  28.535  12.910
93570W        W65830  21.786  37.932  14.496
93571W        W65831  41.783   3.746   1.896
93572W        W65832  12.097  41.784   0.510
93573W        W65833  32.458  10.410  14.272
93574W        W65834  11.335  41.800   1.817
93575W        W65835  25.859  35.619   0.756
93576W        W65836  34.651  32.002  13.887
93577W        W65837  24.428  19.787  12.894
93578W        W65838   4.775   7.789   2.177
93579W        W65839  36.387   3.434  12.131
93580W        W65840  15.748  39.528   1.514
93581W        W65841  38.856  38.216  14.541
93582W        W65842  28.010   4.117  11.635
93583W        W65843   6.443  22.564  12.488
93584W        W65844  20.109  34.440  13.366
93585W        W65845  40.807  31.199   1.410
93586W        W65846  32.752  19.069  13.585
93587W        W65847  32.943  11.682  11.474
93588W        W65848  25.642  14.545   4.503
93589W        W65849  13.358   4.390   0.286
93590W        W65850  43.758   5.707  13.153
93591W        W65851  42.508   2.242   3.742
93592W        W65852  37.948  19.683   2.414
93593W        W65853   0.551   2.433   1.323
93594W        W65854  12.082   4.208   3.502
93595W        W65855   5.276  33.124   4.074
93596W        W65856  26.033  26.477  11.647
93597W        W65857   5.682  35.557  13.477
93598W        W65858  16.792  20.764   4.697
93599W        W65859  24.653  27.830   3.822
93600W        W65860  11.239  16.333   2.718
93601W        W65861  35.407  22.518  13.428
93602W        W65862  39.544  26.757   4.309
93603W        W65863  20.567  25.575   3.623
93604W        W65864  41.207  31.755   2.409
93605W        W65865  20.737   0.239  14.746
93606W        W65866  40.130  38.125   0.442
93607W        W65867  21.201  14.219  14.403
93608W        W65868  42.834  18.223   0.473
93609W        W65869  32.512  27.078  10.949
93610W        W65870  20.688  16.822  13.937
93611W        W65871   2.267  42.023   3.133
93612W        W65872  38.088  18.626  11.563
93613W        W65873  30.685  39.259  12.448
93614W        W65874  13.821  38.773  12.982
93615W        W65875   2.343   5.922  14.739
93616W        W65876   3.936  33.197   4.575
93617W        W65877  22.087   4.224   1.402
93618W        W65878   3.244  27.443   2.194
93619W        W65879   0.294  28.157   1.192
93620W        W65880  20.152  39.741  12.879
93621W        W65881  33.989  34.994   0.571
93622W        W65882  13.170  38.985   1.189
93623W        W65883  28.971  31.847   9.743
93624W        W65884   3.267   1.367   1.685
93625W        W65885  32.594  31.936   3.227
93626W        W65886  25.932  30.840  14.530
93627W        W65887  13.049  38.996  12.166
93628W        W65888  14.486   5.780  10.663
93629W        W65889  22.787  37.585   4.195
93630W        W65890   0.223  43.404   1.341
93631W        W65891  16.825  26.516   0.399
93632W        W65892  28.865   0.447  11.225
93633W        W65893  22.775  43.854   2.245
93634W        W65894  37.781  14.319   3.793
93635W        W65895  11.888  17.309  10.734
93636W        W65896  15.174  33.983  11.234
93637W        W65897   7.287   5.640  11.903
93638W        W65898  28.879  10.288  13.861
93639W        W65899  41.525  21.347   4.969
93640W        W65900  18.678  21.047   1.969
93641W        W65901  37.539  36.889  10.700
93642W        W65902  13.036  27.491   3.671
93643W        W65903  34.084   6.402   1.871
93644W        W65904   2.857  10.432  12.228
93645W        W65905  15.698  12.973   0.437
93646W        W65906  27.572  13.983  10.593
93647W        W65907  35.856  44.780   1.566
93648W        W65908  35.293  43.905   2.396
93649W        W65909   3.109   4.415  11.050
93650W        W65910   9.310  21.156  12.977
93651W        W65911   6.101  42.463   4.679
93652W        W65912   8.261  16.731   4.641
93653W        W65913   1.224  24.478  10.819
93654W        W65914   8.904  26.142  13.954
93655W        W65915  24.296  30.490   5.004
93656W        W65916  36.081  42.256  13.581
93657W        W65917  42.787  42.191  10.485
93658W        W65918  12.736  43.830  12.572
93659W        W65919  13.215  36.606   4.379
93660W        W65920  27.881  24.605   1.080
93661W        W65921  28.661  43.907  12.186
93662W        W65922  25.042  32.889   3.202
93663W        W65923  13.680  40.770  10.749
93664W        W65924   0.776  30.604  12.987
93665W        W65925  10.193  39.423  14.936
93666W        W65926   0.224  35.779   1.865
93667W        W65927  42.364  35.483  10.918
93668W        W65928   2.656  44.028  14.410
93669W        W65929  18.713  40.833  11.572
93670W        W65930  43.361  44.078  13.915
93671W        W65931  24.192  10.217  11.123
93672W        W65932  30.473  13.827   1.148
93673W        W65933  17.859  38.171   0.855
93674W        W65934  41.503   6.446  14.846
93675W        W65935   5.143  44.804  11.573
93676W        W65936   1.427  21.676  12.534
93677W        W65937  14.603  44.424   1.482
93678W        W65938  16.318  24.605  14.927
93679W        W65939   5.355  10.589   2.674
93680W        W65940  36.084  17.209   0.287
93681W        W65941  16.289  16.795   2.871
93682W        W65942   0.399  25.107   4.601
93683W        W65943   0.355  32.406  14.916
93684W        W65944  36.980   4.188   4.426
93685W        W65945  21.579   7.368   3.329
93686W        W65946  33.041  11.359  14.848
93687W        W65947  44.979   9.717   1.396
93688W        W65948  22.100  30.835  14.314
93689W        W65949  44.947  23.031  14.881
93690W        W65950  15.574  38.059   3.745
93691W        W65951  42.847   5.311   2.079
93692W        W65952  28.470  38.994   1.783
93693W        W65953  35.383  16.826  12.107
93694W        W65954   7.861  18.387   3.740
93695W        W65955  31.481  33.879   4.357
93696W        W65956   7.909  10.645   1.417
93697W        W65957  39.837  43.383   2.422
93698W        W65958   1.485  30.893   2.147
93699W        W65959  11.315  37.057  12.407
93700W        W65960   2.877  32.960   0.319
93701W        W65961  43.435  19.647  11.933
93702W        W65962  37.661   0.469   0.466
93703W        W65963  17.561  39.425   3.679
93704W        W65964  18.279   7.650  14.866
93705W        W65965  28.107  22.498  12.631
93706W        W65966   5.670  18.645  13.500
93707W        W65967  28.465   3.997   1.322
93708W        W65968  34.924  39.690   3.136
93709W        W65969  11.826  19.364  11.189
93710W        W65970  14.885  38.563   3.974
93711W        W65971  42.723  16.719  12.884
93712W        W65972  43.538  20.561  12.503
93713W        W65973  33.896  14.290   3.900
93714W        W65974  20.669   7.411   1.352
93715W        W65975  36.329  40.568  13.834
93716W        W65976  42.175  32.752  12.849
93717W        W65977  11.697   2.426   9.953
93718W        W65978  13.768  26.652   2.205
93719W        W65979  21.762  41.831  11.422
93720W        W65980  11.653  20.965   0.548
93721W        W65981  15.290  17.626   5.628
93722W        W65982  20.895  15.498   0.485
93723W        W65983  28.592  26.350   1.952
93724W        W65984  13.834   7.353  13.274
93725W        W65985  26.060  12.822   3.340
93726W        W65986   3.255   6.138  12.408
93727W        W65987  18.049  25.734  11.538
93728W        W65988  19.532  31.983  13.301
93729W        W65989  35.054  22.722   2.439
93730W        W65990  38.464   6.284  13.904
93731W        W65991   5.277  12.598  11.518
93732W        W65992  20.810  31.059  12.444
93733W        W65993  39.227   2.692  12.920
93734W        W65994  18.361  23.073  14.817
93735W        W65995  33.214  15.079  14.296
93736W        W65996  31.403  35.501  12.077
93737W        W65997   3.500  23.521  14.421
93738W        W65998  41.389  19.482  12.558
93739W        W65999  15.521   7.662  12.440
93740W        W66000  31.364  34.342  14.362
93741W        W66001   5.374  29.196   3.293
93742W        W66002  20.164   7.916   0.326
93743W        W66003  33.829  44.877   3.662
93744W        W66004  18.504  31.076   2.275
93745W        W66005  22.332  28.066  11.564
93746W        W66006   2.469  34.892  14.808
93747W        W66007   1.309  31.922  11.164
93748W        W66008  44.103  17.509  14.692
93749W        W66009  15.046  26.621  12.109
93750W        W66010  31.389  43.891  12.907
93751W        W66011  21.111  19.196  11.413
93752W        W66012  41.835   4.810  10.718
93753W        W66013  19.031  29.634   0.721
93754W        W66014   0.267  10.827   0.832
93755W        W66015   7.511   6.757   1.700
93756W        W66016  22.199  15.424  10.624
93757W        W66017  36.054  37.837   0.683
93758W        W66018   6.317  20.996  12.426
93759W        W66019  35.589  40.929   4.118
93760W        W66020   1.399   1.492   1.248
93761W        W66021  15.326  16.690  14.386
93762W        W66022  35.969  30.565   1.274
93763W        W66023  20.023   8.642  14.202
93764W        W66024  18.537  13.385   3.643
93765W        W66025  36.466  33.472   5.012
93766W        W66026  44.872  42.810  12.028
93767W        W66027   3.549  15.574   3.681
93768W        W66028  31.400  42.825   1.042
93769W        W66029  22.800  32.461   3.274
93770W        W66030  20.453  17.727   1.637
93771W        W66031  19.762  17.592  14.394
93772W        W66032  23.385  25.158  13.053
93773W        W66033   1.255  36.883   2.605
93774W        W66034  10.992  33.277   0.716
93775W        W66035  40.776  43.305   3.972
93776W        W66036  30.135  19.471   4.095
93777W        W66037  43.948   8.919   0.240
93778W        W66038  17.070  41.867   0.416
93779W        W66039  25.039  43.245   0.770
93780W        W66040  16.741   4.164   4.138
93781W        W66041  15.525  12.392  12.474
93782W        W66042   3.889  37.983  14.479
93783W        W66043  27.735  23.031   3.624
93784W        W66044  17.617   5.938  12.424
93785W        W66045  29.327  14.268  11.815
93786W        W66046  31.199   7.938  13.236
93787W        W66047  15.211  28.256   3.732
93788W        W66048  33.044  18.641  14.232
93789W        W66049   9.714  39.253   4.691
93790W        W66050  37.604   0.547   4.207
93791W        W66051   4.769  40.022  11.997
93792W        W66052  28.126  40.945   0.909
93793W        W66053  12.246  40.362  10.692
93794W        W66054  31.364  28.509  11.031
93795W        W66055  19.599   5.523   5.752
93796W        W66056  21.507  40.574  11.993
93797W        W66057  36.364  44.374   2.911
93798W        W66058   2.379  19.109  13.227
93799W        W66059  21.400  39.996   2.321
93800W        W66060  10.195  18.369   2.824
93801W        W66061  23.221   8.703  12.411
93802W        W66062  23.440   5.154  14.737
93803W        W66063  40.434   6.634  10.600
93804W        W66064  26.522  35.685  12.052
93805W        W66065  37.326  41.503  12.416
93806W        W66066  16.522  28.340  14.867
93807W        W66067  13.098  37.126   0.877
93808W        W66068  11.925  25.491   3.870
93809W        W66069  31.063  24.220   2.699
93810W        W66070   5.539   3.631   0.394
93811W        W66071  16.741  21.617  11.131
93812W        W66072  40.748  19.171   0.319
93813W        W66073  43.925   2.262   4.519
93814W        W66074  13.772  17.599   2.703
93815W        W66075  24.695  17.900  12.885
93816W        W66076  18.578  29.623   0.442
93817W        W66077  29.581  29.071   0.255
93818W        W66078  33.062   1.337   1.261
93819W        W66079  19.414  20.020   0.104
93820W        W66080   9.282  17.646   0.623
93821W        W66081   9.448  14.767  11.917
93822W        W66082   8.674  44.255   2.282
93823W        W66083  20.125  23.158  10.611
93824W        W66084  37.018  22.218  11.912
93825W        W66085  34.891  18.800   3.237
93826W        W66086  15.742  32.663   0.202
93827W        W66087  30.150  37.347  13.123
93828W        W66088  28.216  41.748   0.089
93829W        W66089  13.373  17.525   0.796
93830W        W66090   5.656  15.922   2.711
93831W        W66091  35.969  10.226   0.561
93832W        W66092  11.666  39.369   4.237
93833W        W66093  39.886  12.132   4.381
93834W        W66094  40.871   3.439  11.211
93835W        W66095   5.050  35.177   4.088
93836W        W66096  30.648  30.039   3.159
93837W        W66097  14.196  23.135   0.456
93838W        W66098   8.547  42.006   1.014
93839W        W66099  34.072  43.747   0.850
93840W        W66100   7.493  42.073  13.369
93841W        W66101  11.048  17.128   3.789
93842W        W66102  15.362  42.362   1.406
93843W        W66103  29.510  14.722  13.139
93844W        W66104  20.706  32.292  12.910
93845W        W66105  18.323  16.245  13.898
93846W        W66106  36.384   1.448   2.074
93847W        W66107  10.724   8.408   4.275
93848W        W66108  34.418  35.448   2.775
93849W        W66109  39.810   4.363  10.865
93850W        W66110  33.958  34.032   3.342
93851W        W66111  39.855   4.545  14.569
93852W        W66112  23.701  30.464   2.686
93853W        W66113  43.023   7.173   2.237
93854W        W66114  37.347   1.702  11.947
93855W        W66115  22.056   1.551   2.269
93856W        W66116   3.254   7.603   3.758
93857W        W66117   2.655  31.082  10.696
93858W        W66118   3.372  24.619   3.146
93859W        W66119  25.176  28.057  11.002
93860W        W66120   7.700  13.868  13.918
93861W        W66121  18.770  27.033  12.513
93862W        W66122  36.976  44.362  14.269
93863W        W66123  26.394   1.025   3.247
93864W        W66124  10.310  40.425  13.985
93865W        W66125   7.799  17.091  11.241
93866W        W66126   9.622  42.730   1.228
93867W        W66127  11.883  11.306  14.465
93868W        W66128  19.195   8.049   3.678
93869W        W66129  17.739  37.241  11.843
93870W        W66130  19.050  36.142  12.328
93871W        W66131  10.462  13.643   1.317
93872W        W66132   1.291  32.882   4.107
93873W        W66133  12.208  30.967   3.101
93874W        W66134  19.028  34.007  14.949
93875W        W66135  12.081   6.995   2.397
93876W        W66136   1.607  16.660   2.324
93877W        W66137  18.058   1.496  13.822
93878W        W66138   6.721  39.915   4.671
93879W        W66139  37.985  15.791  10.433
93880W        W66140  29.068  42.748  12.419
93881W        W66141   3.081  25.683  12.825
93882W        W66142   6.515  23.539   0.002
93883W        W66143  27.424  39.449   0.391
93884W        W66144  30.408  15.591   4.127
93885W        W66145  35.182  28.116  12.018
93886W        W66146  16.193   6.860  14.834
93887W        W66147  42.312  23.633   4.115
93888W        W66148  40.404  28.352   2.880
93889W        W66149  18.309  23.094  13.012
93890W        W66150   6.679  26.724   1.610
93891W        W66151   8.935   8.773  12.564
93892W        W66152  18.314  21.827   4.093
93893W        W66153   3.907  26.414   3.059
93894W        W66154  42.128  44.853   3.232
93895W        W66155   0.218   4.187  10.761
93896W        W66156  33.671  39.544  11.113
93897W        W66157  14.126  43.470  11.508
93898W        W66158  14.280  21.628  11.402
93899W        W66159  26.652  18.792  14.740
93900W        W66160  21.107  44.677  12.503
93901W        W66161  13.902  18.569   0.226
93902W        W66162  35.378  12.084  13.436
93903W        W66163   0.529   1.934   3.363
93904W        W66164  44.654  44.946  14.311
93905W        W66165  40.806  35.939  11.129
93906W        W66166  26.152  31.521  10.742
93907W        W66167  15.423  34.825  10.385
93908W        W66168  11.659  16.245   0.410
93909W        W66169  34.542  43.861   3.723
93910W        W66170  28.423  10.052  10.092
93911W        W66171  29.758  31.932   3.825
93912W        W66172  25.914  30.195  12.888
93913W        W66173  29.482  11.126  13.108
93914W        W66174  22.002   8.667  10.827
93915W        W66175  21.792   8.814  14.389
93916W        W66176  35.361  31.033   0.659
93917W        W66177  14.716   8.566  10.579
93918W        W66178  36.558  38.981  13.065
93919W        W66179   4.662  34.408  10.225
93920W        W66180  43.690  29.175  11.170
93921W        W66181  24.109  32.562   2.268
93922W        W66182  20.051  13.506  14.069
93923W        W66183  25.227  36.509  13.331
93924W        W66184  40.850  33.378  10.494
93925W        W66185  16.474  10.401   0.522
93926W        W66186  11.733  44.743  10.307
93927W        W66187  29.220  21.038   1.556
93928W        W66188   7.874   0.669  10.669
93929W        W66189  44.740  11.660   4.763
93930W        W66190  31.008   6.001  14.027
93931W        W66191  27.310  35.781   1.629
93932W        W66192   3.787   3.484   1.723
93933W        W66193  12.399  40.579  11.994
93934W        W66194  28.234  22.170   1.769
93935W        W66195  14.532  19.748  11.105
93936W        W66196  31.192  26.565  13.496
93937W        W66197  36.653  42.317   1.045
93938W        W66198  34.335   0.722  11.170
93939W        W66199  40.958  33.527  12.897
93940W        W66200  40.513  25.248   1.735
93941W        W66201  21.283  33.649   0.938
93942W        W66202  40.287   3.973  13.409
93943W        W66203  35.522  12.095  14.969
93944W        W66204  30.173   6.295   2.933
93945W        W66205  44.933  37.801  13.852
93946W        W66206  24.344  16.760   1.439
93947W        W66207  24.212  44.094   1.902
93948W        W66208  17.509  30.903   2.111
93949W        W66209  18.031  41.807   4.116
93950W        W66210  32.101  10.399  13.464
93951W        W66211  14.255  27.513  10.152
93952W        W66212  34.662  28.973  14.344
93953W        W66213   5.827  21.989  10.999
93954W        W66214  33.555  23.985   3.676
93955W        W66215  32.502  19.931  14.820
93956W        W66216  22.134  21.173   4.568
93957W        W66217  36.508  40.317   1.503
93958W        W66218  18.977  35.164   1.749
93959W        W66219   0.398  34.043  12.091
93960W        W66220   1.441  22.112  11.695
93961W        W66221  22.200  17.770   2.923
93962W        W66222  10.152  33.939  12.134
93963W        W66223   3.440  37.476   2.320
93964W        W66224  42.912   3.718  14.532
93965W        W66225  24.303  33.971   1.823
93966W        W66226  37.526  41.315  13.849
93967W        W66227  23.438  33.885   2.665
93968W        W66228  37.437  36.579  11.131
93969W        W66229  36.563  30.166   0.846
93970W        W66230   2.943  37.426   0.294
93971W        W66231  32.984  20.620   3.259
93972W        W66232  22.089  37.467  11.968
93973W        W66233  24.051  30.978   3.159
93974W        W66234  44.521  22.243   3.202
93975W        W66235   8.518  35.661   1.813
93976W        W66236  41.274   1.969  12.473
93977W        W66237  34.162  26.455   4.548
93978W        W66238  18.742   4.416   0.290
93979W        W66239  37.318  24.064   4.064
93980W        W66240   5.298  17.312   4.066
93981W        W66241   6.405  31.143   4.200
93982W        W66242  43.833  15.677  12.212
93983W        W66243  19.637  32.294   0.463
93984W        W66244  27.722   7.845  14.496
93985W        W66245   1.265  12.587   3.638
93986W        W66246   5.629   3.236   2.775
93987W        W66247  37.592   3.641  14.275
93988W        W66248  44.969  23.373   2.665
93989W        W66249  38.780  44.139   3.985
93990W        W66250  12.434  23.365  14.022
93991W        W66251  14.540  30.529   2.781
93992W        W66252   9.165   7.322  11.852
93993W        W66253  11.448   4.159  11.631
93994W        W66254   4.035  16.846  10.028
93995W        W66255   6.937  32.391  11.610
93996W        W66256   5.878  29.564   3.608
93997W        W66257   8.613  31.507   2.715
93998W        W66258  15.007  30.022   2.464
93999W        W66259  22.478  21.713  13.051
94000W        W66260  37.870   3.070   4.059
94001W        W66261   6.535   3.004   0.512
94002W        W66262  33.645   2.936  11.567
94003W        W66263  25.457  35.747   5.137
94004W        W66264  39.566  44.780  14.877
94005W        W66265  38.961  27.351  12.574
94006W        W66266   9.173  32.073  12.425
94007W        W66267   5.685  34.912  13.900
94008W        W66268  38.449  42.831   4.616
94009W        W66269  18.789  40.852  10.678
94010W        W66270  35.192   3.889   2.020
94011W        W66271  22.631  12.482  13.585
94012W        W66272  22.663  18.067  11.030
94013W        W66273  19.080  34.985  13.747
94014W        W66274  34.534  25.094   0.779
94015W        W66275   0.756  30.472  14.340
94016W        W66276  19.485  12.461  13.027
94017W        W66277   1.466   0.198  10.940
94018W        W66278  19.085  24.378  11.287
94019W        W66279  38.054  17.082   4.676
94020W        W66280  16.763  41.713   0.013
94021W        W66281  39.548   9.422   4.611
94022W        W66282  13.541   0.427  12.087
94023W        W66283  40.600  21.610  14.204
94024W        W66284  24.164  14.279  14.304
94025W        W66285  17.555   0.445  11.572
94026W        W66286   5.935  13.278  13.973
94027W        W66287  12.124   5.614  12.506
94028W        W66288  14.532   7.199   4.193
94029W        W66289  37.427  27.041   1.842
94030W        W66290  30.560  32.292  11.931
94031W        W66291  20.523  21.268  11.402
94032W        W66292  26.574  35.062  10.590
94033W        W66293  27.402  36.107   0.930
94034W        W66294  16.485  25.091   0.203
94035W        W66295  15.796  30.328  11.976
94036W        W66296   4.307   3.111  12.825
94037W        W66297   3.874  34.261  13.101
94038W        W66298   2.317   2.811  13.324
94039W        W66299  21.234  19.634  14.474
94040W        W66300  14.665   4.444   2.400
94041W        W66301  29.889  29.443   0.007
94042W        W66302  20.244   4.163   1.403
94043W        W66303  41.485  38.865  14.270
94044W        W66304  36.513  12.863  11.162
94045W        W66305  33.907  15.651  11.969
94046W        W66306   3.685  33.388   3.334
94047W        W66307   0.554  11.778  11.078
94048W        W66308  13.848  17.698  13.547
94049W        W66309   4.703  12.274   0.430
94050W        W66310   3.803   0.399   1.164
94051W        W66311  34.993  19.759   2.897
94052W        W66312  11.790  11.357   4.210
94053W        W66313  29.089  24.795  14.075
94054W        W66314   7.708  10.586   3.394
94055W        W66315   9.836  22.632  11.771
94056W        W66316  31.494  22.753   1.622
94057W        W66317  18.347  22.826  14.067
94058W        W66318  10.478  11.695   2.716
94059W        W66319  43.641  32.190  13.850
94060W        W66320  36.008   3.706  10.958
94061W        W66321  17.308  37.534  11.986
94062W        W66322  37.823  31.343  14.755
94063W        W66323   2.701  29.903   0.338
94064W        W66324   2.419  42.511   0.568
94065W        W66325   2.499  10.819   4.443
94066W        W66326  17.224  24.225   2.595
94067W        W66327   4.361  23.134   0.708
94068W        W66328  42.813  30.369   1.421
94069W        W66329   8.147  20.695   2.776
94070W        W66330  39.763  18.188   0.713
94071W        W66331   0.389  41.264  10.663
94072W        W66332  43.877   2.030   3.232
94073W        W66333  29.675  31.165   0.032
94074W        W66334  26.761   1.146   0.115
94075W        W66335  38.242   8.776   2.203
94076W        W66336   9.459  37.474  13.518
94077W        W66337  22.818  40.807  12.153
94078W        W66338  32.683  29.006   3.692
94079W        W66339  18.038  17.195  11.922
94080W        W66340  42.448  18.119  12.529
94081W        W66341  32.194   6.743  11.613
94082W        W66342  31.556  17.754  14.791
94083W        W66343  27.890  14.945   0.351
94084W        W66344   6.517  43.763   3.232
94085W        W66345  40.059  38.561  11.467
94086W        W66346  33.373  29.433   2.316
94087W        W66347  23.063  43.395   0.969
94088W        W66348  23.575   6.942  12.485
94089W        W66349  10.230  44.962  14.049
94090W        W66350   6.902  31.154   3.532
94091W        W66351  14.082  11.138  11.604
94092W        W66352  21.108  44.026   2.294
94093W        W66353  29.001  35.932  10.774
94094W        W66354  34.049  42.280   0.970
94095W        W66355  33.341  15.315  11.876
94096W        W66356  18.086  20.410  12.888
94097W        W66357   7.421  33.117   4.146
94098W        W66358   4.406  26.660  11.131
94099W        W66359   0.512   9.292  11.972
94100W        W66360  30.998  41.215  11.239
94101W        W66361  39.490  40.629   0.713
94102W        W66362  36.780   0.940   4.373
94103W        W66363  28.602  20.422  14.861
94104W        W66364  37.115   4.934  11.617
94105W        W66365   4.823  28.891   1.668
94106W        W66366  26.233  17.758   3.908
94107W        W66367   2.227  32.498   4.866
94108W        W66368  15.295  24.699   1.395
94109W        W66369  15.845  42.823   0.015
94110W        W66370  13.099  11.486   3.789
94111W        W66371   8.356  26.709   1.087
94112W        W66372  17.229   7.279   1.024
94113W        W66373  42.775  18.025  11.189
94114W        W66374  17.551  19.085  10.377
94115W        W66375  40.768   7.139  11.644
94116W        W66376  13.316  10.119  11.636
94117W        W66377  41.979  12.044   0.764
94118W        W66378  10.187  43.062  10.751
94119W        W66379  17.621  21.953   2.099
94120W        W66380  34.178  25.279   4.348
94121W        W66381  26.718   6.973  13.449
94122W        W66382  32.388  13.989   4.116
94123W        W66383  20.391  36.008  11.903
94124W        W66384   4.596  43.768  10.199
94125W        W66385   4.270  20.991   0.317
94126W        W66386  37.852  37.646  12.457
94127W        W66387  24.546  30.883   1.991
94128W        W66388  33.465  29.120  13.527
94129W        W66389  27.176  26.128  14.539
94130W        W66390  16.831  37.551   2.720
94131W        W66391  29.437   1.234   1.901
94132W        W66392  29.192  30.656  10.343
94133W        W66393  30.641   4.636  12.544
94134W        W66394  19.265  28.158   0.787
94135W        W66395  10.078  34.652  10.166
94136W        W66396  15.232  35.526  11.612
94137W        W66397  23.097   2.336   4.499
94138W        W66398  30.349  30.584  14.485
94139W        W66399   6.858  40.826  12.506
94140W        W66400  38.554   3.894  13.327
94141W        W66401  30.977  21.261   4.967
94142W        W66402  29.415  16.210   1.349
94143W        W66403   7.668  13.245  12.346
94144W        W66404  21.013  31.001   0.471
94145W        W66405  31.604   4.071  10.730
94146W        W66406   2.692  34.583   1.029
94147W        W66407  27.122  41.565  14.475
94148W        W66408  43.005  44.688   2.382
94149W        W66409  33.061   7.916   1.230
94150W        W66410   0.203  19.348   4.102
94151W        W66411  36.076  30.324   4.903
94152W        W66412  43.740  33.052   2.868
94153W        W66413  27.485  18.319   3.634
94154W        W66414  27.513  12.502  12.230
94155W        W66415  16.661  19.141  14.464
94156W        W66416  10.449  20.190   2.812
94157W        W66417  29.834   7.371  12.917
94158W        W66418   8.629  33.390  14.281
94159W        W66419  26.950  20.141   1.780
94160W        W66420  15.584  19.594   4.120
94161W        W66421  31.815  28.410  10.786
94162W        W66422  32.394  44.526   1.788
94163W        W66423  15.648  35.131   0.898
94164W        W66424  43.961  32.605   3.581
94165W        W66425  26.256  28.758   2.173
94166W        W66426  26.537  12.497  12.436
94167W        W66427  28.156   2.728   0.032
94168W        W66428  43.456   4.784  13.080
94169W        W66429  38.604   9.325   3.340
94170W        W66430   3.184  19.271   0.908
94171W        W66431  20.629  35.788   2.417
94172W        W66432  18.099   4.207   3.476
94173W        W66433  39.845  40.435   1.309
94174W        W66434  44.179   4.981   4.155
94175W        W66435   2.446   5.150  14.035
94176W        W66436  19.155  42.808  11.113
94177W        W66437  40.390   0.112  13.010
94178W        W66438  38.052   5.800  10.983
94179W        W66439  39.478  37.597   4.237
94180W        W66440  31.798  37.274   2.215
94181W        W66441  36.455   3.447  10.898
94182W        W66442  27.940  41.284   2.734
94183W        W66443  19.868  24.010  12.955
94184W        W66444  17.103  34.107   1.181
94185W        W66445  19.627  31.485   3.278
94186W        W66446  24.793  36.438  11.899
94187W        W66447  29.446  15.764   1.657
94188W        W66448   2.902  30.928   1.709
94189W        W66449  39.389  26.211  11.671
94190W        W66450  17.709  23.516   2.121
94191W        W66451  11.492  18.680   1.363
94192W        W66452  38.626  29.054  12.793
94193W        W66453  29.089  34.141   1.779
94194W        W66454   1.720  20.299  14.908
94195W        W66455  18.629  24.264   3.712
94196W        W66456  41.758  19.705   3.793
94197W        W66457   4.310  28.770   1.764
94198W        W66458  34.340  22.333  11.608
94199W        W66459  28.138  37.815   3.417
94200W        W66460  39.471   3.449  12.488
94201W        W66461  38.018  42.480  14.229
94202W        W66462  13.770   8.188   2.325
94203W        W66463  32.888  36.362  11.153
94204W        W66464  39.159  32.954  13.441
94205W        W66465  11.743  31.897   4.635
94206W        W66466  19.610  24.030   1.336
94207W        W66467  33.357  42.428  11.259
94208W        W66468  11.114  19.733  12.544
94209W        W66469  22.804   0.450   0.715
94210W        W66470   8.108  19.821  11.073
94211W        W66471   9.127  30.077   2.342
94212W        W66472  35.711  21.200   3.640
94213W        W66473  10.608  38.365  11.596
94214W        W66474  16.556  26.495  13.975
94215W        W66475  20.012  33.016   0.882
94216W        W66476  36.849   3.828   1.347
94217W        W66477  17.036  25.651  10.087
94218W        W66478  13.829  20.965   4.615
94219W        W66479  43.055  16.709  10.667
94220W        W66480  27.036  11.162  14.687
94221W        W66481  28.078  23.934  12.556
94222W        W66482  23.745   7.621  14.479
94223W        W66483  10.174  30.623   4.915
94224W        W66484  34.154  29.466   3.616
94225W        W66485   5.331  43.284  10.644
94226W        W66486  33.638  15.744  12.606
94227W        W66487   7.249  28.938   4.390
94228W        W66488  24.781  25.372   1.780
94229W        W66489  29.740  16.980  13.866
94230W        W66490  25.186  35.966   3.349
94231W        W66491  36.801  24.071  13.255
94232W        W66492  31.075  20.822   3.784
94233W        W66493  33.544  36.803  14.959
94234W        W66494  12.025  22.051  14.176
94235W        W66495   7.049  22.135  10.638
94236W        W66496  37.043  16.241   3.907
94237W        W66497  26.421  14.107  10.351
94238W        W66498  31.936  13.784   2.013
94239W        W66499   7.787  19.388  14.639
94240W        W66500   8.245  22.058   2.600
94241W        W66501  37.284  41.792  11.970
94242W        W66502  43.333  38.275  13.423
94243W        W66503  26.399  13.289   3.178
94244W        W66504  11.842  21.322  10.063
94245W        W66505   0.234  34.531   2.742
94246W        W66506  19.670   2.667   2.429
94247W        W66507  40.064  28.953  12.088
94248W        W66508  24.155  11.053  11.162
94249W        W66509  20.154  30.253  12.509
94250W        W66510  42.010  19.056   2.457
94251W        W66511  24.941  15.761   4.805
94252W        W66512  10.174  37.089  14.330
94253W        W66513   3.778   2.728   2.173
94254W        W66514   6.345  15.707  12.761
94255W        W66515  17.879   7.292   5.336
94256W        W66516  30.361  21.724  12.035
94257W        W66517  42.866   7.123  12.363
94258W        W66518  19.697   7.746  10.177
94259W        W66519  40.818  41.555  13.359
94260W        W66520  27.278  43.346  14.417
94261W        W66521   1.830  29.488   1.960
94262W        W66522  29.253   5.152  12.563
94263W        W66523  43.725  15.068  11.627
94264W        W66524  18.361   3.981  12.521
94265W        W66525  11.238  20.265   4.159
94266W        W66526   4.612  26.839   2.730
94267W        W66527  35.619  39.399  14.097
94268W        W66528   9.893  23.179   4.614
94269W        W66529  36.940  18.594   4.170
94270W        W66530   1.942  22.447  12.216
94271W        W66531  22.689  19.949  12.351
94272W        W66532   2.148  27.039  12.520
94273W        W66533  42.934  13.480  12.998
94274W        W66534  19.275  42.583  10.659
94275W        W66535  42.736  41.029   3.630
94276W        W66536  25.303  32.490  13.197
94277W        W66537  43.933   0.418   3.621
94278W        W66538  11.392   3.827   1.817
94279W        W66539  26.698  20.636   2.341
94280W        W66540   5.138  21.783  11.620
94281W        W66541  22.552   7.828  11.151
94282W        W66542  11.390  14.538   3.720
94283W        W66543  18.246   6.919   0.502
94284W        W66544   5.200  26.947  10.934
94285W        W66545  11.594   8.808  12.963
94286W        W66546  15.580   7.730  10.696
94287W        W66547  29.697   7.181   2.673
94288W        W66548  37.834  34.324  12.940
94289W        W66549   0.264  39.975   3.202
94290W        W66550  23.334  23.020   2.766
94291W        W66551   8.845  34.641   3.751
94292W        W66552  18.641   1.779   4.552
94293W        W66553  38.482  11.853  14.289
94294W        W66554  20.213  26.259   4.614
94295W        W66555  43.390  10.403  12.696
94296W        W66556  24.994  12.658  11.605
94297W        W66557   9.428   6.149   0.868
94298W        W66558  39.198  29.203   3.664
94299W        W66559  32.149   2.806  14.422
94300W        W66560  13.694  24.266  12.666
94301W        W66561  10.618  25.528  14.456
94302W        W66562   3.884  18.735  13.379
94303W        W66563   7.699  42.811   4.510
94304W        W66564  13.598  30.879   0.910
94305W        W66565  40.653  39.214  13.976
94306W        W66566  31.910  28.625   1.340
94307W        W66567  16.421  29.520   2.660
94308W        W66568  19.038  17.752   3.849
94309W        W66569  34.825  40.969   2.765
94310W        W66570  12.631  11.141  13.243
94311W        W66571  17.804   9.047  12.315
94312W        W66572  42.975   1.254  14.674
94313W        W66573  20.568  29.125   1.678
94314W        W66574   0.894   1.437  12.051
94315W        W66575  20.535  38.605  13.428
94316W        W66576   1.554  24.508  13.900
94317W        W66577  38.342  33.139  12.468
94318W        W66578  15.987   3.657   2.613
94319W        W66579  32.488  14.883   4.877
94320W        W66580  14.164  11.396  12.578
94321W        W66581  12.830  37.781   3.391
94322W        W66582  17.563   2.254  10.419
94323W        W66583   4.381  27.541   3.191
94324W        W66584  21.356  20.849   5.093
94325W        W66585  22.595  42.834   9.962
94326W        W66586  26.754  37.272   3.885
94327W        W66587  10.991  22.778   4.350
94328W        W66588  33.310   7.837   3.675
94329W        W66589  18.219  10.094  12.071
94330W        W66590  28.483   2.674   2.319
94331W        W66591  41.857  12.237  13.097
94332W        W66592  37.516  14.877  12.635
94333W        W66593   1.811  13.608  11.572
94334W        W66594  11.263  25.631  13.174
94335W        W66595  20.712  28.478   4.679
94336W        W66596  43.257  15.781  13.045
94337W        W66597   8.240  41.036   2.109
94338W        W66598   1.463  19.902   2.612
94339W        W66599   7.755  25.939  10.987
94340W        W66600  30.777  13.095  13.551
94341W        W66601  34.544  26.492  14.819
94342W        W66602  29.461  33.827   2.367
94343W        W66603  17.140  33.698  13.933
94344W        W66604  31.074  36.945  14.836
94345W        W66605  23.981  15.567  11.073
94346W        W66606  42.429   1.641   4.608
94347W        W66607  11.206  28.183   3.739
94348W        W66608  18.656  28.860   4.193
94349W        W66609  29.462   6.100   4.194
94350W        W66610  33.846  12.841   0.510
94351W        W66611  24.648  21.116   3.296
94352W        W66612  44.695  16.654   2.832
94353W        W66613  35.661   5.235  12.542
94354W        W66614  14.830  26.703  14.379
94355W        W66615  28.824  32.990  12.645
94356W        W66616  41.951  19.431   3.372
94357W        W66617   0.194   8.779  13.084
94358W        W66618  36.030  12.109  11.453
94359W        W66619  41.317  32.438  12.089
94360W        W66620  23.060  34.576  13.407
94361W        W66621  33.891   1.750  13.965
94362W        W66622   4.299  28.997   4.667
94363W        W66623  44.974  22.505   0.144
94364W        W66624  25.141  11.338  11.991
94365W        W66625  36.010  33.260   5.063
94366W        W66626  41.826  23.635   2.782
94367W        W66627   5.405  12.325  14.886
94368W        W66628  26.047   1.961   1.693
94369W        W66629  32.820  33.555  11.931
94370W        W66630   5.234  15.103   4.873
94371W        W66631  20.149  42.735   5.133
94372W        W66632  38.330  29.844   4.546
94373W        W66633  41.067  28.473   1.183
94374W        W66634  37.527  12.027  13.088
94375W        W66635  37.902  21.174  12.464
94376W        W66636  22.166  17.554   1.986
94377W        W66637  16.612  19.091  11.402
94378W        W66638  29.414  23.534  12.262
94379W        W66639  24.838  38.456  14.478
94380W        W66640  42.084  23.928  10.715
94381W        W66641   3.759  39.482  10.389
94382W        W66642  13.667  16.579   5.130
94383W        W66643  11.900  37.496  11.949
94384W        W66644  25.899  23.917  12.944
94385W        W66645  44.938   0.926   1.475
94386W        W66646  40.254  21.809   4.487
94387W        W66647   4.301  18.994  10.510
94388W        W66648  31.073  30.655   0.383
94389W        W66649  16.666  32.291  14.000
94390W        W66650   0.585  41.531   1.912
94391W        W66651  41.540  32.442   3.659
94392W        W66652  15.885  21.565  13.518
94393W        W66653  22.573  31.852  13.376
94394W        W66654  26.554   3.054  11.497
94395W        W66655  40.031  38.458   4.209
94396W        W66656  34.257   1.645   4.188
94397W        W66657  11.018  19.397   0.918
94398W        W66658  24.583  22.581  11.584
94399W        W66659  13.873  37.078  11.548
94400W        W66660   7.817  28.754  13.054
94401W        W66661  32.532  38.090   4.697
94402W        W66662   7.641   8.766  10.999
94403W        W66663  14.173  26.509   2.531
94404W        W66664   3.923  26.672   0.865
94405W        W66665  43.528   0.206  10.782
94406W        W66666  21.537   6.383   3.689
94407W        W66667  30.696   0.826   3.984
94408W        W66668  32.105  34.028   3.665
94409W        W66669   6.794  36.926  12.531
94410W        W66670  38.065  15.159   1.963
94411W        W66671   3.278  36.533   0.435
94412W        W66672  14.145  38.119   1.700
94413W        W66673  15.691  30.869  11.100
94414W        W66674  19.521  23.502   1.944
94415W        W66675  44.446  35.141   2.712
94416W        W66676   5.628  15.705  12.741
94417W        W66677   2.795   3.906   4.627
94418W        W66678  24.591   0.626  11.153
94419W        W66679  19.059  29.498   1.235
94420W        W66680  36.000  23.230  13.915
94421W        W66681  37.980  21.497   2.697
94422W        W66682  12.823  16.191   1.262
94423W        W66683  43.187  26.241   3.614
94424W        W66684  39.357  18.918  12.067
94425W        W66685  35.635   2.673   4.543
94426W        W66686   4.265  39.640   2.268
94427W        W66687  10.667   8.581   1.801
94428W        W66688  33.570   2.775  10.565
94429W        W66689  44.741  13.650   0.486
94430W        W66690  20.552  42.261   3.166
94431W        W66691  13.291  25.480  14.328
94432W        W66692  40.437   6.922   3.282
94433W        W66693  32.571  29.672  10.756
94434W        W66694  22.152  29.468   1.295
94435W        W66695   3.710  35.774  13.389
94436W        W66696  24.046  34.257  12.984
94437W        W66697   5.343  26.295   3.113
94438W        W66698  44.768  17.079   2.560
94439W        W66699   6.303  21.491  13.313
94440W        W66700  10.568  15.535  13.506
94441W        W66701  20.826  44.023   3.764
94442W        W66702   0.475  19.126  14.916
94443W        W66703  26.507   0.562  13.343
94444W        W66704  18.353   1.220   3.156
94445W        W66705  12.264  42.428   0.679
94446W        W66706  31.615  33.535   2.228
94447W        W66707  34.709  18.050   0.786
94448W        W66708  31.476  31.618   4.199
94449W        W66709  21.336  16.710   2.950
94450W        W66710   2.975   7.639  14.474
94451W        W66711  21.618  29.514   4.953
94452W        W66712  35.435  24.089  10.917
94453W        W66713  29.153   8.584   3.357
94454W        W66714  28.683   2.350   1.477
94455W        W66715  27.131  25.312   2.779
94456W        W66716  35.991  44.312  12.766
94457W        W66717  34.915   0.452   3.560
94458W        W66718  32.819  34.456   2.656
94459W        W66719   4.226  14.381  14.343
94460W        W66720  31.034  10.986   0.226
94461W        W66721   7.814   7.409   3.129
94462W        W66722  16.316  18.497   0.446
94463W        W66723  33.299   4.178   1.130
94464W        W66724  25.945  14.601  13.138
94465W        W66725  15.148  31.021   2.415
94466W        W66726  26.595  20.576   1.004
94467W        W66727  26.035   5.799  11.104
94468W        W66728  30.897  19.293   3.582
94469W        W66729  13.091   5.815   1.303
94470W        W66730  21.228  26.187  11.931
94471W        W66731  34.574  42.566  12.536
94472W        W66732  26.269  40.963  11.912
94473W        W66733  23.686   2.326   0.903
94474W        W66734  36.722   9.890   2.252
94475W        W66735  41.349  35.612   2.542
94476W        W66736  23.748  42.377   2.263
94477W        W66737   6.027  23.752  14.849
94478W        W66738  13.799  25.447   4.414
94479W        W66739   4.452  43.839   2.933
94480W        W66740   1.425  15.368   4.680
94481W        W66741  23.530  43.728  14.898
94482W        W66742  41.724  10.784  14.528
94483W        W66743  31.199  20.680  11.998
94484W        W66744  31.491  13.170   3.568
94485W        W66745  18.286  10.140   3.693
94486W        W66746  28.097   8.421  14.009
94487W        W66747  12.270   7.941   2.848
94488W        W66748  33.962   5.776   0.314
94489W        W66749  25.155   0.216  10.711
94490W        W66750  24.178  12.080  11.117
94491W        W66751  27.536  38.984  12.463
94492W        W66752  28.067   4.015  14.073
94493W        W66753   1.473  37.466   0.226
94494W        W66754   6.505   0.926  11.699
94495W        W66755  29.111   7.076   0.927
94496W        W66756  21.686  38.023   1.352
94497W        W66757  41.549  13.579  13.140
94498W        W66758  21.237  43.759   1.426
94499W        W66759  23.713  11.614   3.947
94500W        W66760  39.086  24.894   2.862
94501W        W66761   0.429  44.688   4.197
94502W        W66762  14.641   4.651   1.917
94503W        W66763  27.868  27.521   3.702
94504W        W66764  14.338  26.349  12.472
94505W        W66765  40.063  34.920   4.791
94506W        W66766  32.727  30.690  13.392
94507W        W66767  39.974   2.231  13.427
94508W        W66768  43.623  13.052  14.050
94509W        W66769  27.687  41.179  11.128
94510W        W66770  26.579  29.400   1.189
94511W        W66771  22.204  39.300   2.904
94512W        W66772  30.483  37.422   2.715
94513W        W66773  30.044   6.265   2.419
94514W        W66774  25.159  35.501  10.664
94515W        W66775  26.272  35.010   3.326
94516W        W66776  15.346  38.516   3.710
94517W        W66777  44.000  27.964  13.907
94518W        W66778  44.852  44.999  11.044
94519W        W66779   6.875  32.082   4.587
94520W        W66780  44.736  13.015   1.053
94521W        W66781  10.773  40.869   1.270
94522W        W66782  20.571  11.657   3.629
94523W        W66783  25.542   4.448   0.924
94524W        W66784  15.536  38.458  12.675
94525W        W66785   6.789   8.547  13.983
94526W        W66786  38.708  23.676   2.175
94527W        W66787  21.509  41.764   2.808
94528W        W66788  34.682  30.734  14.949
94529W        W66789   3.736  18.735   1.424
94530W        W66790  43.410   3.289   2.855
94531W        W66791  44.185  40.491   2.292
94532W        W66792  24.515  34.631  13.018
94533W        W66793  40.461   2.897   0.742
94534W        W66794  41.778  34.615   0.798
94535W        W66795  26.762   5.385  13.484
94536W        W66796  22.885  23.052  14.450
94537W        W66797  39.960  11.836  12.830
94538W        W66798  26.578  35.842   0.364
94539W        W66799  13.177  10.463   4.132
94540W        W66800  40.914  21.269   2.087
94541W        W66801  43.709  36.020   1.535
94542W        W66802  32.911  25.459   3.401
94543W        W66803   7.194  24.199   0.899
94544W        W66804  25.579  14.422   3.575
94545W        W66805  22.735  12.873  12.771
94546W        W66806  17.579  37.434  10.622
94547W        W66807  19.262  20.270   0.751
94548W        W66808  38.342   5.171   2.926
94549W        W66809   9.333  36.169  12.430
94550W        W66810  37.074  17.123   1.261
94551W        W66811  31.914  41.564  10.659
94552W        W66812  33.639  24.757   4.106
94553W        W66813  13.404  21.999  10.464
94554W        W66814   7.406  15.150  11.192
94555W        W66815  40.539   7.868   3.344
94556W        W66816  15.413  22.442   2.279
94557W        W66817  31.513  29.754   2.247
94558W        W66818  27.422  20.717   1.196
94559W        W66819  19.034  18.963  12.521
94560W        W66820   4.175  19.185   2.866
94561W        W66821  39.980  10.578   4.617
94562W        W66822   7.699  10.271   4.771
94563W        W66823  26.357  42.140  12.492
94564W        W66824  18.265   0.924  12.891
94565W        W66825   7.385  42.775  12.020
94566W        W66826   0.141  19.789  12.141
94567W        W66827  31.561  38.861  13.218
94568W        W66828  26.264  10.377  12.649
94569W        W66829  41.021  32.211  11.712
94570W        W66830  16.843  22.517   4.910
94571W        W66831  37.099  35.023   4.632
94572W        W66832   0.327   4.364   4.511
94573W        W66833   0.543   7.767   0.972
94574W        W66834  31.621   8.312   0.255
94575W        W66835  31.626  18.077  11.561
94576W        W66836  40.299  32.826   2.616
94577W        W66837  44.446  11.341   3.367
94578W        W66838  37.362  37.989  12.136
94579W        W66839  42.277   1.872  12.700
94580W        W66840  26.561  41.882   2.657
94581W        W66841  41.068  25.880  12.624
94582W        W66842   7.783  16.307  14.028
94583W        W66843  40.885   2.502   4.816
94584W        W66844  42.716   1.429   0.470
94585W        W66845  37.946  14.081  13.788
94586W        W66846  31.931  35.410   3.369
94587W        W66847  40.126   3.291   5.083
94588W        W66848  42.464  12.295   1.652
94589W        W66849   4.422  27.145  10.196
94590W        W66850  27.198   4.227  12.572
94591W        W66851  26.623  36.267  10.818
94592W        W66852  11.354   0.911  13.872
94593W        W66853  13.041  28.354  10.611
94594W        W66854  22.486  22.585   1.183
94595W        W66855  37.117   5.158   1.866
94596W        W66856  37.427   0.959  14.773
94597W        W66857  41.739  36.880  13.850
94598W        W66858  11.182  13.854  10.623
94599W        W66859  12.552  22.902  13.462
94600W        W66860  35.840  21.707  10.926
94601W        W66861   7.307  39.391   4.401
94602W        W66862   0.147  44.271  11.931
94603W        W66863  32.645  11.288  11.103
94604W        W66864  14.569  29.160  13.028
94605W        W66865  35.324  23.634  10.715
94606W        W66866   3.906  23.102  12.052
94607W        W66867   4.222   2.475  14.238
94608W        W66868  37.402  33.038  13.029
94609W        W66869  43.769  41.401  13.391
94610W        W66870  10.704  18.318   0.070
94611W        W66871  18.121   8.158   9.761
94612W        W66872  10.327  34.607   0.962
94613W        W66873   4.727   9.166   3.665
94614W        W66874  29.947   8.978   2.468
94615W        W66875   4.591   8.792   1.662
94616W        W66876  42.808  11.374  14.854
94617W        W66877  30.960  36.567  14.507
94618W        W66878  11.816  35.957  14.360
94619W        W66879  28.206  12.179  14.428
94620W        W66880  24.192   3.371  13.503
94621W        W66881  28.116  24.950   4.125
94622W        W66882   3.934  28.009  14.030
94623W        W66883  26.923  42.302   4.281
94624W        W66884  28.340  17.713   2.356
94625W        W66885  27.630   3.938  13.825
94626W        W66886  16.275  32.062   2.342
94627W        W66887   3.356  19.484   3.164
94628W        W66888  20.603  33.463   0.779
94629W        W66889  18.700  11.154   4.839
94630W        W66890  41.883   1.690  14.425
94631W        W66891  40.562  38.799  14.315
94632W        W66892   4.217  41.670   4.747
94633W        W66893   2.729  37.967   0.191
94634W        W66894  27.245   8.399  13.812
94635W        W66895   4.290  27.935  11.441
94636W        W66896  21.566  42.173   4.530
94637W        W66897  13.367  27.054   3.742
94638W        W66898  23.552  25.550   3.680
94639W        W66899  12.121  23.598   0.386
94640W        W66900   4.602  43.853   0.842
94641W        W66901  42.791  22.938  14.352
94642W        W66902  32.952   5.924  12.350
94643W        W66903  30.718  24.152   3.406
94644W        W66904  12.643  41.341   0.032
94645W        W66905  18.226  20.659  11.592
94646W        W66906  44.592  17.036  11.345
94647W        W66907  42.050  36.449  10.713
94648W        W66908   2.179  32.331   1.799
94649W        W66909   9.539  13.282   3.242
94650W        W66910  18.157  38.781   0.500
94651W        W66911  40.024   9.368  12.579
94652W        W66912  22.533  13.571   4.255
94653W        W66913  31.671  31.870   5.392
94654W        W66914  39.081  35.805   0.828
94655W        W66915  31.531  13.685   1.694
94656W        W66916  44.314   3.417  12.406
94657W        W66917  28.919  11.688  12.821
94658W        W66918  26.404   3.769   0.267
94659W        W66919   7.902  43.387   3.797
94660W        W66920  29.406  19.174   2.431
94661W        W66921  32.991  16.821  14.449
94662W        W66922  31.932  39.759   2.373
94663W        W66923  19.604  42.981  10.916
94664W        W66924  42.096  44.805   2.321
94665W        W66925  15.516  40.857   0.403
94666W        W66926  11.332   4.111  12.985
94667W        W66927  36.912  12.779   3.319
94668W        W66928  23.593  36.005  12.028
94669W        W66929  35.204  18.277  12.948
94670W        W66930  16.278  43.326   3.378
94671W        W66931  27.758  27.062  11.840
94672W        W66932  37.297  40.078   1.236
94673W        W66933   2.633  36.821   2.857
94674W        W66934  20.975  29.167  11.593
94675W        W66935  22.259  27.236   3.626
94676W        W66936  39.826  42.032   3.728
94677W        W66937  41.436  32.047   4.197
94678W        W66938  16.181  32.000  13.990
94679W        W66939  27.558   1.998   3.839
94680W        W66940  44.918  12.879   1.804
94681W        W66941  27.857  33.939   3.432
94682W        W66942   2.720  42.833  11.045
94683W        W66943  44.811  13.754   2.318
94684W        W66944   2.310   3.171  12.420
94685W        W66945  29.902  21.667   4.338
94686W        W66946  20.514   4.032   0.974
94687W        W66947   3.148  17.035  13.732
94688W        W66948  32.880   9.976  11.028
94689W        W66949  34.670  12.579   0.952
94690W        W66950  24.180   5.299   0.303
94691W        W66951  28.299  38.160  11.536
94692W        W66952  43.795   7.667  12.496
94693W        W66953  24.267  14.363  12.909
94694W        W66954  23.389  29.090  12.910
94695W        W66955  10.145  40.934   3.682
94696W        W66956  29.085  10.784   0.003
94697W        W66957  10.616   3.293  12.386
94698W        W66958  35.526  36.330  14.724
94699W        W66959   6.336  12.593   3.619
94700W        W66960  28.441  29.007   2.884
94701W        W66961  21.961  38.603   2.259
94702W        W66962  37.200  14.316  14.452
94703W        W66963  18.357  26.996  14.847
94704W        W66964  11.248  18.196   4.450
94705W        W66965  43.020  30.264  12.824
94706W        W66966  29.407  24.435   4.075
94707W        W66967   6.675  10.295   3.222
94708W        W66968  23.668   5.729  10.768
94709W        W66969  26.719  16.669   1.250
94710W        W66970  30.382  28.307   3.655
94711W        W66971  24.051  16.347   1.301
94712W        W66972  16.054  15.067  10.216
94713W        W66973  10.140  11.551   4.110
94714W        W66974  36.839   9.217   5.100
94715W        W66975  19.453  10.840   0.389
94716W        W66976  42.954  14.507  13.888
94717W        W66977  13.854  21.748   2.856
94718W        W66978  33.914  39.715   1.297
94719W        W66979   5.162  30.475   1.350
94720W        W66980  30.509   0.238   1.757
94721W        W66981   0.293  26.640   1.502
94722W        W66982   4.277  26.495   0.245
94723W        W66983  26.198  17.802   4.425
94724W        W66984   6.892  26.784   2.604
94725W        W66985  21.675  36.474  12.548
94726W        W66986  37.632  15.375  12.573
94727W        W66987  16.930  15.107  11.485
94728W        W66988   7.809  44.489  13.574
94729W        W66989  20.955  15.103   2.268
94730W        W66990  29.139  31.543   2.258
94731W        W66991   5.689  25.107  14.786
94732W        W66992   7.858  18.212   5.112
94733W        W66993   5.902   6.091   3.574
94734W        W66994  41.785  32.898   1.860
94735W        W66995  21.148  11.127  14.765
94736W        W66996  35.852  17.681  14.459
94737W        W66997  32.194  27.148   2.795
94738W        W66998   6.325  36.090   1.433
94739W        W66999  18.480  22.757   2.766
94740W        W67000  44.829  28.493   0.485
94741W        W67001   5.627  24.091  10.687
94742W        W67002  36.203  18.268  12.791
94743W        W67003  21.734  31.745   0.287
94744W        W67004  44.250  19.795  13.478
94745W        W67005  26.016   3.968  10.681
94746W        W67006  41.550  14.623   0.536
94747W        W67007  44.485  36.300  12.688
94748W        W67008  14.210  39.955   2.053
94749W        W67009  37.158  26.289   3.719
94750W        W67010  26.914  41.363   0.454
94751W        W67011  33.838  41.189  14.574
94752W        W67012  19.376  36.044   4.799
94753W        W67013   5.736  31.580  12.941
94754W        W67014  39.304  17.154  12.937
94755W        W67015  22.603  12.586   0.673
94756W        W67016   0.573  16.542  12.952
94757W        W67017  29.967  18.659  13.186
94758W        W67018  32.924  37.970   0.699
94759W        W67019  15.310  20.532   0.686
94760W        W67020   4.351  40.318  12.048
94761W        W67021   8.182  34.492  14.377
94762W        W67022  17.221   0.961  11.539
94763W        W67023  22.535  21.691  10.196
94764W        W67024   5.101  10.325  12.207
94765W        W67025  35.821   3.387   3.105
94766W        W67026   2.797   3.493  13.765
94767W        W67027   3.162  26.036   0.890
94768W        W67028   2.358  26.092   4.840
94769W        W67029  11.105  40.915   2.166
94770W        W67030  13.226  17.031  11.108
94771W        W67031   8.961  43.710  13.746
94772W        W67032  14.729   9.312   2.840
94773W        W67033  29.361  27.405   2.399
94774W        W67034  23.602  31.917   0.251
94775W        W67035   1.356   1.538  12.316
94776W        W67036  28.007  26.461  11.623
94777W        W67037   2.286   3.964   2.292
94778W        W67038  37.437  36.518  12.010
94779W        W67039  25.971  30.324  14.768
94780W        W67040  28.217   3.824  12.007
94781W        W67041  16.646  16.333  11.501
94782W        W67042  40.297   0.377  10.147
94783W        W67043  29.007  20.188  14.526
94784W        W67044   4.956  18.755  12.565
94785W        W67045   0.647   3.275  13.386
94786W        W67046  25.804  23.298  12.704
94787W        W67047  11.399  24.034   2.638
94788W        W67048  37.544  32.612  12.094
94789W        W67049  14.267  11.863  11.151
94790W        W67050  27.048   6.328   0.266
94791W        W67051  12.673  31.715   0.089
94792W        W67052   7.181   0.880   3.688
94793W        W67053  15.555   2.526   3.906
94794W        W67054  42.910  38.053  10.487
94795W        W67055   9.962  41.530   3.753
94796W        W67056  36.043   3.944   2.401
94797W        W67057   4.805  15.091  12.639
94798W        W67058  13.746  11.766  10.826
94799W        W67059  30.677  21.880   1.885
94800W        W67060  32.105  27.269  11.791
94801W        W67061   2.227  27.632   2.242
94802W        W67062   7.859  29.025   1.249
94803W        W67063  20.530  42.635   1.309
94804W        W67064  13.421  18.615   4.987
94805W        W67065  38.599   8.794   0.305
94806W        W67066   6.516  25.731  13.797
94807W        W67067   8.311  30.756  14.047
94808W        W67068  32.777  20.088   3.815
94809W        W67069  15.057  15.382  12.908
94810W        W67070  41.083   4.960  12.943
94811W        W67071   6.631  15.806   4.917
94812W        W67072  14.773  32.351   2.229
94813W        W67073   8.707  16.247  11.478
94814W        W67074  22.800   1.000  11.496
94815W        W67075   9.742  20.635  14.124
94816W        W67076  12.665   7.978  12.409
94817W        W67077  38.032  17.264  12.671
94818W        W67078  30.567  20.777   1.747
94819W        W67079  17.767  20.728   3.679
94820W        W67080  36.321   3.660  14.834
94821W        W67081   2.970   9.606  12.480
94822W        W67082  31.879  14.607  13.362
94823W        W67083  17.429  29.252   3.766
94824W        W67084   4.107  19.513   4.111
94825W        W67085  31.139  10.955   0.731
94826W        W67086  33.568  28.884   3.533
94827W        W67087  18.341  24.750  11.680
94828W        W67088  19.477  18.837   1.671
94829W        W67089   2.911  15.459  12.715
94830W        W67090  29.458  14.692   4.642
94831W        W67091  18.844   8.450   2.951
94832W        W67092   4.004  42.951  14.723
94833W        W67093  19.746   4.917  11.972
94834W        W67094  39.874  22.616  14.787
94835W        W67095  22.447  30.297  14.456
94836W        W67096   8.003  13.931  11.504
94837W        W67097  43.198  29.416   3.779
94838W        W67098  44.856   4.661  12.193
94839W        W67099  33.455  12.956  12.571
94840W        W67100  31.096  24.538   4.116
94841W        W67101   8.632  16.182  12.411
94842W        W67102  13.598  20.592   0.485
94843W        W67103  27.235  20.135   3.167
94844W        W67104  39.272  18.016  12.392
94845W        W67105  15.198  39.323  14.009
94846W        W67106  39.997   1.140   2.870
94847W        W67107  27.478   2.954   3.714
94848W        W67108  33.087  24.101  14.700
94849W        W67109   2.000  11.294  12.693
94850W        W67110  41.602  40.871   1.223
94851W        W67111  25.243   7.248   2.030
94852W        W67112  28.960   8.114   0.388
94853W        W67113  34.344  37.556  11.639
94854W        W67114  29.084  20.501   3.863
94855W        W67115  37.484   0.543  13.298
94856W        W67116  20.717   3.385  12.100
94857W        W67117  35.458  16.189   1.243
94858W        W67118  24.692   8.883   2.277
94859W        W67119  20.737  26.243   2.348
94860W        W67120  24.677  10.075   4.097
94861W        W67121  20.710  29.166   3.623
94862W        W67122  40.413   4.268  11.500
94863W        W67123  36.385  18.614  12.407
94864W        W67124   6.877  10.088  13.548
94865W        W67125  21.004  11.792  14.055
94866W        W67126  23.539  33.909   3.596
94867W        W67127  18.040  16.786   3.844
94868W        W67128  31.341  11.666   4.561
94869W        W67129  34.411  22.620  12.553
94870W        W67130  41.715  29.050   4.143
94871W        W67131  44.899  24.291  12.884
94872W        W67132  28.145  23.512  12.851
94873W        W67133  40.354   7.908  12.557
94874W        W67134  16.759  15.819   0.304
94875W        W67135  33.379   8.864  11.575
94876W        W67136   1.483  29.407  13.010
94877W        W67137  40.786  36.312   3.629
94878W        W67138   1.249   9.535   0.612
94879W        W67139  19.835   1.433   2.275
94880W        W67140  11.672  19.832  12.078
94881W        W67141  30.251  17.130   0.715
94882W        W67142  34.393  25.398  13.903
94883W        W67143  37.906  18.076  14.887
94884W        W67144  14.128  17.100   9.794
94885W        W67145  12.943  22.718   2.330
94886W        W67146  19.081  19.066   4.030
94887W        W67147   6.472  13.327   3.181
94888W        W67148  19.564  26.722  12.152
94889W        W67149  19.796   6.353   5.125
94890W        W67150  13.392  43.288  12.611
94891W        W67151  39.784  41.481  13.440
94892W        W67152  12.922  43.352  12.384
94893W        W67153  12.409  21.057   3.775
94894W        W67154  33.062  20.288   4.241
94895W        W67155  15.446  43.716  14.623
94896W        W67156  37.302  25.905   5.033
94897W        W67157  13.745  11.678  11.720
94898W        W67158   0.483   6.162   0.388
94899W        W67159   7.524  25.121   2.845
94900W        W67160   0.812  25.950  14.022
94901W        W67161  42.054  44.278  10.241
94902W        W67162  13.177   5.169  12.898
94903W        W67163  44.233  13.595  12.819
94904W        W67164  28.140   3.822  11.210
94905W        W67165  39.354  25.166  11.004
94906W        W67166  14.310  19.881  13.425
94907W        W67167  30.567  13.858   2.883
94908W        W67168  17.178  15.245  11.936
94909W        W67169  25.500  41.426  14.972
94910W        W67170   6.171  31.638   3.273
94911W        W67171   6.186  31.518  12.074
94912W        W67172  44.356  34.306  11.206
94913W        W67173  39.439   1.260  11.334
94914W        W67174  15.150  43.054  13.510
94915W        W67175  25.482  27.570   0.869
94916W        W67176  37.516  35.533   1.588
94917W        W67177  36.014  37.100   1.400
94918W        W67178  42.502  33.941   2.250
94919W        W67179  13.313  13.838   1.894
94920W        W67180   6.725  16.733   4.597
94921W        W67181   2.299  32.911   2.630
94922W        W67182  36.132  34.980   3.678
94923W        W67183  33.129  38.818   3.666
94924W        W67184   7.975  23.900   1.313
94925W        W67185  20.317  34.847   3.929
94926W        W67186  32.974  28.900   4.459
94927W        W67187  21.473   4.075   0.266
94928W        W67188   4.277   4.260  13.806
94929W        W67189  28.057  39.467   1.228
94930W        W67190  33.011  32.114   3.478
94931W        W67191   5.222   4.212   1.816
94932W        W67192  39.547  18.057   3.569
94933W        W67193  40.517  30.116  11.860
94934W        W67194   5.854  25.013  12.892
94935W        W67195  22.121  31.479  12.612
94936W        W67196   9.599  25.588   1.457
94937W        W67197  24.679  36.451   0.305
94938W        W67198  14.044  22.658   3.321
94939W        W67199  34.792  41.311  10.648
94940W        W67200  32.338  39.308  12.470
94941W        W67201  44.325   9.118   4.510
94942W        W67202  39.595  43.019   4.137
94943W        W67203  27.539  21.174  11.729
94944W        W67204  18.131  38.698   3.217
94945W        W67205   6.381   3.883   3.754
94946W        W67206  15.633  15.664   4.559
94947W        W67207  28.072  26.478  14.792
94948W        W67208   9.748  24.477   2.334
94949W        W67209  13.412  33.430   1.204
94950W        W67210  29.930  16.624  11.576
94951W        W67211  32.462  25.007  10.763
94952W        W67212  37.394  31.081   4.139
94953W        W67213  16.667  24.962  12.145
94954W        W67214  34.098   4.466   3.747
94955W        W67215  44.345  38.867   2.753
94956W        W67216  13.210  29.695  10.230
94957W        W67217  18.798   5.278  11.081
94958W        W67218  21.611  29.710  12.856
94959W        W67219   9.291  37.564   3.671
94960W        W67220  36.601  36.644  13.103
94961W        W67221  44.875  36.689  10.867
94962W        W67222  39.319  26.445  14.215
94963W        W67223  40.426   9.144   5.033
94964W        W67224   7.651  35.085  11.601
94965W        W67225  10.681   5.353  10.365
94966W        W67226   6.846  43.372   0.245
94967W        W67227   4.234  27.495  13.321
94968W        W67228  19.842  23.602  12.557
94969W        W67229  22.178  27.771   0.169
94970W        W67230   0.509  42.933  12.476
94971W        W67231  14.650  11.597  12.555
94972W        W67232  16.094  15.358  13.044
94973W        W67233  15.569  16.082  11.955
94974W        W67234  35.771  23.615  14.808
94975W        W67235  12.674   2.401  14.388
94976W        W67236  33.313  14.176  12.977
94977W        W67237  33.808  42.035   1.378
94978W        W67238  28.854  30.341   1.733
94979W        W67239  42.810   8.629   3.539
94980W        W67240  16.815   4.006  11.943
94981W        W67241  13.820  35.986   3.449
94982W        W67242   5.750  16.174   0.427
94983W        W67243  43.527   8.920  11.582
94984W        W67244   6.428   2.698   0.916
94985W        W67245  25.691  25.203  10.548
94986W        W67246  11.681  33.375   2.253
94987W        W67247   6.903  44.069   4.810
94988W        W67248   4.361  41.316   4.369
94989W        W67249  25.271   4.436   0.445
94990W        W67250   9.709  24.525   3.236
94991W        W67251  14.731  29.732   3.262
94992W        W67252  19.118  19.969  12.654
94993W        W67253  16.638  18.844  13.661
94994W        W67254  15.761  22.016   3.716
94995W        W67255  40.696  12.163  12.087
94996W        W67256   3.214  32.029   2.596
94997W        W67257  41.518  10.851   0.828
94998W        W67258  42.453  29.150   1.325
94999W        W67259  32.025   0.450  12.457
95000W        W67260  38.469  23.521  13.324
95001W        W67261  39.612  37.479   2.317
95002W        W67262  34.070  30.016   1.811
95003W        W67263  22.130  15.482  13.065
95004W        W67264   7.949   1.629  10.379
95005W        W67265  20.954   7.923   4.020
95006W        W67266  43.445   7.652   4.828
95007W        W67267  35.161  29.451  12.030
95008W        W67268  18.112  29.527  13.036
95009W        W67269  41.964  33.628  10.582
95010W        W67270  40.731   7.300  12.904
95011W        W67271  43.219  25.608   2.344
95012W        W67272  40.538   4.742  13.789
95013W        W67273  33.292  20.294  11.183
95014W        W67274   8.373  38.388   1.400
95015W        W67275   2.888  24.193   4.542
95016W        W67276  34.989  26.880  11.414
95017W        W67277   1.939  34.707   4.031
95018W        W67278  16.916  10.087  13.850
95019W        W67279  30.704  11.571  14.351
95020W        W67280  43.443  24.754   0.285
95021W        W67281  32.937  38.446   4.498
95022W        W67282  23.483  13.875   0.795
95023W        W67283  27.048   6.256  14.301
95024W        W67284  17.212   9.773  14.928
95025W        W67285  31.651   1.954   4.236
95026W        W67286  30.774  42.976  13.829
95027W        W67287  11.093  24.607   1.449
95028W        W67288  18.196  11.611  12.958
95029W        W67289  21.529  23.037   3.679
95030W        W67290  41.907  37.274   1.329
95031W        W67291  40.769  35.824   3.772
95032W        W67292   7.754  39.815   1.359
95033W        W67293  16.867   4.761   5.260
95034W        W67294  23.068   7.360   2.400
95035W        W67295  42.882  10.433  11.171
95036W        W67296   2.468  25.018   3.302
95037W        W67297   7.730   9.573  13.529
95038W        W67298  23.103  15.901   1.329
95039W        W67299  25.932  23.638  14.907
95040W        W67300  12.595  22.529  10.629
95041W        W67301  12.192   7.926   4.648
95042W        W67302   7.893  16.099  14.467
95043W        W67303   7.523   7.658  10.552
95044W        W67304  25.287   9.680  11.530
95045W        W67305   4.739  25.213   3.875
95046W        W67306  43.435  29.039   0.245
95047W        W67307  22.513  35.151   1.791
95048W        W67308  15.693   0.874   1.323
95049W        W67309  12.266  27.915  14.038
95050W        W67310  22.703  17.152   2.173
95051W        W67311  43.921  22.477  11.211
95052W        W67312  30.187  32.577   2.048
95053W        W67313  16.566  13.688   3.726
95054W        W67314  25.500  34.618  11.964
95055W        W67315  40.902  34.581   4.761
95056W        W67316   7.010  37.398   2.897
95057W        W67317   2.910  38.348   0.503
95058W        W67318  15.158   2.254   3.696
95059W        W67319  26.535   4.034  10.606
95060W        W67320  42.847  20.658  14.792
95061W        W67321  16.476  19.726   0.234
95062W        W67322  30.635  26.764   0.658
95063W        W67323  38.463  44.324  13.954
95064W        W67324  32.855   2.028  12.010
95065W        W67325   7.669  10.191   4.247
95066W        W67326   0.017  29.150  14.392
95067W        W67327  25.488  21.594   4.495
95068W        W67328  44.891  36.539  11.790
95069W        W67329  16.060  36.755  11.774
95070W        W67330  42.826  42.407  14.846
95071W        W67331   2.889  15.717  13.598
95072W        W67332  40.276  39.117   0.517
95073W        W67333  36.686  33.569   4.033
95074W        W67334  36.559  33.593  11.461
95075W        W67335  32.738  21.485   3.744
95076W        W67336   8.696   7.632  14.480
95077W        W67337  19.710  34.911   0.804
95078W        W67338  18.097  27.739   1.344
95079W        W67339  31.504  42.512  13.420
95080W        W67340  12.736  29.179  10.689
95081W        W67341  43.824  37.833  12.517
95082W        W67342  27.617  11.795  11.024
95083W        W67343   8.197  41.544  13.118
95084W        W67344   0.507  19.164  13.391
95085W        W67345  12.775  11.755   0.033
95086W        W67346   2.646   5.504   0.840
95087W        W67347  20.955  11.049  10.651
95088W        W67348  40.852  15.661  10.731
95089W        W67349  28.191  18.564  12.782
95090W        W67350  28.138  10.785  11.046
95091W        W67351  13.837  22.030   0.747
95092W        W67352   7.469  28.082  12.107
95093W        W67353  18.265   3.993  13.898
95094W        W67354   1.329  41.465   3.848
95095W        W67355  19.298  13.085  12.973
95096W        W67356  10.723  16.190   1.436
95097W        W67357  25.658  25.617   4.656
95098W        W67358  23.848   9.918   4.151
95099W        W67359  32.702  29.587   1.869
95100W        W67360   7.390  16.696   4.600
95101W        W67361  14.722   9.346   4.649
95102W        W67362  22.684  27.760   1.332
95103W        W67363   4.806  21.592  10.586
95104W        W67364  29.896  33.710   4.198
95105W        W67365  30.089  38.017   4.479
95106W        W67366  34.607   9.599  10.923
95107W        W67367  44.327  11.669  13.396
95108W        W67368  16.451  42.360   3.815
95109W        W67369  11.335  26.354  14.499
95110W        W67370  11.583  12.878   3.139
95111W        W67371  44.857  16.160  14.490
95112W        W67372  36.222  28.424   3.260
95113W        W67373   7.739   8.770   3.613
95114W        W67374  15.071  21.296   0.955
95115W        W67375   5.557  19.302   4.146
95116W        W67376  29.159  15.919  12.471
95117W        W67377   5.697   5.130   3.830
95118W        W67378  37.979  32.038   3.201
95119W        W67379  35.822  39.572   0.211
95120W        W67380  25.693  41.603  14.503
95121W        W67381  32.518  10.970  12.316
95122W        W67382  18.095  38.231  10.576
95123W        W67383  30.490  38.469   0.807
95124W        W67384  10.705  19.592   0.122
95125W        W67385  41.629  15.850  13.279
95126W        W67386  44.076  29.956   3.145
95127W        W67387   8.152  17.586   3.208
95128W        W67388   3.514   7.702   0.358
95129W        W67389  16.616   6.376  11.148
95130W        W67390  42.277   1.568  13.154
95131W        W67391  42.678   6.354  11.931
95132W        W67392   8.992  28.871   3.280
95133W        W67393  21.750   2.309  11.502
95134W        W67394  14.364  20.964  14.385
95135W        W67395  16.893  41.019  10.953
95136W        W67396  39.396  21.031  11.007
95137W        W67397  21.327  27.135   3.809
95138W        W67398  12.772  43.991   3.943
95139W        W67399  28.133   4.525  14.127
95140W        W67400   5.773   7.595  12.125
95141W        W67401  17.176  11.927  10.290
95142W        W67402   4.772  37.100  10.224
95143W        W67403   6.404  36.947   1.850
95144W        W67404  14.343   4.473  10.692
95145W        W67405  26.029  11.222   3.639
95146W        W67406  35.789  23.409  10.728
95147W        W67407  42.306  32.354  13.150
95148W        W67408  12.739  32.882   0.244
95149W        W67409  43.729   9.666  12.907
95150W        W67410  25.107  30.715  14.872
95151W        W67411  26.093  41.907   4.397
95152W        W67412   5.055  31.650  14.858
95153W        W67413   1.466  18.577   2.710
95154W        W67414  15.369   0.011  11.162
95155W        W67415  22.262  31.409   4.189
95156W        W67416  37.350  21.116  14.245
95157W        W67417  35.702  35.235  11.615
95158W        W67418  44.992  12.764   2.764
95159W        W67419  22.761   4.287  10.590
95160W        W67420  32.648  25.698  12.553
95161W        W67421   5.706  37.645   1.702
95162W        W67422  19.475  21.518   3.401
95163W        W67423   6.994  30.046  14.538
95164W        W67424  26.292  34.780  14.235
95165W        W67425  13.589  18.629  11.797
95166W        W67426  16.041  26.026   3.781
95167W        W67427   3.627  36.423   2.707
95168W        W67428   7.361  20.747   4.088
95169W        W67429  26.429  29.640   0.314
95170W        W67430   3.782  38.035   3.313
95171W        W67431  37.126   4.355   1.000
95172W        W67432  38.035   2.237  14.985
95173W        W67433  12.660  14.872  12.506
95174W        W67434  39.515  35.410  13.036
95175W        W67435   3.482  36.474  11.260
95176W        W67436  26.852  36.260   0.247
95177W        W67437  35.954  34.645  13.579
95178W        W67438  14.825   0.155  10.860
95179W        W67439  29.663  35.607  11.441
95180W        W67440   5.305   5.008  11.999
95181W        W67441   6.132  14.822  11.623
95182W        W67442  11.805  21.507  11.525
95183W        W67443  13.185  24.697  13.912
95184W        W67444  36.507  17.033  11.593
95185W        W67445  11.098  42.041   4.141
95186W        W67446  36.291  15.617  11.255
95187W        W67447  42.690   5.648  13.063
95188W        W67448   7.094  31.125  14.542
95189W        W67449  32.794  40.143   3.265
95190W        W67450  39.961  39.992   2.273
95191W        W67451  31.041  12.880   0.388
95192W        W67452  30.682  42.733  13.373
95193W        W67453  33.363  17.277   3.755
95194W        W67454  15.584  22.652  14.295
95195W        W67455   3.676  15.567   1.910
95196W        W67456  41.833   7.054   4.537
95197W        W67457  14.258  18.857  12.412
95198W        W67458  42.424  32.683   2.038
95199W        W67459  11.618  19.800  13.871
95200W        W67460  25.550   1.750   4.583
95201W        W67461  19.107  27.932   2.588
95202W        W67462  21.941  26.612   4.063
95203W        W67463  28.365   9.936   4.708
95204W        W67464   5.455  27.090   1.736
95205W        W67465  44.278  28.895  14.794
95206W        W67466   2.022  38.040   2.817
95207W        W67467  20.140   1.545  14.838
95208W        W67468  40.332   1.627   3.866
95209W        W67469   1.237  26.663   2.573
95210W        W67470  22.732   8.226  10.165
95211W        W67471   2.827   6.502   0.826
95212W        W67472   5.303  42.980   1.357
95213W        W67473   3.742  16.034  13.935
95214W        W67474  13.756  28.187  14.437
95215W        W67475   5.891  35.430   0.832
95216W        W67476   6.203   7.944   1.950
95217W        W67477  34.778   5.284   0.630
95218W        W67478  14.056  42.417  11.862
95219W        W67479   9.814  19.224  10.690
95220W        W67480  33.870  20.917  10.094
95221W        W67481  38.030   5.400  12.537
95222W        W67482  20.667  20.035  11.090
95223W        W67483  41.372  11.277  10.690
95224W        W67484  32.390  25.062   2.752
95225W        W67485  16.046  27.565   4.899
95226W        W67486   5.626   5.839  13.589
95227W        W67487  24.776  17.093   2.345
95228W        W67488  29.954   4.144  14.529
95229W        W67489  23.476  37.342   1.226
95230W        W67490  32.746  28.718   2.227
95231W        W67491  39.015  26.197   3.353
95232W        W67492  34.189  12.692  12.037
95233W        W67493  15.339   4.741  11.454
95234W        W67494   0.635   2.860   2.088
95235W        W67495  26.738  21.134  14.839
95236W        W67496   6.907  42.819   1.925
95237W        W67497   6.427   9.184   2.840
95238W        W67498  37.397  15.589   0.936
95239W        W67499  44.891   3.512   0.441
95240W        W67500  15.705  41.542  13.429
95241W        W67501  31.145  27.924  14.545
95242W        W67502  38.479  33.868  14.403
95243W        W67503  36.838  30.375  12.358
95244W        W67504  13.103  16.850  12.482
95245W        W67505  42.588   0.179  11.643
95246W        W67506  12.645  24.194   2.298
95247W        W67507  25.582  43.809  13.833
95248W        W67508  12.277  43.740   4.144
95249W        W67509   9.501  16.807   1.382
95250W        W67510   2.807  29.564   3.585
95251W        W67511  38.935  32.863  10.779
95252W        W67512   9.788   5.667  14.007
95253W        W67513   5.687  43.610  13.183
95254W        W67514  13.721  30.208   2.369
95255W        W67515  40.019   8.206  14.511
95256W        W67516  36.661  17.262   2.444
95257W        W67517  14.331   1.305   3.783
95258W        W67518  21.998  17.665   4.658
95259W        W67519  10.043  23.600  11.663
95260W        W67520  30.295  41.529   4.179
95261W        W67521  43.464   1.736   2.738
95262W        W67522  13.045  12.732   4.775
95263W        W67523  41.652  11.762  11.542
95264W        W67524  15.338  22.765  12.004
95265W        W67525  15.332  42.202   4.594
95266W        W67526  25.078  25.201   4.183
95267W        W67527  26.260  38.883  13.564
95268W        W67528  26.828   6.276  13.294
95269W        W67529  40.925  28.249   3.737
95270W        W67530  33.003  17.112   1.426
95271W        W67531  32.562   5.019  13.868
95272W        W67532  18.223  36.974   0.986
95273W        W67533  20.699  23.707   0.873
95274W        W67534  41.229  44.586   1.340
95275W        W67535  39.393   9.137  13.072
95276W        W67536  43.966  34.949  10.362
95277W        W67537  43.841  38.574   0.038
95278W        W67538  23.462  14.197   3.770
95279W        W67539  43.242  42.308  12.967
95280W        W67540  23.542   5.794   0.682
95281W        W67541  44.358   3.723   2.610
95282W        W67542   9.350  21.522   2.226
95283W        W67543  26.192  38.260  14.357
95284W        W67544  16.420   2.230  13.879
95285W        W67545  23.822  31.377   1.442
95286W        W67546   1.569  41.405  12.841
95287W        W67547  40.543  10.732  12.153
95288W        W67548  27.386  17.281   4.805
95289W        W67549  32.849  16.890  12.943
95290W        W67550  39.022  29.332   9.632
95291W        W67551  19.216   7.967  10.229
95292W        W67552  19.721  39.458  12.983
95293W        W67553  39.458  35.926  12.915
95294W        W67554   7.707  24.526   4.557
95295W        W67555  14.089  13.402   2.430
95296W        W67556   0.684  33.467   3.994
95297W        W67557   7.825   0.323  14.354
95298W        W67558  44.837  17.785  13.035
95299W        W67559  13.682  37.876   4.905
95300W        W67560  39.206  38.031  11.661
95301W        W67561  35.402  25.930  14.672
95302W        W67562   1.746  43.715   2.317
95303W        W67563  10.620   5.788  13.594
95304W        W67564  42.224   5.915  12.972
95305W        W67565  32.480  43.734   1.371
95306W        W67566  36.434  35.351  14.183
95307W        W67567  12.965   5.058   5.096
95308W        W67568   9.778  32.531   3.611
95309W        W67569  16.845   5.966  14.522
95310W        W67570  10.788   0.368   0.528
95311W        W67571  10.420   3.696   1.786
95312W        W67572  29.188  21.624   0.796
95313W        W67573   0.995  16.263  12.945
95314W        W67574  38.904  41.443   0.062
95315W        W67575  43.433  41.250  14.665
95316W        W67576  23.062  12.254  10.704
95317W        W67577  37.292  33.048   4.646
95318W        W67578  22.397   9.693  14.860
95319W        W67579  28.562  27.731  12.379
95320W        W67580  10.237  42.467   2.255
95321W        W67581  24.102  15.860  14.001
95322W        W67582  24.440  44.595   3.202
95323W        W67583  33.621  11.928  14.313
95324W        W67584  28.084  12.914  13.998
95325W        W67585  20.683  28.537  12.910
95326W        W67586  20.285  25.735  11.933
95327W        W67587   9.472   3.889  11.443
95328W        W67588  38.498  39.828   0.372
95329W        W67589  35.368  29.214  10.695
95330W        W67590  17.231   6.878  14.791
95331W        W67591  18.064   5.750  14.774
95332W        W67592   7.577  27.146   0.470
95333W        W67593  44.259  20.038   1.642
95334W        W67594  39.856  37.481   2.810
95335W        W67595  42.849  12.725   4.171
95336W        W67596  25.473   0.023  11.561
95337W        W67597  25.931  41.004   4.624
95338W        W67598  16.782  39.000  10.684
95339W        W67599  20.597  25.818   4.958
95340W        W67600   0.772  21.031   4.114
95341W        W67601  11.245  26.710  10.827
95342W        W67602  15.332  15.922   1.238
95343W        W67603   4.212  19.201   1.947
95344W        W67604  38.518  36.089   3.644
95345W        W67605  18.356   3.448  12.424
95346W        W67606  12.583  13.665  14.891
95347W        W67607  37.468  10.160   3.228
95348W        W67608  25.065  17.894  14.834
95349W        W67609   8.277   0.849   2.701
95350W        W67610  19.049  10.808   0.806
95351W        W67611  43.236   5.751   4.087
95352W        W67612  37.470   5.613  13.782
95353W        W67613   8.918  22.787   0.530
95354W        W67614  37.236  26.099  14.066
95355W        W67615   9.698  41.195   1.886
95356W        W67616  17.228  19.930  10.799
95357W        W67617   1.932  40.118   1.180
95358W        W67618   2.186  40.623  14.005
95359W        W67619  35.288  28.231   4.100
95360W        W67620  14.221  31.390  11.848
95361W        W67621  39.886  29.036   2.852
95362W        W67622  20.923  27.924   5.333
95363W        W67623  26.337   4.939   4.380
95364W        W67624  17.971  20.687   1.317
95365W        W67625  27.893  31.582  13.799
95366W        W67626   0.392  11.551  10.645
95367W        W67627  23.160  33.011  11.133
95368W        W67628   8.265  24.679   1.347
95369W        W67629  32.790  16.461  14.719
95370W        W67630  37.383  28.082  13.977
95371W        W67631   1.385  16.978  13.416
95372W        W67632  41.107  14.353  11.379
95373W        W67633  14.810  27.880   1.125
95374W        W67634  27.593  12.445   1.326
95375W        W67635  28.328  13.977   3.420
95376W        W67636   4.905   6.262   1.184
95377W        W67637  31.009   4.706  12.884
95378W        W67638   4.226  23.517   3.185
95379W        W67639  14.951  42.266  14.822
95380W        W67640   1.780   6.641   0.683
95381W        W67641  13.187  33.151  11.061
95382W        W67642  17.636  36.055  13.937
95383W        W67643  25.156  31.725  13.911
95384W        W67644   6.525  14.728   3.635
95385W        W67645  29.462   6.392  13.433
95386W        W67646  19.672   6.722  13.939
95387W        W67647  37.815  39.240   2.170
95388W        W67648  35.654  27.615   2.765
95389W        W67649  35.053  41.502   1.631
95390W        W67650  42.521   0.856   4.170
95391W        W67651   2.505  35.341  12.495
95392W        W67652   6.496  16.266   2.523
95393W        W67653  44.063  14.859   1.220
95394W        W67654  32.329  15.300   0.166
95395W        W67655   5.924  23.744  12.464
95396W        W67656  17.335   4.219   1.723
95397W        W67657  17.199  23.534   4.175
95398W        W67658  26.142  37.579   4.779
95399W        W67659  22.021  33.101   3.638
95400W        W67660  24.078  36.589   2.338
95401W        W67661  36.510  30.428   3.856
95402W        W67662  27.970  37.364   3.269
95403W        W67663   6.886  32.034  13.281
95404W        W67664  37.822  39.867   1.196
95405W        W67665  25.529  28.635  14.241
95406W        W67666  14.826  34.382   1.297
95407W        W67667  25.240  32.474   2.914
95408W        W67668   0.012  18.768   4.783
95409W        W67669  32.566  14.580   3.460
95410W        W67670  29.164   4.326  12.919
95411W        W67671  37.380  25.729   1.732
95412W        W67672  41.532  36.560  14.203
95413W        W67673  39.612  17.190  12.501
95414W        W67674   8.896  42.963  12.417
95415W        W67675  33.935  39.170   0.005
95416W        W67676  14.842  43.897   1.729
95417W        W67677  28.815  33.380   1.838
95418W        W67678  22.431   4.689   4.089
95419W        W67679  32.926   9.328  14.975
95420W        W67680  44.328  21.974   1.802
95421W        W67681  24.840   4.694   1.371
95422W        W67682  35.522  14.159   0.342
95423W        W67683  14.311  23.888   2.742
95424W        W67684  43.243  32.120   0.939
95425W        W67685  10.833  14.688   1.305
95426W        W67686  40.134   7.997   0.365
95427W        W67687  41.341   5.698   0.843
95428W        W67688  33.128   8.915  12.007
95429W        W67689   7.116  33.316  11.614
95430W        W67690  13.326  16.257   2.092
95431W        W67691  35.569  43.805  12.841
95432W        W67692   0.822   1.659   0.753
95433W        W67693  44.966  43.279  14.031
95434W        W67694  43.394  22.734  10.736
95435W        W67695  20.046   1.032   1.805
95436W        W67696   5.398   2.778   2.715
95437W        W67697  26.404   7.792  14.901
95438W        W67698  25.926  24.162  14.730
95439W        W67699  18.145  42.993  13.860
95440W        W67700  33.067   8.092   2.219
95441W        W67701   8.712   9.714   3.901
95442W        W67702   1.384  32.483   1.207
95443W        W67703  36.904  12.694   0.252
95444W        W67704  18.220  19.759   0.970
95445W        W67705   0.077   5.657  14.240
95446W        W67706  28.556  38.680  12.471
95447W        W67707  18.148  40.407   2.808
95448W        W67708  20.444  42.893   0.338
95449W        W67709  19.189  24.624  14.819
95450W        W67710  29.210  16.224   0.257
95451W        W67711  21.446  21.654  12.786
95452W        W67712  14.176  21.009  12.185
95453W        W67713   4.775  17.565   1.851
95454W        W67714   9.362  16.733  13.488
95455W        W67715  18.188  34.565  12.188
95456W        W67716  39.180  25.346  11.758
95457W        W67717   2.799  17.185   3.705
95458W        W67718   2.778  34.189  14.096
95459W        W67719  35.475  32.265  12.400
95460W        W67720  32.715   8.294  14.541
95461W        W67721   8.414  25.786   4.856
95462W        W67722  32.828  27.052   4.400
95463W        W67723  39.295  42.330   1.832
95464W        W67724  32.870  14.124  11.438
95465W        W67725  37.052  26.504  11.727
95466W        W67726  41.885  35.375   4.579
95467W        W67727  19.341  35.149  12.362
95468W        W67728  12.921   2.020   3.195
95469W        W67729   2.211  34.167   1.244
95470W        W67730   9.221  10.312  11.489
95471W        W67731  21.264  37.817  10.742
95472W        W67732  22.544  16.294   0.559
95473W        W67733  26.497  12.844   1.754
95474W        W67734  14.610  33.423   3.355
95475W        W67735   3.743   7.489   2.670
95476W        W67736  22.244  41.115   0.557
95477W        W67737  33.610  31.197   0.490
95478W        W67738  30.650  25.471   3.027
95479W        W67739  22.663  29.367   2.304
95480W        W67740  35.962  43.448   1.881
95481W        W67741  44.721   3.897  10.366
95482W        W67742  10.727   8.252  14.246
95483W        W67743  16.804  12.839  14.416
95484W        W67744   6.190   5.156   1.243
95485W        W67745  17.603  28.416   2.897
95486W        W67746  43.477  31.376  14.383
95487W        W67747  18.109   6.880  14.501
95488W        W67748  15.072  16.006   3.979
95489W        W67749  32.114  25.289   4.647
95490W        W67750  19.817  43.494   0.840
95491W        W67751  32.068   1.650  12.977
95492W        W67752  41.428  17.373  11.074
95493W        W67753  21.436  18.957   0.301
95494W        W67754  14.620  31.566   2.778
95495W        W67755  40.215   7.583  10.369
95496W        W67756  16.750  23.218   0.410
95497W        W67757  29.597  39.547   3.390
95498W        W67758   2.853  44.776   3.370
95499W        W67759  38.513   7.633  10.553
95500W        W67760  11.147  40.641  13.432
95501W        W67761  28.191   1.209  13.600
95502W        W67762   0.328  17.438  11.993
95503W        W67763  22.046   4.396  13.440
95504W        W67764  41.786  15.117   4.101
95505W        W67765  16.133  19.851   2.790
95506W        W67766  11.286  20.717  14.797
95507W        W67767  23.311  12.804   4.146
95508W        W67768  25.551  11.972   3.611
95509W        W67769   7.179  25.212  13.356
95510W        W67770   9.790  17.222   1.754
95511W        W67771  10.738  28.291  12.557
95512W        W67772   3.677   9.148   3.176
95513W        W67773  36.064  29.557   0.392
95514W        W67774  19.800  39.035  10.613
95515W        W67775  20.714   6.437  13.989
95516W        W67776  26.064  39.657   1.801
95517W        W67777  42.277  23.020  12.125
95518W        W67778  24.729   3.225  10.708
95519W        W67779  21.775   1.482   1.036
95520W        W67780  44.209  33.394  13.031
95521W        W67781  14.142  15.747  12.514
95522W        W67782  30.375  10.735   2.918
95523W        W67783   2.301   1.216  11.304
95524W        W67784  23.063  32.572   4.680
95525W        W67785  18.420  37.268   4.065
95526W        W67786  20.181  35.403   1.467
95527W        W67787  16.996  44.430   2.328
95528W        W67788  30.174  35.411   2.206
95529W        W67789  27.381  18.817   0.857
95530W        W67790  44.501   1.194   3.956
95531W        W67791  11.297  43.065   3.517
95532W        W67792  24.497  13.213   1.335
95533W        W67793   2.732  11.420  13.865
95534W        W67794  36.373  44.228   4.417
95535W        W67795  19.429  42.042   1.882
95536W        W67796   0.736  43.398  14.870
95537W        W67797  34.041   5.933   4.557
95538W        W67798  22.533  34.202   5.073
95539W        W67799  16.646  26.134   4.615
95540W        W67800  24.619  28.048   0.531
95541W        W67801  39.363  25.526   3.849
95542W        W67802   9.703   0.006   2.639
95543W        W67803  21.629  17.821  14.770
95544W        W67804   7.803  16.705  12.650
95545W        W67805   2.395   1.768   0.680
95546W        W67806  20.568  30.734  14.738
95547W        W67807  15.249   8.981  11.866
95548W        W67808   9.601  34.919   1.350
95549W        W67809   1.786  14.176   1.262
95550W        W67810  43.911  11.382   3.285
95551W        W67811  44.963  18.373   1.426
95552W        W67812   9.079   6.217   4.218
95553W        W67813  25.129  33.848   0.716
95554W        W67814  37.009  26.285   2.370
95555W        W67815  32.669   8.214  11.513
95556W        W67816   6.133  33.424   1.254
95557W        W67817  25.712  36.668  11.179
95558W        W67818   2.312  24.488   0.399
95559W        W67819  31.701   3.850  13.496
95560W        W67820  42.955   1.475  13.623
95561W        W67821  15.113   9.811   3.383
95562W        W67822  16.195   8.130  12.948
95563W        W67823  36.384   4.880  11.024
95564W        W67824   9.454  41.966   1.322
95565W        W67825  17.556  14.651   4.004
95566W        W67826  37.801   5.132  12.171
95567W        W67827  16.855  26.112   4.136
95568W        W67828  38.773  34.406   3.277
95569W        W67829  41.116  15.592   4.119
95570W        W67830  32.383  22.609  10.756
95571W        W67831  40.571  12.657   3.626
95572W        W67832   3.875   7.174  10.795
95573W        W67833  34.817  22.791  14.812
95574W        W67834  39.986  21.543   2.276
95575W        W67835  40.791   6.367   4.179
95576W        W67836  35.108  37.325  12.013
95577W        W67837  35.788   2.264  14.353
95578W        W67838  30.414  19.179   2.254
95579W        W67839  11.792  21.852   4.448
95580W        W67840  18.691   5.420   2.639
95581W        W67841   7.503  42.406   0.420
95582W        W67842  17.329  19.126  14.848
95583W        W67843   6.722  17.818   4.273
95584W        W67844  42.790  32.345   0.866
95585W        W67845  14.909  44.510   3.300
95586W        W67846   0.275  31.287  11.144
95587W        W67847  38.978  10.648   3.699
95588W        W67848  27.539  27.563  13.335
95589W        W67849   5.030   5.260   0.149
95590W        W67850  42.437  41.838   0.719
95591W        W67851  24.487  33.940   2.403
95592W        W67852  37.281  14.246   0.802
95593W        W67853  25.580   7.918  11.207
95594W        W67854  33.602  41.901  10.674
95595W        W67855  27.434  40.015   3.355
95596W        W67856  16.251  13.044  12.377
95597W        W67857  29.119   8.891   1.692
95598W        W67858  31.538   7.726   2.703
95599W        W67859  40.782  31.467   0.713
95600W        W67860  39.779   8.468   3.746
95601W        W67861   8.700  22.500  13.316
95602W        W67862  19.791  18.984  12.919
95603W        W67863  44.987  38.991  10.659
95604W        W67864  13.190  27.034   0.462
95605W        W67865  22.431  19.019  10.910
95606W        W67866  17.376  29.524  12.540
95607W        W67867  17.005  14.144   0.865
95608W        W67868  39.865  41.944  14.396
95609W        W67869  30.135  26.388   2.761
95610W        W67870  16.240  19.218  13.608
95611W        W67871  35.861  31.636   2.575
95612W        W67872  25.733  15.721  11.232
95613W        W67873  15.232  30.014   3.770
95614W        W67874   8.902  34.091   2.701
95615W        W67875  21.750  24.673  12.021
95616W        W67876  22.671   9.310  13.151
95617W        W67877   9.769  11.301   1.911
95618W        W67878  12.492  25.674   4.204
95619W        W67879  42.859  19.306  13.272
95620W        W67880  43.948  32.398  12.028
95621W        W67881  16.230  40.551   3.081
95622W        W67882   0.140  38.097  13.481
95623W        W67883  33.183   9.760  11.469
95624W        W67884  26.961  23.063   1.503
95625W        W67885  39.775  18.129  12.379
95626W        W67886   7.181  32.441  11.131
95627W        W67887  12.033  10.549   0.123
95628W        W67888  23.644  41.835   4.626
95629W        W67889   4.813  36.835   3.842
95630W        W67890   7.355  39.866   1.709
95631W        W67891   4.800  30.628   1.737
95632W        W67892  42.742   7.229   4.547
95633W        W67893  21.398  37.337   2.848
95634W        W67894  38.780   8.633  10.233
95635W        W67895  16.131  23.497  12.499
95636W        W67896  26.768  25.662   2.957
95637W        W67897  43.904  17.931  14.998
95638W        W67898  17.084   5.203  12.475
95639W        W67899  30.009  32.124  10.714
95640W        W67900  15.240  29.669   1.269
95641W        W67901  29.236  41.818  10.855
95642W        W67902  32.259  44.637  10.972
95643W        W67903  44.520  43.252   4.612
95644W        W67904  43.534   0.707   2.720
95645W        W67905  33.948  20.344  13.198
95646W        W67906  38.776   9.281   0.265
95647W        W67907  20.157  16.767   2.056
95648W        W67908  12.063  17.674   2.992
95649W        W67909  25.181   1.819   3.361
95650W        W67910  15.397  44.193  10.610
95651W        W67911  25.603  36.874  10.461
95652W        W67912   4.339  16.335   0.960
95653W        W67913  13.826  42.263   0.790
95654W        W67914  30.380  35.848  12.561
95655W        W67915  43.701  30.640   4.229
95656W        W67916   3.255  38.417  12.312
95657W        W67917  27.947  35.006   2.754
95658W        W67918  42.306   5.710   2.707
95659W        W67919  32.985   7.102   0.707
95660W        W67920   2.506  44.039   2.770
95661W        W67921   2.981  20.031  10.661
95662W        W67922  39.348  42.134  11.107
95663W        W67923  11.247  32.131   4.546
95664W        W67924  36.505  22.244   3.808
95665W        W67925  44.520  17.015  10.537
95666W        W67926   4.159  11.214   2.667
95667W        W67927  23.021   8.687   2.418
95668W        W67928  28.262  13.243  13.031
95669W        W67929   2.735  37.667  14.332
95670W        W67930  10.738  22.821  11.694
95671W        W67931  27.659   6.265  12.963
95672W        W67932  16.309   4.983   2.402
95673W        W67933  19.400  22.053  12.625
95674W        W67934  39.524  13.081   1.868
95675W        W67935  36.020   7.698   3.287
95676W        W67936  24.981   9.968  12.914
95677W        W67937  30.111  36.894  14.034
95678W        W67938  21.252  15.292  14.506
95679W        W67939  29.169  10.116  12.058
95680W        W67940  41.442  29.901   2.876
95681W        W67941  40.214  18.808  14.931
95682W        W67942  26.920  29.935  11.203
95683W        W67943  22.722  12.892  11.199
95684W        W67944  40.960   8.347  11.179
95685W        W67945  34.753  29.971   0.215
95686W        W67946  26.807  36.023   4.728
95687W        W67947   9.737  22.939  12.659
95688W        W67948  27.960  16.046   3.282
95689W        W67949  37.004  37.614  12.983
95690W        W67950  22.789  22.547   5.073
95691W        W67951  22.756  28.050   9.766
95692W        W67952  32.318   2.415   3.794
95693W        W67953  19.391  19.208  10.657
95694W        W67954  41.031  23.666  13.185
95695W        W67955  30.639  12.079  13.160
95696W        W67956  13.696   5.662  11.735
95697W        W67957  41.354  27.129  13.076
95698W        W67958  35.105  22.569  11.870
95699W        W67959  33.096  13.279   3.414
95700W        W67960  17.943  34.846  10.629
95701W        W67961  22.398   7.102  14.710
95702W        W67962  22.614   2.130  11.845
95703W        W67963  13.571   7.459  12.435
95704W        W67964  28.229  16.790  12.958
95705W        W67965  42.298   1.713   1.659
95706W        W67966  15.539  15.563   3.149
95707W        W67967  26.645  34.034  10.603
95708W        W67968  18.921  27.064   2.408
95709W        W67969  20.446  27.791   1.632
95710W        W67970  14.189  35.334   0.726
95711W        W67971  12.353  16.312   4.075
95712W        W67972  23.198  35.082   2.423
95713W        W67973  20.068   6.585  12.644
95714W        W67974  43.266   0.229  12.135
95715W        W67975   1.725  13.903   4.658
95716W        W67976  36.590  24.088  13.724
95717W        W67977  17.767  19.000   3.787
95718W        W67978   8.637  11.142   4.415
95719W        W67979  21.487  13.316  14.414
95720W        W67980  39.411  39.493   2.125
95721W        W67981  17.049  42.768  13.706
95722W        W67982  10.825  23.504   2.733
95723W        W67983  30.669  32.031  14.814
95724W        W67984  25.225  10.645  14.428
95725W        W67985  11.885   1.295  11.996
95726W        W67986   1.834  11.082   2.928
95727W        W67987  41.206  30.454   4.185
95728W        W67988  24.452  40.291   9.978
95729W        W67989  42.311  37.931  12.122
95730W        W67990  44.729   7.917   2.290
95731W        W67991  35.853  26.992   0.826
95732W        W67992  26.384  35.548  14.308
95733W        W67993  22.099  44.774  12.806
95734W        W67994  23.398   1.522   3.659
95735W        W67995  29.186  30.417   3.089
95736W        W67996  30.499  18.993   1.760
95737W        W67997  23.634   7.858  14.961
95738W        W67998  29.466  31.060  12.179
95739W        W67999  38.471  13.248  12.428
95740W        W68000  15.527  33.054   1.071
95741W        W68001  22.125  33.385  12.803
95742W        W68002   3.676  19.603  13.775
95743W        W68003  28.890  11.281  10.813
95744W        W68004  23.078  39.981  12.445
95745W        W68005  11.355  35.060  14.299
95746W        W68006  29.975  37.294   2.267
95747W        W68007   1.195  14.187  14.467
95748W        W68008   3.391  28.768   1.973
95749W        W68009  28.587  29.864   3.514
95750W        W68010  40.527  31.894   1.889
95751W        W68011  43.588   0.887  13.069
95752W        W68012  13.185  38.550   0.908
95753W        W68013  12.409  32.715  11.904
95754W        W68014   6.758   1.850   1.879
95755W        W68015  34.013  42.925   2.125
95756W        W68016   9.261  38.917   2.601
95757W        W68017   5.847  28.661   2.079
95758W        W68018  26.628  36.904   1.329
95759W        W68019  11.242   7.811   1.284
95760W        W68020  27.066  20.904  14.241
95761W        W68021   9.425  33.979   3.845
95762W        W68022  41.820  38.542  11.151
95763W        W68023   8.332   6.624   4.131
95764W        W68024  29.417  15.756   3.879
95765W        W68025  43.860  18.194  14.052
95766W        W68026  15.730  38.037   0.583
95767W        W68027   7.108  26.915  12.955
95768W        W68028  20.292  22.475  13.993
95769W        W68029  29.644  33.220   4.266
95770W        W68030  21.922  12.615   3.221
95771W        W68031  42.867  30.514   2.806
95772W        W68032   7.916   7.716   4.532
95773W        W68033  43.866  31.442   4.769
95774W        W68034   5.357  27.529  12.272
95775W        W68035  13.251  22.249   3.223
95776W        W68036  43.337  17.101   4.329
95777W        W68037   1.750  13.339  12.946
95778W        W68038  23.633  23.208   3.965
95779W        W68039   5.169   4.400  13.572
95780W        W68040  33.448  28.440  11.637
95781W        W68041   3.527  28.595  14.052
95782W        W68042  19.689   2.178  10.929
95783W        W68043  19.271   0.899   0.297
95784W        W68044   2.260  41.099  13.856
95785W        W68045  20.522  14.326   2.145
95786W        W68046  22.199  21.336   5.594
95787W        W68047   4.937  18.187  14.373
95788W        W68048   5.204  34.341  14.399
95789W        W68049  15.543  17.109  13.160
95790W        W68050  12.942  12.838   3.088
95791W        W68051  39.869  21.550   0.202
95792W        W68052  17.147  40.183   3.285
95793W        W68053   2.711  43.905  11.991
95794W        W68054   3.064  28.109  13.379
95795W        W68055  29.817  28.639   0.451
95796W        W68056  41.190   4.763  14.505
95797W        W68057  25.248   4.695  14.973
95798W        W68058  21.732  42.508   0.288
95799W        W68059   5.698   5.893  11.554
95800W        W68060  17.595  11.275   1.351
95801W        W68061  18.230  18.067   4.363
95802W        W68062  36.517  22.406  13.724
95803W        W68063  37.002  25.556   3.335
95804W        W68064  43.461   0.403  14.918
95805W        W68065   2.453  24.076  13.085
95806W        W68066  15.735  30.359  11.078
95807W        W68067   4.118  42.791  14.257
95808W        W68068  33.270  21.353   0.841
95809W        W68069  38.837   7.573   4.570
95810W        W68070  18.178   4.143   4.568
95811W        W68071  19.694  27.902   3.229
95812W        W68072  29.639  41.789   3.197
95813W        W68073  38.589   4.690  12.414
95814W        W68074   8.255  18.387   4.795
95815W        W68075   4.718  31.706  13.929
95816W        W68076  14.259  40.332   1.252
95817W        W68077   1.693  43.199   2.353
95818W        W68078  25.240  20.619   2.189
95819W        W68079  23.556  34.548  12.843
95820W        W68080  26.688  37.411  12.907
95821W        W68081  32.335  37.842  14.429
95822W        W68082  15.705  43.026  11.977
95823W        W68083  41.595  33.365   1.183
95824W        W68084  25.245   1.477   1.753
95825W        W68085  44.926  19.354  11.182
95826W        W68086  19.477  33.976   0.277
95827W        W68087  33.928  37.110  12.473
95828W        W68088   1.896  29.121  12.988
95829W        W68089   9.135   8.328  12.861
95830W        W68090  27.682  40.989   3.967
95831W        W68091  25.031  20.539  13.125
95832W        W68092  18.150  15.822   2.157
95833W        W68093   3.462   4.313  11.427
95834W        W68094  29.913  23.925  11.520
95835W        W68095  43.853  44.951  14.948
95836W        W68096   2.270  21.184   0.600
95837W        W68097  21.273  41.265  14.528
95838W        W68098  19.588  22.966  14.297
95839W        W68099  12.253  32.597  13.801
95840W        W68100  26.358   3.757   3.662
95841W        W68101  31.457  14.612  14.326
95842W        W68102  35.226   5.631  13.287
95843W        W68103   6.274  29.523   4.329
95844W        W68104  43.981  40.794   0.349
95845W        W68105  17.737  21.719  14.905
95846W        W68106  41.928  41.788   0.474
95847W        W68107  12.069  33.233   1.357
95848W        W68108  23.297  20.942   4.150
95849W        W68109   2.225  10.320  10.970
95850W        W68110  40.935  38.850   0.374
95851W        W68111  11.741  24.609  12.159
95852W        W68112  36.030  35.663  14.796
95853W        W68113  37.651  11.187   0.505
95854W        W68114   5.708  25.237  10.597
95855W        W68115  15.788  35.589  13.947
95856W        W68116  27.572  11.110  13.816
95857W        W68117  37.885  34.504   1.350
95858W        W68118  41.327  30.677   0.297
95859W        W68119  32.881  31.576   3.680
95860W        W68120  33.952   8.848   3.644
95861W        W68121  24.803   9.931   0.335
95862W        W68122   7.099  16.343  12.417
95863W        W68123  41.241  23.788   2.247
95864W        W68124   3.721  32.746  12.990
95865W        W68125   3.304   1.268   3.234
95866W        W68126  18.041  39.602   4.780
95867W        W68127  37.304   3.500   3.054
95868W        W68128  16.483  25.562   2.695
95869W        W68129  43.771  29.715  13.182
95870W        W68130  23.211  15.225   0.798
95871W        W68131  38.906  32.946   2.442
95872W        W68132   2.851  27.690   3.976
95873W        W68133  39.273  26.400   2.865
95874W        W68134  44.744  38.323   1.708
95875W        W68135   5.163  39.322   4.557
95876W        W68136  37.559   5.100  10.883
95877W        W68137  39.993  36.887  11.670
95878W        W68138   1.925  11.944  11.444
95879W        W68139  31.048  17.251  11.923
95880W        W68140  34.507  32.537   4.612
95881W        W68141  30.739   5.095  11.498
95882W        W68142   8.950  28.560   0.914
95883W        W68143  17.441  23.224   0.841
95884W        W68144  22.959  36.599   0.504
95885W        W68145   1.796   6.952   2.663
95886W        W68146  23.665  21.038  13.747
95887W        W68147  43.573  43.718   3.727
95888W        W68148  35.361  21.759   0.437
95889W        W68149  29.429   6.071   3.183
95890W        W68150  24.593  28.817  14.439
95891W        W68151   3.456  25.389  12.554
95892W        W68152  21.641  26.748  13.538
95893W        W68153   1.735  11.633   1.279
95894W        W68154   9.379  10.451  12.714
95895W        W68155  34.880   8.609  14.086
95896W        W68156  22.964  22.205   4.730
95897W        W68157  11.669   9.320  12.942
95898W        W68158  41.708  36.101  11.981
95899W        W68159  17.285  33.004   2.478
95900W        W68160  33.474  39.084  14.023
95901W        W68161  21.418   1.466   0.625
95902W        W68162  26.666  20.707  14.523
95903W        W68163  25.036  37.523   2.692
95904W        W68164  29.318  28.459  11.706
95905W        W68165  16.042  26.272   2.953
95906W        W68166   3.284   2.052   2.161
95907W        W68167  43.809  12.168   2.312
95908W        W68168  18.363  31.527  14.185
95909W        W68169  23.291  33.538   2.226
95910W        W68170  12.922   3.112   1.362
95911W        W68171  36.497  23.471   3.282
95912W        W68172   8.453  29.524   2.811
95913W        W68173  17.285  24.088  12.013
95914W        W68174  17.983  26.575   0.964
95915W        W68175   9.653  36.434   1.739
95916W        W68176  27.939   8.374   1.369
95917W        W68177   3.411  26.924   2.213
95918W        W68178  36.830  13.254  13.557
95919W        W68179  40.002  19.666  12.951
95920W        W68180  43.272  37.613  13.697
95921W        W68181  42.513   0.192  13.922
95922W        W68182  17.777  31.681  12.069
95923W        W68183  15.039  39.926  11.944
95924W        W68184   3.213  13.537   4.887
95925W        W68185  24.079  37.890   1.965
95926W        W68186  34.491  41.558   4.904
95927W        W68187  20.599  27.082  13.707
95928W        W68188   9.693  10.132  13.760
95929W        W68189   3.334  23.771   0.345
95930W        W68190   8.314  36.193   4.190
95931W        W68191  37.826   4.849  14.470
95932W        W68192  19.673   2.004  13.700
95933W        W68193  28.128  17.988   0.473
95934W        W68194  27.940  27.885  13.441
95935W        W68195  19.633   9.329   2.688
95936W        W68196   8.706  10.927   4.907
95937W        W68197  26.487   0.318  12.848
95938W        W68198  20.686  11.171   0.009
95939W        W68199   2.720  28.588   0.181
95940W        W68200  31.249   9.812   3.401
95941W        W68201  20.031  10.793  13.952
95942W        W68202  39.528  10.326  13.519
95943W        W68203  26.496  12.079  11.177
95944W        W68204  39.220  26.419  10.958
95945W        W68205  26.459  17.369   4.633
95946W        W68206  35.166  21.615   1.648
95947W        W68207  36.436  43.503  14.322
95948W        W68208   3.746  28.774  14.869
95949W        W68209   9.438  17.102  13.139
95950W        W68210  16.170  35.594   3.542
95951W        W68211  21.736  37.911  12.088
95952W        W68212  22.969  36.696  12.040
95953W        W68213  10.131   9.563   2.806
95954W        W68214  44.392  31.314  13.578
95955W        W68215  43.155  41.274  12.514
95956W        W68216   7.829  42.550   1.181
95957W        W68217  41.111  28.511  10.735
95958W        W68218  20.085   4.334   2.854
95959W        W68219  27.939  22.393   4.681
95960W        W68220  27.484   1.862  13.529
95961W        W68221  14.628  31.151  11.027
95962W        W68222  21.585  31.180   4.165
95963W        W68223  12.244  35.160   4.713
95964W        W68224  33.604  27.631   4.502
95965W        W68225   8.085  36.330  10.445
95966W        W68226  12.487   3.686  13.548
95967W        W68227  39.894  35.937  10.695
95968W        W68228   3.327  25.879   2.168
95969W        W68229  21.183  27.324  14.467
95970W        W68230  34.662  43.544  12.342
95971W        W68231  28.215  20.171  11.679
95972W        W68232  17.006  39.747   4.134
95973W        W68233  42.366  19.575   4.671
95974W        W68234  15.594  35.877  11.546
95975W        W68235  15.065  23.462   2.439
95976W        W68236  35.965  17.715   3.642
95977W        W68237   6.141  23.522   1.178
95978W        W68238  31.694  41.010   2.309
95979W        W68239  23.246  31.108   2.321
95980W        W68240   1.356  13.689  14.585
95981W        W68241  29.485  29.462   4.630
95982W        W68242  40.780  33.018  12.839
95983W        W68243   1.209  41.053  13.140
95984W        W68244  27.610  26.179   3.774
95985W        W68245  21.287  11.169  11.982
95986W        W68246  26.501  26.552   1.546
95987W        W68247  33.298  33.962  11.653
95988W        W68248  41.535   3.103  14.421
95989W        W68249  26.777  38.407   2.471
95990W        W68250  25.916  38.979   9.920
95991W        W68251  19.817  30.481  11.766
95992W        W68252  14.498   9.696  11.051
95993W        W68253   5.293  15.582  10.705
95994W        W68254  13.084  35.792   4.665
95995W        W68255  19.238   3.419  12.460
95996W        W68256  21.683  40.994  13.298
95997W        W68257  13.570  28.464   3.678
95998W        W68258   2.039  36.623  11.173
95999W        W68259  25.930  14.715   0.486
96000W        W68260  21.429  35.409  14.381
96001W        W68261  26.813  21.921   2.158
96002W        W68262  21.187   1.073   2.361
96003W        W68263  41.315  12.038   5.238
96004W        W68264   7.712  44.387  11.113
96005W        W68265  40.927   5.033   0.745
96006W        W68266  36.319  38.624  13.894
96007W        W68267  38.110   3.004   2.231
96008W        W68268  15.255  32.619  14.910
96009W        W68269   3.797  26.075   2.245
96010W        W68270  36.963  19.782  10.233
96011W        W68271   1.243  14.984  12.829
96012W        W68272  30.188   1.763  14.346
96013W        W68273  27.266  30.544  14.330
96014W        W68274  29.585  31.105   0.969
96015W        W68275  14.395   8.754   1.734
96016W        W68276  10.297   9.623  12.647
96017W        W68277  37.660  34.956  14.313
96018W        W68278  28.075  34.899   3.733
96019W        W68279  14.841  23.642  12.895
96020W        W68280   7.965  21.181   2.111
96021W        W68281  28.755  33.349  11.560
96022W        W68282   5.069  28.487  12.894
96023W        W68283  19.674   1.258   2.702
96024W        W68284  34.102   2.719   2.479
96025W        W68285  17.286  29.770  11.616
96026W        W68286   3.678  12.661   0.882
96027W        W68287  10.648  13.862  12.559
96028W        W68288   4.379   7.945   0.422
96029W        W68289  29.400  15.853  14.325
96030W        W68290  37.558   9.607   2.071
96031W        W68291  29.469  42.964   2.225
96032W        W68292  29.341   2.296  14.899
96033W        W68293  44.546  35.822   0.973
96034W        W68294  10.039  15.918  14.917
96035W        W68295   0.443  32.740  13.675
96036W        W68296  35.516  28.735   0.687
96037W        W68297   6.581  10.459  14.766
96038W        W68298  13.866  25.874   4.671
96039W        W68299  27.198   9.606  13.140
96040W        W68300  33.487  33.569  12.370
96041W        W68301  20.613  44.316   3.296
96042W        W68302  23.720  13.555  14.007
96043W        W68303  41.065  14.560   0.839
96044W        W68304   7.369  22.508  11.599
96045W        W68305  38.249   6.923   0.070
96046W        W68306  39.265  12.522   2.780
96047W        W68307  25.582  21.237  13.532
96048W        W68308  35.077  23.798  12.147
96049W        W68309  11.089  43.279   4.632
96050W        W68310  27.574  40.502   4.877
96051W        W68311  42.280  23.219   0.409
96052W        W68312  33.473  35.294  11.641
96053W        W68313  36.092  23.044   3.191
96054W        W68314  44.669  36.631   4.800
96055W        W68315  17.308   8.411  11.550
96056W        W68316  38.524  14.273  10.735
96057W        W68317  13.125   7.062  10.693
96058W        W68318  40.074  41.462  12.999
96059W        W68319  28.901   5.308  11.700
96060W        W68320  39.490  26.791  13.846
96061W        W68321  11.916   4.688   0.387
96062W        W68322  36.647  29.630  11.509
96063W        W68323   9.215   4.242  14.815
96064W        W68324  20.704  24.523   4.615
96065W        W68325   8.661  25.281   1.865
96066W        W68326  10.839  24.037   2.687
96067W        W68327  27.642  26.557   5.031
96068W        W68328  22.230   3.257   3.287
96069W        W68329  39.921  27.204   2.391
96070W        W68330  40.309  32.379   3.155
96071W        W68331  29.279   2.790   3.708
96072W        W68332  21.140  43.491   0.149
96073W        W68333   3.868  36.645  12.396
96074W        W68334  16.097   4.993   5.022
96075W        W68335  43.378  13.096   2.680
96076W        W68336   2.737   2.155   0.739
96077W        W68337   6.467  16.973   3.206
96078W        W68338  13.662  44.945  11.869
96079W        W68339  40.283  11.354   4.092
96080W        W68340   5.289  40.734   1.755
96081W        W68341   3.366   1.865  11.008
96082W        W68342  10.706  27.087  14.386
96083W        W68343  12.867  34.388   3.293
96084W        W68344  22.648  28.471  12.839
96085W        W68345  27.670  22.063  12.655
96086W        W68346  29.412  17.861  10.827
96087W        W68347   6.153   6.350  11.570
96088W        W68348  38.923  11.280   2.339
96089W        W68349  14.711   5.874   4.806
96090W        W68350  33.443  34.155  13.042
96091W        W68351  44.346  19.759   2.873
96092W        W68352  35.890  23.125  11.147
96093W        W68353  14.160  22.261   0.026
96094W        W68354  14.874  21.506   3.689
96095W        W68355   9.809  26.593   3.182
96096W        W68356  40.456  28.839  13.774
96097W        W68357   9.473  14.812   0.374
96098W        W68358  13.112   4.893  11.942
96099W        W68359  39.500  43.043  11.111
96100W        W68360  27.548   8.033  12.354
96101W        W68361  37.970   2.691  14.732
96102W        W68362  35.665  18.557   3.837
96103W        W68363  20.776  39.035   2.626
96104W        W68364  24.077  39.988   4.198
96105W        W68365  25.696  42.380   1.318
96106W        W68366   2.944  12.055   4.706
96107W        W68367  24.366  41.588   2.408
96108W        W68368  33.379  32.395   3.698
96109W        W68369  17.176   0.768   2.775
96110W        W68370   9.307  20.583   0.029
96111W        W68371   7.979  26.907  11.288
96112W        W68372  14.792  21.570  12.102
96113W        W68373  22.749   3.335  13.716
96114W        W68374   4.758  27.771  11.586
96115W        W68375  20.127  21.097  13.514
96116W        W68376  42.404   9.812  14.690
96117W        W68377   2.334  29.392   1.766
96118W        W68378  11.280  34.089   2.779
96119W        W68379   6.932   6.145   3.659
96120W        W68380  44.506  23.135   4.817
96121W        W68381  37.946  33.054   0.540
96122W        W68382  40.998  22.623   0.932
96123W        W68383  33.086  32.066  10.613
96124W        W68384  22.243  26.765   0.572
96125W        W68385  44.372  23.002  13.603
96126W        W68386  11.393  28.910   0.869
96127W        W68387  13.764  28.920   0.591
96128W        W68388  14.768  22.323   4.066
96129W        W68389  26.279  29.199   3.704
96130W        W68390  29.034  15.193  14.715
96131W        W68391  14.677  15.677  12.572
96132W        W68392  44.976  14.980   1.177
96133W        W68393   1.733  42.605   1.749
96134W        W68394  33.335  30.594  14.431
96135W        W68395  20.211  17.614   2.591
96136W        W68396  41.577  15.955  13.781
96137W        W68397  28.923  44.822   2.288
96138W        W68398  17.383   1.125   4.092
96139W        W68399  32.629  16.071  12.986
96140W        W68400  43.525  18.648   4.302
96141W        W68401  23.977   0.835  11.986
96142W        W68402  37.068   0.290  10.736
96143W        W68403   1.429  25.034  12.070
96144W        W68404  34.463  18.968  12.143
96145W        W68405   2.359  40.149   3.305
96146W        W68406  36.108  26.962   3.795
96147W        W68407  20.354  17.311  11.186
96148W        W68408  20.088   9.056  10.194
96149W        W68409  12.134  22.660   4.617
96150W        W68410  41.485  21.032   0.781
96151W        W68411  23.542  31.378  14.404
96152W        W68412   3.966  40.547   4.483
96153W        W68413  39.119   6.042   4.615
96154W        W68414  36.320   8.836  11.647
96155W        W68415   9.785  34.329  12.312
96156W        W68416   0.915  26.280  12.022
96157W        W68417  40.425  27.895   3.158
96158W        W68418  18.665  26.761   5.023
96159W        W68419  36.866   6.863   0.038
96160W        W68420  12.145   4.914   4.598
96161W        W68421   8.265  13.206   1.758
96162W        W68422  11.173  27.431  10.692
96163W        W68423  14.043  27.344  13.285
96164W        W68424  37.848   6.194  10.704
96165W        W68425  35.099  34.934   4.721
96166W        W68426  31.487  35.987  12.183
96167W        W68427   6.818  39.307   1.043
96168W        W68428  19.147  12.580   0.428
96169W        W68429  11.269  42.898   2.522
96170W        W68430   2.010   8.233   3.390
96171W        W68431   0.831  32.710   1.709
96172W        W68432  33.361   9.959   1.235
96173W        W68433   8.926  33.114   1.037
96174W        W68434  16.770  18.626  10.247
96175W        W68435   9.244  44.114   4.350
96176W        W68436  38.893   3.326   0.939
96177W        W68437  39.139  37.343  14.480
96178W        W68438  39.298  35.269   4.106
96179W        W68439  39.440  20.582   0.199
96180W        W68440  15.248  19.097  14.563
96181W        W68441  34.017   8.356   0.033
96182W        W68442  21.730  43.807  11.641
96183W        W68443  32.475   7.389   2.782
96184W        W68444  31.102   5.696  11.177
96185W        W68445  40.846  37.498   3.665
96186W        W68446  41.298   3.405  13.470
96187W        W68447   7.839  30.628   0.771
96188W        W68448  20.228  16.807  14.363
96189W        W68449  39.732  10.675   0.103
96190W        W68450   8.686   0.848   3.012
96191W        W68451  14.762   1.678  13.515
96192W        W68452  19.382  31.601   3.790
96193W        W68453  27.179  28.011  12.224
96194W        W68454  27.164  44.214   1.265
96195W        W68455  14.716  41.804  14.839
96196W        W68456   9.949  38.966  13.415
96197W        W68457  16.341   5.940  14.400
96198W        W68458  27.141  12.081  10.597
96199W        W68459  10.673  14.143  11.828
96200W        W68460  15.649  42.795   1.386
96201W        W68461  44.358  17.880   0.818
96202W        W68462  41.855  42.187  10.411
96203W        W68463  24.216  38.567   3.310
96204W        W68464  16.134   4.483  11.076
96205W        W68465  43.952   4.909   1.289
96206W        W68466  35.234  22.592  13.922
96207W        W68467  12.608   0.979   4.619
96208W        W68468   2.021  22.218   0.890
96209W        W68469   7.241   5.845  14.340
96210W        W68470   2.906   0.912  14.419
96211W        W68471  37.616  28.128   3.689
96212W        W68472   3.740  14.723   1.414
96213W        W68473  30.658  32.146  12.417
96214W        W68474  12.758  29.901  13.328
96215W        W68475  14.364  14.986  10.299
96216W        W68476   8.351  34.523  12.010
96217W        W68477  31.735  20.189   4.276
96218W        W68478  14.717  44.832  10.449
96219W        W68479   1.667  30.596   2.600
96220W        W68480  22.249  18.683  12.340
96221W        W68481   3.620  31.108   4.636
96222W        W68482   9.450  20.124   2.728
96223W        W68483  43.823   7.664  14.866
96224W        W68484  33.794   5.687   3.235
96225W        W68485  10.658  38.569   1.418
96226W        W68486  18.042  23.596  11.107
96227W        W68487  19.075   2.646   0.747
96228W        W68488  40.575  36.115   4.156
96229W        W68489   8.937   1.942  13.722
96230W        W68490  26.574   8.864   4.726
96231W        W68491  13.590  28.040   4.008
96232W        W68492  16.238  30.327   3.029
96233W        W68493  25.215   0.458  14.649
96234W        W68494  15.061  18.042   0.422
96235W        W68495  40.471  23.758   1.279
96236W        W68496   4.851  14.364  13.992
96237W        W68497  10.203  13.211   0.465
96238W        W68498  42.765  34.663   0.615
96239W        W68499  37.393  32.672  14.944
96240W        W68500  16.587  37.427   3.175
96241W        W68501  10.201  23.968   0.789
96242W        W68502   7.233   7.779  14.418
96243W        W68503   9.748  28.371  10.590
96244W        W68504   9.795  35.916   2.511
96245W        W68505  35.894  10.075   1.465
96246W        W68506   9.800  17.568  11.850
96247W        W68507  37.435  28.855   3.592
96248W        W68508  38.344  42.445   3.844
96249W        W68509  31.403  39.888   2.217
96250W        W68510  40.341   5.911  12.930
96251W        W68511  44.918   9.082   3.249
96252W        W68512  21.655   1.388   3.651
96253W        W68513  35.449   7.781   1.846
96254W        W68514   3.160  25.014   3.872
96255W        W68515   0.015  12.608  12.112
96256W        W68516   5.751  10.661  14.168
96257W        W68517  30.741  42.100  11.174
96258W        W68518  42.069   2.727   1.433
96259W        W68519  14.605  31.860  12.127
96260W        W68520  14.223   0.656   1.882
96261W        W68521  39.169  12.104  10.826
96262W        W68522  22.677  14.569  13.858
96263W        W68523   3.151  24.569   4.195
96264W        W68524  32.635   5.367  10.942
96265W        W68525   9.729  16.074  11.688
96266W        W68526   5.923  32.651   0.423
96267W        W68527  40.987   4.548   0.902
96268W        W68528  12.665   2.253   2.812
96269W        W68529  43.215  23.459  14.955
96270W        W68530  40.849  29.017   0.448
96271W        W68531  10.664  35.436  12.451
96272W        W68532  24.583  43.375  14.033
96273W        W68533  29.744  37.540  11.945
96274W        W68534  29.171  44.026   0.383
96275W        W68535   4.941  30.588  13.092
96276W        W68536  22.254  10.390  11.567
96277W        W68537   4.816  39.028   0.193
96278W        W68538  34.916   9.175  10.665
96279W        W68539  35.720  34.709  13.137
96280W        W68540   3.072   3.157  12.059
96281W        W68541  17.279   7.153   2.239
96282W        W68542  19.759  35.837  11.348
96283W        W68543  18.064  36.075  12.982
96284W        W68544  28.117  26.108   4.615
96285W        W68545  17.378   0.855   0.009
96286W        W68546  40.908   6.111   4.631
96287W        W68547  12.278   7.732   0.293
96288W        W68548  31.494  38.610   0.951
96289W        W68549   7.763  10.706  14.438
96290W        W68550  28.019   1.824  13.572
96291W        W68551  25.573  13.843   0.918
96292W        W68552  15.246  37.530   3.217
96293W        W68553   6.828  16.194   0.486
96294W        W68554  38.970  18.320  12.677
96295W        W68555  26.032  31.238  11.151
96296W        W68556  41.066  31.649  10.994
96297W        W68557  21.322  13.331  12.360
96298W        W68558  20.620  39.333   1.334
96299W        W68559  44.456  16.263   2.309
96300W        W68560  14.165   0.354  13.491
96301W        W68561  17.323  29.834  13.359
96302W        W68562   9.807  29.177  12.489
96303W        W68563   1.278  19.516  14.394
96304W        W68564  29.583  12.100   4.899
96305W        W68565  33.874   1.398   2.149
96306W        W68566  39.737   1.632  14.830
96307W        W68567  39.331   7.218  14.466
96308W        W68568   3.718  41.741   1.180
96309W        W68569  14.660   5.848   4.294
96310W        W68570  41.509  12.101   3.353
96311W        W68571  34.769  34.471  10.253
96312W        W68572  20.579  31.614   1.194
96313W        W68573  24.544   7.161   1.827
96314W        W68574  42.449   5.881   0.488
96315W        W68575  24.699  10.607   2.940
96316W        W68576  32.539  39.560  14.801
96317W        W68577  43.987  39.263   2.909
96318W        W68578  16.751  11.215  13.908
96319W        W68579  25.473  42.100  11.617
96320W        W68580   2.959  33.989  13.392
96321W        W68581  29.599   5.534  12.401
96322W        W68582  13.696  17.249  11.986
96323W        W68583  13.213   0.863   4.485
96324W        W68584   1.438  31.094  13.470
96325W        W68585  12.395  33.376   4.168
96326W        W68586   2.527  32.069  12.044
96327W        W68587  29.622  44.376  13.594
96328W        W68588  31.378   5.132   2.360
96329W        W68589  38.244  38.895  11.141
96330W        W68590  41.616   8.249   3.875
96331W        W68591  13.223  43.420   1.985
96332W        W68592  28.942  13.367  12.236
96333W        W68593  41.766  24.024  14.327
96334W        W68594   3.252  10.810  10.121
96335W        W68595   8.766  35.583   4.283
96336W        W68596   7.136  35.472   4.156
96337W        W68597  36.853  20.241  12.319
96338W        W68598  37.228  34.796  13.527
96339W        W68599  15.454  32.226   0.169
96340W        W68600  13.208  27.206   3.268
96341W        W68601  17.989  22.793   3.937
96342W        W68602  23.672  20.311   0.372
96343W        W68603   2.823  21.988   1.357
96344W        W68604  30.486   1.410   0.857
96345W        W68605  39.850   6.124   4.164
96346W        W68606  35.754   9.818  12.441
96347W        W68607   4.757  42.507  14.001
96348W        W68608  17.941  14.647   1.712
96349W        W68609   9.047  31.173   0.914
96350W        W68610  25.002  18.730  11.990
96351W        W68611  24.517  22.196  12.089
96352W        W68612  12.679  32.430   3.260
96353W        W68613  42.989   7.394   4.963
96354W        W68614  26.693   4.387  10.260
96355W        W68615  18.679  15.776   2.301
96356W        W68616   1.318  40.222  11.212
96357W        W68617  15.566  14.534   9.729
96358W        W68618  44.668  38.839  13.987
96359W        W68619  25.453  35.644  10.244
96360W        W68620  21.621  19.687  12.577
96361W        W68621  38.825  13.663   0.440
96362W        W68622  15.487  37.295   2.394
96363W        W68623  25.593   4.001  10.367
96364W        W68624  34.436  37.813   1.628
96365W        W68625   9.887  35.442   3.742
96366W        W68626  12.657   9.764  11.965
96367W        W68627  27.071  38.323   1.985
96368W        W68628  38.698  22.226  14.674
96369W        W68629  41.922  22.796  12.410
96370W        W68630  29.281  19.636   2.233
96371W        W68631  22.154  18.805   2.779
96372W        W68632  37.967  25.783   2.491
96373W        W68633   3.880  33.863   1.079
96374W        W68634  10.258  32.045   2.116
96375W        W68635  38.608  35.091  14.011
96376W        W68636  23.744  19.272   0.755
96377W        W68637  10.383  42.765  10.354
96378W        W68638  33.622   9.235   3.814
96379W        W68639  24.257  34.978  12.509
96380W        W68640   5.870  14.041   0.773
96381W        W68641  37.521  28.612  11.729
96382W        W68642  42.327  17.685  13.454
96383W        W68643  37.518   4.394  12.830
96384W        W68644  42.414   7.922   3.796
96385W        W68645   9.857  20.505  12.417
96386W        W68646  10.878  16.725   2.154
96387W        W68647   1.202  30.177   2.524
96388W        W68648   3.427  31.334   0.858
96389W        W68649  17.015   3.386  13.028
96390W        W68650  34.371   1.325  12.309
96391W        W68651  41.830  17.023  12.113
96392W        W68652  16.105  27.866   3.686
96393W        W68653  44.340  21.781   2.472
96394W        W68654  11.130  10.427   1.327
96395W        W68655  12.644   9.865  14.707
96396W        W68656  25.535   8.399  13.614
96397W        W68657   5.217  44.329  12.502
96398W        W68658  20.002   8.771   1.226
96399W        W68659  23.265  17.578   2.228
96400W        W68660   9.113   8.707  14.880
96401W        W68661  16.384  17.817  11.741
96402W        W68662  30.972   9.273  14.773
96403W        W68663  26.171   7.439  11.466
96404W        W68664   8.330   3.331   3.861
96405W        W68665  27.166  42.922  11.583
96406W        W68666  21.112  41.893   4.576
96407W        W68667  10.528  33.862  12.898
96408W        W68668   2.864  17.776  12.947
96409W        W68669   7.220  19.060   2.522
96410W        W68670  35.780  37.388   2.804
96411W        W68671  38.299  40.870  13.105
96412W        W68672   0.236   3.288   3.089
96413W        W68673  29.212   7.397  11.842
96414W        W68674  36.076   5.245  11.912
96415W        W68675   4.720  21.970  14.584
96416W        W68676   4.777   5.273  11.102
96417W        W68677   8.882  17.527  13.489
96418W        W68678  34.162  14.575   4.257
96419W        W68679  42.066  27.150  11.928
96420W        W68680  27.621  34.983  11.715
96421W        W68681  18.273  18.530   4.592
96422W        W68682  26.165  15.405  10.499
96423W        W68683  10.791  13.594  14.053
96424W        W68684  12.635  15.275   1.211
96425W        W68685   4.364  33.478  14.077
96426W        W68686  13.081   9.963   4.285
96427W        W68687   2.266   7.637  10.971
96428W        W68688   1.452  29.908   4.543
96429W        W68689   6.937  23.688   3.607
96430W        W68690  13.170  15.081   3.894
96431W        W68691  17.637  14.696  13.272
96432W        W68692  41.427  36.024   2.869
96433W        W68693   8.919   1.733   2.875
96434W        W68694  30.417  16.710   1.453
96435W        W68695  12.384  42.869   0.986
96436W        W68696  30.498  23.518  12.206
96437W        W68697  28.183   6.162  12.955
96438W        W68698   0.871  22.713  14.317
96439W        W68699  35.994  37.402  11.666
96440W        W68700  38.820  13.829   4.271
96441W        W68701   5.429  26.090  10.691
96442W        W68702  43.144  37.096   2.217
96443W        W68703  30.869   2.293   2.701
96444W        W68704  39.135  21.811   1.789
96445W        W68705  17.366   9.322  14.205
96446W        W68706  13.336  12.788  12.768
96447W        W68707   6.753  25.594  10.611
96448W        W68708  27.911  32.973  10.038
96449W        W68709  29.086  32.445  14.382
96450W        W68710   8.835  15.390  11.534
96451W        W68711  26.442  40.520  13.954
96452W        W68712  17.562   5.662  13.296
96453W        W68713  27.919  23.727  12.069
96454W        W68714  21.681  34.539   4.556
96455W        W68715  34.051  29.885   2.849
96456W        W68716  14.323  34.372   1.120
96457W        W68717  41.162  19.726  13.474
96458W        W68718  13.973   2.829   2.385
96459W        W68719  15.172  17.582   4.288
96460W        W68720   4.221  16.581   3.324
96461W        W68721  41.874  11.543   0.690
96462W        W68722  12.661  19.649   2.876
96463W        W68723  14.836  30.728  13.921
96464W        W68724   2.915  14.387  11.881
96465W        W68725  22.595   4.214  13.056
96466W        W68726  38.048  27.519  12.512
96467W        W68727  31.946  36.357   5.043
96468W        W68728  27.564  34.088   1.752
96469W        W68729  17.097   4.224   3.182
96470W        W68730  42.309  11.401   0.941
96471W        W68731  15.636  38.988  10.991
96472W        W68732  33.480  22.101  13.849
96473W        W68733  38.828  44.847   0.462
96474W        W68734  43.577  24.088  14.416
96475W        W68735  12.217  21.049   1.323
96476W        W68736  23.098  28.230  14.089
96477W        W68737  33.872  43.503  11.102
96478W        W68738   4.868  39.512  14.228
96479W        W68739  36.142  33.867   4.275
96480W        W68740  34.422  38.556   2.846
96481W        W68741  14.775   3.633   0.247
96482W        W68742  36.095   2.042   4.137
96483W        W68743  35.888   3.018   1.826
96484W        W68744  11.776  22.438  14.786
96485W        W68745  44.948   3.429  14.445
96486W        W68746  30.705  44.524  14.407
96487W        W68747  14.170  24.039  12.410
96488W        W68748  43.372   1.217   2.810
96489W        W68749  25.005   9.673  14.794
96490W        W68750  32.722  30.952   2.667
96491W        W68751   0.221  37.531  10.636
96492W        W68752  31.861  29.970  13.398
96493W        W68753  25.463   2.988  13.552
96494W        W68754  32.577  25.487   3.029
96495W        W68755  32.037  25.263   1.267
96496W        W68756  18.646  12.542  13.373
96497W        W68757  30.663  11.147   3.034
96498W        W68758  20.612  36.430  13.301
96499W        W68759  20.000  12.905   3.174
96500W        W68760  18.564  36.959   0.573
96501W        W68761  33.476  42.428  14.241
96502W        W68762  19.707  10.268   2.745
96503W        W68763  22.774  20.230   2.203
96504W        W68764  31.037  10.944  10.968
96505W        W68765  26.072  23.182   4.114
96506W        W68766  29.991   2.868   1.213
96507W        W68767  17.778  17.798   4.615
96508W        W68768  40.041  21.057  10.882
96509W        W68769  11.825  11.598  10.907
96510W        W68770  44.509  27.897  13.909
96511W        W68771  34.875  42.980  12.158
96512W        W68772  43.397   4.847   4.677
96513W        W68773  16.688  30.460   1.726
96514W        W68774  26.256  34.902  10.951
96515W        W68775  35.067  34.633  14.291
96516W        W68776  33.087   2.942   4.304
96517W        W68777  24.543  29.460   0.552
96518W        W68778  16.865  16.460   5.064
96519W        W68779  24.676   9.518   4.198
96520W        W68780  27.672  37.703  10.179
96521W        W68781   1.923   9.564  12.436
96522W        W68782  42.236  12.748   3.278
96523W        W68783  10.006  37.909  10.480
96524W        W68784  20.560  31.648  14.658
96525W        W68785   3.778  30.412  13.770
96526W        W68786  13.059   4.445   3.330
96527W        W68787  32.938  11.849  14.928
96528W        W68788  34.603  42.561   0.161
96529W        W68789  11.325  32.446   1.319
96530W        W68790   3.062  29.908  13.600
96531W        W68791   9.192  41.545   3.209
96532W        W68792  10.914  14.741   3.637
96533W        W68793  44.028  30.510   1.692
96534W        W68794  42.353   8.243  11.526
96535W        W68795  17.637  44.093  13.937
96536W        W68796  35.512  24.853  12.403
96537W        W68797  32.578  29.957   1.406
96538W        W68798  22.039  41.466   4.236
96539W        W68799  31.938   2.769  12.165
96540W        W68800  18.636  10.099   3.267
96541W        W68801  18.795   4.895   5.012
96542W        W68802  27.333  24.496  14.840
96543W        W68803  28.756  27.256  12.488
96544W        W68804  19.165  39.805  12.506
96545W        W68805   9.822   0.359   4.184
96546W        W68806  44.920  37.675  12.517
96547W        W68807  10.109  35.693  11.626
96548W        W68808  16.281   8.407  13.385
96549W        W68809  25.698  30.676  12.925
96550W        W68810  15.541  32.243  10.752
96551W        W68811  39.902  13.625   4.250
96552W        W68812  16.218  11.669  12.504
96553W        W68813   1.695  22.724  10.651
96554W        W68814  41.611  23.206   3.367
96555W        W68815   3.480  25.161   4.960
96556W        W68816  17.883  27.161  12.267
96557W        W68817   2.424  32.383   2.632
96558W        W68818   0.443  16.578  10.516
96559W        W68819  32.673  21.675  12.164
96560W        W68820  24.887  41.846   4.924
96561W        W68821   3.051  23.104   3.091
96562W        W68822  36.024  35.070   0.902
96563W        W68823  37.145  17.554   4.216
96564W        W68824  16.724   2.951   3.401
96565W        W68825  32.159   9.731  13.780
96566W        W68826  38.958  30.681   3.792
96567W        W68827  30.452  25.604  12.903
96568W        W68828   7.244  13.634  10.989
96569W        W68829   9.414  13.330  12.406
96570W        W68830  18.199  25.034   0.351
96571W        W68831  12.734  15.068  13.690
96572W        W68832  29.305  43.136   2.744
96573W        W68833   3.158  17.098   4.521
96574W        W68834  29.159   8.390  12.833
96575W        W68835   2.980  34.540   3.522
96576W        W68836  30.652   8.574  12.035
96577W        W68837   6.512  34.749   4.238
96578W        W68838  23.101  18.733   5.082
96579W        W68839  22.947  13.729   0.697
96580W        W68840  10.492  11.081  11.175
96581W        W68841   6.285   2.173   0.483
96582W        W68842  40.777  24.001   2.315
96583W        W68843  17.583   4.493   0.855
96584W        W68844  19.682  28.049  13.468
96585W        W68845  27.536  11.469  11.999
96586W        W68846  30.574  42.595  12.057
96587W        W68847  34.042  34.845   2.308
96588W        W68848  19.797  20.779   0.129
96589W        W68849  29.204  33.536  10.226
96590W        W68850  10.248  14.725   3.086
96591W        W68851  38.947  18.132  11.143
96592W        W68852  34.519  33.921  14.759
96593W        W68853  24.931  14.616   3.175
96594W        W68854  30.923  42.047   3.624
96595W        W68855  18.712  27.497   3.311
96596W        W68856  18.586  15.185  13.606
96597W        W68857   3.487  33.796  11.101
96598W        W68858  21.559  42.098  10.621
96599W        W68859   8.290   0.021  12.035
96600W        W68860  21.512   3.350  12.544
96601W        W68861   7.289  40.579  14.494
96602W        W68862  38.454  31.420   0.339
96603W        W68863  15.290  13.596  14.702
96604W        W68864  16.912   6.294   3.587
96605W        W68865  14.596  21.297   4.102
96606W        W68866  22.528  12.881  13.248
96607W        W68867  27.754   5.938  14.303
96608W        W68868  33.610   6.720  13.670
96609W        W68869  17.219   2.912  13.954
96610W        W68870  15.690  27.217   4.098
96611W        W68871  43.216  35.881   1.351
96612W        W68872  30.054  21.566  12.913
96613W        W68873  11.320  22.279  13.712
96614W        W68874  28.222  23.026   3.432
96615W        W68875   2.269  16.227   0.424
96616W        W68876  20.597  11.884  10.946
96617W        W68877  10.185  38.753  12.807
96618W        W68878   9.295  10.473   2.429
96619W        W68879   5.406   7.602  12.949
96620W        W68880  42.989  14.406   2.854
96621W        W68881  10.656  20.159   3.293
96622W        W68882  16.877  36.579   2.016
96623W        W68883  25.861   6.795   1.437
96624W        W68884   4.045  11.704  13.442
96625W        W68885  42.838  35.125   2.288
96626W        W68886  14.723   3.450   3.741
96627W        W68887   7.305  24.956   1.659
96628W        W68888   5.916  43.310  11.958
96629W        W68889  16.144  24.764   1.765
96630W        W68890  38.699   3.599   4.227
96631W        W68891  18.376  28.524   2.288
96632W        W68892  40.302   3.417  13.984
96633W        W68893  12.778  25.480   3.329
96634W        W68894   0.783  36.942  12.968
96635W        W68895  42.012   8.712  11.544
96636W        W68896  16.352  16.650  11.183
96637W        W68897  27.090   7.673  12.974
96638W        W68898  15.194  11.375  14.488
96639W        W68899  34.259   7.371   4.471
96640W        W68900  32.515  13.792  14.251
96641W        W68901  13.604  32.121  13.348
96642W        W68902  41.842  30.007   3.797
96643W        W68903  43.827  18.609   3.192
96644W        W68904  21.642  43.715  13.035
96645W        W68905  33.503   8.476   3.145
96646W        W68906  28.664  38.359  13.789
96647W        W68907   6.972  29.603   1.813
96648W        W68908  28.898  23.481  12.082
96649W        W68909   9.796  14.533  14.427
96650W        W68910  40.119  42.050   2.848
96651W        W68911   2.729  43.452  11.677
96652W        W68912  18.095  41.296  12.281
96653W        W68913   8.100  27.013  13.306
96654W        W68914   3.395  27.501  10.786
96655W        W68915  30.057  14.842   4.616
96656W        W68916  18.664  41.391   0.971
96657W        W68917   9.588  33.620   0.916
96658W        W68918  35.353  37.652  13.807
96659W        W68919  17.493  25.883   1.377
96660W        W68920  24.002   3.529   1.857
96661W        W68921   4.709  39.267  13.826
96662W        W68922  17.334  32.065   3.258
96663W        W68923  37.135   8.864  12.583
96664W        W68924   5.006  16.487  12.955
96665W        W68925  21.458   0.356  12.065
96666W        W68926  20.572   5.331  11.140
96667W        W68927  21.230  35.370   2.213
96668W        W68928  16.069  25.110   1.336
96669W        W68929  10.252  33.786   4.794
96670W        W68930  43.344  36.607  12.711
96671W        W68931   5.251  32.887   2.325
96672W        W68932  22.643   6.135   0.734
96673W        W68933  30.366  28.425  11.313
96674W        W68934  29.765  41.379   2.337
96675W        W68935  12.744  14.390  11.482
96676W        W68936  15.652  34.687   1.732
96677W        W68937  33.139  32.412  14.080
96678W        W68938   8.363  10.218  13.859
96679W        W68939  40.207   2.431   4.244
96680W        W68940  11.789  39.925   4.917
96681W        W68941  35.662  33.352  11.576
96682W        W68942   3.442  12.140  13.857
96683W        W68943  12.669   9.367  14.874
96684W        W68944   8.370  26.806   2.963
96685W        W68945  22.031   3.877  13.506
96686W        W68946  20.558  10.341   3.324
96687W        W68947  32.674  26.487  11.552
96688W        W68948  30.922  38.038   3.422
96689W        W68949  17.039   5.736  11.577
96690W        W68950  41.018  12.672  14.033
96691W        W68951  20.263  41.490  10.784
96692W        W68952   9.335  33.340   1.788
96693W        W68953  35.077  11.274   3.741
96694W        W68954   5.328  28.672   1.855
96695W        W68955  42.530  25.775  13.662
96696W        W68956   8.403   1.311   2.282
96697W        W68957  32.261  19.469  14.839
96698W        W68958  14.705   6.132   1.468
96699W        W68959  43.528  38.729   1.372
96700W        W68960   9.626  25.022  11.516
96701W        W68961   5.937  40.556   2.253
96702W        W68962  17.075   3.260   4.113
96703W        W68963  33.388  16.495  14.282
96704W        W68964  29.608   8.729  14.242
96705W        W68965  19.841  10.321  14.096
96706W        W68966  35.995  22.681   4.515
96707W        W68967  36.489  22.719   0.435
96708W        W68968  24.376  33.903  12.752
96709W        W68969  40.012  41.444   2.237
96710W        W68970  35.344   2.752   4.124
96711W        W68971  39.920  14.620   2.224
96712W        W68972  19.816  18.023   3.315
96713W        W68973  43.410  37.159   1.746
96714W        W68974  18.073  31.933  14.348
96715W        W68975   8.233  15.106   1.875
96716W        W68976  12.071  25.082   2.673
96717W        W68977  38.031  42.075  13.341
96718W        W68978  19.861  44.781  14.534
96719W        W68979   8.204   5.930  11.058
96720W        W68980  44.712  24.071  14.803
96721W        W68981  21.014  40.439  11.478
96722W        W68982  33.385  21.079   0.404
96723W        W68983  43.263  18.496   0.730
96724W        W68984  32.790  17.629  13.070
96725W        W68985  29.112  14.735  13.498
96726W        W68986  25.643  39.456   9.855
96727W        W68987  23.411  14.373   3.267
96728W        W68988  12.817  37.862  11.909
96729W        W68989  35.622  35.995  13.473
96730W        W68990  42.323  16.274  10.556
96731W        W68991  18.181   2.940   2.181
96732W        W68992  22.029  22.722   1.363
96733W        W68993  23.520  26.670   1.710
96734W        W68994  11.539  23.507   1.502
96735W        W68995  41.005  27.456  11.629
96736W        W68996  26.199  38.873   5.431
96737W        W68997  35.471   6.911  11.965
96738W        W68998   1.182  44.049   4.195
96739W        W68999  26.698  23.799   3.096
96740W        W69000  41.274  27.080  12.582
96741W        W69001   3.670   5.743  14.717
96742W        W69002  26.652   1.376   2.711
96743W        W69003   2.298  37.414  10.790
96744W        W69004  34.312  12.179  12.133
96745W        W69005  29.387  20.220   1.546
96746W        W69006  20.810  22.241   2.793
96747W        W69007  32.474  38.455   1.225
96748W        W69008  26.522  17.800  11.840
96749W        W69009  20.725  39.454  14.892
96750W        W69010  44.389  17.092  12.802
96751W        W69011   8.273   6.746   2.717
96752W        W69012  22.646  21.109   5.724
96753W        W69013  36.486   9.132   3.864
96754W        W69014   0.875  31.832   4.725
96755W        W69015  31.040  30.149  14.512
96756W        W69016  25.171  35.048   0.337
96757W        W69017  25.221  29.520   2.845
96758W        W69018  34.318  16.177  13.562
96759W        W69019  23.941  33.520  13.477
96760W        W69020  38.478   7.989   2.463
96761W        W69021  37.895  21.701  10.639
96762W        W69022   6.401   8.911   2.155
96763W        W69023  13.614   5.263  10.697
96764W        W69024   4.443   3.308   2.165
96765W        W69025  25.118   4.137   0.854
96766W        W69026  38.474  16.603  13.323
96767W        W69027  15.881  33.341  13.067
96768W        W69028  32.137   3.852  11.370
96769W        W69029  16.775  17.298   4.666
96770W        W69030  16.229  13.185   4.180
96771W        W69031   2.979  26.543   0.783
96772W        W69032   9.538  27.706   0.902
96773W        W69033  39.323   1.903  14.970
96774W        W69034  30.346  29.626   3.284
96775W        W69035  35.957  13.766  13.597
96776W        W69036   9.564  12.709   1.424
96777W        W69037   0.570  35.423   2.048
96778W        W69038  40.135  36.950   1.610
96779W        W69039  13.169  31.179  11.536
96780W        W69040  39.531  24.664   0.301
96781W        W69041  44.962  39.382   3.925
96782W        W69042  33.834   0.393  14.401
96783W        W69043   1.479   2.474   4.532
96784W        W69044  36.901  21.728   2.310
96785W        W69045  38.862  18.183  10.193
96786W        W69046  19.757  29.200  13.684
96787W        W69047  40.879  34.144  11.259
96788W        W69048  35.849   6.304   2.262
96789W        W69049  12.709  38.361   4.277
96790W        W69050  43.343  14.065  11.309
96791W        W69051  15.138  39.599  11.051
96792W        W69052  31.150   6.869   1.731
96793W        W69053  37.499  37.113  11.175
96794W        W69054   8.632  20.543   0.992
96795W        W69055  12.728   3.676   4.774
96796W        W69056   4.615  32.518  11.465
96797W        W69057  39.349  21.207  14.290
96798W        W69058   7.134  31.130   0.381
96799W        W69059  30.235  28.906   4.526
96800W        W69060  26.460   4.483  13.453
96801W        W69061  27.921   9.696  11.511
96802W        W69062  26.068  12.411   0.441
96803W        W69063  22.756  11.884  14.388
96804W        W69064   2.060  13.848   2.823
96805W        W69065   4.049  34.080   3.227
96806W        W69066   9.734  28.716   1.403
96807W        W69067  38.873  41.500   3.660
96808W        W69068  41.293   3.713   3.618
96809W        W69069  40.242   3.450   2.794
96810W        W69070   7.606  38.096   4.071
96811W        W69071  36.994  23.830   4.430
96812W        W69072  37.864  38.566  14.792
96813W        W69073  32.336  39.903  13.464
96814W        W69074  16.581   9.109  10.461
96815W        W69075  44.435  27.612   1.735
96816W        W69076  15.143   5.376   4.767
96817W        W69077  40.109  11.379   0.030
96818W        W69078  17.066  11.736   2.195
96819W        W69079  18.755   6.057   5.069
96820W        W69080  44.311  23.823   2.231
96821W        W69081  43.911  21.169  14.390
96822W        W69082  32.943  39.001   1.770
96823W        W69083  41.933  10.792   1.691
96824W        W69084  25.483  38.584  11.184
96825W        W69085  15.692   1.890   1.473
96826W        W69086  18.495   0.204   1.708
96827W        W69087   1.233  17.082  11.996
96828W        W69088  26.466  28.068  13.359
96829W        W69089   8.107  38.544   4.118
96830W        W69090   3.297  18.346  14.058
96831W        W69091  38.738  30.050   4.959
96832W        W69092  14.654  22.526  10.691
96833W        W69093  23.773  11.774  12.894
96834W        W69094  21.990  25.206  12.643
96835W        W69095  36.978  22.642   0.226
96836W        W69096  14.524  37.782   1.807
96837W        W69097  29.024  35.298  14.958
96838W        W69098  39.743  20.715  12.161
96839W        W69099  32.989  34.349   0.706
96840W        W69100  20.615   2.427  13.894
96841W        W69101  25.695  34.384   4.627
96842W        W69102  15.151  41.612  12.334
96843W        W69103  35.487  10.417   1.387
96844W        W69104  24.622  31.219   2.426
96845W        W69105  26.193  23.148  13.845
96846W        W69106   1.783   6.278   2.322
96847W        W69107   1.173  32.347   4.970
96848W        W69108   5.760  32.946  10.696
96849W        W69109  39.569  40.570  13.400
96850W        W69110   5.177  35.394  12.568
96851W        W69111   3.436  21.452  10.748
96852W        W69112  37.040   4.329   1.497
96853W        W69113  41.548  40.519  12.303
96854W        W69114   7.223  29.472   4.867
96855W        W69115  26.500  40.371   0.365
96856W        W69116   8.525  13.479  11.416
96857W        W69117  31.118   3.351  12.887
96858W        W69118  36.945   0.896  13.264
96859W        W69119  31.111   8.657  10.528
96860W        W69120   1.313  24.751   4.940
96861W        W69121  20.502  39.919   4.752
96862W        W69122  19.782  17.324   2.758
96863W        W69123  27.066   1.807  13.885
96864W        W69124  27.092  15.633  14.086
96865W        W69125  37.796  44.015   4.779
96866W        W69126  42.835  42.696  13.843
96867W        W69127  18.536  28.410  12.530
96868W        W69128  36.224  39.011  10.311
96869W        W69129   8.943   6.311   0.822
96870W        W69130  32.171  41.784   0.347
96871W        W69131  12.671  43.268  13.962
96872W        W69132  14.069  17.250   2.478
96873W        W69133  38.365  33.489  12.057
96874W        W69134  42.188  38.918   0.534
96875W        W69135  44.901  33.952  14.044
96876W        W69136  29.417   9.928   3.203
96877W        W69137   5.340  36.743  13.940
96878W        W69138  35.455  26.432  14.950
96879W        W69139  25.275  44.432  10.060
96880W        W69140  39.883  24.471   3.175
96881W        W69141  28.679  37.639  13.335
96882W        W69142  18.738  31.743  13.878
96883W        W69143  29.712   7.581   3.853
96884W        W69144   8.881  38.117   1.930
96885W        W69145  22.016  16.752   4.570
96886W        W69146  10.683   2.701   4.691
96887W        W69147  23.162  38.763   3.616
96888W        W69148   7.155  15.166  11.942
96889W        W69149   9.663  30.695  11.503
96890W        W69150  43.313  42.239  14.580
96891W        W69151  39.123  43.949   4.348
96892W        W69152  30.143  30.165   0.481
96893W        W69153   1.009   2.704   4.115
96894W        W69154  10.743  19.006   2.173
96895W        W69155  27.394  34.763   2.139
96896W        W69156  17.400   3.800   5.203
96897W        W69157  33.860  29.473  10.455
96898W        W69158  32.401  10.186  13.826
96899W        W69159   1.892   3.200  12.086
96900W        W69160  41.075   5.802   2.307
96901W        W69161  24.625  34.586   3.116
96902W        W69162  41.581  23.619   0.592
96903W        W69163  25.617  19.869   1.609
96904W        W69164   4.813  18.390   3.651
96905W        W69165  39.541  30.951  12.786
96906W        W69166  35.498   7.442  13.354
96907W        W69167  15.167   7.169  11.536
96908W        W69168  32.167  29.046   3.736
96909W        W69169  41.065  30.728   0.790
96910W        W69170  16.123  31.015   1.545
96911W        W69171  34.397  27.209  14.047
96912W        W69172   6.657   8.208   1.291
96913W        W69173   2.438  10.563  12.518
96914W        W69174  13.726  24.970   0.441
96915W        W69175  12.063   6.660  14.485
96916W        W69176  35.560   2.018   0.944
96917W        W69177  41.842  23.459   4.184
96918W        W69178  32.844  37.761  11.714
96919W        W69179  16.556   9.319   2.292
96920W        W69180  31.635  13.364   2.105
96921W        W69181   1.045  37.338   3.255
96922W        W69182  40.860   0.564  12.396
96923W        W69183  18.160  11.316   2.712
96924W        W69184  12.169  14.309   3.609
96925W        W69185   5.731  38.156   0.787
96926W        W69186  39.410  11.168  11.046
96927W        W69187   1.696  31.439   4.917
96928W        W69188   4.693  34.075  10.630
96929W        W69189   3.769  13.750  14.903
96930W        W69190   5.229   3.708   1.845
96931W        W69191  27.556  25.135  12.856
96932W        W69192  21.643  14.118   3.491
96933W        W69193  13.325  42.048   2.235
96934W        W69194  28.005  12.588  12.458
96935W        W69195  18.700   8.138  12.049
96936W        W69196  39.750  32.208   2.333
96937W        W69197  13.223  25.141  13.100
96938W        W69198  19.579  38.865  14.294
96939W        W69199  34.520  14.785   2.898
96940W        W69200  27.857   8.913  11.409
96941W        W69201  41.964  28.989  11.752
96942W        W69202  11.697  33.941  11.462
96943W        W69203  37.755   2.214   2.728
96944W        W69204  17.051   2.471   1.758
96945W        W69205  27.399  31.518  12.454
96946W        W69206  20.828  27.057  12.777
96947W        W69207  30.368  24.715  11.163
96948W        W69208  25.567  43.462  14.850
96949W        W69209  34.540  36.576   3.608
96950W        W69210  27.694   4.131  14.940
96951W        W69211  37.901   5.306   2.174
96952W        W69212   9.849   2.483   3.736
96953W        W69213  29.884  20.512   1.229
96954W        W69214  42.569  30.638  12.225
96955W        W69215  22.278  12.638  12.854
96956W        W69216   9.771  33.396   1.327
96957W        W69217  38.282  23.970   0.283
96958W        W69218   7.728  11.567  10.729
96959W        W69219  25.019  17.091  10.701
96960W        W69220  29.955  30.447  12.416
96961W        W69221  18.284  16.590  11.173
96962W        W69222  23.671  15.104  14.830
96963W        W69223  17.067  10.238   4.541
96964W        W69224  31.050  38.990  13.038
96965W        W69225  39.982  15.282  11.625
96966W        W69226  27.173  34.054   3.929
96967W        W69227  39.272  31.054  10.385
96968W        W69228  20.788  10.626   4.176
96969W        W69229  31.095  26.243  10.639
96970W        W69230  12.755  17.740  12.598
96971W        W69231  44.503   5.421  13.770
96972W        W69232  22.292  13.554   3.218
96973W        W69233  21.761   1.797  10.646
96974W        W69234  26.546  26.553   1.054
96975W        W69235   2.485  20.316  10.662
96976W        W69236   0.572  42.088  14.955
96977W        W69237  39.779  42.319  11.985
96978W        W69238  29.045   0.861  14.424
96979W        W69239   7.452  20.562   3.132
96980W        W69240   0.220  15.620  12.116
96981W        W69241  18.716  26.256   2.723
96982W        W69242  12.254  36.068  12.068
96983W        W69243  29.194  24.763  14.973
96984W        W69244  34.651  29.604   3.700
96985W        W69245  44.879   1.748   4.583
96986W        W69246  19.712  25.284   0.041
96987W        W69247  28.258   2.293  11.670
96988W        W69248  17.140  15.556   4.201
96989W        W69249  16.353  37.949  13.862
96990W        W69250  39.028  38.349   0.784
96991W        W69251  12.201  33.205  12.575
96992W        W69252  15.628  33.504  12.368
96993W        W69253  12.075  19.224  10.764
96994W        W69254   3.894  27.533   3.364
96995W        W69255  24.573   1.672  10.932
96996W        W69256  25.720  29.057   4.447
96997W        W69257  33.192  23.306   0.856
96998W        W69258  26.999  44.387   4.124
96999W        W69259  42.407  42.705   0.402
97000W        W69260  23.731  12.601  10.416
97001W        W69261  10.047   6.811   3.354
97002W        W69262  41.084  28.230  13.620
97003W        W69263  20.233  21.457   3.783
97004W        W69264  21.125  30.510   2.694
97005W        W69265  29.134  21.767   1.753
97006W        W69266  11.115  44.867   3.644
97007W        W69267  37.524   4.927   2.097
97008W        W69268   2.948  34.049   4.175
97009W        W69269  32.944  31.761   2.181
97010W        W69270   7.479  32.901  13.338
97011W        W69271  23.215   4.741  13.432
97012W        W69272  19.539  15.652  11.540
97013W        W69273   2.198  18.613  12.003
97014W        W69274  37.735  11.626  14.797
97015W        W69275   6.862   9.305  11.089
97016W        W69276  19.147  15.613  11.213
97017W        W69277  28.506   4.326  11.794
97018W        W69278  35.816  20.642  12.338
97019W        W69279  30.674   9.258   4.921
97020W        W69280   3.782   8.507   2.712
97021W        W69281   8.426   6.877   1.436
97022W        W69282  41.550  26.637  14.218
97023W        W69283   0.703  44.801  10.351
97024W        W69284  16.166  25.094   4.649
97025W        W69285  14.701  25.017   3.304
97026W        W69286  14.306  37.023  11.825
97027W        W69287  14.520  28.567   1.236
97028W        W69288  30.462   5.096  14.751
97029W        W69289  14.771  38.112  13.083
97030W        W69290  16.973  21.692   0.341
97031W        W69291   2.991  41.513   3.287
97032W        W69292  33.255  38.526  13.182
97033W        W69293  28.871   6.757   3.687
97034W        W69294  40.183  20.217   1.283
97035W        W69295  41.799  11.045   4.123
97036W        W69296   5.426  20.656   3.513
97037W        W69297  36.079  15.171   3.692
97038W        W69298  22.330  35.907  12.869
97039W        W69299  42.797  37.366   3.782
97040W        W69300  18.083  11.247  13.348
97041W        W69301  29.444  41.389  13.589
97042W        W69302  10.707  34.676   2.165
97043W        W69303  14.344  23.774  12.920
97044W        W69304  30.725   9.705   3.293
97045W        W69305   8.284   0.236   3.503
97046W        W69306  18.663  43.448   3.543
97047W        W69307  19.584  19.627  13.389
97048W        W69308  10.047  22.753  12.300
97049W        W69309  36.397  13.623   2.309
97050W        W69310  35.558   9.201   1.027
97051W        W69311  40.966  27.088   1.816
97052W        W69312  24.022  16.305   3.756
97053W        W69313   1.720   8.221  11.389
97054W        W69314  42.906   8.183  10.714
97055W        W69315   8.382  41.028   0.175
97056W        W69316   2.626  18.447   4.611
97057W        W69317   8.890  14.728   3.665
97058W        W69318  19.818   9.642   2.324
97059W        W69319  14.996  22.182  12.712
97060W        W69320  29.075  18.515   3.907
97061W        W69321  44.013  35.408  12.938
97062W        W69322  25.607   1.619   3.050
97063W        W69323   1.461  33.813   0.752
97064W        W69324  44.294  24.487   3.375
97065W        W69325  21.547  39.064   2.971
97066W        W69326   3.878  30.681   2.809
97067W        W69327  13.163  31.847  13.305
97068W        W69328   7.523  14.590   3.809
97069W        W69329   2.990   2.432   5.074
97070W        W69330  44.087  16.726  14.549
97071W        W69331  25.098  10.160  14.584
97072W        W69332   2.794  24.026   1.378
97073W        W69333  30.080  36.540  14.470
97074W        W69334  17.395   8.361  11.049
97075W        W69335  23.720   5.858  12.124
97076W        W69336  17.303  37.565  12.983
97077W        W69337  20.266  15.128   1.805
97078W        W69338  11.632  33.018  13.415
97079W        W69339  36.021  14.837   1.271
97080W        W69340  42.535  25.360  13.305
97081W        W69341   9.512  16.152   1.678
97082W        W69342  30.620  32.803  11.842
97083W        W69343  13.608  44.392   1.332
97084W        W69344  28.468  12.816  10.619
97085W        W69345  39.795   8.968   4.527
97086W        W69346  30.600  20.252   1.788
97087W        W69347  13.366  14.662   2.352
97088W        W69348  27.495   7.383  14.432
97089W        W69349  14.601  22.086  13.418
97090W        W69350  22.803   8.733   5.102
97091W        W69351  12.799  35.703   2.676
97092W        W69352  27.686  13.352  14.828
97093W        W69353  27.612  17.707  10.757
97094W        W69354  21.978   4.701   0.515
97095W        W69355   4.850  21.595  12.533
97096W        W69356  19.643  22.175   4.303
97097W        W69357  31.146  28.463  12.442
97098W        W69358  13.576  15.160  12.936
97099W        W69359  17.008  39.454  12.505
97100W        W69360  27.496  29.232  12.347
97101W        W69361   7.942  38.341   0.501
97102W        W69362  41.490  19.185   0.757
97103W        W69363   7.513   3.380  13.021
97104W        W69364   6.763  18.731   2.470
97105W        W69365  28.173   8.323   0.781
97106W        W69366  10.011  37.365   2.746
97107W        W69367  34.655  37.269   2.571
97108W        W69368  26.736   1.838   9.973
97109W        W69369   2.358  25.519   2.161
97110W        W69370  23.733  35.638   0.802
97111W        W69371  42.779   9.136   3.658
97112W        W69372  13.144  14.415   1.821
97113W        W69373  11.322  31.492   0.838
97114W        W69374  13.624  18.589   1.478
97115W        W69375   8.793   2.796   3.177
97116W        W69376  19.794  42.978  14.086
97117W        W69377  13.378   0.812  12.570
97118W        W69378  35.484   5.244  13.514
97119W        W69379  24.528  24.057  11.181
97120W        W69380  31.191  14.716   0.235
97121W        W69381  39.857  27.088  12.987
97122W        W69382  33.557  31.858  12.061
97123W        W69383  29.893   2.311   3.067
97124W        W69384  35.058  36.790   1.744
97125W        W69385   6.401   0.727  14.876
97126W        W69386   8.746  26.745   0.708
97127W        W69387   7.942  41.924  12.451
97128W        W69388   4.167  15.517  12.977
97129W        W69389  11.998  33.466   3.255
97130W        W69390   6.993   0.707   1.441
97131W        W69391  37.318  36.556   3.833
97132W        W69392  44.786  42.472   1.559
97133W        W69393  10.179  28.907   1.640
97134W        W69394  16.144  23.647  10.742
97135W        W69395  27.636  14.132   4.669
97136W        W69396  41.447  30.114  11.430
97137W        W69397  27.291  18.428   4.297
97138W        W69398   2.252  28.414  11.604
97139W        W69399  21.672  24.121   0.859
97140W        W69400  37.814  35.965   3.341
97141W        W69401  42.419  32.384   2.931
97142W        W69402  38.225  36.499  11.349
97143W        W69403  12.607  20.573  12.525
97144W        W69404  38.657  10.279   0.860
97145W        W69405  40.390  16.555  11.488
97146W        W69406  44.347  25.515   4.658
97147W        W69407  12.153  41.868   3.827
97148W        W69408   7.704  20.647  14.192
97149W        W69409  29.309  10.398   4.123
97150W        W69410  21.173  32.238  13.514
97151W        W69411   7.382  21.821   4.209
97152W        W69412  24.080   0.514  11.205
97153W        W69413  22.639   5.847   0.258
97154W        W69414  28.558  15.025  10.750
97155W        W69415  11.755  38.585   3.282
97156W        W69416  42.250  42.199   0.394
97157W        W69417  27.906  21.139  12.083
97158W        W69418  17.034  37.914  13.283
97159W        W69419  34.102   4.877  10.530
97160W        W69420  25.695  33.223   0.999
97161W        W69421  17.770  18.120   1.714
97162W        W69422  11.279  11.428   1.430
97163W        W69423  23.606  42.257  14.014
97164W        W69424  10.341   5.798  12.684
97165W        W69425  37.914  35.000   3.243
97166W        W69426  30.943  18.637  13.560
97167W        W69427  22.550  21.968   4.523
97168W        W69428  14.543   0.004   4.349
97169W        W69429  12.652  24.492  12.081
97170W        W69430   1.922   5.257   0.137
97171W        W69431  13.188  19.604  12.080
97172W        W69432  12.036  44.912   4.709
97173W        W69433  42.019  34.430   2.844
97174W        W69434  10.333   8.271  13.850
97175W        W69435  37.074  23.579  14.445
97176W        W69436  12.033  19.652  13.574
97177W        W69437   9.311  34.157  12.052
97178W        W69438  26.608  19.773  12.152
97179W        W69439  25.419   8.341   1.428
97180W        W69440  32.068  35.629   0.349
97181W        W69441   2.184  25.485  11.839
97182W        W69442   2.178  35.437   0.825
97183W        W69443   2.894  25.483  11.066
97184W        W69444  14.870   1.776  11.732
97185W        W69445  29.089  30.203  14.285
97186W        W69446  32.976  32.660   2.789
97187W        W69447  12.253   3.212   0.952
97188W        W69448  35.993  37.866  11.479
97189W        W69449  41.770  10.235   2.343
97190W        W69450   1.879  31.286  10.959
97191W        W69451  25.495  11.428   4.294
97192W        W69452  27.047  20.641   3.314
97193W        W69453  18.067  11.065  12.428
97194W        W69454   6.801  31.430  14.235
97195W        W69455   1.891   8.338   2.387
97196W        W69456  10.759  43.617  12.535
97197W        W69457  37.372   2.435   3.957
97198W        W69458   9.617  30.407  13.146
97199W        W69459  16.370   3.922  12.700
97200W        W69460  30.590   4.442   3.641
97201W        W69461   2.225  30.396   0.961
97202W        W69462   1.393  22.263  10.652
97203W        W69463  18.487  39.801   2.143
97204W        W69464  22.972  36.483   1.493
97205W        W69465  17.114  31.438  11.861
97206W        W69466  31.936   7.844  13.888
97207W        W69467  43.476  12.597  10.540
97208W        W69468  16.799   7.126   3.286
97209W        W69469  15.589  34.196  14.915
97210W        W69470  10.293  34.071   0.933
97211W        W69471  43.031   4.692  14.472
97212W        W69472   9.401  44.461   2.838
97213W        W69473   6.885   7.708   4.660
97214W        W69474  25.498  21.270  14.051
97215W        W69475   2.975  36.484  10.382
97216W        W69476   2.488  18.195  12.041
97217W        W69477   7.683  13.949   1.791
97218W        W69478  33.203  25.429  13.398
97219W        W69479  17.187  42.979   9.949
97220W        W69480  25.722  42.926   2.480
97221W        W69481  35.000  31.216   1.064
97222W        W69482   7.537  13.867  10.161
97223W        W69483  38.163  27.725   0.869
97224W        W69484   9.144   4.871  14.540
97225W        W69485  20.475  29.159  11.588
97226W        W69486  43.754  12.160   1.241
97227W        W69487  25.639  13.654  11.350
97228W        W69488  38.972  16.754   1.789
97229W        W69489  16.696  43.477  10.577
97230W        W69490   4.204  22.551  13.331
97231W        W69491  17.631  16.324  10.898
97232W        W69492   6.775  31.173   1.480
97233W        W69493  25.139  43.412  12.051
97234W        W69494  23.070  15.643   0.477
97235W        W69495  26.169   7.270  14.687
97236W        W69496  37.560   6.763   2.400
97237W        W69497  39.764  26.523   0.022
97238W        W69498   4.921  35.054   3.615
97239W        W69499  43.341  23.960   3.663
97240W        W69500   8.354  40.668  13.495
97241W        W69501  11.580  34.454   1.662
97242W        W69502  36.981   2.689  13.970
97243W        W69503  10.981  40.349  13.011
97244W        W69504  31.573  30.897  11.552
97245W        W69505  40.890  30.729  13.011
97246W        W69506  10.879   2.643  13.308
97247W        W69507   2.990  27.554  11.120
97248W        W69508   3.932  39.308   2.735
97249W        W69509  27.981  17.662  10.398
97250W        W69510   6.367  19.864  11.478
97251W        W69511   6.702  30.379  14.253
97252W        W69512   0.465   2.341   3.641
97253W        W69513   7.377  11.572   1.869
97254W        W69514   9.455  11.858  12.003
97255W        W69515  31.121  23.095   4.660
97256W        W69516  22.588   6.940   1.371
97257W        W69517  18.431  17.256  12.284
97258W        W69518  32.657  24.403  11.597
97259W        W69519  42.797  34.011   1.194
97260W        W69520  42.537  41.824  13.878
97261W        W69521  33.949  22.057   3.523
97262W        W69522  31.545  42.115   2.243
97263W        W69523  36.916  32.045   3.115
97264W        W69524  30.868  43.546  11.162
97265W        W69525  34.119  19.541   3.637
97266W        W69526  17.633  11.415   0.447
97267W        W69527  21.271  25.865  14.188
97268W        W69528  15.654  41.558  14.905
97269W        W69529   6.900   2.368  14.621
97270W        W69530  23.696   4.357   3.722
97271W        W69531  13.846  10.649  10.756
97272W        W69532  26.610  30.125   0.477
97273W        W69533  25.051   8.757  14.297
97274W        W69534  25.154  41.752   4.446
97275W        W69535   2.686  25.193   3.795
97276W        W69536   8.138  18.717  10.657
97277W        W69537  33.903  34.130   1.909
97278W        W69538  39.748  39.433  13.680
97279W        W69539  15.178  12.733   2.875
97280W        W69540  29.557  37.355   3.731
97281W        W69541   9.446  20.426   1.400
97282W        W69542  37.896   6.730   1.976
97283W        W69543   2.140  39.845  11.204
97284W        W69544  23.269  31.987  12.853
97285W        W69545  34.288  44.866  13.825
97286W        W69546  41.285   5.850   1.835
97287W        W69547  43.397  27.519   4.032
97288W        W69548   1.287   9.815  14.726
97289W        W69549   4.288   0.513   0.957
97290W        W69550   7.160  16.538   0.297
97291W        W69551  41.353  37.551   0.799
97292W        W69552  19.551  11.649  10.662
97293W        W69553  24.605  28.379  10.297
97294W        W69554  24.351  18.202   2.350
97295W        W69555  10.411  27.875   2.047
97296W        W69556  21.792  10.330  11.806
97297W        W69557  26.344  15.048  11.226
97298W        W69558  12.804  40.929  14.009
97299W        W69559  39.015  35.932  13.912
97300W        W69560  43.444  21.550  11.967
97301W        W69561  23.631  39.635  10.000
97302W        W69562  25.021  33.627  10.414
97303W        W69563  27.156  25.531   3.294
97304W        W69564  34.448  14.773  11.441
97305W        W69565  15.366  25.242  13.392
97306W        W69566  42.982  12.931   5.009
97307W        W69567  43.753  22.490   2.336
97308W        W69568  14.096  16.097   0.621
97309W        W69569  37.394  32.513   1.198
97310W        W69570   4.859  42.111  13.015
97311W        W69571  38.788   2.809  12.456
97312W        W69572  38.390  30.047   3.275
97313W        W69573  11.446  42.762  14.648
97314W        W69574   9.895  37.113  10.453
97315W        W69575  40.931  22.812  10.636
97316W        W69576  28.917  37.543   1.904
97317W        W69577  33.764  32.365   2.396
97318W        W69578  10.592  26.158  13.029
97319W        W69579   7.121  15.758   1.494
97320W        W69580  34.107   7.833   3.164
97321W        W69581  25.567   4.035   3.157
97322W        W69582  10.098  30.025  12.599
97323W        W69583  25.508  38.019   3.809
97324W        W69584  39.202  40.245   3.403
97325W        W69585  42.782   9.583  13.474
97326W        W69586   0.358   5.522  13.312
97327W        W69587  23.206  24.595  12.957
97328W        W69588  27.355   4.276  12.050
97329W        W69589  21.899  28.602   4.094
97330W        W69590  24.551  11.151   0.980
97331W        W69591  26.685  23.797  12.496
97332W        W69592   2.107  43.973   4.875
97333W        W69593  22.606   6.408   1.430
97334W        W69594  24.563  43.858  10.864
97335W        W69595  12.213  34.963  12.668
97336W        W69596  11.313  15.754  12.977
97337W        W69597   5.582  30.573   5.246
97338W        W69598   0.660  33.843  11.619
97339W        W69599  21.179  24.897   0.912
97340W        W69600   9.190  29.475  12.824
97341W        W69601  38.820  36.486  13.910
97342W        W69602  41.834  29.550  10.722
97343W        W69603   1.403  27.767  13.907
97344W        W69604   4.827  38.946  10.462
97345W        W69605  29.095  25.542  14.552
97346W        W69606  38.955  24.784  13.877
97347W        W69607   5.284  13.108  11.494
97348W        W69608  20.708  27.306   1.432
97349W        W69609   6.719  21.671  11.367
97350W        W69610  42.777  22.436  14.241
97351W        W69611   1.187   8.260  12.294
97352W        W69612  23.245  43.448  14.019
97353W        W69613  20.300   1.502  14.337
97354W        W69614  33.363  12.154  10.578
97355W        W69615  17.121  40.516   0.216
97356W        W69616  27.174   8.959   1.726
97357W        W69617   4.125  39.501  12.442
97358W        W69618  25.998  40.473  11.952
97359W        W69619  36.809  26.536  12.166
97360W        W69620  26.677  38.392  12.587
97361W        W69621  18.211  17.962   2.949
97362W        W69622  10.376  15.514  11.047
97363W        W69623  13.791  43.003  14.786
97364W        W69624  20.286  39.525  11.205
97365W        W69625   9.166  41.090   2.571
97366W        W69626  18.043  44.899  12.104
97367W        W69627  29.499   3.587  11.452
97368W        W69628  37.336  42.845  13.022
97369W        W69629   1.208  22.494   0.017
97370W        W69630   3.864  31.356   3.230
97371W        W69631  35.337  27.842   1.196
97372W        W69632  38.405   4.271   3.535
97373W        W69633  17.149  35.993  14.095
97374W        W69634  33.388  25.756  14.003
97375W        W69635  30.900  25.182   4.730
97376W        W69636  44.306   0.243  11.909
97377W        W69637  43.418  34.193  13.983
97378W        W69638  17.653  43.463  11.486
97379W        W69639  12.253  11.700   0.797
97380W        W69640   2.691   7.532  13.577
97381W        W69641  20.285  25.007   4.126
97382W        W69642  21.958  39.974  14.747
97383W        W69643   8.391  24.851   3.166
97384W        W69644  12.719  32.686   2.771
97385W        W69645   6.299   3.961  11.225
97386W        W69646  44.886  36.375  12.976
97387W        W69647  24.516  24.510   2.280
97388W        W69648  20.637  23.464   4.597
97389W        W69649  41.729  14.629  13.829
97390W        W69650  35.541  22.642  11.598
97391W        W69651  32.970  36.393   2.340
97392W        W69652  17.917   8.461  11.047
97393W        W69653  31.848  11.407   3.925
97394W        W69654  23.653   3.043  11.424
97395W        W69655   8.685   7.025   4.473
97396W        W69656   4.961  27.108   3.257
97397W        W69657   7.987  37.193  11.960
97398W        W69658  28.209  39.440   2.791
97399W        W69659  15.295  15.131   3.388
97400W        W69660  13.299  41.580  13.804
97401W        W69661   4.802  37.943  10.771
97402W        W69662  12.277  24.235   2.966
97403W        W69663  29.976  11.723   4.778
97404W        W69664  33.022   9.811   4.183
97405W        W69665   3.133  22.482  10.625
97406W        W69666  10.293  14.291  14.474
97407W        W69667  39.794  40.390   0.261
97408W        W69668  13.621  13.754  13.360
97409W        W69669  30.785  10.056  12.849
97410W        W69670  38.909  34.597   0.378
97411W        W69671   2.244   2.838   1.280
97412W        W69672  14.230  24.453  13.915
97413W        W69673  26.234  17.651   3.386
97414W        W69674  19.617   2.800   1.439
97415W        W69675   6.761  41.041   0.894
97416W        W69676  22.612  22.470  10.030
97417W        W69677  27.004   9.164   9.968
97418W        W69678  13.261  41.574  13.285
97419W        W69679  39.175  11.662   4.907
97420W        W69680   3.800  21.650  13.683
97421W        W69681  21.082  30.007   2.633
97422W        W69682   7.243  24.488   2.480
97423W        W69683  42.800  25.531   4.750
97424W        W69684  36.907   6.813  11.400
97425W        W69685   5.834  44.915   1.889
97426W        W69686  26.537   0.045  14.183
97427W        W69687  27.103  37.319  14.239
97428W        W69688  35.374  29.925  12.065
97429W        W69689  31.049  29.128  11.089
97430W        W69690  19.101  42.588   4.596
97431W        W69691  40.871  12.725   1.860
97432W        W69692  30.410   1.067   0.475
97433W        W69693   8.372  31.745   1.211
97434W        W69694  31.096   9.909   1.888
97435W        W69695  44.366  20.181   2.598
97436W        W69696   0.459  39.033  14.541
97437W        W69697  12.275  26.917  13.997
97438W        W69698  18.489   0.438   0.295
97439W        W69699   9.575  36.285  10.735
97440W        W69700   4.762  30.854   1.267
97441W        W69701   6.879  13.891   1.952
97442W        W69702  38.173  14.080  14.274
97443W        W69703  18.210  32.935  14.510
97444W        W69704   3.671  20.546   3.654
97445W        W69705  16.192  42.452  14.504
97446W        W69706   7.485  11.643   3.670
97447W        W69707  41.923  20.006   4.197
97448W        W69708  44.233  40.329  10.451
97449W        W69709  42.771  18.874  13.543
97450W        W69710  15.238  27.786   3.263
97451W        W69711  38.185   2.925  11.461
97452W        W69712  42.279  18.754   1.742
97453W        W69713  36.550  31.129  14.823
97454W        W69714   2.435  16.782  12.933
97455W        W69715  13.243  21.257   2.178
97456W        W69716  33.509  33.617   0.434
97457W        W69717  16.543  24.481   4.778
97458W        W69718  23.091  28.068  12.932
97459W        W69719   4.788  23.976   0.826
97460W        W69720  16.820  36.869   2.421
97461W        W69721  16.014  26.604   4.437
97462W        W69722  32.105  26.484  12.782
97463W        W69723  25.707  44.333   1.843
97464W        W69724  15.335  11.673   2.670
97465W        W69725  33.429   9.393  11.789
97466W        W69726  21.525  23.667  14.547
97467W        W69727   3.551  33.939  14.321
97468W        W69728   3.878   0.141  11.243
97469W        W69729  16.873  31.095   1.371
97470W        W69730  10.782  23.415   2.020
97471W        W69731  20.085   0.488   1.142
97472W        W69732  32.084   0.488   4.095
97473W        W69733  40.086  13.949   0.951
97474W        W69734  15.636  24.539   0.212
97475W        W69735  32.017  25.004  14.323
97476W        W69736  12.572  41.755  12.120
97477W        W69737  38.307   5.023  11.096
97478W        W69738  29.259  39.321  12.651
97479W        W69739  32.604  43.400  11.815
97480W        W69740  42.839  15.624  12.541
97481W        W69741  22.563  37.116   4.140
97482W        W69742  28.938  38.995   2.245
97483W        W69743   5.440  14.118   1.030
97484W        W69744  37.930   4.838   2.408
97485W        W69745  10.577  12.747  12.885
97486W        W69746   3.776   6.256  10.533
97487W        W69747  40.253  12.166  13.781
97488W        W69748  18.810  32.066   4.356
97489W        W69749  24.782  24.981  12.486
97490W        W69750  22.879  30.700   2.043
97491W        W69751   1.695  19.510   4.088
97492W        W69752  10.635  41.067  12.067
97493W        W69753   0.427   4.833   3.060
97494W        W69754  40.325  34.301   3.131
97495W        W69755  16.992  21.798   2.776
97496W        W69756  11.704   3.327   3.891
97497W        W69757  29.730  24.480  14.301
97498W        W69758   1.833  31.096   2.477
97499W        W69759  21.183   3.988   4.568
97500W        W69760  36.983   5.182   3.769
97501W        W69761  35.036  11.733   0.117
97502W        W69762  30.493   3.757   4.127
97503W        W69763  24.401  21.187   3.750
97504W        W69764   6.236  16.131   2.090
97505W        W69765  20.092   4.848  13.717
97506W        W69766  42.422  13.136  14.431
97507W        W69767  17.231  38.551  11.963
97508W        W69768  37.625  16.748  10.244
97509W        W69769   5.974  13.366   3.341
97510W        W69770  25.636   6.186   1.231
97511W        W69771  28.996  24.503   0.368
97512W        W69772  27.709   8.256   1.851
97513W        W69773  18.362  33.349  13.548
97514W        W69774  19.159  38.871  12.005
97515W        W69775  33.008  37.207   1.367
97516W        W69776  37.889  16.339  14.311
97517W        W69777   3.338  36.299  12.149
97518W        W69778   3.724  20.225  12.883
97519W        W69779   2.415  39.464  10.428
97520W        W69780  32.349  17.630   4.155
97521W        W69781  24.120  40.531  11.039
97522W        W69782  29.072  14.716  14.917
97523W        W69783  29.897   3.933   1.240
97524W        W69784  36.462  40.696  13.057
97525W        W69785   5.300  19.144  11.169
97526W        W69786  28.210  40.459  14.418
97527W        W69787  24.933  15.069  13.818
97528W        W69788   0.431  37.950   0.622
97529W        W69789  16.215   5.030  11.407
97530W        W69790  12.878   6.917   4.163
97531W        W69791  32.164  32.363   1.888
97532W        W69792  13.318   9.505   2.283
97533W        W69793   0.585   0.440   2.773
97534W        W69794  14.405  10.666  13.314
97535W        W69795   4.015  33.616   3.003
97536W        W69796   5.341  12.855   4.539
97537W        W69797   7.957   8.749   2.177
97538W        W69798  25.825  41.525   1.929
97539W        W69799  34.406  34.965  12.899
97540W        W69800  19.736  23.076   1.669
97541W        W69801   4.158  32.930  11.214
97542W        W69802  18.647   6.863   1.922
97543W        W69803  35.518  14.757   5.015
97544W        W69804  36.417  29.601  13.496
97545W        W69805   2.272  26.566   4.218
97546W        W69806  13.052  31.878  10.430
97547W        W69807   3.748   5.616  10.231
97548W        W69808  37.006  27.429  12.600
97549W        W69809  33.743   5.956   5.005
97550W        W69810  27.857  24.995   0.746
97551W        W69811  44.689   3.825  11.634
97552W        W69812  36.355  12.742  12.563
97553W        W69813  11.510  29.147   5.440
97554W        W69814  11.174  22.545   4.780
97555W        W69815  10.383  29.997  11.183
97556W        W69816  42.892  31.622   1.808
97557W        W69817  12.860  19.251  14.946
97558W        W69818  44.075   6.191   0.903
97559W        W69819  17.651  22.139   0.791
97560W        W69820  32.935   8.297  10.487
97561W        W69821  26.925  23.755  14.833
97562W        W69822   8.791   1.719  11.788
97563W        W69823  15.101  16.834  13.958
97564W        W69824  11.769  27.977  11.726
97565W        W69825  34.116   2.845  14.268
97566W        W69826  43.550  36.364  11.731
97567W        W69827  27.231  26.060  12.201
97568W        W69828   0.206  19.976  14.853
97569W        W69829   6.822  29.678  11.997
97570W        W69830  15.164  24.026   4.625
97571W        W69831  30.325  24.071   5.243
97572W        W69832  43.101  30.044   4.118
97573W        W69833  37.341   5.886  12.897
97574W        W69834  13.717  12.621  11.991
97575W        W69835  32.345  29.999   2.819
97576W        W69836  26.725  19.327  13.105
97577W        W69837  14.108  41.053  10.770
97578W        W69838  11.098  38.322  12.629
97579W        W69839   9.194  42.563   0.978
97580W        W69840  39.135  33.185  10.308
97581W        W69841  37.555  16.081  13.388
97582W        W69842  21.767  15.781  10.523
97583W        W69843  32.174  23.059  10.663
97584W        W69844  19.657  38.568  10.828
97585W        W69845  21.008  26.193   2.814
97586W        W69846  24.443   0.736   0.357
97587W        W69847   6.263  29.853  14.815
97588W        W69848  31.745  21.603   4.597
97589W        W69849   3.937  36.180   3.496
97590W        W69850  16.990  37.977   4.179
97591W        W69851  37.614   5.256  14.738
97592W        W69852  32.135   1.507   4.941
97593W        W69853   8.315   8.172   3.203
97594W        W69854   0.262  23.292  11.924
97595W        W69855   6.650  27.455  10.473
97596W        W69856  16.276  30.921   4.518
97597W        W69857  28.354  10.388   4.454
97598W        W69858   0.919   0.783   0.190
97599W        W69859  11.710  35.410   3.835
97600W        W69860   5.695  30.116  13.972
97601W        W69861  15.775  11.140   0.523
97602W        W69862  20.773  23.720   4.168
97603W        W69863   9.709  11.673  12.469
97604W        W69864  28.632  39.967  13.331
97605W        W69865  25.593  12.268   1.036
97606W        W69866  34.521   4.513  13.028
97607W        W69867  42.558  31.096  11.976
97608W        W69868  35.194  20.965   0.826
97609W        W69869  10.275   6.490  14.286
97610W        W69870  44.032  18.875  13.444
97611W        W69871  15.070  18.789   4.024
97612W        W69872  16.273  21.359   2.694
97613W        W69873   5.649  19.032   1.676
97614W        W69874  37.797  36.791   3.089
97615W        W69875  15.200  36.339  13.376
97616W        W69876   4.145  27.260  12.317
97617W        W69877   6.182  43.046  12.307
97618W        W69878   3.556  42.371   3.855
97619W        W69879  27.988   5.808   4.174
97620W        W69880  11.392  42.265  13.503
97621W        W69881  32.466   7.723  12.301
97622W        W69882  34.623  38.566  11.713
97623W        W69883  41.812  44.660  14.319
97624W        W69884  18.250  20.840   4.995
97625W        W69885  20.472   5.370   3.840
97626W        W69886  43.909  17.577   2.199
97627W        W69887  18.893  24.319   1.864
97628W        W69888  32.273  39.397  10.224
97629W        W69889  37.860   3.252   1.851
97630W        W69890  44.884   6.742  11.913
97631W        W69891  36.622  22.564   2.174
97632W        W69892  35.893   5.193   2.378
97633W        W69893  17.346  20.623  12.772
97634W        W69894  41.919  28.221  10.363
97635W        W69895  10.512  15.037   1.875
97636W        W69896   7.879   1.550   3.160
97637W        W69897  18.951  30.541   1.893
97638W        W69898  18.592  17.163  11.800
97639W        W69899  21.178  16.052  10.657
97640W        W69900  22.001  38.000   4.564
97641W        W69901  34.805  21.020   4.533
97642W        W69902  19.191  19.994   2.784
97643W        W69903  30.099  42.395  12.095
97644W        W69904  35.615  43.560  11.347
97645W        W69905  20.314   3.971   3.656
97646W        W69906  35.553  43.376  10.875
97647W        W69907  41.009  27.928   4.748
97648W        W69908  15.691   8.617   4.981
97649W        W69909  13.907   9.475   2.822
97650W        W69910  32.561   6.418   1.685
97651W        W69911   8.981  43.069  13.139
97652W        W69912  32.455  33.870  13.042
97653W        W69913  22.163  22.042   3.378
97654W        W69914  22.071  23.792   3.373
97655W        W69915  24.772  19.830  12.404
97656W        W69916   8.355  38.983   2.282
97657W        W69917  34.960   2.757  12.037
97658W        W69918  31.651  21.713   3.680
97659W        W69919  14.559  40.085  10.706
97660W        W69920   8.699   1.570  14.033
97661W        W69921  10.421  44.972   1.444
97662W        W69922  31.562  44.441   3.169
97663W        W69923   4.627  26.035  12.486
97664W        W69924  31.965  25.126   4.166
97665W        W69925  20.118   4.148   0.285
97666W        W69926  21.128  27.263  10.158
97667W        W69927  29.060   4.331   4.672
97668W        W69928  28.131  18.539   0.503
97669W        W69929  38.856  15.084  11.091
97670W        W69930  31.047  41.433  10.783
97671W        W69931  13.146  41.870  11.637
97672W        W69932   9.384  32.412  14.265
97673W        W69933  44.984  33.066   1.236
97674W        W69934  43.539  39.427  13.956
97675W        W69935  23.050  33.530  13.476
97676W        W69936  13.443  23.439  13.438
97677W        W69937  34.887  31.046   3.803
97678W        W69938  36.668  31.973  11.070
97679W        W69939  42.866  15.817   2.688
97680W        W69940  38.783  19.477   4.117
97681W        W69941  35.167  23.119  13.823
97682W        W69942  43.933  19.064   2.948
97683W        W69943  38.420   7.301   0.463
97684W        W69944  13.573   9.186   0.377
97685W        W69945  26.431  37.627   3.000
97686W        W69946  36.141  39.987   4.799
97687W        W69947  22.497  43.023   3.163
97688W        W69948  40.047  33.904  12.414
97689W        W69949  43.668  42.458  11.590
97690W        W69950  24.042  18.769  14.019
97691W        W69951  11.316  39.764   4.666
97692W        W69952   6.174  33.985   0.713
97693W        W69953   7.935  18.758   0.148
97694W        W69954  35.956  21.015   0.454
97695W        W69955  23.511  14.409   0.777
97696W        W69956  26.079  15.737   3.355
97697W        W69957  25.894  37.279  13.962
97698W        W69958   6.281  29.409  12.013
97699W        W69959  36.597   0.488  12.523
97700W        W69960  19.607  16.546  13.567
97701W        W69961  33.465  42.604   3.726
97702W        W69962  10.124  27.239  11.487
97703W        W69963  17.872  36.098  14.793
97704W        W69964  35.483  17.162  10.728
97705W        W69965  25.585  12.597   0.248
97706W        W69966  37.941  22.399   1.491
97707W        W69967  42.773   7.049   3.729
97708W        W69968  11.095   2.635   1.493
97709W        W69969  41.062  21.963   2.765
97710W        W69970  11.185  35.910   2.185
97711W        W69971  32.359   9.754  14.279
97712W        W69972  38.438  10.853   1.509
97713W        W69973  17.488  34.026   3.104
97714W        W69974  44.322  15.695  14.068
97715W        W69975   0.585  20.573  14.546
97716W        W69976  35.375  39.515   2.346
97717W        W69977  23.619  40.459  13.576
97718W        W69978  20.275  16.589  12.106
97719W        W69979   8.959  40.896   4.456
97720W        W69980  23.156  39.820   1.929
97721W        W69981  26.175   3.277   3.515
97722W        W69982   2.870  32.646  12.945
97723W        W69983  30.518  26.618   1.161
97724W        W69984   4.797  30.146  12.810
97725W        W69985  41.927   5.371  14.487
97726W        W69986   6.944   2.257   3.904
97727W        W69987   0.491  10.555  10.584
97728W        W69988  43.531  34.599   1.885
97729W        W69989  33.309  40.843  11.023
97730W        W69990  28.535  27.457   3.198
97731W        W69991  20.585  36.537   4.768
97732W        W69992  25.392  42.029  14.327
97733W        W69993  24.547  18.021   3.833
97734W        W69994   3.820   3.954  11.528
97735W        W69995  13.399   1.216  14.358
97736W        W69996  22.085  17.567  14.828
97737W        W69997  26.504  40.055  13.288
97738W        W69998  22.176  39.744   4.735
97739W        W69999  43.973  35.501   2.842
97740W        W70000  37.022  38.405  14.506
97741W        W70001  20.032  36.758   1.023
97742W        W70002  35.183   1.094   0.823
97743W        W70003  33.937  31.827   2.308
97744W        W70004   6.351  40.383   0.484
97745W        W70005   2.101  33.031   1.297
97746W        W70006   0.803   4.391   0.887
97747W        W70007  41.298  43.303  11.238
97748W        W70008  24.116  16.865   2.788
97749W        W70009  11.606   7.402  11.557
97750W        W70010  17.280  29.383  13.632
97751W        W70011  27.456  14.076  11.158
97752W        W70012  20.060  24.874  12.136
97753W        W70013  37.819  31.441  13.411
97754W        W70014  35.761  29.208   1.310
97755W        W70015  16.251  34.640   1.417
97756W        W70016  14.834  28.016  10.663
97757W        W70017  30.004  41.822   0.169
97758W        W70018  31.016  43.774   0.333
97759W        W70019  20.299  44.992   0.374
97760W        W70020   9.143  23.482  14.774
97761W        W70021  40.753   7.694   3.840
97762W        W70022   1.707  12.307   1.873
97763W        W70023  41.013  44.961   0.251
97764W        W70024  28.498   5.779   1.186
97765W        W70025  44.876  33.231   0.288
97766W        W70026  35.667  20.114   4.424
97767W        W70027   8.981  21.984  11.094
97768W        W70028  16.817   0.863  11.829
97769W        W70029  43.022  24.127  10.923
97770W        W70030  39.559  27.453   3.766
97771W        W70031  43.827  10.300   0.732
97772W        W70032   0.377  30.988   2.745
97773W        W70033   2.727  13.677   2.210
97774W        W70034  16.028  30.705   3.292
97775W        W70035   9.090  39.628  14.792
97776W        W70036   2.578   5.330  13.561
97777W        W70037  17.330  36.643   2.720
97778W        W70038  41.026  10.725   2.836
97779W        W70039  32.094  33.948   0.751
97780W        W70040   8.736  37.780  10.721
97781W        W70041  23.500  26.934  12.484
97782W        W70042  20.070  17.092   1.069
97783W        W70043  25.688  17.461  11.993
97784W        W70044   3.268  32.546   2.804
97785W        W70045  11.157  34.284   3.382
97786W        W70046   0.428  38.897  10.386
97787W        W70047  15.005   0.067  12.052
97788W        W70048   6.641  13.306  14.782
97789W        W70049  26.665  22.311   3.573
97790W        W70050  26.576   6.305  11.670
97791W        W70051   5.529  14.680   3.816
97792W        W70052  36.552  33.900   1.303
97793W        W70053  44.518  14.324  12.580
97794W        W70054  44.934  10.359  12.910
97795W        W70055  31.643   8.696   3.704
97796W        W70056  33.845  11.360  10.547
97797W        W70057  16.766   8.607   1.813
97798W        W70058   3.610   3.892  11.982
97799W        W70059   1.201  42.744  11.225
97800W        W70060  21.226  13.447   3.618
97801W        W70061  31.096  35.442   2.846
97802W        W70062  35.045   8.941  11.992
97803W        W70063   6.629  22.174   2.234
97804W        W70064  36.906   5.635  12.055
97805W        W70065  40.393   1.117   0.690
97806W        W70066  35.347  18.640   2.449
97807W        W70067   2.453  26.632   0.788
97808W        W70068  13.125  26.736   4.807
97809W        W70069  27.665  44.277   3.760
97810W        W70070  18.783  37.001   4.911
97811W        W70071  43.387  18.074   2.265
97812W        W70072  21.550  40.156   4.235
97813W        W70073  44.871  21.209  10.758
97814W        W70074  33.307   4.827  13.042
97815W        W70075  35.879  14.801  11.483
97816W        W70076  27.740  18.153  10.979
97817W        W70077  44.950   3.652  12.055
97818W        W70078  24.017  43.813  13.411
97819W        W70079  25.065   0.712   5.093
97820W        W70080  37.087  10.108  12.208
97821W        W70081  26.439  41.644  12.522
97822W        W70082   4.122  16.165  13.373
97823W        W70083  35.029  22.200   2.442
97824W        W70084  25.098  14.183  13.378
97825W        W70085  34.586   6.425  13.551
97826W        W70086  20.731  21.665   2.359
97827W        W70087   1.856  19.607   3.616
97828W        W70088  33.670  34.563  10.338
97829W        W70089  37.367  43.784  12.076
97830W        W70090  18.720  42.006   2.408
97831W        W70091  17.020  39.911   1.229
97832W        W70092  43.388  43.535   1.194
97833W        W70093   6.019  13.643   4.574
97834W        W70094   0.792  29.903  13.495
97835W        W70095  28.785  28.109   3.337
97836W        W70096  22.368  42.330  12.540
97837W        W70097  23.025  11.745   1.651
97838W        W70098  19.744  42.974   3.666
97839W        W70099  25.724  32.591  11.115
97840W        W70100  23.260  37.037  12.964
97841W        W70101  36.078  28.382  12.097
97842W        W70102   5.482  34.040   3.344
97843W        W70103  44.343   8.669   0.472
97844W        W70104  22.192  27.462   1.396
97845W        W70105  21.064  38.095  13.851
97846W        W70106  11.728  40.799   1.044
97847W        W70107  23.300  27.574   0.170
97848W        W70108   9.264   4.710  12.255
97849W        W70109  13.211  16.382   3.545
97850W        W70110   1.728  23.739   2.235
97851W        W70111  41.496  14.367   4.491
97852W        W70112  24.765  16.512  14.256
97853W        W70113  14.337  24.759  12.903
97854W        W70114  24.152  38.527  10.914
97855W        W70115  26.012  27.219   4.819
97856W        W70116  11.149   1.085   3.090
97857W        W70117  40.988  33.637   0.825
97858W        W70118  25.425   0.979   1.360
97859W        W70119  20.678  28.638   2.401
97860W        W70120  43.008  19.048   3.133
97861W        W70121  13.649   5.744   3.615
97862W        W70122  19.664  21.280  13.362
97863W        W70123   1.893  21.476  10.612
97864W        W70124  30.351   7.472   1.182
97865W        W70125  41.993   3.885  10.385
97866W        W70126  29.018  27.082   4.249
97867W        W70127   4.688  22.637  13.498
97868W        W70128  44.696  24.648  10.607
97869W        W70129  26.919  38.977  10.189
97870W        W70130  38.450   4.262  11.469
97871W        W70131  44.822   7.920   4.124
97872W        W70132  28.933   3.798   3.384
97873W        W70133   7.751  44.138  13.949
97874W        W70134  35.037   6.725   4.224
97875W        W70135   5.062  10.150  11.727
97876W        W70136   0.551  41.236  12.047
97877W        W70137  37.083   6.799   4.562
97878W        W70138  13.451  37.285   2.207
97879W        W70139   9.288  41.556  11.322
97880W        W70140   3.941  37.475  11.579
97881W        W70141   8.890  35.127   0.900
97882W        W70142  27.686  23.561   1.898
97883W        W70143  13.137   0.041  13.092
97884W        W70144  31.066  23.464   2.246
97885W        W70145  30.941   5.863  13.529
97886W        W70146  41.338  24.480   0.874
97887W        W70147  21.473   5.260   4.173
97888W        W70148  22.481  42.723   3.575
97889W        W70149  17.996  23.591  12.043
97890W        W70150   8.246  43.906  14.995
97891W        W70151  22.495  32.579  12.036
97892W        W70152  10.308  21.743  12.710
97893W        W70153  43.760  26.419   1.270
97894W        W70154  44.213  35.354   4.684
97895W        W70155  25.086  43.413  13.938
97896W        W70156   3.339  12.695   4.277
97897W        W70157  42.947   6.007   4.438
97898W        W70158  18.128  21.602   2.227
97899W        W70159  26.240   5.430   0.913
97900W        W70160  26.735  37.959   2.211
97901W        W70161  11.201   9.390  13.220
97902W        W70162  15.078  32.436  10.622
97903W        W70163   6.800  32.150   1.502
97904W        W70164   9.789  28.221   1.283
97905W        W70165  43.630  28.717   4.482
97906W        W70166  16.894  18.167   1.159
97907W        W70167  39.032  40.354   0.767
97908W        W70168  27.220  18.732   3.831
97909W        W70169   0.190  23.007  11.483
97910W        W70170  24.220  13.163   4.377
97911W        W70171  27.683  13.685   3.839
97912W        W70172  14.286  17.778   2.879
97913W        W70173   3.483   9.167  11.115
97914W        W70174  14.680  39.292  11.157
97915W        W70175  11.301   8.288   3.410
97916W        W70176   3.823  14.542   2.344
97917W        W70177  17.560  29.818  13.803
97918W        W70178  34.333  43.478  14.536
97919W        W70179  39.570  41.227  10.695
97920W        W70180  10.810  24.182   3.656
97921W        W70181  13.615  15.101   4.152
97922W        W70182  20.071   1.944  14.479
97923W        W70183  11.625  20.091   1.007
97924W        W70184  21.163  12.895   1.244
97925W        W70185  12.719  24.113  12.470
97926W        W70186  31.810   8.399  10.441
97927W        W70187  13.746  11.063  14.609
97928W        W70188  34.552  42.845   4.041
97929W        W70189  21.223  36.556  12.096
97930W        W70190  41.224  43.205   2.201
97931W        W70191  29.046  27.170   4.771
97932W        W70192  23.249  24.220  14.963
97933W        W70193   3.850  17.168  13.383
97934W        W70194  26.744  38.658   1.277
97935W        W70195  36.779  11.578   2.870
97936W        W70196  12.388  39.630  13.351
97937W        W70197  35.796   7.334  14.528
97938W        W70198  42.354  35.314   4.311
97939W        W70199  37.685  25.963  13.820
97940W        W70200  22.097  16.138   3.240
97941W        W70201  26.623  33.309  11.067
97942W        W70202  36.365  15.713  10.753
97943W        W70203   1.395   0.761  13.364
97944W        W70204  37.569  18.751   3.250
97945W        W70205  13.167  25.096   3.985
97946W        W70206  42.493  16.393  14.173
97947W        W70207  18.987  15.709   0.953
97948W        W70208  26.772  27.200  11.554
97949W        W70209  38.007  20.441  10.342
97950W        W70210   8.737   4.515   4.576
97951W        W70211  44.813  19.650  14.831
97952W        W70212  10.412  12.277  11.619
97953W        W70213  38.179  13.281  12.905
97954W        W70214  39.541  41.228   2.982
97955W        W70215   5.207  24.278   0.938
97956W        W70216  22.255  32.161   3.691
97957W        W70217  31.641   3.314  12.900
97958W        W70218  36.605   5.895   1.234
97959W        W70219  42.473   5.283  13.453
97960W        W70220  19.299  20.169  12.199
97961W        W70221   0.967  23.121   2.246
97962W        W70222  43.258   6.400   4.633
97963W        W70223   0.915  13.161   1.175
97964W        W70224   0.295  39.953  10.969
97965W        W70225   7.839  37.918   4.533
97966W        W70226  32.446  40.517  12.140
97967W        W70227  18.677  30.120   1.236
97968W        W70228  10.097  16.009   4.143
97969W        W70229  30.273  29.604   4.249
97970W        W70230   7.777  22.540   3.250
97971W        W70231  14.718  17.062   1.331
97972W        W70232  27.231   7.136  13.544
97973W        W70233  10.591  21.514   1.009
97974W        W70234  16.185  23.728   0.361
97975W        W70235  11.126   2.987  13.980
97976W        W70236  42.498  41.792   4.185
97977W        W70237  37.862   3.610  13.002
97978W        W70238  27.229  38.351   0.302
97979W        W70239  34.042  15.346  10.791
97980W        W70240   8.374   3.497   2.297
97981W        W70241  43.439  23.450   3.091
97982W        W70242   0.662  29.389  14.880
97983W        W70243   8.671   9.243   3.671
97984W        W70244  36.753  25.011   0.411
97985W        W70245   3.139  26.608  12.094
97986W        W70246  16.147  25.189  13.436
97987W        W70247  10.947  27.518  13.507
97988W        W70248  17.175   5.903   1.006
97989W        W70249  12.541  32.433   0.939
97990W        W70250   8.267   9.385   4.662
97991W        W70251   6.709  35.364   2.199
97992W        W70252  24.268   9.423   4.774
97993W        W70253  34.810  22.503   2.831
97994W        W70254  23.383   2.883   1.535
97995W        W70255  26.079  42.573  14.421
97996W        W70256  27.381  15.621   0.866
97997W        W70257  20.541  30.099  11.665
97998W        W70258  20.744  26.000  11.944
97999W        W70259  32.812  44.526   2.067
98000W        W70260  37.357   2.621  12.446
98001W        W70261  18.328  23.992  12.014
98002W        W70262  11.766  15.299   0.831
98003W        W70263  37.437  20.725   2.982
98004W        W70264  30.104  38.897   1.330
98005W        W70265  18.802   5.195   0.825
98006W        W70266   5.909  29.030  10.653
98007W        W70267  14.214   1.314  13.981
98008W        W70268  31.370   5.777   0.714
98009W        W70269  33.036  34.481   4.134
98010W        W70270  38.187  35.748  11.946
98011W        W70271  42.700  23.176   2.654
98012W        W70272  25.654  43.551   3.766
98013W        W70273  33.874  29.885   0.356
98014W        W70274  12.407   3.668  11.173
98015W        W70275  36.350  37.114  13.078
98016W        W70276  38.852  18.425   1.710
98017W        W70277  19.161  36.309  11.873
98018W        W70278  31.039  35.781  13.764
98019W        W70279  42.959  11.880  12.463
98020W        W70280  11.222   4.347  11.205
98021W        W70281   4.621  26.139   4.297
98022W        W70282  17.628   7.660   3.063
98023W        W70283  13.175  12.377   4.389
98024W        W70284  12.581  34.033   3.847
98025W        W70285   4.910  43.307  11.032
98026W        W70286   8.152  39.989  11.065
98027W        W70287   0.902  10.197  13.544
98028W        W70288  20.113  28.110  13.196
98029W        W70289  13.091  15.208   0.885
98030W        W70290  30.193   6.787   3.149
98031W        W70291  20.366  43.120   2.678
98032W        W70292  18.661  37.652   4.997
98033W        W70293  21.507   3.903  13.469
98034W        W70294  33.428  40.422  14.734
98035W        W70295  13.833  19.677  13.780
98036W        W70296  41.236  33.891  13.992
98037W        W70297   2.824  38.490   0.021
98038W        W70298  21.349  33.355  10.423
98039W        W70299   9.824  29.725   2.664
98040W        W70300  18.201  15.544   1.688
98041W        W70301  34.490   0.357  12.576
98042W        W70302   2.940  25.041  11.999
98043W        W70303   2.326  39.598   0.389
98044W        W70304  10.275   9.825   1.238
98045W        W70305  32.804  40.964   3.286
98046W        W70306  32.524  29.089   1.827
98047W        W70307  28.081  27.619   2.127
98048W        W70308  22.608  33.228  10.653
98049W        W70309   5.742  34.808   2.698
98050W        W70310  36.192  11.382   5.015
98051W        W70311  36.896   6.568   2.528
98052W        W70312   6.188  33.644  10.635
98053W        W70313   4.772  22.943  14.883
98054W        W70314  37.841  35.310   9.661
98055W        W70315  34.430  38.652   3.793
98056W        W70316  27.510  15.697   4.171
98057W        W70317   5.817  19.254   0.280
98058W        W70318  36.024  41.737   0.719
98059W        W70319  30.405  11.554   1.256
98060W        W70320   7.217  13.313  11.571
98061W        W70321  41.779  39.928  13.010
98062W        W70322  26.595  22.698  13.301
98063W        W70323  13.602   3.804  10.391
98064W        W70324  37.354   8.803  11.463
98065W        W70325   0.902  30.665  13.885
98066W        W70326  23.586   9.419   2.671
98067W        W70327  41.754  23.526  10.590
98068W        W70328  29.464  44.420   4.516
98069W        W70329  29.707  30.471  11.102
98070W        W70330  22.201  15.103   0.478
98071W        W70331  22.886  27.942  14.472
98072W        W70332  23.970  27.422   2.735
98073W        W70333  42.057  34.095  12.434
98074W        W70334  42.761   8.937  11.060
98075W        W70335   6.170  10.047  10.799
98076W        W70336  17.503  41.937  14.426
98077W        W70337  44.519   7.132   0.306
98078W        W70338  18.271   2.063   2.838
98079W        W70339  34.895   4.174  13.000
98080W        W70340  36.431  37.615   0.296
98081W        W70341   8.301   4.803  13.062
98082W        W70342  35.134  32.964  13.941
98083W        W70343  16.946  17.416   5.143
98084W        W70344  23.595  16.850   1.951
98085W        W70345  17.773   3.349   1.919
98086W        W70346  20.541  38.513   3.753
98087W        W70347  18.489  12.850  14.941
98088W        W70348  23.986   2.634   1.618
98089W        W70349   1.794  40.045   1.693
98090W        W70350  13.605  36.422  11.961
98091W        W70351  33.012   2.295  10.693
98092W        W70352  17.894  30.256   1.038
98093W        W70353   2.205  29.282   4.231
98094W        W70354  22.054  21.848  12.155
98095W        W70355  30.645  19.999  12.390
98096W        W70356  18.711  33.833   2.916
98097W        W70357  18.246  33.561   1.906
98098W        W70358  28.660   4.985  13.532
98099W        W70359   1.982  15.090   1.374
98100W        W70360   5.268   5.286  12.869
98101W        W70361   8.477  22.044   3.114
98102W        W70362   3.511  25.184  10.359
98103W        W70363  34.969  27.071   3.722
98104W        W70364  24.710   3.388   3.284
98105W        W70365  31.113  34.640   3.293
98106W        W70366  38.928   9.881  11.470
98107W        W70367  24.404   5.239   2.666
98108W        W70368  11.647  28.374  12.845
98109W        W70369  12.607   5.819   3.393
98110W        W70370   1.481  25.976   3.283
98111W        W70371  15.715  24.043   3.071
98112W        W70372  44.619   6.739  14.406
98113W        W70373  40.635   7.179  10.480
98114W        W70374  26.608  21.785   1.255
98115W        W70375  28.029  25.955  14.886
98116W        W70376  43.279  35.468   4.473
98117W        W70377  14.170  23.823   3.681
98118W        W70378  26.187  20.476  12.557
98119W        W70379   7.793   1.247   9.897
98120W        W70380   2.836  30.689  13.904
98121W        W70381   1.357   7.187   2.510
98122W        W70382  42.311  20.871  13.434
98123W        W70383  44.392   5.740   3.773
98124W        W70384   4.270  15.708   2.841
98125W        W70385  13.419  35.873   3.835
98126W        W70386   8.735  18.233   3.064
98127W        W70387  26.385  21.417  13.860
98128W        W70388   1.947   3.925  13.374
98129W        W70389  32.686  29.231   2.332
98130W        W70390  33.838  23.533  13.357
98131W        W70391  34.525  19.633   1.413
98132W        W70392  23.054  40.546   4.113
98133W        W70393  27.531  18.523   1.282
98134W        W70394   5.262   9.825  12.915
98135W        W70395  33.835  17.340  14.467
98136W        W70396  40.885   5.076  12.387
98137W        W70397   9.667  32.980  13.603
98138W        W70398   9.630  32.988   3.801
98139W        W70399  38.299  11.378  14.422
98140W        W70400  34.651  23.533  12.019
98141W        W70401  14.597  33.123   0.502
98142W        W70402   2.388  20.175  13.280
98143W        W70403   5.605  10.245   3.693
98144W        W70404  44.437  40.533   0.286
98145W        W70405   3.049  27.053   1.365
98146W        W70406  28.127  43.354  13.109
98147W        W70407  30.993  28.980  14.980
98148W        W70408   1.399   5.315   1.051
98149W        W70409   8.890  10.638   1.630
98150W        W70410  25.487  40.047   0.286
98151W        W70411   1.112   5.289  11.876
98152W        W70412  44.949  40.275   3.877
98153W        W70413  37.771  44.323   3.125
98154W        W70414   3.063  35.816   3.287
98155W        W70415  34.590  18.480  12.119
98156W        W70416  37.446  11.720  12.529
98157W        W70417   7.729  21.009   3.110
98158W        W70418  13.772   4.252   2.804
98159W        W70419  42.992  29.008  10.649
98160W        W70420  33.324  10.805  11.902
98161W        W70421  25.726   2.310  13.351
98162W        W70422  41.951  40.819  12.301
98163W        W70423   9.357  25.127  12.843
98164W        W70424  35.882  42.633   1.069
98165W        W70425  15.057  35.971   4.740
98166W        W70426   8.792  31.459  11.969
98167W        W70427  43.962  15.692   3.336
98168W        W70428  32.341  29.176  14.963
98169W        W70429  21.142   7.028  14.940
98170W        W70430  27.638  20.705  13.414
98171W        W70431   0.514  39.551   2.429
98172W        W70432   9.636   2.430   2.849
98173W        W70433  14.159  15.109  11.679
98174W        W70434  18.476   2.454   0.306
98175W        W70435  24.656   9.245   0.869
98176W        W70436  31.964  30.732  13.840
98177W        W70437  28.775  29.420  11.826
98178W        W70438  30.090  25.185   4.222
98179W        W70439   9.677  35.153  14.908
98180W        W70440  34.587  29.610  13.023
98181W        W70441  20.105  22.025  11.959
98182W        W70442  25.095  33.605  10.940
98183W        W70443   8.252  41.901   3.793
98184W        W70444  24.416   7.851  12.390
98185W        W70445  15.922  38.036  11.968
98186W        W70446  17.895  34.162   0.852
98187W        W70447  25.080   3.897   0.392
98188W        W70448  11.773  36.398   3.231
98189W        W70449  17.253   3.581  13.888
98190W        W70450  29.140  19.801  10.695
98191W        W70451  13.113   7.175  12.528
98192W        W70452  19.646  10.121   2.224
98193W        W70453   8.588  38.493  14.341
98194W        W70454  25.137  11.842  12.918
98195W        W70455  37.146  34.137   2.008
98196W        W70456  37.914  40.846   4.850
98197W        W70457  40.544  19.099  13.617
98198W        W70458  24.145  22.260  12.932
98199W        W70459   4.010  44.832   1.927
98200W        W70460  31.646  33.925  13.566
98201W        W70461  29.612  35.343  12.663
98202W        W70462  29.324  35.793  10.019
98203W        W70463  17.176  23.989  13.855
98204W        W70464  29.879   1.920  11.300
98205W        W70465  19.623   0.787   4.175
98206W        W70466  28.754  33.804  13.090
98207W        W70467  44.267  34.116  12.205
98208W        W70468  20.606  25.697  13.138
98209W        W70469  26.962  42.950  14.291
98210W        W70470   1.227  11.150   3.141
98211W        W70471   4.171   8.302  10.687
98212W        W70472   0.860  33.053   0.218
98213W        W70473  42.557  27.228   2.827
98214W        W70474  41.174  39.061  13.839
98215W        W70475  13.318  23.950  14.430
98216W        W70476  23.561  15.198  13.768
98217W        W70477  20.806  12.119  11.915
98218W        W70478   2.223   5.599   2.885
98219W        W70479  32.975  15.274  13.878
98220W        W70480  17.742   4.118   0.202
98221W        W70481  21.163  36.862   0.325
98222W        W70482  17.438  35.026  10.679
98223W        W70483  11.069  27.954  14.399
98224W        W70484  36.597  36.419   1.441
98225W        W70485  17.771   2.751   2.427
98226W        W70486  32.811  30.453  14.531
98227W        W70487   1.385   4.813  11.823
98228W        W70488  15.715  43.456   2.736
98229W        W70489  18.845  17.979  13.981
98230W        W70490   9.391   7.259   0.759
98231W        W70491  12.836   8.702  12.953
98232W        W70492  39.966  41.935  10.602
98233W        W70493  30.633  16.716   2.364
98234W        W70494  29.708   0.717   4.139
98235W        W70495  30.895  24.997  11.585
98236W        W70496  28.974  11.610   0.213
98237W        W70497  38.421  17.663   1.752
98238W        W70498  11.182  28.390  10.645
98239W        W70499  36.820  40.893  14.244
98240W        W70500   9.308  17.093  14.550
98241W        W70501  10.236  25.498   1.760
98242W        W70502  20.592   8.734   2.946
98243W        W70503  15.111   6.246  14.096
98244W        W70504  41.356  38.396  11.004
98245W        W70505  40.326  31.892   0.309
98246W        W70506  35.375  24.045   3.139
98247W        W70507  22.363  37.537   5.150
98248W        W70508  14.157   3.758   4.023
98249W        W70509  32.152   9.421   4.584
98250W        W70510   6.488  44.722   2.152
98251W        W70511  16.294  31.044  12.308
98252W        W70512  30.503  35.407  15.000
98253W        W70513  10.338  27.668  13.560
98254W        W70514   0.837  13.140   0.270
98255W        W70515  15.585  44.379   1.369
98256W        W70516  11.410  37.572   4.082
98257W        W70517  37.523  22.110   3.596
98258W        W70518  13.918  19.954   3.188
98259W        W70519  14.736  40.429  13.556
98260W        W70520  24.554  17.867  11.109
98261W        W70521  26.176   6.649  10.536
98262W        W70522   4.440  21.095   2.299
98263W        W70523  35.354  28.921   4.704
98264W        W70524  14.032   5.685  12.180
98265W        W70525  26.456  14.205  13.827
98266W        W70526  39.971  32.929   0.318
98267W        W70527  25.632   1.671   0.822
98268W        W70528  12.826  21.169  10.841
98269W        W70529  32.228  27.122   5.230
98270W        W70530   0.761   3.915   1.118
98271W        W70531   3.209  37.968   1.804
98272W        W70532  39.740  19.483   3.773
98273W        W70533  44.006   8.756  11.562
98274W        W70534  13.198  16.070   0.257
98275W        W70535   7.958   9.285   2.760
98276W        W70536  28.036  16.964   0.460
98277W        W70537  39.539   2.876  13.416
98278W        W70538  40.805  27.691  13.525
98279W        W70539  27.332  31.846  11.110
98280W        W70540   8.371  28.909  12.483
98281W        W70541  21.794   4.831  13.636
98282W        W70542  36.928  20.875  14.053
98283W        W70543   8.239   6.274  11.470
98284W        W70544   6.773   4.193   2.956
98285W        W70545  25.212  26.985  14.860
98286W        W70546  16.244  15.939   1.853
98287W        W70547  13.992  41.915  13.017
98288W        W70548  40.007  22.781   0.726
98289W        W70549  43.259  44.575  11.557
98290W        W70550  33.363   9.085   2.929
98291W        W70551  44.343   1.224  10.454
98292W        W70552  28.146  21.523  11.837
98293W        W70553   3.664   8.692   4.637
98294W        W70554  10.638  30.703   5.133
98295W        W70555  29.097  10.357  12.983
98296W        W70556  13.161   3.242   0.911
98297W        W70557  17.458  36.491   0.757
98298W        W70558  34.572  37.303  11.123
98299W        W70559  29.150   0.838   2.691
98300W        W70560  22.249   6.670   3.205
98301W        W70561   4.859  21.252  12.084
98302W        W70562  10.868  14.542   4.096
98303W        W70563  40.938  42.051  10.672
98304W        W70564   7.198  27.161   3.559
98305W        W70565  11.548   3.805   0.924
98306W        W70566   8.658  34.128   1.076
98307W        W70567  28.745   2.770   1.833
98308W        W70568  35.429  27.145  11.673
98309W        W70569   3.482  27.211   3.308
98310W        W70570  39.992  16.219   2.778
98311W        W70571  44.261   8.820  10.575
98312W        W70572  44.944   7.427   0.346
98313W        W70573  14.539  21.405   4.997
98314W        W70574  35.311  11.627  10.939
98315W        W70575  13.283   7.555  11.570
98316W        W70576   6.210  37.974   0.816
98317W        W70577  39.706  32.225   9.965
98318W        W70578  44.906  19.854   4.655
98319W        W70579  37.394  19.724   3.117
98320W        W70580   8.610  37.545  11.165
98321W        W70581   6.482  32.437   3.933
98322W        W70582  16.992  43.400  12.123
98323W        W70583  23.056  44.997   0.879
98324W        W70584  19.990  38.985   1.220
98325W        W70585   0.207  32.500  11.995
98326W        W70586   6.691  38.336   2.295
98327W        W70587   5.067  39.555   0.861
98328W        W70588  15.790  17.943   4.260
98329W        W70589  36.829  34.347   1.248
98330W        W70590  14.719  43.227   3.987
98331W        W70591  36.274   0.370   4.625
98332W        W70592  32.495  12.598  11.545
98333W        W70593  21.997  19.191   1.835
98334W        W70594  15.667   7.257  14.475
98335W        W70595  25.509   5.289   0.198
98336W        W70596  20.783   2.393  13.026
98337W        W70597  18.933   4.826   4.490
98338W        W70598  21.553   3.288  13.886
98339W        W70599  43.475   0.309  11.664
98340W        W70600  20.577  28.403   0.956
98341W        W70601  23.071   1.367   4.105
98342W        W70602  40.757   0.766   2.838
98343W        W70603  18.168  29.007  12.553
98344W        W70604  10.267  39.103  11.523
98345W        W70605  24.773  30.522  12.254
98346W        W70606  16.920  31.489   2.301
98347W        W70607  39.252  25.678  12.548
98348W        W70608  41.620   8.355  12.848
98349W        W70609  16.617   2.470   3.628
98350W        W70610  21.712  11.989  11.143
98351W        W70611   4.703   3.826   1.002
98352W        W70612   6.937  19.665  14.787
98353W        W70613  20.928  33.049  10.521
98354W        W70614   1.224  25.536  10.710
98355W        W70615  10.152  13.636   4.128
98356W        W70616  23.830  11.617   0.848
98357W        W70617  10.592   7.768   0.745
98358W        W70618  12.639  23.620   0.255
98359W        W70619   3.378   6.217   2.599
98360W        W70620   3.053  17.266   1.394
98361W        W70621  22.914  41.229  13.028
98362W        W70622  43.273  12.861  14.379
98363W        W70623   3.788   1.231   1.738
98364W        W70624  26.111  41.178   2.254
98365W        W70625  40.303  43.261   4.191
98366W        W70626  13.560   4.162   3.552
98367W        W70627  21.012  33.500   5.006
98368W        W70628   5.880  29.086   3.350
98369W        W70629  35.130   9.272  14.328
98370W        W70630  44.368  26.956  11.388
98371W        W70631  42.335  18.627   2.870
98372W        W70632  26.577   1.993  13.744
98373W        W70633  44.950  36.023   3.633
98374W        W70634  11.802  16.328   2.247
98375W        W70635  15.273  34.322   2.444
98376W        W70636  25.731  15.208   2.417
98377W        W70637  18.674  36.793   2.660
98378W        W70638   2.997  16.216   2.233
98379W        W70639  32.499  32.407   3.483
98380W        W70640  26.673  41.673  12.054
98381W        W70641   0.834  24.134   4.181
98382W        W70642   0.678  37.483   0.623
98383W        W70643  33.149  13.629   1.274
98384W        W70644  37.992  19.440   1.497
98385W        W70645  21.169  37.590  13.854
98386W        W70646   5.234   3.161  10.662
98387W        W70647  16.658  16.653  12.830
98388W        W70648  31.974  35.242   2.760
98389W        W70649  14.672  31.644   4.276
98390W        W70650   0.288  14.614   1.452
98391W        W70651  16.686  44.547   2.732
98392W        W70652  15.268  25.920  14.427
98393W        W70653  36.590  23.235  13.127
98394W        W70654  32.027  13.070  11.780
98395W        W70655  33.971  30.623  12.679
98396W        W70656  18.934  29.674   1.763
98397W        W70657  40.314  36.114   5.138
98398W        W70658   3.455  42.958   1.089
98399W        W70659   6.173  39.876   4.522
98400W        W70660  24.120  44.829   4.762
98401W        W70661   0.352  42.077  14.454
98402W        W70662  35.384   6.928   3.380
98403W        W70663   3.310  17.864   2.185
98404W        W70664  11.409  29.527   2.261
98405W        W70665  41.509  19.301  11.040
98406W        W70666   7.218  31.732   2.712
98407W        W70667  36.620   0.224   4.261
98408W        W70668  34.873  13.354   0.023
98409W        W70669  10.390  36.323  13.903
98410W        W70670  21.540  29.930  13.336
98411W        W70671  43.401  35.954   4.616
98412W        W70672  37.007  14.009  11.426
98413W        W70673  14.867   6.322   4.589
98414W        W70674  15.686  21.347   4.448
98415W        W70675  22.046  19.989   0.466
98416W        W70676   0.822  24.313  13.373
98417W        W70677  25.759  28.984   3.100
98418W        W70678  16.696  36.811  14.436
98419W        W70679  13.728  35.167   0.978
98420W        W70680  15.989  24.200   1.304
98421W        W70681  29.591  14.597  14.980
98422W        W70682  24.122  39.668   1.547
98423W        W70683  34.454  21.575  10.730
98424W        W70684  34.652  17.817   3.876
98425W        W70685   0.073  34.626   3.253
98426W        W70686  25.526  18.697  10.613
98427W        W70687  18.306  29.876   0.819
98428W        W70688  13.746  42.484  13.506
98429W        W70689  29.539  10.836  11.985
98430W        W70690  33.074  14.612   3.618
98431W        W70691  10.419  35.015  13.145
98432W        W70692  31.068  18.686  14.061
98433W        W70693  19.635  38.792  11.818
98434W        W70694   9.590  26.008  10.873
98435W        W70695   2.831   5.727  14.740
98436W        W70696  34.091  23.996   2.742
98437W        W70697  28.362  11.866   1.445
98438W        W70698  28.979   6.171  12.514
98439W        W70699  32.467  35.430   2.683
98440W        W70700  15.545   4.877  13.997
98441W        W70701  18.779  24.220  13.772
98442W        W70702  37.323   7.813  13.998
98443W        W70703  19.117  41.096  13.932
98444W        W70704   2.382  14.159  12.957
98445W        W70705  24.728  22.560   1.702
98446W        W70706  35.723  38.988   4.619
98447W        W70707  25.162   3.413  13.539
98448W        W70708  41.472  41.934   0.289
98449W        W70709  42.438   5.222   2.866
98450W        W70710   5.207   9.248   3.831
98451W        W70711  25.459  32.428   3.761
98452W        W70712  10.422   6.604  11.941
98453W        W70713  44.933  10.338   3.119
98454W        W70714  26.130  37.151   3.308
98455W        W70715  36.349  40.193  11.975
98456W        W70716  34.614  33.502   4.364
98457W        W70717   8.783  32.854   2.422
98458W        W70718   9.861  23.700   4.653
98459W        W70719   8.979  19.587  11.596
98460W        W70720  15.305   5.380  13.974
98461W        W70721  41.265  25.588  12.083
98462W        W70722  33.064  11.942  11.028
98463W        W70723   1.905   1.783   1.912
98464W        W70724  41.359   4.908  12.124
98465W        W70725  20.290  12.376  12.408
98466W        W70726   2.855  21.738   4.822
98467W        W70727   9.939  41.054   4.330
98468W        W70728  41.275  20.455  14.792
98469W        W70729  18.721  12.689   3.109
98470W        W70730   3.771  31.863   3.215
98471W        W70731  42.275   3.307   2.938
98472W        W70732  11.839  28.617  14.302
98473W        W70733   4.785  30.425   3.489
98474W        W70734  16.266   9.247  11.577
98475W        W70735  26.783   8.555  13.885
98476W        W70736  31.807  18.290   3.846
98477W        W70737  14.790   7.734   1.329
98478W        W70738  27.452  25.832  11.090
98479W        W70739  23.679   6.190  14.759
98480W        W70740   8.016  34.879  13.185
98481W        W70741  36.428  42.983  13.487
98482W        W70742  16.603  37.809  14.356
98483W        W70743   3.329   8.164   0.512
98484W        W70744  39.426  14.474   3.619
98485W        W70745  44.796  14.394   4.102
98486W        W70746   0.837  24.614  14.244
98487W        W70747  15.649   8.291  14.284
98488W        W70748  36.897  41.198   1.815
98489W        W70749   1.860  14.708   2.805
98490W        W70750   8.299  18.801  12.494
98491W        W70751  19.892  17.572  11.077
98492W        W70752  43.300  33.378  14.392
98493W        W70753  43.914  41.488  13.888
98494W        W70754  40.347   0.863   2.028
98495W        W70755   9.156   3.876  11.870
98496W        W70756  18.204  18.014  10.439
98497W        W70757  21.470  11.396   1.900
98498W        W70758  13.244  38.130  11.961
98499W        W70759  28.927  20.383   4.825
98500W        W70760  19.564  36.164  10.986
98501W        W70761  27.481  19.066  12.920
98502W        W70762   6.171  40.368  12.545
98503W        W70763  10.866   2.732  14.827
98504W        W70764  26.060  12.272   4.112
98505W        W70765   3.298  36.145   1.467
98506W        W70766  14.922  38.836  11.510
98507W        W70767  39.902   5.704  11.686
98508W        W70768   1.102   2.022  13.458
98509W        W70769  10.263   4.287  11.675
98510W        W70770   3.409  15.556   0.374
98511W        W70771  43.457   4.909   3.684
98512W        W70772   1.377  30.389   4.380
98513W        W70773  20.862  20.688   0.453
98514W        W70774  20.484  32.966   2.302
98515W        W70775  34.539  41.442  14.386
98516W        W70776  11.756  41.499   2.128
98517W        W70777   7.752  22.122  12.416
98518W        W70778  33.104  29.120  14.292
98519W        W70779  11.845  43.526  13.520
98520W        W70780  38.550  23.517  12.432
98521W        W70781  26.891   2.447   0.842
98522W        W70782  39.815   5.817   1.272
98523W        W70783  42.290   1.956  14.184
98524W        W70784  25.124   1.782   0.895
98525W        W70785  32.680   6.465   3.101
98526W        W70786  29.626  17.254   4.544
98527W        W70787   8.372  38.026   1.791
98528W        W70788  24.167  26.962  11.945
98529W        W70789  35.931  31.532  12.231
98530W        W70790  40.590  13.945   1.007
98531W        W70791  14.143  30.838  14.767
98532W        W70792  17.486  18.172  12.474
98533W        W70793  12.178  23.936   3.375
98534W        W70794  12.932  15.390  13.356
98535W        W70795  40.000  37.816  13.999
98536W        W70796   4.659  12.724   3.262
98537W        W70797  37.061   1.883  11.542
98538W        W70798   4.719  33.118   4.057
98539W        W70799  41.952   3.941  14.362
98540W        W70800  28.215  31.978  13.941
98541W        W70801   7.862  10.181   3.719
98542W        W70802  33.643  39.122   0.485
98543W        W70803  13.029  38.836  14.290
98544W        W70804  36.087  25.213   2.712
98545W        W70805   0.469  27.107  14.591
98546W        W70806   7.220  12.581   0.277
98547W        W70807  23.020  30.961  13.481
98548W        W70808   8.720  30.193  12.656
98549W        W70809   8.651  32.282  13.567
98550W        W70810  33.684  16.192  12.318
98551W        W70811   9.776   8.866   1.116
98552W        W70812  41.360  11.632   2.371
98553W        W70813  25.286  18.919   2.279
98554W        W70814  10.780  11.731  14.728
98555W        W70815  28.140  25.442   1.931
98556W        W70816  24.082  37.557   3.329
98557W        W70817  14.457  27.538  12.036
98558W        W70818  23.984  28.421   9.703
98559W        W70819  41.890   5.860   3.246
98560W        W70820  43.960  10.702   0.459
98561W        W70821  15.231   4.780   3.732
98562W        W70822  29.388  17.008   3.215
98563W        W70823   4.311   8.759   5.075
98564W        W70824   6.704  27.552   4.683
98565W        W70825  39.532  38.539   3.069
98566W        W70826  19.508  39.923  11.040
98567W        W70827   0.445  13.280   4.102
98568W        W70828   5.904   4.052  13.377
98569W        W70829  12.253  22.614  12.512
98570W        W70830   0.709  26.169  11.114
98571W        W70831  33.672  36.770   3.719
98572W        W70832   8.626  22.606   0.946
98573W        W70833  27.728   7.784   0.019
98574W        W70834   8.402   1.270   3.209
98575W        W70835  21.594   1.048   0.372
98576W        W70836  32.069   3.383   1.193
98577W        W70837   8.597  23.717  11.356
98578W        W70838  30.309  35.966   2.708
98579W        W70839   7.154  41.331   1.184
98580W        W70840  16.862   1.465   1.960
98581W        W70841  35.511  32.996   0.568
98582W        W70842  23.761   5.327  14.357
98583W        W70843  25.569  38.358   4.790
98584W        W70844  32.809  32.685   2.291
98585W        W70845  29.483  35.315   9.852
98586W        W70846   0.772   2.934  12.997
98587W        W70847  35.908  10.168  14.070
98588W        W70848  25.281  43.795   2.430
98589W        W70849  20.168   0.749   3.097
98590W        W70850  30.706  25.003  14.521
98591W        W70851  38.795   6.410  14.328
98592W        W70852   8.568  35.326   2.249
98593W        W70853  42.747  11.470  12.248
98594W        W70854  13.129  10.808  14.554
98595W        W70855  30.952  20.254  10.708
98596W        W70856  44.421  17.599  12.015
98597W        W70857   3.577  37.854   1.429
98598W        W70858   3.401  20.626  12.917
98599W        W70859  13.080  25.248   2.897
98600W        W70860   4.332  30.238  10.698
98601W        W70861  14.861   5.276   1.272
98602W        W70862  42.670  29.055   0.859
98603W        W70863  22.137   1.172   3.677
98604W        W70864   4.731  13.923  10.656
98605W        W70865  34.407  13.181  12.068
98606W        W70866   8.799  11.898   4.709
98607W        W70867  11.371   7.257  14.002
98608W        W70868   4.877  28.385   5.211
98609W        W70869   8.269  18.554  13.894
98610W        W70870  33.589  10.726   4.525
98611W        W70871  13.453  22.466  13.378
98612W        W70872   1.545  33.277  13.872
98613W        W70873  19.746  30.155  14.790
98614W        W70874  43.564   3.499  11.710
98615W        W70875  13.909  41.624   2.853
98616W        W70876  40.296   6.116   2.371
98617W        W70877  25.532   8.881  13.399
98618W        W70878  41.294   8.142  11.585
98619W        W70879  15.395   0.334   4.631
98620W        W70880   8.171  25.522   1.735
98621W        W70881  44.810  31.215  11.370
98622W        W70882  43.770  24.925   4.203
98623W        W70883   3.217  30.485  14.737
98624W        W70884  16.042  33.621   3.265
98625W        W70885  42.959  26.081   2.127
98626W        W70886  17.189  31.534   1.375
98627W        W70887  13.947   2.354   0.399
98628W        W70888  11.280  17.978   0.774
98629W        W70889   2.488  18.259   4.138
98630W        W70890  23.934  37.428   1.484
98631W        W70891  13.608   3.279  14.782
98632W        W70892  14.233  31.682   2.024
98633W        W70893   1.040  24.300   5.004
98634W        W70894   1.455   0.127   3.471
98635W        W70895   4.002  29.910  10.933
98636W        W70896  14.805  32.505   4.384
98637W        W70897   0.463  10.240  13.274
98638W        W70898  23.563  39.495  11.585
98639W        W70899  39.130  43.383   3.436
98640W        W70900  20.895  15.760   5.210
98641W        W70901   6.790  17.701  12.682
98642W        W70902   3.461   4.817   1.763
98643W        W70903  17.697  44.208   3.273
98644W        W70904  14.390  33.367   1.428
98645W        W70905  36.902  31.159  11.227
98646W        W70906   7.408  12.356  12.472
98647W        W70907  38.868  15.221  13.415
98648W        W70908  42.531  33.204  11.998
98649W        W70909  10.122   2.909   3.042
98650W        W70910   5.617  28.992   4.596
98651W        W70911  15.541  39.926   2.845
98652W        W70912  14.268  30.412   1.230
98653W        W70913  42.777  38.070  14.885
98654W        W70914  27.945   3.491   2.554
98655W        W70915   9.181  15.991  12.441
98656W        W70916  15.155  18.987  11.599
98657W        W70917  31.113  35.936   1.231
98658W        W70918  18.377  35.568  13.644
98659W        W70919  22.689  21.210  10.176
98660W        W70920  20.704  38.127   2.693
98661W        W70921   8.442  40.892   3.053
98662W        W70922  34.572  40.412   2.425
98663W        W70923  13.118  30.993  13.009
98664W        W70924   4.289  27.684   1.796
98665W        W70925  13.145  30.396   2.221
98666W        W70926  12.834  17.363  11.052
98667W        W70927  12.602  21.671  10.815
98668W        W70928  36.637   8.169   1.862
98669W        W70929  40.206  40.023  13.117
98670W        W70930   0.896   1.942   5.059
98671W        W70931   4.718  16.611   3.177
98672W        W70932  32.350  38.880  10.256
98673W        W70933  21.269  43.532   2.129
98674W        W70934  26.149  23.763  14.448
98675W        W70935  25.424  13.841  14.536
98676W        W70936  28.532  35.437   4.564
98677W        W70937  43.047  16.622   0.841
98678W        W70938  10.137  17.233  11.506
98679W        W70939  13.320  42.300  11.409
98680W        W70940   0.603  11.194   0.093
98681W        W70941  23.383  16.592   2.393
98682W        W70942  28.923  12.587  10.669
98683W        W70943  30.789  16.161   3.651
98684W        W70944  38.862   9.151   0.824
98685W        W70945  37.119  20.644  10.833
98686W        W70946  11.896  44.381  12.524
98687W        W70947  16.803  41.132   1.761
98688W        W70948  43.894  10.186   3.327
98689W        W70949  42.976  26.625   3.323
98690W        W70950  29.113  40.387   3.385
98691W        W70951  40.493   7.048   4.788
98692W        W70952  31.161  38.678   1.343
98693W        W70953  24.035  21.509  11.904
98694W        W70954   1.284  28.920  14.832
98695W        W70955   9.551   5.073   1.001
98696W        W70956   7.832   3.668  13.913
98697W        W70957  40.512  39.450  14.780
98698W        W70958  31.968  15.270  12.311
98699W        W70959  27.043  24.753  14.032
98700W        W70960  35.998  10.597  12.835
98701W        W70961  12.060  26.476  11.413
98702W        W70962   7.807  21.592  13.140
98703W        W70963   6.594  28.520  11.040
98704W        W70964  44.255   4.889   2.563
98705W        W70965  33.389   1.960   4.632
98706W        W70966   2.206   5.798   0.777
98707W        W70967  35.872  21.605   2.196
98708W        W70968  17.191  44.747  12.588
98709W        W70969  42.925  16.247   0.476
98710W        W70970  44.131   8.648  14.284
98711W        W70971   4.772  11.320  14.052
98712W        W70972   1.789  36.140   2.705
98713W        W70973  31.812  16.530   4.008
98714W        W70974  28.002   0.271   2.255
98715W        W70975  24.811  44.973  13.769
98716W        W70976   7.238  17.873   3.282
98717W        W70977  36.861  12.659  14.311
98718W        W70978   6.192  27.388  11.717
98719W        W70979  19.458  32.108  12.456
98720W        W70980  36.386  44.802   0.952
98721W        W70981  15.360  10.680  12.106
98722W        W70982  23.011  32.600   2.316
98723W        W70983  28.587  38.139  13.337
98724W        W70984  39.353  18.542   3.578
98725W        W70985  38.704  33.978   3.695
98726W        W70986  24.156  29.355  12.389
98727W        W70987  26.887  43.549   0.668
98728W        W70988  40.649  10.473   2.250
98729W        W70989  30.392  37.544  13.903
98730W        W70990   4.759  14.150   3.067
98731W        W70991  20.141  17.759   4.466
98732W        W70992  26.407  42.261   5.194
98733W        W70993  27.629  44.756   4.488
98734W        W70994  28.710  20.998   1.687
98735W        W70995   5.868  13.613  11.147
98736W        W70996  12.137   5.560  14.859
98737W        W70997  20.402  42.344  14.931
98738W        W70998  24.502  23.731  10.765
98739W        W70999  42.350  27.026   0.544
98740W        W71000   1.505  36.284   1.812
98741W        W71001   9.346   4.262  10.603
98742W        W71002   8.951  38.195   0.983
98743W        W71003   6.716  44.932   0.777
98744W        W71004  33.340   8.137   0.845
98745W        W71005  44.261  37.781  14.865
98746W        W71006  44.336  20.712   2.429
98747W        W71007  15.286  15.057   1.394
98748W        W71008  43.770  44.974   2.748
98749W        W71009  10.205  37.890   2.427
98750W        W71010  18.641  30.169   2.850
98751W        W71011  35.443  15.086  14.899
98752W        W71012  12.383  11.885   4.151
98753W        W71013  39.612  27.293  13.809
98754W        W71014  43.851  17.728  10.646
98755W        W71015  27.465   5.173  13.990
98756W        W71016  15.259  10.806   3.133
98757W        W71017  25.198  16.210   3.218
98758W        W71018  38.895  38.919  13.898
98759W        W71019  30.523   1.337   3.844
98760W        W71020  37.765  22.992  11.105
98761W        W71021  21.092  26.730   1.870
98762W        W71022  17.579   8.106  13.558
98763W        W71023  30.919  30.443  12.360
98764W        W71024  17.601   4.195  14.296
98765W        W71025  11.818  39.885  12.884
98766W        W71026  15.528   6.871   0.737
98767W        W71027  44.653  27.407  11.898
98768W        W71028  32.529   0.493   0.033
98769W        W71029  18.146   8.663   5.088
98770W        W71030   2.942  16.254  10.982
98771W        W71031  25.146  31.226  14.853
98772W        W71032  26.604  28.915  12.831
98773W        W71033  12.775  23.672  14.732
98774W        W71034  30.611  43.728  12.484
98775W        W71035  30.115   7.417   1.791
98776W        W71036  28.455  18.274   1.673
98777W        W71037  18.448   2.457   3.135
98778W        W71038  32.952  34.088   2.277
98779W        W71039  20.689  38.301   1.320
98780W        W71040  28.968  41.984   1.538
98781W        W71041  11.022  36.386  10.777
98782W        W71042  14.388  34.684   3.103
98783W        W71043  44.728  37.989   0.928
98784W        W71044   2.351  10.682   0.878
98785W        W71045  25.565   9.298  13.097
98786W        W71046  37.726  18.144  13.271
98787W        W71047   6.384  28.004   2.594
98788W        W71048   3.776  11.704   1.400
98789W        W71049   0.783  35.184   3.655
98790W        W71050  17.199  28.663  11.504
98791W        W71051  18.153  29.363   0.624
98792W        W71052  10.770  19.206   1.702
98793W        W71053  35.405   3.523   1.075
98794W        W71054  37.613  39.472   0.378
98795W        W71055  23.122   8.102  13.357
98796W        W71056  38.713  43.135   4.268
98797W        W71057  35.643  39.291   5.055
98798W        W71058  28.729  42.343   2.353
98799W        W71059  41.257  17.634   1.787
98800W        W71060   6.814  19.090  10.813
98801W        W71061   0.928  13.435  13.472
98802W        W71062  40.954  28.435   4.631
98803W        W71063  38.090   2.462  11.712
98804W        W71064   7.350  26.154   0.665
98805W        W71065  26.256  27.481   1.796
98806W        W71066  35.530  26.784   4.354
98807W        W71067  28.258  36.865  14.846
98808W        W71068  26.695  11.559  13.904
98809W        W71069  36.307  41.520   4.109
98810W        W71070   9.638  43.655  14.364
98811W        W71071  33.556  41.923   4.136
98812W        W71072   5.922  13.538   1.940
98813W        W71073  32.405  25.403   4.169
98814W        W71074  34.574  11.185  10.813
98815W        W71075   6.436  38.639   4.689
98816W        W71076  35.518  37.845   1.402
98817W        W71077   8.643  14.296   1.263
98818W        W71078  12.645  10.929  14.481
98819W        W71079  28.007  13.531  10.715
98820W        W71080  18.284   2.285   4.378
98821W        W71081  32.527  18.163   2.333
98822W        W71082  19.837   9.240  11.136
98823W        W71083  26.444  41.543   5.112
98824W        W71084  32.434  10.646   0.599
98825W        W71085  18.346   4.235   1.591
98826W        W71086   9.199  24.693   4.591
98827W        W71087   2.033  40.035   2.297
98828W        W71088  28.478   8.648  13.785
98829W        W71089  42.510  13.091   4.291
98830W        W71090  12.108  10.633   0.635
98831W        W71091  27.124   1.899  10.348
98832W        W71092  17.682   0.996  13.381
98833W        W71093   9.379   1.797  10.666
98834W        W71094  42.527  43.322   2.287
98835W        W71095  36.420  17.264  10.614
98836W        W71096  18.775  26.656  10.492
98837W        W71097   8.823  28.100  14.749
98838W        W71098  23.808   7.411   4.794
98839W        W71099  36.562  37.610   3.220
98840W        W71100  24.623  24.894   3.082
98841W        W71101  43.803  43.666   0.476
98842W        W71102  21.746  42.032   3.194
98843W        W71103  34.639  10.827   1.515
98844W        W71104  13.990  40.934   4.212
98845W        W71105  29.573   6.455  11.149
98846W        W71106  28.220  21.114  14.067
98847W        W71107  24.726  35.747  14.849
98848W        W71108  39.495   7.167   2.450
98849W        W71109  34.716  43.003  11.235
98850W        W71110  24.626   1.198   3.187
98851W        W71111  35.974   8.620  13.108
98852W        W71112  12.715  44.817  13.415
98853W        W71113  13.716  25.243  10.696
98854W        W71114  11.693  14.350   3.300
98855W        W71115  20.513  35.382   2.771
98856W        W71116   4.893  22.485  11.568
98857W        W71117   0.955  42.923   3.279
98858W        W71118   9.412   3.450  11.727
98859W        W71119  30.416  35.898  14.765
98860W        W71120  31.015   4.217  12.586
98861W        W71121  34.437  34.783  14.258
98862W        W71122  18.598  13.981   1.806
98863W        W71123   6.411   6.424  14.459
98864W        W71124  22.834  39.038   0.916
98865W        W71125  35.197  23.479   2.577
98866W        W71126  10.198  40.268   2.962
98867W        W71127  28.386  17.913  11.864
98868W        W71128  12.881  24.973   3.269
98869W        W71129  20.388  13.960  10.686
98870W        W71130   6.470  18.507  12.507
98871W        W71131  25.199  39.435   2.605
98872W        W71132  31.537  18.140  13.497
98873W        W71133  17.518  42.750   4.190
98874W        W71134   9.172  15.192  13.626
98875W        W71135   5.693  31.880   0.806
98876W        W71136   5.198  13.916   0.334
98877W        W71137  40.998  18.986  14.329
98878W        W71138  19.715  36.384  13.582
98879W        W71139  15.891  11.656   4.940
98880W        W71140  26.720  22.574  11.936
98881W        W71141  17.737   9.100   0.970
98882W        W71142  22.257  35.161  12.576
98883W        W71143  27.988  20.668  13.823
98884W        W71144  16.324  13.454  11.975
98885W        W71145  42.358   4.782  12.612
98886W        W71146  40.306   2.112  12.144
98887W        W71147  37.610  18.786  11.139
98888W        W71148  20.295   8.113  12.479
98889W        W71149  40.481   6.655   1.243
98890W        W71150   3.409  15.413   3.180
98891W        W71151  21.015  34.359  14.815
98892W        W71152  40.390   2.223  11.053
98893W        W71153  39.617  39.828  12.302
98894W        W71154  24.977   8.629   3.112
98895W        W71155  36.685  42.893  14.885
98896W        W71156  31.092  25.677  12.486
98897W        W71157  25.651  40.616   1.700
98898W        W71158   4.922  25.567   3.127
98899W        W71159  15.287  23.716  10.752
98900W        W71160   3.313  29.722  11.555
98901W        W71161  21.585  36.042   1.542
98902W        W71162  44.482  18.787   3.533
98903W        W71163  23.055  38.330  13.853
98904W        W71164  25.730  17.605   0.503
98905W        W71165  23.068  26.671  11.389
98906W        W71166  41.384  15.114  13.040
98907W        W71167  40.922  21.188  14.451
98908W        W71168   4.359  33.838   0.398
98909W        W71169  40.715  31.942   2.391
98910W        W71170  28.820  41.390  12.544
98911W        W71171  29.973  33.368   0.791
98912W        W71172  21.577  43.474   4.078
98913W        W71173  40.291  29.649   3.249
98914W        W71174  14.758  13.716  12.105
98915W        W71175  20.720  21.664   5.228
98916W        W71176  17.877  12.623   4.146
98917W        W71177  11.013  27.137  11.095
98918W        W71178  39.543  41.432   2.484
98919W        W71179  14.576  31.122  13.110
98920W        W71180  16.559  32.847   1.216
98921W        W71181  37.237  31.070   3.281
98922W        W71182   1.265   7.109  13.264
98923W        W71183  35.518  40.102  12.468
98924W        W71184  19.634  35.657   3.627
98925W        W71185  26.652  15.604  10.543
98926W        W71186  24.439  24.184   3.073
98927W        W71187  34.924  36.675  12.616
98928W        W71188  36.904  20.005  11.537
98929W        W71189   5.428  40.305   3.614
98930W        W71190   5.719   0.365  13.011
98931W        W71191  20.756   3.157   0.219
98932W        W71192  39.451   7.664  12.577
98933W        W71193   1.869   8.104  14.040
98934W        W71194  37.981  38.720   2.136
98935W        W71195  40.494  13.339  12.558
98936W        W71196  37.677  27.573   0.796
98937W        W71197  31.170  30.421   9.718
98938W        W71198  35.789  32.577   3.007
98939W        W71199  21.100  29.545   2.846
98940W        W71200  18.475  20.058  12.895
98941W        W71201  37.683  39.413  13.142
98942W        W71202  31.983  14.694  11.050
98943W        W71203  29.230   6.795   4.728
98944W        W71204  13.208  15.802   2.339
98945W        W71205  26.481  35.767  10.801
98946W        W71206   1.359  23.800  14.427
98947W        W71207   4.604  28.223  13.622
98948W        W71208  20.012   2.977   2.698
98949W        W71209  32.912  35.374  13.242
98950W        W71210   8.440  32.612   2.730
98951W        W71211  27.907  33.058   2.089
98952W        W71212  15.808  22.976   3.532
98953W        W71213  14.654  29.492   2.791
98954W        W71214  17.043  27.733   0.713
98955W        W71215  34.459  36.410   1.615
98956W        W71216   2.986  39.880   4.633
98957W        W71217  32.996   8.107  13.816
98958W        W71218  24.308  20.669   0.916
98959W        W71219  43.668  20.187  12.028
98960W        W71220  30.044   0.233   4.566
98961W        W71221  25.704  28.847  12.924
98962W        W71222   9.213  26.225  13.489
98963W        W71223  44.290  40.841   3.425
98964W        W71224  16.610  44.915   4.352
98965W        W71225  14.893  10.243   5.082
98966W        W71226  13.765   5.771  13.426
98967W        W71227  20.786  23.878  13.019
98968W        W71228  38.048   1.521   2.275
98969W        W71229  25.573  27.737   4.341
98970W        W71230  28.463  18.138  14.261
98971W        W71231  27.759  34.081  13.337
98972W        W71232  17.700  11.209  10.644
98973W        W71233   8.200   5.155   0.294
98974W        W71234  38.140   8.810   1.198
98975W        W71235  31.802  14.100  13.202
98976W        W71236  32.505  38.891  14.364
98977W        W71237  38.413  16.130  10.369
98978W        W71238  37.150   4.545   2.103
98979W        W71239   0.819  34.954  11.926
98980W        W71240  41.427  23.091  12.159
98981W        W71241  42.482   2.373  12.732
98982W        W71242  10.653   8.766  14.367
98983W        W71243  42.766  29.196  11.074
98984W        W71244   3.610  33.145   4.187
98985W        W71245  39.791  29.833  12.903
98986W        W71246  21.093   1.397  13.235
98987W        W71247  44.577  27.396  11.226
98988W        W71248  26.469  29.517  13.071
98989W        W71249  23.799  26.144  13.848
98990W        W71250   0.946  18.317   2.178
98991W        W71251  19.906  43.939  12.103
98992W        W71252   8.947  24.481  11.175
98993W        W71253   9.369  36.440   0.448
98994W        W71254  30.824  38.975  11.146
98995W        W71255  27.046  42.020  11.924
98996W        W71256   5.061   2.413  13.187
98997W        W71257  34.930  22.598   0.780
98998W        W71258  41.214   6.726  14.290
98999W        W71259  19.121  39.560   1.227
99000W        W71260  33.073   4.330  14.426
99001W        W71261  36.944  27.081  11.451
99002W        W71262   8.048  15.173  14.325
99003W        W71263  17.596  30.226  11.270
99004W        W71264  14.114  10.915  12.368
99005W        W71265  16.841  13.624   0.798
99006W        W71266  19.579  29.348  12.891
99007W        W71267   0.693  11.770  12.111
99008W        W71268   0.208  35.314   0.709
99009W        W71269  38.940  11.731   3.777
99010W        W71270  32.392  40.260   2.314
99011W        W71271  29.029  27.242   3.289
99012W        W71272  34.128  25.441  13.445
99013W        W71273   3.498  30.142   3.391
99014W        W71274  13.158  37.607  13.409
99015W        W71275   5.920  25.922   0.998
99016W        W71276  12.118   3.370  12.632
99017W        W71277  25.009  34.910   1.517
99018W        W71278  29.528  41.888   0.396
99019W        W71279  44.431  15.091   0.880
99020W        W71280  42.439  22.423   0.892
99021W        W71281  24.976  17.823  12.392
99022W        W71282  32.309  20.715   1.302
99023W        W71283   6.357  30.005  11.381
99024W        W71284   4.390  10.756   0.276
99025W        W71285  24.259  36.730   0.341
99026W        W71286  11.306   1.735   2.275
99027W        W71287  25.980   0.806   4.649
99028W        W71288  33.087  33.522  14.425
99029W        W71289   6.713  43.793   1.664
99030W        W71290  43.026  32.967  11.939
99031W        W71291  26.432  34.561  13.002
99032W        W71292  14.839  26.629  13.478
99033W        W71293  11.678  33.175  14.402
99034W        W71294  39.686  31.477  11.094
99035W        W71295  28.074  15.286  14.338
99036W        W71296  37.911   8.447  12.539
99037W        W71297  43.743   3.039   2.347
99038W        W71298  12.344  19.958   3.147
99039W        W71299  37.606   4.584  13.854
99040W        W71300  44.290  39.614  12.097
99041W        W71301   4.522  38.792  11.888
99042W        W71302  39.984  27.671  13.847
99043W        W71303  42.047   9.852   1.829
99044W        W71304  21.264  19.569   1.288
99045W        W71305  32.903  21.015  14.507
99046W        W71306  18.819  19.224  11.549
99047W        W71307  22.825  18.703   5.515
99048W        W71308   1.648   6.890  12.458
99049W        W71309  19.087  11.703  13.944
99050W        W71310   0.031  30.698  14.734
99051W        W71311  40.029   6.117  11.991
99052W        W71312   6.109  15.320   0.666
99053W        W71313  12.338  26.111  11.653
99054W        W71314   2.163   4.473  12.055
99055W        W71315   2.086   6.699   2.308
99056W        W71316  13.149   8.724  14.757
99057W        W71317  28.410   0.437   1.998
99058W        W71318  16.061  39.064  13.982
99059W        W71319  39.211  43.376   0.744
99060W        W71320  13.765   9.350   1.425
99061W        W71321  30.321  26.580  13.098
99062W        W71322   8.419  11.596   2.749
99063W        W71323   0.308  18.578  11.539
99064W        W71324   3.908  15.138   3.205
99065W        W71325  24.197  40.864   2.474
99066W        W71326  20.172  42.452  13.565
99067W        W71327  10.298  23.466  12.096
99068W        W71328  42.789   2.815   2.272
99069W        W71329  11.280  30.578  12.987
99070W        W71330  26.966  14.786   2.375
99071W        W71331   2.535  20.539  14.684
99072W        W71332   9.107  36.564   4.557
99073W        W71333  27.672  38.378   4.792
99074W        W71334  25.744  22.275   4.110
99075W        W71335  32.323  19.497   1.751
99076W        W71336  11.382  22.115  10.257
99077W        W71337  21.424  40.551   3.271
99078W        W71338  21.659  33.318  12.568
99079W        W71339  18.321  38.544  10.898
99080W        W71340  24.576  40.887  14.128
99081W        W71341  40.743  30.511   3.314
99082W        W71342  37.448  31.274   4.601
99083W        W71343  25.661   9.793  10.514
99084W        W71344  17.579  14.840   4.530
99085W        W71345  19.733  40.369  10.951
99086W        W71346  24.046   0.025  11.325
99087W        W71347  34.597  35.651   3.225
99088W        W71348  27.705  24.557   1.585
99089W        W71349   2.433  30.517  10.345
99090W        W71350  10.774  29.027   3.371
99091W        W71351  40.373  33.875   0.415
99092W        W71352   6.099   9.820  13.125
99093W        W71353   8.576  18.238  11.654
99094W        W71354   3.081  32.465   0.357
99095W        W71355   6.743  36.329   4.093
99096W        W71356  36.395  38.039  12.441
99097W        W71357   8.411  19.571  13.102
99098W        W71358   9.270  34.116  13.490
99099W        W71359   0.889  10.330   1.341
99100W        W71360  35.911   9.205   2.182
99101W        W71361  40.026  38.019  11.216
99102W        W71362  23.726  28.946   1.687
99103W        W71363  24.505  17.752  13.967
99104W        W71364  41.764  17.671   3.255
99105W        W71365  32.223  20.347   4.130
99106W        W71366  41.345  16.861  13.993
99107W        W71367  31.051  13.603   0.913
99108W        W71368   1.725  14.022  14.353
99109W        W71369  44.714  10.320  12.447
99110W        W71370  18.835  34.988   3.688
99111W        W71371  28.510  42.980  12.001
99112W        W71372   0.384  14.808   0.467
99113W        W71373  21.687  29.166   1.338
99114W        W71374  27.641  25.040   1.337
99115W        W71375  17.134   2.939  10.410
99116W        W71376  37.087   2.675   2.548
99117W        W71377   1.785  29.059  14.830
99118W        W71378  41.978   0.688  14.410
99119W        W71379  28.438  32.952  10.801
99120W        W71380  32.734  34.949   3.428
99121W        W71381   8.156  39.888  13.895
99122W        W71382   5.360   3.750   2.728
99123W        W71383  23.975  29.957  13.236
99124W        W71384   0.253  44.210   4.278
99125W        W71385  24.289  26.681  13.850
99126W        W71386  36.337  43.847  10.367
99127W        W71387  25.930  20.326   3.991
99128W        W71388  35.994  18.519   4.229
99129W        W71389  27.680  15.416  11.072
99130W        W71390  41.950  33.920   2.196
99131W        W71391  18.770  23.195   2.788
99132W        W71392  35.828  26.071  13.855
99133W        W71393  24.006  24.370  14.881
99134W        W71394   9.815  33.516  10.639
99135W        W71395   9.164  16.760  11.165
99136W        W71396  42.263  34.668   0.709
99137W        W71397  41.597   3.433   2.324
99138W        W71398  29.830   0.890   3.290
99139W        W71399  40.919   2.981   0.480
99140W        W71400  20.641   5.019   2.832
99141W        W71401   8.854  15.283  13.228
99142W        W71402  25.134  24.569   1.906
99143W        W71403  24.136  33.845  14.922
99144W        W71404  32.097  38.634  11.534
99145W        W71405  41.931  34.477  13.788
99146W        W71406   6.709  12.883   3.376
99147W        W71407   3.266  26.646   0.332
99148W        W71408  28.721   5.523   4.161
99149W        W71409  32.729  10.210   4.514
99150W        W71410  44.873  24.272  11.562
99151W        W71411  12.138  30.855  10.805
99152W        W71412  38.491  40.536   1.236
99153W        W71413  33.099   9.330   3.910
99154W        W71414  16.705   0.328   2.077
99155W        W71415   8.330  15.682   0.502
99156W        W71416  30.018  31.446  11.017
99157W        W71417  13.806   3.173   3.594
99158W        W71418  11.369  31.824  13.880
99159W        W71419  18.479  34.167   3.278
99160W        W71420  30.949  27.007  13.453
99161W        W71421  26.652  18.268  13.791
99162W        W71422   6.869  29.088  14.831
99163W        W71423  20.231   1.758   2.360
99164W        W71424  25.654  44.439   3.966
99165W        W71425  41.043   5.631   4.527
99166W        W71426  33.392  36.719   2.225
99167W        W71427  29.733  20.065  13.079
99168W        W71428   9.299   3.561   5.074
99169W        W71429  16.038  28.266  14.331
99170W        W71430  11.221   4.881  13.438
99171W        W71431  19.222  17.020   1.283
99172W        W71432  16.079  43.694   1.448
99173W        W71433  23.311  28.002  12.444
99174W        W71434  22.155  44.192   1.455
99175W        W71435  21.111  21.108   3.280
99176W        W71436  32.512  16.538   4.655
99177W        W71437   3.505  10.801  13.408
99178W        W71438  16.794  31.009   4.668
99179W        W71439  20.515  44.964  11.361
99180W        W71440  17.278  11.155  12.928
99181W        W71441  33.311  10.853  13.234
99182W        W71442  39.569  37.068   2.629
99183W        W71443   7.335  26.503  11.013
99184W        W71444  44.339   2.496  11.416
99185W        W71445  33.604   1.869  10.763
99186W        W71446  20.817   7.329  10.733
99187W        W71447   7.806  34.045   3.220
99188W        W71448   1.827  18.206  13.032
99189W        W71449   9.281  44.414  12.043
99190W        W71450  31.052  36.019  13.313
99191W        W71451   2.207  38.162   4.555
99192W        W71452  41.618  11.110  12.546
99193W        W71453  35.575  38.824  11.933
99194W        W71454  35.349  25.517  13.035
99195W        W71455  11.855   2.758   2.757
99196W        W71456  25.011  23.636   0.497
99197W        W71457  21.049   5.473   2.126
99198W        W71458  17.668  41.503   4.780
99199W        W71459  31.314   9.040   0.738
99200W        W71460   1.020   4.754   0.037
99201W        W71461  19.217  30.031  13.820
99202W        W71462   9.544  32.691   0.707
99203W        W71463  44.445  44.618  12.768
99204W        W71464  30.034  33.612  14.081
99205W        W71465   7.522  12.178   0.383
99206W        W71466  34.940  18.382  10.776
99207W        W71467   2.411  16.833   1.083
99208W        W71468  18.611  27.234  11.075
99209W        W71469   2.685  34.636   1.560
99210W        W71470   5.399  11.080  13.396
99211W        W71471   2.480  16.176   2.290
99212W        W71472  26.636  29.747   4.571
99213W        W71473  27.048  10.689  14.964
99214W        W71474  20.764  37.280   4.208
99215W        W71475  34.623  37.383  13.386
99216W        W71476  41.256  29.012  10.682
99217W        W71477  22.623   9.708  12.413
99218W        W71478   5.286  32.426   3.731
99219W        W71479  21.678  34.886  11.165
99220W        W71480  14.354   1.715  10.501
99221W        W71481  30.632   0.789  11.407
99222W        W71482   7.050   3.358  13.260
99223W        W71483  23.043   1.510   3.243
99224W        W71484   0.205  33.245   1.690
99225W        W71485  10.336  29.654   1.862
99226W        W71486  19.078   6.968  14.533
99227W        W71487  17.345  25.918  14.041
99228W        W71488   8.418   5.968   0.927
99229W        W71489  14.177  30.438  11.614
99230W        W71490  30.896  20.601   4.209
99231W        W71491   4.038   2.953  14.090
99232W        W71492   7.297   7.869   4.046
99233W        W71493  22.266  12.144  12.920
99234W        W71494  38.911  34.342   4.598
99235W        W71495  18.074  44.441   4.226
99236W        W71496  43.875  19.671  10.739
99237W        W71497  32.845  22.636  14.288
99238W        W71498   1.594   6.741   4.546
99239W        W71499  40.443  31.126  13.763
99240W        W71500  20.547   6.234  12.037
99241W        W71501  39.426  33.917   0.828
99242W        W71502  25.707  40.069   3.853
99243W        W71503  44.894  12.210   3.092
99244W        W71504  37.056  36.232   1.206
99245W        W71505   1.436   8.228  13.427
99246W        W71506  41.622   6.822  11.656
99247W        W71507  26.033  40.234  10.255
99248W        W71508  11.915   6.731  13.538
99249W        W71509  31.590  29.136   4.487
99250W        W71510  36.072  24.116  13.892
99251W        W71511  40.341  12.646   1.862
99252W        W71512  22.644  36.992  10.925
99253W        W71513   8.780  22.692  12.849
99254W        W71514  39.325   1.762   3.699
99255W        W71515  33.080  39.416  13.901
99256W        W71516   4.719  14.777   1.355
99257W        W71517  25.694  30.397  12.028
99258W        W71518  21.591  42.937   4.062
99259W        W71519  31.528  42.633  12.185
99260W        W71520  26.537  12.605  11.096
99261W        W71521  36.008   8.759   2.427
99262W        W71522  38.104  43.998  11.229
99263W        W71523   3.840  33.110   1.728
99264W        W71524  35.241  44.750   4.242
99265W        W71525  40.663  37.529  11.055
99266W        W71526  37.010  32.932  12.563
99267W        W71527  20.582  14.867  12.605
99268W        W71528  32.691  42.502   4.219
99269W        W71529  17.664   4.747   2.840
99270W        W71530  33.386   7.548  11.622
99271W        W71531  10.351  39.365  11.987
99272W        W71532  24.605  21.373   0.722
99273W        W71533   4.823  29.622   4.497
99274W        W71534   6.263  37.889  14.940
99275W        W71535  43.944  41.831   4.612
99276W        W71536   6.645  24.003  10.771
99277W        W71537  12.066  17.613  13.824
99278W        W71538  25.068   4.888   4.564
99279W        W71539  31.543  25.997  14.922
99280W        W71540  41.324  12.795  12.050
99281W        W71541  17.761   6.367  10.268
99282W        W71542  14.627   6.779   3.144
99283W        W71543  30.958  13.218   4.775
99284W        W71544  36.516  34.569  14.282
99285W        W71545  16.133   7.708  11.540
99286W        W71546  21.512  42.475   3.212
99287W        W71547   4.012   1.256  12.083
99288W        W71548  31.463  19.451   0.199
99289W        W71549  43.395  21.675   1.487
99290W        W71550  21.221  21.508   1.340
99291W        W71551   9.542   3.878   4.744
99292W        W71552  37.794   8.281  11.186
99293W        W71553  23.128  28.213  11.996
99294W        W71554  31.983   8.237   0.639
99295W        W71555  44.946  28.722   2.142
99296W        W71556  36.328  38.311   3.690
99297W        W71557  39.289  35.981  12.063
99298W        W71558   4.248  18.670  11.267
99299W        W71559   9.905   5.400   0.807
99300W        W71560  43.350   8.008   2.380
99301W        W71561  21.684   8.311   1.215
99302W        W71562  25.968  39.757   0.427
99303W        W71563   2.668  10.663   1.703
99304W        W71564   4.768   5.637  13.016
99305W        W71565  19.219   3.726  14.805
99306W        W71566  16.314  35.499  11.113
99307W        W71567  20.758  34.822  14.915
99308W        W71568  16.079  29.825  10.701
99309W        W71569  23.544  43.632   3.288
99310W        W71570   1.815   4.190   2.362
99311W        W71571  17.615  15.297   0.496
99312W        W71572  25.929  29.526   1.913
99313W        W71573  38.000   0.204   4.106
99314W        W71574  38.866  43.589  10.681
99315W        W71575   7.340   9.883  13.664
99316W        W71576  37.546  16.607  12.616
99317W        W71577  16.363   8.117   2.766
99318W        W71578  39.018  24.415  13.003
99319W        W71579  26.819   1.970  11.480
99320W        W71580   8.381  18.003   0.001
99321W        W71581  28.456   1.344   2.881
99322W        W71582  39.611  38.818  11.598
99323W        W71583  28.046  22.429  11.509
99324W        W71584  12.100  41.341  14.935
99325W        W71585  22.655   9.449  14.471
99326W        W71586   3.313   1.283  14.367
99327W        W71587  19.581  32.955  13.161
99328W        W71588   6.972   6.934   3.072
99329W        W71589  25.857   8.421  12.472
99330W        W71590  42.889  37.580   1.868
99331W        W71591  13.866  43.385  13.344
99332W        W71592  10.791  13.411   4.088
99333W        W71593  44.805  29.633  11.419
99334W        W71594  18.018  11.084   3.605
99335W        W71595  40.018   8.287  11.965
99336W        W71596   1.287  22.035   1.397
99337W        W71597  17.108  34.931   1.864
99338W        W71598   7.635   1.478   1.869
99339W        W71599  22.702  32.448  12.597
99340W        W71600  26.127  33.240  11.137
99341W        W71601  38.411   8.327  12.655
99342W        W71602  21.174  23.501   3.255
99343W        W71603  17.109  30.358  12.930
99344W        W71604  31.295  31.674  14.422
99345W        W71605  23.723  40.855   0.870
99346W        W71606  33.856  23.545   3.672
99347W        W71607  30.962  32.547   2.543
99348W        W71608  44.379  28.548  11.081
99349W        W71609  40.081  18.384   2.888
99350W        W71610  41.906  14.636   4.254
99351W        W71611  27.469  38.302  14.818
99352W        W71612  36.807  19.705   3.718
99353W        W71613  14.901  27.390   0.514
99354W        W71614  43.037  11.796   1.491
99355W        W71615   0.381  20.202   3.178
99356W        W71616   1.781  12.787  13.897
99357W        W71617  15.249  30.759  14.518
99358W        W71618  36.637   4.445  13.127
99359W        W71619  26.186  26.042   1.760
99360W        W71620  16.044  41.564   3.313
99361W        W71621  10.852   4.435  12.941
99362W        W71622  37.676   0.461   2.758
99363W        W71623  44.588  34.447  12.990
99364W        W71624  35.168  15.962   4.298
99365W        W71625  17.483  28.051  13.349
99366W        W71626   1.369  10.260  13.918
99367W        W71627  22.275  34.381   3.522
99368W        W71628  37.056  20.163  10.659
99369W        W71629  35.890  24.095  12.974
99370W        W71630  32.635  30.371   0.018
99371W        W71631  19.157  22.321   4.115
99372W        W71632  34.154   7.322   3.970
99373W        W71633  30.879  11.873   0.356
99374W        W71634   3.385  27.138  12.142
99375W        W71635   4.967   3.543  11.579
99376W        W71636  34.554  42.960   3.530
99377W        W71637  35.855  38.179  11.078
99378W        W71638  40.746   2.248  14.607
99379W        W71639   3.494  35.395   3.727
99380W        W71640  29.483   1.764  10.489
99381W        W71641  18.722  40.675   0.894
99382W        W71642  42.981   0.992  12.383
99383W        W71643  16.228  36.096   2.727
99384W        W71644  22.744  30.178   3.877
99385W        W71645  13.794   5.246  12.050
99386W        W71646  44.831  35.439  13.363
99387W        W71647  20.504  42.191   0.727
99388W        W71648  25.654  36.765  13.945
99389W        W71649  39.776  34.352  12.400
99390W        W71650  33.496  23.986   0.010
99391W        W71651  19.482  31.549   4.614
99392W        W71652  33.455  32.425  10.502
99393W        W71653  21.585   5.477  14.970
99394W        W71654  32.136  11.713   4.250
99395W        W71655   0.336   4.459  12.071
99396W        W71656  17.663  23.426   2.661
99397W        W71657  19.833  23.727   0.857
99398W        W71658  36.483  38.733   1.894
99399W        W71659  22.094  23.341  11.793
99400W        W71660  34.236  20.809   1.498
99401W        W71661   8.844   7.319  12.667
99402W        W71662  34.387  24.606  11.342
99403W        W71663   7.287  43.497  14.956
99404W        W71664  27.962  20.571  11.478
99405W        W71665   4.361  20.465  11.988
99406W        W71666  17.195   9.313   1.704
99407W        W71667  37.080  16.683   3.643
99408W        W71668  10.264  39.952  14.998
99409W        W71669  14.288  28.596  11.307
99410W        W71670   1.082  40.538   3.497
99411W        W71671  38.267  31.858  14.415
99412W        W71672  40.474  29.204   2.091
99413W        W71673   4.410  16.324  11.131
99414W        W71674   4.864  34.893  13.796
99415W        W71675  26.973  34.083   0.929
99416W        W71676   7.827   6.790   4.197
99417W        W71677  37.147  34.563  12.406
99418W        W71678  13.609  26.704   4.603
99419W        W71679  35.063  37.037  14.515
99420W        W71680  20.939  32.225   1.734
99421W        W71681  22.741  30.847  11.604
99422W        W71682  36.657  38.823  13.565
99423W        W71683  41.446  24.497   3.642
99424W        W71684   8.215  29.986   3.283
99425W        W71685   5.993   2.918   2.544
99426W        W71686  29.561  40.433   0.934
99427W        W71687   0.032  41.227   2.721
99428W        W71688  14.919  23.604   3.336
99429W        W71689  31.112   1.982  11.699
99430W        W71690  34.060  18.248   1.928
99431W        W71691  30.201   7.630   4.159
99432W        W71692  20.284  42.089  12.880
99433W        W71693  10.358   6.130  11.105
99434W        W71694  26.039  24.165  11.153
99435W        W71695  21.773  31.337  10.784
99436W        W71696  20.245  32.571  11.213
99437W        W71697   0.346   1.894   3.868
99438W        W71698  29.401  35.846   0.689
99439W        W71699  31.689  27.123   3.716
99440W        W71700  20.067  42.224  12.430
99441W        W71701  32.692  18.574  11.095
99442W        W71702  39.534  24.271   4.701
99443W        W71703   3.888   9.178  13.155
99444W        W71704  43.272   4.156   1.783
99445W        W71705  27.839  40.819  14.460
99446W        W71706  35.513  28.480   1.977
99447W        W71707   8.654   0.441   1.787
99448W        W71708  37.619   6.424   2.852
99449W        W71709   0.292  13.075  14.475
99450W        W71710   3.202  36.937  11.019
99451W        W71711  33.873  43.227  14.466
99452W        W71712   4.862  39.315   2.496
99453W        W71713  33.396  27.607   4.035
99454W        W71714  18.325  37.632   2.787
99455W        W71715  30.057  30.418   4.698
99456W        W71716   6.276   8.507   3.000
99457W        W71717   4.901  24.977   4.836
99458W        W71718  24.829  13.204   3.380
99459W        W71719  36.368  44.504   1.827
99460W        W71720  32.543  39.323   3.385
99461W        W71721  16.724  27.491  14.983
99462W        W71722  11.325   2.871  13.513
99463W        W71723  17.787  30.986   0.239
99464W        W71724  42.537  32.412  12.604
99465W        W71725  37.515  23.305   1.584
99466W        W71726  10.245  32.143  11.526
99467W        W71727  27.781  18.133  10.443
99468W        W71728  24.450  34.988  13.432
99469W        W71729   0.222  40.412   2.402
99470W        W71730   6.910   3.730  12.412
99471W        W71731  24.108  43.660   0.911
99472W        W71732  36.358   9.779  14.544
99473W        W71733   6.849  35.613   2.663
99474W        W71734  42.130  35.484  11.917
99475W        W71735  15.022  13.230   0.422
99476W        W71736  12.308  35.604  11.158
99477W        W71737  23.105  44.130  12.567
99478W        W71738  34.649  13.580  12.388
99479W        W71739  24.177  14.228   0.297
99480W        W71740  15.659   0.709   1.874
99481W        W71741  27.688  12.607   3.196
99482W        W71742  37.909  22.107  12.548
99483W        W71743  35.449   0.876   2.765
99484W        W71744  15.674  35.277   4.329
99485W        W71745  42.992  20.119   1.527
99486W        W71746  42.268  13.432  11.194
99487W        W71747  31.544  39.394  12.035
99488W        W71748   6.849  13.328  10.756
99489W        W71749  29.171  15.053  12.776
99490W        W71750  41.282   6.923  12.034
99491W        W71751  43.742  25.543   0.633
99492W        W71752  30.211  17.047  11.530
99493W        W71753   2.180  40.379   1.633
99494W        W71754  25.977  13.424   0.261
99495W        W71755  25.620  24.787   1.895
99496W        W71756  39.228  25.974   1.706
99497W        W71757  11.038  17.765   1.207
99498W        W71758  22.656  33.705   4.880
99499W        W71759  27.464  17.258  11.871
99500W        W71760   9.246  19.911  11.123
99501W        W71761  27.593  40.053  13.656
99502W        W71762  37.913  36.598  11.732
99503W        W71763   5.679  12.051   3.185
99504W        W71764   0.971  19.631   5.059
99505W        W71765  15.325  24.695  14.833
99506W        W71766   4.461  38.129   2.780
99507W        W71767  18.313  33.405  10.739
99508W        W71768  19.625   0.272   2.818
99509W        W71769  11.910  10.240   0.917
99510W        W71770  40.728  27.050  11.523
99511W        W71771   4.514   0.475  13.551
99512W        W71772  20.727   0.459  12.510
99513W        W71773  29.649  40.407   2.863
99514W        W71774   5.085  13.326   2.941
99515W        W71775  26.653  38.368   1.704
99516W        W71776  37.788   7.373   3.186
99517W        W71777  44.659  20.837  11.085
99518W        W71778  34.656  39.087   2.325
99519W        W71779  41.236  24.690  14.465
99520W        W71780   6.794  31.660   4.857
99521W        W71781   8.688  39.409  13.538
99522W        W71782   3.027  30.076  10.767
99523W        W71783  28.533  44.599   3.114
99524W        W71784  11.640  28.706  10.623
99525W        W71785  15.509  14.346  14.352
99526W        W71786   1.306  40.546   0.395
99527W        W71787  10.264  19.125  11.831
99528W        W71788  26.389   0.061   4.281
99529W        W71789  41.866   7.500  13.437
99530W        W71790  44.529  25.394   1.310
99531W        W71791  40.246  39.098   0.018
99532W        W71792  43.850   4.694   2.257
99533W        W71793  23.500  33.785  13.325
99534W        W71794  32.252  21.728  14.222
99535W        W71795  14.082  39.146   3.638
99536W        W71796  11.199  34.055  11.517
99537W        W71797  32.495  37.571  12.061
99538W        W71798  27.042  35.727  13.288
99539W        W71799  29.249  38.899  11.433
99540W        W71800  38.340  24.969   4.163
99541W        W71801  27.912  44.843   1.022
99542W        W71802   3.767  24.602   1.269
99543W        W71803  23.721  43.491   2.239
99544W        W71804  24.081  25.087  14.307
99545W        W71805  26.372  20.558  14.943
99546W        W71806  38.944  29.295  10.727
99547W        W71807   2.804  21.450   1.363
99548W        W71808  33.798  42.130  11.180
99549W        W71809  29.448  41.282  11.568
99550W        W71810  42.436  35.711   3.943
99551W        W71811  25.105   3.268   2.940
99552W        W71812  37.827  34.810  11.764
99553W        W71813   6.806  17.708  14.491
99554W        W71814   2.043  13.619   1.334
99555W        W71815  21.040  23.946  13.496
99556W        W71816  41.849   0.835   0.892
99557W        W71817  32.981  30.045  12.244
99558W        W71818  37.079  19.550  12.825
99559W        W71819  35.385  22.721  11.114
99560W        W71820  39.136  17.279  13.412
99561W        W71821  42.671   2.928   0.329
99562W        W71822   1.995  33.461   2.789
99563W        W71823  41.267  12.877   4.155
99564W        W71824  11.231  25.714   3.425
99565W        W71825  38.884   6.827   5.130
99566W        W71826   2.342  21.062  11.943
99567W        W71827  31.771   3.669   4.950
99568W        W71828  20.420  33.676   0.330
99569W        W71829  18.367   5.138   9.627
99570W        W71830  19.834  18.098   4.194
99571W        W71831   2.358  34.465   2.820
99572W        W71832  24.231   7.505   5.132
99573W        W71833  40.246   2.219  14.484
99574W        W71834   0.943  27.152   0.493
99575W        W71835  36.886  38.005  13.326
99576W        W71836  24.468  35.520   0.306
99577W        W71837  35.894   8.745  11.941
99578W        W71838   8.370  33.447   1.582
99579W        W71839  34.182  36.866   3.882
99580W        W71840  42.085  12.624  10.719
99581W        W71841  30.558  38.121  12.942
99582W        W71842  28.734  20.711  11.940
99583W        W71843  27.220  21.804   0.779
99584W        W71844  43.490  35.665   0.807
99585W        W71845  10.463  40.254   0.407
99586W        W71846  12.218  11.324  10.712
99587W        W71847  18.095  42.790  13.387
99588W        W71848  35.769  14.023   0.937
99589W        W71849  39.091  17.780  13.575
99590W        W71850  39.880  16.276  11.384
99591W        W71851  29.703  31.887   2.446
99592W        W71852  20.074  30.687   0.330
99593W        W71853  16.613  27.478   3.120
99594W        W71854  14.193  16.288   3.071
99595W        W71855  12.091  39.886   3.586
99596W        W71856  13.827  26.150   3.703
99597W        W71857  10.294  24.236   1.221
99598W        W71858  31.097  39.428  11.046
99599W        W71859   9.644  12.340  10.775
99600W        W71860  40.555  36.430   3.215
99601W        W71861   1.420  28.868  13.131
99602W        W71862   1.967  12.107  14.514
99603W        W71863  26.974  29.591   0.341
99604W        W71864  26.236   1.225  14.514
99605W        W71865  31.550  12.309   1.363
99606W        W71866  40.577   3.326   1.001
99607W        W71867  11.824  38.993   0.121
99608W        W71868  30.872   4.345  10.694
99609W        W71869  17.966  18.659   4.197
99610W        W71870  36.952   9.188  12.956
99611W        W71871  11.078  25.517   1.362
99612W        W71872   2.233  18.169   0.763
99613W        W71873  32.522   1.442   1.543
99614W        W71874  44.466   1.879   1.019
99615W        W71875  33.120  26.653   0.843
99616W        W71876  18.500   1.390   0.357
99617W        W71877  41.489   5.744   4.182
99618W        W71878  11.807  30.104  14.791
99619W        W71879   1.255   0.997   3.625
99620W        W71880  16.281  42.373  13.489
99621W        W71881   4.842   1.858   4.498
99622W        W71882  37.514   4.262  12.327
99623W        W71883  16.926  36.781  12.019
99624W        W71884  28.229   7.386  11.052
99625W        W71885  15.551  16.169   3.720
99626W        W71886  22.283   4.749   3.139
99627W        W71887  17.649  28.911  12.457
99628W        W71888  10.732   6.614   0.853
99629W        W71889   2.169   9.813   4.768
99630W        W71890  20.054  38.542  14.355
99631W        W71891  10.532  24.963   0.833
99632W        W71892  39.112  18.778  12.870
99633W        W71893  13.830   8.746   4.681
99634W        W71894  24.005  25.712  11.150
99635W        W71895  16.366  33.978   0.603
99636W        W71896  34.074  16.050  12.629
99637W        W71897  42.199   7.409   1.704
99638W        W71898   4.408  18.161  14.438
99639W        W71899  31.949  13.737  10.661
99640W        W71900  23.015  24.199  10.682
99641W        W71901  29.145  17.993   4.040
99642W        W71902   6.882   0.767   2.890
99643W        W71903  17.212  43.947   2.420
99644W        W71904   0.964  26.099   3.258
99645W        W71905  13.362  32.497  13.667
99646W        W71906   1.758  20.086   2.223
99647W        W71907  34.996  31.924   3.210
99648W        W71908  24.548  24.136  14.812
99649W        W71909  32.400  25.135  13.374
99650W        W71910  28.569   7.301  14.278
99651W        W71911  34.617  17.908   5.182
99652W        W71912  30.687   7.232  13.902
99653W        W71913  39.808   7.205  13.416
99654W        W71914  19.041  22.173  11.186
99655W        W71915  22.643   8.540  10.566
99656W        W71916  11.248  14.093   3.268
99657W        W71917  11.791   1.932   0.970
99658W        W71918  40.764  20.499  14.757
99659W        W71919  33.420  14.904   1.343
99660W        W71920  18.607  42.313   1.952
99661W        W71921   1.687  36.989   3.233
99662W        W71922  37.191  35.124  14.417
99663W        W71923  41.750   6.192  14.335
99664W        W71924   1.989  33.017  11.977
99665W        W71925   2.335  34.251  13.462
99666W        W71926  11.059  10.316   4.133
99667W        W71927   3.212  29.044   3.364
99668W        W71928   6.110  31.862  13.845
99669W        W71929   2.019  27.167   1.412
99670W        W71930  16.272  28.075  12.793
99671W        W71931  30.047  12.290  12.523
99672W        W71932  10.118   9.119  10.604
99673W        W71933  25.579  18.235   4.896
99674W        W71934  21.196  42.042   3.143
99675W        W71935  27.148  11.820  11.230
99676W        W71936  42.273  17.718   1.849
99677W        W71937   4.272   7.328  13.844
99678W        W71938  24.452  24.522  11.594
99679W        W71939  42.029  26.611  13.967
99680W        W71940  29.428  43.110   4.692
99681W        W71941   2.528  37.489   1.216
99682W        W71942  35.020  32.426   4.022
99683W        W71943   5.927  27.528   3.139
99684W        W71944  12.369  37.285  12.359
99685W        W71945  13.092   7.686  12.499
99686W        W71946  37.644  36.169   4.229
99687W        W71947  12.613   8.386   0.237
99688W        W71948  23.869  34.159  12.520
99689W        W71949  24.415  39.016   4.546
99690W        W71950   8.757  30.445  13.693
99691W        W71951  21.214  25.957   4.533
99692W        W71952  29.974  27.557   0.941
99693W        W71953  28.774  28.832   0.449
99694W        W71954  10.036   5.440  11.552
99695W        W71955  14.094  29.086  11.443
99696W        W71956  13.862  19.548   0.018
99697W        W71957  37.095   7.670  11.828
99698W        W71958  31.032   4.390   4.139
99699W        W71959  25.786  44.826   3.108
99700W        W71960  26.594  28.509   1.763
99701W        W71961   6.393  23.194   2.142
99702W        W71962  22.256  33.584  14.468
99703W        W71963  29.584   7.654   4.860
99704W        W71964  23.684  29.493   0.533
99705W        W71965  31.645  34.945  10.867
99706W        W71966  31.950  26.155   5.145
99707W        W71967   3.691  34.789  13.096
99708W        W71968  11.798  20.450   0.659
99709W        W71969   3.829  35.907   1.676
99710W        W71970  17.920  38.296  12.550
99711W        W71971  41.229  27.367  12.167
99712W        W71972  37.671  21.113   3.687
99713W        W71973  43.723  40.633  13.837
99714W        W71974  33.568  28.381   0.867
99715W        W71975  14.818  37.806  10.636
99716W        W71976  22.272   8.676  14.269
99717W        W71977   2.635  33.072   4.281
99718W        W71978  22.296  24.267   3.223
99719W        W71979   1.291  35.924  10.726
99720W        W71980  31.992  23.261  11.985
99721W        W71981  40.860  44.549  12.490
99722W        W71982  20.674  24.317   3.330
99723W        W71983  19.509  29.148  14.952
99724W        W71984  11.997  25.391   4.389
99725W        W71985   4.773   2.324  10.638
99726W        W71986  44.944   8.670  14.898
99727W        W71987   2.296  34.355   1.760
99728W        W71988   0.904   2.720  14.739
99729W        W71989   1.913  31.365   3.694
99730W        W71990  38.318  36.654   0.368
99731W        W71991  37.981  30.537  12.177
99732W        W71992  19.194  39.107  13.825
99733W        W71993   7.659  35.580  14.355
99734W        W71994  21.284   3.371   0.883
99735W        W71995  42.053  31.333   0.305
99736W        W71996  10.930  37.779  13.431
99737W        W71997  19.086  27.917   4.214
99738W        W71998  17.340  40.142   4.206
99739W        W71999   7.703  24.986   4.289
99740W        W72000  13.612   9.187  14.870
99741W        W72001  24.601  13.549  10.602
99742W        W72002   6.522  42.390   0.200
99743W        W72003   6.753  15.630   1.195
99744W        W72004  36.039  13.201  13.784
99745W        W72005   4.354  22.288  14.393
99746W        W72006  35.609  38.553  11.482
99747W        W72007  16.681  27.608  12.975
99748W        W72008  16.710  17.284  10.620
99749W        W72009  14.654   0.153  13.512
99750W        W72010  17.327  12.943  14.302
99751W        W72011  28.600  44.957   2.742
99752W        W72012  23.032  36.703  13.414
99753W        W72013   0.086  26.776  14.609
99754W        W72014  26.685  36.858   3.209
99755W        W72015  20.682  24.554   0.369
99756W        W72016   5.742   0.855   0.817
99757W        W72017  38.259  33.366  12.993
99758W        W72018  44.693   7.902   1.298
99759W        W72019  28.123   0.863  14.583
99760W        W72020  11.761  17.564  12.337
99761W        W72021  19.312  34.934   1.430
99762W        W72022  10.886  41.276   3.956
99763W        W72023  28.396   5.317  11.837
99764W        W72024   0.881   6.346  13.369
99765W        W72025   7.392  25.890   9.891
99766W        W72026  15.767   2.582   4.667
99767W        W72027  21.775   8.893  13.313
99768W        W72028  19.284   5.167   4.349
99769W        W72029  24.089   0.330   1.218
99770W        W72030   2.738   0.362   1.153
99771W        W72031   3.726  16.176  14.477
99772W        W72032  19.245  44.557  10.707
99773W        W72033  18.521   2.610  13.414
99774W        W72034  27.752  25.518   0.050
99775W        W72035   8.693  23.699   1.042
99776W        W72036   1.377  11.173   2.636
99777W        W72037   9.350  43.980   1.515
99778W        W72038   3.463  13.894  14.470
99779W        W72039   9.800  19.213  12.072
99780W        W72040  22.708  11.726   4.142
99781W        W72041  16.297   9.099   0.848
99782W        W72042   9.626  32.129  13.247
99783W        W72043  15.335   7.350   0.835
99784W        W72044  15.709  21.989   1.772
99785W        W72045  35.233  32.562  12.741
99786W        W72046  16.590  14.520  11.573
99787W        W72047  24.560  22.718  14.747
99788W        W72048  33.585   5.457   5.043
99789W        W72049  35.030   6.667  13.442
99790W        W72050  40.350   3.390  11.195
99791W        W72051   3.176   9.310   4.016
99792W        W72052  44.341   8.374  10.833
99793W        W72053  40.213  20.233  12.839
99794W        W72054   9.576  34.947  13.464
99795W        W72055   3.242  28.641  10.624
99796W        W72056  25.914   0.987  12.103
99797W        W72057  40.826  14.266   2.157
99798W        W72058  13.677  16.735   0.045
99799W        W72059  20.812  17.602  11.214
99800W        W72060   9.146  18.273   3.807
99801W        W72061  10.863  25.053  14.505
99802W        W72062  34.546  27.853   2.276
99803W        W72063  43.818  28.516   4.925
99804W        W72064  44.561  35.665  11.492
99805W        W72065  19.036   1.930   4.212
99806W        W72066  36.934  10.725  13.038
99807W        W72067  24.030  35.568  13.389
99808W        W72068   4.258  27.471   2.279
99809W        W72069  31.702   1.573  11.103
99810W        W72070  13.500  26.502  11.897
99811W        W72071  14.874  43.017   4.530
99812W        W72072  15.063  34.777  13.354
99813W        W72073  33.587  44.624   4.685
99814W        W72074  25.022  35.632  12.421
99815W        W72075   7.813  43.133  13.845
99816W        W72076  32.976  36.890  10.945
99817W        W72077  41.514  40.821  11.661
99818W        W72078  25.751  11.154  13.545
99819W        W72079  12.590   3.007   3.307
99820W        W72080  17.762  32.963   4.423
99821W        W72081  19.080   8.127   2.118
99822W        W72082  33.567  18.302  12.078
99823W        W72083  20.772  37.504   0.892
99824W        W72084  12.418  24.190  11.474
99825W        W72085  41.042  28.450  12.870
99826W        W72086   0.938  31.699   0.309
99827W        W72087  35.601  16.985  11.640
99828W        W72088  13.632  23.637   0.298
99829W        W72089   1.052   7.865  12.966
99830W        W72090   7.450   5.503  11.003
99831W        W72091  34.907  44.788   4.649
99832W        W72092  23.579  43.859  12.528
99833W        W72093  17.566  10.795  11.970
99834W        W72094  40.450  37.788   1.295
99835W        W72095  38.979   2.760  14.934
99836W        W72096  17.630  18.905  13.124
99837W        W72097   2.557  22.499   0.513
99838W        W72098   3.415   4.849  11.391
99839W        W72099  27.698  15.339   2.172
99840W        W72100  32.981  21.126   2.032
99841W        W72101  43.078   9.364   0.050
99842W        W72102   2.994  34.575  12.658
99843W        W72103   4.788  28.117   3.737
99844W        W72104  10.780   2.378  12.517
99845W        W72105  34.975   7.902  10.851
99846W        W72106   0.336  29.742  13.269
99847W        W72107  14.816  39.694   4.963
99848W        W72108  26.522  23.614  10.703
99849W        W72109  11.738  33.505   0.771
99850W        W72110  35.671  15.222   1.355
99851W        W72111  39.855  17.697  11.684
99852W        W72112  26.670  21.746   3.459
99853W        W72113   9.512  43.470   0.880
99854W        W72114  28.078   7.196  10.560
99855W        W72115  20.425  21.728   3.370
99856W        W72116  19.141  23.754  14.500
99857W        W72117  19.530  17.352  13.981
99858W        W72118  44.428  31.861  11.107
99859W        W72119  38.923  19.660  11.840
99860W        W72120  34.221  43.315   3.048
99861W        W72121  27.269  34.545   0.087
99862W        W72122  34.375   2.880  11.083
99863W        W72123  33.260  12.940  10.933
99864W        W72124  39.093   6.454   3.552
99865W        W72125   3.862  36.135  12.441
99866W        W72126  31.702   0.988   3.801
99867W        W72127  36.577  18.844  13.431
99868W        W72128  20.419  43.725  13.723
99869W        W72129  37.182  16.587  10.573
99870W        W72130  12.812  33.986  14.414
99871W        W72131  24.230  12.126   2.212
99872W        W72132  33.901  15.398   4.142
99873W        W72133  20.080  26.405  12.553
99874W        W72134  24.215  16.363   2.704
99875W        W72135  26.915  11.864   1.224
99876W        W72136  15.067  27.046  12.407
99877W        W72137  33.273  20.764   2.259
99878W        W72138  41.818  18.796   1.545
99879W        W72139  12.171  10.096  13.460
99880W        W72140  37.307  31.389  13.479
99881W        W72141  38.403  18.129   0.599
99882W        W72142   6.714  32.209  12.029
99883W        W72143  31.342  13.181  13.484
99884W        W72144  42.333  24.030   3.793
99885W        W72145  16.613  22.271   1.310
99886W        W72146  12.471  42.002   2.016
99887W        W72147   4.090  27.993   3.192
99888W        W72148   3.473   7.257   2.275
99889W        W72149  21.563  30.443  12.478
99890W        W72150  12.813  30.452   3.085
99891W        W72151  11.750  30.351  10.135
99892W        W72152  20.075   8.175  13.418
99893W        W72153   8.690  12.440   0.813
99894W        W72154  33.328  43.930  11.113
99895W        W72155  33.452  11.889   2.299
99896W        W72156  28.678  14.552  10.924
99897W        W72157  11.815  44.221  10.753
99898W        W72158   2.493  16.613  12.417
99899W        W72159  27.503  14.171  11.653
99900W        W72160   7.857  11.440  10.225
99901W        W72161   8.386  35.049   0.793
99902W        W72162  16.279  32.387   1.925
99903W        W72163  26.473  16.835   4.532
99904W        W72164   2.354   6.290   0.919
99905W        W72165   0.754  17.172  12.172
99906W        W72166   7.321  11.675  14.497
99907W        W72167  32.510  22.031  14.581
99908W        W72168  29.960  23.356   1.450
99909W        W72169  19.340  21.835   4.088
99910W        W72170  33.382  14.097  11.471
99911W        W72171  24.643  40.450   1.174
99912W        W72172   8.932  18.636  11.634
99913W        W72173  11.922  41.719   2.958
99914W        W72174  44.612  16.250  13.038
99915W        W72175  41.060  26.174   0.021
99916W        W72176   9.132  28.168   3.347
99917W        W72177  31.659  29.734   4.280
99918W        W72178   7.852  10.078   2.202
99919W        W72179   4.608  31.567  13.299
99920W        W72180  36.527  44.156  11.158
99921W        W72181  25.114  37.326  14.420
99922W        W72182  13.232  27.694   2.772
99923W        W72183  18.286  32.996  12.021
99924W        W72184  40.945   4.636   4.565
99925W        W72185  34.611  33.878  13.341
99926W        W72186  16.266  41.980   2.531
99927W        W72187  36.270  23.913   2.312
99928W        W72188   9.746  31.940   1.349
99929W        W72189  10.666  18.687  10.675
99930W        W72190   1.857  30.058   4.795
99931W        W72191   6.566  38.085   0.417
99932W        W72192  24.612   1.719   0.779
99933W        W72193  42.592  14.828   2.995
99934W        W72194  20.210  30.072  10.708
99935W        W72195  39.188  16.310  12.525
99936W        W72196  18.505  27.201   2.136
99937W        W72197  29.635  20.959   0.750
99938W        W72198  16.506   3.447  12.919
99939W        W72199  24.524  25.598   1.377
99940W        W72200   0.747  20.486  12.048
99941W        W72201   7.696  31.036  12.741
99942W        W72202  38.515   3.779   3.746
99943W        W72203  37.732   9.724   9.538
99944W        W72204   6.223  34.110  10.382
99945W        W72205   1.308  36.340   3.747
99946W        W72206  36.297  24.447   3.198
99947W        W72207  23.023  28.458   5.571
99948W        W72208   5.907  40.126   3.063
99949W        W72209  21.119  26.909   1.334
99950W        W72210  44.438  13.272   0.674
99951W        W72211   8.042  19.428   1.417
99952W        W72212  39.135  10.167   1.150
99953W        W72213  43.885  25.224  14.959
99954W        W72214  34.529  24.554  10.834
99955W        W72215   4.501  31.974   2.832
99956W        W72216  30.756   7.455  12.628
99957W        W72217  21.660  30.638   1.291
99958W        W72218  26.963  42.551   0.956
99959W        W72219  37.867  28.047  10.467
99960W        W72220  19.391  30.513  11.369
99961W        W72221  13.907   5.483  11.070
99962W        W72222  21.659  15.311  11.989
99963W        W72223  11.590  21.992  13.311
99964W        W72224  41.826  16.277   1.887
99965W        W72225   9.165  42.025   0.872
99966W        W72226  38.503  25.168  11.250
99967W        W72227   5.287   9.134   0.851
99968W        W72228  36.510   2.887  14.707
99969W        W72229   5.656  24.672   0.051
99970W        W72230  34.394  39.498   0.779
99971W        W72231  43.024   9.862   1.552
99972W        W72232  35.542  10.829  10.629
99973W        W72233  32.715  44.567  11.211
99974W        W72234  10.226  34.729   5.205
99975W        W72235  43.010  28.580  14.587
99976W        W72236  42.888  25.606  14.027
99977W        W72237   4.739  20.439  13.167
99978W        W72238  22.124  37.721  14.908
99979W        W72239  32.857  27.977   4.773
99980W        W72240   7.335  31.570  14.397
99981W        W72241   1.972  39.747  10.595
99982W        W72242  33.940  20.030  13.646
99983W        W72243  17.093  13.522   2.398
99984W        W72244  35.412   1.491  14.905
99985W        W72245  17.654  27.910   2.712
99986W        W72246   4.994   6.502   3.272
99987W        W72247  26.031   6.323  14.507
99988W        W72248  27.598  31.656   4.171
99989W        W72249  40.248  20.366  11.586
99990W        W72250  23.468   5.833  12.980
99991W        W72251  44.928  36.296  13.897
99992W        W72252  18.164   2.371  11.077
99993W        W72253  39.587   3.664   4.974
99994W        W72254   0.315  14.855   2.933
99995W        W72255  42.495  44.485  10.430
99996W        W72256  29.084  26.464   0.546
99997W        W72257  15.873   2.050   4.613
99998W        W72258   8.900  40.943  14.281
99999W        W72259  12.876  13.169  12.993
    0W        W72260   7.791  16.213   0.979
    1W        W72261  44.523  11.855  14.924
    2W        W72262  36.039  23.886   1.060
    3W        W72263  25.440  36.416   1.480
    4W        W72264   2.751  40.874   0.720
    5W        W72265  22.567  13.085   0.859
    6W        W72266  12.174   7.452   1.499
    7W        W72267  40.947   9.342   3.087
    8W        W72268  29.079   4.869  12.974
    9W        W72269   7.510  44.372  10.227
   10W        W72270  16.657   5.532  12.366
   11W        W72271   6.566  42.038   2.938
   12W        W72272  23.511   2.605  11.871
   13W        W72273   5.970  29.715   0.306
   14W        W72274  31.996  43.471   0.661
   15W        W72275  29.244  31.474  14.145
   16W        W72276  10.654  11.806   4.127
   17W        W72277  22.155  17.270  11.080
   18W        W72278  33.040  34.469  11.545
   19W        W72279  44.431  26.979   3.015
   20W        W72280  34.421  12.092  11.195
   21W        W72281  10.192  28.331  14.538
   22W        W72282  13.823  18.107   1.448
   23W        W72283   9.997   5.865   4.599
   24W        W72284   6.955  31.428  11.625
   25W        W72285  20.033  30.451   4.066
   26W        W72286  41.990  37.298  12.580
   27W        W72287  12.879  26.963   3.671
   28W        W72288  22.489  19.069   0.466
   29W        W72289  32.409  36.779   1.881
   30W        W72290   2.346  20.633   3.925
   31W        W72291  22.428  24.005   2.766
   32W        W72292  30.506  21.460   0.006
   33W        W72293  40.781  12.194   0.357
   34W        W72294  37.342  40.429   1.640
   35W        W72295   9.394  24.561  12.577
   36W        W72296  13.416  21.534   3.807
   37W        W72297  35.377  12.753   0.456
   38W        W72298  28.695  35.812   4.215
   39W        W72299  28.032   5.762  14.734
   40W        W72300   8.127  42.747   4.216
   41W        W72301  15.388  30.498   0.323
   42W        W72302  10.687  36.501  14.917
   43W        W72303  42.422  15.879  12.726
   44W        W72304   1.004  23.970  13.033
   45W        W72305   8.680   2.644   4.520
   46W        W72306  22.602  39.437   2.624
   47W        W72307   2.349  26.004   3.800
   48W        W72308  13.189  38.161  12.727
   49W        W72309  25.203  40.865   4.136
   50W        W72310  21.627  30.417   2.747
   51W        W72311  12.685  22.760   3.660
   52W        W72312  34.513  14.570  14.378
   53W        W72313  23.162  14.088  12.487
   54W        W72314  15.361   4.130  13.541
   55W        W72315  41.019   6.835  11.166
   56W        W72316  20.571  43.769  13.229
   57W        W72317  13.730   6.598   0.452
   58W        W72318   0.790  32.334  14.551
   59W        W72319  43.477  34.954  11.184
   60W        W72320   8.466  34.145   4.767
   61W        W72321  34.631   0.791   0.410
   62W        W72322   8.442  20.305   0.278
   63W        W72323  31.195  30.658   1.408
   64W        W72324  37.940  41.717   3.774
   65W        W72325   7.244  22.672   0.744
   66W        W72326   4.274  32.580  12.262
   67W        W72327  23.079  22.667   0.412
   68W        W72328  21.690   5.461   1.303
   69W        W72329   4.200  29.038   4.159
   70W        W72330  11.582  31.187  13.083
   71W        W72331  18.798  42.303  13.607
   72W        W72332  11.752  10.110   0.049
   73W        W72333  11.063  39.096  14.355
   74W        W72334  44.764  38.676  12.538
   75W        W72335   2.385  32.973  11.001
   76W        W72336  29.656   8.347  10.735
   77W        W72337  42.242   0.854  11.140
   78W        W72338  32.090  18.560   4.588
   79W        W72339  27.420  29.979  11.058
   80W        W72340  30.529  31.370   4.085
   81W        W72341  34.924  44.255   2.638
   82W        W72342   8.865  39.714   1.487
   83W        W72343   8.875  32.725  12.594
   84W        W72344  17.762   8.174  14.467
   85W        W72345   6.137  10.326  13.887
   86W        W72346  39.454  32.792  14.396
   87W        W72347  11.640  39.887   0.070
   88W        W72348  21.547  28.132   4.672
   89W        W72349  10.602  16.077   4.158
   90W        W72350  13.418  17.830  13.812
   91W        W72351  22.471  13.681  14.886
   92W        W72352  11.126  18.243   4.950
   93W        W72353  11.839  37.366  11.304
   94W        W72354  37.986  15.332  14.611
   95W        W72355  37.300   1.349   0.435
   96W        W72356   0.209  12.511  10.705
   97W        W72357  24.325  43.454  10.657
   98W        W72358  31.800  34.996  13.859
   99W        W72359  18.869   1.912   3.721
  100W        W72360  12.667  21.789   3.379
  101W        W72361  34.236  38.934  14.631
  102W        W72362  30.658  26.189   3.860
  103W        W72363  14.175  18.163   0.458
  104W        W72364  30.525  21.686   0.505
  105W        W72365  30.866  17.007  10.862
  106W        W72366  42.353   4.281   1.873
  107W        W72367  15.403   7.436  11.098
  108W        W72368   5.714  41.832   4.114
  109W        W72369   8.709   9.767  13.443
  110W        W72370  18.023  27.533   0.851
  111W        W72371  10.654  40.440  13.487
  112W        W72372  43.367   3.713   0.909
  113W        W72373  26.617  15.757  12.968
  114W        W72374  14.747  11.462   4.548
  115W        W72375  36.652   3.124  11.232
  116W        W72376  34.083  15.279  11.556
  117W        W72377  36.569  12.669   0.715
  118W        W72378  18.230  22.755  10.818
  119W        W72379  11.281  28.071  14.897
  120W        W72380  16.214  11.706   4.543
  121W        W72381  13.568  28.962  12.933
  122W        W72382  17.837  35.940  13.461
  123W        W72383  44.090   2.852  10.317
  124W        W72384   4.890  25.329   5.208
  125W        W72385  25.128  26.186  13.271
  126W        W72386  13.318   2.482  12.080
  127W        W72387  17.268  10.330  10.556
  128W        W72388  20.600   5.727  13.998
  129W        W72389   6.974   5.767  11.504
  130W        W72390  40.356  12.687  11.021
  131W        W72391  39.984  35.780   1.036
  132W        W72392   5.699  43.163  12.416
  133W        W72393  15.776  36.889   1.251
  134W        W72394  19.957   0.358  12.146
  135W        W72395  39.135  26.452  10.166
  136W        W72396  24.064  23.888   3.296
  137W        W72397   9.910  21.598  11.199
  138W        W72398   6.270   0.496   1.241
  139W        W72399  28.696  29.915  10.616
  140W        W72400  41.950  36.685  11.178
  141W        W72401  33.968  28.970   4.767
  142W        W72402  31.472  30.542   3.001
  143W        W72403   6.908  10.624   4.956
  144W        W72404  44.834  39.289  14.318
  145W        W72405  15.666  25.629   1.020
  146W        W72406   3.996  42.301  12.541
  147W        W72407   9.512  29.627   3.506
  148W        W72408  24.492  13.165  10.997
  149W        W72409  36.265  34.270   2.744
  150W        W72410  39.855  27.598   4.573
  151W        W72411   7.282  33.624  14.016
  152W        W72412  26.560   0.084  12.371
  153W        W72413  25.034   0.835   1.033
  154W        W72414  33.792  40.998  10.935
  155W        W72415  21.992  14.052  11.965
  156W        W72416  13.541   6.986  14.675
  157W        W72417  37.796  18.826   2.233
  158W        W72418   5.276  41.257   1.943
  159W        W72419   9.228  38.385  11.991
  160W        W72420  37.067   4.447  12.495
  161W        W72421  28.669  40.580   2.717
  162W        W72422  24.707  27.910  11.710
  163W        W72423   4.423   9.300  10.669
  164W        W72424  25.089  30.980   0.477
  165W        W72425   0.795   1.294   2.282
  166W        W72426  26.056  41.289  11.521
  167W        W72427  17.193  18.179  14.000
  168W        W72428   6.720  38.537  11.951
  169W        W72429  25.051   7.853  14.763
  170W        W72430  15.101  43.506  14.286
  171W        W72431  33.636  41.267  12.763
  172W        W72432  15.539  28.457   4.694
  173W        W72433  33.279  13.605  11.581
  174W        W72434  14.034  10.474   0.323
  175W        W72435  28.259  22.761   4.886
  176W        W72436  35.987   1.813   0.760
  177W        W72437   8.406  14.695  11.200
  178W        W72438  32.399  41.503  10.820
  179W        W72439   2.242  20.533  12.867
  180W        W72440  28.595  11.729  10.702
  181W        W72441  24.799  19.274   4.856
  182W        W72442  12.417   5.469   3.729
  183W        W72443  20.814   8.121  10.594
  184W        W72444  39.445  28.162   2.024
  185W        W72445   8.689  18.546  11.194
  186W        W72446  41.627  42.854   4.586
  187W        W72447  39.075  11.461   2.818
  188W        W72448   8.212  17.243   4.294
  189W        W72449   7.851  11.907   0.842
  190W        W72450  18.067  15.756   3.211
  191W        W72451   4.009  40.851   1.729
  192W        W72452  11.224  12.107   2.153
  193W        W72453   0.515  42.516  12.908
  194W        W72454  34.042  24.674  14.075
  195W        W72455  13.991  32.063   1.800
  196W        W72456   9.253  24.085  12.422
  197W        W72457  30.895  41.293  13.476
  198W        W72458  11.330  36.111   1.312
  199W        W72459  18.095   2.911  13.540
  200W        W72460  10.569  14.493   1.745
  201W        W72461  23.010  15.430  14.982
  202W        W72462  15.870  38.464   3.720
  203W        W72463   7.172   9.367   1.398
  204W        W72464  29.659  36.318   2.305
  205W        W72465   6.280  23.952  13.545
  206W        W72466  19.537  14.764  13.851
  207W        W72467  18.616  30.169   1.752
  208W        W72468   0.007  38.428  14.021
  209W        W72469  42.332  33.977   4.065
  210W        W72470  38.487   1.307   1.009
  211W        W72471  24.994  14.072   1.666
  212W        W72472  41.338  19.678   4.732
  213W        W72473  40.217   1.702  11.456
  214W        W72474  29.061  18.282  12.376
  215W        W72475  42.274  18.656   0.915
  216W        W72476  19.276   2.160  13.219
  217W        W72477  42.427  10.906   0.783
  218W        W72478  28.064  17.198  10.603
  219W        W72479   8.458  20.800   3.168
  220W        W72480  43.093   2.977  13.384
  221W        W72481  24.573   4.212   3.667
  222W        W72482  37.117   5.838   2.166
  223W        W72483   9.133  37.518  11.178
  224W        W72484  23.974   9.832  14.848
  225W        W72485  41.373  22.336   3.012
  226W        W72486  20.783  30.521  11.833
  227W        W72487  11.828  43.895   4.341
  228W        W72488  36.464  11.692  14.778
  229W        W72489  33.996  43.375   2.390
  230W        W72490  41.232  20.549   4.154
  231W        W72491  29.354  26.459  12.807
  232W        W72492   1.478   1.776  11.860
  233W        W72493   6.224  15.351  14.231
  234W        W72494  40.767   3.710  14.825
  235W        W72495  32.361  18.299  14.780
  236W        W72496  13.998   5.817   3.203
  237W        W72497  22.672  16.728  11.498
  238W        W72498  20.601  39.791  14.452
  239W        W72499  13.584   7.716  11.081
  240W        W72500  24.000  26.503   1.754
  241W        W72501   0.211  34.483  10.781
  242W        W72502  18.275   4.446   4.098
  243W        W72503  35.986  25.981   1.760
  244W        W72504  35.442  10.288  11.713
  245W        W72505  39.493  16.594   1.664
  246W        W72506  38.170  16.064  13.850
  247W        W72507  26.824  14.163   4.075
  248W        W72508  28.197  39.530  12.893
  249W        W72509  38.873   3.827   2.282
  250W        W72510   6.433  18.320   3.499
  251W        W72511   2.261  27.139   0.950
  252W        W72512  22.968   5.698  13.500
  253W        W72513  16.571  23.004   3.315
  254W        W72514  34.288  12.971   4.093
  255W        W72515   7.361  40.380   3.694
  256W        W72516   7.765  34.803  14.330
  257W        W72517  19.504  14.788  14.838
  258W        W72518  22.272  31.094   3.746
  259W        W72519  43.978  14.259   0.441
  260W        W72520  41.969  42.715  12.836
  261W        W72521   4.663   4.354  12.626
  262W        W72522   9.656  24.656   1.318
  263W        W72523  33.559  26.409  12.872
  264W        W72524  30.205  25.645   3.254
  265W        W72525  11.211  12.024  14.812
  266W        W72526   9.335   8.821  12.878
  267W        W72527  33.318  15.697  14.895
  268W        W72528  25.213  10.284  11.121
  269W        W72529  21.661  41.873  14.988
  270W        W72530  24.705  41.014   1.830
  271W        W72531  36.427  20.307  10.978
  272W        W72532  26.706  33.025  14.344
  273W        W72533  20.259  38.406   2.676
  274W        W72534   6.706  32.129   2.005
  275W        W72535  31.966  29.918  11.541
  276W        W72536  21.702  18.552   0.507
  277W        W72537  32.860   4.849  11.513
  278W        W72538  32.148  37.622   0.341
  279W        W72539  26.003  24.039   1.417
  280W        W72540  43.970  25.023  10.871
  281W        W72541  13.242  43.267   0.018
  282W        W72542  30.489  44.422   4.587
  283W        W72543  43.710  35.885  14.324
  284W        W72544  43.892  34.230  12.546
  285W        W72545  40.762   3.182  14.115
  286W        W72546   3.945  39.857  11.642
  287W        W72547   2.768  27.520   4.470
  288W        W72548  42.456   2.819   2.912
  289W        W72549  39.801  12.117  14.475
  290W        W72550  29.617   9.784  14.497
  291W        W72551   2.043  43.565   1.908
  292W        W72552  31.991  24.464  12.822
  293W        W72553  37.230  42.805  14.027
  294W        W72554  21.726  32.899  12.878
  295W        W72555  31.120   2.232   0.607
  296W        W72556  34.829  20.132   0.719
  297W        W72557  13.194   7.538   3.598
  298W        W72558  10.840  10.781  13.419
  299W        W72559  24.333  17.668  11.720
  300W        W72560   9.569   2.469   0.421
  301W        W72561  33.000  16.551  11.015
  302W        W72562   4.048  37.805   4.069
  303W        W72563   2.378   2.339   1.304
  304W        W72564  40.754   8.609  14.678
  305W        W72565  21.101  17.125   2.240
  306W        W72566  36.874  40.760   2.087
  307W        W72567  36.055  20.917  14.517
  308W        W72568  24.093  31.664  12.834
  309W        W72569  43.376  38.321  10.356
  310W        W72570  12.838  43.051   0.833
  311W        W72571  30.139  40.462   0.892
  312W        W72572  11.319   0.764  14.815
  313W        W72573  20.931  19.946   1.424
  314W        W72574   1.783  26.441  12.403
  315W        W72575  23.545   6.351   0.572
  316W        W72576  37.174  42.528  13.408
  317W        W72577  41.864  16.139   0.464
  318W        W72578  22.463  14.410   4.910
  319W        W72579  19.085   2.848   4.484
  320W        W72580  12.775  35.688   1.720
  321W        W72581   3.722  38.066  13.619
  322W        W72582   6.667  42.716   2.830
  323W        W72583  43.853   9.811  11.025
  324W        W72584  15.270  10.186  11.955
  325W        W72585  36.407  38.643   0.403
  326W        W72586  22.664  26.422  12.947
  327W        W72587  33.928  18.992  10.080
  328W        W72588  15.248  20.691   4.568
  329W        W72589  10.831  16.681   1.649
  330W        W72590  41.931  21.990   0.253
  331W        W72591  42.357  18.390   0.468
  332W        W72592  29.979  26.655   3.236
  333W        W72593   1.676  11.410  13.106
  334W        W72594  25.696  25.914   2.452
  335W        W72595  38.278  41.478   0.872
  336W        W72596   0.013   1.010  13.358
  337W        W72597  33.693  44.377   2.472
  338W        W72598  11.122   9.633  12.751
  339W        W72599  34.403   4.340  12.517
  340W        W72600  31.770   7.985   4.942
  341W        W72601   5.964  37.331  12.473
  342W        W72602  26.749  20.180  11.838
  343W        W72603  35.430  10.364  10.410
  344W        W72604   4.733   2.955   2.455
  345W        W72605   4.742  42.452   4.784
  346W        W72606  29.983  12.832  14.935
  347W        W72607   9.695  16.877   2.738
  348W        W72608  11.194  34.217   3.886
  349W        W72609  38.337   7.701  14.330
  350W        W72610  27.485  44.932  10.915
  351W        W72611  13.860   7.790   1.968
  352W        W72612  20.565  39.581   1.801
  353W        W72613  27.968  27.349  13.488
  354W        W72614  39.990  37.993   2.642
  355W        W72615  40.641  37.362   2.335
  356W        W72616  43.701  27.564   3.580
  357W        W72617  37.994  42.932  14.485
  358W        W72618  16.401   0.339   4.914
  359W        W72619   9.151  17.041  10.699
  360W        W72620  37.384  20.371  14.822
  361W        W72621  42.214   9.814  12.791
  362W        W72622  28.829  14.969  11.238
  363W        W72623  42.109   4.728  14.813
  364W        W72624  28.460  34.774  12.992
  365W        W72625  10.434  20.695  13.531
  366W        W72626  35.070  34.324   3.269
  367W        W72627   2.087   6.457   4.192
  368W        W72628  43.752  43.262  14.504
  369W        W72629   9.745   4.717   1.336
  370W        W72630  37.581  12.213  13.578
  371W        W72631  28.547   8.809  10.686
  372W        W72632   1.418  31.867   1.837
  373W        W72633  12.099   3.366  11.553
  374W        W72634  39.329  34.558  14.317
  375W        W72635   5.647   1.337   1.276
  376W        W72636  19.750  25.365  12.517
  377W        W72637  12.442  31.033   3.647
  378W        W72638  30.762  31.514   0.941
  379W        W72639   3.562  37.381   1.140
  380W        W72640  18.787  44.189  12.794
  381W        W72641  34.843   6.399  13.036
  382W        W72642  26.163  41.976   1.942
  383W        W72643  19.832   8.391   0.344
  384W        W72644  40.594  44.335   2.746
  385W        W72645  26.961   1.552   0.735
  386W        W72646  43.257  12.662  11.000
  387W        W72647  31.061  44.268   3.107
  388W        W72648   3.733   9.945  13.816
  389W        W72649  22.553  29.998   4.310
  390W        W72650  15.925  34.065   0.306
  391W        W72651  13.056  24.139   4.953
  392W        W72652  31.943  29.893   3.754
  393W        W72653  11.840  31.601   2.646
  394W        W72654  16.085  24.171  13.357
  395W        W72655  22.073  38.931  12.954
  396W        W72656  14.172  11.623   2.725
  397W        W72657   5.283  16.766  12.060
  398W        W72658  40.347  13.187  11.675
  399W        W72659  12.384  39.930  12.910
  400W        W72660   9.542   5.775   4.822
  401W        W72661  43.502  38.197   1.426
  402W        W72662   2.839  26.164   4.612
  403W        W72663  17.047   6.801  10.247
  404W        W72664  41.258  33.269  12.083
  405W        W72665  29.522   3.952  11.084
  406W        W72666  40.496  37.527   4.054
  407W        W72667  44.451  15.626  10.934
  408W        W72668   8.309  38.433  13.909
  409W        W72669  12.239  31.743   1.389
  410W        W72670  42.732  25.129  12.511
  411W        W72671  31.908   9.222  12.978
  412W        W72672  40.415  16.751  12.594
  413W        W72673  24.938  23.186  12.105
  414W        W72674   8.838  16.495   0.901
  415W        W72675  17.590  36.958  10.849
  416W        W72676   3.347   3.456   0.899
  417W        W72677  33.469  43.746  11.973
  418W        W72678  39.182  14.330  14.390
  419W        W72679  25.886   4.472   3.801
  420W        W72680  38.190  32.200  14.020
  421W        W72681   2.332   6.383  12.399
  422W        W72682  27.754   1.500  11.677
  423W        W72683  24.988  26.143  10.951
  424W        W72684  38.990   2.417   0.476
  425W        W72685  43.974  36.311  13.437
  426W        W72686  26.333  38.303   2.224
  427W        W72687  16.718   0.019   2.914
  428W        W72688  19.058  27.535  13.050
  429W        W72689  31.953  35.700  13.337
  430W        W72690  10.629  31.191  14.420
  431W        W72691  22.549   8.055   0.625
  432W        W72692  25.875  26.261   2.782
  433W        W72693  22.046   2.661   0.885
  434W        W72694   5.264   8.591  11.461
  435W        W72695   0.287  30.163   1.742
  436W        W72696  16.725  41.894   2.802
  437W        W72697  10.365  31.648  14.421
  438W        W72698   9.220  40.390   2.379
  439W        W72699  11.558  11.317  11.246
  440W        W72700   2.111   7.753   4.472
  441W        W72701  12.503  44.766   4.116
  442W        W72702  34.386   1.350   3.789
  443W        W72703  21.269  44.005   0.497
  444W        W72704  28.153  15.088   2.012
  445W        W72705  13.174  33.406  11.607
  446W        W72706   9.996  15.410  14.800
  447W        W72707   1.491   7.301   2.019
  448W        W72708  17.051  17.696   1.233
  449W        W72709  39.872  34.660  11.198
  450W        W72710  30.119  35.989  12.071
  451W        W72711   9.952  28.657  13.601
  452W        W72712  16.125  39.776   4.068
  453W        W72713  21.511   6.866   3.464
  454W        W72714   1.425  35.643   1.293
  455W        W72715  44.347  34.529  12.529
  456W        W72716  38.774  12.300   1.244
  457W        W72717  15.714  32.515   1.154
  458W        W72718  39.284   0.518  13.352
  459W        W72719   2.291   8.153   4.207
  460W        W72720  41.359   1.975   1.206
  461W        W72721  39.500  12.122  13.336
  462W        W72722  10.902  38.470  13.971
  463W        W72723  14.762   4.795  13.607
  464W        W72724  19.796   8.016   5.461
  465W        W72725  28.122  33.682   0.319
  466W        W72726  33.482  20.812   3.837
  467W        W72727  23.523  33.533  11.148
  468W        W72728  35.515  18.513   1.459
  469W        W72729  42.926  25.746  14.884
  470W        W72730  11.245  40.962   3.720
  471W        W72731  12.540  13.863   1.421
  472W        W72732  15.147  14.216  11.427
  473W        W72733  44.926  26.632   3.284
  474W        W72734  24.477  43.867  14.233
  475W        W72735   3.355  28.508   0.569
  476W        W72736  10.536  37.392  12.583
  477W        W72737  27.066  40.079   4.540
  478W        W72738  39.279  37.385  12.829
  479W        W72739  27.440  19.828  11.103
  480W        W72740  35.228   4.904  12.642
  481W        W72741   6.147  21.991   4.689
  482W        W72742  24.569  15.176  12.347
  483W        W72743  44.204  23.916  14.878
  484W        W72744  35.969  37.351   0.919
  485W        W72745  17.590   6.998  11.494
  486W        W72746  18.573  30.465  11.652
  487W        W72747  43.103  39.717  13.313
  488W        W72748  41.849   1.188   2.874
  489W        W72749  38.859  16.781   0.776
  490W        W72750  36.801  43.055  11.683
  491W        W72751   9.880  11.928  10.558
  492W        W72752  33.530  21.149  11.475
  493W        W72753  29.064  12.367   2.081
  494W        W72754  21.716  28.069   1.514
  495W        W72755  39.028  30.312  12.566
  496W        W72756  42.060  44.414   1.680
  497W        W72757  36.167   5.191   2.973
  498W        W72758  29.473   6.117  11.515
  499W        W72759  10.901  17.220  12.393
  500W        W72760  26.398  28.059   5.078
  501W        W72761  31.599  30.428  13.516
  502W        W72762  35.896  41.544   1.757
  503W        W72763  21.667  33.842   2.980
  504W        W72764  40.216  37.832  13.544
  505W        W72765   4.805  41.944  14.946
  506W        W72766  24.483  21.628   2.906
  507W        W72767   3.430  13.238   3.124
  508W        W72768   7.205   9.118  12.391
  509W        W72769  31.041  33.070  14.295
  510W        W72770  31.348  32.525   2.231
  511W        W72771  29.017  33.909   0.725
  512W        W72772  35.471  28.321  14.378
  513W        W72773  36.587   6.189   1.677
  514W        W72774  14.120   6.845   3.164
  515W        W72775  35.148  32.113  12.964
  516W        W72776  30.661  43.752   4.284
  517W        W72777   6.462  37.937   4.170
  518W        W72778  24.798   8.533   1.913
  519W        W72779  13.782  34.143   3.403
  520W        W72780  43.950  39.589  14.780
  521W        W72781  11.340  25.046   1.328
  522W        W72782  13.697  38.003   2.414
  523W        W72783  27.768  37.616  13.015
  524W        W72784  28.060  12.387  13.967
  525W        W72785   0.316  25.689  10.707
  526W        W72786  16.157  10.007   1.380
  527W        W72787   0.516   3.750  10.733
  528W        W72788  44.515  42.474  11.886
  529W        W72789   4.898  38.595  13.253
  530W        W72790   6.862   8.202   1.779
  531W        W72791  44.639  43.017  11.128
  532W        W72792  30.147   7.253  13.841
  533W        W72793  26.434   1.496  14.938
  534W        W72794   4.483  41.370   2.369
  535W        W72795   5.629  19.812   2.700
  536W        W72796   6.996   9.921  14.038
  537W        W72797  13.889  28.584   3.229
  538W        W72798  15.757   8.833   0.943
  539W        W72799  39.364  15.777   3.289
  540W        W72800  23.008  31.049   1.244
  541W        W72801  36.377   9.861   3.283
  542W        W72802  43.359  29.491   2.436
  543W        W72803  36.610  19.561   2.464
  544W        W72804  35.462   8.165  14.826
  545W        W72805  20.673  28.661  11.587
  546W        W72806   2.863  38.522  12.614
  547W        W72807  31.230   9.647  14.065
  548W        W72808   2.744  24.151   2.674
  549W        W72809  43.320  34.951   0.473
  550W        W72810  30.878  17.298  10.038
  551W        W72811  12.716  20.647   1.559
  552W        W72812  41.950  30.832   4.862
  553W        W72813  33.885  40.290   4.579
  554W        W72814  15.731  36.134  14.727
  555W        W72815  14.877   6.678   1.303
  556W        W72816  38.338  22.153   1.850
  557W        W72817  12.231  18.159  11.178
  558W        W72818  27.428   7.133  11.335
  559W        W72819  41.779   5.762   2.745
  560W        W72820  34.717  29.458   2.153
  561W        W72821   9.382   6.775   1.845
  562W        W72822  39.997  15.109  13.171
  563W        W72823  22.107  27.954   4.730
  564W        W72824  24.558  13.468   0.465
  565W        W72825  28.072   2.354   0.377
  566W        W72826   1.785  35.488  10.638
  567W        W72827   9.045  20.110  13.473
  568W        W72828  19.165  31.738   3.301
  569W        W72829  36.198  42.543   3.976
  570W        W72830   0.564  13.373   0.629
  571W        W72831  30.099  44.290   0.773
  572W        W72832  32.850  34.491  11.032
  573W        W72833   8.208  18.230  13.477
  574W        W72834  18.829  36.002   2.155
  575W        W72835  42.432  31.088  13.881
  576W        W72836  41.150  34.124   0.766
  577W        W72837  23.969   4.931  12.442
  578W        W72838   5.993  16.326  14.980
  579W        W72839  33.514   1.324  12.030
  580W        W72840   2.370  29.500   1.251
  581W        W72841  18.217   1.941  14.716
  582W        W72842  38.387  31.839  10.753
  583W        W72843   2.996  17.667   0.802
  584W        W72844  41.015  22.204  11.866
  585W        W72845  19.648  40.886  13.940
  586W        W72846  22.224  16.020  12.073
  587W        W72847  41.236   8.986  14.741
  588W        W72848   9.694  32.959  10.807
  589W        W72849  30.620  15.694   2.870
  590W        W72850  28.437  19.174  13.814
  591W        W72851  23.162   4.883   2.211
  592W        W72852  13.296  29.087   2.791
  593W        W72853  23.223  24.749   3.302
  594W        W72854  17.268   4.130  11.705
  595W        W72855  14.466   7.567   0.016
  596W        W72856   9.127   0.913  13.458
  597W        W72857  29.880  16.896   3.348
  598W        W72858  35.585  23.188   1.810
  599W        W72859  10.737  14.862   3.136
  600W        W72860   7.577   4.690   0.275
  601W        W72861  29.477  22.503   2.310
  602W        W72862  16.296  30.049  14.527
  603W        W72863  16.647  31.325  12.063
  604W        W72864  23.078  19.014  11.493
  605W        W72865   5.359  34.418  13.003
  606W        W72866  43.751  42.217  11.150
  607W        W72867   6.520  29.913  14.346
  608W        W72868  18.662  21.894  10.959
  609W        W72869  25.596  42.962  11.685
  610W        W72870  21.013   0.454   3.615
  611W        W72871  11.176   6.132   4.051
  612W        W72872  14.250   5.675  14.284
  613W        W72873  29.122  10.927  11.098
  614W        W72874  27.085  37.625   1.238
  615W        W72875  33.633  41.857  14.390
  616W        W72876  10.826  24.569   1.009
  617W        W72877  18.150  37.284  13.494
  618W        W72878  19.555   7.207  14.431
  619W        W72879  18.206  34.318   2.290
  620W        W72880  26.248  25.068   4.865
  621W        W72881  33.555  29.899   4.304
  622W        W72882  35.279  34.956  13.092
  623W        W72883  38.036  38.306  10.542
  624W        W72884  35.438   8.337  12.518
  625W        W72885  28.438  25.670  14.477
  626W        W72886  44.996   7.662   3.266
  627W        W72887  22.485  31.556  14.021
  628W        W72888  10.260  41.963   0.870
  629W        W72889   7.966  20.524  12.281
  630W        W72890   8.639  41.358  14.434
  631W        W72891  22.543  32.590   3.705
  632W        W72892  31.046   5.493   2.580
  633W        W72893  10.854   7.922  10.723
  634W        W72894   2.309  31.539   0.336
  635W        W72895  14.477  16.180   0.214
  636W        W72896   2.275   1.249  12.851
  637W        W72897  11.385  27.413   3.172
  638W        W72898  36.014  33.111   3.752
  639W        W72899  26.345  34.277  14.980
  640W        W72900  39.321   8.113  12.352
  641W        W72901  40.688  22.566   1.398
  642W        W72902   8.933   4.663  14.972
  643W        W72903  42.538  14.847  11.921
  644W        W72904  43.281  14.737   0.771
  645W        W72905  44.776  39.152   2.390
  646W        W72906  38.476  41.008   4.346
  647W        W72907  11.669  10.612  10.687
  648W        W72908  24.786   1.881  10.517
  649W        W72909  24.063  19.300   2.774
  650W        W72910  24.576   5.292  10.747
  651W        W72911  28.849   9.811  14.880
  652W        W72912  33.972  40.100   4.095
  653W        W72913   1.656  36.518  13.300
  654W        W72914  41.524  26.777  13.719
  655W        W72915  39.895  28.105  14.108
  656W        W72916  21.217  24.553  14.509
  657W        W72917  42.412  27.268  13.554
  658W        W72918  23.702  41.604  11.654
  659W        W72919  28.599  18.409  12.059
  660W        W72920  37.786  19.087   1.176
  661W        W72921   0.906  29.842  14.962
  662W        W72922  16.027  12.309   2.919
  663W        W72923  25.174  40.046  12.073
  664W        W72924  28.382  17.138  12.411
  665W        W72925  20.187   0.806  10.131
  666W        W72926  35.891  23.506   1.413
  667W        W72927  17.315  18.534  11.372
  668W        W72928  19.122  22.637   4.553
  669W        W72929  17.617  38.908  13.439
  670W        W72930  13.746   0.952   1.492
  671W        W72931  37.304  44.446   1.804
  672W        W72932  28.877  35.803  12.567
  673W        W72933  41.430  26.068  13.536
  674W        W72934  42.951  40.534  14.514
  675W        W72935  11.442  12.381   1.135
  676W        W72936  30.477   4.273   4.137
  677W        W72937  34.514  26.210  12.469
  678W        W72938  36.513   6.154   0.768
  679W        W72939   1.582  25.107  11.584
  680W        W72940  32.581   8.572   3.841
  681W        W72941   2.820  25.007   2.930
  682W        W72942  11.747  22.616   2.666
  683W        W72943  31.703   1.212   4.633
  684W        W72944  32.396  26.560  10.724
  685W        W72945  40.018  42.262   4.166
  686W        W72946  17.826  41.325   0.019
  687W        W72947  38.093   9.264  11.508
  688W        W72948  26.001  11.837  11.209
  689W        W72949  23.582  23.590   1.196
  690W        W72950   9.157   7.729   0.858
  691W        W72951  24.086  28.380  12.191
  692W        W72952  42.375  39.023  12.613
  693W        W72953  35.398  21.315  10.170
  694W        W72954  28.943  17.269  13.364
  695W        W72955  14.375  22.329   3.526
  696W        W72956  19.877  34.792   5.144
  697W        W72957  24.337  19.355   1.394
  698W        W72958   6.208  42.898  11.817
  699W        W72959  21.094  27.549   3.575
  700W        W72960   6.310   8.529   9.909
  701W        W72961  43.392  39.297  13.468
  702W        W72962  17.715  10.707   2.210
  703W        W72963  36.927  44.866  14.459
  704W        W72964  25.558  26.636   0.907
  705W        W72965  17.535  39.417  13.386
  706W        W72966  26.512  16.807   0.701
  707W        W72967  30.068  21.563   0.264
  708W        W72968  31.985  15.116  14.823
  709W        W72969   3.833  35.591  14.203
  710W        W72970  35.270   1.353   4.064
  711W        W72971  28.056  15.526   2.479
  712W        W72972  40.791  21.601   2.478
  713W        W72973  41.074  13.190   2.778
  714W        W72974  44.901  26.998  10.377
  715W        W72975   2.230  26.449   2.090
  716W        W72976  30.347  19.725   4.574
  717W        W72977  15.279  23.564   1.274
  718W        W72978  35.846  25.582  14.860
  719W        W72979   9.281  11.316   2.847
  720W        W72980   1.417  15.839  11.491
  721W        W72981   1.201  38.319   1.748
  722W        W72982  31.169  29.159   0.467
  723W        W72983  19.043   7.334  11.052
  724W        W72984  10.258  21.233  11.115
  725W        W72985   8.303  30.593   0.475
  726W        W72986  32.021  25.645   1.743
  727W        W72987   5.161  21.164   5.058
  728W        W72988  26.917  40.330   2.607
  729W        W72989   9.092  19.675   2.099
  730W        W72990  21.417  12.637   3.094
  731W        W72991  13.610  16.056   5.097
  732W        W72992  23.514  29.149   1.224
  733W        W72993  10.259  15.479   2.052
  734W        W72994   3.772   1.477  11.637
  735W        W72995  41.268  15.266  12.537
  736W        W72996   8.775  35.546  12.645
  737W        W72997  17.668   6.111  13.540
  738W        W72998   5.436  28.998   2.419
  739W        W72999  13.812  37.446   1.260
  740W        W73000  19.653  20.424  10.864
  741W        W73001  43.280  23.963  14.827
  742W        W73002  40.429  39.186  13.530
  743W        W73003  17.216  41.738   4.008
  744W        W73004   2.911  14.698   4.713
  745W        W73005  24.006   6.358   0.301
  746W        W73006  42.967  11.488   3.707
  747W        W73007  18.276   2.863   1.248
  748W        W73008  41.486  22.454   1.775
  749W        W73009  39.353  19.587  14.248
  750W        W73010   7.706  18.018  12.152
  751W        W73011  22.199  16.011   4.253
  752W        W73012  12.115  35.228  10.701
  753W        W73013  34.721  22.611  13.977
  754W        W73014  12.808  38.928  13.775
  755W        W73015  43.429  37.625   3.276
  756W        W73016  15.845  26.011  12.814
  757W        W73017  19.020   3.644   4.661
  758W        W73018  43.066  42.777  13.109
  759W        W73019   1.843   6.208   0.970
  760W        W73020  13.542  12.174  11.663
  761W        W73021  24.561  11.833   1.953
  762W        W73022  16.502  44.816  13.899
  763W        W73023  31.418  21.198  10.356
  764W        W73024  12.905  36.019   3.694
  765W        W73025  12.606  35.552  14.507
  766W        W73026  31.931   3.322  12.393
  767W        W73027   7.699   5.971  11.034
  768W        W73028  27.826   2.143   4.255
  769W        W73029  35.222  11.476  12.587
  770W        W73030   0.258  25.616  11.592
  771W        W73031  38.082  20.436  12.098
  772W        W73032  20.552   7.513   9.944
  773W        W73033  36.833  18.976   3.270
  774W        W73034  21.392  24.137   2.838
  775W        W73035  22.769  42.681   2.742
  776W        W73036  31.717  29.093  13.432
  777W        W73037  19.025  36.072  11.429
  778W        W73038  30.220  20.090  13.975
  779W        W73039   1.407  18.738  13.743
  780W        W73040  16.355   6.924   4.181
  781W        W73041  38.389   1.634  13.933
  782W        W73042   3.116  22.164  13.658
  783W        W73043  16.920  28.694  14.933
  784W        W73044  25.613   4.385  10.717
  785W        W73045  14.460  29.985  11.332
  786W        W73046  16.325  22.197   3.951
  787W        W73047  15.359  43.350  13.864
  788W        W73048  39.799  35.193  11.146
  789W        W73049   8.916  22.223   1.741
  790W        W73050  20.481  36.488   1.765
  791W        W73051  37.438  35.058   4.186
  792W        W73052  17.782  20.050  14.522
  793W        W73053   5.404  19.146   0.772
  794W        W73054   9.652  19.772   3.745
  795W        W73055   3.782  40.531   3.241
  796W        W73056  38.124  17.070   2.655
  797W        W73057  44.292  30.981   9.901
  798W        W73058   8.843  38.590  14.776
  799W        W73059  14.317  32.403   3.281
  800W        W73060  36.071  25.000  14.879
  801W        W73061  26.478  28.123   0.543
  802W        W73062  34.085  44.934  14.518
  803W        W73063  27.267  10.689  10.744
  804W        W73064   1.545  25.091   0.929
  805W        W73065  26.599  10.090  13.897
  806W        W73066  15.190   8.464  12.026
  807W        W73067  40.417   3.158   1.916
  808W        W73068   4.983  40.848  11.180
  809W        W73069  21.328   2.127  13.789
  810W        W73070  25.817  37.139   2.902
  811W        W73071  44.453  20.315   3.583
  812W        W73072   5.732  44.750   4.160
  813W        W73073  20.263   6.498  14.942
  814W        W73074  41.989  16.653  13.301
  815W        W73075  28.423   7.847   0.745
  816W        W73076   0.429  22.231  13.321
  817W        W73077  36.629   9.243  11.913
  818W        W73078  42.270  40.812   3.709
  819W        W73079  43.791  40.147   3.452
  820W        W73080  25.914  36.320  13.036
  821W        W73081  12.893  44.537  11.569
  822W        W73082  17.678   0.754   3.829
  823W        W73083   2.342   7.675   0.330
  824W        W73084  37.354  17.387   5.324
  825W        W73085  27.566  32.668   3.535
  826W        W73086  19.078  29.932  13.343
  827W        W73087   4.937  10.110   4.099
  828W        W73088   3.304   0.779   3.449
  829W        W73089   0.837   3.204  12.088
  830W        W73090   9.262  32.096  10.457
  831W        W73091  30.141  42.690  13.356
  832W        W73092  41.002  23.455   4.019
  833W        W73093  36.952  43.441  10.875
  834W        W73094   9.202  32.856  14.450
  835W        W73095   4.915  39.959  10.728
  836W        W73096  43.516  29.056  13.183
  837W        W73097  17.639   0.330   2.179
  838W        W73098  38.180  42.270  11.158
  839W        W73099  21.902   0.878  11.119
  840W        W73100  42.437  11.116   2.691
  841W        W73101  10.383  18.110  13.440
  842W        W73102  42.353  31.951  11.274
  843W        W73103  39.365  22.228  14.219
  844W        W73104   1.607  35.762  14.255
  845W        W73105  29.937  26.642   1.450
  846W        W73106  39.061   4.497   2.399
  847W        W73107   4.276  28.176  12.667
  848W        W73108  39.908  40.178   1.775
  849W        W73109  15.318  21.281  14.337
  850W        W73110  34.599   2.912  14.049
  851W        W73111  43.546  37.442   5.247
  852W        W73112  23.272   6.357   4.982
  853W        W73113  20.323   7.819  14.221
  854W        W73114  14.017  16.750   2.300
  855W        W73115   3.996  21.799   3.800
  856W        W73116   8.685  28.519   1.363
  857W        W73117   1.696  44.732   4.661
  858W        W73118  18.615   7.881   4.241
  859W        W73119   1.397   7.337  12.402
  860W        W73120  38.892   6.820  11.940
  861W        W73121  13.768  27.321  10.226
  862W        W73122  38.869  28.572  13.462
  863W        W73123  10.397  23.278   3.275
  864W        W73124   3.486   9.635  12.523
  865W        W73125  22.342  12.592  11.051
  866W        W73126   2.933  26.773  11.497
  867W        W73127   6.402  10.512   5.095
  868W        W73128  28.592   0.846   2.718
  869W        W73129  28.591  28.574  14.293
  870W        W73130   5.852  38.380   1.715
  871W        W73131  14.582   9.639   3.324
  872W        W73132  42.423  30.155   4.705
  873W        W73133  18.135  31.793  11.673
  874W        W73134  13.383   4.401  13.368
  875W        W73135  41.299   1.200   2.796
  876W        W73136   8.414  13.310  10.593
  877W        W73137   1.237  23.970  13.531
  878W        W73138  24.114  23.130  11.323
  879W        W73139  37.333  19.017  14.937
  880W        W73140  41.477  34.649  10.794
  881W        W73141  41.284  39.835  14.978
  882W        W73142   7.205  24.088   1.717
  883W        W73143  17.270  33.052   1.966
  884W        W73144   4.300  23.630  11.754
  885W        W73145  28.107  31.901   3.256
  886W        W73146   3.936  43.423   0.498
  887W        W73147  32.027  32.390   2.744
  888W        W73148  17.694  33.521  11.422
  889W        W73149  30.431   6.794   0.938
  890W        W73150  12.360  34.570   3.692
  891W        W73151  10.493  33.047   0.040
  892W        W73152   8.764  39.353  11.251
  893W        W73153  24.665  42.140   5.327
  894W        W73154  12.047  29.408  13.893
  895W        W73155  25.460  25.261  11.012
  896W        W73156  12.203  27.829   4.202
  897W        W73157  33.580  40.545   4.950
  898W        W73158   1.217  26.015  14.866
  899W        W73159   3.329  22.802   3.411
  900W        W73160  21.884  23.087   0.487
  901W        W73161  37.685  29.381  12.973
  902W        W73162  38.649  38.075  12.396
  903W        W73163  16.765  19.806   1.458
  904W        W73164  31.905  12.187  14.446
  905W        W73165  16.062  13.361   1.777
  906W        W73166  34.275  16.706  10.565
  907W        W73167   0.050   5.657  14.781
  908W        W73168  20.143  25.715   1.440
  909W        W73169   0.762  33.477  10.259
  910W        W73170  20.590  26.615   3.591
  911W        W73171  23.160  25.470   1.446
  912W        W73172  40.506  33.046  13.999
  913W        W73173  36.805  29.099  13.047
  914W        W73174  22.122  21.583  14.835
  915W        W73175  27.031  17.255  12.641
  916W        W73176  11.103  15.563  13.460
  917W        W73177  19.685  28.560  12.604
  918W        W73178  31.958  38.509   1.151
  919W        W73179  24.810  42.990  11.960
  920W        W73180  37.975  41.366  14.728
  921W        W73181  18.509  28.550  13.415
  922W        W73182  23.806  19.741   3.667
  923W        W73183  25.781  32.619   4.122
  924W        W73184   9.764  30.537   0.720
  925W        W73185  30.940   2.343   4.176
  926W        W73186  32.386   3.918   2.577
  927W        W73187  16.154  17.121  14.549
  928W        W73188  25.429  37.927   1.426
  929W        W73189  10.755  36.514   3.245
  930W        W73190  42.876  37.421  13.047
  931W        W73191  20.488   7.499   2.808
  932W        W73192  19.307   8.539   0.202
  933W        W73193   0.292  38.432   0.431
  934W        W73194  31.737  43.151   1.968
  935W        W73195  30.429  30.350   3.875
  936W        W73196   8.246  29.491  14.324
  937W        W73197  33.098  41.335  13.915
  938W        W73198  26.924  13.284   4.037
  939W        W73199   4.880  10.081  10.738
  940W        W73200  32.608  34.794  12.088
  941W        W73201  34.988  31.026   1.551
  942W        W73202   0.218  10.134   2.696
  943W        W73203  10.955  31.215  12.391
  944W        W73204  39.881  41.748   3.244
  945W        W73205   7.620  28.208   1.915
  946W        W73206  16.852  23.706  11.337
  947W        W73207  24.142  28.627   3.765
  948W        W73208  10.890   2.413   3.535
  949W        W73209   3.998  14.696  13.486
  950W        W73210  31.706   0.435  12.027
  951W        W73211  28.446  15.822   2.303
  952W        W73212  20.115   8.964   4.130
  953W        W73213  23.491  18.541  13.272
  954W        W73214   6.020  31.602  14.756
  955W        W73215  21.403  11.304  10.653
  956W        W73216  30.061   9.400   2.194
  957W        W73217   6.975  37.823  11.470
  958W        W73218  12.679  33.972   2.357
  959W        W73219  40.972   0.507  11.112
  960W        W73220  32.969  10.421  11.948
  961W        W73221  23.137  30.714  12.870
  962W        W73222  16.209  44.201  10.201
  963W        W73223   3.573  27.813   9.963
  964W        W73224   4.412  44.875   2.283
  965W        W73225  38.226   5.066   0.303
  966W        W73226  35.976   7.648  14.117
  967W        W73227  14.370  30.362  10.242
  968W        W73228  41.541  44.414   0.866
  969W        W73229   7.545  17.726  13.907
  970W        W73230  34.644  35.932   2.763
  971W        W73231  17.037  35.458   2.629
  972W        W73232  40.313  21.908   2.462
  973W        W73233  42.504  29.570   1.612
  974W        W73234  26.379   9.646   3.753
  975W        W73235  21.642  20.513   2.401
  976W        W73236   1.539  42.282   2.877
  977W        W73237  31.849   8.347  13.069
  978W        W73238   3.268  24.464   4.785
  979W        W73239  17.063  33.091  14.773
  980W        W73240  20.835   6.419   0.942
  981W        W73241   1.212  40.851   0.836
  982W        W73242  38.786  13.848   1.719
  983W        W73243  37.284  23.225   2.866
  984W        W73244  15.148  15.043   4.266
  985W        W73245  19.249  25.236   4.533
  986W        W73246  10.187  10.927   0.244
  987W        W73247  33.627  34.973   3.711
  988W        W73248  29.691  39.954  13.842
  989W        W73249   2.420  36.600   4.494
  990W        W73250  31.429  43.024  12.998
  991W        W73251  19.307   0.661   2.226
  992W        W73252  13.693  42.243  11.082
  993W        W73253  42.705  38.047   4.181
  994W        W73254  18.361  28.113   0.491
  995W        W73255  31.192  26.853  12.634
  996W        W73256  34.896  29.653   1.199
  997W        W73257  27.270  44.420  13.881
  998W        W73258  39.518  21.518  11.154
  999W        W73259  23.480  16.700   3.296
 1000W        W73260  11.929  42.651   5.063
 1001W        W73261  18.795  43.841  14.548
 1002W        W73262  36.154  21.636  12.058
 1003W        W73263  10.742   9.493   4.136
 1004W        W73264  37.929  21.014   4.114
 1005W        W73265  42.485   0.670  11.616
 1006W        W73266   1.042  25.398   1.411
 1007W        W73267  33.169  40.299   2.678
 1008W        W73268   9.341  38.092   3.617
 1009W        W73269  16.636  41.510   2.436
 1010W        W73270  38.471  40.412  13.309
 1011W        W73271   5.943  28.613  14.087
 1012W        W73272  29.437  28.439   2.224
 1013W        W73273  36.685  42.888  10.344
 1014W        W73274  16.572  42.527   1.733
 1015W        W73275  28.156  22.638   2.512
 1016W        W73276  10.673  39.040  12.802
 1017W        W73277  27.395  19.317   3.635
 1018W        W73278  20.469  24.738  11.141
 1019W        W73279   1.799  14.869  12.911
 1020W        W73280  12.233  28.611   0.810
 1021W        W73281  13.864  17.404   4.818
 1022W        W73282  14.581  17.545   2.265
 1023W        W73283  30.006  40.836   3.062
 1024W        W73284  15.619  30.560   4.458
 1025W        W73285   6.785  11.452  14.698
 1026W        W73286  21.005  17.376   4.267
 1027W        W73287  19.783  33.920   0.727
 1028W        W73288  25.729  42.692  12.979
 1029W        W73289   5.957  28.883  12.629
 1030W        W73290  40.360   9.117   3.736
 1031W        W73291  34.628  21.314   9.761
 1032W        W73292   3.982  40.900  11.893
 1033W        W73293  39.486  13.874  13.129
 1034W        W73294  27.184  13.202   3.594
 1035W        W73295  12.205   9.551   3.397
 1036W        W73296  19.285  22.115   0.294
 1037W        W73297  43.496  42.752   1.822
 1038W        W73298  42.992  34.938  11.446
 1039W        W73299  40.468  29.390  13.626
 1040W        W73300  17.807  39.337  11.868
 1041W        W73301  11.419   6.390  12.836
 1042W        W73302  28.393  22.241   3.817
 1043W        W73303  13.673  29.471  12.945
 1044W        W73304   5.339  42.779  12.422
 1045W        W73305  42.926  22.032  14.515
 1046W        W73306   2.891  43.703  11.140
 1047W        W73307   9.333   3.412   4.034
 1048W        W73308  15.631  22.956  13.313
 1049W        W73309  36.888  23.809  12.631
 1050W        W73310   9.830  41.204  13.493
 1051W        W73311   2.782  32.195   4.870
 1052W        W73312  27.416   0.987  10.441
 1053W        W73313  13.307  28.945  14.811
 1054W        W73314  29.181  25.414   3.235
 1055W        W73315  24.663  16.923   1.870
 1056W        W73316  16.160  13.096   2.226
 1057W        W73317  13.361  42.295   4.132
 1058W        W73318  17.934  21.039  13.441
 1059W        W73319  15.053   2.649  13.401
 1060W        W73320  32.163  44.021   3.944
 1061W        W73321  40.483  33.338  13.599
 1062W        W73322  37.912  22.061   4.095
 1063W        W73323  42.338   6.390   0.485
 1064W        W73324  24.505  36.809  13.827
 1065W        W73325  13.114  43.457   1.010
 1066W        W73326   8.932  10.676   4.486
 1067W        W73327  43.522   8.159  12.923
 1068W        W73328   9.349  36.061   0.843
 1069W        W73329  16.569  39.891  12.029
 1070W        W73330  33.106  11.125   2.821
 1071W        W73331  25.951  28.011   0.746
 1072W        W73332   2.063  33.447   9.935
 1073W        W73333  44.381  24.489  11.914
 1074W        W73334  34.538  18.641  13.522
 1075W        W73335  13.673  40.687  13.882
 1076W        W73336  35.398  40.312   2.750
 1077W        W73337   0.697  38.857  14.112
 1078W        W73338  35.843  11.114  14.493
 1079W        W73339  38.721  10.898  13.861
 1080W        W73340   6.619  14.624  13.831
 1081W        W73341  37.409   2.706  11.643
 1082W        W73342   0.979  19.333  13.213
 1083W        W73343  28.429   2.482  11.226
 1084W        W73344   4.182  34.435   1.769
 1085W        W73345  38.979  38.906  12.896
 1086W        W73346   1.151  33.258   3.378
 1087W        W73347  19.277  19.070  12.971
 1088W        W73348  26.698  25.208  13.425
 1089W        W73349  27.495  36.259   3.430
 1090W        W73350  31.058  23.589   9.986
 1091W        W73351   5.319   6.220  14.825
 1092W        W73352  18.772  23.577   1.513
 1093W        W73353  20.752  34.914   0.805
 1094W        W73354   4.870  32.153  11.227
 1095W        W73355  38.087  37.032  11.490
 1096W        W73356  16.812  19.474   3.694
 1097W        W73357   2.215  10.102  12.532
 1098W        W73358  28.861  18.810  14.509
 1099W        W73359  26.544  21.621  11.076
 1100W        W73360  19.616   5.631   5.262
 1101W        W73361  40.130   0.758   3.714
 1102W        W73362  16.765  19.425  14.927
 1103W        W73363   5.869  13.326   1.457
 1104W        W73364  19.638  31.038   0.983
 1105W        W73365  25.055  33.121  11.159
 1106W        W73366  33.923  10.545   1.707
 1107W        W73367  40.848  33.396  12.395
 1108W        W73368  30.110   7.167  11.977
 1109W        W73369  42.523   4.709   0.268
 1110W        W73370   8.370   1.715   0.671
 1111W        W73371  26.431  13.260  11.482
 1112W        W73372  38.383  14.335   2.136
 1113W        W73373  38.934  23.213   2.234
 1114W        W73374  10.440  29.262   0.222
 1115W        W73375  10.993  33.138   4.805
 1116W        W73376  28.161   2.190   1.555
 1117W        W73377  24.819   3.666  12.830
 1118W        W73378  44.918  27.133   3.164
 1119W        W73379  40.963  21.439   1.606
 1120W        W73380   6.374  17.513   3.222
 1121W        W73381  18.700   4.500   1.900
 1122W        W73382  32.008  39.832   4.602
 1123W        W73383  33.118  15.866  13.058
 1124W        W73384   9.865   4.389   3.742
 1125W        W73385  19.438   0.780  12.486
 1126W        W73386  27.396  38.559  11.734
 1127W        W73387  14.343   0.498  14.785
 1128W        W73388  40.179  39.790  14.348
 1129W        W73389   8.257  26.512  10.384
 1130W        W73390   6.414   7.704  13.800
 1131W        W73391   3.459   0.941   2.877
 1132W        W73392  42.153   5.048   4.072
 1133W        W73393   0.747  36.926   1.718
 1134W        W73394  41.914  29.698  11.201
 1135W        W73395  12.052   0.166  14.855
 1136W        W73396  24.452   0.117  11.026
 1137W        W73397   0.890  20.745   3.676
 1138W        W73398   1.977  36.813  12.424
 1139W        W73399   2.831   5.138   0.418
 1140W        W73400   8.518   9.154   5.052
 1141W        W73401   3.055  42.829   2.245
 1142W        W73402  21.149   6.714  14.093
 1143W        W73403   3.709  29.873   0.201
 1144W        W73404  43.002  35.327   1.827
 1145W        W73405   1.427  15.959   0.633
 1146W        W73406   0.951  42.807  10.770
 1147W        W73407  42.239  11.552   2.437
 1148W        W73408   3.550  33.567   0.416
 1149W        W73409  42.919  29.862   1.517
 1150W        W73410  10.215  26.415  12.788
 1151W        W73411   2.123  19.083  14.957
 1152W        W73412  34.453  13.638   1.747
 1153W        W73413  26.712  20.270   3.195
 1154W        W73414   4.637   3.912  13.101
 1155W        W73415   2.289   9.467  10.490
 1156W        W73416  18.745  32.543  10.563
 1157W        W73417   3.160   8.487   0.106
 1158W        W73418   7.467  20.208   0.388
 1159W        W73419  16.276  25.563  13.112
 1160W        W73420  32.551   5.163  13.356
 1161W        W73421   4.928  17.241   2.337
 1162W        W73422  32.869  23.747  11.474
 1163W        W73423  18.631  19.653  14.368
 1164W        W73424  18.181  28.136   2.759
 1165W        W73425   3.483  38.829   0.889
 1166W        W73426  42.413   9.639   2.563
 1167W        W73427  20.821  30.468  10.852
 1168W        W73428   2.917   4.456   3.879
 1169W        W73429   0.745   3.299   2.377
 1170W        W73430  24.148  37.376   1.025
 1171W        W73431  34.038  29.672  11.476
 1172W        W73432  15.678  44.933   4.818
 1173W        W73433  41.552  41.402   2.783
 1174W        W73434  30.027   3.241   1.992
 1175W        W73435  28.355  26.707   1.629
 1176W        W73436   8.273  28.988  11.442
 1177W        W73437   9.155  31.122  12.510
 1178W        W73438  38.432   5.099   1.379
 1179W        W73439  43.565   0.783   0.247
 1180W        W73440   7.756  14.695  12.631
 1181W        W73441  15.258   4.889   4.603
 1182W        W73442  23.019  29.397  14.287
 1183W        W73443  13.903  40.296  10.640
 1184W        W73444  42.378   5.174   1.852
 1185W        W73445  22.174  21.312  13.294
 1186W        W73446  19.268   7.869  13.341
 1187W        W73447  38.904  24.035   2.469
 1188W        W73448  35.126  39.389   1.845
 1189W        W73449  35.570  42.015   2.511
 1190W        W73450  19.374  20.452  13.453
 1191W        W73451  21.554  33.562   1.866
 1192W        W73452  12.891  37.391  11.656
 1193W        W73453  31.033   7.992   0.948
 1194W        W73454  38.819  35.318   3.753
 1195W        W73455  19.074  17.946   2.345
 1196W        W73456  26.891   9.695   1.009
 1197W        W73457  20.286  13.278   3.714
 1198W        W73458  39.992   2.356  10.729
 1199W        W73459  16.770  28.043   4.877
 1200W        W73460  26.025  10.446   4.194
 1201W        W73461  22.078  19.034  14.563
 1202W        W73462  42.824  19.328   2.173
 1203W        W73463  24.491  38.047  12.883
 1204W        W73464   6.141  41.461   1.319
 1205W        W73465   7.172  40.766   1.836
 1206W        W73466  20.761   0.688  13.325
 1207W        W73467   0.216  12.150   0.127
 1208W        W73468  36.844  26.483   0.759
 1209W        W73469  20.047  29.129  14.766
 1210W        W73470  20.583  33.291  14.002
 1211W        W73471  35.024  17.680  10.339
 1212W        W73472  29.318  37.338   0.555
 1213W        W73473  26.560  16.277   0.262
 1214W        W73474   9.584  44.560   3.796
 1215W        W73475  26.703  24.906   4.639
 1216W        W73476  31.291  29.376   4.138
 1217W        W73477  44.579  43.445   4.128
 1218W        W73478  44.649  32.804  11.524
 1219W        W73479  25.334  24.106  11.536
 1220W        W73480  23.933  44.898  14.490
 1221W        W73481   5.968  23.741   3.355
 1222W        W73482  16.501  38.457  13.979
 1223W        W73483  11.882   1.901  12.666
 1224W        W73484  34.696  36.070  10.721
 1225W        W73485  22.803  25.741  13.579
 1226W        W73486  30.472  11.209   4.080
 1227W        W73487  16.534  38.539  10.624
 1228W        W73488  42.231  26.621   5.174
 1229W        W73489   3.703  38.234   1.065
 1230W        W73490   2.418  42.814  13.204
 1231W        W73491  37.284   6.361  11.928
 1232W        W73492  29.999  44.794  14.386
 1233W        W73493   4.980   8.747   4.138
 1234W        W73494   0.374  37.044   0.039
 1235W        W73495  43.704  21.815   3.191
 1236W        W73496  37.090   1.809   3.287
 1237W        W73497  22.944  28.972   5.480
 1238W        W73498  33.135  32.735  13.394
 1239W        W73499  14.887   7.394  10.990
 1240W        W73500  44.939  26.673  13.330
 1241W        W73501  21.060  10.262   4.508
 1242W        W73502  25.119  41.808   2.468
 1243W        W73503  21.693  41.675  12.759
 1244W        W73504  34.041   6.890   1.717
 1245W        W73505  17.903   5.891  10.073
 1246W        W73506  32.221  19.337  11.059
 1247W        W73507  31.963  34.799   1.900
 1248W        W73508   2.334  23.683   0.917
 1249W        W73509  21.765  30.192   3.915
 1250W        W73510  36.483  16.368  12.551
 1251W        W73511  22.196  12.100   3.229
 1252W        W73512  10.620  23.696   0.552
 1253W        W73513  27.905  36.052   5.192
 1254W        W73514  23.422  19.075  14.854
 1255W        W73515  23.368  44.831  12.067
 1256W        W73516  35.089  32.142   2.264
 1257W        W73517  21.059  40.773   2.717
 1258W        W73518  32.477   4.760  12.429
 1259W        W73519  21.696  44.787   3.242
 1260W        W73520  23.105   3.366   4.604
 1261W        W73521  35.882  26.129  14.857
 1262W        W73522  21.036  12.870  12.401
 1263W        W73523  33.599   7.951   3.216
 1264W        W73524  26.016  28.628   4.481
 1265W        W73525  13.679  14.146   0.234
 1266W        W73526  43.437   2.973   4.268
 1267W        W73527  22.214  44.372  14.493
 1268W        W73528   6.603  33.325   3.884
 1269W        W73529  15.336   8.697  10.992
 1270W        W73530  28.476  37.228   0.187
 1271W        W73531  23.417  14.244  12.069
 1272W        W73532  31.358  35.146  11.252
 1273W        W73533  40.648  22.286   2.847
 1274W        W73534  27.003  21.857  14.380
 1275W        W73535  19.224  35.843   0.773
 1276W        W73536   0.965  44.480  11.185
 1277W        W73537  13.578  36.028   1.966
 1278W        W73538   0.004  20.560   3.106
 1279W        W73539  15.177  18.165  13.383
 1280W        W73540  17.721  42.765  11.969
 1281W        W73541  35.241   0.986  10.778
 1282W        W73542  23.681   4.013   4.158
 1283W        W73543  26.031  19.322  11.103
 1284W        W73544   3.598  27.301  13.439
 1285W        W73545  32.912  16.052  12.196
 1286W        W73546  17.635  34.221  14.350
 1287W        W73547  27.961   5.062  11.890
 1288W        W73548  38.290  23.718  12.871
 1289W        W73549   7.689  26.115   3.152
 1290W        W73550   1.016   8.938  10.242
 1291W        W73551  25.477  17.863  10.312
 1292W        W73552  29.063   1.383   3.479
 1293W        W73553  40.470  25.920   1.318
 1294W        W73554  34.859  24.566  14.413
 1295W        W73555  26.601  42.480   2.334
 1296W        W73556  33.344  11.882   1.766
 1297W        W73557  40.484   5.393   3.351
 1298W        W73558  41.258  43.012   3.325
 1299W        W73559  11.200  21.063   3.657
 1300W        W73560  24.474   2.383   2.364
 1301W        W73561   9.726   7.664   3.718
 1302W        W73562  19.589  18.219   1.224
 1303W        W73563   0.701  26.292   5.074
 1304W        W73564   2.912   7.461   4.643
 1305W        W73565  10.590  12.438   0.775
 1306W        W73566   1.870   2.899  10.681
 1307W        W73567   9.340  36.883   1.134
 1308W        W73568   6.880  33.880  13.448
 1309W        W73569  32.938  35.115  12.321
 1310W        W73570  10.386  12.880   3.728
 1311W        W73571  16.830  16.740   2.866
 1312W        W73572  40.852  15.143  12.222
 1313W        W73573  35.346  44.804  11.092
 1314W        W73574  11.227  13.826  11.132
 1315W        W73575  43.552  14.169  10.333
 1316W        W73576  18.870  24.044  11.999
 1317W        W73577  26.441   0.346   0.560
 1318W        W73578   5.726  37.547  12.064
 1319W        W73579  20.720  29.938  10.808
 1320W        W73580  29.332  11.945   2.831
 1321W        W73581  15.548  20.163   1.458
 1322W        W73582  18.732  13.281  12.346
 1323W        W73583  32.678   8.321   0.042
 1324W        W73584  33.925  37.428   2.234
 1325W        W73585  16.645  14.645   4.506
 1326W        W73586   4.655  27.854  11.088
 1327W        W73587   2.084  30.132  10.334
 1328W        W73588  33.268  25.457   4.647
 1329W        W73589  37.929   7.230  14.791
 1330W        W73590  22.189   8.723  14.770
 1331W        W73591   7.354  35.006   0.817
 1332W        W73592  23.242  41.062  14.356
 1333W        W73593  32.285  35.160   0.288
 1334W        W73594  10.815  43.864   3.069
 1335W        W73595   9.236   8.744   4.089
 1336W        W73596  21.575  10.893  14.488
 1337W        W73597   5.384  10.658   4.594
 1338W        W73598  34.981  41.729  14.376
 1339W        W73599   1.953  41.085  12.650
 1340W        W73600  25.374   7.438  11.123
 1341W        W73601  30.370  24.121  11.593
 1342W        W73602  11.169  30.080  11.202
 1343W        W73603  16.869  35.418   3.111
 1344W        W73604  19.352  26.907  13.015
 1345W        W73605  40.238   7.842   0.883
 1346W        W73606  36.143  23.305  11.550
 1347W        W73607  25.935  40.025  12.637
 1348W        W73608  19.046  20.250   3.211
 1349W        W73609  29.899  44.105  14.923
 1350W        W73610  17.044   3.357  10.110
 1351W        W73611  27.494  17.126  14.992
 1352W        W73612  33.506  38.173  11.677
 1353W        W73613  32.116  38.419   3.199
 1354W        W73614  19.290   1.747   2.119
 1355W        W73615   9.398  16.920   3.186
 1356W        W73616  14.611  16.532   1.419
 1357W        W73617  19.512  38.380   3.395
 1358W        W73618  18.228   7.644   9.809
 1359W        W73619   8.444  31.676  11.666
 1360W        W73620  37.029  30.219  11.913
 1361W        W73621   6.986  18.723   2.960
 1362W        W73622  12.529  40.474  11.118
 1363W        W73623  15.683  30.821  13.770
 1364W        W73624   5.375  22.576   3.452
 1365W        W73625  20.499   4.251  10.796
 1366W        W73626  34.816  10.155   4.557
 1367W        W73627  24.823  21.282   5.317
 1368W        W73628  32.935  15.585  13.458
 1369W        W73629  36.083  19.145   1.463
 1370W        W73630  24.635  30.432   3.776
 1371W        W73631  26.957  31.389  13.769
 1372W        W73632  19.736  39.915  11.959
 1373W        W73633  35.518   3.481  10.771
 1374W        W73634   0.383  32.855   3.635
 1375W        W73635  28.947  27.130   2.383
 1376W        W73636  43.005   4.082   0.939
 1377W        W73637  16.637   7.184   0.446
 1378W        W73638  37.391  11.953   2.123
 1379W        W73639  30.575  23.032  14.013
 1380W        W73640  44.456   8.860   3.371
 1381W        W73641   2.045  31.023   1.498
 1382W        W73642  37.387  34.313   1.394
 1383W        W73643  15.610  40.965   2.210
 1384W        W73644   3.509  39.453  14.759
 1385W        W73645  36.377   5.161  14.965
 1386W        W73646   3.799  29.507  11.506
 1387W        W73647   5.371   1.236  13.051
 1388W        W73648  10.693   1.734  13.768
 1389W        W73649  22.071  28.827  14.822
 1390W        W73650   4.252   4.004  12.765
 1391W        W73651   9.661  26.375  14.868
 1392W        W73652  12.678  30.205  13.878
 1393W        W73653  17.032  24.382   4.670
 1394W        W73654  23.036  18.863   2.652
 1395W        W73655  18.031  42.220  12.561
 1396W        W73656  31.990  37.437  12.101
 1397W        W73657  18.448   2.951   0.402
 1398W        W73658  44.452  20.039   0.292
 1399W        W73659  38.772  29.952   1.677
 1400W        W73660   0.719  29.399  13.485
 1401W        W73661  31.895  34.569  11.956
 1402W        W73662  24.073  28.936  13.537
 1403W        W73663  32.654  13.855  11.043
 1404W        W73664  20.269  35.653   0.307
 1405W        W73665  14.694  39.945   1.864
 1406W        W73666   5.409   8.596  12.148
 1407W        W73667  26.428  41.281   1.298
 1408W        W73668  27.471  40.589  13.809
 1409W        W73669   9.651  27.750   5.068
 1410W        W73670   8.810   6.724  11.326
 1411W        W73671  17.258  12.334   9.943
 1412W        W73672  24.092  44.392  12.901
 1413W        W73673  17.309   8.138  10.227
 1414W        W73674  43.000  42.412   3.141
 1415W        W73675  26.060   9.348   2.216
 1416W        W73676   0.560   8.487   0.698
 1417W        W73677   0.301  34.377   3.655
 1418W        W73678  16.245   8.895   4.068
 1419W        W73679  39.966  40.939   4.968
 1420W        W73680   5.291  38.371  11.122
 1421W        W73681   8.864  26.227  13.077
 1422W        W73682   3.508  17.001   2.360
 1423W        W73683   1.472  18.209   0.321
 1424W        W73684  19.774  43.371   4.419
 1425W        W73685  15.564  41.466   1.654
 1426W        W73686  40.719  25.747   0.013
 1427W        W73687  21.408  43.289   3.097
 1428W        W73688  39.002   0.801   3.804
 1429W        W73689  35.536  34.463  14.519
 1430W        W73690  34.938   4.251   0.230
 1431W        W73691  36.981  36.992   4.679
 1432W        W73692  14.098  38.900  14.339
 1433W        W73693  24.217  34.335   0.805
 1434W        W73694  29.546  31.567  14.532
 1435W        W73695  28.077  17.266   1.814
 1436W        W73696  42.728  37.038  13.830
 1437W        W73697  29.612   5.231   0.804
 1438W        W73698  15.038  10.429  11.538
 1439W        W73699  41.936  18.797  12.839
 1440W        W73700  20.671  33.509  10.548
 1441W        W73701  34.636  30.031  12.445
 1442W        W73702  40.531   8.276  12.038
 1443W        W73703   7.695   6.250  11.471
 1444W        W73704  31.638   1.968  13.053
 1445W        W73705  29.515  21.555   3.317
 1446W        W73706   1.231  15.655   1.611
 1447W        W73707  17.685  17.516  13.798
 1448W        W73708  18.094   1.731   4.295
 1449W        W73709  15.726  19.851   4.543
 1450W        W73710  26.156  24.802   0.617
 1451W        W73711  30.070   8.002  10.689
 1452W        W73712   4.974  39.373  12.962
 1453W        W73713  31.257  36.843  12.069
 1454W        W73714  39.980  42.093  11.099
 1455W        W73715  19.476  13.087   4.739
 1456W        W73716  10.715  41.869  13.522
 1457W        W73717  21.564  17.104  12.150
 1458W        W73718  11.728  11.133  10.736
 1459W        W73719  23.643  44.229  14.920
 1460W        W73720   0.702  20.917  11.128
 1461W        W73721   8.848  10.850  10.460
 1462W        W73722   2.825  42.360  14.188
 1463W        W73723  21.144  36.108   1.769
 1464W        W73724  10.842  15.861   0.279
 1465W        W73725  33.081  36.760  14.069
 1466W        W73726   6.184  34.957  11.788
 1467W        W73727   6.173  19.698  10.308
 1468W        W73728  36.043  31.031  12.517
 1469W        W73729  23.179  25.098  10.543
 1470W        W73730  39.087  41.452   2.759
 1471W        W73731  10.093  23.456  13.969
 1472W        W73732   6.930  41.346  11.888
 1473W        W73733  13.268  13.542   1.452
 1474W        W73734  11.530  35.633  12.450
 1475W        W73735  10.533  41.468  11.736
 1476W        W73736  36.095   8.230   5.006
 1477W        W73737  15.158  29.726  14.396
 1478W        W73738  11.797   8.099  10.763
 1479W        W73739  21.182  32.522   3.318
 1480W        W73740  27.785   6.424   5.088
 1481W        W73741  28.469  27.926   0.873
 1482W        W73742  23.587   2.336   3.645
 1483W        W73743   5.721  29.907   0.738
 1484W        W73744   7.690  21.606  11.513
 1485W        W73745  39.522  30.839  14.715
 1486W        W73746   1.892   5.465   4.041
 1487W        W73747  24.094  41.202   0.683
 1488W        W73748   1.293  23.192   4.301
 1489W        W73749  14.634   1.890  11.307
 1490W        W73750  41.920  24.645  13.674
 1491W        W73751   6.910  17.984  13.632
 1492W        W73752  13.275  15.128  10.110
 1493W        W73753   5.677  19.245  11.908
 1494W        W73754   5.105   5.914   3.285
 1495W        W73755  34.334  31.113  14.959
 1496W        W73756  38.455   5.465  13.517
 1497W        W73757  14.868  41.924   4.580
 1498W        W73758  22.145  18.494   3.693
 1499W        W73759  15.664  24.819   4.681
 1500W        W73760  35.444  12.553  12.589
 1501W        W73761   4.668  12.709  14.238
 1502W        W73762  14.281  34.176  11.111
 1503W        W73763  42.797   3.788  12.037
 1504W        W73764  10.313  33.001   0.504
 1505W        W73765  44.500   7.111   3.259
 1506W        W73766  21.712   9.212   2.192
 1507W        W73767  36.386  10.725   3.987
 1508W        W73768  12.976  41.996  11.162
 1509W        W73769  29.206  11.273   3.283
 1510W        W73770  18.599  23.210  11.552
 1511W        W73771  33.480  10.258  10.206
 1512W        W73772  13.720  17.116  10.465
 1513W        W73773   1.778  35.642   3.387
 1514W        W73774   7.238  21.472  11.753
 1515W        W73775  35.000  21.827   4.197
 1516W        W73776  15.178  41.977   4.145
 1517W        W73777   2.467  27.122  10.715
 1518W        W73778   3.675   0.994  13.819
 1519W        W73779  32.019  27.617  13.752
 1520W        W73780  24.109   2.936  10.571
 1521W        W73781  25.374   1.495   1.257
 1522W        W73782   9.927  34.951   3.631
 1523W        W73783  33.924  26.556  12.050
 1524W        W73784   7.306  12.329   4.986
 1525W        W73785   9.632  35.443   4.182
 1526W        W73786  16.567   9.529  11.886
 1527W        W73787  35.403  12.119   2.739
 1528W        W73788   3.206  20.671  11.458
 1529W        W73789  40.513  36.475  13.887
 1530W        W73790   5.329  31.506   1.961
 1531W        W73791   4.311   7.604  11.462
 1532W        W73792  39.968  17.178  14.786
 1533W        W73793  24.523  37.915   3.859
 1534W        W73794  44.485   9.752   0.410
 1535W        W73795  31.088   6.093  12.553
 1536W        W73796  37.072  29.518   2.332
 1537W        W73797  28.441   9.536   1.349
 1538W        W73798  27.800  37.500  13.520
 1539W        W73799  27.359  24.622   1.196
 1540W        W73800   9.394  42.898   2.136
 1541W        W73801  30.533  33.008  12.695
 1542W        W73802   7.961  34.128   4.617
 1543W        W73803  41.369  43.880  13.913
 1544W        W73804  34.244   5.772  13.623
 1545W        W73805  40.918  20.762   3.776
 1546W        W73806  35.471  38.600  12.398
 1547W        W73807  37.576   3.422   0.003
 1548W        W73808  30.191  14.140  12.088
 1549W        W73809   6.905  39.898   3.302
 1550W        W73810  43.051  14.338  12.573
 1551W        W73811  18.329  32.328   0.702
 1552W        W73812  19.563   1.289  12.628
 1553W        W73813  17.298  17.755   3.422
 1554W        W73814  28.588  21.827   4.640
 1555W        W73815   2.038  38.948  14.495
 1556W        W73816  24.473  36.287   1.182
 1557W        W73817  22.445  10.068   4.516
 1558W        W73818  44.980   4.140   1.877
 1559W        W73819   1.919  44.518  11.022
 1560W        W73820  16.624  34.786  14.898
 1561W        W73821  32.935  27.739  14.346
 1562W        W73822  33.907  43.912   2.420
 1563W        W73823  40.502  21.210  11.157
 1564W        W73824  32.023  19.071   4.490
 1565W        W73825  32.044  35.133  11.544
 1566W        W73826  13.209  19.004   1.241
 1567W        W73827  39.009   5.526   4.587
 1568W        W73828  24.049  44.603  13.682
 1569W        W73829  26.197  35.164   4.181
 1570W        W73830  35.378  28.554  13.900
 1571W        W73831  21.626  37.727   0.045
 1572W        W73832  43.345   2.505   3.072
 1573W        W73833  13.190  42.716   4.399
 1574W        W73834   6.661  42.059  14.801
 1575W        W73835  16.631  28.092   0.716
 1576W        W73836  12.331  43.847  11.540
 1577W        W73837  16.363   6.329   4.733
 1578W        W73838  39.364  13.649   2.691
 1579W        W73839   6.443  18.108   1.944
 1580W        W73840  20.499  15.015  10.679
 1581W        W73841  33.392  11.182  12.565
 1582W        W73842  10.169  10.180  14.494
 1583W        W73843  33.674   9.481  10.891
 1584W        W73844  29.025  39.556   1.583
 1585W        W73845  16.685  29.062  13.375
 1586W        W73846  31.103  42.288  14.316
 1587W        W73847  12.614  36.020  11.128
 1588W        W73848   6.612  33.455   1.451
 1589W        W73849  32.499  37.658   3.952
 1590W        W73850   1.730  17.270   1.000
 1591W        W73851   9.469   6.900   1.332
 1592W        W73852  33.859  32.576   3.444
 1593W        W73853  30.537  27.814   3.746
 1594W        W73854  29.656  36.760   4.972
 1595W        W73855  35.565   7.907   3.219
 1596W        W73856  16.737  43.575   2.487
 1597W        W73857  15.306  26.541   0.241
 1598W        W73858  16.684  22.445  12.006
 1599W        W73859   0.658  40.618   0.805
 1600W        W73860  27.726  20.245  11.157
 1601W        W73861  38.103   7.119   0.837
 1602W        W73862  27.772  35.536   1.815
 1603W        W73863   1.840  23.681  14.293
 1604W        W73864  21.163  25.446  13.303
 1605W        W73865   1.313  14.212   4.102
 1606W        W73866  40.488  10.630   4.661
 1607W        W73867  24.828   8.779  14.753
 1608W        W73868   6.756  18.749  14.307
 1609W        W73869  44.693  25.948   2.537
 1610W        W73870  15.203  22.956   4.390
 1611W        W73871  30.072  35.082  11.980
 1612W        W73872  37.870  18.810  14.569
 1613W        W73873   4.813  32.602   3.597
 1614W        W73874   5.361  35.117   2.832
 1615W        W73875   1.254  18.560   0.608
 1616W        W73876  35.528  21.124  11.475
 1617W        W73877   3.398  26.331   5.054
 1618W        W73878   5.632  39.411  12.430
 1619W        W73879   7.421  29.784   1.665
 1620W        W73880  29.339  39.501   0.789
 1621W        W73881   0.713  23.585  11.143
 1622W        W73882   1.938  44.924   3.357
 1623W        W73883  40.928  16.082  14.750
 1624W        W73884  25.106  33.159  11.676
 1625W        W73885  14.702  24.079   3.345
 1626W        W73886  35.006  25.187   4.440
 1627W        W73887  17.478  15.530   0.956
 1628W        W73888  12.468  40.684  14.313
 1629W        W73889   2.314  16.912   2.687
 1630W        W73890  12.805  44.512  14.807
 1631W        W73891  39.516  33.783   4.105
 1632W        W73892  27.173  34.038  10.749
 1633W        W73893  31.065  33.055  11.934
 1634W        W73894  18.016  25.454  12.523
 1635W        W73895  32.751  44.753  14.823
 1636W        W73896  27.944   7.346  14.803
 1637W        W73897  32.954  33.603  12.547
 1638W        W73898  24.248  31.218   1.719
 1639W        W73899  14.562  13.809   3.700
 1640W        W73900  41.220  19.571   2.889
 1641W        W73901  20.754   3.887   1.414
 1642W        W73902  20.675  28.614   2.907
 1643W        W73903  23.018  38.569   2.345
 1644W        W73904  14.308  17.250   4.651
 1645W        W73905   4.699  25.808   5.181
 1646W        W73906  26.066  17.312  13.350
 1647W        W73907  19.577  24.011  14.385
 1648W        W73908  28.159  26.495   4.181
 1649W        W73909  25.532  26.580  14.810
 1650W        W73910  43.884   5.364   1.500
 1651W        W73911  28.147  31.471  10.568
 1652W        W73912   1.010  43.221  11.115
 1653W        W73913  32.356  17.097  10.746
 1654W        W73914  31.249  21.402  11.123
 1655W        W73915   1.052   8.945  14.499
 1656W        W73916  14.257  23.078   4.114
 1657W        W73917  25.219  25.189  14.887
 1658W        W73918  38.355  32.920  11.545
 1659W        W73919   3.251  33.404   2.305
 1660W        W73920  42.079  41.059   1.242
 1661W        W73921  33.231  43.345   0.610
 1662W        W73922  29.251  29.382   0.994
 1663W        W73923  18.687  40.445   5.164
 1664W        W73924  11.116  38.851  12.560
 1665W        W73925   0.504  35.483   1.547
 1666W        W73926  19.063  24.098  14.977
 1667W        W73927  12.571  17.436   4.562
 1668W        W73928  40.568  16.160   1.173
 1669W        W73929  26.463  11.329   4.392
 1670W        W73930   2.184  38.351  13.260
 1671W        W73931  25.551  44.014  14.817
 1672W        W73932  18.929  41.340  13.486
 1673W        W73933  19.825  11.796   4.116
 1674W        W73934  23.124  21.118   1.887
 1675W        W73935  22.296  40.257  10.626
 1676W        W73936  28.731  41.917  10.725
 1677W        W73937  26.736   0.080   3.373
 1678W        W73938  32.467  19.646   2.258
 1679W        W73939   2.862  26.275  11.584
 1680W        W73940   4.808  44.083   4.272
 1681W        W73941  30.926  23.679   3.523
 1682W        W73942  22.030   0.498   1.650
 1683W        W73943  42.744  43.028  12.151
 1684W        W73944  16.027  11.358  11.595
 1685W        W73945   3.754  26.859  12.980
 1686W        W73946  26.130  23.636   3.883
 1687W        W73947   7.721  30.964   3.613
 1688W        W73948   6.924  18.233   3.749
 1689W        W73949  44.048   8.709   4.670
 1690W        W73950  42.036   2.653  12.571
 1691W        W73951   4.335  17.427  13.553
 1692W        W73952  32.735  44.757   3.081
 1693W        W73953   8.420  34.386  12.986
 1694W        W73954  25.432   8.367   4.345
 1695W        W73955   3.284  32.661  11.782
 1696W        W73956  40.391  30.939  12.440
 1697W        W73957   8.265  28.949   1.688
 1698W        W73958  19.310  38.310  12.649
 1699W        W73959  27.060  21.973   3.251
 1700W        W73960   0.080  35.057  12.571
 1701W        W73961  14.411  15.344   2.564
 1702W        W73962  22.604  33.949  13.878
 1703W        W73963  11.419  30.417  11.996
 1704W        W73964   1.664  24.975  12.574
 1705W        W73965   8.744   9.800   2.906
 1706W        W73966   6.262  10.743  14.467
 1707W        W73967   5.318  16.922  11.304
 1708W        W73968  37.841  33.578  11.832
 1709W        W73969  22.246   0.692  11.603
 1710W        W73970  31.976  12.611  11.528
 1711W        W73971   7.767  37.060  14.802
 1712W        W73972  40.764  27.503   1.466
 1713W        W73973  29.087   0.827   3.704
 1714W        W73974  39.135  41.979  10.654
 1715W        W73975  23.806  12.149   0.884
 1716W        W73976  40.583   9.891   4.190
 1717W        W73977  23.693   8.946   3.111
 1718W        W73978   2.363   1.613  10.470
 1719W        W73979  10.918  27.923  12.915
 1720W        W73980  35.357   9.232  12.511
 1721W        W73981  21.009   6.528   4.542
 1722W        W73982  42.001  36.795  12.517
 1723W        W73983  23.544  18.195   1.688
 1724W        W73984  17.546  15.142   2.616
 1725W        W73985  26.033  17.630   2.877
 1726W        W73986  40.817   0.517  12.894
 1727W        W73987  32.095  28.069  13.354
 1728W        W73988  16.086  36.120  10.684
 1729W        W73989   9.172  16.041   4.319
 1730W        W73990  39.529  23.690  11.516
 1731W        W73991  31.682  32.219  13.385
 1732W        W73992  24.227  13.044  13.463
 1733W        W73993  40.095  40.436  12.515
 1734W        W73994  21.811  15.253   2.447
 1735W        W73995  37.474  20.713   4.382
 1736W        W73996  37.945  29.287  12.073
 1737W        W73997   0.425   5.204   1.169
 1738W        W73998  40.547  44.612  12.931
 1739W        W73999  32.637  17.103  10.304
 1740W        W74000  19.746  33.579  14.333
 1741W        W74001  31.648  16.732   1.254
 1742W        W74002  34.891  11.542   4.834
 1743W        W74003  28.843   9.974  13.367
 1744W        W74004  27.730   5.216   0.843
 1745W        W74005   4.450  12.552  13.418
 1746W        W74006  28.073  43.558   3.871
 1747W        W74007   7.110  31.085  10.448
 1748W        W74008  41.248  43.522   4.208
 1749W        W74009  10.608   5.435  13.038
 1750W        W74010  38.336  38.710  10.690
 1751W        W74011  34.403  42.163  13.814
 1752W        W74012  34.505  28.888   1.171
 1753W        W74013  21.668   4.295   3.963
 1754W        W74014   3.013  31.746   5.090
 1755W        W74015  42.976  22.202  13.503
 1756W        W74016   7.411   6.892  14.357
 1757W        W74017  32.058  20.154   2.238
 1758W        W74018  39.985  18.988   3.407
 1759W        W74019  40.249  22.479   0.371
 1760W        W74020  13.310  25.537   1.240
 1761W        W74021  33.484  24.552   1.968
 1762W        W74022  21.566  44.078  10.808
 1763W        W74023   2.189  32.080  12.425
 1764W        W74024  43.237   0.691   5.050
 1765W        W74025  23.674  30.901  14.850
 1766W        W74026  25.821   1.855   2.160
 1767W        W74027  26.647  16.693  11.526
 1768W        W74028  31.473  23.141  12.000
 1769W        W74029  10.120  17.881   0.364
 1770W        W74030  32.540  21.797   4.981
 1771W        W74031  12.814  41.254   0.539
 1772W        W74032  13.086  43.536  12.948
 1773W        W74033  13.027  32.438   3.852
 1774W        W74034   0.978  42.705   4.887
 1775W        W74035   0.156  21.153  12.258
 1776W        W74036  33.423   1.701   1.344
 1777W        W74037   8.953  34.891   0.370
 1778W        W74038  23.161  21.137  13.845
 1779W        W74039  42.786  40.561  12.123
 1780W        W74040  29.447  29.994  10.160
 1781W        W74041  16.892  43.002   0.463
 1782W        W74042   3.124  20.483   1.281
 1783W        W74043  14.801  29.589  14.803
 1784W        W74044  28.593  40.061   4.666
 1785W        W74045   8.402  19.544  13.605
 1786W        W74046  26.068   9.176  13.166
 1787W        W74047   2.826  22.722   4.502
 1788W        W74048   6.936  29.699   0.508
 1789W        W74049  25.207   9.582   0.255
 1790W        W74050  22.206  24.948   0.129
 1791W        W74051  22.658   3.183   2.645
 1792W        W74052  14.308  37.862   0.317
 1793W        W74053  29.743  44.699   1.746
 1794W        W74054   7.432  10.022   2.756
 1795W        W74055  13.447  33.573  12.102
 1796W        W74056  16.430  31.582   2.244
 1797W        W74057   1.948  26.228   3.209
 1798W        W74058  27.888  42.579  13.079
 1799W        W74059   2.629   4.736  13.776
 1800W        W74060  25.058   3.266  14.019
 1801W        W74061  17.164   0.858   3.712
 1802W        W74062  44.963  10.907   0.431
 1803W        W74063  15.519  26.658  13.937
 1804W        W74064  13.269   7.196   3.995
 1805W        W74065  38.114  32.008   1.189
 1806W        W74066   4.658  16.170  13.240
 1807W        W74067  41.988   0.915  14.891
 1808W        W74068   9.671  20.619  14.650
 1809W        W74069  26.130  37.588  10.106
 1810W        W74070  43.792  41.940  10.711
 1811W        W74071  17.913  17.615   1.824
 1812W        W74072  23.912   2.887  14.769
 1813W        W74073  31.114  28.143  11.952
 1814W        W74074  38.679  33.081  11.170
 1815W        W74075   0.797   0.331   1.433
 1816W        W74076  37.904  16.566  11.064
 1817W        W74077  29.625  16.477   2.319
 1818W        W74078   1.956  21.443  12.017
 1819W        W74079  23.938  28.724   0.229
 1820W        W74080  37.510  30.690  11.986
 1821W        W74081  44.990  38.988   3.375
 1822W        W74082   0.811  21.194  10.694
 1823W        W74083  10.404  26.516   0.314
 1824W        W74084  15.818  22.246   4.182
 1825W        W74085  19.993  31.191   0.279
 1826W        W74086   5.025  10.727  13.428
 1827W        W74087   1.345  43.824   3.454
 1828W        W74088  41.985  39.912   0.845
 1829W        W74089   1.972  30.379  12.255
 1830W        W74090  24.881  41.923  14.419
 1831W        W74091  20.690  43.306  13.019
 1832W        W74092  12.772  32.624  14.790
 1833W        W74093  16.508  28.848  11.783
 1834W        W74094  16.680  29.023   3.198
 1835W        W74095  35.959  25.391   4.255
 1836W        W74096  16.766  18.203   0.449
 1837W        W74097  27.966  40.942  12.452
 1838W        W74098  34.143  18.668   3.816
 1839W        W74099   9.343  18.821  11.064
 1840W        W74100  14.311  22.724  12.989
 1841W        W74101  16.353   3.397   4.622
 1842W        W74102  39.327  15.231   0.952
 1843W        W74103  23.929  19.618  10.122
 1844W        W74104  30.208  35.891  13.865
 1845W        W74105  16.535  20.232   0.318
 1846W        W74106  32.353  30.923   0.165
 1847W        W74107   5.900  34.842   3.707
 1848W        W74108  31.616  10.494  11.860
 1849W        W74109   9.894   6.397  11.067
 1850W        W74110   2.847  13.863   1.761
 1851W        W74111  29.971   2.007   4.447
 1852W        W74112   4.216   3.714   1.907
 1853W        W74113   4.827   5.338   1.308
 1854W        W74114  32.976   2.215   0.696
 1855W        W74115  23.615  36.653  11.470
 1856W        W74116  24.726   1.509  14.298
 1857W        W74117   9.688  44.699  13.974
 1858W        W74118  14.112  35.707   3.087
 1859W        W74119   8.324  10.080   2.709
 1860W        W74120  44.325   1.911  10.637
 1861W        W74121   6.630   3.730   3.179
 1862W        W74122   4.965   6.822  12.182
 1863W        W74123  26.471  31.194   0.429
 1864W        W74124   9.011  43.514  14.812
 1865W        W74125  15.300  13.284   1.383
 1866W        W74126  10.210  16.294  13.102
 1867W        W74127  34.632   3.879  12.598
 1868W        W74128  40.682  33.227   3.280
 1869W        W74129  43.125  22.525   3.069
 1870W        W74130  33.648  16.666  13.324
 1871W        W74131  19.631  20.601   5.164
 1872W        W74132  33.374  15.322  12.384
 1873W        W74133  38.562  20.921   3.951
 1874W        W74134  28.080  37.440  12.053
 1875W        W74135  18.778  18.470  14.181
 1876W        W74136   6.682  14.138   3.625
 1877W        W74137  32.371  31.511  11.397
 1878W        W74138  27.631  26.013   0.994
 1879W        W74139  21.668  12.673   3.634
 1880W        W74140  19.515  11.365   3.258
 1881W        W74141   5.428  40.508  13.898
 1882W        W74142   0.917  42.873   1.235
 1883W        W74143  30.259  12.193   3.615
 1884W        W74144   4.859  36.025   5.119
 1885W        W74145  40.420  35.008   2.212
 1886W        W74146   9.090  35.967  13.080
 1887W        W74147  12.864  15.806  11.613
 1888W        W74148  13.135  21.453  14.449
 1889W        W74149   0.976   8.598  12.650
 1890W        W74150  14.728   8.228   4.656
 1891W        W74151  39.043  30.965   3.297
 1892W        W74152  21.259  27.040   5.199
 1893W        W74153  40.235  35.029  12.428
 1894W        W74154  12.191  17.135   3.239
 1895W        W74155  25.850  24.134  11.611
 1896W        W74156  36.789  33.365   2.651
 1897W        W74157  35.832  12.439  14.744
 1898W        W74158  30.145   4.386   4.563
 1899W        W74159  21.923  14.780  12.859
 1900W        W74160  28.064  29.179  14.933
 1901W        W74161  44.945  42.449  10.772
 1902W        W74162  11.202   0.068   3.164
 1903W        W74163  22.956   5.776   4.145
 1904W        W74164  11.280  30.878  10.803
 1905W        W74165  18.824  38.214  11.582
 1906W        W74166   2.459  30.522   2.284
 1907W        W74167  18.369  24.937   5.071
 1908W        W74168  35.357  40.214  13.878
 1909W        W74169  20.513   0.421  12.967
 1910W        W74170   4.898  33.466  12.888
 1911W        W74171  10.235  15.341  12.872
 1912W        W74172  32.063  43.418   1.174
 1913W        W74173   4.335  42.297  14.239
 1914W        W74174  40.044  17.546  10.703
 1915W        W74175  25.025  24.549  10.736
 1916W        W74176  26.242  10.478  11.061
 1917W        W74177  37.973  17.839   0.330
 1918W        W74178   0.209  44.327  13.874
 1919W        W74179  26.609  17.608   1.730
 1920W        W74180   1.057  36.112   2.160
 1921W        W74181   9.793  27.524   2.668
 1922W        W74182  36.308   7.179  10.436
 1923W        W74183  36.311   9.325  11.494
 1924W        W74184   3.369  38.243   0.216
 1925W        W74185   1.759  11.166  14.064
 1926W        W74186  36.426  43.519  12.652
 1927W        W74187  10.021   8.090   3.764
 1928W        W74188   6.971   6.702   2.602
 1929W        W74189  23.529   5.448   4.273
 1930W        W74190  34.567  28.090  10.424
 1931W        W74191   9.808   2.441  11.070
 1932W        W74192   4.438  28.077  13.176
 1933W        W74193   9.388   3.222  13.514
 1934W        W74194   7.293  42.772   0.150
 1935W        W74195  14.671  22.244  14.910
 1936W        W74196  30.636  25.700   4.037
 1937W        W74197  36.469  28.146  12.346
 1938W        W74198  11.402  29.102  12.530
 1939W        W74199   1.723  10.173   3.629
 1940W        W74200  23.613   6.730   4.882
 1941W        W74201  42.125  23.252  13.426
 1942W        W74202  33.311   8.040  11.763
 1943W        W74203  40.635  30.171   1.228
 1944W        W74204  24.942   2.470   1.399
 1945W        W74205  32.222  36.549  10.603
 1946W        W74206   2.758   9.677  13.884
 1947W        W74207  34.833  38.635  14.911
 1948W        W74208  23.572  15.085   3.760
 1949W        W74209   5.908  13.421   2.826
 1950W        W74210  27.270   5.298  13.522
 1951W        W74211  23.217   1.678   0.308
 1952W        W74212   2.109  16.101   4.533
 1953W        W74213  10.551   6.882  14.017
 1954W        W74214  33.052  43.479  12.585
 1955W        W74215  18.695  42.259   2.887
 1956W        W74216   4.989  15.246   0.462
 1957W        W74217  37.268  21.664   0.425
 1958W        W74218  23.083  43.467   2.441
 1959W        W74219   4.112  37.114  14.264
 1960W        W74220  24.007  38.024  12.631
 1961W        W74221  37.947  22.754   1.114
 1962W        W74222   5.929  39.534   1.334
 1963W        W74223   2.722   4.854   4.689
 1964W        W74224  44.508   0.379   0.829
 1965W        W74225  12.676  38.137   4.749
 1966W        W74226  16.408  44.788  11.129
 1967W        W74227   0.981  12.933  13.532
 1968W        W74228  20.961   6.877  10.373
 1969W        W74229  37.484  14.681   3.288
 1970W        W74230  21.728  16.082   4.482
 1971W        W74231  40.810  34.017  11.751
 1972W        W74232  40.461  34.375   0.195
 1973W        W74233   1.386  20.673   3.814
 1974W        W74234   2.350   1.798   2.163
 1975W        W74235  37.882  30.455  14.524
 1976W        W74236  30.980  13.228  11.432
 1977W        W74237  42.445  42.033  12.336
 1978W        W74238  32.012   7.064   2.121
 1979W        W74239  23.023  33.965   3.443
 1980W        W74240  21.789   1.540   2.830
 1981W        W74241  23.647  12.249  13.616
 1982W        W74242   9.118  39.455   3.872
 1983W        W74243  31.150  28.648  11.926
 1984W        W74244   7.216  44.898   4.831
 1985W        W74245  10.692  43.466   4.095
 1986W        W74246  41.746  20.497   4.248
 1987W        W74247  10.105  31.966   5.030
 1988W        W74248   3.403   9.576   2.366
 1989W        W74249   8.217   7.301   2.751
 1990W        W74250   2.259   7.477   2.699
 1991W        W74251  25.683   2.316  11.971
 1992W        W74252  32.147  28.515   0.881
 1993W        W74253   4.543  24.370  10.916
 1994W        W74254  29.861   4.352  10.650
 1995W        W74255  20.146  28.824   1.651
 1996W        W74256  19.093  43.276  14.379
 1997W        W74257  41.378   5.157  12.570
 1998W        W74258  30.839   6.361   3.664
 1999W        W74259  12.753  14.074   1.884
 2000W        W74260  29.168  29.333  12.153
 2001W        W74261   6.319   7.281  11.239
 2002W        W74262  21.280  43.456   2.620
 2003W        W74263  17.065   5.344   0.445
 2004W        W74264  25.888  18.609   1.283
 2005W        W74265  12.141  13.323  12.453
 2006W        W74266   9.428  41.500   3.674
 2007W        W74267  27.766  34.925   5.310
 2008W        W74268  12.618  26.371  12.062
 2009W        W74269  14.786  13.880   5.203
 2010W        W74270   7.947  16.998  13.536
 2011W        W74271  40.868  43.303  13.335
 2012W        W74272  12.613  12.384   2.338
 2013W        W74273  19.126  35.214   4.554
 2014W        W74274  39.438   5.213  12.576
 2015W        W74275   6.309   6.666  13.477
 2016W        W74276  14.748  14.273   4.849
 2017W        W74277   5.460  30.429   2.343
 2018W        W74278   5.881   0.570  14.801
 2019W        W74279  39.571  36.510   1.410
 2020W        W74280  10.659  38.539  13.511
 2021W        W74281  10.075  18.907   4.715
 2022W        W74282  33.535   7.757   1.507
 2023W        W74283  26.147  33.899   0.368
 2024W        W74284   0.056   1.919  12.944
 2025W        W74285  35.748   9.347  13.484
 2026W        W74286  44.930  15.311  12.428
 2027W        W74287  16.299  21.755  12.101
 2028W        W74288  20.651  32.388  10.948
 2029W        W74289   8.146  27.977   1.900
 2030W        W74290  29.920  38.631  12.437
 2031W        W74291  28.155  44.287  14.025
 2032W        W74292  28.043  29.880   2.235
 2033W        W74293  42.435  28.666  13.478
 2034W        W74294  29.545   9.365  11.466
 2035W        W74295   2.803  36.046   3.702
 2036W        W74296  26.947  17.049  13.875
 2037W        W74297  42.544  27.713  13.076
 2038W        W74298  19.263  11.804   3.259
 2039W        W74299  27.147  14.049   4.493
 2040W        W74300  37.383  23.778   1.689
 2041W        W74301  17.803  29.113   1.374
 2042W        W74302  17.565   5.920  14.779
 2043W        W74303  44.402   1.430   1.950
 2044W        W74304  27.639  43.053  12.993
 2045W        W74305  10.329  26.935  12.270
 2046W        W74306  28.973  22.179   4.662
 2047W        W74307  17.632  23.283  11.093
 2048W        W74308  37.939  33.334   3.206
 2049W        W74309  19.048  43.848   0.567
 2050W        W74310   7.737  33.369   2.729
 2051W        W74311  39.662  43.475   1.330
 2052W        W74312  37.572  20.875  14.948
 2053W        W74313  10.871   2.174   0.597
 2054W        W74314   0.154  27.675   1.389
 2055W        W74315  33.436  43.441   3.146
 2056W        W74316  27.627  36.343  13.532
 2057W        W74317  22.704   1.744   0.164
 2058W        W74318   5.384  33.492   2.136
 2059W        W74319  10.495  18.623   1.219
 2060W        W74320  33.900  37.815  11.580
 2061W        W74321  16.758  31.457   3.698
 2062W        W74322  15.450  25.846   1.756
 2063W        W74323   0.556  22.082   3.398
 2064W        W74324   7.943  35.815   5.104
 2065W        W74325  28.001  33.233  11.136
 2066W        W74326  37.032  23.114  12.027
 2067W        W74327  32.586  19.055   1.871
 2068W        W74328  26.942  25.768   5.192
 2069W        W74329  18.406  41.055  14.425
 2070W        W74330  32.447  28.128   4.472
 2071W        W74331  26.639  42.827   2.932
 2072W        W74332  23.842  30.013   1.324
 2073W        W74333   6.837  14.406   4.558
 2074W        W74334  37.454  12.225   0.407
 2075W        W74335  14.001  24.799  10.837
 2076W        W74336  12.930  13.847  14.562
 2077W        W74337  11.702   4.189  14.814
 2078W        W74338  27.977  36.458  12.936
 2079W        W74339   0.407   5.370   3.743
 2080W        W74340   2.750  16.966   0.370
 2081W        W74341  14.295  23.956  13.759
 2082W        W74342  14.271  44.522   0.803
 2083W        W74343  41.307  44.253  12.541
 2084W        W74344   8.419   6.673  14.340
 2085W        W74345  33.918  14.111  12.363
 2086W        W74346  38.811   8.567  14.867
 2087W        W74347   9.054   1.476   4.096
 2088W        W74348  41.958  23.439  12.089
 2089W        W74349  39.983   0.022   4.434
 2090W        W74350  20.534  11.855   1.848
 2091W        W74351  26.937  27.549   2.136
 2092W        W74352   2.687  26.108  14.958
 2093W        W74353  20.736  24.200   0.725
 2094W        W74354   8.657  23.823  14.006
 2095W        W74355  19.667  32.458   4.244
 2096W        W74356  42.260  23.447  10.835
 2097W        W74357  21.874   5.263   4.523
 2098W        W74358   7.735  30.521  12.835
 2099W        W74359   6.360  12.868  14.560
 2100W        W74360   7.604  44.572  11.571
 2101W        W74361  42.599  43.541  13.542
 2102W        W74362   1.357  31.058   2.632
 2103W        W74363  40.202  34.507  12.172
 2104W        W74364  13.182  15.354   4.886
 2105W        W74365  26.002  31.012   3.628
 2106W        W74366  33.391  31.921  13.298
 2107W        W74367  29.077  42.751   3.028
 2108W        W74368  39.807   8.223   0.002
 2109W        W74369  39.727  12.562  13.507
 2110W        W74370  28.304  23.942   1.733
 2111W        W74371   0.382   0.592  10.697
 2112W        W74372  38.848  32.341  10.681
 2113W        W74373  39.269  44.006  14.542
 2114W        W74374   2.332  19.707  11.138
 2115W        W74375   3.380  26.950  11.660
 2116W        W74376  19.009  30.220  11.524
 2117W        W74377   5.761  43.547   1.185
 2118W        W74378  14.263  11.516   1.445
 2119W        W74379  31.971   6.326   0.350
 2120W        W74380  22.427   6.554  10.452
 2121W        W74381  19.618  26.271  11.934
 2122W        W74382  20.119   1.338   3.692
 2123W        W74383  12.552  22.020   0.714
 2124W        W74384  39.047  38.926   1.909
 2125W        W74385   5.518  33.023   4.520
 2126W        W74386  23.671  16.248   2.122
 2127W        W74387  35.805  34.422  12.219
 2128W        W74388   1.318  31.173  12.598
 2129W        W74389  20.636  14.556  13.060
 2130W        W74390  38.373  30.472  11.852
 2131W        W74391  27.121  43.470  12.811
 2132W        W74392   5.790  42.784  11.076
 2133W        W74393  15.657  36.098  13.416
 2134W        W74394  32.239   2.943  12.557
 2135W        W74395  44.797  21.706  12.510
 2136W        W74396  27.426  31.194  12.045
 2137W        W74397   5.533  34.652  13.435
 2138W        W74398  35.587  36.842  12.567
 2139W        W74399  25.040  32.371  14.570
 2140W        W74400  27.986  20.724  10.558
 2141W        W74401  18.168  25.874   3.274
 2142W        W74402   2.310   8.414  14.793
 2143W        W74403  34.414  19.651   0.883
 2144W        W74404  23.043  25.014  10.044
 2145W        W74405  32.650  27.259  12.429
 2146W        W74406  43.773  38.354  12.563
 2147W        W74407  41.950  38.528  10.281
 2148W        W74408  43.088   3.866   3.135
 2149W        W74409  28.284  23.483   0.019
 2150W        W74410  34.490  38.835  11.296
 2151W        W74411   0.389   2.444  12.105
 2152W        W74412  26.414  41.558   0.862
 2153W        W74413   8.426   8.516   5.015
 2154W        W74414  19.526  30.900  12.953
 2155W        W74415   7.897  34.925   0.911
 2156W        W74416  28.406  10.367  12.494
 2157W        W74417   8.960  40.492   1.948
 2158W        W74418  41.178  10.617   2.315
 2159W        W74419   9.427  29.129   1.314
 2160W        W74420  12.784  44.668   0.313
 2161W        W74421  44.356   5.674   0.945
 2162W        W74422  20.527  22.264  12.176
 2163W        W74423  32.021   8.404   4.724
 2164W        W74424  13.848  19.027  12.136
 2165W        W74425  19.187   0.434  11.595
 2166W        W74426  43.976  43.748  14.386
 2167W        W74427   3.225   7.974   0.020
 2168W        W74428   3.232  12.786   2.382
 2169W        W74429   4.749  19.529  11.592
 2170W        W74430   0.395  16.552   3.584
 2171W        W74431  19.539  42.384  14.684
 2172W        W74432  38.138  41.844   4.234
 2173W        W74433  39.953  14.279  14.738
 2174W        W74434  33.616  23.809   0.950
 2175W        W74435  31.651   8.647   0.683
 2176W        W74436  26.996  26.617   1.343
 2177W        W74437  20.855   9.438   1.750
 2178W        W74438   4.643   0.560   3.464
 2179W        W74439  21.468  25.962  11.517
 2180W        W74440   3.715  38.355   2.462
 2181W        W74441  39.233   3.684   0.778
 2182W        W74442   7.361  20.766  10.305
 2183W        W74443  43.494  21.508   3.620
 2184W        W74444  11.939  17.761  11.017
 2185W        W74445  42.481  11.979  12.598
 2186W        W74446   5.518  10.158  11.967
 2187W        W74447  14.694  28.892   4.174
 2188W        W74448  30.850  43.893  12.928
 2189W        W74449  12.264   8.435   4.714
 2190W        W74450  34.076  23.278   0.246
 2191W        W74451   1.357  39.604   2.393
 2192W        W74452  12.152   1.017  10.398
 2193W        W74453  32.109  20.912   2.846
 2194W        W74454  13.381  43.365  11.091
 2195W        W74455  24.997  16.650  10.384
 2196W        W74456  20.284  28.369  11.390
 2197W        W74457  18.258   8.460  10.207
 2198W        W74458  26.133   3.921   0.701
 2199W        W74459  19.527  34.649   2.656
 2200W        W74460  44.055  34.527   1.803
 2201W        W74461  36.939  27.886  13.800
 2202W        W74462  24.757  21.084  11.200
 2203W        W74463  33.326  19.754   4.553
 2204W        W74464  21.685  31.378  14.939
 2205W        W74465  41.788  16.478   1.419
 2206W        W74466  27.685  25.180   4.386
 2207W        W74467  44.534  41.513   1.807
 2208W        W74468  21.612  19.528   0.907
 2209W        W74469  28.070  22.239  13.552
 2210W        W74470  27.176  21.141   3.245
 2211W        W74471  30.538   7.821   0.815
 2212W        W74472  19.984  23.711  13.493
 2213W        W74473  30.672  23.499  14.914
 2214W        W74474  36.110   0.247  13.891
 2215W        W74475   7.897  41.405  10.757
 2216W        W74476   3.966  16.851   0.372
 2217W        W74477  38.767  43.867  13.005
 2218W        W74478   0.374  27.967  14.758
 2219W        W74479  12.827  25.960  13.364
 2220W        W74480   1.735  41.013  13.947
 2221W        W74481  13.400   2.403   1.725
 2222W        W74482  13.582  15.562   2.081
 2223W        W74483  18.298  37.567  11.088
 2224W        W74484  20.094   5.113   2.245
 2225W        W74485  35.396  29.222   0.851
 2226W        W74486  34.618  43.884  13.104
 2227W        W74487  13.670   7.837  13.549
 2228W        W74488  24.491  11.476  11.654
 2229W        W74489  22.089   3.865   4.076
 2230W        W74490  27.461  20.577  14.390
 2231W        W74491  14.875  36.115   0.796
 2232W        W74492  24.307  34.454   9.736
 2233W        W74493  31.467  30.999  14.779
 2234W        W74494  12.277  34.752  10.785
 2235W        W74495   7.345  28.181   3.677
 2236W        W74496   3.396  40.193   3.311
 2237W        W74497  22.979  31.564  12.781
 2238W        W74498  37.484  28.560  13.766
 2239W        W74499  16.674  27.167  13.778
 2240W        W74500  35.531  24.251   2.676
 2241W        W74501  16.722   2.008   3.285
 2242W        W74502  26.980  14.163   2.680
 2243W        W74503  38.336   2.865   1.286
 2244W        W74504   5.008  19.728   2.125
 2245W        W74505  22.972  21.666  14.500
 2246W        W74506   2.446   5.375  11.711
 2247W        W74507  10.461  34.412  11.441
 2248W        W74508   2.910  39.404   1.392
 2249W        W74509  16.706   9.112   1.715
 2250W        W74510  39.841  10.899   0.547
 2251W        W74511   7.493  18.887   4.560
 2252W        W74512  19.246   9.008  10.156
 2253W        W74513  41.870  24.610   2.696
 2254W        W74514  19.275  24.711  11.600
 2255W        W74515  24.941  40.938  12.792
 2256W        W74516  20.012   3.254  14.868
 2257W        W74517  36.264  23.741   3.695
 2258W        W74518   7.928  32.020   1.921
 2259W        W74519  16.015  41.457   4.265
 2260W        W74520  34.623  32.107  12.941
 2261W        W74521  29.548  10.652  12.936
 2262W        W74522  35.552   1.372  10.898
 2263W        W74523  36.592  31.797   3.744
 2264W        W74524  35.117  21.616   4.648
 2265W        W74525  27.518  24.579   0.703
 2266W        W74526  29.105   3.335   3.163
 2267W        W74527   1.484   0.742   1.928
 2268W        W74528  28.999  44.242   3.640
 2269W        W74529  33.109   0.311   1.792
 2270W        W74530  35.015  32.607  11.765
 2271W        W74531  33.423  43.452   4.191
 2272W        W74532  27.267  35.932  14.722
 2273W        W74533  32.671  14.178  13.933
 2274W        W74534  32.607   8.757   1.535
 2275W        W74535   0.547  11.087  14.535
 2276W        W74536  37.616  41.433  14.358
 2277W        W74537  39.613  22.483  12.118
 2278W        W74538  18.509  18.587   5.029
 2279W        W74539  14.123  24.374  11.097
 2280W        W74540  28.000  39.995  14.520
 2281W        W74541  16.696  43.821   0.379
 2282W        W74542  42.029  20.048  14.995
 2283W        W74543  38.469   8.249  14.156
 2284W        W74544   0.731  10.888  11.928
 2285W        W74545  33.186  12.181   4.659
 2286W        W74546  34.778  29.118  11.369
 2287W        W74547  33.211  27.015   3.373
 2288W        W74548  26.011  19.094   3.270
 2289W        W74549   0.280  10.658  11.065
 2290W        W74550  39.176   8.079  11.074
 2291W        W74551   6.548  38.799  11.539
 2292W        W74552  22.753  37.004   2.756
 2293W        W74553   8.631   5.415   3.337
 2294W        W74554  21.085  18.257  14.234
 2295W        W74555  33.082   3.265  12.474
 2296W        W74556   7.089  15.359   4.035
 2297W        W74557  30.613  29.085  10.496
 2298W        W74558  38.093  29.036  13.528
 2299W        W74559  15.381  43.960   4.135
 2300W        W74560   1.785   5.818   2.570
 2301W        W74561  32.555  42.210   0.941
 2302W        W74562  10.253  29.844   1.190
 2303W        W74563  20.864  12.075   3.697
 2304W        W74564  16.873  13.240  13.348
 2305W        W74565  36.157   9.194   1.216
 2306W        W74566   2.414   2.371  14.904
 2307W        W74567  36.411   5.442  13.028
 2308W        W74568  32.078   7.648   1.216
 2309W        W74569  43.350  37.174   4.367
 2310W        W74570  33.221  17.501  11.913
 2311W        W74571  10.073   8.724   3.142
 2312W        W74572  28.192  16.166  11.202
 2313W        W74573  35.172   2.465   1.774
 2314W        W74574  40.190  10.317   2.415
 2315W        W74575  16.231  26.822   1.551
 2316W        W74576  34.780  22.775   4.196
 2317W        W74577  19.542  29.055   4.657
 2318W        W74578  23.381  30.673   1.882
 2319W        W74579  42.077  35.709   4.971
 2320W        W74580   0.518  22.187   0.740
 2321W        W74581  34.209  13.807   0.403
 2322W        W74582  13.158  16.047  12.784
 2323W        W74583  34.979   6.641  14.401
 2324W        W74584  14.380  17.057   2.121
 2325W        W74585  42.362  31.992  12.820
 2326W        W74586  17.288  39.303  14.744
 2327W        W74587  16.306  30.353   2.414
 2328W        W74588   1.523  22.291   0.376
 2329W        W74589  35.872  33.574  11.989
 2330W        W74590  39.515   1.875   4.659
 2331W        W74591   7.847  36.634   2.468
 2332W        W74592   2.841  33.370  14.247
 2333W        W74593  35.430   3.920   0.712
 2334W        W74594  26.590  43.716  12.105
 2335W        W74595  19.623  16.264  12.489
 2336W        W74596  21.644  30.386  11.478
 2337W        W74597  31.867  38.169  11.592
 2338W        W74598  14.853  35.287   3.316
 2339W        W74599  19.221  23.851   0.404
 2340W        W74600  11.337  19.153  14.481
 2341W        W74601  38.826  31.023  14.088
 2342W        W74602   0.416  19.498  11.306
 2343W        W74603  33.890   1.866   3.890
 2344W        W74604  41.741  43.971  12.558
 2345W        W74605  35.922  17.592   0.602
 2346W        W74606  17.187   0.703   4.663
 2347W        W74607  38.281  17.726   1.264
 2348W        W74608  24.049   6.878   1.775
 2349W        W74609  41.734   3.258  13.763
 2350W        W74610   1.515  29.501   4.172
 2351W        W74611  43.790  13.385   3.960
 2352W        W74612  13.104  40.432   3.700
 2353W        W74613  40.439   9.874   9.884
 2354W        W74614  38.434  33.595   4.444
 2355W        W74615   3.928   3.306   3.717
 2356W        W74616  40.014   7.844  13.312
 2357W        W74617  17.129   8.345  12.040
 2358W        W74618  26.232  36.958  12.141
 2359W        W74619  43.980  15.824   1.513
 2360W        W74620  17.183   7.754   0.832
 2361W        W74621  37.551  21.746  13.023
 2362W        W74622  12.093  13.424   2.154
 2363W        W74623  24.160  39.608   3.340
 2364W        W74624   4.185  25.357  10.763
 2365W        W74625   3.397   2.228   2.861
 2366W        W74626  20.591  37.446   2.277
 2367W        W74627  33.486  19.240  11.136
 2368W        W74628  43.074  20.456   4.587
 2369W        W74629  12.902  42.182  14.382
 2370W        W74630  10.468  20.556   1.779
 2371W        W74631  38.025  14.901  12.527
 2372W        W74632  33.355  28.310  12.520
 2373W        W74633  39.527  43.872  14.981
 2374W        W74634   4.976  21.218   3.195
 2375W        W74635  32.694   0.339  10.397
 2376W        W74636  19.250  27.154   1.820
 2377W        W74637  38.327  12.766  13.464
 2378W        W74638   7.414   5.430   1.670
 2379W        W74639   3.902   4.467   2.892
 2380W        W74640  35.820  12.457  11.151
 2381W        W74641  38.507  30.613   1.688
 2382W        W74642   1.060   5.243   0.278
 2383W        W74643  43.840  30.206   2.748
 2384W        W74644  25.047  33.989   4.716
 2385W        W74645  13.325  35.834   0.610
 2386W        W74646  33.032  25.903  14.889
 2387W        W74647  44.047  26.966   0.791
 2388W        W74648  33.925  44.380   4.302
 2389W        W74649   0.498   9.709   1.437
 2390W        W74650  12.587  31.031  10.971
 2391W        W74651  26.509  34.868   5.058
 2392W        W74652  13.677   7.469   4.179
 2393W        W74653  33.475  20.081  10.704
 2394W        W74654  22.105  10.172   3.588
 2395W        W74655  39.528  41.969  13.452
 2396W        W74656  29.431  36.090  14.803
 2397W        W74657   3.304  30.055   2.457
 2398W        W74658  37.318  12.703  11.719
 2399W        W74659  27.506   9.503   2.230
 2400W        W74660  35.685   8.218   3.612
 2401W        W74661  29.497  18.917  12.052
 2402W        W74662  33.444  36.463  10.331
 2403W        W74663  16.748  20.364  13.541
 2404W        W74664  22.673   1.878   1.746
 2405W        W74665  42.055  22.010  11.983
 2406W        W74666  39.924  15.071  12.109
 2407W        W74667  31.019   7.354  13.508
 2408W        W74668  32.405  44.338  12.569
 2409W        W74669   2.326  35.185   4.778
 2410W        W74670  38.358   0.501   3.529
 2411W        W74671  25.921  28.969  11.162
 2412W        W74672   5.095  31.016   0.369
 2413W        W74673  39.822  31.308  13.032
 2414W        W74674   3.820  18.711  12.488
 2415W        W74675  10.417  12.110  14.453
 2416W        W74676  25.867  27.084   0.915
 2417W        W74677  31.689  14.161   2.503
 2418W        W74678   2.217   2.226   0.797
 2419W        W74679   9.747  41.906   2.992
 2420W        W74680  41.357  20.046   2.464
 2421W        W74681  17.136  38.738   1.270
 2422W        W74682  33.666   6.433  12.459
 2423W        W74683  25.018   7.626   4.541
 2424W        W74684   0.520  21.566  14.003
 2425W        W74685  25.653  40.171   2.843
 2426W        W74686  29.416  35.368   0.907
 2427W        W74687   4.910  25.972   3.892
 2428W        W74688  10.724  21.101   0.191
 2429W        W74689  21.875  25.337   0.290
 2430W        W74690   8.178  33.981   0.715
 2431W        W74691  39.759   6.250  12.837
 2432W        W74692  27.177   3.196   0.370
 2433W        W74693  43.990   9.822  12.444
 2434W        W74694  37.451  27.750   0.350
 2435W        W74695  36.956  14.597  11.559
 2436W        W74696  38.687  20.617  10.409
 2437W        W74697  25.614   3.055   2.800
 2438W        W74698  11.152  39.265   2.807
 2439W        W74699  15.135  24.961   3.596
 2440W        W74700  32.096   2.863  13.046
 2441W        W74701  11.574  25.237   2.684
 2442W        W74702  38.930   7.850  10.391
 2443W        W74703  22.192  16.318  11.148
 2444W        W74704  44.468  15.621   5.066
 2445W        W74705  27.458  16.949   1.810
 2446W        W74706  41.353  34.446  13.541
 2447W        W74707  11.602  25.225  13.170
 2448W        W74708  35.440  39.812  12.900
 2449W        W74709   8.725  16.635  13.091
 2450W        W74710  30.184  36.301   2.330
 2451W        W74711  42.995  20.558  11.522
 2452W        W74712  16.564  38.223  12.415
 2453W        W74713  33.953  42.451   4.619
 2454W        W74714  28.242   6.830   4.426
 2455W        W74715   7.716   1.258  11.977
 2456W        W74716  31.449   4.559  12.632
 2457W        W74717  24.163  23.898   0.059
 2458W        W74718  43.867  30.104   3.609
 2459W        W74719   0.831  16.334   1.016
 2460W        W74720  41.572  31.583  11.100
 2461W        W74721   9.278  24.020   1.764
 2462W        W74722  29.494  18.650   0.060
 2463W        W74723  23.530   5.311   2.753
 2464W        W74724  16.828  18.956   3.759
 2465W        W74725  23.284  38.044   2.300
 2466W        W74726  19.583   7.796   1.132
 2467W        W74727   2.008  22.544   1.297
 2468W        W74728  34.137  32.448  11.999
 2469W        W74729  44.418  23.509   3.789
 2470W        W74730  14.055  20.784   3.354
 2471W        W74731  24.404  15.546  14.295
 2472W        W74732  14.585   3.983  11.942
 2473W        W74733   7.204   4.484  11.125
 2474W        W74734  43.819  24.479  12.858
 2475W        W74735  38.288   0.453   2.136
 2476W        W74736  15.021  42.342  11.484
 2477W        W74737  32.479  17.568   2.940
 2478W        W74738  19.168  38.507   0.155
 2479W        W74739  14.162  22.909  14.373
 2480W        W74740  40.533  35.945  13.729
 2481W        W74741  36.962  39.278   2.327
 2482W        W74742  22.245   6.945   1.785
 2483W        W74743  21.955  26.075   4.146
 2484W        W74744  30.846   7.304  14.388
 2485W        W74745   1.812  35.666   4.379
 2486W        W74746  34.386  41.027   4.682
 2487W        W74747  42.306  11.351  14.898
 2488W        W74748   7.293   7.167  10.585
 2489W        W74749  38.121  40.838  12.014
 2490W        W74750  29.980   5.918  11.624
 2491W        W74751  24.681  35.412   3.676
 2492W        W74752  15.811  29.956   1.782
 2493W        W74753  15.835  24.359   5.079
 2494W        W74754  27.866  17.626  11.858
 2495W        W74755  28.999  16.695  13.391
 2496W        W74756  35.506  21.017  13.957
 2497W        W74757  14.125  21.580   2.404
 2498W        W74758   0.762   4.320   3.674
 2499W        W74759  30.402   1.284  14.376
 2500W        W74760  23.454  22.628   1.352
 2501W        W74761  14.373  19.178  12.919
 2502W        W74762  37.854  43.877  13.486
 2503W        W74763  28.032   3.033   0.410
 2504W        W74764  27.925   7.805   1.955
 2505W        W74765   8.226  27.886  13.585
 2506W        W74766  10.953   4.781   1.946
 2507W        W74767  25.673   9.241   4.697
 2508W        W74768  37.036  37.827   1.812
 2509W        W74769  13.578  36.314  14.916
 2510W        W74770   6.357  24.244   3.648
 2511W        W74771  33.038  14.071  13.427
 2512W        W74772   6.723  42.940  14.393
 2513W        W74773  40.895  40.021   2.631
 2514W        W74774   1.699  22.806   3.634
 2515W        W74775  35.451  30.588  13.143
 2516W        W74776  22.653  34.086  12.930
 2517W        W74777  21.280  22.969   4.145
 2518W        W74778  28.484  26.231  11.639
 2519W        W74779   4.264  21.700   2.332
 2520W        W74780  38.351   6.348  12.991
 2521W        W74781   3.744  41.394   4.665
 2522W        W74782   9.647  16.358   2.664
 2523W        W74783   1.326  30.938  12.138
 2524W        W74784  12.649  17.952   4.687
 2525W        W74785  13.136  41.026   3.721
 2526W        W74786  40.425  33.127   2.232
 2527W        W74787  12.243  30.643  14.363
 2528W        W74788  44.025  19.893   2.347
 2529W        W74789  40.574  17.546  10.702
 2530W        W74790  42.508  42.825  14.783
 2531W        W74791   6.311  36.671  11.931
 2532W        W74792  23.200   4.187  12.456
 2533W        W74793   3.995  29.514   1.815
 2534W        W74794  28.029  21.108  11.046
 2535W        W74795  33.352  36.936   1.657
 2536W        W74796  10.391  44.724   1.935
 2537W        W74797  38.517  42.244  13.489
 2538W        W74798   5.286   8.976  14.545
 2539W        W74799  15.229  17.191   9.808
 2540W        W74800  40.563  13.767   3.305
 2541W        W74801  21.157  14.405   3.451
 2542W        W74802  39.894   1.379  13.082
 2543W        W74803   0.501  40.799   2.089
 2544W        W74804  10.677  25.013  11.490
 2545W        W74805  27.005  35.345  12.959
 2546W        W74806  35.410  28.266   3.295
 2547W        W74807  26.700  25.188  11.596
 2548W        W74808  39.342  39.766  13.733
 2549W        W74809  38.618  24.895  11.682
 2550W        W74810   0.937  22.968  12.010
 2551W        W74811   5.500   3.438   1.319
 2552W        W74812   7.289  10.197   0.866
 2553W        W74813  23.242  22.224  13.397
 2554W        W74814   0.755   8.787  13.096
 2555W        W74815   8.521   2.891   0.110
 2556W        W74816   5.209  23.744  10.725
 2557W        W74817  38.947  21.782  12.895
 2558W        W74818  35.411   7.572  12.846
 2559W        W74819   9.325  29.469  10.681
 2560W        W74820  23.295   3.516  13.073
 2561W        W74821  16.772  29.657   3.051
 2562W        W74822  18.406   9.450   9.910
 2563W        W74823  14.484   2.796  13.068
 2564W        W74824  35.790  31.149  10.695
 2565W        W74825  40.389  37.232   3.637
 2566W        W74826   1.269   0.596   1.441
 2567W        W74827  22.509  11.223   4.223
 2568W        W74828   6.205  27.532   2.281
 2569W        W74829   6.921  27.073   4.733
 2570W        W74830  27.042  28.147  13.263
 2571W        W74831  40.771   0.498   0.147
 2572W        W74832   1.515  19.970   3.789
 2573W        W74833   2.168  36.014  12.861
 2574W        W74834  25.573  37.675   4.224
 2575W        W74835  17.163  25.023  12.103
 2576W        W74836   0.654   3.236  11.212
 2577W        W74837  19.793  23.022   2.863
 2578W        W74838  38.061  21.563  14.338
 2579W        W74839  23.363  28.442  10.550
 2580W        W74840  38.057  44.024  11.738
 2581W        W74841   2.193  12.672   3.187
 2582W        W74842  23.636  20.197  11.809
 2583W        W74843   5.543  18.299  11.376
 2584W        W74844  15.095  14.154   0.062
 2585W        W74845  38.928   4.150  13.598
 2586W        W74846   6.926  44.778  11.956
 2587W        W74847  28.440  38.277   1.397
 2588W        W74848   6.398  40.197   0.967
 2589W        W74849  37.077  30.191   2.725
 2590W        W74850  18.045  16.068   4.122
 2591W        W74851  14.427  36.085   2.279
 2592W        W74852   6.290  44.251   3.226
 2593W        W74853  20.296  36.398  12.461
 2594W        W74854  28.693  25.302  12.902
 2595W        W74855  12.164  31.964  12.798
 2596W        W74856   3.084  29.979   1.897
 2597W        W74857  25.621  30.401  11.078
 2598W        W74858  39.493  20.525   3.724
 2599W        W74859   0.377  37.378   4.578
 2600W        W74860  23.053  42.250   2.630
 2601W        W74861  29.894   3.273  11.282
 2602W        W74862  28.967   3.476   0.430
 2603W        W74863   8.700   9.675   3.391
 2604W        W74864   8.296  29.540   2.336
 2605W        W74865  18.489  23.846  13.504
 2606W        W74866  19.735   0.383  13.496
 2607W        W74867  36.826  37.425   2.787
 2608W        W74868  44.520  29.791   3.364
 2609W        W74869  26.939  10.681  12.353
 2610W        W74870  16.009  40.347  11.560
 2611W        W74871   2.054   6.217   0.509
 2612W        W74872  29.204  26.128  13.329
 2613W        W74873  10.987  44.407   3.803
 2614W        W74874   2.739  32.213   0.033
 2615W        W74875  22.156  31.910   2.396
 2616W        W74876  25.024   2.495  14.343
 2617W        W74877   5.349   0.612   4.553
 2618W        W74878   6.420  18.952   4.312
 2619W        W74879  35.422  21.623   3.905
 2620W        W74880  41.447   4.419   4.004
 2621W        W74881  23.623  13.160  10.735
 2622W        W74882   5.421  17.151   4.538
 2623W        W74883  41.430   5.146  13.284
 2624W        W74884  16.493  11.608   3.590
 2625W        W74885  38.890  28.320  12.435
 2626W        W74886   5.286  23.091  14.740
 2627W        W74887   9.541   5.151   0.487
 2628W        W74888  10.946  18.236  10.691
 2629W        W74889  25.622  35.850   3.072
 2630W        W74890  27.140  13.701   3.549
 2631W        W74891  31.880  10.035  12.536
 2632W        W74892  31.610   4.879   3.761
 2633W        W74893  41.470  26.520  14.730
 2634W        W74894  39.831  41.308   0.722
 2635W        W74895  33.097  35.404   4.769
 2636W        W74896  11.453  40.037  12.427
 2637W        W74897  16.253  20.607   2.103
 2638W        W74898  17.696   0.891  11.373
 2639W        W74899  24.422  14.666   0.505
 2640W        W74900   5.909  21.152  13.069
 2641W        W74901  39.992   4.805  11.938
 2642W        W74902  35.135  32.659   0.726
 2643W        W74903  28.439  40.661  10.925
 2644W        W74904  35.044  32.371   0.316
 2645W        W74905   4.669   1.269   4.236
 2646W        W74906  36.733   4.568   4.144
 2647W        W74907   9.788   5.482  10.686
 2648W        W74908   5.356  33.644   3.006
 2649W        W74909  26.696  41.946   1.103
 2650W        W74910   7.719  11.770  13.732
 2651W        W74911  25.012   8.570  12.463
 2652W        W74912  42.402  13.233   2.163
 2653W        W74913  28.654  13.729   4.092
 2654W        W74914  38.008  34.258   4.131
 2655W        W74915  24.175  37.501  10.740
 2656W        W74916  39.345  22.302   2.437
 2657W        W74917  28.611  17.500   1.102
 2658W        W74918   1.524  19.917  14.613
 2659W        W74919  30.764  31.091  13.377
 2660W        W74920  34.058  16.816   4.107
 2661W        W74921  43.105  15.517  11.109
 2662W        W74922  44.350  19.598  10.465
 2663W        W74923   1.975  41.568   1.713
 2664W        W74924  44.221  10.547  11.250
 2665W        W74925   3.020   9.823   0.471
 2666W        W74926  14.224  27.626   1.118
 2667W        W74927  44.230  12.935   2.303
 2668W        W74928  36.483   7.230  14.996
 2669W        W74929  32.459  26.062   2.282
 2670W        W74930  44.828  15.660  11.761
 2671W        W74931  41.794  31.069   1.397
 2672W        W74932  30.934   8.820   4.206
 2673W        W74933  21.272   4.846  13.553
 2674W        W74934   8.591  40.980  13.857
 2675W        W74935   8.916  43.839  11.108
 2676W        W74936   8.328  21.490  14.368
 2677W        W74937   0.561  20.800  12.421
 2678W        W74938  14.357  16.051  12.954
 2679W        W74939  20.660  27.241   9.906
 2680W        W74940  15.246  41.032  14.536
 2681W        W74941  11.809  13.212   3.459
 2682W        W74942  28.486  11.704  13.087
 2683W        W74943  10.766  18.170   1.439
 2684W        W74944  44.713  19.662  13.291
 2685W        W74945  31.633  38.912   1.385
 2686W        W74946   6.360  38.905  12.015
 2687W        W74947   7.154  13.563  10.381
 2688W        W74948  19.881  18.053   2.183
 2689W        W74949   7.716  17.105   0.921
 2690W        W74950  21.567  26.404  14.968
 2691W        W74951  41.818  11.703  13.250
 2692W        W74952  20.499  31.032   0.395
 2693W        W74953  13.465   4.649   3.658
 2694W        W74954  39.591  22.444  10.851
 2695W        W74955  15.587  28.694   4.235
 2696W        W74956  43.917  11.808  11.708
 2697W        W74957  35.907  18.527  14.533
 2698W        W74958  16.463   2.793   2.279
 2699W        W74959  37.624  40.034  11.616
 2700W        W74960  22.709  15.937   0.195
 2701W        W74961   7.899  19.722   0.032
 2702W        W74962  29.024  15.724  10.708
 2703W        W74963  28.278   6.174   1.435
 2704W        W74964  10.450  13.762   2.760
 2705W        W74965  12.724  13.060   2.669
 2706W        W74966  36.001  22.176   4.703
 2707W        W74967  39.149   4.852  11.300
 2708W        W74968  12.181  31.602   4.774
 2709W        W74969  30.937  12.025  14.451
 2710W        W74970  25.248  16.601   3.593
 2711W        W74971  26.942  23.517   4.903
 2712W        W74972  40.477  29.651   1.159
 2713W        W74973  12.745  43.763   1.923
 2714W        W74974  12.054  15.943   1.477
 2715W        W74975   7.261  34.934  10.800
 2716W        W74976  29.371  18.152  14.318
 2717W        W74977   6.447  18.132   3.968
 2718W        W74978  32.170  10.054   0.955
 2719W        W74979  20.184  17.197   0.572
 2720W        W74980  11.619  19.116   1.600
 2721W        W74981   3.377   9.838   4.333
 2722W        W74982   7.709  30.409  10.487
 2723W        W74983   2.322  17.102  13.806
 2724W        W74984  17.124   6.755   2.552
 2725W        W74985   5.670  12.719   2.330
 2726W        W74986   4.041  25.960   5.570
 2727W        W74987   1.770   0.746   0.356
 2728W        W74988  31.694  22.203   3.953
 2729W        W74989  15.369   5.321   2.897
 2730W        W74990  24.049  42.865   1.439
 2731W        W74991   9.231  23.716   1.197
 2732W        W74992  10.241  21.836   1.232
 2733W        W74993  18.342  15.612  13.383
 2734W        W74994  37.149  27.209   3.684
 2735W        W74995  22.536  17.893  13.882
 2736W        W74996   0.827  35.429  12.144
 2737W        W74997  25.649  10.624   0.205
 2738W        W74998   7.403  15.761   2.352
 2739W        W74999  31.468  32.166  14.369
 2740W        W75000  13.341  19.460  14.943
 2741W        W75001   1.487   1.910   2.162
 2742W        W75002  10.028  43.851   4.434
 2743W        W75003  35.023  15.426   1.753
 2744W        W75004   9.907  12.239  11.638
 2745W        W75005  27.687  22.049   0.409
 2746W        W75006  24.911  14.257   1.190
 2747W        W75007  42.064  11.116   0.473
 2748W        W75008  28.423  18.830   0.821
 2749W        W75009  44.752  38.509  10.599
 2750W        W75010   4.947  21.549   0.220
 2751W        W75011   8.353  29.927  10.946
 2752W        W75012  23.355  22.614  11.726
 2753W        W75013   1.751   5.353   2.285
 2754W        W75014   1.245  25.814   0.778
 2755W        W75015   3.112   4.253   0.287
 2756W        W75016  36.843   1.638   3.731
 2757W        W75017  20.223   9.848  10.624
 2758W        W75018  21.087  40.413   1.263
 2759W        W75019  25.366  29.938  10.971
 2760W        W75020  43.873  13.945   0.019
 2761W        W75021  19.270  11.270   0.654
 2762W        W75022  27.467  25.004   0.377
 2763W        W75023   2.833  41.254  12.415
 2764W        W75024  15.905  43.884  13.019
 2765W        W75025  36.214  42.056   0.319
 2766W        W75026  35.500  20.231  13.453
 2767W        W75027   4.973  13.141  14.125
 2768W        W75028  37.114  12.390   1.389
 2769W        W75029  19.776  26.181   3.674
 2770W        W75030  36.581   1.914  12.874
 2771W        W75031  25.047  41.639  12.536
 2772W        W75032   4.293  15.786   0.199
 2773W        W75033  42.052   1.737  12.142
 2774W        W75034  36.505  14.531  12.604
 2775W        W75035  36.326  35.813  14.382
 2776W        W75036  37.069  40.098   2.776
 2777W        W75037  40.904  27.902  13.995
 2778W        W75038  33.573  17.661  10.807
 2779W        W75039  24.502  41.451   1.408
 2780W        W75040  43.439  29.477  13.470
 2781W        W75041  13.221  18.357   2.608
 2782W        W75042  21.202  43.583  14.506
 2783W        W75043  27.203  12.385   2.078
 2784W        W75044  26.847  39.291  12.894
 2785W        W75045  38.810  38.461  12.027
 2786W        W75046  11.660  14.813   0.962
 2787W        W75047   3.854  19.248  13.436
 2788W        W75048  15.070  22.018   2.326
 2789W        W75049  26.156  14.617   0.970
 2790W        W75050  39.796  33.520   0.802
 2791W        W75051  24.272  19.053  14.408
 2792W        W75052  33.592  12.225  14.746
 2793W        W75053  10.091  31.892  12.761
 2794W        W75054   3.728  20.168   0.941
 2795W        W75055   5.647  11.856   2.504
 2796W        W75056  10.147  40.525  14.485
 2797W        W75057   5.362  12.790   0.100
 2798W        W75058  11.262  13.406  12.451
 2799W        W75059  10.006   4.824   9.873
 2800W        W75060  18.460   6.999  11.548
 2801W        W75061  33.195  27.152   2.880
 2802W        W75062  17.263  14.873   2.260
 2803W        W75063  20.179   9.857   4.139
 2804W        W75064  23.704  28.054   1.821
 2805W        W75065  40.960  27.765  11.213
 2806W        W75066  28.107   9.729   2.952
 2807W        W75067   5.554  25.594   5.433
 2808W        W75068  32.862   1.790  12.465
 2809W        W75069   6.661  19.123  11.782
 2810W        W75070  43.304   9.281   3.757
 2811W        W75071   3.601  43.805   0.672
 2812W        W75072   3.995  21.051   4.496
 2813W        W75073   4.547  33.016  12.140
 2814W        W75074  14.290  31.201   1.877
 2815W        W75075  17.561   5.959   5.496
 2816W        W75076  15.127   0.983   4.286
 2817W        W75077   9.880  30.534  11.031
 2818W        W75078  20.800  29.131   1.208
 2819W        W75079  12.767  37.066   4.776
 2820W        W75080  11.694  23.098   0.886
 2821W        W75081  22.546  35.099   4.575
 2822W        W75082  34.995  38.595   1.314
 2823W        W75083  31.833  31.820  14.420
 2824W        W75084  41.657  35.279  11.927
 2825W        W75085   2.886  41.401   2.770
 2826W        W75086   4.163  14.827  13.005
 2827W        W75087  18.196   9.148  14.742
 2828W        W75088   4.939  13.686  11.581
 2829W        W75089  35.580   1.158   3.660
 2830W        W75090  43.641  14.205   1.859
 2831W        W75091  24.214  29.565  10.814
 2832W        W75092  27.498   1.692   4.252
 2833W        W75093  17.695   7.805   1.603
 2834W        W75094  20.443   0.391  12.067
 2835W        W75095  38.518  33.503   1.972
 2836W        W75096  25.126  22.215   1.870
 2837W        W75097   3.403   4.595  11.838
 2838W        W75098  39.922  10.914   1.975
 2839W        W75099   1.798  18.589   4.571
 2840W        W75100  39.568  24.699   4.406
 2841W        W75101   7.208   6.763   1.198
 2842W        W75102   3.626  23.264   1.694
 2843W        W75103  36.258  42.725  11.640
 2844W        W75104  32.593   4.404  11.436
 2845W        W75105  28.641  16.996   3.722
 2846W        W75106  29.616   0.419   0.378
 2847W        W75107  32.807  34.033  11.745
 2848W        W75108  33.134  34.925  11.086
 2849W        W75109  11.570  10.478  12.687
 2850W        W75110  39.474  30.719   3.672
 2851W        W75111  15.753  37.528   2.787
 2852W        W75112  38.460   5.487   1.030
 2853W        W75113  27.433  15.532  13.441
 2854W        W75114  38.821  33.501   3.560
 2855W        W75115  34.539  33.386   0.939
 2856W        W75116  40.928   1.812   3.299
 2857W        W75117  14.174  18.461  11.427
 2858W        W75118  26.354  18.525   4.262
 2859W        W75119  26.661   8.580  12.661
 2860W        W75120  33.586  15.893   3.643
 2861W        W75121  26.965  25.934  11.211
 2862W        W75122   5.201   9.359  13.114
 2863W        W75123  22.344  15.363   4.927
 2864W        W75124   9.988  41.626   9.938
 2865W        W75125  41.442   0.180   2.890
 2866W        W75126  27.991  18.224   4.863
 2867W        W75127  25.758  16.965  12.010
 2868W        W75128  12.571  29.064   1.602
 2869W        W75129  40.067  14.374   0.241
 2870W        W75130  27.486  10.105   4.095
 2871W        W75131  22.213   5.710   2.183
 2872W        W75132  34.050  18.251  10.668
 2873W        W75133  38.865  38.381   5.030
 2874W        W75134   5.951  17.959   4.813
 2875W        W75135  12.150  21.574  11.168
 2876W        W75136   3.080  41.253  11.550
 2877W        W75137  33.567  14.169   2.680
 2878W        W75138  33.786  35.818   0.062
 2879W        W75139  31.995  28.458   0.037
 2880W        W75140  37.790  42.068   2.990
 2881W        W75141  34.877   3.847  11.454
 2882W        W75142   5.663   3.340   4.119
 2883W        W75143  14.707  30.986   0.982
 2884W        W75144   4.350  16.602   4.785
 2885W        W75145  24.473  20.675  14.376
 2886W        W75146   3.766  15.088  12.475
 2887W        W75147  42.896  16.889   2.734
 2888W        W75148  21.693   0.981   1.071
 2889W        W75149  29.895  35.819  14.799
 2890W        W75150  31.432  27.717  11.671
 2891W        W75151   4.916  14.185  11.852
 2892W        W75152  22.354  14.235   2.941
 2893W        W75153  18.225  24.631  12.548
 2894W        W75154  18.946  10.389   4.135
 2895W        W75155  16.651  33.376  14.973
 2896W        W75156  16.588  31.878  11.217
 2897W        W75157  28.874  14.211   1.945
 2898W        W75158  26.113  43.053  12.178
 2899W        W75159  36.887  42.269  12.062
 2900W        W75160  10.409  14.790   3.564
 2901W        W75161  25.776   8.178   0.473
 2902W        W75162  37.330   3.292  14.543
 2903W        W75163  18.247  13.325  12.032
 2904W        W75164  20.274   7.363  11.617
 2905W        W75165  21.486   8.901   0.748
 2906W        W75166  35.511  38.424  14.399
 2907W        W75167  26.996  15.731   4.297
 2908W        W75168  10.661  37.230  14.316
 2909W        W75169  43.452  20.043  10.748
 2910W        W75170   5.721  14.359   1.853
 2911W        W75171  17.675   4.085  12.037
 2912W        W75172  30.726  28.678   4.164
 2913W        W75173  23.523  37.660  14.852
 2914W        W75174   3.394  20.694  11.941
 2915W        W75175  11.850  13.218   3.963
 2916W        W75176  25.086  11.264   1.408
 2917W        W75177  37.084  12.124  11.597
 2918W        W75178  20.275  21.234   0.897
 2919W        W75179  20.119   9.702   1.371
 2920W        W75180  36.824   4.745   1.728
 2921W        W75181  21.042  32.124  11.224
 2922W        W75182  37.558  32.216   2.183
 2923W        W75183   4.975  13.633   3.751
 2924W        W75184   5.693   9.190  13.872
 2925W        W75185  36.613  14.183   4.565
 2926W        W75186   5.193   4.257  12.627
 2927W        W75187  24.639  34.634   0.805
 2928W        W75188  17.124  18.118  12.103
 2929W        W75189  21.048  23.757   3.710
 2930W        W75190  26.657  14.947   0.008
 2931W        W75191  11.599  37.559   2.392
 2932W        W75192  11.750  12.115   4.594
 2933W        W75193  42.974  25.081  14.032
 2934W        W75194  26.241  19.988   4.317
 2935W        W75195  22.296  20.486   4.169
 2936W        W75196  39.044  32.483   2.722
 2937W        W75197  11.469  19.496   1.218
 2938W        W75198  21.319  20.736   4.196
 2939W        W75199   0.698  31.943   1.476
 2940W        W75200  44.951  36.641  14.323
 2941W        W75201  44.668  37.457  14.788
 2942W        W75202  36.806  16.675   0.367
 2943W        W75203   0.273  44.017   2.892
 2944W        W75204   8.401  19.828  12.495
 2945W        W75205  11.630   0.289  13.088
 2946W        W75206  29.450   8.843   0.684
 2947W        W75207  16.705  18.577  14.523
 2948W        W75208  18.905  42.815  14.178
 2949W        W75209   9.262  41.798  10.673
 2950W        W75210  29.930   8.589   4.092
 2951W        W75211  23.759  19.078   2.212
 2952W        W75212  28.678  41.417   1.694
 2953W        W75213   5.731  29.430  13.494
 2954W        W75214  15.700  36.003   2.834
 2955W        W75215  33.983  18.771  12.324
 2956W        W75216   0.661  29.565   0.379
 2957W        W75217  29.245   4.687  14.485
 2958W        W75218  40.114   4.459   0.891
 2959W        W75219  23.674  29.023   2.266
 2960W        W75220  14.648   6.488  11.337
 2961W        W75221  39.412  39.266  11.704
 2962W        W75222   1.241   9.608  11.959
 2963W        W75223   9.746  35.421  13.079
 2964W        W75224  17.645   3.411   4.274
 2965W        W75225  18.751  43.334  12.223
 2966W        W75226  12.457   0.629   1.959
 2967W        W75227  29.251  11.237  14.804
 2968W        W75228  10.363  27.945  10.661
 2969W        W75229  23.723   7.737  12.502
 2970W        W75230   8.817  35.976  12.365
 2971W        W75231  25.211  19.268   1.892
 2972W        W75232  18.804  24.266  12.751
 2973W        W75233   4.895  35.086   3.086
 2974W        W75234  43.942  17.423   0.158
 2975W        W75235  19.118  26.718   3.350
 2976W        W75236  42.705   1.906  12.389
 2977W        W75237  13.259  29.561  11.256
 2978W        W75238   0.256  24.978  13.545
 2979W        W75239  15.663  42.521   1.823
 2980W        W75240  44.410  42.740   3.311
 2981W        W75241  10.653   1.934   2.207
 2982W        W75242  16.309  36.582  13.052
 2983W        W75243  27.978  14.025   4.264
 2984W        W75244  22.825  16.816  13.448
 2985W        W75245  26.981  26.542  14.795
 2986W        W75246  17.097  44.684  14.425
 2987W        W75247  24.151   2.854  11.510
 2988W        W75248  32.793   3.581   0.349
 2989W        W75249  42.278  28.133  12.804
 2990W        W75250  44.496   3.507  13.800
 2991W        W75251   9.421  37.008  14.704
 2992W        W75252  41.492   4.629  12.584
 2993W        W75253  41.374   6.600   0.702
 2994W        W75254   4.763   7.504   3.355
 2995W        W75255  29.286  22.609  12.039
 2996W        W75256  42.017   8.828   1.971
 2997W        W75257  41.599  10.344  13.625
 2998W        W75258  16.832  15.207   3.282
 2999W        W75259   3.447  29.618  14.403
 3000W        W75260   6.433  37.411   4.069
 3001W        W75261  31.442  31.389   5.479
 3002W        W75262  33.635  16.574  14.811
 3003W        W75263  39.724  37.340   3.869
 3004W        W75264   2.146  38.907   0.982
 3005W        W75265  42.557  19.177  13.952
 3006W        W75266  35.009  41.311  12.898
 3007W        W75267   8.035  20.296  13.369
 3008W        W75268  24.308   5.749   3.902
 3009W        W75269  24.029  32.175  11.641
 3010W        W75270  40.560  10.207   0.034
 3011W        W75271  31.903   2.271  13.815
 3012W        W75272  28.272  27.555   1.629
 3013W        W75273  26.138  15.109   0.781
 3014W        W75274  33.936  13.478   4.783
 3015W        W75275  21.058  15.709   3.631
 3016W        W75276  11.744  11.252   1.187
 3017W        W75277   6.355  44.828   3.313
 3018W        W75278  20.397  30.573   0.720
 3019W        W75279  44.325  24.425  14.906
 3020W        W75280   7.367  10.548   2.809
 3021W        W75281  44.756  39.410  11.930
 3022W        W75282  25.116   2.340   0.898
 3023W        W75283  30.935   1.299   3.033
 3024W        W75284  36.572  28.703  13.413
 3025W        W75285  22.703  14.761   0.154
 3026W        W75286  43.806   8.955  12.002
 3027W        W75287  41.361  17.288  14.783
 3028W        W75288  40.107  26.729   1.386
 3029W        W75289  29.166  34.288   4.126
 3030W        W75290   5.268  44.147   3.750
 3031W        W75291  36.078  20.995   5.067
 3032W        W75292  24.766  44.873  10.673
 3033W        W75293  14.604   8.411   3.767
 3034W        W75294  26.946  12.822   3.341
 3035W        W75295  34.400  41.806  13.341
 3036W        W75296  14.558   4.855  14.947
 3037W        W75297  20.270  32.954   3.166
 3038W        W75298   0.741   8.851   2.966
 3039W        W75299  31.133  11.882   4.070
 3040W        W75300  19.352  43.261   2.283
 3041W        W75301  25.620  29.010  14.639
 3042W        W75302  38.104  25.724   3.373
 3043W        W75303  30.431  21.324   3.271
 3044W        W75304  43.955   0.459   0.029
 3045W        W75305   0.930   8.135   1.916
 3046W        W75306  24.917  30.431  10.495
 3047W        W75307  10.422  39.373  11.095
 3048W        W75308  15.670  24.225   4.603
 3049W        W75309  13.262  17.764   2.968
 3050W        W75310  27.422  13.477  14.165
 3051W        W75311  38.775   6.733   2.664
 3052W        W75312  31.183  35.424  12.550
 3053W        W75313  41.729   4.320  13.408
 3054W        W75314  24.794  36.164  10.805
 3055W        W75315  24.514   3.201   2.837
 3056W        W75316  33.367   7.676   4.176
 3057W        W75317  41.426  43.236   0.198
 3058W        W75318  44.286  44.974   2.773
 3059W        W75319   0.309  32.227   4.706
 3060W        W75320  17.330  12.250  14.013
 3061W        W75321  37.454  34.101   3.204
 3062W        W75322  22.632  39.597   3.104
 3063W        W75323  33.853  27.562   1.864
 3064W        W75324  42.980  32.957  13.724
 3065W        W75325  12.603   3.968   0.753
 3066W        W75326  42.376  44.980  14.549
 3067W        W75327  37.014  20.165   4.582
 3068W        W75328  39.516  39.119   1.771
 3069W        W75329  15.285  42.529  14.459
 3070W        W75330  26.626  32.577   2.965
 3071W        W75331  19.360  16.966   3.308
 3072W        W75332   6.389   1.175   4.861
 3073W        W75333  28.101  35.111   1.726
 3074W        W75334  23.155   9.216  12.371
 3075W        W75335  34.658   6.796   4.580
 3076W        W75336  26.640  34.763  10.162
 3077W        W75337  24.451  43.048  14.414
 3078W        W75338  28.001   7.664  13.288
 3079W        W75339  18.016  30.924   2.181
 3080W        W75340  28.397   4.495   0.921
 3081W        W75341  14.270  42.078  14.553
 3082W        W75342  10.272  28.740   2.356
 3083W        W75343  24.447  38.773   1.992
 3084W        W75344   6.149  39.445  12.468
 3085W        W75345  10.418  40.299  12.116
 3086W        W75346  12.325   5.143   4.158
 3087W        W75347   2.740  31.195  13.969
 3088W        W75348  36.988  39.067  10.633
 3089W        W75349  10.783  35.308   4.579
 3090W        W75350  21.787  33.349  14.535
 3091W        W75351  27.234  30.202   4.137
 3092W        W75352  35.963  32.819   1.343
 3093W        W75353  30.471  22.858   0.720
 3094W        W75354  32.967   3.778  14.897
 3095W        W75355  12.868  37.943  14.261
 3096W        W75356  31.895  26.771   3.321
 3097W        W75357  42.458  43.426   0.757
 3098W        W75358  17.194   4.110   2.268
 3099W        W75359  18.198  13.911   2.345
 3100W        W75360  40.279  34.578  12.662
 3101W        W75361  44.334  11.820  14.447
 3102W        W75362  11.851  34.834  11.686
 3103W        W75363  36.372   0.491  14.907
 3104W        W75364  23.610  14.381  12.528
 3105W        W75365   4.482  40.812  12.040
 3106W        W75366   9.647  18.243   1.780
 3107W        W75367  33.884  28.666   1.739
 3108W        W75368   0.237  34.416  14.953
 3109W        W75369  12.272  21.138  10.933
 3110W        W75370  29.007  20.319   2.849
 3111W        W75371  28.374   3.337  11.443
 3112W        W75372  29.079  26.613   2.747
 3113W        W75373  24.532  29.035   4.172
 3114W        W75374  15.557  15.218  13.002
 3115W        W75375   1.204   2.235  11.218
 3116W        W75376  10.457  32.123  10.718
 3117W        W75377  35.757  26.458  10.662
 3118W        W75378  30.936  10.372   2.212
 3119W        W75379  19.835  39.936  13.233
 3120W        W75380  21.399  14.783   4.106
 3121W        W75381   6.026  18.846  11.620
 3122W        W75382  43.729  40.048  13.141
 3123W        W75383   5.190   0.621   0.411
 3124W        W75384  17.159  37.510   4.377
 3125W        W75385  22.916  10.363   1.867
 3126W        W75386   6.858  42.517   3.267
 3127W        W75387  42.293  29.401  14.630
 3128W        W75388  42.948  21.988   0.382
 3129W        W75389  34.173  18.656   9.770
 3130W        W75390   8.733  18.297   0.315
 3131W        W75391  38.768  26.881  12.595
 3132W        W75392  36.762  32.336   0.394
 3133W        W75393   1.746  37.782  13.936
 3134W        W75394  42.855  35.429   3.089
 3135W        W75395  19.643  10.896  11.180
 3136W        W75396  40.687  19.257  11.361
 3137W        W75397  33.517  25.022   3.689
 3138W        W75398  34.423  43.876   0.481
 3139W        W75399  22.965   5.181   2.659
 3140W        W75400  36.408   8.511  12.840
 3141W        W75401  36.842  14.683   3.717
 3142W        W75402  35.463  31.530   4.767
 3143W        W75403  27.655  41.480   2.285
 3144W        W75404   1.442  13.296  13.464
 3145W        W75405  36.269  36.801  14.311
 3146W        W75406   7.106  17.465   4.219
 3147W        W75407   1.531  21.230   0.004
 3148W        W75408  28.774  13.582  13.919
 3149W        W75409  42.906  13.869   2.900
 3150W        W75410  24.506  43.027   0.688
 3151W        W75411  26.918  21.006   3.706
 3152W        W75412  37.085   3.185   2.353
 3153W        W75413  16.528  21.763   1.383
 3154W        W75414  36.107  22.144  14.934
 3155W        W75415   9.138   5.671  11.949
 3156W        W75416  11.646   0.217   1.766
 3157W        W75417  17.060  37.022   1.774
 3158W        W75418  39.447  25.307  12.219
 3159W        W75419  29.362  19.683   3.651
 3160W        W75420   0.405   4.853   4.700
 3161W        W75421  34.906  38.118  11.023
 3162W        W75422  13.200   1.422  14.861
 3163W        W75423  15.684  26.988   4.592
 3164W        W75424   5.888  40.052   3.585
 3165W        W75425  28.594   6.781  13.418
 3166W        W75426  39.101  29.996  11.871
 3167W        W75427  15.400  31.964  11.885
 3168W        W75428  26.020  29.501   4.513
 3169W        W75429  10.081   2.902   3.578
 3170W        W75430  19.782   4.754   1.708
 3171W        W75431  19.137   4.087  10.599
 3172W        W75432  18.244   4.837   1.853
 3173W        W75433   9.641  40.666   0.893
 3174W        W75434   1.394  15.383  12.562
 3175W        W75435  13.275  22.137   4.585
 3176W        W75436   7.414  32.285   3.724
 3177W        W75437  24.710   0.295   0.386
 3178W        W75438  17.609   6.635   3.353
 3179W        W75439  23.079  11.040  13.447
 3180W        W75440  16.754  14.996  10.212
 3181W        W75441   4.483  43.021  10.896
 3182W        W75442  10.227   8.929   1.717
 3183W        W75443  43.367  32.249  14.772
 3184W        W75444  31.264  22.129   3.682
 3185W        W75445  33.617   9.527   0.658
 3186W        W75446  35.886  16.854  13.031
 3187W        W75447   8.274  29.392   0.771
 3188W        W75448  39.610   4.301   0.890
 3189W        W75449  31.635  20.474   2.236
 3190W        W75450  11.594  14.383  10.243
 3191W        W75451  36.331  17.086  11.100
 3192W        W75452  33.342   2.550  14.998
 3193W        W75453   4.632  28.273  10.141
 3194W        W75454   9.903  29.200  14.401
 3195W        W75455  16.953   2.832  14.401
 3196W        W75456  14.612  28.322   9.772
 3197W        W75457  20.676   2.964  13.861
 3198W        W75458  32.527  11.824  12.322
 3199W        W75459  24.421  22.716  10.683
 3200W        W75460  10.174  32.839  12.908
 3201W        W75461  25.003   6.959   1.608
 3202W        W75462   5.658   1.920  14.914
 3203W        W75463  38.386  29.989  12.493
 3204W        W75464  27.427  20.212   1.393
 3205W        W75465   4.488  19.354   1.526
 3206W        W75466   4.278  25.677   0.826
 3207W        W75467  43.243  25.587   3.354
 3208W        W75468  33.592  28.071   4.178
 3209W        W75469  20.995  13.507   2.603
 3210W        W75470   7.290  30.721  13.032
 3211W        W75471  33.939  23.121   1.424
 3212W        W75472  31.493  38.808  10.684
 3213W        W75473  10.899  39.366  13.948
 3214W        W75474  40.538  35.908   3.308
 3215W        W75475  24.300  37.776  13.494
 3216W        W75476   7.811  18.352  10.813
 3217W        W75477  14.634  39.179  11.795
 3218W        W75478  34.605  28.403   1.039
 3219W        W75479  34.222   5.447   3.397
 3220W        W75480  17.719  32.053   4.273
 3221W        W75481  38.833  40.186   2.369
 3222W        W75482  34.665  33.081  14.978
 3223W        W75483  11.373  10.054  14.699
 3224W        W75484   6.873  16.439  14.113
 3225W        W75485  29.103  15.269   0.866
 3226W        W75486   5.398  26.132   3.867
 3227W        W75487   2.461  10.750  13.481
 3228W        W75488  28.895  20.795   2.672
 3229W        W75489  18.830  14.771  11.879
 3230W        W75490  36.904  37.096  13.066
 3231W        W75491  27.570  32.557  11.499
 3232W        W75492   5.229  20.674  13.273
 3233W        W75493   1.809   2.277  11.933
 3234W        W75494  11.161   4.363   3.198
 3235W        W75495  13.724  19.123  11.640
 3236W        W75496  37.485  23.587   2.561
 3237W        W75497   0.157   2.789   2.315
 3238W        W75498  41.166  16.095  14.242
 3239W        W75499  25.419  14.730  14.555
 3240W        W75500  24.569  22.248   3.164
 3241W        W75501  17.160  27.583  13.193
 3242W        W75502  27.612  28.531  13.781
 3243W        W75503  35.375   4.113  12.091
 3244W        W75504   2.159  23.042  12.799
 3245W        W75505  41.437  19.692   1.704
 3246W        W75506  14.485  32.369  11.983
 3247W        W75507  23.509  13.254  12.185
 3248W        W75508  21.107  28.403  11.436
 3249W        W75509  42.972  17.734   4.355
 3250W        W75510  37.940  31.533  10.605
 3251W        W75511  13.051  30.568  13.867
 3252W        W75512   6.275  22.690  13.917
 3253W        W75513  33.865   9.588  12.035
 3254W        W75514  15.629  24.272  11.223
 3255W        W75515  11.773  34.345   4.549
 3256W        W75516  20.189  32.473  14.516
 3257W        W75517  34.026  30.298  13.536
 3258W        W75518  41.607   0.927  10.564
 3259W        W75519  18.077  31.805  13.414
 3260W        W75520  34.574   0.213   3.190
 3261W        W75521  24.376  25.993  12.131
 3262W        W75522   2.365   7.942  13.553
 3263W        W75523  12.667  31.860   3.228
 3264W        W75524   6.673  30.119  14.961
 3265W        W75525  24.449  39.579   2.425
 3266W        W75526  34.604  14.871   0.984
 3267W        W75527  29.369  41.019  12.953
 3268W        W75528  12.499  13.046   3.280
 3269W        W75529  13.076  18.671   3.946
 3270W        W75530  19.662   9.095   3.504
 3271W        W75531  23.645  30.979   2.765
 3272W        W75532  13.634  13.262   2.207
 3273W        W75533  15.782  20.522   3.696
 3274W        W75534  40.112  27.561  10.893
 3275W        W75535  21.336   7.814  14.291
 3276W        W75536  18.090  25.155   0.892
 3277W        W75537  32.902  19.463   9.519
 3278W        W75538  27.880   2.420   0.872
 3279W        W75539  13.059  20.755   4.280
 3280W        W75540  37.769  36.853  14.008
 3281W        W75541  35.788  26.853   2.271
 3282W        W75542  24.050  28.808  14.456
 3283W        W75543   5.170  35.594   1.946
 3284W        W75544  19.801   0.881   1.354
 3285W        W75545  24.518  32.868  10.510
 3286W        W75546   7.384  16.569   4.082
 3287W        W75547  22.680  39.406   9.794
 3288W        W75548  34.796  41.365   0.885
 3289W        W75549  29.231   0.484   4.095
 3290W        W75550  29.436  29.582   0.226
 3291W        W75551  35.833  43.106  11.574
 3292W        W75552  31.970  26.247   3.130
 3293W        W75553  31.895  34.542   3.827
 3294W        W75554  39.918  34.992   3.321
 3295W        W75555  33.874   3.596   9.955
 3296W        W75556  12.697   2.786   2.304
 3297W        W75557  29.552   1.268  10.957
 3298W        W75558  15.137  33.069  12.126
 3299W        W75559  13.249  15.316   2.882
 3300W        W75560  32.962  30.564  14.046
 3301W        W75561   6.125   2.498  12.352
 3302W        W75562   7.361  34.932  14.828
 3303W        W75563  31.515  40.662  10.649
 3304W        W75564   5.847  39.837  13.351
 3305W        W75565   4.339   4.109   0.776
 3306W        W75566  20.531  15.782   0.750
 3307W        W75567  20.316  19.609  12.859
 3308W        W75568   7.262  17.577  12.923
 3309W        W75569  35.272  15.069  13.456
 3310W        W75570  34.335  24.189   4.086
 3311W        W75571  32.433   7.187   4.151
 3312W        W75572  11.927  32.432  13.426
 3313W        W75573  36.063  18.852  10.982
 3314W        W75574  33.241  18.320  11.490
 3315W        W75575  22.536   3.862  13.474
 3316W        W75576  41.547   7.760   0.285
 3317W        W75577  22.790  39.122   3.193
 3318W        W75578  32.525  16.792  11.139
 3319W        W75579   4.176   8.869   0.740
 3320W        W75580  11.910  14.694   1.397
 3321W        W75581  21.669  44.342  11.951
 3322W        W75582   6.242  41.664   4.938
 3323W        W75583  26.541  21.701   1.765
 3324W        W75584  41.106  24.992   4.907
 3325W        W75585  27.196  27.035   1.980
 3326W        W75586  29.346  12.414   3.590
 3327W        W75587  43.879   4.781  12.270
 3328W        W75588   9.262  30.588  10.225
 3329W        W75589  22.595  43.953   3.233
 3330W        W75590  41.813   5.756   3.775
 3331W        W75591  41.461   9.294  12.997
 3332W        W75592   3.273  37.872  12.605
 3333W        W75593  36.008  10.246   3.405
 3334W        W75594  24.183  24.642   0.309
 3335W        W75595  32.629  43.762   0.065
 3336W        W75596  27.022  42.401  10.897
 3337W        W75597   1.905   5.449  10.695
 3338W        W75598   3.968  36.648   3.701
 3339W        W75599  38.962  26.315  11.397
 3340W        W75600  10.332   8.112  10.704
 3341W        W75601  27.989  34.443  13.976
 3342W        W75602  28.561  40.019   0.767
 3343W        W75603  33.648  38.843   2.208
 3344W        W75604   2.719  29.054  13.545
 3345W        W75605  20.622  32.335   4.751
 3346W        W75606  19.194  10.304   2.804
 3347W        W75607  13.328  12.189  14.854
 3348W        W75608  43.616  33.551   1.813
 3349W        W75609  16.684  26.081  14.354
 3350W        W75610   2.685  21.094  13.891
 3351W        W75611  12.317  37.676   1.282
 3352W        W75612  18.774  17.234   2.675
 3353W        W75613  18.796  19.460   0.400
 3354W        W75614  30.105  29.842  14.129
 3355W        W75615  27.001   4.710   3.080
 3356W        W75616  36.383   8.442  11.981
 3357W        W75617  22.496  16.241   3.880
 3358W        W75618  43.319  24.180   1.125
 3359W        W75619  17.117  19.017  10.084
 3360W        W75620  32.632  42.966   3.507
 3361W        W75621  25.957  19.847  11.114
 3362W        W75622  24.701  16.957  13.349
 3363W        W75623  40.227  38.260  13.845
 3364W        W75624  21.121  34.107  12.921
 3365W        W75625  26.480  39.802   3.026
 3366W        W75626  17.626   9.231  10.973
 3367W        W75627  22.359   8.617  11.868
 3368W        W75628  26.885  29.110  13.642
 3369W        W75629  38.080  20.257   3.693
 3370W        W75630   2.960  23.582  14.831
 3371W        W75631  37.830  27.481  12.002
 3372W        W75632  44.623  10.660  13.209
 3373W        W75633  39.195  40.364   4.154
 3374W        W75634  42.313  44.699   0.440
 3375W        W75635   4.339   9.380   2.915
 3376W        W75636  35.008   9.479  12.862
 3377W        W75637  26.682  30.244   4.794
 3378W        W75638   9.418  33.116  12.240
 3379W        W75639  15.953  32.770   1.966
 3380W        W75640   5.645  25.754   4.454
 3381W        W75641  39.966   4.850   4.605
 3382W        W75642   8.632  33.062   3.674
 3383W        W75643  23.413  27.784  11.973
 3384W        W75644  39.970  10.604  11.572
 3385W        W75645  11.781  12.615  10.715
 3386W        W75646  39.076  32.509  13.027
 3387W        W75647  30.439   4.577  14.622
 3388W        W75648   5.127  13.132  14.788
 3389W        W75649  12.324  15.347   3.721
 3390W        W75650  42.851  30.218  13.775
 3391W        W75651   7.773  15.723   3.855
 3392W        W75652  42.728  30.415   4.186
 3393W        W75653   1.456  17.186   2.293
 3394W        W75654  21.772  32.550   4.206
 3395W        W75655  29.081  20.091   0.862
 3396W        W75656  17.132  29.265   2.110
 3397W        W75657  23.947   9.706  11.158
 3398W        W75658  20.599  21.597   0.668
 3399W        W75659  17.051  41.136  11.546
 3400W        W75660  42.647  18.087   1.822
 3401W        W75661  12.735  34.946  10.693
 3402W        W75662   5.493   7.361   2.403
 3403W        W75663  35.599  16.594  13.413
 3404W        W75664  12.624  35.428   1.288
 3405W        W75665  36.544  15.277  13.424
 3406W        W75666  30.448   3.457  13.490
 3407W        W75667  14.615  36.446  14.072
 3408W        W75668  12.320  30.898  10.325
 3409W        W75669   3.021  36.213  14.425
 3410W        W75670   2.208  33.432  11.190
 3411W        W75671  33.334  32.859  10.737
 3412W        W75672   4.327  38.585   2.604
 3413W        W75673  25.386  28.936   2.265
 3414W        W75674  28.732   2.531  11.638
 3415W        W75675   1.407  26.984  14.112
 3416W        W75676  35.018  21.984   1.972
 3417W        W75677  15.045  36.016   3.381
 3418W        W75678   0.409  17.075   3.898
 3419W        W75679  23.678  14.937   4.476
 3420W        W75680  30.032  12.246  13.878
 3421W        W75681   2.442  18.841  12.380
 3422W        W75682  33.185   8.712   0.926
 3423W        W75683  22.999  31.905   3.306
 3424W        W75684  17.592  27.118   0.279
 3425W        W75685  12.651   4.490   3.793
 3426W        W75686  16.054  20.302  12.067
 3427W        W75687  36.123  22.998  10.713
 3428W        W75688  35.317   4.444  12.890
 3429W        W75689   9.677  39.275   2.651
 3430W        W75690  34.033  29.003  10.630
 3431W        W75691   6.914  41.835  11.640
 3432W        W75692  23.568  22.128   1.194
 3433W        W75693  24.566  44.961  11.497
 3434W        W75694  34.069  42.460   1.478
 3435W        W75695  34.547  42.558   2.732
 3436W        W75696  12.765  35.155   0.862
 3437W        W75697   0.397   2.758   0.314
 3438W        W75698  33.417  12.535  11.745
 3439W        W75699   4.619  29.957  13.252
 3440W        W75700  21.173  39.121  12.000
 3441W        W75701  11.827  26.019  11.652
 3442W        W75702  30.129  32.036   4.718
 3443W        W75703  17.158  16.284  11.129
 3444W        W75704  40.322  22.145  14.708
 3445W        W75705  35.540   1.970   0.035
 3446W        W75706  18.561   1.210   1.862
 3447W        W75707   1.922   3.796  11.243
 3448W        W75708  18.046  31.027  14.310
 3449W        W75709  18.752  39.952  12.256
 3450W        W75710  22.426  24.632   2.267
 3451W        W75711  18.076  36.747  10.683
 3452W        W75712  16.832   4.280   0.360
 3453W        W75713  13.086   7.854  11.211
 3454W        W75714  43.075  43.229   4.243
 3455W        W75715   7.917  15.951   2.351
 3456W        W75716  36.753  10.246  10.633
 3457W        W75717   9.891   9.638  13.800
 3458W        W75718  37.363   3.327   1.925
 3459W        W75719  14.083   1.138   0.358
 3460W        W75720  13.113  14.698  13.597
 3461W        W75721  42.815  40.373  14.043
 3462W        W75722  11.215  15.047   4.659
 3463W        W75723   0.919  36.009  13.537
 3464W        W75724  13.581  12.643   4.931
 3465W        W75725  32.076  41.797  13.387
 3466W        W75726  10.604  14.722   0.843
 3467W        W75727   6.896  14.549   1.412
 3468W        W75728  11.617   4.530  13.450
 3469W        W75729  29.630  13.287  11.494
 3470W        W75730  13.865  19.263  14.588
 3471W        W75731   8.257   0.216  12.622
 3472W        W75732  19.575  22.613  12.191
 3473W        W75733  21.215  35.552  11.564
 3474W        W75734  30.909  38.868   1.748
 3475W        W75735  17.247  43.932   1.224
 3476W        W75736  36.454  44.495  12.474
 3477W        W75737  15.405  44.300   3.248
 3478W        W75738   3.872  39.030  14.288
 3479W        W75739  19.459  21.160   4.141
 3480W        W75740   9.607   5.705  14.479
 3481W        W75741   4.274  24.427  11.435
 3482W        W75742   4.247  20.807   2.718
 3483W        W75743  23.595  35.130  10.717
 3484W        W75744  36.923  32.104  12.938
 3485W        W75745   6.718  17.223   0.776
 3486W        W75746  35.996  11.610  11.520
 3487W        W75747  10.143  40.279   3.506
 3488W        W75748  41.059  43.986  14.900
 3489W        W75749   6.218   0.630   0.353
 3490W        W75750  34.846  17.011   0.098
 3491W        W75751  23.127  43.930  11.324
 3492W        W75752  12.547  17.964   1.044
 3493W        W75753  10.271  24.004   3.637
 3494W        W75754  33.445   7.648   4.688
 3495W        W75755  26.126  30.967  12.519
 3496W        W75756  29.035  44.993  12.452
 3497W        W75757  30.964  30.900  10.714
 3498W        W75758  25.355  15.740   4.459
 3499W        W75759  23.081   5.889  11.958
 3500W        W75760   7.883  43.711  11.052
 3501W        W75761  28.327  26.647  10.204
 3502W        W75762   6.940  18.074   1.861
 3503W        W75763  14.505  35.338  14.017
 3504W        W75764  34.648  16.074   2.382
 3505W        W75765  16.555  42.344  12.408
 3506W        W75766   2.067  28.686   2.781
 3507W        W75767  30.848  32.521   5.179
 3508W        W75768  20.574   7.700  10.422
 3509W        W75769   9.104   5.284   4.170
 3510W        W75770   0.346  35.974  14.010
 3511W        W75771   3.214  18.611   1.414
 3512W        W75772  25.515  21.624   2.664
 3513W        W75773  12.688  30.695  12.991
 3514W        W75774   0.096  18.858   4.227
 3515W        W75775  35.840  16.837  11.182
 3516W        W75776  29.701  23.462  13.085
 3517W        W75777  40.404   9.215  13.037
 3518W        W75778  40.507  38.323   3.339
 3519W        W75779  36.803   2.023  11.993
 3520W        W75780   3.925  14.084   1.264
 3521W        W75781   6.872  33.466   1.968
 3522W        W75782  30.381  27.037  11.930
 3523W        W75783  25.639  10.421   2.207
 3524W        W75784  29.715  21.994   1.780
 3525W        W75785  26.028  43.962  14.517
 3526W        W75786  33.133   4.825   1.858
 3527W        W75787  26.507  12.167  12.850
 3528W        W75788  30.494  33.591  11.195
 3529W        W75789  37.990  24.336  10.703
 3530W        W75790   5.765  40.518  11.673
 3531W        W75791  11.682   0.348   0.543
 3532W        W75792  36.411  25.098  10.385
 3533W        W75793  26.964  21.137  12.427
 3534W        W75794  15.654  22.168  14.732
 3535W        W75795  29.183  23.106  14.461
 3536W        W75796   7.295  44.402   3.317
 3537W        W75797  11.361  13.793   2.870
 3538W        W75798  36.894  41.772   4.667
 3539W        W75799  16.519   5.792  11.459
 3540W        W75800   8.088  27.537  14.451
 3541W        W75801  42.726   7.048   1.674
 3542W        W75802  32.874  26.044  13.144
 3543W        W75803   4.167  16.802  14.509
 3544W        W75804  44.806  42.020   1.244
 3545W        W75805   5.838   7.779  11.644
 3546W        W75806  33.458  20.473   3.409
 3547W        W75807   5.148  18.392   3.206
 3548W        W75808  19.213  37.882   0.890
 3549W        W75809  23.810  34.683  12.411
 3550W        W75810  33.595   7.114   9.810
 3551W        W75811  34.016  14.267   2.455
 3552W        W75812  39.945  21.560   1.209
 3553W        W75813   0.986   0.713  11.286
 3554W        W75814  24.257  29.023  14.886
 3555W        W75815  37.559   4.356  11.819
 3556W        W75816   3.214   1.395   2.728
 3557W        W75817  40.500   2.558   3.842
 3558W        W75818  43.217  38.206  11.501
 3559W        W75819  37.054  20.269   5.061
 3560W        W75820   9.014  34.998   4.520
 3561W        W75821  37.278  29.032   4.060
 3562W        W75822  18.395  29.485  12.042
 3563W        W75823  42.277  38.098   2.701
 3564W        W75824  44.226  17.953   9.987
 3565W        W75825  20.059   3.917   0.738
 3566W        W75826  42.226  21.386   2.181
 3567W        W75827  30.912   3.835  12.941
 3568W        W75828  25.695  30.603   3.733
 3569W        W75829  18.371   6.162  12.983
 3570W        W75830  13.316   8.931  12.892
 3571W        W75831   7.247   5.616   0.295
 3572W        W75832  31.055  33.681   2.227
 3573W        W75833   6.504   1.825   4.214
 3574W        W75834   4.415  14.332   1.308
 3575W        W75835   5.798  27.094   1.344
 3576W        W75836  31.626   4.837   1.038
 3577W        W75837   1.345  21.792   4.210
 3578W        W75838   5.464  11.192   3.698
 3579W        W75839   9.905  38.055  12.914
 3580W        W75840  24.996   2.866   0.315
 3581W        W75841  24.194  42.615   4.918
 3582W        W75842  27.621  18.603  14.847
 3583W        W75843  42.957  27.657  10.541
 3584W        W75844   0.089  10.214   4.013
 3585W        W75845  36.472   9.412  12.892
 3586W        W75846  20.242  24.493   1.951
 3587W        W75847  41.096  22.985  13.409
 3588W        W75848   3.953  20.185  12.428
 3589W        W75849  34.963  33.043   3.671
 3590W        W75850  29.317   4.857  10.154
 3591W        W75851  38.056  14.764   0.885
 3592W        W75852  35.338  17.016  14.855
 3593W        W75853  38.904   8.161   3.888
 3594W        W75854  27.056   0.639  13.533
 3595W        W75855  42.779  36.959   2.604
 3596W        W75856  32.498   6.000  12.070
 3597W        W75857   9.249   4.877   1.375
 3598W        W75858   2.840   6.207   3.872
 3599W        W75859  13.849   6.155   1.428
 3600W        W75860  19.796  25.089   4.273
 3601W        W75861   9.067  41.767   3.919
 3602W        W75862   9.963  38.607  10.157
 3603W        W75863   6.869  11.631   0.678
 3604W        W75864  13.281   0.247   2.997
 3605W        W75865  38.772  44.626   3.246
 3606W        W75866   3.946  16.666  13.372
 3607W        W75867   4.757  18.238  11.699
 3608W        W75868  28.714  20.193  11.820
 3609W        W75869  34.846  18.863   0.299
 3610W        W75870   6.838  40.044   2.372
 3611W        W75871  10.351  22.673   2.440
 3612W        W75872  35.904  40.090   1.633
 3613W        W75873  16.355  10.664   0.049
 3614W        W75874   6.331  36.956  14.374
 3615W        W75875  44.501  39.343   3.659
 3616W        W75876   6.724   9.623   4.125
 3617W        W75877  24.313  10.632   3.307
 3618W        W75878  26.121  27.034   3.164
 3619W        W75879  18.968  20.446   2.262
 3620W        W75880  42.133  13.749   0.244
 3621W        W75881  32.840  39.952  13.487
 3622W        W75882  11.438  17.810  14.840
 3623W        W75883  14.047   7.310  14.767
 3624W        W75884   8.400   5.778   2.436
 3625W        W75885  40.404  24.215   2.607
 3626W        W75886   7.153   0.239   0.127
 3627W        W75887  13.339  24.964  14.336
 3628W        W75888  22.726  18.355  14.777
 3629W        W75889  43.568  10.130  14.589
 3630W        W75890  14.693  28.568  14.367
 3631W        W75891  33.002  18.711   0.571
 3632W        W75892  34.061  21.371  14.188
 3633W        W75893  14.769  11.740  11.393
 3634W        W75894  14.302  26.170   3.890
 3635W        W75895  31.425  34.388   3.660
 3636W        W75896  28.972  39.993   4.325
 3637W        W75897  11.060   2.548   0.279
 3638W        W75898  25.983  35.639  11.145
 3639W        W75899   2.730   0.926  12.959
 3640W        W75900  12.723  28.683   0.743
 3641W        W75901  24.844  15.530  14.959
 3642W        W75902  19.237  13.230   2.763
 3643W        W75903  34.874  31.892  11.135
 3644W        W75904  13.016   7.378  14.281
 3645W        W75905  15.238  41.562  13.710
 3646W        W75906   2.845  37.450   4.607
 3647W        W75907  26.094  25.331  12.107
 3648W        W75908  11.621   8.571  10.932
 3649W        W75909   1.920  30.209   1.358
 3650W        W75910  35.450   9.892   0.393
 3651W        W75911  42.667  32.099   4.404
 3652W        W75912   9.800  39.031  14.985
 3653W        W75913   9.205  14.842  14.935
 3654W        W75914  10.123  12.565  13.767
 3655W        W75915   9.416  35.069  10.966
 3656W        W75916  21.153   7.533   5.018
 3657W        W75917  33.004  30.644   1.771
 3658W        W75918  11.758  38.325  13.581
 3659W        W75919  29.109  35.683   3.605
 3660W        W75920  15.643  24.595  11.635
 3661W        W75921  44.499   6.745   3.604
 3662W        W75922  29.780  26.405   3.750
 3663W        W75923  21.287  38.272  13.076
 3664W        W75924  15.081   4.437  13.882
 3665W        W75925  39.293  29.919   4.110
 3666W        W75926  15.244  11.309  11.210
 3667W        W75927  41.861   6.691   3.577
 3668W        W75928  34.863   1.708  10.469
 3669W        W75929  20.304  15.333  13.529
 3670W        W75930  28.492  31.171   4.907
 3671W        W75931  33.437  42.691  12.086
 3672W        W75932  20.776  25.167  11.049
 3673W        W75933  34.972  27.401   1.295
 3674W        W75934  19.844   6.166  14.064
 3675W        W75935   0.786  15.431   1.218
 3676W        W75936  38.359   6.176   1.181
 3677W        W75937   3.989  15.303   3.682
 3678W        W75938   0.943  19.714   3.678
 3679W        W75939   1.377  19.994  13.940
 3680W        W75940  26.512  22.105   2.565
 3681W        W75941   8.455  42.890  13.304
 3682W        W75942  42.987  24.830  11.221
 3683W        W75943  40.497  29.564   3.755
 3684W        W75944   2.226   6.665   3.180
 3685W        W75945   1.030  20.030   0.230
 3686W        W75946  37.984   2.361   1.392
 3687W        W75947  33.124  40.319   0.186
 3688W        W75948  28.992  20.478  11.492
 3689W        W75949   1.352   1.258  11.882
 3690W        W75950   3.763  32.669   1.962
 3691W        W75951   9.893  26.698  12.516
 3692W        W75952  26.457  26.951   4.905
 3693W        W75953  40.749  44.271  12.073
 3694W        W75954  15.570  25.276  14.243
 3695W        W75955  28.401  31.974   2.822
 3696W        W75956  20.652  17.224  11.602
 3697W        W75957  25.773  34.351   5.163
 3698W        W75958  43.286   5.401   2.367
 3699W        W75959  10.911  28.793   1.066
 3700W        W75960   6.608  23.034  14.253
 3701W        W75961  24.159  42.816   0.353
 3702W        W75962   6.257   5.902   0.370
 3703W        W75963   9.152  35.274   4.080
 3704W        W75964  18.173  33.305   2.351
 3705W        W75965  28.984  26.266   1.428
 3706W        W75966  41.366   2.945   0.781
 3707W        W75967  13.229  28.147  14.225
 3708W        W75968  26.874   2.373   4.058
 3709W        W75969   2.691  31.403  11.983
 3710W        W75970  14.187  10.631   2.772
 3711W        W75971  22.363  19.576   1.845
 3712W        W75972   6.341   9.365   1.881
 3713W        W75973  43.457  43.086  14.908
 3714W        W75974   1.231  41.875   4.681
 3715W        W75975  21.786   9.384  13.481
 3716W        W75976  15.710  21.213   1.371
 3717W        W75977  14.397  29.461  13.406
 3718W        W75978  36.792  39.911   1.269
 3719W        W75979  34.525  31.129   0.454
 3720W        W75980   4.798  12.406   1.413
 3721W        W75981  39.296   8.748  14.743
 3722W        W75982  31.429   6.445   1.849
 3723W        W75983  41.237  20.057   1.405
 3724W        W75984  40.411  43.969   1.272
 3725W        W75985  41.164   1.827  11.116
 3726W        W75986   1.487   3.459   0.011
 3727W        W75987  11.241  18.970   2.303
 3728W        W75988   8.335  14.207   0.800
 3729W        W75989  37.923  37.557   1.876
 3730W        W75990  20.102   8.721  14.719
 3731W        W75991  39.004   4.459  14.011
 3732W        W75992  44.464  35.531  13.732
 3733W        W75993  13.070  18.063  11.220
 3734W        W75994  35.203  21.482  12.906
 3735W        W75995  34.054   6.265   1.343
 3736W        W75996  37.030  20.339   0.198
 3737W        W75997   4.842  11.156  11.570
 3738W        W75998  29.323   4.244  13.468
 3739W        W75999  18.488  36.026   0.332
 3740W        W76000  33.948  21.067   3.103
 3741W        W76001   9.098  18.539   0.729
 3742W        W76002  37.854  35.296   2.822
 3743W        W76003  36.114   3.467   1.639
 3744W        W76004  25.996   4.304   1.334
 3745W        W76005  42.906  35.536  14.028
 3746W        W76006  18.326  25.032  13.920
 3747W        W76007  34.635  19.392  10.233
 3748W        W76008  34.924   6.925  11.089
 3749W        W76009   1.195   1.045  12.385
 3750W        W76010  25.893   0.446  12.038
 3751W        W76011  37.003  36.079   4.923
 3752W        W76012   4.329  35.295   1.402
 3753W        W76013  33.683  27.001   2.828
 3754W        W76014  38.429  19.060   4.024
 3755W        W76015  19.716   9.730  11.802
 3756W        W76016   0.025  19.565   2.368
 3757W        W76017  21.159  35.619   4.559
 3758W        W76018   3.399  18.047  12.103
 3759W        W76019  12.913  13.749   2.258
 3760W        W76020  26.159  30.439  14.283
 3761W        W76021  35.839  36.453  13.540
 3762W        W76022  24.285  27.418   1.813
 3763W        W76023   8.349  30.783  14.980
 3764W        W76024   6.484  39.689   0.886
 3765W        W76025  43.752  18.189  14.579
 3766W        W76026  36.296  12.235   1.027
 3767W        W76027   8.566  26.928  13.517
 3768W        W76028  27.717  20.118   3.377
 3769W        W76029  19.584   6.913  13.321
 3770W        W76030  13.600  10.719   1.431
 3771W        W76031  11.278  29.465   1.739
 3772W        W76032  26.980  29.912   1.789
 3773W        W76033   6.944  30.768   2.251
 3774W        W76034  38.161  20.298  12.653
 3775W        W76035  19.067  25.716  13.420
 3776W        W76036  20.214   2.744  13.982
 3777W        W76037  35.534  29.455   2.718
 3778W        W76038  21.923   1.326  10.406
 3779W        W76039  29.919  42.324  14.013
 3780W        W76040  41.795  19.243   0.330
 3781W        W76041  21.192  32.521  12.710
 3782W        W76042  27.163  15.819   2.812
 3783W        W76043  11.567  19.708  14.808
 3784W        W76044  38.207  41.407   4.534
 3785W        W76045  15.346   2.088   3.263
 3786W        W76046  40.705   5.470  12.079
 3787W        W76047  19.336  13.192  14.240
 3788W        W76048   4.757  35.358   1.714
 3789W        W76049  24.572  34.420  11.186
 3790W        W76050  30.232   2.662   0.798
 3791W        W76051  17.642  13.698   1.322
 3792W        W76052   3.241  30.675  14.247
 3793W        W76053  10.774  37.827   4.630
 3794W        W76054   8.414  32.890  11.982
 3795W        W76055   3.598  42.428   0.501
 3796W        W76056  26.028  40.675   2.183
 3797W        W76057   6.458  28.858   2.266
 3798W        W76058  28.513  22.410  11.182
 3799W        W76059  43.469  41.258   1.561
 3800W        W76060   0.090  18.594  12.505
 3801W        W76061  31.980  24.238   4.630
 3802W        W76062  41.952  20.591   3.694
 3803W        W76063  27.658   3.444   3.702
 3804W        W76064   7.212  40.295  13.990
 3805W        W76065  44.506  14.066  14.005
 3806W        W76066  33.860  44.312   3.381
 3807W        W76067  35.238  13.942   4.694
 3808W        W76068  13.220  17.748  10.335
 3809W        W76069  21.559  28.100   3.636
 3810W        W76070   4.154  43.557   3.308
 3811W        W76071  10.709  24.203  10.455
 3812W        W76072  33.812  42.928   1.084
 3813W        W76073   4.376  15.735   9.935
 3814W        W76074  42.568  13.409   4.718
 3815W        W76075  16.606  11.921   1.289
 3816W        W76076   4.017   5.310  11.439
 3817W        W76077  29.385  31.568   2.748
 3818W        W76078  32.681  35.596  12.453
 3819W        W76079  38.550  35.095  11.057
 3820W        W76080  23.353   7.728   1.162
 3821W        W76081  36.794  10.152  13.869
 3822W        W76082  26.983  33.791  12.125
 3823W        W76083  34.610   4.689   3.736
 3824W        W76084  28.504  30.561  14.735
 3825W        W76085  14.810   4.599  10.022
 3826W        W76086  29.980  19.588  11.924
 3827W        W76087  13.090  31.948   1.436
 3828W        W76088  10.403  34.786   0.456
 3829W        W76089  22.784  22.302   0.796
 3830W        W76090  19.708  21.540   3.903
 3831W        W76091   6.678   8.084  11.384
 3832W        W76092  16.123  36.037  12.218
 3833W        W76093  11.873  18.251  10.806
 3834W        W76094  24.054  35.392  11.650
 3835W        W76095  12.155  22.297   0.880
 3836W        W76096  36.309   1.621  13.349
 3837W        W76097   3.446   8.692   1.209
 3838W        W76098  16.328  39.632   0.867
 3839W        W76099   6.613  42.471  13.537
 3840W        W76100  22.030  10.387   4.592
 3841W        W76101  41.418  36.483   4.680
 3842W        W76102  31.696  42.906  10.949
 3843W        W76103  25.732   4.884  14.906
 3844W        W76104  23.564  33.965   2.129
 3845W        W76105  26.023  19.421  13.224
 3846W        W76106  10.270  35.247  11.446
 3847W        W76107  25.730  38.398   1.552
 3848W        W76108  16.209   5.381  12.677
 3849W        W76109   9.682   1.798   4.818
 3850W        W76110  15.075  16.717   1.208
 3851W        W76111   9.051  36.042   0.423
 3852W        W76112  27.452  38.979  14.262
 3853W        W76113  18.109  42.238   0.327
 3854W        W76114   5.692  28.633   1.130
 3855W        W76115  25.375  18.496   4.491
 3856W        W76116   5.457  18.563  13.967
 3857W        W76117  42.754  31.751  13.043
 3858W        W76118  12.245  40.369   0.574
 3859W        W76119  13.556  34.930   1.916
 3860W        W76120  31.368  22.324  11.478
 3861W        W76121  17.246  32.747  11.745
 3862W        W76122  28.545   6.913   0.993
 3863W        W76123  25.739  35.118   0.850
 3864W        W76124  34.059  23.639   4.573
 3865W        W76125  29.881  11.828   2.377
 3866W        W76126  15.173  29.636   1.780
 3867W        W76127  34.316  27.524  13.569
 3868W        W76128  20.725  18.288   3.400
 3869W        W76129  25.957  20.397   2.694
 3870W        W76130   0.500  35.817   0.549
 3871W        W76131  26.510  43.467  14.877
 3872W        W76132  16.215  10.720  10.584
 3873W        W76133   0.690  34.735   2.906
 3874W        W76134  35.423  44.159   1.877
 3875W        W76135   6.259   5.505  12.420
 3876W        W76136  12.573  14.528   3.281
 3877W        W76137  20.646  15.642  14.736
 3878W        W76138   3.560  33.852   3.140
 3879W        W76139  12.075  34.132   3.847
 3880W        W76140  20.390  24.988   2.722
 3881W        W76141  31.582  11.900  12.431
 3882W        W76142  11.810  11.049  11.608
 3883W        W76143  18.275   6.647  13.165
 3884W        W76144  11.194  44.532   1.316
 3885W        W76145  31.972  43.520   3.809
 3886W        W76146  27.531  12.262  11.742
 3887W        W76147  37.020  41.318  11.984
 3888W        W76148  33.074  21.951   3.349
 3889W        W76149  30.834  23.977   1.811
 3890W        W76150  18.824  27.418   4.232
 3891W        W76151  35.272  11.569   2.744
 3892W        W76152  16.208   8.922   3.095
 3893W        W76153   6.147  26.645  11.913
 3894W        W76154   3.205  38.409   4.777
 3895W        W76155  22.292  15.226   4.426
 3896W        W76156  35.432  41.940  12.550
 3897W        W76157  16.314  38.901   0.365
 3898W        W76158  34.903  16.155   2.830
 3899W        W76159  20.476  19.166   5.492
 3900W        W76160   5.313  26.602   1.625
 3901W        W76161  41.648   3.446  11.579
 3902W        W76162  26.395   3.099  12.332
 3903W        W76163  22.459  29.436  14.227
 3904W        W76164  44.135  37.794   4.128
 3905W        W76165   1.020  16.781   0.734
 3906W        W76166  31.320  39.085   0.998
 3907W        W76167  23.380  23.129  14.342
 3908W        W76168   6.676  20.517  13.442
 3909W        W76169  36.247   1.011   4.320
 3910W        W76170  39.395  18.328   0.343
 3911W        W76171  44.387  36.185  13.161
 3912W        W76172  21.992  43.977   1.952
 3913W        W76173  15.387  24.205   4.057
 3914W        W76174   7.335  41.111   4.457
 3915W        W76175  12.091  22.890  14.851
 3916W        W76176   2.344   3.420  14.029
 3917W        W76177  32.163  22.577  12.039
 3918W        W76178   4.860  35.058   2.583
 3919W        W76179  42.985  44.135   4.062
 3920W        W76180  11.187  44.209   0.056
 3921W        W76181  24.595   2.375  12.584
 3922W        W76182  16.828  44.867  13.457
 3923W        W76183  37.076  40.748  13.403
 3924W        W76184  18.264  21.039  14.372
 3925W        W76185  34.020  20.949  11.584
 3926W        W76186  44.897  43.275  13.024
 3927W        W76187  38.983  37.029  13.357
 3928W        W76188  25.458  29.008  13.382
 3929W        W76189   0.909  42.718   2.232
 3930W        W76190  20.716  16.602   0.245
 3931W        W76191  39.468  27.239   0.624
 3932W        W76192   3.979  28.197   0.938
 3933W        W76193  17.132  38.770   2.212
 3934W        W76194  37.542   4.808  12.536
 3935W        W76195  12.670  16.168  12.921
 3936W        W76196  39.300  33.622   3.664
 3937W        W76197  17.928   9.122   2.305
 3938W        W76198  13.704  18.084  12.529
 3939W        W76199  44.451  24.515   2.731
 3940W        W76200  11.977  30.677   3.687
 3941W        W76201  12.647  30.443  13.432
 3942W        W76202  10.245  43.343   2.172
 3943W        W76203  18.189  31.130   0.522
 3944W        W76204  12.633  10.133   2.195
 3945W        W76205  35.659  35.752  11.478
 3946W        W76206  40.269   9.305  10.711
 3947W        W76207   5.252  29.975  12.593
 3948W        W76208  15.608  36.932   4.703
 3949W        W76209   2.482   7.016  13.545
 3950W        W76210   5.835  36.058   1.681
 3951W        W76211  44.968  36.897   0.649
 3952W        W76212  28.700  27.038   0.229
 3953W        W76213  36.112  28.238   3.740
 3954W        W76214  21.442  22.191  11.473
 3955W        W76215  29.871  15.960   1.388
 3956W        W76216  44.337  20.499   0.532
 3957W        W76217  30.700  18.996  11.561
 3958W        W76218   6.182  28.443   0.075
 3959W        W76219  40.702  28.820  14.405
 3960W        W76220  44.288  42.382   2.954
 3961W        W76221   5.644   3.411  12.494
 3962W        W76222  12.781  31.908   2.421
 3963W        W76223  28.659   5.918  13.361
 3964W        W76224   7.159  44.393  11.722
 3965W        W76225  36.877   0.716  11.538
 3966W        W76226  14.590   7.900  13.550
 3967W        W76227   2.614  23.748  13.475
 3968W        W76228  20.320   9.103  11.074
 3969W        W76229  19.535  24.513   1.157
 3970W        W76230  37.891   0.727   1.008
 3971W        W76231   2.514   7.107   4.046
 3972W        W76232  19.123   5.355   2.944
 3973W        W76233  11.934   7.740   1.883
 3974W        W76234  23.742  39.078   2.179
 3975W        W76235  25.641  44.508  13.312
 3976W        W76236  41.425   0.364   2.420
 3977W        W76237  21.809  41.030   1.710
 3978W        W76238  30.790  16.174  12.471
 3979W        W76239  20.988  34.487   3.268
 3980W        W76240  18.832   3.396   5.122
 3981W        W76241  30.849  42.946   1.539
 3982W        W76242  11.897  43.453   2.274
 3983W        W76243  17.860  13.528   2.247
 3984W        W76244  36.393  28.815  12.913
 3985W        W76245  35.201  41.073   1.397
 3986W        W76246  20.032   1.295   0.281
 3987W        W76247  17.186   4.699  12.527
 3988W        W76248  25.492  38.380  12.365
 3989W        W76249  28.029  16.759  13.449
 3990W        W76250   0.071   1.801   1.798
 3991W        W76251  23.709  43.482  11.493
 3992W        W76252  19.420  12.299  12.518
 3993W        W76253  12.610  20.895  11.227
 3994W        W76254  11.082  43.667  14.940
 3995W        W76255   9.154  30.954   1.859
 3996W        W76256  15.782  19.011  12.006
 3997W        W76257  22.642  30.638   4.097
 3998W        W76258   6.357   7.251  12.912
 3999W        W76259  39.836  14.954   1.822
 4000W        W76260   6.709  35.103  13.820
 4001W        W76261   4.269   2.845   1.344
 4002W        W76262   5.898  13.556  14.410
 4003W        W76263   9.359  20.350  12.552
 4004W        W76264  21.293  34.166   1.023
 4005W        W76265  38.556  12.112   0.761
 4006W        W76266  39.343   6.666  13.639
 4007W        W76267  26.903  31.272  12.059
 4008W        W76268  13.895  31.857  10.051
 4009W        W76269   2.362   4.065  12.388
 4010W        W76270  14.793  13.206   1.395
 4011W        W76271  37.406  30.164   3.212
 4012W        W76272   5.159  37.495  12.199
 4013W        W76273   5.298  33.404  12.143
 4014W        W76274  44.593  42.706  12.423
 4015W        W76275  38.974  24.572  14.499
 4016W        W76276   7.312  29.741  12.722
 4017W        W76277  10.686  42.920  12.227
 4018W        W76278   8.603  38.997  14.410
 4019W        W76279  32.609  37.373   0.371
 4020W        W76280   4.699  32.057   0.965
 4021W        W76281  42.551  44.375   0.807
 4022W        W76282  16.354  15.111  13.455
 4023W        W76283  19.988   9.618  12.568
 4024W        W76284   7.447  13.884  12.379
 4025W        W76285  22.229  41.276  12.506
 4026W        W76286  11.223  36.288   1.793
 4027W        W76287   5.339  14.613   4.947
 4028W        W76288  35.035  21.725   1.148
 4029W        W76289   3.472  23.534   4.253
 4030W        W76290  36.990  32.352  14.931
 4031W        W76291  10.817   9.279  11.966
 4032W        W76292   2.327  13.194   1.502
 4033W        W76293  43.862  39.342  14.348
 4034W        W76294  16.524   6.477   3.867
 4035W        W76295  11.756  36.935  13.732
 4036W        W76296  41.845  30.717  11.071
 4037W        W76297   4.993   5.979  12.083
 4038W        W76298  26.184  16.250   4.156
 4039W        W76299  43.326   7.152  12.099
 4040W        W76300   7.852  23.228  11.919
 4041W        W76301  12.588  13.236   0.846
 4042W        W76302  41.529  24.749   2.277
 4043W        W76303   0.350  25.695  13.894
 4044W        W76304  33.585  38.085  14.061
 4045W        W76305   7.667  34.925  11.106
 4046W        W76306  17.376  33.943  12.156
 4047W        W76307  11.767   1.221  10.715
 4048W        W76308   3.894  40.356  11.810
 4049W        W76309   7.447  31.582  11.604
 4050W        W76310  30.925  27.859  11.540
 4051W        W76311  20.774  38.958  11.612
 4052W        W76312  37.465  27.464  12.338
 4053W        W76313  19.055  17.637   3.330
 4054W        W76314  35.425  18.477  14.751
 4055W        W76315   8.726  10.321  13.496
 4056W        W76316  17.527  39.906   1.186
 4057W        W76317  44.440   9.089  13.405
 4058W        W76318  24.104  37.634   0.262
 4059W        W76319  37.486  19.688   0.635
 4060W        W76320  38.462   4.240   3.028
 4061W        W76321  32.839  35.873  13.991
 4062W        W76322  40.340   3.061   3.691
 4063W        W76323  16.135   5.936  10.513
 4064W        W76324  42.331  38.826   2.538
 4065W        W76325   7.719  18.833  10.947
 4066W        W76326   6.324  41.563  13.930
 4067W        W76327  36.926  18.248   2.613
 4068W        W76328  40.545  13.152   2.725
 4069W        W76329   1.452  39.059   0.420
 4070W        W76330   6.977  11.272   2.521
 4071W        W76331  22.758  30.506  13.437
 4072W        W76332  17.084  27.035   0.973
 4073W        W76333  21.120  41.538  10.260
 4074W        W76334   3.519  20.941   0.434
 4075W        W76335  22.559  25.918  12.158
 4076W        W76336   9.726  39.590   2.220
 4077W        W76337   5.720  24.209  11.642
 4078W        W76338  17.748  17.435   3.560
 4079W        W76339  10.144   0.095   0.892
 4080W        W76340  31.458  43.745   0.058
 4081W        W76341  29.930   6.907  10.699
 4082W        W76342  11.192   6.825   0.800
 4083W        W76343   8.686   0.655  13.814
 4084W        W76344  32.561  20.181  14.356
 4085W        W76345  12.372   6.406   4.628
 4086W        W76346  24.584  41.023   0.371
 4087W        W76347   9.783   5.878  11.624
 4088W        W76348  12.691  23.364   4.375
 4089W        W76349  16.748  33.607   1.932
 4090W        W76350  23.622  28.306  11.916
 4091W        W76351  19.104  42.740   4.085
 4092W        W76352  43.392  43.727   2.309
 4093W        W76353  30.538  36.103  10.682
 4094W        W76354  44.486  44.282   0.427
 4095W        W76355  37.869  43.384   1.712
 4096W        W76356  29.709  11.629  12.498
 4097W        W76357  30.608   7.486  11.283
 4098W        W76358   3.366  36.745  14.930
 4099W        W76359  28.374  19.617   3.615
 4100W        W76360  40.633  15.598  13.925
 4101W        W76361  28.822   7.656   4.109
 4102W        W76362  27.705   6.596  12.173
 4103W        W76363  28.447  24.029   3.137
 4104W        W76364  10.130  18.222   1.959
 4105W        W76365  33.030  23.951  12.467
 4106W        W76366   7.377  37.396  10.581
 4107W        W76367  11.292   4.505  13.849
 4108W        W76368  32.415  11.676   3.830
 4109W        W76369  40.325  38.294  12.892
 4110W        W76370  15.343  26.616  12.566
 4111W        W76371  44.552  17.737   3.681
 4112W        W76372   3.515  38.843   2.315
 4113W        W76373  40.177  16.297  12.447
 4114W        W76374  37.032  26.753   3.912
 4115W        W76375  29.451  38.770   1.781
 4116W        W76376  15.194  41.518   3.912
 4117W        W76377  29.531  35.900   3.352
 4118W        W76378  19.263  17.242   2.845
 4119W        W76379   9.355  20.181  10.707
 4120W        W76380  19.014  17.777  11.525
 4121W        W76381   3.862  31.293  14.356
 4122W        W76382  18.233  23.094   4.696
 4123W        W76383  41.268  26.955   4.343
 4124W        W76384  31.842   8.883   4.145
 4125W        W76385  43.285  43.012  12.125
 4126W        W76386   7.631  40.823  14.806
 4127W        W76387  31.067  14.633   3.142
 4128W        W76388   9.545  32.444  13.754
 4129W        W76389  34.296  24.561   3.734
 4130W        W76390  31.437   0.533   2.764
 4131W        W76391  44.599  32.372  11.863
 4132W        W76392  40.849   7.050   1.268
 4133W        W76393  21.220   4.740  13.015
 4134W        W76394  26.966  41.851   9.991
 4135W        W76395  20.221  26.888  14.842
 4136W        W76396  41.885  24.049  12.880
 4137W        W76397   2.930  15.325   2.294
 4138W        W76398   3.988  26.159  11.674
 4139W        W76399  13.172   1.234  13.543
 4140W        W76400   6.518  42.713   9.851
 4141W        W76401  11.623  27.212  12.400
 4142W        W76402  10.147  15.102   2.374
 4143W        W76403  25.460  14.052   1.903
 4144W        W76404  33.766   7.749   2.763
 4145W        W76405  24.384   2.457   4.792
 4146W        W76406  15.803  13.380  11.532
 4147W        W76407  31.369   8.853   0.260
 4148W        W76408  33.706  21.725  13.047
 4149W        W76409  17.014  24.592   0.744
 4150W        W76410  16.873  20.111   2.138
 4151W        W76411  16.047  13.057   0.878
 4152W        W76412  24.482  21.480  11.001
 4153W        W76413  25.457  30.965  12.105
 4154W        W76414  27.604   9.004  12.570
 4155W        W76415   5.998   2.299   0.933
 4156W        W76416  41.399  23.775   4.185
 4157W        W76417  19.751  40.754   2.853
 4158W        W76418   2.368  22.332  11.510
 4159W        W76419  42.999   4.781   1.409
 4160W        W76420  25.516  32.697   3.306
 4161W        W76421   0.910   7.355  12.941
 4162W        W76422  20.684  25.266  13.441
 4163W        W76423  23.704  43.408  13.497
 4164W        W76424  44.695  44.308  11.693
 4165W        W76425  15.786  34.398   1.282
 4166W        W76426  15.034  30.613   3.345
 4167W        W76427  38.858   7.482   9.536
 4168W        W76428   9.108  33.624   2.796
 4169W        W76429   6.404  28.662  10.231
 4170W        W76430  10.334  38.228   2.804
 4171W        W76431  44.125  39.191   4.951
 4172W        W76432  33.117   5.830  11.356
 4173W        W76433  28.709  34.774   1.826
 4174W        W76434  32.622  31.521  10.952
 4175W        W76435  22.296  30.945  10.438
 4176W        W76436  17.277  21.318   0.829
 4177W        W76437   4.297   4.470   4.098
 4178W        W76438  13.031   8.934   5.039
 4179W        W76439  17.194  25.879  10.575
 4180W        W76440  38.756  12.170  10.446
 4181W        W76441   1.271  19.309  11.529
 4182W        W76442  30.661  37.299   1.760
 4183W        W76443   1.889  22.324   3.744
 4184W        W76444  36.856  19.087  11.589
 4185W        W76445  20.233  29.246  12.509
 4186W        W76446  41.966  31.865   5.008
 4187W        W76447   6.775  31.666   1.747
 4188W        W76448  13.346  17.948   1.274
 4189W        W76449  25.853  21.200  11.579
 4190W        W76450  10.274   0.778  14.721
 4191W        W76451   2.441  30.161  11.562
 4192W        W76452  24.125  15.134  14.507
 4193W        W76453  32.690  13.622   3.914
 4194W        W76454  31.486  23.778  14.233
 4195W        W76455  32.067   3.965   3.984
 4196W        W76456  42.261   4.330   4.637
 4197W        W76457  21.474  38.594   9.865
 4198W        W76458   0.522   0.318  12.542
 4199W        W76459  13.132  34.963   2.810
 4200W        W76460  44.184   9.238  11.689
 4201W        W76461  28.488  14.354   1.643
 4202W        W76462  15.581  17.683   5.113
 4203W        W76463  27.612   4.839  12.653
 4204W        W76464  34.944  25.345  10.391
 4205W        W76465  13.593  22.065   2.171
 4206W        W76466  43.833  16.410   4.104
 4207W        W76467  35.000  39.127   1.418
 4208W        W76468   0.057  18.680  13.380
 4209W        W76469  19.603  26.872   0.703
 4210W        W76470  33.917  12.692  11.601
 4211W        W76471  15.353  42.587   2.235
 4212W        W76472  43.437  34.104  10.581
 4213W        W76473  19.628  28.080  12.388
 4214W        W76474  16.078  19.687  13.408
 4215W        W76475  39.724  30.640  11.578
 4216W        W76476  39.578  21.541   3.282
 4217W        W76477  35.352  39.886   0.278
 4218W        W76478  17.539   2.392  14.229
 4219W        W76479  13.305  10.415  12.056
 4220W        W76480  19.319   4.383  13.334
 4221W        W76481  29.165   7.983   1.863
 4222W        W76482   2.363  15.698   3.863
 4223W        W76483  38.343  36.463   1.954
 4224W        W76484  33.845   7.031   2.517
 4225W        W76485  32.046   2.361   1.744
 4226W        W76486   4.693  29.959  13.896
 4227W        W76487  14.156  28.933   4.527
 4228W        W76488  40.314  16.676   3.331
 4229W        W76489  33.560  42.437  10.794
 4230W        W76490   4.781  43.976   0.367
 4231W        W76491  44.220  18.208   0.308
 4232W        W76492  44.321  32.313   3.812
 4233W        W76493  24.267  24.519   4.210
 4234W        W76494   5.822  36.410  11.863
 4235W        W76495  35.797   1.720  12.103
 4236W        W76496  36.610  24.181  12.406
 4237W        W76497  44.076  17.195  13.641
 4238W        W76498  24.510   9.110   1.351
 4239W        W76499  39.694  26.666  14.532
 4240W        W76500  42.935  36.839  14.256
 4241W        W76501   6.265  21.739  11.141
 4242W        W76502  39.933  25.190  12.050
 4243W        W76503  41.897  31.496   4.624
 4244W        W76504  22.056  28.610   0.580
 4245W        W76505   0.543  36.578  10.689
 4246W        W76506  39.104  31.187  11.681
 4247W        W76507   6.016  28.764   0.447
 4248W        W76508  32.351   1.842  12.562
 4249W        W76509  43.187  27.489   2.175
 4250W        W76510   1.393  13.926  12.586
 4251W        W76511  30.451   1.521  13.919
 4252W        W76512  38.312  44.542  11.129
 4253W        W76513  19.348  23.449  14.896
 4254W        W76514  12.713  29.203  12.627
 4255W        W76515   4.210  26.238  13.849
 4256W        W76516  33.009  12.646  11.405
 4257W        W76517   0.001  11.806  10.308
 4258W        W76518  34.097  26.317   2.650
 4259W        W76519  34.964  29.550  13.815
 4260W        W76520  15.281  19.613   4.633
 4261W        W76521  33.137  26.966   1.764
 4262W        W76522  28.652   8.337  14.170
 4263W        W76523  12.642  28.734  13.000
 4264W        W76524  12.528   0.387  11.665
 4265W        W76525  22.997  26.173   5.085
 4266W        W76526  44.336  20.552   0.005
 4267W        W76527  14.237  27.967   9.705
 4268W        W76528  10.260  18.041   2.423
 4269W        W76529  21.315  27.788  12.383
 4270W        W76530   1.465   0.494  12.444
 4271W        W76531  33.601  22.154  12.410
 4272W        W76532   0.346  10.103  11.850
 4273W        W76533  31.005   7.008  14.835
 4274W        W76534  27.794  32.185   1.440
 4275W        W76535  18.187   9.216   5.096
 4276W        W76536   3.479  14.924   3.029
 4277W        W76537  23.074  35.132  13.414
 4278W        W76538  36.860  14.318  13.434
 4279W        W76539  40.826  10.235   2.696
 4280W        W76540   8.992  32.535  14.846
 4281W        W76541  18.584  15.766   3.296
 4282W        W76542  22.789  31.887  14.833
 4283W        W76543  26.719  39.029   4.989
 4284W        W76544  40.298  34.402   0.699
 4285W        W76545  12.542  38.286  12.057
 4286W        W76546  26.525  28.923   1.440
 4287W        W76547  21.341   9.802   0.844
 4288W        W76548  24.930  16.611   2.220
 4289W        W76549  13.140  24.445  12.508
 4290W        W76550  13.167  43.358  11.569
 4291W        W76551  32.179  33.784  14.316
 4292W        W76552   7.656  31.580  12.942
 4293W        W76553   6.204  41.324  11.455
 4294W        W76554  33.908  18.441   3.340
 4295W        W76555  43.819   8.164   3.849
 4296W        W76556  22.043  23.697   3.868
 4297W        W76557   8.371  42.756   1.459
 4298W        W76558  29.155  34.991  12.002
 4299W        W76559  31.899  35.944   0.911
 4300W        W76560  21.492   8.860   3.444
 4301W        W76561   6.240  18.118   0.802
 4302W        W76562  10.633   5.649  14.383
 4303W        W76563  15.511  15.568  12.024
 4304W        W76564  28.074  18.420  11.964
 4305W        W76565  27.709  22.011   1.817
 4306W        W76566  27.145   8.268  10.724
 4307W        W76567   0.674  14.093  12.883
 4308W        W76568   2.719  34.161   1.346
 4309W        W76569  21.186  19.236   5.174
 4310W        W76570   2.410  16.027  14.954
 4311W        W76571  34.490  40.482   3.404
 4312W        W76572  22.230  15.078   3.386
 4313W        W76573  44.156   2.713   2.250
 4314W        W76574   3.534  37.489  12.842
 4315W        W76575   7.694   9.340   1.370
 4316W        W76576  19.502  32.916   3.665
 4317W        W76577  36.027  30.532   3.223
 4318W        W76578  35.361   8.240   2.236
 4319W        W76579  31.516  19.475  11.564
 4320W        W76580  17.662  28.125  14.885
 4321W        W76581  15.809  42.366  13.713
 4322W        W76582  26.850   8.360   3.423
 4323W        W76583  41.412  32.911   4.631
 4324W        W76584  32.475  10.050  12.266
 4325W        W76585  31.013  21.216  10.701
 4326W        W76586  19.151   9.616   3.600
 4327W        W76587   5.314  12.100   2.816
 4328W        W76588  20.957   8.209   1.967
 4329W        W76589  36.331   2.435  12.850
 4330W        W76590  24.053  33.518   1.664
 4331W        W76591  35.906   4.770  11.919
 4332W        W76592  28.106  27.597   0.405
 4333W        W76593   6.947  34.469   0.815
 4334W        W76594  43.254  42.259   3.551
 4335W        W76595   3.552  29.667  11.095
 4336W        W76596  42.251   8.356   4.980
 4337W        W76597   1.790  10.379   0.693
 4338W        W76598   1.868  14.809  14.061
 4339W        W76599  16.328  20.689  13.592
 4340W        W76600  25.091  38.510   4.960
 4341W        W76601  41.879   0.195   2.612
 4342W        W76602  22.703  29.610   4.603
 4343W        W76603  31.571  43.012   2.881
 4344W        W76604  29.893  25.105   0.036
 4345W        W76605  16.823  11.624  13.306
 4346W        W76606   4.929  37.500   2.443
 4347W        W76607   0.272  21.063   2.194
 4348W        W76608  18.647  28.130  12.119
 4349W        W76609  10.745  11.826  13.396
 4350W        W76610  22.487  30.550   1.721
 4351W        W76611  42.044   9.420  14.858
 4352W        W76612  19.810   8.373  10.763
 4353W        W76613   8.357   4.016   2.102
 4354W        W76614   1.672  35.100  14.006
 4355W        W76615  26.657  27.200  12.411
 4356W        W76616  39.321  38.819  13.594
 4357W        W76617  21.798  25.949   1.449
 4358W        W76618  37.343   7.110   3.214
 4359W        W76619  18.507   3.454   0.486
 4360W        W76620  33.572   6.333   1.811
 4361W        W76621  10.105   6.313   4.117
 4362W        W76622  25.023  15.244  12.934
 4363W        W76623  24.452  16.305   3.468
 4364W        W76624   4.734   0.863   4.690
 4365W        W76625   3.906  16.251   2.219
 4366W        W76626  40.288  17.500   1.669
 4367W        W76627  25.817  37.107   0.875
 4368W        W76628   2.958   3.915  11.060
 4369W        W76629  41.142  12.294   1.786
 4370W        W76630  20.300   0.915   1.371
 4371W        W76631  20.497  36.936  10.731
 4372W        W76632   2.862  29.090   3.762
 4373W        W76633  26.720   9.376  11.108
 4374W        W76634  42.367  29.139   4.775
 4375W        W76635  25.121  33.095   4.675
 4376W        W76636  17.528  29.961   2.824
 4377W        W76637   4.715  10.274  13.419
 4378W        W76638   1.470   6.167  12.971
 4379W        W76639  19.514   0.807   1.770
 4380W        W76640  19.147  18.692  14.477
 4381W        W76641  21.064  43.939   0.971
 4382W        W76642  44.913  43.193   2.330
 4383W        W76643  36.397  30.336  13.035
 4384W        W76644  32.992   8.367   4.814
 4385W        W76645  18.438   6.853   0.968
 4386W        W76646  44.748  26.740  14.226
 4387W        W76647   3.250  12.167  11.117
 4388W        W76648  19.527  44.506  13.221
 4389W        W76649  27.764  34.986   0.025
 4390W        W76650  14.641   6.924  11.729
 4391W        W76651  37.013  33.924   3.864
 4392W        W76652  25.436  42.142  10.775
 4393W        W76653  25.497   8.786  12.379
 4394W        W76654  39.991   5.269   1.277
 4395W        W76655   7.862  31.641  10.716
 4396W        W76656  23.189  37.798   1.354
 4397W        W76657  22.259  21.556   9.763
 4398W        W76658  37.940  27.981   0.307
 4399W        W76659  44.338  21.850  14.389
 4400W        W76660  18.239  37.965   3.616
 4401W        W76661  13.293  34.585   0.515
 4402W        W76662  33.099  30.001   0.725
 4403W        W76663  14.084  42.102   3.301
 4404W        W76664  11.742  14.219   1.313
 4405W        W76665  41.535  14.187   0.804
 4406W        W76666   6.829  34.047   3.218
 4407W        W76667   3.674  29.726   3.683
 4408W        W76668  40.920  28.057   4.244
 4409W        W76669  31.150  28.048   2.299
 4410W        W76670   1.897   7.991   1.591
 4411W        W76671  37.938   6.237  14.749
 4412W        W76672  16.581  12.198  11.356
 4413W        W76673  19.251  40.061   1.333
 4414W        W76674   5.146   5.915   1.491
 4415W        W76675  27.238  12.588  10.689
 4416W        W76676  21.669  21.270   1.186
 4417W        W76677  20.991   8.814   0.951
 4418W        W76678  14.826  41.233   2.650
 4419W        W76679  43.333  21.050  12.115
 4420W        W76680  14.818  31.299  13.560
 4421W        W76681  29.618   7.176  14.872
 4422W        W76682  28.998  24.708  11.283
 4423W        W76683  10.693  44.233   4.794
 4424W        W76684  31.455   9.685   4.453
 4425W        W76685   6.066   7.253  12.481
 4426W        W76686   4.274  34.376  14.207
 4427W        W76687  35.050  39.899   1.848
 4428W        W76688  30.685  14.370  13.916
 4429W        W76689  33.621  13.100   1.759
 4430W        W76690  22.706  42.963   0.922
 4431W        W76691   6.817  28.686   1.899
 4432W        W76692  33.835  33.574   0.908
 4433W        W76693   9.328  13.863   2.190
 4434W        W76694  20.901  42.971  11.490
 4435W        W76695  16.023   6.174  12.872
 4436W        W76696  32.422  30.026   1.892
 4437W        W76697  32.240  16.656  14.807
 4438W        W76698  22.943  26.247  10.194
 4439W        W76699   6.494  40.203  14.621
 4440W        W76700  17.774  24.531   2.466
 4441W        W76701  25.919  24.486  10.774
 4442W        W76702  16.204  17.122  11.490
 4443W        W76703  20.238  13.354  10.677
 4444W        W76704  38.007  10.821   1.786
 4445W        W76705  11.180  26.722  11.354
 4446W        W76706  27.396  23.059   2.673
 4447W        W76707  24.594   6.763   2.857
 4448W        W76708  39.563  22.696   3.893
 4449W        W76709  27.131  23.372  12.940
 4450W        W76710  37.017  33.189  14.019
 4451W        W76711  18.748  37.667   0.701
 4452W        W76712   8.696   8.423  14.027
 4453W        W76713  13.251  13.363  13.508
 4454W        W76714  39.528  29.090   3.240
 4455W        W76715  27.568  34.447   1.323
 4456W        W76716  17.747  33.573  10.904
 4457W        W76717   0.187  13.747  10.747
 4458W        W76718  14.756  15.638  11.125
 4459W        W76719  22.280  29.454   3.154
 4460W        W76720  27.230   9.603  11.945
 4461W        W76721  27.111  34.348   1.668
 4462W        W76722  15.055  25.006  12.909
 4463W        W76723  14.226  10.386  14.384
 4464W        W76724  16.657  33.467   0.474
 4465W        W76725   5.274  16.830   1.916
 4466W        W76726   2.763  34.443  13.137
 4467W        W76727   6.922  40.660   3.607
 4468W        W76728  32.470   0.527  14.091
 4469W        W76729  23.047  20.469  10.686
 4470W        W76730  24.241  19.564   1.888
 4471W        W76731  30.063  31.361   3.350
 4472W        W76732   1.862  18.606   2.374
 4473W        W76733  14.691  14.090   1.993
 4474W        W76734  11.664   1.461   0.823
 4475W        W76735   2.351  44.327  10.778
 4476W        W76736   0.379  27.053  10.656
 4477W        W76737   6.708  29.716   2.284
 4478W        W76738  43.766  23.736   3.420
 4479W        W76739  38.836  36.585   2.823
 4480W        W76740   7.392  17.659   1.351
 4481W        W76741   9.197  40.019  10.806
 4482W        W76742  42.448  40.034   1.884
 4483W        W76743  12.087  19.293  11.621
 4484W        W76744  40.622   0.865  11.352
 4485W        W76745  40.359  43.415   2.478
 4486W        W76746  32.514  34.787  14.296
 4487W        W76747  13.271  16.315  13.700
 4488W        W76748  13.551   9.302   3.711
 4489W        W76749   2.894  26.980   4.626
 4490W        W76750   1.923   2.790  13.622
 4491W        W76751  33.157  40.309   1.523
 4492W        W76752   1.774   9.271   1.212
 4493W        W76753  40.488   9.148   2.828
 4494W        W76754  44.073  18.470  14.861
 4495W        W76755   5.897  33.920  11.930
 4496W        W76756  44.953  26.430  11.957
 4497W        W76757  29.860  37.436   0.486
 4498W        W76758  11.427   0.882   2.684
 4499W        W76759  40.275   2.964   1.213
 4500W        W76760  30.415  12.632   2.237
 4501W        W76761  15.832   7.109   3.467
 4502W        W76762  18.660   3.761   1.327
 4503W        W76763  13.171   9.814   4.774
 4504W        W76764  33.162  19.410   2.769
 4505W        W76765  24.968  41.955  10.840
 4506W        W76766  11.505  15.729  14.781
 4507W        W76767   3.510   1.822   2.568
 4508W        W76768  17.562  27.340   2.579
 4509W        W76769  32.665  41.995   4.137
 4510W        W76770   0.037  34.671   0.412
 4511W        W76771  18.480  44.249  11.348
 4512W        W76772   6.440   7.648   3.275
 4513W        W76773  16.268   8.922  12.551
 4514W        W76774   7.749   7.276  10.791
 4515W        W76775  37.541  15.292  13.803
 4516W        W76776  29.158  21.933  13.881
 4517W        W76777  22.088  25.499  14.830
 4518W        W76778  22.029  29.341  14.529
 4519W        W76779  11.552  17.181   0.247
 4520W        W76780   8.927  35.689  14.574
 4521W        W76781  12.626  44.272   4.762
 4522W        W76782  12.739  37.328  11.177
 4523W        W76783  14.042   8.090   4.529
 4524W        W76784  37.868   3.705   1.001
 4525W        W76785  41.102  24.612  11.169
 4526W        W76786  28.626  29.922  13.477
 4527W        W76787  21.226  18.178   3.253
 4528W        W76788  29.405  14.320  13.653
 4529W        W76789  40.951  35.987  14.012
 4530W        W76790  43.505  34.401   2.433
 4531W        W76791  21.684  16.786  11.717
 4532W        W76792  27.780  12.443  13.085
 4533W        W76793   8.366  42.346   0.470
 4534W        W76794   7.839  41.835  11.444
 4535W        W76795  41.880  21.736  14.242
 4536W        W76796  32.579  39.096   0.017
 4537W        W76797  21.708  11.325  14.007
 4538W        W76798  43.101   0.185   0.908
 4539W        W76799  40.461  10.622   3.691
 4540W        W76800  24.844   9.373  10.781
 4541W        W76801  21.168  18.058   2.323
 4542W        W76802  42.442   9.228   4.139
 4543W        W76803  31.630  35.000  14.759
 4544W        W76804  20.034  26.450  10.272
 4545W        W76805  35.366  39.119  13.745
 4546W        W76806   8.505   9.821  12.503
 4547W        W76807   2.507  28.587  11.199
 4548W        W76808   7.281  11.364   3.275
 4549W        W76809   5.387   5.975   3.717
 4550W        W76810  28.406  29.090  13.093
 4551W        W76811  26.932   7.672  14.916
 4552W        W76812  26.677   5.415   3.318
 4553W        W76813  24.912  44.643  14.746
 4554W        W76814   0.564  39.897  12.969
 4555W        W76815  26.862  38.059   4.178
 4556W        W76816   4.408  38.976   3.377
 4557W        W76817  16.593  24.175   0.073
 4558W        W76818  25.126  12.816   0.408
 4559W        W76819  37.763  34.793  13.801
 4560W        W76820  10.192  10.671  10.381
 4561W        W76821  32.611  16.872   1.151
 4562W        W76822  18.270  11.720   4.344
 4563W        W76823   3.404  43.425  13.852
 4564W        W76824  36.427   4.406  11.228
 4565W        W76825  15.716   0.052  11.607
 4566W        W76826  40.056  20.337  12.358
 4567W        W76827  32.621   0.395  11.824
 4568W        W76828  31.399  34.383   0.509
 4569W        W76829   7.866  25.053   4.801
 4570W        W76830  44.408  16.506   4.126
 4571W        W76831  43.144   1.771  13.234
 4572W        W76832  33.210   2.204  12.391
 4573W        W76833   5.752  23.298   2.680
 4574W        W76834  21.102  35.998  14.786
 4575W        W76835  31.448  23.128   0.347
 4576W        W76836  23.134  21.949   0.890
 4577W        W76837  39.375  43.567   2.243
 4578W        W76838  10.627   9.748   2.758
 4579W        W76839  39.832  35.469  11.567
 4580W        W76840  25.007  23.977   4.596
 4581W        W76841  44.278  35.345  11.180
 4582W        W76842  21.250  17.145   4.694
 4583W        W76843  39.918  35.839   4.911
 4584W        W76844  22.690   4.214   3.844
 4585W        W76845   5.635  22.437  14.689
 4586W        W76846  25.597  39.909   3.350
 4587W        W76847   1.704  36.322   0.357
 4588W        W76848  13.754  27.461   2.005
 4589W        W76849  13.686  16.755  11.848
 4590W        W76850  42.543  33.119   3.196
 4591W        W76851  27.711  31.095  14.908
 4592W        W76852  42.856  10.038   0.290
 4593W        W76853  42.277   4.524   4.147
 4594W        W76854  34.856  35.120  14.256
 4595W        W76855  35.927  35.419   0.270
 4596W        W76856   2.029  29.131  11.982
 4597W        W76857  26.556   7.658  13.983
 4598W        W76858   2.657  26.147   0.912
 4599W        W76859   4.401  32.471  14.762
 4600W        W76860  29.918  41.634   1.176
 4601W        W76861   8.234  16.336   2.142
 4602W        W76862  28.167   1.399  14.467
 4603W        W76863  28.429  14.083  10.881
 4604W        W76864  42.969  16.709  14.788
 4605W        W76865  23.002  15.497  11.145
 4606W        W76866  20.131  15.831  10.638
 4607W        W76867   8.585  27.185   3.276
 4608W        W76868  30.856  32.363   4.247
 4609W        W76869  22.207  25.386   4.616
 4610W        W76870  12.184   4.194  14.618
 4611W        W76871  22.713  31.379  14.950
 4612W        W76872  34.616  39.911  10.567
 4613W        W76873  15.164  26.772  14.786
 4614W        W76874  17.017  39.801  12.903
 4615W        W76875  16.172  40.383  14.179
 4616W        W76876  26.663  33.465   3.257
 4617W        W76877  11.221  41.181  13.512
 4618W        W76878  23.486   3.727   4.578
 4619W        W76879  24.590  16.894   0.375
 4620W        W76880   8.645  21.231  12.244
 4621W        W76881   4.010  26.959  13.429
 4622W        W76882  15.792   2.234  14.713
 4623W        W76883  32.994  31.211   3.028
 4624W        W76884   9.137  39.619  13.868
 4625W        W76885   5.191  33.913  12.923
 4626W        W76886  18.003  28.430   0.190
 4627W        W76887   8.725   3.480   1.755
 4628W        W76888   1.291   4.294  11.696
 4629W        W76889  35.569   1.823  14.521
 4630W        W76890  18.860  19.199  10.641
 4631W        W76891  32.908  21.258   1.538
 4632W        W76892  22.766  33.933  11.238
 4633W        W76893  35.052   9.362  11.115
 4634W        W76894  40.039   0.459   0.852
 4635W        W76895  40.886  38.371   2.599
 4636W        W76896  11.265   5.155   3.668
 4637W        W76897  22.987  29.031   1.181
 4638W        W76898  27.209  11.847  11.790
 4639W        W76899  11.326  35.284   1.412
 4640W        W76900  36.872  34.008  10.665
 4641W        W76901   2.913   1.654  13.580
 4642W        W76902  18.615  42.382  14.102
 4643W        W76903   4.265  36.402  14.075
 4644W        W76904  27.914  31.088  12.960
 4645W        W76905  43.086   8.861  10.221
 4646W        W76906  18.530  23.575  13.066
 4647W        W76907  26.487  19.226  14.056
 4648W        W76908  27.855  11.999   1.454
 4649W        W76909  25.924  14.758  14.530
 4650W        W76910  11.070  40.408   3.038
 4651W        W76911   4.964  36.998   0.815
 4652W        W76912   3.448  12.190  12.847
 4653W        W76913  10.230   8.606  10.546
 4654W        W76914   9.237   3.023  14.087
 4655W        W76915  21.547  28.700   2.168
 4656W        W76916  31.061  22.450   2.488
 4657W        W76917  27.084  39.263   9.771
 4658W        W76918  31.264   5.312  12.106
 4659W        W76919  22.121  19.502   3.713
 4660W        W76920  44.391  13.242   4.208
 4661W        W76921  28.490  11.159  10.522
 4662W        W76922  28.021  40.802  11.170
 4663W        W76923  21.082  39.438   3.858
 4664W        W76924   9.764  37.083  13.352
 4665W        W76925  25.218  44.801  11.005
 4666W        W76926  31.120  29.626  14.397
 4667W        W76927  38.001   7.467  12.368
 4668W        W76928  13.259  17.135   4.244
 4669W        W76929   4.868  26.031   2.289
 4670W        W76930   9.973  17.599   2.367
 4671W        W76931  13.593  41.487   1.580
 4672W        W76932  32.427  41.890   3.664
 4673W        W76933  27.489  30.644  10.599
 4674W        W76934   1.435   2.497   3.901
 4675W        W76935  13.759  19.752   5.009
 4676W        W76936  15.882  40.969  12.132
 4677W        W76937  21.220  21.766  11.714
 4678W        W76938  14.523  23.096   2.731
 4679W        W76939  14.354  29.137  11.901
 4680W        W76940   0.841  16.774  11.833
 4681W        W76941  15.928  31.662   2.243
 4682W        W76942   4.465  38.516  12.386
 4683W        W76943  28.041   7.651   2.436
 4684W        W76944   4.225  21.071  11.171
 4685W        W76945  44.750   6.426  14.005
 4686W        W76946   3.681  39.365   1.829
 4687W        W76947  25.016   0.922   2.319
 4688W        W76948  15.828  23.145  14.585
 4689W        W76949  13.956  34.515  11.990
 4690W        W76950  29.019  25.735  12.174
 4691W        W76951  21.902  41.422  14.019
 4692W        W76952  32.837  36.360  13.854
 4693W        W76953  38.570  27.286  13.888
 4694W        W76954  28.227  29.357   2.294
 4695W        W76955  11.460   2.343  11.724
 4696W        W76956   1.964  23.356   3.745
 4697W        W76957  29.515  25.367  10.229
 4698W        W76958   4.797  25.558  11.847
 4699W        W76959  19.861  29.766   1.308
 4700W        W76960   9.265  25.106  10.471
 4701W        W76961   3.541  30.362   0.126
 4702W        W76962  31.058  30.110   1.476
 4703W        W76963  16.688   8.755   1.301
 4704W        W76964  19.125  30.951  11.219
 4705W        W76965   0.294  41.672   3.094
 4706W        W76966  19.063  12.869  12.404
 4707W        W76967   7.259  13.110   1.740
 4708W        W76968  43.191   9.450  11.614
 4709W        W76969  10.290  32.417   3.743
 4710W        W76970  42.335  33.592   3.225
 4711W        W76971  27.930   0.371  14.719
 4712W        W76972   0.971   7.070   3.328
 4713W        W76973  36.137   8.689   0.376
 4714W        W76974   1.500  22.502   1.327
 4715W        W76975  11.355  24.721  12.940
 4716W        W76976   1.145   2.688  11.543
 4717W        W76977  23.913  34.165   3.341
 4718W        W76978  32.565  15.100   1.753
 4719W        W76979  44.008  13.697   4.342
 4720W        W76980  16.389  43.990  14.366
 4721W        W76981  39.468   7.687  12.045
 4722W        W76982  15.705  32.177  14.093
 4723W        W76983  17.683  25.188   3.600
 4724W        W76984  18.677  44.897   2.655
 4725W        W76985  30.091  17.707  14.451
 4726W        W76986  13.774   2.579   0.873
 4727W        W76987  38.417   0.958   2.216
 4728W        W76988  26.544  14.165   3.634
 4729W        W76989  42.837   7.821  13.429
 4730W        W76990  25.973  34.363  11.970
 4731W        W76991  39.043   7.693   4.120
 4732W        W76992   2.775  20.590   4.986
 4733W        W76993  34.324   1.509   2.909
 4734W        W76994   3.362  37.457   4.580
 4735W        W76995  29.143  43.804   0.849
 4736W        W76996  16.356  10.758   2.097
 4737W        W76997  32.150   7.815   3.502
 4738W        W76998  40.390  30.577   2.130
 4739W        W76999  17.116  44.344   0.871
 4740W        W77000  42.390  44.581   4.585
 4741W        W77001  20.620  43.164  12.528
 4742W        W77002   3.208   0.427   5.088
 4743W        W77003  11.209  21.153  13.705
 4744W        W77004  24.157  27.136  12.838
 4745W        W77005  12.570   2.736   1.349
 4746W        W77006   3.712  12.559   3.185
 4747W        W77007  22.052  30.358  14.129
 4748W        W77008   0.721  41.836   4.706
 4749W        W77009  10.669  17.207  14.322
 4750W        W77010   3.671  32.160   2.791
 4751W        W77011   5.145  29.692   5.027
 4752W        W77012  35.580  26.054   1.358
 4753W        W77013  39.494   8.912   1.457
 4754W        W77014   4.148   9.668   1.929
 4755W        W77015  34.431  36.962  13.132
 4756W        W77016  38.607   6.950   0.890
 4757W        W77017   4.164  25.678  14.077
 4758W        W77018  36.375  42.774  10.756
 4759W        W77019  24.317  41.918  11.103
 4760W        W77020  23.885  25.199  13.827
 4761W        W77021  25.508   7.541   4.924
 4762W        W77022  18.275   5.386  10.918
 4763W        W77023  23.392  18.218   3.238
 4764W        W77024  11.329   5.936  13.701
 4765W        W77025  20.886  28.626  10.673
 4766W        W77026  29.901  39.773  14.455
 4767W        W77027  32.073   3.395   4.107
 4768W        W77028   3.472   8.735   5.223
 4769W        W77029  23.576   8.430  14.903
 4770W        W77030  28.035  39.065  12.083
 4771W        W77031  21.476  40.533   0.277
 4772W        W77032  13.593  23.621   3.832
 4773W        W77033   3.023  16.670  11.554
 4774W        W77034  33.552  34.423   4.585
 4775W        W77035  18.945  33.420  14.875
 4776W        W77036  18.779   2.792   0.032
 4777W        W77037   9.576  36.732  11.532
 4778W        W77038  32.601   7.249  10.994
 4779W        W77039  25.019  22.055   4.167
 4780W        W77040  17.630  32.898   1.145
 4781W        W77041  14.475  42.531  13.370
 4782W        W77042  35.054  31.895  11.617
 4783W        W77043  35.498  14.209   1.353
 4784W        W77044   6.085  12.669   4.916
 4785W        W77045  25.741  17.383  12.926
 4786W        W77046  21.539  35.704  14.806
 4787W        W77047   3.521  21.625   1.019
 4788W        W77048  11.190  20.540   3.718
 4789W        W77049  24.916  37.066   3.706
 4790W        W77050  12.190  37.287  10.617
 4791W        W77051  22.932  39.357   0.414
 4792W        W77052  21.551   0.468  12.951
 4793W        W77053  41.883   4.092  13.886
 4794W        W77054  31.141  37.491   1.751
 4795W        W77055  17.547  18.836   0.448
 4796W        W77056   4.765  13.179   4.632
 4797W        W77057  27.510  15.796  12.155
 4798W        W77058  41.446  18.550   2.871
 4799W        W77059   4.597  32.571   1.281
 4800W        W77060  13.095  10.177   3.204
 4801W        W77061  33.347  25.572  11.068
 4802W        W77062  11.907  39.077   3.278
 4803W        W77063   9.938  38.943  10.992
 4804W        W77064  32.144  38.858   4.613
 4805W        W77065   9.540  29.870   4.113
 4806W        W77066  10.863  17.147  12.916
 4807W        W77067  36.786   1.409   0.372
 4808W        W77068  31.739   5.534   2.283
 4809W        W77069   1.354   6.696   2.698
 4810W        W77070  28.956  36.318  12.419
 4811W        W77071  14.858  29.975   5.043
 4812W        W77072  11.846  20.264   1.455
 4813W        W77073  35.524   1.413  14.007
 4814W        W77074  16.490   8.431   4.148
 4815W        W77075  17.671   0.951   2.819
 4816W        W77076   0.752  38.541  14.520
 4817W        W77077  12.069  33.977   3.370
 4818W        W77078  27.023  29.654   1.260
 4819W        W77079  17.543  22.635   1.713
 4820W        W77080   4.918  33.125   0.233
 4821W        W77081  41.345   5.952  14.007
 4822W        W77082  29.966  33.210   3.858
 4823W        W77083  25.521  43.733   0.770
 4824W        W77084   9.870  13.666   2.166
 4825W        W77085  29.468  31.991  10.619
 4826W        W77086  30.626   8.799  13.032
 4827W        W77087  11.845  31.588   4.198
 4828W        W77088  42.773  13.860   1.529
 4829W        W77089  14.148  20.997  13.897
 4830W        W77090  35.911  12.191  12.092
 4831W        W77091  39.651  11.424   0.358
 4832W        W77092  16.129   4.207   3.189
 4833W        W77093  13.201   8.375   2.916
 4834W        W77094  13.313  42.061  14.024
 4835W        W77095  11.661  24.958  13.605
 4836W        W77096  24.252   3.293   5.099
 4837W        W77097  36.753  22.035  14.239
 4838W        W77098  28.166   7.865   2.891
 4839W        W77099  13.327   6.426  11.979
 4840W        W77100  19.710  29.549   5.104
 4841W        W77101  36.722  13.581  14.292
 4842W        W77102  39.506  27.263   4.236
 4843W        W77103  15.676  27.761   0.861
 4844W        W77104  15.178  14.720  14.265
 4845W        W77105   3.351  33.108  13.089
 4846W        W77106  16.641  32.691  10.669
 4847W        W77107  21.907  29.122   4.735
 4848W        W77108  44.534  36.863  12.028
 4849W        W77109  22.626  15.811   2.385
 4850W        W77110   6.237  15.778   2.555
 4851W        W77111  15.976  13.093  11.928
 4852W        W77112  11.098  19.284  14.923
 4853W        W77113  23.265   1.988   3.445
 4854W        W77114  38.698  14.179  14.325
 4855W        W77115  22.012  20.094   4.017
 4856W        W77116  29.549  39.367  14.346
 4857W        W77117  17.161   2.336  13.250
 4858W        W77118  19.101  22.502   0.676
 4859W        W77119  24.746  10.568   4.224
 4860W        W77120  11.261   8.673  13.981
 4861W        W77121  23.345  28.963  10.664
 4862W        W77122  20.065  36.805   2.875
 4863W        W77123  10.838  26.949   1.740
 4864W        W77124   8.172  13.258  14.290
 4865W        W77125  34.976  41.202  14.268
 4866W        W77126  32.887  14.165  14.432
 4867W        W77127  14.098  40.281   4.620
 4868W        W77128  11.595  41.952   4.318
 4869W        W77129  13.685  36.731   4.669
 4870W        W77130  11.325  41.310  11.488
 4871W        W77131   0.734  28.144   9.763
 4872W        W77132   7.017  41.577  14.708
 4873W        W77133  20.647  21.644  10.130
 4874W        W77134   0.327  31.128   4.697
 4875W        W77135  33.078  12.923  11.821
 4876W        W77136  27.936   5.933   3.221
 4877W        W77137  38.502  17.649   0.392
 4878W        W77138  41.530  35.680  11.107
 4879W        W77139   9.765  26.917   0.909
 4880W        W77140  41.255  27.132   0.927
 4881W        W77141  29.618  40.075   0.263
 4882W        W77142  41.893  43.043   2.428
 4883W        W77143  24.649  12.866  12.583
 4884W        W77144  27.203   1.387  10.682
 4885W        W77145  29.725  24.561  12.689
 4886W        W77146  34.054  11.219  13.941
 4887W        W77147   4.402  21.757  12.371
 4888W        W77148   6.837  22.649  10.521
 4889W        W77149  10.379  20.257   1.345
 4890W        W77150   3.439  16.927  14.701
 4891W        W77151  43.398  19.465  14.566
 4892W        W77152   4.316  26.778   3.644
 4893W        W77153  11.635  28.096   0.745
 4894W        W77154  31.183  29.916   5.546
 4895W        W77155  22.593   0.248  14.249
 4896W        W77156  35.411  35.028   3.348
 4897W        W77157  35.488  41.616   0.530
 4898W        W77158  12.275  28.614  10.130
 4899W        W77159  44.855  28.496  11.226
 4900W        W77160  12.259   3.713  14.452
 4901W        W77161  27.629   2.881  12.828
 4902W        W77162  36.402  17.237  12.505
 4903W        W77163   6.004  17.648   1.429
 4904W        W77164  26.122   6.017  11.602
 4905W        W77165  40.293  22.229  11.570
 4906W        W77166  13.913  12.182   1.755
 4907W        W77167   9.703  34.139  14.770
 4908W        W77168  11.696  42.416   4.613
 4909W        W77169  42.424  17.262   2.768
 4910W        W77170  15.201   0.158  12.866
 4911W        W77171   7.740  41.813  12.956
 4912W        W77172  16.630  21.549   3.360
 4913W        W77173  29.193  21.643   2.907
 4914W        W77174  28.564  34.884  13.941
 4915W        W77175  10.171  14.339  12.598
 4916W        W77176  36.456   0.846   2.775
 4917W        W77177  44.356  32.932   3.659
 4918W        W77178  17.070  26.832   3.711
 4919W        W77179  35.628  22.397   2.316
 4920W        W77180  12.796   2.235   0.245
 4921W        W77181  19.944  19.432  12.412
 4922W        W77182  31.887  39.858  12.066
 4923W        W77183   5.241  10.397   3.170
 4924W        W77184  14.573  16.689  13.365
 4925W        W77185  39.527   6.996   3.115
 4926W        W77186  34.672  22.532   1.525
 4927W        W77187   7.258  12.184  10.993
 4928W        W77188  28.984   6.184   2.432
 4929W        W77189  37.456  37.606   3.608
 4930W        W77190   2.280  42.844   3.698
 4931W        W77191   1.295   2.494  13.585
 4932W        W77192  38.516  20.027   1.926
 4933W        W77193  19.687  14.287  12.125
 4934W        W77194   9.944  15.862  13.978
 4935W        W77195  16.191  14.701  11.280
 4936W        W77196  11.744  36.942   4.514
 4937W        W77197   8.201  37.551  13.734
 4938W        W77198  24.260  32.130   4.606
 4939W        W77199  11.280  11.106  13.439
 4940W        W77200  32.018  44.762   0.973
 4941W        W77201  30.447  35.593  10.688
 4942W        W77202  24.706   6.232   4.120
 4943W        W77203  24.605   7.904   4.273
 4944W        W77204  40.818  36.531  11.927
 4945W        W77205  31.107  43.734   1.224
 4946W        W77206  15.552   5.832   2.154
 4947W        W77207  10.319  43.402   3.711
 4948W        W77208  19.252  13.305   1.918
 4949W        W77209  21.955   7.892   4.151
 4950W        W77210  25.514  36.053   0.040
 4951W        W77211  44.030  35.055  14.984
 4952W        W77212   0.949  40.660   1.239
 4953W        W77213  25.459  14.264  14.817
 4954W        W77214  23.618  18.349   1.211
 4955W        W77215  22.786  28.919  11.531
 4956W        W77216  44.829   6.137  14.870
 4957W        W77217  32.652  26.181  14.413
 4958W        W77218  40.465  23.240   1.230
 4959W        W77219  21.112   2.772   1.897
 4960W        W77220  22.718  35.712  11.689
 4961W        W77221   6.137  14.219   9.904
 4962W        W77222  34.649  37.251  14.298
 4963W        W77223  19.802  39.858   0.725
 4964W        W77224   5.138  19.170  14.756
 4965W        W77225  44.464  13.114  11.555
 4966W        W77226  33.928  27.453  12.076
 4967W        W77227  24.175  32.696   3.747
 4968W        W77228  28.064  33.648  14.275
 4969W        W77229  24.167  22.753   5.158
 4970W        W77230  28.951  40.895  14.767
 4971W        W77231  28.455   1.232   2.388
 4972W        W77232  22.812  17.569  11.976
 4973W        W77233  11.359  41.561  10.585
 4974W        W77234  40.010  29.028  13.596
 4975W        W77235  28.062   3.427  13.303
 4976W        W77236  36.908  20.825   1.361
 4977W        W77237  16.230  15.775  14.813
 4978W        W77238  39.512  17.850   1.339
 4979W        W77239  37.135  39.977  14.842
 4980W        W77240   7.208  24.616  12.138
 4981W        W77241   6.135  24.050  10.733
 4982W        W77242  10.167  20.788  10.835
 4983W        W77243  32.450   1.923   1.782
 4984W        W77244  10.578   8.084   1.690
 4985W        W77245   7.840  21.544  14.596
 4986W        W77246  37.394  26.597   4.749
 4987W        W77247  12.147  20.812   2.744
 4988W        W77248  25.577  24.574  11.684
 4989W        W77249  24.043  36.906   4.558
 4990W        W77250  18.858   9.313  11.065
 4991W        W77251  43.874  23.043  14.948
 4992W        W77252  20.625   8.765   0.569
 4993W        W77253  30.676   5.231   4.153
 4994W        W77254  12.659  44.887  14.477
 4995W        W77255   7.430  32.075   3.255
 4996W        W77256  28.825  19.717  11.132
 4997W        W77257   9.962  32.467   1.796
 4998W        W77258  36.569  26.677  14.282
 4999W        W77259  12.760  30.887  11.668
 5000W        W77260   5.891  37.542   2.244
 5001W        W77261   1.959  37.426   4.538
 5002W        W77262  37.331  21.184   1.243
 5003W        W77263   5.787  30.626  12.400
 5004W        W77264   1.216  14.327  13.509
 5005W        W77265   3.850   9.268  12.632
 5006W        W77266  30.667  15.161  10.708
 5007W        W77267  30.614   1.853   2.693
 5008W        W77268  10.413   0.086   2.303
 5009W        W77269  17.724   6.175   0.275
 5010W        W77270  33.769  36.830   1.316
 5011W        W77271   6.306  38.147  13.612
 5012W        W77272  32.357  29.960   0.100
 5013W        W77273  20.527  31.168   1.479
 5014W        W77274  44.182  26.206  14.487
 5015W        W77275  19.237   8.740   9.703
 5016W        W77276   5.179   3.976   4.065
 5017W        W77277   8.384  12.178  12.445
 5018W        W77278  10.609  38.843  14.211
 5019W        W77279   8.710  37.630   1.842
 5020W        W77280  22.904  35.820  10.761
 5021W        W77281  22.019   0.452  14.061
 5022W        W77282  15.198  35.256  14.697
 5023W        W77283   5.925   6.236   4.473
 5024W        W77284  20.290  20.976  12.498
 5025W        W77285  22.254  11.832   0.535
 5026W        W77286  40.541  24.426   2.125
 5027W        W77287  27.020  15.177   4.161
 5028W        W77288  10.473  39.899  13.491
 5029W        W77289  31.755   5.010   1.914
 5030W        W77290  18.903  19.932   2.338
 5031W        W77291  34.091   0.343  10.935
 5032W        W77292  39.361  28.025   0.554
 5033W        W77293   2.766  12.385   1.892
 5034W        W77294   4.797  11.554   2.400
 5035W        W77295  34.971  20.233   3.161
 5036W        W77296  32.593  35.064  13.517
 5037W        W77297  17.931   9.917  13.797
 5038W        W77298   9.636   9.761  14.756
 5039W        W77299  23.408   9.374   3.133
 5040W        W77300  35.530  29.403   1.813
 5041W        W77301  25.931  11.980  12.017
 5042W        W77302  40.430  14.681   2.280
 5043W        W77303  32.756  20.912  11.980
 5044W        W77304   7.839   7.924   3.245
 5045W        W77305  27.617   9.370  12.173
 5046W        W77306  39.086  14.771   3.176
 5047W        W77307   0.630   3.349   3.409
 5048W        W77308  26.028  38.798  13.107
 5049W        W77309  13.228  37.809   4.056
 5050W        W77310  38.470  14.293   2.648
 5051W        W77311   0.892  36.561   2.408
 5052W        W77312  23.501  28.066   2.328
 5053W        W77313   2.400  34.887  10.318
 5054W        W77314  18.160   6.181   4.193
 5055W        W77315   0.027  32.350   2.789
 5056W        W77316  36.329  22.515  11.251
 5057W        W77317  10.561  15.118  13.207
 5058W        W77318  33.413   3.529   1.623
 5059W        W77319  39.362  39.388  12.200
 5060W        W77320  24.666   2.724   2.717
 5061W        W77321  32.991   9.821   2.662
 5062W        W77322  42.959  24.350   1.915
 5063W        W77323  22.752  43.984  12.926
 5064W        W77324   4.732  16.952   2.778
 5065W        W77325  39.050  39.805   2.677
 5066W        W77326  29.661  26.362   4.400
 5067W        W77327   6.377   7.919   0.531
 5068W        W77328  41.379   4.349   3.074
 5069W        W77329  37.104   4.756  13.813
 5070W        W77330   7.039  25.267  10.323
 5071W        W77331  38.325  36.471   2.845
 5072W        W77332  43.251  31.576  13.019
 5073W        W77333  22.082  11.138  11.117
 5074W        W77334   6.427   4.995   0.727
 5075W        W77335   9.249  22.102  11.546
 5076W        W77336  23.316  38.401   3.957
 5077W        W77337  38.385   4.856   4.866
 5078W        W77338  31.880  41.535  14.679
 5079W        W77339  10.194  44.424   3.448
 5080W        W77340  16.316  10.213  14.281
 5081W        W77341  37.378  12.751   4.572
 5082W        W77342  38.109  35.339  11.060
 5083W        W77343  14.102  14.962   3.911
 5084W        W77344  25.668  19.430  13.991
 5085W        W77345   7.800  20.635  14.694
 5086W        W77346  43.776  23.378   0.388
 5087W        W77347  22.919  28.385   4.157
 5088W        W77348  19.354  15.209  12.583
 5089W        W77349   8.096   7.810   2.813
 5090W        W77350  28.780  12.546  14.685
 5091W        W77351  13.667  19.503   3.250
 5092W        W77352  24.608   2.474  14.017
 5093W        W77353  34.707  44.715   3.312
 5094W        W77354  30.646  39.927   4.548
 5095W        W77355  33.008  22.182  10.695
 5096W        W77356  26.636  15.126   5.087
 5097W        W77357  37.841  30.144  11.465
 5098W        W77358   0.301   1.244   1.694
 5099W        W77359   9.360  25.075   0.446
 5100W        W77360   4.017  12.840   1.793
 5101W        W77361  19.638   6.389   2.335
 5102W        W77362  30.901  13.109   0.822
 5103W        W77363   5.331  35.125  12.165
 5104W        W77364   8.322  36.431   2.443
 5105W        W77365  29.177  39.502  14.695
 5106W        W77366  25.997  43.502   0.825
 5107W        W77367  38.109   6.237   0.705
 5108W        W77368  40.888   3.354  12.125
 5109W        W77369  14.472  26.072   1.100
 5110W        W77370  11.449  34.897   3.089
 5111W        W77371   1.298  32.364   3.387
 5112W        W77372  10.310  38.613   1.848
 5113W        W77373  29.628  12.733   0.303
 5114W        W77374  12.689  23.206  13.049
 5115W        W77375  19.294  41.552   1.851
 5116W        W77376  20.063  19.937  12.521
 5117W        W77377   8.755  32.024  14.014
 5118W        W77378   8.938   2.569  11.098
 5119W        W77379  42.323   0.187   0.563
 5120W        W77380  39.066  25.481   4.251
 5121W        W77381   2.222  31.411   4.815
 5122W        W77382  30.142  15.549  13.630
 5123W        W77383  36.491  37.020   4.470
 5124W        W77384  34.981  41.083   0.505
 5125W        W77385  32.766  21.632  14.221
 5126W        W77386  29.060  22.015  11.746
 5127W        W77387  17.346  29.219   5.047
 5128W        W77388  30.981  18.650  12.478
 5129W        W77389  18.537  27.081  13.447
 5130W        W77390   2.890  15.503   3.000
 5131W        W77391  28.067  18.807   3.596
 5132W        W77392  13.102   7.957  12.047
 5133W        W77393  30.998   8.019   4.672
 5134W        W77394  28.030   6.384   3.649
 5135W        W77395   9.438  30.070   2.782
 5136W        W77396  37.846  12.066   2.355
 5137W        W77397  11.866  26.877   3.706
 5138W        W77398  29.850  18.696  14.688
 5139W        W77399  34.303   8.916   1.277
 5140W        W77400  41.284  13.842  11.477
 5141W        W77401  28.038   1.085   2.735
 5142W        W77402  14.154  21.786  11.880
 5143W        W77403   4.429  20.508  10.694
 5144W        W77404  14.038  14.788   0.875
 5145W        W77405  16.440  17.402   5.097
 5146W        W77406  13.053  28.170  11.893
 5147W        W77407  17.035  27.644   1.255
 5148W        W77408  29.200  35.371  13.370
 5149W        W77409  29.811  15.793  14.639
 5150W        W77410   9.160  26.916  13.984
 5151W        W77411  33.632   7.105  14.974
 5152W        W77412  39.086  18.936  10.606
 5153W        W77413   3.309  43.065  12.188
 5154W        W77414  32.663  24.626   0.458
 5155W        W77415  25.192  36.381   2.322
 5156W        W77416  19.178   8.653   3.299
 5157W        W77417  24.411   5.881   1.109
 5158W        W77418  40.924  32.519  12.645
 5159W        W77419   4.461  14.045  13.917
 5160W        W77420  13.984  43.770  11.111
 5161W        W77421   9.805   8.256   0.404
 5162W        W77422  40.981  30.196   0.836
 5163W        W77423  25.533   6.410  10.676
 5164W        W77424  19.251  42.827   3.592
 5165W        W77425  20.194  18.564  10.598
 5166W        W77426  35.399   6.980   0.720
 5167W        W77427  16.798  17.629   4.279
 5168W        W77428  23.530   7.705   4.021
 5169W        W77429  26.241  37.375   0.718
 5170W        W77430   0.976  11.769   1.766
 5171W        W77431   5.257   0.371   1.426
 5172W        W77432  11.190   4.288   0.389
 5173W        W77433  40.431   4.043  12.109
 5174W        W77434  40.878  33.384   1.756
 5175W        W77435  36.046  21.663   4.533
 5176W        W77436  35.591  36.905   3.893
 5177W        W77437   6.156  34.055   0.181
 5178W        W77438   3.093  16.337  13.483
 5179W        W77439  44.218  30.148  11.987
 5180W        W77440   3.329  35.641  10.731
 5181W        W77441  10.220  23.629  14.432
 5182W        W77442  14.116  38.807  10.572
 5183W        W77443  27.717  43.267   3.601
 5184W        W77444  43.891  33.996  13.837
 5185W        W77445  34.567   7.843  12.947
 5186W        W77446  24.023  10.671   0.007
 5187W        W77447  29.701   0.354  13.505
 5188W        W77448  11.709  42.468   2.288
 5189W        W77449  26.061  12.296  10.963
 5190W        W77450  27.525  36.431   2.910
 5191W        W77451  19.151   2.656   2.209
 5192W        W77452  32.337  17.835  12.925
 5193W        W77453  27.901   7.812  10.956
 5194W        W77454  37.355  37.427  14.865
 5195W        W77455  39.816  12.621   1.871
 5196W        W77456   9.904   9.109   3.683
 5197W        W77457  27.251   2.519   0.020
 5198W        W77458  34.386  33.899  13.834
 5199W        W77459  36.953   7.209   2.631
 5200W        W77460   8.383   7.491  11.395
 5201W        W77461  11.147  27.892   3.286
 5202W        W77462  26.966  30.684   2.184
 5203W        W77463  18.015  36.523   2.310
 5204W        W77464  39.316  14.323   0.867
 5205W        W77465  26.888  38.875  10.695
 5206W        W77466  38.020  21.454   3.253
 5207W        W77467  21.577   8.768   1.948
 5208W        W77468  26.655   1.940  14.797
 5209W        W77469   5.849   5.068  11.844
 5210W        W77470  24.578   1.196  12.881
 5211W        W77471  19.074   4.402  14.868
 5212W        W77472  12.216  18.253  13.408
 5213W        W77473  26.874  31.174   2.186
 5214W        W77474  33.082   1.256  13.697
 5215W        W77475  26.860  23.137  11.184
 5216W        W77476  35.788  40.641  11.133
 5217W        W77477  37.315  22.131   4.062
 5218W        W77478  32.130  23.471   4.134
 5219W        W77479  27.531  32.105  12.044
 5220W        W77480  36.504  36.083  13.971
 5221W        W77481  32.929  29.971   4.596
 5222W        W77482   7.142   7.531   3.683
 5223W        W77483  30.089  20.986   3.071
 5224W        W77484   4.366  28.173   0.006
 5225W        W77485  14.043  40.304  13.929
 5226W        W77486   1.329  22.591   4.906
 5227W        W77487  15.709  35.629   4.694
 5228W        W77488  29.495  18.214   0.823
 5229W        W77489  34.085  32.188  11.346
 5230W        W77490  34.472  28.320  11.680
 5231W        W77491  21.711  11.427   1.350
 5232W        W77492  16.325  15.623  13.481
 5233W        W77493  14.639  20.122  13.991
 5234W        W77494  41.555  41.422  11.095
 5235W        W77495  36.933  16.294   0.039
 5236W        W77496  36.989  15.079   1.482
 5237W        W77497  38.009   7.357   2.703
 5238W        W77498  30.720   2.862  12.580
 5239W        W77499   1.197  27.297  13.777
 5240W        W77500   4.373  30.148  14.289
 5241W        W77501  30.379  34.746  11.134
 5242W        W77502  23.606  44.057   4.220
 5243W        W77503  20.271   4.824   3.117
 5244W        W77504  28.941  21.719   3.343
 5245W        W77505  26.607  43.262   1.708
 5246W        W77506  20.193  38.361   0.429
 5247W        W77507  14.142  21.285  13.087
 5248W        W77508  43.901  23.651  13.279
 5249W        W77509  10.146   0.025  12.600
 5250W        W77510   6.405  12.162   0.260
 5251W        W77511  21.809  19.850  10.355
 5252W        W77512   9.413  38.545   1.426
 5253W        W77513  10.053  14.553  13.584
 5254W        W77514   8.959   0.024   3.270
 5255W        W77515  25.591  28.938  12.039
 5256W        W77516   2.658  38.887  13.790
 5257W        W77517  37.968  30.493   0.420
 5258W        W77518  22.670  19.033   5.119
 5259W        W77519  18.561  36.314   4.092
 5260W        W77520  42.757   8.682   2.158
 5261W        W77521  43.953   6.323  12.040
 5262W        W77522  43.384  25.667   2.844
 5263W        W77523  37.608  35.344  11.104
 5264W        W77524  34.051  19.819  13.189
 5265W        W77525  12.132  40.382  14.550
 5266W        W77526   2.595  28.152   0.758
 5267W        W77527  28.026   3.895   2.907
 5268W        W77528  28.985   8.070  11.115
 5269W        W77529  41.344  10.237   2.659
 5270W        W77530  25.506  27.405   3.912
 5271W        W77531  26.533  29.623   2.068
 5272W        W77532  30.867  16.222   1.183
 5273W        W77533  16.555  29.736   4.064
 5274W        W77534   7.635  30.132  13.458
 5275W        W77535   9.642  31.135   4.648
 5276W        W77536  43.219  28.560  14.125
 5277W        W77537  22.922   8.128  11.448
 5278W        W77538  24.990  44.279   1.165
 5279W        W77539   6.406  35.052  10.784
 5280W        W77540   2.438  24.027   2.245
 5281W        W77541  21.926   4.298  11.854
 5282W        W77542  32.732  34.016   4.836
 5283W        W77543  25.066  24.250  14.824
 5284W        W77544  21.563   4.402  12.793
 5285W        W77545  11.256   4.724  12.421
 5286W        W77546  29.624  31.674   3.205
 5287W        W77547   3.504  42.531  13.595
 5288W        W77548  14.184  41.948  10.617
 5289W        W77549  19.194  41.242   0.279
 5290W        W77550  11.614  23.190  11.912
 5291W        W77551  26.005  16.638  12.758
 5292W        W77552  32.559  17.039   4.541
 5293W        W77553  15.777  18.653   2.708
 5294W        W77554  18.349  26.250   3.606
 5295W        W77555   8.490  32.581  12.891
 5296W        W77556  42.800  31.515   3.155
 5297W        W77557   1.323  38.841  11.485
 5298W        W77558   6.796   1.712  11.698
 5299W        W77559  24.311   0.784  11.578
 5300W        W77560   0.919  35.634   3.879
 5301W        W77561  37.173  16.025  12.021
 5302W        W77562  19.193   0.333  13.466
 5303W        W77563  22.810  10.785   4.266
 5304W        W77564   9.739  11.696   0.447
 5305W        W77565  33.983  23.827   4.093
 5306W        W77566  11.344   4.287   0.892
 5307W        W77567  18.647  28.235  14.376
 5308W        W77568  29.897   9.450  10.633
 5309W        W77569  34.660   6.015  13.858
 5310W        W77570  39.143  16.852  14.517
 5311W        W77571  14.781  36.348  11.514
 5312W        W77572  24.669  11.376   3.582
 5313W        W77573  38.347   6.751  10.345
 5314W        W77574  26.579  38.105  14.962
 5315W        W77575   4.229  24.561   1.951
 5316W        W77576  29.414  28.678   3.637
 5317W        W77577  32.626  15.896  11.350
 5318W        W77578  23.933  26.688  13.035
 5319W        W77579  26.072  34.586  14.653
 5320W        W77580  40.203  42.434   3.661
 5321W        W77581  31.471   0.046  11.081
 5322W        W77582  44.474   5.886  12.000
 5323W        W77583  18.211   6.379   0.230
 5324W        W77584  36.353  38.258   4.553
 5325W        W77585  20.275  12.809  11.540
 5326W        W77586  35.050  29.596   2.825
 5327W        W77587  37.363  15.536   2.430
 5328W        W77588  14.832   8.832  11.000
 5329W        W77589  29.159  42.632  11.906
 5330W        W77590  30.631  41.563   0.325
 5331W        W77591  21.135  25.745   3.631
 5332W        W77592  16.152   1.395  14.439
 5333W        W77593   2.464  22.672   3.500
 5334W        W77594  43.711  15.155   4.033
 5335W        W77595   6.895  23.080   1.257
 5336W        W77596  16.231  23.659  12.978
 5337W        W77597  26.616  36.529   3.973
 5338W        W77598  33.034  38.804   0.262
 5339W        W77599  11.451  11.239  14.173
 5340W        W77600   1.788  28.951   1.205
 5341W        W77601  42.900  11.426  10.993
 5342W        W77602  12.596   0.365  12.182
 5343W        W77603  39.384  33.475  14.919
 5344W        W77604   4.419  18.765   2.690
 5345W        W77605   3.743   6.987   2.728
 5346W        W77606  25.580  13.143   1.615
 5347W        W77607  39.338  27.572   4.646
 5348W        W77608  34.395  32.637  14.895
 5349W        W77609  31.889  28.132   2.775
 5350W        W77610  27.919  25.491   1.458
 5351W        W77611   3.441  26.013   0.446
 5352W        W77612  37.382   3.035   3.281
 5353W        W77613  31.094  33.894   3.627
 5354W        W77614  20.478  27.718   9.851
 5355W        W77615  11.259  12.324   4.509
 5356W        W77616  36.406   2.378  14.722
 5357W        W77617  42.848  17.191  10.705
 5358W        W77618   8.760  32.293   2.449
 5359W        W77619  38.435  15.066  14.464
 5360W        W77620   2.542  28.218   3.343
 5361W        W77621  33.180  43.968   4.975
 5362W        W77622  20.584  27.328   4.056
 5363W        W77623  15.232  21.766  11.884
 5364W        W77624  15.005  23.493   0.219
 5365W        W77625  12.822  12.866  14.072
 5366W        W77626  18.184   0.194  14.887
 5367W        W77627  30.646  35.116  11.492
 5368W        W77628  12.698  23.002   0.994
 5369W        W77629   2.856  28.605   0.714
 5370W        W77630  28.103   1.770   4.029
 5371W        W77631  32.681  11.438  13.539
 5372W        W77632   2.337   4.018  14.879
 5373W        W77633   4.960   2.292   1.929
 5374W        W77634  30.553  25.071   3.327
 5375W        W77635  16.207  38.769   2.347
 5376W        W77636  18.650  29.050  11.935
 5377W        W77637  25.590  44.983   4.616
 5378W        W77638  13.567  20.722  11.087
 5379W        W77639  36.351  25.457  14.015
 5380W        W77640   5.253   8.304   1.674
 5381W        W77641  22.393  39.938   0.008
 5382W        W77642   4.422   7.019   3.183
 5383W        W77643  10.410  40.041   1.788
 5384W        W77644  31.446  24.194  14.565
 5385W        W77645  41.853  10.285  14.494
 5386W        W77646  31.468  18.157   2.326
 5387W        W77647  30.481   5.793  11.982
 5388W        W77648  24.452  36.602  12.891
 5389W        W77649  24.624  40.544   0.664
 5390W        W77650  29.605   8.868  14.740
 5391W        W77651  35.743  24.465  12.646
 5392W        W77652  35.883  27.187   4.207
 5393W        W77653  22.194  19.182   0.039
 5394W        W77654   9.851  24.888   4.190
 5395W        W77655  32.984  30.215   3.115
 5396W        W77656  15.378   0.270  12.401
 5397W        W77657  19.593  41.753   0.792
 5398W        W77658   1.304  38.309  11.641
 5399W        W77659  35.075  18.255  14.420
 5400W        W77660  36.021  43.567  11.672
 5401W        W77661  38.490  36.645  13.431
 5402W        W77662  23.343   9.798   4.236
 5403W        W77663  29.946   8.895   0.460
 5404W        W77664  16.096  29.064   3.379
 5405W        W77665   6.493   3.358   3.881
 5406W        W77666  14.011  28.139   0.944
 5407W        W77667  44.814  29.612  14.238
 5408W        W77668   4.716  14.109   2.159
 5409W        W77669  42.721  19.492   3.105
 5410W        W77670  38.917  17.027   3.280
 5411W        W77671  22.494  44.230  10.585
 5412W        W77672  17.783   7.459  11.618
 5413W        W77673  18.115  36.021   4.124
 5414W        W77674  13.021   5.246  11.554
 5415W        W77675  43.885  27.047  13.617
 5416W        W77676  42.461  26.535   0.355
 5417W        W77677   8.630  11.180  11.232
 5418W        W77678   9.306  42.410   4.573
 5419W        W77679  44.934   6.068   2.584
 5420W        W77680  23.311   9.376   1.869
 5421W        W77681  43.407  36.203  13.040
 5422W        W77682   3.886  27.111   3.683
 5423W        W77683   4.374  42.134   4.981
 5424W        W77684  35.013   3.748  11.959
 5425W        W77685  41.846  16.513   3.740
 5426W        W77686   0.574   3.929  12.980
 5427W        W77687  25.777  34.153   0.106
 5428W        W77688   8.004  28.756   5.005
 5429W        W77689  14.307  13.738   4.142
 5430W        W77690  13.871  19.596  10.512
 5431W        W77691  38.355   9.849   4.549
 5432W        W77692  29.775  11.677   2.879
 5433W        W77693   3.337   2.310  11.564
 5434W        W77694  12.176  15.003   4.092
 5435W        W77695  43.118   0.912   1.326
 5436W        W77696  37.846  14.804   3.656
 5437W        W77697  43.820   6.080  13.924
 5438W        W77698  29.683  15.310   3.870
 5439W        W77699  15.239   4.405   3.263
 5440W        W77700  25.348  15.689  10.559
 5441W        W77701  26.526   6.701   1.403
 5442W        W77702   4.672  14.553   3.379
 5443W        W77703  30.221  35.493  14.520
 5444W        W77704  31.412   3.284  12.434
 5445W        W77705  43.895  10.440   1.753
 5446W        W77706   3.905  25.493   3.318
 5447W        W77707  10.202  22.077   4.859
 5448W        W77708   2.082   6.685   3.709
 5449W        W77709  25.399  13.244  11.572
 5450W        W77710  21.315  34.583   3.700
 5451W        W77711  17.183  20.219   4.141
 5452W        W77712   2.167  44.964   2.231
 5453W        W77713   3.631  37.940  11.631
 5454W        W77714  12.249   1.365   1.228
 5455W        W77715  29.096  27.052  11.539
 5456W        W77716  14.812   7.849  11.801
 5457W        W77717  11.892  16.024   4.112
 5458W        W77718  29.461  17.554   4.118
 5459W        W77719  26.182  42.135   1.416
 5460W        W77720  11.724   0.223  10.514
 5461W        W77721  39.130  35.335   1.030
 5462W        W77722  12.108   8.451  11.097
 5463W        W77723   5.935  27.142   2.505
 5464W        W77724  17.612  35.314   1.164
 5465W        W77725   8.233  16.749  12.385
 5466W        W77726  28.227  32.434  12.269
 5467W        W77727  29.735   8.494  12.027
 5468W        W77728  44.414  21.342  14.374
 5469W        W77729  11.554  38.929  14.273
 5470W        W77730   2.833   2.267  11.763
 5471W        W77731  28.523  44.236   3.478
 5472W        W77732  11.864   6.706  11.105
 5473W        W77733   8.729  35.871  10.844
 5474W        W77734  13.238  23.160   4.634
 5475W        W77735  36.632  34.423  10.900
 5476W        W77736  14.064   7.767   0.960
 5477W        W77737  23.573   4.291   2.790
 5478W        W77738  21.485  11.768  13.828
 5479W        W77739  29.683  33.358  10.739
 5480W        W77740  30.420  16.463  11.498
 5481W        W77741  17.019  38.204   0.381
 5482W        W77742   1.284   1.706   4.251
 5483W        W77743  41.409  12.772   2.918
 5484W        W77744  33.393  34.680   0.751
 5485W        W77745   0.156  11.796   2.882
 5486W        W77746  23.277   7.228  11.400
 5487W        W77747  19.728  30.044   1.964
 5488W        W77748  11.252  21.803   1.823
 5489W        W77749  21.426  37.259   0.106
 5490W        W77750   5.291  21.448  13.820
 5491W        W77751  16.514  10.395   1.357
 5492W        W77752   7.105   7.884  11.171
 5493W        W77753  17.552  16.817  11.647
 5494W        W77754  10.666  13.972   1.820
 5495W        W77755   2.268  23.533   3.307
 5496W        W77756  33.521  22.280   0.879
 5497W        W77757  34.777  35.507  10.660
 5498W        W77758   1.600  19.353   3.255
 5499W        W77759  34.799  30.603  11.249
 5500W        W77760  44.755   6.648   3.178
 5501W        W77761  27.097  38.842   1.903
 5502W        W77762   2.522  33.015  12.027
 5503W        W77763  24.450   8.315   4.603
 5504W        W77764  32.340  40.489  14.733
 5505W        W77765  43.851  10.194  11.355
 5506W        W77766  23.120  23.604   1.421
 5507W        W77767  37.052  18.075   4.203
 5508W        W77768   7.642  26.371   1.856
 5509W        W77769   1.273  16.294  12.480
 5510W        W77770  23.302  25.737  13.341
 5511W        W77771  11.352  39.993   3.261
 5512W        W77772  29.392  10.212   1.862
 5513W        W77773  24.661   4.650  12.091
 5514W        W77774  17.317  39.299   3.245
 5515W        W77775  39.355   6.702   1.891
 5516W        W77776   3.413  32.529  12.262
 5517W        W77777  42.385  34.545  11.456
 5518W        W77778   0.302  26.784   2.437
 5519W        W77779   8.718   6.503   4.441
 5520W        W77780  19.764  29.635   4.611
 5521W        W77781  38.985  22.305   1.957
 5522W        W77782  26.988  11.086   2.751
 5523W        W77783   8.207  32.175  11.535
 5524W        W77784  19.093   1.538   4.564
 5525W        W77785  32.943  13.639  14.495
 5526W        W77786  34.886  28.509   3.904
 5527W        W77787  43.887   3.217  11.436
 5528W        W77788  31.170  19.258   2.561
 5529W        W77789  10.371  10.421   1.848
 5530W        W77790  33.841  18.952   0.520
 5531W        W77791  23.147  15.647  12.130
 5532W        W77792  28.733  25.721  14.908
 5533W        W77793   6.441  23.556   3.566
 5534W        W77794  33.480  43.538  14.345
 5535W        W77795  26.770  11.705  12.600
 5536W        W77796  29.305   6.221  10.703
 5537W        W77797  41.867  28.036   5.098
 5538W        W77798  20.589  28.690   1.379
 5539W        W77799  29.234   5.351  12.081
 5540W        W77800  44.475  29.386  13.513
 5541W        W77801   7.206  32.002  11.397
 5542W        W77802  19.565   3.820  10.757
 5543W        W77803  38.585   7.248   3.610
 5544W        W77804  39.715  34.472   1.787
 5545W        W77805   1.243  29.072   4.241
 5546W        W77806  33.023  13.311   4.430
 5547W        W77807   3.436  10.611  14.915
 5548W        W77808   9.111   1.151   0.918
 5549W        W77809  36.038  13.914   0.441
 5550W        W77810  18.836  16.096  13.939
 5551W        W77811  17.845   6.294   3.803
 5552W        W77812  23.528  28.349   5.405
 5553W        W77813  35.473  39.084  11.468
 5554W        W77814   9.889  38.529   3.234
 5555W        W77815  16.334  30.617  13.325
 5556W        W77816  10.875  37.074  10.536
 5557W        W77817   5.438   9.637   0.882
 5558W        W77818  36.685   6.441   4.272
 5559W        W77819  10.781  20.187  13.879
 5560W        W77820  28.720  14.287   2.427
 5561W        W77821  18.530   3.871   0.810
 5562W        W77822  40.208   4.347   3.880
 5563W        W77823  41.082  36.657  10.458
 5564W        W77824  24.318  12.298  13.978
 5565W        W77825   1.489   4.401  14.485
 5566W        W77826  38.495   5.402  13.012
 5567W        W77827  34.110  16.344  14.778
 5568W        W77828  38.028   5.802   0.990
 5569W        W77829   1.363  13.344   1.750
 5570W        W77830  32.553  39.903  13.003
 5571W        W77831   6.892  42.044   2.222
 5572W        W77832  14.324   0.344   3.378
 5573W        W77833   3.821  15.743  12.205
 5574W        W77834  28.242   2.670   1.796
 5575W        W77835  34.942   6.086  14.310
 5576W        W77836  34.991  25.751   4.648
 5577W        W77837   8.701   7.180  11.141
 5578W        W77838  38.128  34.065  14.059
 5579W        W77839  41.885   3.762   1.299
 5580W        W77840   5.224  23.102   0.706
 5581W        W77841   7.418   8.138  12.503
 5582W        W77842  40.297   6.094  11.548
 5583W        W77843   2.750  16.352  10.509
 5584W        W77844  19.485  19.688   1.380
 5585W        W77845  34.494  43.691  14.091
 5586W        W77846  12.374  28.746  10.945
 5587W        W77847  31.283  16.064  12.479
 5588W        W77848   6.986   3.760   2.196
 5589W        W77849  37.443  19.256  11.016
 5590W        W77850  10.428  13.684   4.960
 5591W        W77851  36.041  16.393   3.214
 5592W        W77852  40.038   1.488   1.621
 5593W        W77853  30.962   8.237  12.321
 5594W        W77854  43.756  44.374  11.275
 5595W        W77855  27.494  25.427   4.807
 5596W        W77856  21.966  35.926  11.911
 5597W        W77857  29.689   7.124   1.750
 5598W        W77858   9.270  15.748   3.908
 5599W        W77859  37.387   7.668   4.452
 5600W        W77860  43.961   8.692  13.797
 5601W        W77861  31.063  28.473  14.786
 5602W        W77862  16.017   8.812  11.488
 5603W        W77863  18.242  23.190   4.176
 5604W        W77864  20.600  24.000   1.521
 5605W        W77865  33.481   2.302   3.245
 5606W        W77866   1.941  34.121  12.915
 5607W        W77867   0.057  13.780   1.412
 5608W        W77868  38.572  15.485  12.359
 5609W        W77869   2.489  23.188   0.826
 5610W        W77870   1.522  12.755  12.993
 5611W        W77871   2.453  26.019   2.341
 5612W        W77872  37.000  31.219   2.621
 5613W        W77873   9.664   2.972   2.807
 5614W        W77874   2.207  43.949   3.179
 5615W        W77875  10.141  11.342   1.565
 5616W        W77876  32.851  17.665   3.289
 5617W        W77877   9.092   6.782   4.221
 5618W        W77878  37.966   6.951  12.342
 5619W        W77879  12.930  32.438   4.574
 5620W        W77880  21.097  25.173   2.800
 5621W        W77881   9.368  18.539   1.228
 5622W        W77882  13.775   7.876   0.524
 5623W        W77883  24.217  12.037  10.208
 5624W        W77884  12.282  14.177  11.553
 5625W        W77885  27.999   5.926   9.963
 5626W        W77886  40.569  28.177  13.605
 5627W        W77887  26.102  44.106   4.850
 5628W        W77888  38.119  20.943  11.061
 5629W        W77889  38.591  21.106  13.173
 5630W        W77890  34.076  30.953   2.405
 5631W        W77891  27.983  29.939  14.258
 5632W        W77892  29.040  40.360  12.397
 5633W        W77893  40.789  34.543   3.029
 5634W        W77894  28.424  31.931  10.649
 5635W        W77895  36.948  12.692   4.878
 5636W        W77896  42.034  26.414   1.901
 5637W        W77897  42.925   5.973  13.500
 5638W        W77898  14.540  19.619  14.356
 5639W        W77899  42.517  28.585  14.792
 5640W        W77900  42.005  34.182   0.048
 5641W        W77901  18.094  44.220  13.407
 5642W        W77902  11.078  44.850   4.214
 5643W        W77903   7.282  44.615  13.246
 5644W        W77904  37.001  40.996   1.067
 5645W        W77905   3.295  29.148   1.368
 5646W        W77906  19.634  26.176   2.809
 5647W        W77907  21.105  22.175  13.505
 5648W        W77908  16.794  15.928   4.951
 5649W        W77909  13.269  22.976  12.537
 5650W        W77910  32.592  40.396  13.391
 5651W        W77911   6.499  43.813   4.618
 5652W        W77912   9.226  24.501   2.766
 5653W        W77913  23.589   9.347   4.075
 5654W        W77914  38.413  37.542   4.961
 5655W        W77915  44.485  40.793  14.835
 5656W        W77916  26.637   4.792  13.058
 5657W        W77917  13.666  20.069  10.559
 5658W        W77918  13.506  37.356  12.981
 5659W        W77919  24.409   0.265   2.066
 5660W        W77920  15.554  14.275  14.863
 5661W        W77921  31.029  12.300  10.711
 5662W        W77922  28.628  29.436   2.610
 5663W        W77923  23.541  29.587   4.136
 5664W        W77924   5.242  21.098   2.751
 5665W        W77925  40.849  40.298   1.341
 5666W        W77926  32.981  36.944  12.456
 5667W        W77927  26.156  44.319   3.824
 5668W        W77928   8.943  31.485   5.079
 5669W        W77929  25.421  43.953   1.229
 5670W        W77930  20.975  34.484  11.489
 5671W        W77931  39.994  39.455  12.392
 5672W        W77932   5.397  29.464   3.795
 5673W        W77933   1.900  25.553   1.919
 5674W        W77934  28.221   4.300   4.603
 5675W        W77935  20.076   7.718   0.919
 5676W        W77936  37.084  34.495   3.215
 5677W        W77937  14.128  34.821   0.906
 5678W        W77938  10.784  17.950   2.457
 5679W        W77939   6.912  19.035   1.832
 5680W        W77940  36.307  23.204   3.686
 5681W        W77941  28.130   5.326  14.493
 5682W        W77942  37.467  37.300   0.848
 5683W        W77943   3.271  36.889  10.489
 5684W        W77944  24.310  19.499  13.500
 5685W        W77945  27.042  10.278   3.806
 5686W        W77946  26.197  39.725  13.022
 5687W        W77947  40.590   4.197  14.905
 5688W        W77948  16.832  15.555   1.625
 5689W        W77949   4.377  23.447  10.748
 5690W        W77950  21.715  17.286   3.232
 5691W        W77951   6.022  18.636  14.808
 5692W        W77952  16.591  33.067  11.028
 5693W        W77953  25.591   2.142   1.030
 5694W        W77954   3.996  43.090   4.230
 5695W        W77955  44.381  34.903   3.704
 5696W        W77956  32.805   0.749  12.315
 5697W        W77957  18.092   1.310   3.595
 5698W        W77958  34.883   0.809   1.902
 5699W        W77959  33.592  12.829   1.317
 5700W        W77960  41.428  14.959   4.862
 5701W        W77961  20.317  24.207  11.038
 5702W        W77962  25.067  24.115   0.318
 5703W        W77963  44.772   2.317  11.196
 5704W        W77964  41.400   7.424   4.620
 5705W        W77965  23.493  35.448  14.740
 5706W        W77966   4.249  10.241   0.265
 5707W        W77967  31.005   6.998  12.555
 5708W        W77968  43.729  39.372   1.693
 5709W        W77969   7.287  23.292   4.701
 5710W        W77970   6.399   9.122   3.815
 5711W        W77971  27.345  11.266   4.115
 5712W        W77972  41.093  35.558   0.158
 5713W        W77973   4.244  20.510   4.101
 5714W        W77974  23.633  39.033   0.244
 5715W        W77975   1.231  34.463   2.145
 5716W        W77976  42.663  43.036   2.739
 5717W        W77977  15.244  19.262  14.049
 5718W        W77978   5.944   4.997   4.262
 5719W        W77979  37.564  20.503  10.622
 5720W        W77980  23.875   7.395   4.246
 5721W        W77981  26.221  39.357   2.849
 5722W        W77982  42.071  24.733   2.222
 5723W        W77983  29.673  19.684  10.709
 5724W        W77984   7.800  23.589   3.025
 5725W        W77985  14.745   9.310  10.830
 5726W        W77986  12.549  22.221  12.375
 5727W        W77987  29.823   2.028  13.378
 5728W        W77988   4.782  31.594   0.760
 5729W        W77989   4.331  36.846  10.351
 5730W        W77990  30.786  29.521   4.233
 5731W        W77991  14.809  23.595  12.022
 5732W        W77992  28.201  22.619   2.006
 5733W        W77993  11.781  15.351   0.292
 5734W        W77994  11.132   5.815  12.122
 5735W        W77995   4.770  33.461   4.757
 5736W        W77996  37.577  13.114  13.872
 5737W        W77997   4.837  14.174  12.372
 5738W        W77998  42.916  30.066   0.549
 5739W        W77999  20.481   9.191  12.986
 5740W        W78000  22.959  13.138   4.380
 5741W        W78001   5.944   4.018  11.589
 5742W        W78002   5.364  43.085   3.832
 5743W        W78003  16.747  14.154  11.896
 5744W        W78004  29.629  39.115  11.715
 5745W        W78005  42.984   7.746   3.153
 5746W        W78006  27.001  23.655   3.890
 5747W        W78007  30.418  12.266  12.126
 5748W        W78008  30.668  29.041   0.417
 5749W        W78009   2.908  36.153   1.839
 5750W        W78010  26.976  32.890   3.262
 5751W        W78011  24.660  15.823   3.315
 5752W        W78012  42.888  40.880   0.345
 5753W        W78013  14.760  28.903  10.623
 5754W        W78014  14.718  13.166  14.400
 5755W        W78015  26.696  30.424  11.158
 5756W        W78016  10.294  34.357   4.721
 5757W        W78017  28.981  38.958  13.433
 5758W        W78018  33.679  10.859  12.865
 5759W        W78019   7.823  41.792   2.238
 5760W        W78020   0.782  38.625   0.448
 5761W        W78021  10.197  29.039   3.774
 5762W        W78022  28.036  27.426  14.359
 5763W        W78023   9.312  17.838   2.892
 5764W        W78024  35.367   4.213   2.430
 5765W        W78025  14.081   5.957  10.317
 5766W        W78026  32.548  33.664   0.319
 5767W        W78027  43.571   5.953  12.042
 5768W        W78028  36.631   4.246   1.156
 5769W        W78029   8.927   2.322  12.956
 5770W        W78030   4.347  27.558  11.867
 5771W        W78031  12.399  10.279  13.011
 5772W        W78032  33.868  19.277   5.637
 5773W        W78033  18.140  43.871  11.251
 5774W        W78034  22.317  16.236   1.884
 5775W        W78035  18.398  36.021  13.388
 5776W        W78036  17.727   0.377   0.793
 5777W        W78037  22.767  10.722   3.094
 5778W        W78038  33.163  29.752  11.538
 5779W        W78039  35.036  40.946  10.903
 5780W        W78040  11.203  20.617  11.489
 5781W        W78041   3.652  25.124  14.935
 5782W        W78042  29.457  24.370  10.643
 5783W        W78043  35.009  13.134   0.476
 5784W        W78044   3.707  16.232  10.592
 5785W        W78045  19.542  30.010  12.548
 5786W        W78046  12.365  15.189   1.995
 5787W        W78047  25.664  34.490   3.617
 5788W        W78048  13.870  27.667   0.771
 5789W        W78049  12.296   0.765  10.819
 5790W        W78050  13.795  26.977  13.015
 5791W        W78051  11.854  25.390  13.840
 5792W        W78052  25.271  10.119  12.503
 5793W        W78053  44.965  40.781  13.550
 5794W        W78054  37.087  22.995   1.562
 5795W        W78055  14.538  43.772  12.085
 5796W        W78056  27.956  39.846  13.302
 5797W        W78057  36.853  14.490  10.681
 5798W        W78058   6.833  27.691   2.791
 5799W        W78059   0.516  10.742   0.384
 5800W        W78060  36.192  29.224  12.410
 5801W        W78061   3.300  43.081   2.883
 5802W        W78062   9.586  35.052  14.404
 5803W        W78063   8.488  43.989  11.451
 5804W        W78064  33.665  42.484  12.520
 5805W        W78065  16.227   1.804  14.121
 5806W        W78066  32.221  42.794  13.399
 5807W        W78067  34.499   3.489   4.701
 5808W        W78068  40.728  40.325   1.856
 5809W        W78069  19.629  20.109  11.249
 5810W        W78070  40.714   7.174   3.870
 5811W        W78071  16.651  37.475   4.098
 5812W        W78072  20.655  19.689   0.365
 5813W        W78073  20.276   2.038  14.935
 5814W        W78074  37.119   9.893  10.633
 5815W        W78075  30.893  37.774  11.819
 5816W        W78076  31.405  29.130   3.695
 5817W        W78077  14.924  36.522  12.520
 5818W        W78078   7.567  32.342   1.699
 5819W        W78079  31.562  42.521   4.136
 5820W        W78080  36.846   1.897   4.669
 5821W        W78081  37.474   4.170  14.187
 5822W        W78082  11.823  13.847   3.186
 5823W        W78083  36.656  16.186   2.057
 5824W        W78084  33.965  25.438  12.916
 5825W        W78085  39.424  21.996  12.897
 5826W        W78086  14.867   8.669  12.409
 5827W        W78087  39.323  37.098  11.014
 5828W        W78088  17.400  10.124   2.140
 5829W        W78089  35.501  24.731   2.830
 5830W        W78090  38.004  41.503  14.010
 5831W        W78091  37.119  34.105  12.079
 5832W        W78092  10.828   5.393  11.961
 5833W        W78093  44.788  32.829   1.678
 5834W        W78094  14.712  33.929  14.484
 5835W        W78095  13.281  28.663   0.495
 5836W        W78096  44.030  19.968   4.630
 5837W        W78097  19.834  11.726  13.346
 5838W        W78098  29.686  33.986  14.031
 5839W        W78099  35.027   3.324   1.974
 5840W        W78100   5.434  37.388  14.767
 5841W        W78101  17.195   1.809  10.108
 5842W        W78102  32.307  26.648  11.219
 5843W        W78103  41.858  21.062   2.388
 5844W        W78104  44.101  24.071  13.061
 5845W        W78105  13.096  24.168  13.004
 5846W        W78106  26.936  12.820   0.020
 5847W        W78107  18.167  31.205   4.056
 5848W        W78108  27.681  23.599  12.537
 5849W        W78109  28.632  13.355   4.660
 5850W        W78110  22.646  24.692   3.121
 5851W        W78111  12.820   5.298   4.060
 5852W        W78112  35.636  37.037   0.454
 5853W        W78113  11.719  13.768   1.030
 5854W        W78114  38.357  41.492  10.922
 5855W        W78115   4.533  22.199   0.911
 5856W        W78116  12.617  10.331   1.593
 5857W        W78117  40.880  37.432   1.843
 5858W        W78118   0.433   3.421  14.237
 5859W        W78119  16.288   4.904  14.498
 5860W        W78120   6.806  27.592  10.979
 5861W        W78121  12.193  43.871  13.350
 5862W        W78122  16.252  23.951  13.830
 5863W        W78123  10.868  21.814   3.251
 5864W        W78124   7.145  15.542  13.797
 5865W        W78125   7.792  32.861  14.462
 5866W        W78126   0.022  38.183   3.105
 5867W        W78127  34.496  30.120   2.674
 5868W        W78128   8.917   7.828  12.817
 5869W        W78129  21.169  25.038   4.132
 5870W        W78130  42.339  43.701   4.117
 5871W        W78131  44.469  15.080   5.124
 5872W        W78132   8.751  23.433   2.351
 5873W        W78133  36.995   9.949   4.649
 5874W        W78134  24.744  12.560  14.100
 5875W        W78135   6.960  23.636   1.812
 5876W        W78136  42.402  26.909   1.475
 5877W        W78137  14.765  36.378   1.655
 5878W        W78138  29.274  35.769   1.214
 5879W        W78139  30.705  13.347   2.571
 5880W        W78140  42.041  31.170  13.507
 5881W        W78141  24.420  26.607   0.899
 5882W        W78142   2.721  44.897  10.623
 5883W        W78143  11.149   7.679  11.564
 5884W        W78144  29.622   0.815  14.435
 5885W        W78145  36.527  28.541   3.870
 5886W        W78146  23.067  10.605  12.142
 5887W        W78147  28.025  19.873  12.080
 5888W        W78148  36.085  27.520  11.155
 5889W        W78149  20.638  15.712  13.281
 5890W        W78150  16.706  10.705  12.182
 5891W        W78151  36.317  17.651  14.188
 5892W        W78152   9.946  15.062   0.327
 5893W        W78153  34.947  41.085  13.367
 5894W        W78154  44.281  38.076  12.503
 5895W        W78155  21.302   3.353  14.362
 5896W        W78156  21.759  29.139  13.702
 5897W        W78157  10.840  36.531  13.966
 5898W        W78158  38.421  22.026  11.656
 5899W        W78159  31.113  40.606   1.649
 5900W        W78160   2.745   4.217  10.697
 5901W        W78161  34.022   2.676   4.892
 5902W        W78162   3.190  19.840  11.187
 5903W        W78163  33.181  30.583  11.256
 5904W        W78164  30.039  23.759  11.058
 5905W        W78165   9.834  38.518  13.155
 5906W        W78166  29.368   4.850  12.132
 5907W        W78167  42.285   9.366  14.394
 5908W        W78168  22.288   2.128  13.109
 5909W        W78169  36.945  18.098  11.809
 5910W        W78170  17.265  19.768   3.532
 5911W        W78171  11.723  27.505   3.983
 5912W        W78172   3.679  31.080  12.090
 5913W        W78173  21.609  12.918  11.138
 5914W        W78174  25.038   1.116   0.073
 5915W        W78175  25.985  26.513  10.602
 5916W        W78176  38.391   7.343   9.724
 5917W        W78177  28.258  32.105   3.718
 5918W        W78178   4.924  12.646  12.861
 5919W        W78179  40.316  11.843   5.010
 5920W        W78180  26.673  39.323  10.597
 5921W        W78181  40.892  37.939   3.346
 5922W        W78182  41.869   1.403   0.204
 5923W        W78183   0.916  25.924  12.378
 5924W        W78184  41.511  19.218   3.148
 5925W        W78185  22.574  33.714  10.464
 5926W        W78186  42.773  28.411   1.381
 5927W        W78187  32.841   2.345   3.778
 5928W        W78188  26.531  43.876  14.406
 5929W        W78189  25.522   7.495  13.918
 5930W        W78190  43.570  18.880   1.939
 5931W        W78191  37.918   4.381   0.005
 5932W        W78192  41.923  25.331   3.769
 5933W        W78193   6.316  25.403  14.879
 5934W        W78194  31.150  12.815  12.130
 5935W        W78195  16.878  18.719  10.737
 5936W        W78196   7.185  40.798   4.037
 5937W        W78197  37.013  13.139   4.610
 5938W        W78198  43.909  32.929  10.411
 5939W        W78199  21.425  31.903  12.532
 5940W        W78200  17.079   8.535   0.458
 5941W        W78201  37.386  40.460  12.379
 5942W        W78202  41.903  14.861   0.246
 5943W        W78203  10.935  25.445   2.709
 5944W        W78204  33.791  24.284   4.063
 5945W        W78205  20.236   0.720   2.196
 5946W        W78206   5.815  26.512   9.989
 5947W        W78207  37.924  26.213   2.165
 5948W        W78208  19.760  27.052   1.724
 5949W        W78209   6.328  33.546   0.250
 5950W        W78210  27.208  24.337  12.537
 5951W        W78211  29.142   6.828   4.128
 5952W        W78212  11.324   0.378  14.425
 5953W        W78213  43.297  36.460  14.337
 5954W        W78214  35.348  11.240  14.384
 5955W        W78215   4.489  35.621  11.935
 5956W        W78216  36.551  28.903  11.066
 5957W        W78217   7.878   4.859   1.139
 5958W        W78218  13.411  16.780  13.845
 5959W        W78219  29.534  25.262  11.539
 5960W        W78220  27.403  24.474   2.808
 5961W        W78221  44.027  40.063  12.188
 5962W        W78222  43.702  22.905  13.999
 5963W        W78223  19.512  15.298  11.910
 5964W        W78224  23.652  32.229  12.351
 5965W        W78225  35.935   5.465  13.285
 5966W        W78226  38.380  38.552  14.574
 5967W        W78227  33.997  25.258  14.956
 5968W        W78228  17.713  43.172  11.070
 5969W        W78229  29.960  41.813   2.783
 5970W        W78230  27.454  28.155   0.566
 5971W        W78231   7.815  29.490   1.513
 5972W        W78232  36.958  29.917  12.572
 5973W        W78233  32.854   0.084  11.150
 5974W        W78234  16.128  11.190   1.339
 5975W        W78235   8.905  35.655   3.772
 5976W        W78236   3.339  20.950  10.660
 5977W        W78237  33.954  39.235   4.700
 5978W        W78238  37.153   6.309   4.078
 5979W        W78239  16.999  35.627   4.012
 5980W        W78240  23.297  33.122   1.651
 5981W        W78241  20.427  43.783   1.808
 5982W        W78242  36.011   7.155  13.118
 5983W        W78243  41.078  29.044  14.971
 5984W        W78244   1.329   0.249  12.907
 5985W        W78245   0.696  39.948  11.676
 5986W        W78246  23.046  27.607  12.630
 5987W        W78247  40.812  34.080   3.322
 5988W        W78248   0.693  12.221   1.858
 5989W        W78249  40.779  25.348   3.331
 5990W        W78250  37.432  21.937   2.205
 5991W        W78251  23.862  44.029  12.079
 5992W        W78252  16.278   7.883   3.383
 5993W        W78253  42.349  21.061  13.922
 5994W        W78254  38.355   2.463  11.267
 5995W        W78255   8.548  23.255   4.490
 5996W        W78256  24.671  11.973   2.451
 5997W        W78257   2.950  34.421  11.771
 5998W        W78258  27.179  18.055   0.406
 5999W        W78259  33.476  38.912   0.003
 6000W        W78260  24.731   4.583  10.269
 6001W        W78261  42.878  33.519   3.137
 6002W        W78262  39.563  35.607   1.267
 6003W        W78263  19.640  26.680   3.685
 6004W        W78264  25.482  11.101   1.720
 6005W        W78265   0.316  22.087  12.816
 6006W        W78266  27.139   8.261   3.840
 6007W        W78267  36.575  10.415  13.321
 6008W        W78268  12.074  31.951  10.076
 6009W        W78269   1.941  36.779   0.319
 6010W        W78270  20.257  18.130   0.443
 6011W        W78271  10.656   7.586  11.735
 6012W        W78272   8.437  17.871   2.843
 6013W        W78273  16.621  12.854   2.338
 6014W        W78274  13.150  40.333   2.757
 6015W        W78275  34.107   9.670   1.729
 6016W        W78276   4.420   4.199   3.663
 6017W        W78277  41.321  24.099  13.311
 6018W        W78278  44.424   2.008   3.348
 6019W        W78279  10.566   5.780  12.192
 6020W        W78280  40.119  35.107  14.236
 6021W        W78281   6.141  37.362   1.676
 6022W        W78282  39.289  19.988  14.551
 6023W        W78283  15.266  11.454   2.203
 6024W        W78284   5.355  39.865  13.610
 6025W        W78285  28.695  33.148   4.506
 6026W        W78286  27.924  40.775  10.255
 6027W        W78287  26.442  31.430  11.889
 6028W        W78288  24.746  43.868  11.855
 6029W        W78289   8.877  13.343  10.812
 6030W        W78290  16.765   2.246  12.512
 6031W        W78291   5.177  26.601  12.974
 6032W        W78292  10.742  20.054  12.417
 6033W        W78293  22.679  38.553   4.125
 6034W        W78294  44.514  38.346  11.038
 6035W        W78295  39.081  26.044   0.324
 6036W        W78296   3.292  29.596  10.649
 6037W        W78297   0.994  20.817   1.792
 6038W        W78298   0.649   9.310   1.850
 6039W        W78299  21.201  28.760  11.093
 6040W        W78300  31.568   5.845  14.712
 6041W        W78301  17.035   4.175  14.878
 6042W        W78302  22.533  10.612   4.677
 6043W        W78303  41.338  42.036   4.145
 6044W        W78304  17.727  19.186   2.239
 6045W        W78305  24.418  39.414  10.509
 6046W        W78306  10.774  38.319   1.877
 6047W        W78307  18.537  17.752   0.345
 6048W        W78308   5.291  20.779  11.603
 6049W        W78309  39.491  10.917   3.692
 6050W        W78310   2.959  40.952   1.716
 6051W        W78311  30.746  18.599   0.456
 6052W        W78312  34.542  38.494  10.796
 6053W        W78313  42.350  43.325  14.059
 6054W        W78314  10.275   6.367   3.157
 6055W        W78315  35.011  14.590  10.396
 6056W        W78316  27.396   0.232  13.043
 6057W        W78317  44.990   4.482  11.124
 6058W        W78318  28.100  25.099  13.766
 6059W        W78319  10.925   4.194  11.614
 6060W        W78320   9.166  22.498  11.903
 6061W        W78321  37.876  20.151  11.208
 6062W        W78322  28.728  19.276  13.021
 6063W        W78323  10.115   3.194  14.696
 6064W        W78324  18.605   6.856   2.441
 6065W        W78325   7.679  14.322  11.505
 6066W        W78326  19.809   9.376   4.280
 6067W        W78327  38.551  42.039   3.245
 6068W        W78328  30.189  10.600  12.401
 6069W        W78329  33.977  20.222   2.325
 6070W        W78330   2.919  41.269   0.435
 6071W        W78331  40.473   4.323   2.917
 6072W        W78332  15.186  18.626  14.823
 6073W        W78333   2.773   0.337   0.621
 6074W        W78334  18.372  12.783   4.085
 6075W        W78335  27.108  33.362  10.236
 6076W        W78336  36.613   4.405  14.561
 6077W        W78337  30.700  25.953  11.711
 6078W        W78338  28.241   9.242   2.687
 6079W        W78339  27.161  42.724   0.305
 6080W        W78340  18.022  15.860   2.665
 6081W        W78341  39.332  30.032  10.625
 6082W        W78342  28.816   4.235  13.287
 6083W        W78343   9.947  29.105   4.213
 6084W        W78344  33.492  33.270  10.980
 6085W        W78345  33.712   3.877  14.454
 6086W        W78346  26.603   3.967  13.480
 6087W        W78347   6.965  32.052   3.069
 6088W        W78348  35.380  27.715  11.736
 6089W        W78349  33.538   3.512  12.418
 6090W        W78350  10.245   7.986  11.634
 6091W        W78351  11.207  11.881  12.444
 6092W        W78352  37.621  16.096  11.069
 6093W        W78353  41.575   5.119  10.358
 6094W        W78354  12.816  32.419   2.325
 6095W        W78355  32.013   6.584  10.835
 6096W        W78356   4.974  24.526   1.407
 6097W        W78357  34.851   5.464   2.744
 6098W        W78358  21.034  34.116  11.110
 6099W        W78359  31.968  39.321   2.644
 6100W        W78360  19.054   6.639  10.612
 6101W        W78361  37.524  10.203  12.799
 6102W        W78362  14.800  34.153   2.677
 6103W        W78363  36.093   7.400  11.352
 6104W        W78364  11.122  24.200  12.932
 6105W        W78365  25.298   1.019  11.518
 6106W        W78366  39.560  31.230   3.669
 6107W        W78367   4.408  40.308   0.135
 6108W        W78368  39.075  12.437  14.793
 6109W        W78369  16.185   2.137   2.820
 6110W        W78370  43.886   0.784  11.828
 6111W        W78371  10.858  32.634  14.347
 6112W        W78372   5.781  25.231   4.578
 6113W        W78373  32.566  20.351   5.619
 6114W        W78374  27.155  41.877   2.794
 6115W        W78375  43.281   8.123  13.389
 6116W        W78376  41.883  42.547  13.926
 6117W        W78377   5.928  19.598   0.874
 6118W        W78378  36.598   7.721  14.769
 6119W        W78379  35.359  44.943   1.428
 6120W        W78380   6.974  22.221   0.758
 6121W        W78381  41.584  38.202   1.665
 6122W        W78382  28.812  30.402  13.771
 6123W        W78383   0.396  32.539   4.064
 6124W        W78384   1.174  18.073   0.756
 6125W        W78385  33.685   1.929  13.320
 6126W        W78386  41.492  37.753  13.104
 6127W        W78387  30.135  16.572   2.431
 6128W        W78388  42.835  16.157  13.412
 6129W        W78389   1.813  31.625  12.125
 6130W        W78390  24.695   0.932   1.867
 6131W        W78391  11.767  35.346   4.807
 6132W        W78392  39.553  41.742  11.373
 6133W        W78393  44.412  10.290   3.236
 6134W        W78394  21.797  35.030  13.363
 6135W        W78395  24.492   5.442   3.118
 6136W        W78396  41.139  13.953  14.028
 6137W        W78397  12.338  25.038   2.215
 6138W        W78398  14.552   4.798   2.811
 6139W        W78399  21.394  25.157   5.034
 6140W        W78400  14.527  17.310   2.720
 6141W        W78401  18.928  39.035   4.277
 6142W        W78402  16.255   0.020  11.581
 6143W        W78403  31.208  17.884   0.744
 6144W        W78404  27.437   0.980  13.460
 6145W        W78405   4.864  10.603   4.253
 6146W        W78406  31.956   8.320  11.944
 6147W        W78407   6.031  14.113  11.977
 6148W        W78408   1.565  11.646  11.197
 6149W        W78409   3.815  35.851   0.432
 6150W        W78410  36.095   4.349   1.270
 6151W        W78411  11.052  33.952   1.297
 6152W        W78412  32.651   2.292  13.324
 6153W        W78413  25.704  33.340   2.707
 6154W        W78414  30.325  43.855  12.939
 6155W        W78415  21.712  44.441  14.403
 6156W        W78416   1.715   5.805  11.991
 6157W        W78417  31.698  39.234   0.090
 6158W        W78418  10.557   0.788  11.098
 6159W        W78419  26.235   9.786   2.500
 6160W        W78420  40.602  32.092  12.517
 6161W        W78421  26.455  22.982  14.676
 6162W        W78422  44.773  11.784   0.398
 6163W        W78423  19.987  32.532   1.412
 6164W        W78424   9.702   2.695   2.376
 6165W        W78425   5.696   0.473   3.681
 6166W        W78426   5.461  13.809  14.450
 6167W        W78427   0.023  22.093  11.224
 6168W        W78428  14.789   1.903   0.563
 6169W        W78429  31.851  42.982  11.438
 6170W        W78430  35.448   6.037   4.577
 6171W        W78431  41.428  33.214   5.059
 6172W        W78432  28.112  41.566   3.705
 6173W        W78433  16.265  41.291  11.962
 6174W        W78434  43.222   5.267   3.294
 6175W        W78435   9.523  42.076  12.541
 6176W        W78436  41.836  22.190   3.763
 6177W        W78437  18.629  24.939  12.082
 6178W        W78438  43.218   6.727  11.862
 6179W        W78439  11.875  15.358  14.750
 6180W        W78440   8.222   7.797   1.928
 6181W        W78441   8.281  25.494   0.868
 6182W        W78442  43.255  41.725  14.536
 6183W        W78443  14.558  19.750   4.192
 6184W        W78444  40.470  38.873  12.279
 6185W        W78445   6.169   2.481  11.531
 6186W        W78446  18.931   6.972   0.908
 6187W        W78447  16.369  36.485  12.119
 6188W        W78448  26.652  16.543   4.104
 6189W        W78449   2.338  11.168   2.347
 6190W        W78450  39.223  32.797   5.056
 6191W        W78451   5.752  44.551  14.473
 6192W        W78452  17.542  13.547  14.420
 6193W        W78453   5.086   6.759   1.280
 6194W        W78454  27.587  44.015  14.793
 6195W        W78455   2.993   6.188  13.608
 6196W        W78456  43.905  18.341  11.061
 6197W        W78457  31.609  40.273  13.124
 6198W        W78458  23.766  12.170  14.897
 6199W        W78459   1.815  32.309   4.582
 6200W        W78460  30.548  31.203  13.852
 6201W        W78461  17.653  28.670  11.184
 6202W        W78462  41.874  11.095  13.967
 6203W        W78463  32.078  40.346  13.359
 6204W        W78464  21.562  43.212  13.961
 6205W        W78465  17.467  19.041   4.198
 6206W        W78466   5.247  36.957   3.076
 6207W        W78467  38.642  15.730  14.987
 6208W        W78468  38.279  39.060   3.811
 6209W        W78469  29.457  24.596   2.180
 6210W        W78470  34.491   6.771  11.382
 6211W        W78471  26.875  20.692   1.857
 6212W        W78472   2.910  22.666   5.018
 6213W        W78473  34.962  19.755   3.894
 6214W        W78474  19.829  24.098   4.205
 6215W        W78475  44.027  23.214  10.714
 6216W        W78476  34.193  19.759   2.707
 6217W        W78477  29.099   6.202  11.163
 6218W        W78478  41.024   7.517   4.270
 6219W        W78479  10.462  11.059   0.742
 6220W        W78480  25.096  42.312   1.016
 6221W        W78481  42.358  16.944  11.973
 6222W        W78482   3.375  26.944  10.487
 6223W        W78483   0.785  29.247  11.266
 6224W        W78484  16.576  29.654   1.328
 6225W        W78485  16.778  21.940  12.051
 6226W        W78486  31.119  33.213   0.263
 6227W        W78487  10.079  34.906  13.518
 6228W        W78488   2.282  28.174   1.180
 6229W        W78489  31.004   7.309  10.989
 6230W        W78490  44.208  19.610   0.504
 6231W        W78491  24.722  42.910  13.825
 6232W        W78492  21.904   8.715   0.973
 6233W        W78493   2.957  43.737   4.484
 6234W        W78494  37.011  36.767   4.198
 6235W        W78495  34.443  11.948  13.014
 6236W        W78496  26.519  41.496  13.421
 6237W        W78497  31.434  18.777  12.092
 6238W        W78498   9.251   0.160   0.898
 6239W        W78499  27.427  24.557  10.585
 6240W        W78500   0.900  27.771  11.620
 6241W        W78501   5.509  14.238   2.369
 6242W        W78502  42.519  11.235  13.476
 6243W        W78503  36.879   3.215   1.858
 6244W        W78504  19.447   9.820   2.791
 6245W        W78505  20.544   2.977   0.676
 6246W        W78506  38.980  32.019  11.963
 6247W        W78507  27.050  28.622  12.900
 6248W        W78508  27.021   1.042  11.297
 6249W        W78509   2.001  27.064   4.815
 6250W        W78510   5.777   8.536   5.054
 6251W        W78511  23.664  40.929  11.032
 6252W        W78512  21.040  15.421  14.978
 6253W        W78513  13.122  24.006   2.223
 6254W        W78514  27.341   4.333  14.559
 6255W        W78515   5.755   1.228  11.616
 6256W        W78516  15.608  12.510   0.186
 6257W        W78517  41.488  24.047   1.867
 6258W        W78518   5.419   7.289   1.170
 6259W        W78519  28.660  25.075   3.895
 6260W        W78520  25.458  24.575   1.459
 6261W        W78521  27.633  22.713  14.811
 6262W        W78522  32.640  24.752  12.505
 6263W        W78523  30.036  25.422  11.588
 6264W        W78524  19.216   5.478   0.808
 6265W        W78525  33.022  33.456   0.347
 6266W        W78526   9.039  33.959   1.415
 6267W        W78527  44.374  27.068   1.484
 6268W        W78528  27.218  18.079   2.956
 6269W        W78529  17.640  33.946  11.716
 6270W        W78530  41.725  13.956  12.746
 6271W        W78531  34.796  13.898   0.861
 6272W        W78532  44.565  44.518   2.704
 6273W        W78533  14.863  20.727  13.411
 6274W        W78534  31.544  30.572  13.014
 6275W        W78535  18.682  33.925   4.623
 6276W        W78536   8.973  26.994  10.956
 6277W        W78537  18.948   2.168   2.269
 6278W        W78538   0.405   0.094  11.638
 6279W        W78539  36.548   5.709  13.436
 6280W        W78540  33.144  41.261  11.257
 6281W        W78541  18.490   8.387   0.083
 6282W        W78542  10.836  29.700  11.126
 6283W        W78543  30.436  23.409  10.938
 6284W        W78544  12.797  12.645  12.136
 6285W        W78545   5.728  28.147   2.854
 6286W        W78546  18.124  28.677   1.385
 6287W        W78547  43.009  16.712   4.766
 6288W        W78548  41.970   8.082   3.481
 6289W        W78549  19.694  24.010   1.877
 6290W        W78550  25.751  22.418  11.884
 6291W        W78551  33.763  10.266   1.317
 6292W        W78552  37.695   5.705   3.322
 6293W        W78553   1.090  29.917   4.917
 6294W        W78554  12.579  38.674   4.717
 6295W        W78555  31.715  27.261   1.336
 6296W        W78556  11.380   5.028  13.925
 6297W        W78557  11.692  25.337   4.973
 6298W        W78558   4.795  29.895   3.103
 6299W        W78559  44.894  37.185  10.959
 6300W        W78560  34.907  18.293  13.384
 6301W        W78561  22.277  20.566  10.275
 6302W        W78562   0.465  13.411  14.857
 6303W        W78563  44.585  24.632   3.914
 6304W        W78564   0.167   9.285  10.692
 6305W        W78565  41.232  25.092  10.953
 6306W        W78566  33.512   7.914  13.153
 6307W        W78567  34.546  31.964   4.977
 6308W        W78568   9.742  15.907  11.194
 6309W        W78569  40.700  34.454  12.348
 6310W        W78570  42.328  17.197   0.866
 6311W        W78571  11.751  23.473  10.515
 6312W        W78572  25.439   0.369   0.157
 6313W        W78573  39.924  30.341  12.969
 6314W        W78574  22.199  30.382   4.204
 6315W        W78575   9.384  38.441   4.715
 6316W        W78576  38.203   1.400  12.536
 6317W        W78577  15.073  37.331  10.556
 6318W        W78578   0.871  11.783  13.338
 6319W        W78579  13.862   4.855  12.394
 6320W        W78580  14.803  10.162  14.964
 6321W        W78581  18.515  36.060   1.720
 6322W        W78582  40.752  26.539  14.808
 6323W        W78583  30.953  26.538  12.317
 6324W        W78584   0.951   4.964   4.179
 6325W        W78585  39.276   2.952  12.466
 6326W        W78586  22.109   6.060   4.114
 6327W        W78587   2.900  41.931   2.232
 6328W        W78588  30.631  18.720   4.229
 6329W        W78589  44.300   4.833   2.032
 6330W        W78590  10.157  43.824   2.416
 6331W        W78591  32.837  43.419   3.712
 6332W        W78592  33.992  37.456  12.057
 6333W        W78593   0.419  23.193   0.939
 6334W        W78594  30.198  22.790  14.372
 6335W        W78595   4.400  25.103   4.673
 6336W        W78596  24.520  25.012  11.199
 6337W        W78597  12.724   8.064   1.219
 6338W        W78598   4.004  29.148  12.411
 6339W        W78599  37.470  35.074   0.319
 6340W        W78600   9.566   1.329   0.750
 6341W        W78601  33.538  15.562  10.625
 6342W        W78602  15.793  17.293  14.908
 6343W        W78603  35.360  38.317  11.088
 6344W        W78604   1.942  26.174   4.105
 6345W        W78605  26.476  34.520  11.317
 6346W        W78606  34.494  16.435   1.418
 6347W        W78607  23.381  36.034   2.787
 6348W        W78608  17.986   7.473   3.397
 6349W        W78609  11.329  44.837   1.943
 6350W        W78610   6.120  38.506   0.754
 6351W        W78611  27.098   2.104   2.690
 6352W        W78612  44.635  29.527  12.667
 6353W        W78613  32.361   5.816   0.927
 6354W        W78614  15.168  12.290  13.938
 6355W        W78615  37.694  35.121   2.345
 6356W        W78616  43.552  22.682   4.209
 6357W        W78617   4.271  16.255  14.479
 6358W        W78618  41.587  24.019   0.932
 6359W        W78619  31.223  31.324  13.087
 6360W        W78620  40.282  22.969   0.243
 6361W        W78621  39.052  41.699  11.986
 6362W        W78622  35.012   8.858  11.186
 6363W        W78623  44.457  32.657  14.126
 6364W        W78624   3.929  37.545   3.195
 6365W        W78625  38.975  38.777   2.419
 6366W        W78626   0.321  29.621   2.823
 6367W        W78627  27.116  22.705  14.846
 6368W        W78628  39.398  24.003   0.734
 6369W        W78629  32.695  38.452  11.170
 6370W        W78630  17.249   7.770   4.369
 6371W        W78631  18.053  18.853  12.567
 6372W        W78632  24.812  23.312   1.447
 6373W        W78633  39.722  19.744   2.311
 6374W        W78634  16.443  31.552   3.278
 6375W        W78635  15.719  26.723   2.743
 6376W        W78636  18.681  12.120   1.649
 6377W        W78637  23.615  18.712  12.254
 6378W        W78638  23.601   6.873   3.396
 6379W        W78639  38.550  30.738   2.181
 6380W        W78640  41.384  40.881  13.604
 6381W        W78641  15.731   0.068   3.715
 6382W        W78642  16.052   9.407   4.778
 6383W        W78643  36.926  42.415  13.848
 6384W        W78644  25.922   8.732   3.362
 6385W        W78645  14.792   3.946   0.658
 6386W        W78646  30.318  35.016  10.651
 6387W        W78647  27.788  25.005  13.348
 6388W        W78648  15.562  14.682  11.983
 6389W        W78649   1.423  38.236   1.255
 6390W        W78650  34.052  21.174   1.214
 6391W        W78651   9.301   0.932   3.761
 6392W        W78652   3.893  27.489  10.600
 6393W        W78653  19.680  14.195  13.642
 6394W        W78654  14.671  30.706   1.422
 6395W        W78655  21.978  40.617   2.000
 6396W        W78656  25.082  20.675   0.463
 6397W        W78657  29.370  25.878   3.193
 6398W        W78658  24.751   0.390   2.821
 6399W        W78659  31.932  31.961   4.052
 6400W        W78660  41.465  41.877   4.609
 6401W        W78661  29.341  43.828  11.107
 6402W        W78662   6.722  12.620  11.320
 6403W        W78663  42.463  29.481   2.119
 6404W        W78664  22.196   6.860   3.696
 6405W        W78665   5.186  28.407   4.404
 6406W        W78666   4.711  12.227   4.142
 6407W        W78667   7.572  34.913   1.302
 6408W        W78668   9.443  30.174   0.929
 6409W        W78669  25.651  21.040  12.041
 6410W        W78670  20.141  19.609  11.970
 6411W        W78671  40.583   4.243   0.787
 6412W        W78672   6.319  30.421   1.778
 6413W        W78673  37.355   7.598   3.381
 6414W        W78674  36.745  16.352  12.085
 6415W        W78675  24.560  20.743  14.888
 6416W        W78676   2.341  11.165   4.777
 6417W        W78677  28.725   1.397   4.674
 6418W        W78678  35.212  31.112  10.601
 6419W        W78679   9.367  41.471  14.965
 6420W        W78680  29.449  38.442  11.289
 6421W        W78681  10.273   7.212   0.913
 6422W        W78682  14.344  35.589   2.225
 6423W        W78683  28.743  21.411   2.935
 6424W        W78684  14.293  41.617   3.808
 6425W        W78685   8.442  15.311  11.209
 6426W        W78686   3.513   9.288  13.525
 6427W        W78687  37.540   7.551  14.983
 6428W        W78688  10.447  10.153  14.976
 6429W        W78689   3.774   5.239  14.428
 6430W        W78690  10.146  19.707  10.624
 6431W        W78691  18.408   4.992   2.831
 6432W        W78692   8.354  16.102   4.945
 6433W        W78693  38.233  21.967   1.332
 6434W        W78694  24.709  34.484   3.621
 6435W        W78695  38.968  24.792   1.428
 6436W        W78696  23.625  30.002   0.387
 6437W        W78697  35.095  32.476  13.568
 6438W        W78698  12.665  26.272   2.200
 6439W        W78699  11.765  42.751   2.786
 6440W        W78700   9.691  29.565  14.107
 6441W        W78701  31.962  39.559  10.624
 6442W        W78702  39.365   9.844   0.285
 6443W        W78703  41.345  17.246  12.412
 6444W        W78704  23.020  32.929   0.693
 6445W        W78705   7.913  39.310   3.159
 6446W        W78706  11.662   4.457   1.306
 6447W        W78707  24.466  42.082  11.693
 6448W        W78708  30.110  12.550  14.297
 6449W        W78709  39.195  25.640  14.988
 6450W        W78710  27.740  37.405  14.793
 6451W        W78711  11.483  28.612  12.375
 6452W        W78712  39.567  41.404   0.291
 6453W        W78713  13.279  31.019  10.232
 6454W        W78714  26.972   7.968  13.994
 6455W        W78715  14.774  21.952   0.322
 6456W        W78716   0.583   6.926   4.572
 6457W        W78717  20.227   7.820   2.438
 6458W        W78718  11.214  20.790   4.159
 6459W        W78719   4.869   6.754  11.669
 6460W        W78720   1.464  40.011   3.569
 6461W        W78721  12.276   9.147   0.717
 6462W        W78722  11.699  12.882  13.520
 6463W        W78723  30.422  39.278  12.030
 6464W        W78724  21.395  24.083   1.293
 6465W        W78725  36.872  31.839  13.428
 6466W        W78726   7.118   0.883  12.608
 6467W        W78727  44.393  18.014  14.836
 6468W        W78728  42.524  26.125  11.468
 6469W        W78729  16.340   9.960  12.042
 6470W        W78730   8.996   4.802   2.865
 6471W        W78731  36.396  18.495   1.756
 6472W        W78732  18.127  22.362   0.886
 6473W        W78733  38.940   3.549  13.518
 6474W        W78734  23.442  32.144  11.016
 6475W        W78735  37.062   1.049   2.112
 6476W        W78736   0.885  12.198  11.404
 6477W        W78737  23.562   4.205  12.827
 6478W        W78738   1.999  15.674   4.233
 6479W        W78739  42.258   7.341   4.602
 6480W        W78740  25.671   9.272   4.189
 6481W        W78741  40.815   3.795   4.509
 6482W        W78742   7.771  27.668  13.790
 6483W        W78743  27.031   8.971  11.368
 6484W        W78744  36.660  18.122  14.180
 6485W        W78745  27.837  20.351  12.022
 6486W        W78746  22.486   4.765  10.339
 6487W        W78747  21.990   1.226  13.036
 6488W        W78748  39.447  24.476  13.816
 6489W        W78749   1.453  28.948   1.775
 6490W        W78750  41.424  14.544  12.038
 6491W        W78751  30.110  18.061   4.055
 6492W        W78752  26.104  43.555  12.145
 6493W        W78753   3.766  23.043   3.533
 6494W        W78754  11.689  11.762   1.305
 6495W        W78755  32.168  19.969   3.157
 6496W        W78756  12.649  39.216  14.295
 6497W        W78757   8.775   1.940   1.891
 6498W        W78758  26.946  31.914  13.795
 6499W        W78759   4.957  10.223   4.601
 6500W        W78760  31.930   5.723  10.717
 6501W        W78761   2.454   2.933  13.832
 6502W        W78762  42.979   1.029  11.443
 6503W        W78763  13.011  16.903   1.825
 6504W        W78764  19.145  38.073   4.226
 6505W        W78765  10.397   0.625   5.303
 6506W        W78766   5.714  43.902   2.867
 6507W        W78767  40.341  23.288  13.983
 6508W        W78768  23.692  15.402  12.813
 6509W        W78769   4.284  43.668  12.382
 6510W        W78770   3.508  13.750   0.965
 6511W        W78771  39.626  29.397  11.235
 6512W        W78772  15.806  40.474  12.013
 6513W        W78773  36.444  26.738   5.086
 6514W        W78774  11.730   0.323   2.688
 6515W        W78775  10.701  27.901   0.243
 6516W        W78776  16.699  18.733  13.152
 6517W        W78777  26.623  10.488   2.172
 6518W        W78778  27.030  36.283   3.711
 6519W        W78779  24.505  39.827   5.027
 6520W        W78780  12.630  23.482  11.152
 6521W        W78781  40.282  31.523   3.120
 6522W        W78782  37.319   8.203   2.662
 6523W        W78783   0.277  40.789   3.661
 6524W        W78784  24.608  22.992  12.505
 6525W        W78785  17.958  44.551   0.518
 6526W        W78786  22.915  22.325  11.913
 6527W        W78787  39.831  24.658  12.508
 6528W        W78788   5.167  21.345  10.855
 6529W        W78789  18.142  26.719  13.575
 6530W        W78790  14.081   5.255   0.895
 6531W        W78791   2.994   8.573  11.133
 6532W        W78792  24.556   4.777  14.473
 6533W        W78793  25.962  25.080   3.373
 6534W        W78794   2.261  27.485  11.819
 6535W        W78795  10.864  21.767   2.409
 6536W        W78796   6.166  16.758   1.857
 6537W        W78797  30.855   0.783  10.919
 6538W        W78798  30.803  23.460  13.535
 6539W        W78799  39.634   5.885  13.459
 6540W        W78800  36.501   1.985  10.359
 6541W        W78801  24.130  19.195  12.387
 6542W        W78802  11.488  36.020  12.812
 6543W        W78803  36.516  39.015   4.017
 6544W        W78804  11.159  35.255  12.429
 6545W        W78805   0.854   9.120  14.947
 6546W        W78806  38.475  28.446   1.667
 6547W        W78807  42.050  15.127   2.302
 6548W        W78808  44.776   2.178   1.610
 6549W        W78809  23.976  42.456   4.464
 6550W        W78810  14.422   2.451   2.055
 6551W        W78811  35.589  38.486  10.644
 6552W        W78812  20.840  37.862   3.180
 6553W        W78813  14.476  23.656  10.794
 6554W        W78814  11.288  28.685   5.455
 6555W        W78815  35.227  10.106   2.691
 6556W        W78816  38.962  31.319  12.555
 6557W        W78817   3.177   8.932  11.446
 6558W        W78818  19.077  33.601   4.502
 6559W        W78819  14.907  44.341  10.582
 6560W        W78820  14.043  40.218  12.424
 6561W        W78821  33.721  33.100   4.711
 6562W        W78822  29.398  29.707  13.916
 6563W        W78823  31.927  30.195  11.128
 6564W        W78824  39.869   2.456   2.858
 6565W        W78825  41.474  31.507  11.615
 6566W        W78826  26.124  30.071   2.680
 6567W        W78827  42.067  13.752   3.307
 6568W        W78828  41.286  30.468  12.247
 6569W        W78829   8.312  26.978   2.015
 6570W        W78830  25.404  11.622   1.787
 6571W        W78831   6.963   2.386  13.709
 6572W        W78832   7.824  13.355   3.717
 6573W        W78833  26.435  26.675   5.359
 6574W        W78834   5.020  22.486  13.891
 6575W        W78835  38.967  33.118  14.281
 6576W        W78836   0.986   1.804   3.544
 6577W        W78837   6.715  36.327  12.006
 6578W        W78838  11.675  40.380  14.266
 6579W        W78839  26.502  12.140   1.387
 6580W        W78840  12.431  15.785   4.150
 6581W        W78841  32.995  33.571   9.985
 6582W        W78842   3.003   8.421   2.262
 6583W        W78843   1.256  41.264  14.175
 6584W        W78844   4.200   1.859  14.911
 6585W        W78845   1.179  43.801   1.917
 6586W        W78846   2.144  44.005  10.455
 6587W        W78847  25.992  37.843   3.927
 6588W        W78848   2.910  16.171  11.888
 6589W        W78849  43.284   8.341   3.422
 6590W        W78850  10.223  39.439   2.354
 6591W        W78851  20.902  44.264  13.993
 6592W        W78852  24.961   8.783  12.955
 6593W        W78853  34.469  20.754  13.711
 6594W        W78854   2.898  30.502   3.174
 6595W        W78855  25.991  18.200   4.072
 6596W        W78856  17.812  13.602   4.158
 6597W        W78857   3.533  29.726   1.903
 6598W        W78858  42.830  20.211  10.848
 6599W        W78859   5.834  21.653  10.610
 6600W        W78860  35.458  38.378   1.846
 6601W        W78861   0.286  37.922  14.746
 6602W        W78862  25.626  38.333  10.771
 6603W        W78863  41.775  18.706   0.777
 6604W        W78864  24.139   9.890  10.721
 6605W        W78865  23.090   9.981   1.288
 6606W        W78866  39.367  35.777   4.188
 6607W        W78867  10.101  40.581   4.219
 6608W        W78868   8.182  43.813  10.629
 6609W        W78869  22.703  40.715  13.002
 6610W        W78870  33.590   8.110  14.828
 6611W        W78871   2.165   9.887   3.639
 6612W        W78872   5.834  14.593   4.236
 6613W        W78873  37.074  42.909  14.522
 6614W        W78874  24.391  23.964  11.668
 6615W        W78875  37.930  35.800  14.318
 6616W        W78876  35.971  39.406  11.566
 6617W        W78877  28.906  13.799   4.540
 6618W        W78878  29.175  30.650  14.070
 6619W        W78879  43.951  33.669   2.197
 6620W        W78880   0.946  19.128   3.759
 6621W        W78881  30.302  41.937  11.559
 6622W        W78882  40.905  14.329   3.609
 6623W        W78883   5.709   4.868   1.360
 6624W        W78884  22.217  26.257   5.492
 6625W        W78885  37.392   9.772   4.930
 6626W        W78886  21.082  20.575  10.562
 6627W        W78887  29.192  14.651  10.983
 6628W        W78888   2.411  11.734  11.545
 6629W        W78889  44.366  19.063  12.077
 6630W        W78890  32.688  31.968  12.083
 6631W        W78891  21.413  10.109   1.833
 6632W        W78892  44.547  30.635   1.735
 6633W        W78893  26.565  37.842   4.567
 6634W        W78894  42.822  12.766   0.000
 6635W        W78895  26.486  38.475  11.384
 6636W        W78896  42.120  10.192  12.422
 6637W        W78897   0.671  21.071  13.915
 6638W        W78898  30.697  39.068  13.456
 6639W        W78899  36.114  24.281  11.469
 6640W        W78900  30.310  40.285   0.413
 6641W        W78901  37.493   2.611   2.974
 6642W        W78902   4.199   1.503   4.226
 6643W        W78903  24.962  29.602   0.841
 6644W        W78904  39.948  16.038   4.069
 6645W        W78905  32.262  16.650  11.664
 6646W        W78906  43.999   8.765  12.451
 6647W        W78907  18.559  22.382  10.991
 6648W        W78908   1.245  23.562  10.452
 6649W        W78909  15.024  23.141  12.132
 6650W        W78910  14.676  35.123  11.027
 6651W        W78911  11.743  27.164   1.098
 6652W        W78912  19.022  15.115   3.782
 6653W        W78913  36.899  42.898  13.654
 6654W        W78914   8.241  36.571   4.803
 6655W        W78915  39.035  29.014   4.599
 6656W        W78916  15.674  26.097   2.166
 6657W        W78917  38.058  12.760   0.985
 6658W        W78918  13.198   1.422   3.753
 6659W        W78919   5.093  31.400  11.085
 6660W        W78920   5.900  22.761   1.305
 6661W        W78921  24.977   2.156   2.288
 6662W        W78922  21.672  13.020   0.780
 6663W        W78923   6.773   0.179   4.895
 6664W        W78924  41.920  32.252  14.463
 6665W        W78925  25.536  29.956   0.877
 6666W        W78926   0.337   6.842  12.920
 6667W        W78927  35.460  14.304  11.137
 6668W        W78928  39.951  11.299   4.928
 6669W        W78929  29.226   0.475  11.572
 6670W        W78930  44.635  26.058  12.086
 6671W        W78931  32.626   8.795  14.226
 6672W        W78932  37.987   6.765  11.412
 6673W        W78933  20.157   8.938   3.611
 6674W        W78934  16.820  23.482   4.548
 6675W        W78935  38.031  13.387  12.242
 6676W        W78936  18.036  35.586   3.803
 6677W        W78937  21.248  21.255   0.859
 6678W        W78938  12.158  10.617  13.372
 6679W        W78939  12.713  11.370  10.574
 6680W        W78940  36.096  13.773  14.930
 6681W        W78941  33.136  20.007  12.961
 6682W        W78942  34.938  24.279  11.995
 6683W        W78943  18.113  22.282   3.153
 6684W        W78944   3.059   6.437   0.347
 6685W        W78945  40.446  25.224   2.638
 6686W        W78946  35.751  22.669  14.910
 6687W        W78947  16.714   0.496   3.087
 6688W        W78948  20.702   8.231  12.773
 6689W        W78949  15.376  27.003  11.933
 6690W        W78950  13.215  28.570   4.997
 6691W        W78951   5.573  19.628  11.134
 6692W        W78952  42.984  38.542  10.632
 6693W        W78953  40.758  16.195  11.222
 6694W        W78954  28.150  10.717   1.915
 6695W        W78955  42.221  15.721   3.861
 6696W        W78956  18.212  42.775   4.149
 6697W        W78957   2.229  19.317   0.416
 6698W        W78958  31.059  11.182   3.378
 6699W        W78959  16.169  28.898  12.164
 6700W        W78960   4.358  25.436  11.592
 6701W        W78961  36.374  29.929  11.140
 6702W        W78962  16.518  14.411   3.208
 6703W        W78963   9.323  13.723   3.825
 6704W        W78964  13.909  12.870   0.952
 6705W        W78965  21.773  31.666   2.677
 6706W        W78966  39.367   7.849  10.660
 6707W        W78967  16.045  24.180   2.292
 6708W        W78968  40.962  43.761   4.622
 6709W        W78969  32.981  44.359   0.103
 6710W        W78970   3.271  44.067  11.139
 6711W        W78971  13.673  33.016  11.005
 6712W        W78972  25.606  32.180   3.344
 6713W        W78973  21.172  27.405   1.191
 6714W        W78974  12.566  28.140  10.610
 6715W        W78975  30.000  37.627  13.546
 6716W        W78976  25.198  11.104   3.620
 6717W        W78977  33.428   7.214  12.001
 6718W        W78978   3.921  36.578   4.764
 6719W        W78979  44.476  44.310  10.859
 6720W        W78980  34.031  25.027   3.772
 6721W        W78981  17.202  19.175  14.327
 6722W        W78982  15.296  15.097  12.298
 6723W        W78983  15.397   5.617  12.195
 6724W        W78984   1.949  27.581  14.845
 6725W        W78985   3.548  24.562   2.616
 6726W        W78986  30.055  14.189  10.706
 6727W        W78987   4.236   6.935  12.938
 6728W        W78988  39.835  17.892  13.082
 6729W        W78989  37.912  16.839   1.315
 6730W        W78990  18.161  41.264  10.968
 6731W        W78991  20.548  34.107   1.342
 6732W        W78992  28.103  40.535  11.597
 6733W        W78993  35.035  18.785  14.402
 6734W        W78994  12.908   9.200   2.454
 6735W        W78995  34.840  38.514  13.817
 6736W        W78996   2.247   8.750   3.527
 6737W        W78997   0.515   6.840   0.878
 6738W        W78998  16.004  38.383  13.722
 6739W        W78999  36.423  25.115  11.989
 6740W        W79000  12.773  18.652   2.591
 6741W        W79001  38.576  41.324  12.940
 6742W        W79002  14.256  13.971   4.673
 6743W        W79003  15.636  38.961   3.692
 6744W        W79004  14.186   1.005   4.228
 6745W        W79005   7.693  30.670  11.498
 6746W        W79006  34.055  39.138   1.363
 6747W        W79007  29.686  28.670  12.910
 6748W        W79008  27.161  34.117   0.407
 6749W        W79009   1.277   9.787  13.134
 6750W        W79010  23.506  43.221  14.811
 6751W        W79011  40.790  23.195  13.038
 6752W        W79012  36.443  43.949   2.627
 6753W        W79013  22.689  10.636  11.469
 6754W        W79014  19.247  39.943  10.610
 6755W        W79015  44.491  30.403  13.862
 6756W        W79016  19.735  19.793  14.142
 6757W        W79017  28.085  25.086   4.691
 6758W        W79018  23.428  23.436  12.588
 6759W        W79019  26.194   9.196   0.918
 6760W        W79020  33.371  26.581   4.997
 6761W        W79021   8.378   2.351  13.452
 6762W        W79022  16.119  25.572  12.619
 6763W        W79023   5.207   9.320   1.906
 6764W        W79024  12.237  19.437   3.084
 6765W        W79025  23.235  28.701   2.321
 6766W        W79026   2.784   2.712   1.285
 6767W        W79027  36.888  29.252  11.214
 6768W        W79028  35.531   7.076  12.866
 6769W        W79029   7.835   5.465   3.715
 6770W        W79030  23.904  17.332   3.562
 6771W        W79031   9.738  25.550   3.244
 6772W        W79032  44.371  28.023   1.333
 6773W        W79033  43.516  28.969   2.537
 6774W        W79034  24.355  16.629  13.560
 6775W        W79035  36.399  29.840  13.042
 6776W        W79036  33.247   6.267  10.721
 6777W        W79037  39.423  30.137  13.037
 6778W        W79038  29.526  17.659   1.549
 6779W        W79039  32.768   5.879   4.169
 6780W        W79040  17.572   0.936   0.857
 6781W        W79041  37.160  22.169   0.346
 6782W        W79042   7.300  10.630  13.012
 6783W        W79043   0.272  42.562   2.855
 6784W        W79044  33.656   2.157   1.399
 6785W        W79045  38.293  20.224   0.888
 6786W        W79046  30.334  11.586   2.312
 6787W        W79047  26.586  43.465   2.215
 6788W        W79048  16.761  28.547  12.123
 6789W        W79049  26.017  35.517   3.194
 6790W        W79050  13.640  28.302  12.542
 6791W        W79051  16.365  29.969   3.636
 6792W        W79052   9.699  43.795   3.631
 6793W        W79053  33.469   2.854  11.078
 6794W        W79054  32.107  18.164   4.234
 6795W        W79055  28.658  39.798  10.843
 6796W        W79056   8.271  44.223   3.708
 6797W        W79057  16.776  22.296   2.725
 6798W        W79058  30.358  18.030  14.931
 6799W        W79059   1.866   9.258  14.835
 6800W        W79060  15.197  28.949  10.873
 6801W        W79061  23.694  14.197  10.646
 6802W        W79062  18.796  33.428   4.065
 6803W        W79063  34.930   2.178   2.582
 6804W        W79064  36.017  37.731   1.919
 6805W        W79065   9.142  16.742  11.964
 6806W        W79066   4.284  16.007  12.917
 6807W        W79067  16.586  40.061   1.476
 6808W        W79068  27.276  30.501   0.935
 6809W        W79069   5.312  13.538   3.367
 6810W        W79070  18.306   4.794  10.023
 6811W        W79071  10.158  32.334  12.976
 6812W        W79072  32.043  23.668  11.697
 6813W        W79073  40.392  36.536   0.943
 6814W        W79074   2.955  23.977   2.237
 6815W        W79075   4.673  32.597   4.511
 6816W        W79076  38.283  32.064  13.062
 6817W        W79077  42.746  35.317  11.213
 6818W        W79078  43.644  10.605  13.083
 6819W        W79079  32.966  21.774   1.704
 6820W        W79080  14.181  29.634  12.952
 6821W        W79081  25.690  34.819   4.974
 6822W        W79082  40.370  27.008  13.011
 6823W        W79083  11.253  24.037  14.835
 6824W        W79084   4.017  19.628   1.737
 6825W        W79085  20.973  26.159   4.952
 6826W        W79086  13.923  25.533  14.841
 6827W        W79087  39.605  27.647  10.991
 6828W        W79088  24.088  14.086  13.400
 6829W        W79089  30.681  30.409  10.971
 6830W        W79090   3.129  10.159   0.850
 6831W        W79091  15.111  43.397  14.988
 6832W        W79092  24.497   0.739  12.072
 6833W        W79093  39.743  17.368   3.659
 6834W        W79094  10.961  44.191  10.632
 6835W        W79095  31.824  40.786  13.292
 6836W        W79096  35.329  42.396  11.868
 6837W        W79097  26.375  35.722   0.816
 6838W        W79098   3.525  17.144   3.279
 6839W        W79099   3.935  42.475  10.774
 6840W        W79100  14.589  39.930  14.559
 6841W        W79101  36.086  12.685  13.871
 6842W        W79102   1.947  18.940  11.347
 6843W        W79103  41.641  41.372  10.584
 6844W        W79104   9.242  26.919   4.788
 6845W        W79105   0.352  21.183   1.695
 6846W        W79106  43.446  27.062  11.217
 6847W        W79107  39.634  12.083   2.685
 6848W        W79108  35.119  15.905   1.594
 6849W        W79109  25.659  29.195  10.755
 6850W        W79110   8.106  43.769   3.124
 6851W        W79111  27.028  36.668   1.616
 6852W        W79112  41.431  43.527   0.655
 6853W        W79113  41.990  25.134   4.664
 6854W        W79114   5.941  33.079  13.587
 6855W        W79115  31.468   5.416   3.847
 6856W        W79116   9.277  13.489  11.091
 6857W        W79117  40.984  41.771  14.709
 6858W        W79118  36.986  36.905  11.796
 6859W        W79119  31.678  14.207  12.098
 6860W        W79120   5.603   0.874   2.782
 6861W        W79121  20.176  44.877  12.095
 6862W        W79122  25.494  21.116   2.278
 6863W        W79123  31.674   9.338   3.259
 6864W        W79124  18.275  24.093   4.140
 6865W        W79125   2.527  12.296   0.348
 6866W        W79126  43.739  37.116  12.091
 6867W        W79127   2.510  20.025  14.811
 6868W        W79128  24.091   6.739  14.882
 6869W        W79129  38.624  12.393  13.235
 6870W        W79130  35.065  40.577   2.382
 6871W        W79131   8.896   3.907  13.886
 6872W        W79132  30.130   9.144  13.570
 6873W        W79133  20.775  18.205  12.836
 6874W        W79134  24.156  20.388   1.347
 6875W        W79135   1.964  22.035   4.208
 6876W        W79136  13.619  38.635  11.461
 6877W        W79137  22.064   1.172   2.613
 6878W        W79138  18.994  37.618   3.379
 6879W        W79139  10.386  10.651  14.320
 6880W        W79140  44.072  43.246   4.357
 6881W        W79141   8.641  21.574  10.981
 6882W        W79142  10.358   9.375   1.473
 6883W        W79143  19.117   3.268   3.369
 6884W        W79144  12.378  14.804  12.956
 6885W        W79145  17.177  41.259  12.756
 6886W        W79146  27.720  29.703  12.427
 6887W        W79147  13.828  20.976  13.471
 6888W        W79148  25.537  10.134  11.567
 6889W        W79149  33.825  43.019   2.785
 6890W        W79150  30.501   4.315  11.978
 6891W        W79151  22.054  22.659  12.868
 6892W        W79152  26.710   4.883   4.043
 6893W        W79153   1.791  16.119   1.048
 6894W        W79154  38.112  24.499   4.128
 6895W        W79155  13.894  15.915  11.685
 6896W        W79156  17.608  16.342  11.905
 6897W        W79157  24.112  29.533   0.834
 6898W        W79158  17.058  13.364  14.478
 6899W        W79159  11.315  38.914   1.101
 6900W        W79160  13.791  27.995   4.480
 6901W        W79161   1.923  43.302   0.728
 6902W        W79162  28.164  37.741   4.153
 6903W        W79163  44.635   7.232  12.465
 6904W        W79164   1.220  12.097   2.764
 6905W        W79165   5.469  32.975  12.402
 6906W        W79166  19.371  15.150   0.248
 6907W        W79167  41.239  30.396   1.247
 6908W        W79168   2.227  26.746   2.885
 6909W        W79169  23.215  28.777   1.796
 6910W        W79170  26.910   4.277   4.165
 6911W        W79171   8.830  38.030   0.507
 6912W        W79172  28.341  13.834  10.441
 6913W        W79173  44.037  22.570   0.963
 6914W        W79174   6.888  15.161  11.216
 6915W        W79175   6.937  40.960  11.560
 6916W        W79176   8.940   8.874  13.963
 6917W        W79177   8.492  19.797   4.580
 6918W        W79178  23.122  22.985  11.410
 6919W        W79179  28.104  22.197   4.239
 6920W        W79180  35.587  19.021   2.736
 6921W        W79181  42.604  40.777  13.770
 6922W        W79182   7.917  32.477   2.671
 6923W        W79183   1.203  43.303  12.945
 6924W        W79184  17.747  40.604   4.269
 6925W        W79185   0.886  16.693   4.287
 6926W        W79186   2.646  22.219  10.735
 6927W        W79187  43.890  17.362   2.684
 6928W        W79188  30.880  21.631   2.280
 6929W        W79189  44.022  33.910  10.990
 6930W        W79190  27.846  22.024  13.142
 6931W        W79191  35.507  17.451   3.682
 6932W        W79192  18.201  11.342  10.625
 6933W        W79193   9.462   2.218   0.859
 6934W        W79194   5.145   8.252  11.888
 6935W        W79195   4.424  12.316  10.603
 6936W        W79196  29.473  39.302   1.736
 6937W        W79197  19.135  18.133  10.697
 6938W        W79198   1.186   4.989   0.717
 6939W        W79199   1.069   1.983  10.743
 6940W        W79200  25.956  37.925   1.450
 6941W        W79201   0.987  14.283   3.414
 6942W        W79202  20.309   1.244   2.240
 6943W        W79203  27.583  37.436  14.306
 6944W        W79204  27.512  11.013  14.879
 6945W        W79205  22.417  28.916  13.059
 6946W        W79206   7.421   4.968  12.422
 6947W        W79207   2.792  17.182   0.895
 6948W        W79208  38.545  19.535  13.306
 6949W        W79209  18.046  36.054  12.408
 6950W        W79210  15.669  39.083   1.804
 6951W        W79211  24.084  36.008   0.933
 6952W        W79212   8.617  21.117  13.524
 6953W        W79213  20.635  24.261  13.389
 6954W        W79214  37.827  14.723   1.825
 6955W        W79215   7.260   1.845   2.653
 6956W        W79216  44.369   1.365   0.477
 6957W        W79217  13.463  30.959  11.163
 6958W        W79218  34.534   7.253  11.708
 6959W        W79219  15.698  37.264   3.220
 6960W        W79220  16.387  33.440   2.301
 6961W        W79221  34.508  35.833  12.446
 6962W        W79222  12.078   9.629   1.463
 6963W        W79223   0.451  23.800  12.356
 6964W        W79224  37.944   4.890   1.450
 6965W        W79225  39.577  43.523   3.652
 6966W        W79226   3.509  16.987  12.594
 6967W        W79227  17.840   1.740   0.442
 6968W        W79228  30.460  38.980  10.785
 6969W        W79229  12.720   6.458  14.031
 6970W        W79230  28.035  10.137   3.291
 6971W        W79231  10.228   8.138   1.309
 6972W        W79232  13.079  21.725   0.252
 6973W        W79233   7.366  35.147   0.300
 6974W        W79234  27.038  18.154  13.058
 6975W        W79235  26.218  14.813  13.525
 6976W        W79236  38.375  21.114   2.994
 6977W        W79237  40.321  11.194  11.062
 6978W        W79238  38.968   9.930  13.922
 6979W        W79239  23.715  38.911   4.665
 6980W        W79240   5.750  13.332  13.494
 6981W        W79241   3.530  15.196   1.587
 6982W        W79242  40.891  43.994  10.742
 6983W        W79243   1.301  36.353   2.757
 6984W        W79244  44.953   3.189  11.807
 6985W        W79245  25.140   4.482   2.719
 6986W        W79246  25.035   3.950   1.813
 6987W        W79247   1.115  29.298  14.083
 6988W        W79248  40.823  24.452   0.854
 6989W        W79249  16.486   1.683  12.913
 6990W        W79250  30.857  40.747  10.038
 6991W        W79251  42.735  15.292  14.877
 6992W        W79252  36.692  13.323  13.053
 6993W        W79253  35.029  10.620   0.347
 6994W        W79254  34.018  18.825  10.620
 6995W        W79255  18.536  15.268   0.636
 6996W        W79256  28.930  39.272  11.172
 6997W        W79257  22.321  13.599  10.797
 6998W        W79258  21.811  24.687   3.395
 6999W        W79259  41.270  30.896   1.399
 7000W        W79260  19.588   9.256  12.614
 7001W        W79261  42.994   0.922  10.427
 7002W        W79262  38.382  13.577   1.388
 7003W        W79263  16.327   6.940  12.465
 7004W        W79264  21.128  13.906  14.832
 7005W        W79265  31.514  16.532   2.759
 7006W        W79266  43.758  20.506  14.888
 7007W        W79267  14.187  29.432   2.233
 7008W        W79268  38.975  17.259   1.658
 7009W        W79269  33.907  41.467   0.008
 7010W        W79270   0.506  32.085  12.216
 7011W        W79271  14.582  25.988   0.225
 7012W        W79272   4.807  19.792   3.308
 7013W        W79273  14.082   6.903   2.248
 7014W        W79274  27.190  40.574   4.543
 7015W        W79275   2.848  43.785   4.971
 7016W        W79276  18.364  15.592  14.431
 7017W        W79277  21.578  31.678  12.077
 7018W        W79278  37.448   8.592   4.841
 7019W        W79279   3.663  36.291   3.976
 7020W        W79280  12.593  18.537  12.026
 7021W        W79281  37.606   5.827   2.338
 7022W        W79282  43.010  40.600   1.471
 7023W        W79283  14.777  11.659   3.352
 7024W        W79284  19.295   6.708   2.671
 7025W        W79285  20.025  14.038  11.044
 7026W        W79286   2.470  39.899   4.549
 7027W        W79287   8.364  32.609   3.655
 7028W        W79288  10.272   3.349  11.501
 7029W        W79289  38.150  16.185   3.093
 7030W        W79290  40.882  37.122   1.163
 7031W        W79291  13.106   6.619  12.473
 7032W        W79292  25.081   6.948   0.961
 7033W        W79293  35.753   1.570   0.320
 7034W        W79294  31.612  17.379   1.845
 7035W        W79295  29.043  11.675   1.730
 7036W        W79296  36.361  17.509  11.730
 7037W        W79297  23.078  19.804  12.031
 7038W        W79298  24.269  38.397   4.340
 7039W        W79299  42.951   7.739  12.213
 7040W        W79300   2.714   3.541   4.186
 7041W        W79301  43.358   7.199  10.653
 7042W        W79302  24.268   8.407  11.121
 7043W        W79303  33.169  15.483   1.767
 7044W        W79304   3.465   4.973   0.822
 7045W        W79305   4.240   5.836  12.629
 7046W        W79306  42.532  37.346   0.233
 7047W        W79307  29.390  15.105  11.156
 7048W        W79308   5.495  35.627  11.667
 7049W        W79309   7.865  43.356   4.818
 7050W        W79310  11.589   4.272   3.705
 7051W        W79311  35.825  33.380  12.467
 7052W        W79312  25.089  10.242   1.423
 7053W        W79313  39.519   8.460  13.803
 7054W        W79314   9.947  26.433  11.541
 7055W        W79315  41.313   3.857   2.315
 7056W        W79316  27.849   8.855  10.556
 7057W        W79317  26.049   1.086  12.989
 7058W        W79318  24.721  30.408   0.926
 7059W        W79319  38.976  23.171  12.120
 7060W        W79320   9.799  23.780   3.757
 7061W        W79321  27.997   4.545   0.437
 7062W        W79322  27.370  18.297   0.857
 7063W        W79323   3.439   9.448   2.860
 7064W        W79324  32.009  42.280   3.873
 7065W        W79325  31.902  40.532  11.447
 7066W        W79326  15.132  20.088   0.479
 7067W        W79327   1.815   1.733   4.665
 7068W        W79328  28.624   7.631   2.732
 7069W        W79329  29.931  42.937  14.383
 7070W        W79330  36.632  20.743  10.138
 7071W        W79331   8.829  12.277  13.340
 7072W        W79332  25.506  19.133   3.843
 7073W        W79333   7.062  34.875  12.257
 7074W        W79334  35.497  10.672  12.860
 7075W        W79335  30.140  17.740   3.384
 7076W        W79336  35.887  11.727   2.098
 7077W        W79337  23.221  36.643  10.633
 7078W        W79338  30.506  29.198   2.669
 7079W        W79339   0.934  20.965  12.094
 7080W        W79340   1.024   4.126   1.853
 7081W        W79341  44.350   3.460  12.924
 7082W        W79342  34.999  31.121  14.742
 7083W        W79343  24.669  39.497  13.040
 7084W        W79344  25.962  17.332   3.734
 7085W        W79345  32.122  37.940  12.010
 7086W        W79346  32.423  44.847   4.528
 7087W        W79347  31.879  39.842   3.279
 7088W        W79348  34.906  31.897   0.476
 7089W        W79349   0.851   3.729   3.112
 7090W        W79350   9.148  28.233  12.553
 7091W        W79351  31.619  24.679  14.442
 7092W        W79352  37.861  22.611   0.619
 7093W        W79353  22.229  42.304   1.406
 7094W        W79354   1.494  18.539  14.654
 7095W        W79355   2.757  14.506  13.146
 7096W        W79356   5.281   7.104  13.040
 7097W        W79357  32.474   1.443   0.511
 7098W        W79358  19.630  14.333   1.014
 7099W        W79359  39.068  31.773   1.669
 7100W        W79360   1.248  44.854   4.452
 7101W        W79361  19.336  22.987   0.685
 7102W        W79362  34.509  25.483   2.911
 7103W        W79363  13.379  24.288  11.736
 7104W        W79364  38.046  34.754  12.762
 7105W        W79365  32.979  20.736  14.984
 7106W        W79366  22.503  29.151   5.313
 7107W        W79367  31.555  10.368  10.498
 7108W        W79368  29.018   4.170  12.451
 7109W        W79369  23.259  11.463  11.235
 7110W        W79370  41.413  38.458  13.409
 7111W        W79371  15.690  26.890  12.898
 7112W        W79372  38.102  28.092   2.643
 7113W        W79373  27.039  27.107  11.137
 7114W        W79374  18.001   8.335  13.336
 7115W        W79375   9.739  10.815  12.714
 7116W        W79376  37.968  28.707  13.921
 7117W        W79377   0.385  14.528  12.958
 7118W        W79378  41.169   7.442   2.860
 7119W        W79379  18.177  15.614   4.659
 7120W        W79380  19.609  37.057  13.926
 7121W        W79381  35.917  25.200   4.739
 7122W        W79382  29.106   1.923   4.247
 7123W        W79383  41.563  24.192  12.453
 7124W        W79384  36.009  43.251   2.753
 7125W        W79385  17.658  11.767  13.778
 7126W        W79386  10.897  31.496   4.189
 7127W        W79387  36.941  21.595   1.136
 7128W        W79388   5.479  28.329   2.211
 7129W        W79389  20.711   4.134   3.972
 7130W        W79390  28.056  11.400  12.995
 7131W        W79391  25.621  37.468  13.524
 7132W        W79392  16.766   6.755  12.926
 7133W        W79393  38.496  13.721  12.180
 7134W        W79394  34.859  14.609   0.255
 7135W        W79395   4.807  30.910   2.205
 7136W        W79396  28.045  27.551   2.654
 7137W        W79397   7.855  32.588   3.603
 7138W        W79398   5.052   5.492   1.785
 7139W        W79399   7.363  31.823  13.948
 7140W        W79400  34.887  27.000  12.358
 7141W        W79401  32.569  23.468   1.893
 7142W        W79402  18.196  29.937   4.561
 7143W        W79403  12.126  20.440   3.204
 7144W        W79404   6.776  34.453  10.927
 7145W        W79405  41.989  22.303  11.064
 7146W        W79406  32.633  31.082  11.539
 7147W        W79407  38.393  10.074   3.775
 7148W        W79408  30.836  31.743   2.775
 7149W        W79409   9.189  18.488   1.729
 7150W        W79410  25.407  32.018   2.681
 7151W        W79411   8.353  37.623  12.399
 7152W        W79412   9.928  43.253   4.640
 7153W        W79413  35.488  15.488   2.347
 7154W        W79414  28.558  24.225  12.551
 7155W        W79415  20.770  13.199   0.558
 7156W        W79416  19.250  44.956   0.332
 7157W        W79417  39.847  39.448   0.067
 7158W        W79418  30.057  31.048  12.943
 7159W        W79419  25.714   0.533  14.741
 7160W        W79420  35.926  37.859  11.997
 7161W        W79421  20.071  42.758  10.228
 7162W        W79422   5.223  32.115   0.873
 7163W        W79423  12.676   6.763   3.673
 7164W        W79424  37.477  17.333  11.847
 7165W        W79425  32.216  39.825   3.718
 7166W        W79426   7.641  27.635  10.609
 7167W        W79427  23.199  14.633   1.905
 7168W        W79428  37.433  13.667   3.362
 7169W        W79429  20.762   7.270  13.088
 7170W        W79430  41.627  14.780  11.640
 7171W        W79431  19.765  21.654   1.526
 7172W        W79432  41.277  40.545  10.805
 7173W        W79433  44.717  28.421  12.143
 7174W        W79434   0.841   4.080   4.363
 7175W        W79435  17.568  12.129   4.153
 7176W        W79436  38.400  22.969  11.541
 7177W        W79437  27.188  13.681   0.948
 7178W        W79438  38.959  44.306  13.185
 7179W        W79439  18.189  43.073   2.243
 7180W        W79440  19.760  10.902   3.256
 7181W        W79441  13.321  19.209   0.799
 7182W        W79442  23.701  40.340  14.914
 7183W        W79443  31.122  24.900  12.934
 7184W        W79444  40.843  44.035  12.600
 7185W        W79445  10.903  43.345  11.214
 7186W        W79446  39.604  29.655   4.460
 7187W        W79447  15.250  38.066   3.233
 7188W        W79448  28.442  26.470  10.676
 7189W        W79449  18.702  12.327   2.137
 7190W        W79450  25.131  12.277   1.276
 7191W        W79451  36.665   9.265   1.394
 7192W        W79452   9.737  37.096  11.852
 7193W        W79453  17.132  27.525   3.292
 7194W        W79454  13.700  36.513   4.191
 7195W        W79455  10.943  26.507   0.322
 7196W        W79456   8.175  28.031  11.315
 7197W        W79457  10.497  21.216  12.861
 7198W        W79458  31.142   3.257  13.803
 7199W        W79459  23.953  12.231   0.357
 7200W        W79460  32.975   5.896  11.838
 7201W        W79461  28.099  12.658   0.776
 7202W        W79462  33.268   5.465   1.267
 7203W        W79463  14.946  33.011  12.942
 7204W        W79464  14.200  21.506   0.991
 7205W        W79465  43.923   7.625   3.291
 7206W        W79466  14.760   7.101  14.020
 7207W        W79467  37.825  39.915  12.987
 7208W        W79468   1.541  16.073   1.638
 7209W        W79469  16.505   0.802   4.153
 7210W        W79470   0.279  36.226  11.970
 7211W        W79471  24.293  43.808   2.347
 7212W        W79472   0.821  40.454   1.692
 7213W        W79473  39.437   2.229  12.169
 7214W        W79474  29.342   9.130  13.990
 7215W        W79475  21.515  37.643   2.425
 7216W        W79476  15.811  38.846   0.376
 7217W        W79477  21.577  44.243   3.208
 7218W        W79478  13.638   1.377   4.139
 7219W        W79479   7.714  44.674   2.202
 7220W        W79480  24.793  33.999   1.986
 7221W        W79481  37.658   4.440   2.200
 7222W        W79482  26.592  21.093  11.062
 7223W        W79483  21.494  26.090   1.905
 7224W        W79484  43.915  23.256   3.222
 7225W        W79485  37.255  29.042  13.931
 7226W        W79486  36.025   1.288   3.885
 7227W        W79487  21.658  42.456  11.590
 7228W        W79488  40.514  41.095   3.949
 7229W        W79489  44.703  12.783   4.728
 7230W        W79490  18.992  30.730  11.649
 7231W        W79491  27.573  28.702   0.622
 7232W        W79492  35.310  23.708  11.246
 7233W        W79493  35.509  33.269  10.691
 7234W        W79494  21.080  20.760  14.948
 7235W        W79495  23.754  31.060   1.841
 7236W        W79496   4.873   5.334  13.462
 7237W        W79497  42.237  44.449   3.673
 7238W        W79498  36.256  28.385   1.330
 7239W        W79499   0.434   7.861   1.877
 7240W        W79500  21.214  18.323  11.183
 7241W        W79501  34.937  19.121   4.572
 7242W        W79502  23.536  17.743  13.562
 7243W        W79503   1.044  11.009  14.555
 7244W        W79504  29.644  44.430   3.286
 7245W        W79505  34.563  27.682  14.033
 7246W        W79506  16.710  26.641   4.096
 7247W        W79507   6.923  25.946  14.660
 7248W        W79508   2.428  11.531  12.156
 7249W        W79509  43.960  24.707   0.884
 7250W        W79510  26.605  43.479  10.652
 7251W        W79511   8.251  11.364  12.027
 7252W        W79512  18.640  26.144  12.916
 7253W        W79513   8.464   8.238   0.340
 7254W        W79514   2.050  17.678   2.957
 7255W        W79515  22.911  23.494  13.423
 7256W        W79516   0.864  17.714   4.081
 7257W        W79517  36.503  36.956  14.740
 7258W        W79518  26.948  29.880  10.295
 7259W        W79519   3.884  42.293   2.742
 7260W        W79520  26.118  36.479   2.737
 7261W        W79521   5.474  22.485   2.937
 7262W        W79522   6.941  36.399  11.567
 7263W        W79523  39.720  20.417   2.865
 7264W        W79524  37.903  33.417  12.319
 7265W        W79525  30.572  10.230  14.546
 7266W        W79526  13.562  35.480   0.287
 7267W        W79527  33.929  27.928   2.804
 7268W        W79528  20.057  12.328   3.169
 7269W        W79529  23.023  35.488   1.252
 7270W        W79530  21.463  13.771   4.243
 7271W        W79531  29.583  12.364  13.630
 7272W        W79532   1.773  42.445  14.297
 7273W        W79533   3.491  41.401  10.004
 7274W        W79534  38.337  10.201   1.832
 7275W        W79535  10.710  42.048   4.650
 7276W        W79536  29.131  44.325   2.292
 7277W        W79537  20.289  34.022   3.545
 7278W        W79538  14.888  36.650   0.821
 7279W        W79539  18.814   6.410  10.203
 7280W        W79540  29.567  17.665  14.447
 7281W        W79541  19.767   0.917   2.216
 7282W        W79542  23.213   1.901   1.271
 7283W        W79543   7.192  26.159   5.407
 7284W        W79544  17.280  16.090  13.864
 7285W        W79545  11.808  26.842  12.096
 7286W        W79546  38.503  12.157   3.874
 7287W        W79547  26.724  21.205   1.811
 7288W        W79548   2.944   7.510   0.875
 7289W        W79549  30.638  13.111   3.546
 7290W        W79550   4.483   2.602   0.785
 7291W        W79551  16.164  37.071   0.734
 7292W        W79552  26.104  25.067   2.767
 7293W        W79553  40.284  26.786  11.545
 7294W        W79554  38.333  19.041   1.409
 7295W        W79555   0.819  44.358  10.642
 7296W        W79556  14.016  28.580   1.226
 7297W        W79557  23.914  14.615   0.527
 7298W        W79558  37.547  12.598  13.940
 7299W        W79559  21.966  26.153   5.039
 7300W        W79560  13.712  44.352  12.974
 7301W        W79561   2.820  37.564  12.398
 7302W        W79562   4.265  15.713  12.481
 7303W        W79563   8.412   0.378   4.212
 7304W        W79564  42.285   6.160   0.949
 7305W        W79565  34.149  10.717   4.681
 7306W        W79566  41.516  33.810  11.202
 7307W        W79567  43.872  13.639  11.528
 7308W        W79568  11.177  14.598   3.217
 7309W        W79569  23.215  14.696   3.711
 7310W        W79570   4.236   7.125   0.189
 7311W        W79571  14.888  33.240  11.683
 7312W        W79572  27.507  25.986  14.988
 7313W        W79573  35.355  30.748   3.912
 7314W        W79574   2.463  36.493   3.225
 7315W        W79575  32.440   6.327   2.667
 7316W        W79576  25.744  37.442   1.389
 7317W        W79577  18.598  12.897  12.995
 7318W        W79578  18.478  39.331  10.711
 7319W        W79579  16.909  41.800   5.219
 7320W        W79580  32.133  41.573   3.309
 7321W        W79581  16.723  41.475  10.748
 7322W        W79582   3.794  21.907   1.436
 7323W        W79583  24.627  27.928   1.033
 7324W        W79584  29.355   4.253  10.677
 7325W        W79585  15.080   7.787   0.856
 7326W        W79586  33.950   2.589  13.829
 7327W        W79587  20.731  13.793   1.291
 7328W        W79588   9.312  31.695  14.828
 7329W        W79589   2.840  11.871  11.050
 7330W        W79590  25.479  29.392   3.275
 7331W        W79591   2.842  28.890   2.289
 7332W        W79592  20.327  23.467   5.017
 7333W        W79593  36.362  30.574   1.836
 7334W        W79594  33.100  13.254   2.474
 7335W        W79595  19.547  17.157   4.609
 7336W        W79596   3.377  35.923   1.942
 7337W        W79597  36.571  19.236   3.639
 7338W        W79598   1.850   7.258   4.534
 7339W        W79599  30.694  40.454  14.435
 7340W        W79600  10.600  33.066   1.415
 7341W        W79601  10.950  13.681   1.487
 7342W        W79602  17.194   9.819  10.873
 7343W        W79603   1.259  25.245   3.675
 7344W        W79604  21.182  18.798  10.979
 7345W        W79605  26.792  21.486   0.799
 7346W        W79606  44.220   2.973  12.779
 7347W        W79607  23.084   7.907   4.172
 7348W        W79608  34.579  38.550   2.310
 7349W        W79609   8.502  44.672  14.442
 7350W        W79610  30.514  42.408  14.825
 7351W        W79611  38.090   0.261  11.053
 7352W        W79612  44.545  18.544   4.853
 7353W        W79613   1.955  28.634   4.855
 7354W        W79614  27.214  29.018   4.787
 7355W        W79615  40.450  21.971  10.607
 7356W        W79616  42.410  19.522  12.933
 7357W        W79617   2.090  18.694  14.508
 7358W        W79618  38.329  41.444  12.499
 7359W        W79619  20.260  44.028   1.378
 7360W        W79620  29.082  27.646  12.412
 7361W        W79621  41.472   8.333   2.438
 7362W        W79622  32.966  18.282  12.444
 7363W        W79623  12.633  14.101   2.842
 7364W        W79624  33.456  21.702  12.600
 7365W        W79625  21.645  31.183  13.095
 7366W        W79626   5.207  12.298   0.372
 7367W        W79627  22.156  17.958   2.422
 7368W        W79628  36.030  18.755  12.731
 7369W        W79629   9.141  12.211   0.829
 7370W        W79630  43.529  26.735  12.314
 7371W        W79631   1.309  13.588   3.559
 7372W        W79632  29.944  14.235  11.211
 7373W        W79633  40.940  15.249   0.132
 7374W        W79634   6.459   4.928  13.479
 7375W        W79635  39.495  43.007   3.618
 7376W        W79636   2.181   0.477   2.503
 7377W        W79637  12.363  21.194   4.692
 7378W        W79638   4.322  14.112   4.421
 7379W        W79639   6.810   7.948  14.766
 7380W        W79640  24.055  34.959   0.418
 7381W        W79641  40.369  12.438  11.778
 7382W        W79642  20.024   0.469  13.075
 7383W        W79643  36.879  31.370   3.589
 7384W        W79644  17.553  33.346  13.918
 7385W        W79645  40.430  26.134  14.824
 7386W        W79646  17.527  10.190  11.481
 7387W        W79647  41.595   9.058  13.462
 7388W        W79648   5.425  41.144  11.101
 7389W        W79649  18.259  19.798  10.798
 7390W        W79650  38.402   8.329  14.651
 7391W        W79651   5.769  20.813   3.862
 7392W        W79652   5.267  10.832  13.901
 7393W        W79653  10.468  38.134   4.179
 7394W        W79654  34.654  27.514  10.681
 7395W        W79655   2.895  20.713  13.594
 7396W        W79656  13.812  14.550  14.302
 7397W        W79657  37.199   0.782  12.417
 7398W        W79658  41.409   6.924   3.699
 7399W        W79659  15.446  17.167   0.367
 7400W        W79660   4.185   3.784  13.997
 7401W        W79661  37.432  20.280   2.736
 7402W        W79662  44.264  14.222   1.525
 7403W        W79663   6.275  32.444  13.158
 7404W        W79664  41.378  21.813   3.150
 7405W        W79665  23.074  41.769   4.356
 7406W        W79666  30.185  24.155   3.237
 7407W        W79667  25.194  25.913  11.858
 7408W        W79668  36.668  26.107   2.820
 7409W        W79669  22.478  13.093   4.066
 7410W        W79670  30.975   0.748   1.703
 7411W        W79671  10.736  32.596  12.122
 7412W        W79672  13.641  18.823   1.026
 7413W        W79673  31.531  32.905   0.088
 7414W        W79674  42.479  44.323   4.140
 7415W        W79675  37.273  30.690   1.820
 7416W        W79676  31.608  19.154  13.376
 7417W        W79677  20.977   8.598  10.726
 7418W        W79678  33.880  22.647  12.529
 7419W        W79679  24.009  24.967   4.194
 7420W        W79680  21.742  26.590  11.520
 7421W        W79681   7.431  38.373  14.972
 7422W        W79682  19.440  28.944   0.430
 7423W        W79683  24.910   2.817  10.953
 7424W        W79684  32.122  44.239   5.081
 7425W        W79685  37.387  12.142   2.863
 7426W        W79686  44.863  24.586  11.988
 7427W        W79687  44.622  39.428   4.884
 7428W        W79688  43.255  37.113  13.897
 7429W        W79689   1.761  17.663   3.411
 7430W        W79690  18.744  34.308  12.992
 7431W        W79691  30.380  25.032   0.480
 7432W        W79692   9.904  12.072  14.477
 7433W        W79693  33.600  42.383   2.771
 7434W        W79694  10.616  26.445  13.562
 7435W        W79695  11.758  34.332   0.386
 7436W        W79696  28.140  23.362  12.375
 7437W        W79697  17.846  30.765  12.106
 7438W        W79698  41.910  20.040  14.427
 7439W        W79699   7.318  39.267  13.826
 7440W        W79700  39.526  26.298  13.711
 7441W        W79701  17.276  10.873   0.059
 7442W        W79702  40.894  10.670  12.546
 7443W        W79703  34.670  16.754  12.488
 7444W        W79704  22.590  38.970  14.392
 7445W        W79705  44.799  34.089   2.230
 7446W        W79706  39.314  29.896   2.150
 7447W        W79707  20.244   8.111   4.611
 7448W        W79708  41.372   6.343  12.691
 7449W        W79709   6.277  11.675  13.489
 7450W        W79710   9.328   6.095  11.728
 7451W        W79711   6.897  26.612  10.775
 7452W        W79712  13.271  14.096  12.521
 7453W        W79713  39.108  35.803  14.960
 7454W        W79714   6.809  30.225   4.111
 7455W        W79715   3.731  12.109  13.291
 7456W        W79716  20.662  18.919  13.976
 7457W        W79717  35.011  44.798   1.829
 7458W        W79718  14.374  26.516   5.041
 7459W        W79719  17.078  18.568  13.652
 7460W        W79720  12.313  30.128  12.004
 7461W        W79721  31.151  26.570   4.966
 7462W        W79722  43.418  12.571  12.045
 7463W        W79723  38.821  36.858   3.745
 7464W        W79724  21.048  28.148   9.899
 7465W        W79725  27.996  15.656   5.123
 7466W        W79726  35.693  27.518  10.810
 7467W        W79727  14.734  36.925  10.600
 7468W        W79728  23.134  18.749  12.489
 7469W        W79729  20.023  12.677  11.077
 7470W        W79730  17.628  19.935   4.138
 7471W        W79731   8.189  14.091  13.690
 7472W        W79732  34.403  33.506  13.045
 7473W        W79733  35.055  15.285  11.137
 7474W        W79734   8.660  33.930  13.928
 7475W        W79735  27.610  16.922   3.118
 7476W        W79736  20.213  27.050   1.443
 7477W        W79737   2.413   0.472   4.630
 7478W        W79738  44.928  38.019  10.657
 7479W        W79739  21.767  28.139  12.423
 7480W        W79740   1.899  32.177  13.258
 7481W        W79741  19.571  18.799  12.492
 7482W        W79742  26.204  20.435  13.340
 7483W        W79743   0.014   9.407   4.173
 7484W        W79744   8.284  12.800   4.392
 7485W        W79745   7.673   5.902   0.381
 7486W        W79746  42.525  39.392  10.751
 7487W        W79747  14.911  28.004   4.458
 7488W        W79748  29.911  29.984  11.117
 7489W        W79749  22.648  21.259  11.085
 7490W        W79750  40.475  19.642   0.234
 7491W        W79751  21.284  24.070  13.044
 7492W        W79752  42.601  27.745   2.807
 7493W        W79753  26.762  34.099  12.960
 7494W        W79754  10.903  26.939  11.752
 7495W        W79755   7.728   9.066  13.633
 7496W        W79756   9.959  15.342  13.853
 7497W        W79757  33.608   9.835  10.517
 7498W        W79758  39.586  14.569   0.016
 7499W        W79759  15.738  10.225   4.164
 7500W        W79760  42.835  32.564   4.214
 7501W        W79761  22.445   5.656   4.133
 7502W        W79762  42.322  24.764   3.184
 7503W        W79763  36.562  13.804   1.298
 7504W        W79764  15.989  29.968   2.691
 7505W        W79765  26.505  17.915   2.664
 7506W        W79766  27.041   9.636   5.017
 7507W        W79767   0.954  19.105   4.299
 7508W        W79768  27.130  20.587  13.366
 7509W        W79769   5.788  17.018  12.018
 7510W        W79770  39.328   4.495   1.262
 7511W        W79771   5.201   2.888   4.671
 7512W        W79772  42.281  16.415   1.235
 7513W        W79773  13.410  34.859   1.343
 7514W        W79774   4.801  39.487  11.155
 7515W        W79775  21.054  27.331  13.148
 7516W        W79776  32.971  32.225  13.353
 7517W        W79777  22.696  15.322   2.219
 7518W        W79778  37.820   6.920   1.243
 7519W        W79779   2.744   6.945   1.674
 7520W        W79780  13.644   3.653   2.807
 7521W        W79781  13.485   9.877  14.104
 7522W        W79782  39.095   9.217   4.675
 7523W        W79783  22.907  39.840   2.771
 7524W        W79784  20.038  27.165  14.346
 7525W        W79785  24.573  18.264  11.462
 7526W        W79786  24.275  15.846   3.656
 7527W        W79787  43.006  33.041  14.657
 7528W        W79788  23.215  44.028   3.828
 7529W        W79789  30.891  16.516  12.002
 7530W        W79790   0.196   0.393  11.151
 7531W        W79791  42.042  42.307   0.881
 7532W        W79792   6.230  23.245  12.072
 7533W        W79793  34.884  26.080  14.316
 7534W        W79794  38.087  26.409   1.193
 7535W        W79795  25.719  10.595  14.312
 7536W        W79796   1.920  17.029  10.233
 7537W        W79797  40.374  14.400  12.521
 7538W        W79798   7.959  19.584   3.250
 7539W        W79799  18.545  21.190  13.928
 7540W        W79800   1.059   1.394  10.139
 7541W        W79801   2.887   2.133  14.864
 7542W        W79802  27.461  31.012  14.441
 7543W        W79803  32.485  12.121   4.615
 7544W        W79804  11.251  22.969  10.635
 7545W        W79805  41.052   3.089   3.190
 7546W        W79806   3.771  11.684  12.965
 7547W        W79807  40.130  39.383   4.133
 7548W        W79808  34.503  28.006  14.516
 7549W        W79809   5.216   6.298  10.625
 7550W        W79810  40.970  39.361  11.604
 7551W        W79811  18.791  18.720   3.743
 7552W        W79812  24.009  18.772  12.626
 7553W        W79813  14.797  25.772  12.909
 7554W        W79814  43.384  28.875   3.808
 7555W        W79815  27.705   8.201  13.753
 7556W        W79816   6.508  25.551   5.024
 7557W        W79817  17.025  28.949   3.583
 7558W        W79818   2.664   4.765   2.266
 7559W        W79819  16.593  11.563  14.952
 7560W        W79820  34.384   8.362   2.373
 7561W        W79821  12.293  16.740   4.388
 7562W        W79822   6.679  33.403  13.401
 7563W        W79823  14.665  38.584   2.858
 7564W        W79824  25.428  34.305   2.292
 7565W        W79825   5.368  15.603   2.318
 7566W        W79826  26.923  10.249   1.823
 7567W        W79827  44.893  26.854   1.766
 7568W        W79828  36.422  12.219   0.525
 7569W        W79829  25.147  39.656   9.794
 7570W        W79830   3.281  31.136   4.214
 7571W        W79831  19.057  33.643   0.325
 7572W        W79832  40.922  26.550  12.153
 7573W        W79833  38.522   9.504  12.118
 7574W        W79834  20.077  24.223   3.764
 7575W        W79835   8.829   3.161   0.419
 7576W        W79836  31.062   4.735  14.225
 7577W        W79837  23.651  15.378   4.206
 7578W        W79838  23.124  32.859   4.261
 7579W        W79839  12.580   7.487  14.509
 7580W        W79840  36.064   1.063   3.420
 7581W        W79841  21.288  28.127   1.839
 7582W        W79842  39.905  28.444  10.441
 7583W        W79843  22.014   6.483   2.756
 7584W        W79844  41.320  23.539  12.400
 7585W        W79845  20.217  14.163   3.999
 7586W        W79846  38.984  12.729   1.496
 7587W        W79847  25.729  20.325   2.211
 7588W        W79848  26.043  23.664  10.993
 7589W        W79849   0.478  39.568   1.865
 7590W        W79850   9.701  25.629   4.707
 7591W        W79851   8.570  27.065   2.451
 7592W        W79852  34.372  24.457   1.407
 7593W        W79853  21.031   0.403  12.974
 7594W        W79854  14.822  29.145   9.685
 7595W        W79855   2.805   8.174  11.381
 7596W        W79856  13.387  19.071   4.129
 7597W        W79857  29.501  38.356  10.768
 7598W        W79858  20.033   3.035   0.767
 7599W        W79859  10.916  29.999   5.668
 7600W        W79860  43.448   9.821  13.874
 7601W        W79861  37.470  16.227   4.235
 7602W        W79862   5.144   4.911   2.197
 7603W        W79863   8.260  32.897   2.304
 7604W        W79864   1.906  23.940   4.638
 7605W        W79865  16.542  40.434  11.579
 7606W        W79866  34.013  35.404  11.931
 7607W        W79867  18.758  37.706   4.165
 7608W        W79868  32.144  22.765   0.285
 7609W        W79869  26.113   9.419  11.742
 7610W        W79870   8.179   4.191   0.937
 7611W        W79871  25.620  21.311   4.074
 7612W        W79872  36.491  18.266  10.572
 7613W        W79873  41.832   2.409   4.779
 7614W        W79874  29.903  32.651  13.858
 7615W        W79875  17.584  18.286  14.349
 7616W        W79876  14.019  39.140   2.632
 7617W        W79877  32.616  40.488   0.194
 7618W        W79878  43.414   3.855   3.737
 7619W        W79879  29.633  30.859   2.283
 7620W        W79880  43.100  24.037  12.154
 7621W        W79881  25.813  10.191   0.786
 7622W        W79882  31.300   7.435   4.238
 7623W        W79883   6.851  34.158  14.831
 7624W        W79884  43.923   5.337   0.975
 7625W        W79885  22.164  40.777  13.261
 7626W        W79886   0.308  35.018  13.033
 7627W        W79887   6.151  30.704   4.100
 7628W        W79888  29.165  19.802   1.317
 7629W        W79889  30.122   7.110  14.813
 7630W        W79890  19.310  19.204   2.624
 7631W        W79891  18.571  19.717  13.471
 7632W        W79892  15.521  38.991  11.967
 7633W        W79893  26.956  30.923   2.690
 7634W        W79894  31.175  25.671  13.403
 7635W        W79895  44.445  41.094   0.256
 7636W        W79896  22.087   3.809  11.726
 7637W        W79897  38.749   6.493  10.556
 7638W        W79898  12.554  12.204   3.783
 7639W        W79899  19.034  19.450  13.445
 7640W        W79900  43.696  44.992   0.471
 7641W        W79901  41.527  40.136  10.433
 7642W        W79902  16.242   7.278   2.442
 7643W        W79903  13.879  27.712   5.523
 7644W        W79904  35.099  30.425   9.921
 7645W        W79905  12.262  12.088  12.939
 7646W        W79906  19.566  16.031   0.276
 7647W        W79907  21.387  33.550  12.195
 7648W        W79908  14.540   0.469   0.693
 7649W        W79909  34.862  38.982  14.038
 7650W        W79910  22.585   6.689  12.469
 7651W        W79911  25.429  44.275   0.309
 7652W        W79912  13.093  44.241   0.379
 7653W        W79913   7.757  36.000  10.191
 7654W        W79914   1.684  26.692   0.343
 7655W        W79915  23.292   5.990   1.831
 7656W        W79916  31.388  29.047   0.937
 7657W        W79917  16.534  10.133   2.652
 7658W        W79918  20.450  30.043  13.049
 7659W        W79919  31.478   0.939   4.268
 7660W        W79920  16.614   2.771   1.791
 7661W        W79921  11.736  39.874   4.402
 7662W        W79922   7.733  17.385   3.804
 7663W        W79923  38.581   2.495   0.786
 7664W        W79924  32.496  40.216  12.570
 7665W        W79925  41.756  16.421   3.221
 7666W        W79926  26.209  25.955   3.228
 7667W        W79927  11.385   5.093   1.895
 7668W        W79928  33.503   4.983   2.247
 7669W        W79929   4.867  42.793  13.565
 7670W        W79930  33.733  20.102  12.324
 7671W        W79931  34.554  34.933   3.918
 7672W        W79932  41.245  41.313   2.385
 7673W        W79933  43.911  18.243   1.303
 7674W        W79934   6.135   6.749  12.999
 7675W        W79935  38.046  44.479   2.729
 7676W        W79936  12.698  42.968   4.266
 7677W        W79937  32.815  41.764  11.927
 7678W        W79938  13.267  40.653   1.432
 7679W        W79939  44.760  20.570   2.171
 7680W        W79940   3.648  42.305   1.819
 7681W        W79941  35.236  24.261  13.330
 7682W        W79942  36.041  18.361  10.842
 7683W        W79943   7.621  10.588  14.922
 7684W        W79944   3.719  43.402   0.987
 7685W        W79945  29.165  32.091   1.251
 7686W        W79946  25.261  19.039  11.312
 7687W        W79947  21.999  13.263  14.532
 7688W        W79948  40.473  21.259   1.660
 7689W        W79949  34.895  24.262  14.861
 7690W        W79950  15.337   4.924   3.251
 7691W        W79951  18.799   9.609   3.216
 7692W        W79952  25.454  18.331   1.642
 7693W        W79953   6.659  36.619   2.745
 7694W        W79954  16.326  41.200  14.451
 7695W        W79955  20.039  13.126   5.006
 7696W        W79956   0.773  37.106   2.745
 7697W        W79957   0.753  20.108   2.814
 7698W        W79958   8.758   7.917   4.917
 7699W        W79959  42.001  43.948  12.113
 7700W        W79960  28.064  36.474   9.880
 7701W        W79961  34.104  44.374   1.075
 7702W        W79962  19.175  42.042   1.308
 7703W        W79963  21.273  33.622   3.269
 7704W        W79964  18.255  10.315  10.390
 7705W        W79965  35.452   3.697   4.195
 7706W        W79966   4.042   4.785  14.344
 7707W        W79967  18.191  19.758   3.393
 7708W        W79968   4.712  21.981   2.370
 7709W        W79969   4.765  38.197   3.191
 7710W        W79970  44.456  32.609  10.637
 7711W        W79971  27.557  41.040  10.645
 7712W        W79972  26.493   3.942   1.769
 7713W        W79973  36.512  24.192   1.824
 7714W        W79974  42.890  23.462  14.363
 7715W        W79975  32.624  12.809  13.069
 7716W        W79976  44.143  29.626  11.928
 7717W        W79977  39.883   3.482  10.939
 7718W        W79978  29.904  16.807   4.395
 7719W        W79979  37.389  22.384   2.477
 7720W        W79980   3.532  23.973  11.772
 7721W        W79981  10.876   6.482   3.708
 7722W        W79982  37.023   8.391  11.592
 7723W        W79983   5.863  15.617  14.474
 7724W        W79984  26.776  14.913  12.649
 7725W        W79985  16.201   8.592   0.645
 7726W        W79986   7.894  38.255  12.922
 7727W        W79987   6.797  23.713   2.289
 7728W        W79988  13.826  11.715   1.272
 7729W        W79989  17.777  14.942   3.055
 7730W        W79990  43.531  11.670   1.324
 7731W        W79991  38.816  40.313  12.946
 7732W        W79992  34.558   6.583   4.116
 7733W        W79993  21.269  12.813   4.580
 7734W        W79994  17.843   8.306   2.917
 7735W        W79995  26.090  14.191  12.460
 7736W        W79996  21.714  35.781  11.474
 7737W        W79997  43.231  40.869   3.498
 7738W        W79998   2.302  28.635  12.427
 7739W        W79999  42.945  33.375   4.805
 7740W        W80000  28.210  40.314  10.210
 7741W        W80001   9.403  18.346   3.345
 7742W        W80002   6.919   7.247  13.366
 7743W        W80003  30.521  14.644  10.704
 7744W        W80004  43.892  31.153  13.804
 7745W        W80005  39.864   4.226   1.318
 7746W        W80006  31.360  33.992  12.455
 7747W        W80007   4.807  41.434  11.509
 7748W        W80008  20.591  29.090   2.189
 7749W        W80009  19.524  33.853  13.136
 7750W        W80010  44.328  10.125  12.170
 7751W        W80011  43.870   7.128  14.911
 7752W        W80012   9.928  34.895   0.285
 7753W        W80013  27.572  37.826   0.049
 7754W        W80014  36.036  13.183  10.531
 7755W        W80015  21.727  41.562  14.558
 7756W        W80016  21.057  21.392  10.316
 7757W        W80017  12.266  16.563  11.365
 7758W        W80018   3.438  15.556  11.910
 7759W        W80019   3.392  20.516   3.143
 7760W        W80020   7.197  14.198   1.687
 7761W        W80021  24.514   1.353  13.366
 7762W        W80022  23.301   3.844   0.318
 7763W        W80023  31.632  27.355  13.030
 7764W        W80024  11.220  33.087  11.530
 7765W        W80025  41.384   8.254  14.366
 7766W        W80026   0.195  25.975  11.125
 7767W        W80027  40.387  44.585   0.447
 7768W        W80028   3.691  22.096  11.457
 7769W        W80029  35.929  10.248  11.528
 7770W        W80030  35.608  44.300   0.398
 7771W        W80031  40.482   1.996   4.203
 7772W        W80032   2.277  10.863   1.390
 7773W        W80033  43.450  38.116  14.324
 7774W        W80034  24.728   4.517  11.171
 7775W        W80035  31.117  17.512   1.100
 7776W        W80036  22.956  32.409  11.672
 7777W        W80037  40.297  20.694  14.847
 7778W        W80038  28.429   0.286   4.438
 7779W        W80039  32.412  43.462  12.293
 7780W        W80040  42.044  26.184   2.780
 7781W        W80041   8.327  27.119  11.642
 7782W        W80042  18.210  39.637  13.839
 7783W        W80043   7.419   1.474   1.400
 7784W        W80044  17.489  17.318   1.852
 7785W        W80045  22.741  18.537   4.148
 7786W        W80046  39.527   0.316   1.102
 7787W        W80047   6.513  21.639  14.184
 7788W        W80048   7.222   5.903   1.483
 7789W        W80049  32.584  19.994   4.287
 7790W        W80050  15.354  17.780   2.668
 7791W        W80051  16.785   9.148  13.430
 7792W        W80052  42.759   2.482  14.830
 7793W        W80053  39.050   0.758   1.708
 7794W        W80054  22.120  34.123   1.181
 7795W        W80055  22.194  32.233   1.361
 7796W        W80056   7.213  16.819  13.402
 7797W        W80057  20.971  26.627   0.928
 7798W        W80058  13.695  35.511   2.701
 7799W        W80059  17.782  16.587   0.754
 7800W        W80060  31.706  37.388   3.372
 7801W        W80061   0.510  11.898   1.486
 7802W        W80062  16.284  29.647   1.778
 7803W        W80063  11.870   8.891   0.912
 7804W        W80064  39.926  22.234   3.356
 7805W        W80065  21.397  44.470   2.262
 7806W        W80066  31.357  27.721   0.387
 7807W        W80067  24.788   1.755   2.529
 7808W        W80068  21.927  27.320   1.816
 7809W        W80069   8.802  18.025  12.552
 7810W        W80070  30.617   5.200   4.686
 7811W        W80071  38.784  18.163  11.656
 7812W        W80072   7.828  20.847  11.002
 7813W        W80073  20.686   3.272   3.421
 7814W        W80074   4.633  44.354   1.328
 7815W        W80075   8.381   6.344   3.650
 7816W        W80076  15.666  20.259   2.333
 7817W        W80077  42.698  18.270   3.569
 7818W        W80078   7.731  31.471   4.338
 7819W        W80079   9.185  14.336   0.467
 7820W        W80080  33.173  37.426  12.624
 7821W        W80081  26.834  13.199   0.402
 7822W        W80082   8.710  28.484   3.452
 7823W        W80083   1.044   9.645  11.484
 7824W        W80084  16.581  22.280  14.953
 7825W        W80085  41.513  40.111  10.937
 7826W        W80086  25.812  30.507  13.855
 7827W        W80087  34.823  29.687  11.117
 7828W        W80088   2.372   0.449   2.023
 7829W        W80089  38.835  25.040   0.428
 7830W        W80090  20.903  24.239   1.191
 7831W        W80091  14.165  42.436  10.382
 7832W        W80092  34.441   3.823   4.045
 7833W        W80093  25.232  14.634   1.009
 7834W        W80094  11.731  40.554   1.874
 7835W        W80095  36.554  19.796   1.193
 7836W        W80096   9.898  28.628   3.626
 7837W        W80097   5.300  20.418  12.825
 7838W        W80098  26.989  43.260   2.532
 7839W        W80099  39.414   0.819  12.081
 7840W        W80100  31.456  37.928  14.468
 7841W        W80101  24.245   1.321   0.915
 7842W        W80102  17.132   6.118   5.766
 7843W        W80103  25.371  37.330   1.048
 7844W        W80104  42.923  21.250  12.339
 7845W        W80105  32.515   1.640  12.107
 7846W        W80106  32.905   4.953   3.299
 7847W        W80107  15.265   3.207   1.083
 7848W        W80108  41.957  38.541   3.853
 7849W        W80109  37.167   2.793   2.027
 7850W        W80110  42.210   6.367   4.443
 7851W        W80111  38.789  30.293  11.583
 7852W        W80112  33.076  16.060  11.126
 7853W        W80113  10.433   8.205  13.345
 7854W        W80114  42.800  34.909   3.170
 7855W        W80115  42.813  17.479  13.558
 7856W        W80116   5.706  32.642  13.442
 7857W        W80117  28.096  17.633   3.235
 7858W        W80118  30.364  16.667   3.383
 7859W        W80119   4.858  18.101   4.069
 7860W        W80120  26.024  28.124   3.727
 7861W        W80121  26.075  23.562   2.281
 7862W        W80122  33.939  11.058   1.724
 7863W        W80123  11.647  13.816  13.276
 7864W        W80124   6.157  24.504  11.563
 7865W        W80125  28.584   3.507   4.662
 7866W        W80126  18.570  35.454   3.703
 7867W        W80127  14.327  26.082  11.345
 7868W        W80128  30.061  32.078  12.902
 7869W        W80129  44.314  25.489   3.701
 7870W        W80130   3.940  42.200   2.230
 7871W        W80131  22.313  22.238  10.945
 7872W        W80132   6.360  24.499   1.433
 7873W        W80133  15.250   0.287   3.660
 7874W        W80134  18.376   7.417   4.643
 7875W        W80135  21.947   1.249   3.202
 7876W        W80136  16.345  14.586  13.471
 7877W        W80137  15.040   3.733   2.434
 7878W        W80138  28.970   1.568  14.221
 7879W        W80139  43.174  44.015   0.932
 7880W        W80140  13.264  44.397   2.338
 7881W        W80141  14.316  21.502  12.292
 7882W        W80142  16.308  42.973  14.250
 7883W        W80143  36.057  21.057  13.969
 7884W        W80144  16.321  21.264  12.344
 7885W        W80145  21.600  40.400   4.695
 7886W        W80146   5.526  16.547   3.811
 7887W        W80147  22.040  14.864  14.471
 7888W        W80148  37.969  34.376  12.014
 7889W        W80149   6.758  13.649  11.155
 7890W        W80150  15.925  28.176  12.393
 7891W        W80151  31.871  37.159   1.296
 7892W        W80152  27.765  23.979   3.777
 7893W        W80153  35.897   2.316  14.864
 7894W        W80154  15.725  17.032  10.131
 7895W        W80155  33.463  41.842  14.889
 7896W        W80156  13.252  32.483   1.790
 7897W        W80157   0.774  38.330   3.245
 7898W        W80158  34.926  18.788   2.165
 7899W        W80159   0.942  18.164   1.683
 7900W        W80160   0.404  13.448  11.596
 7901W        W80161  36.986  10.145  10.171
 7902W        W80162  42.850  18.737   0.461
 7903W        W80163  26.547  18.768  11.688
 7904W        W80164   3.339  36.674  14.193
 7905W        W80165  16.870  25.232  14.909
 7906W        W80166  30.817  27.583  14.276
 7907W        W80167  41.932   3.897  11.445
 7908W        W80168  43.949  13.703  14.549
 7909W        W80169  12.198  29.899  10.466
 7910W        W80170  37.459  23.430  13.538
 7911W        W80171  16.827  42.597   2.196
 7912W        W80172  40.833  42.237   4.465
 7913W        W80173  35.667  36.614   0.141
 7914W        W80174   7.795  24.467   3.585
 7915W        W80175  38.585   3.249  11.550
 7916W        W80176   5.970   4.733   5.083
 7917W        W80177  28.928  29.844  13.018
 7918W        W80178  30.527  20.952  12.435
 7919W        W80179  17.725   0.865  14.318
 7920W        W80180   8.853   2.723   4.027
 7921W        W80181  44.073  16.738  10.647
 7922W        W80182  15.635  34.439  10.659
 7923W        W80183  10.057  12.895  14.903
 7924W        W80184   4.698   2.744   3.887
 7925W        W80185  10.680  35.121   1.776
 7926W        W80186  19.793  13.797  13.070
 7927W        W80187  26.800  20.627   2.843
 7928W        W80188  10.672  37.791  12.187
 7929W        W80189   3.122  31.479  13.086
 7930W        W80190  22.939  10.259  13.985
 7931W        W80191  20.061  32.137  10.986
 7932W        W80192  11.537  29.519  13.848
 7933W        W80193  23.945   1.175   2.209
 7934W        W80194  11.621   9.547  10.758
 7935W        W80195  39.735  39.960  12.909
 7936W        W80196  10.450   7.887  12.098
 7937W        W80197   9.174   7.054  13.308
 7938W        W80198  17.195  23.943  12.950
 7939W        W80199  23.386  31.770  12.395
 7940W        W80200  37.521  21.639  13.891
 7941W        W80201  30.764  27.075   1.074
 7942W        W80202  19.885  22.272  10.448
 7943W        W80203  32.148  22.660   2.146
 7944W        W80204  40.238   9.865  14.697
 7945W        W80205  25.881  32.516  13.100
 7946W        W80206  20.006   8.037   4.153
 7947W        W80207  23.734  28.448   0.840
 7948W        W80208  29.886  28.137   2.290
 7949W        W80209  21.170  13.973   3.759
 7950W        W80210  36.023  11.375   3.666
 7951W        W80211  34.824   5.120  14.198
 7952W        W80212  24.536  26.407   4.112
 7953W        W80213  10.952  44.680  10.755
 7954W        W80214  32.865  23.806   4.841
 7955W        W80215  23.658  42.602  11.584
 7956W        W80216   7.236  21.247   3.851
 7957W        W80217  31.164  37.594  11.233
 7958W        W80218  16.366  37.939  11.181
 7959W        W80219  42.834  26.110   3.250
 7960W        W80220  37.083  15.291   4.603
 7961W        W80221   1.248  25.012  10.763
 7962W        W80222  11.491  38.775  13.492
 7963W        W80223  44.745  40.701   3.615
 7964W        W80224  38.095  42.479   2.141
 7965W        W80225  23.397  14.660  14.599
 7966W        W80226  19.718  31.944   4.377
 7967W        W80227  20.955  37.964   5.067
 7968W        W80228  20.470  34.395   0.065
 7969W        W80229   0.968  22.008  14.599
 7970W        W80230  36.655  17.260  12.067
 7971W        W80231  18.240  25.536   2.875
 7972W        W80232   9.069  44.462  13.118
 7973W        W80233  31.683  31.955   2.913
 7974W        W80234  32.844   6.765  10.992
 7975W        W80235  22.257  27.166  11.172
 7976W        W80236   4.412  23.777  13.963
 7977W        W80237   7.453  24.060   2.175
 7978W        W80238  35.731  40.933  14.400
 7979W        W80239  44.177  17.277   1.393
 7980W        W80240  37.423   7.463  14.435
 7981W        W80241  11.230   4.711   1.500
 7982W        W80242  43.554  36.472   2.917
 7983W        W80243  18.505   6.548   4.323
 7984W        W80244   0.365  36.806  11.647
 7985W        W80245  41.075  35.441  11.014
 7986W        W80246  37.329  19.204   3.213
 7987W        W80247   8.192  28.129   3.318
 7988W        W80248  19.838  28.554  13.189
 7989W        W80249   1.281  44.039  12.205
 7990W        W80250  18.671  27.894  13.055
 7991W        W80251  20.816   4.851  12.047
 7992W        W80252  11.117  43.486   3.258
 7993W        W80253  20.514  39.803  12.509
 7994W        W80254   5.535  32.396   2.885
 7995W        W80255  32.649  42.913  13.122
 7996W        W80256  36.855   9.732   5.089
 7997W        W80257  15.697  35.043   3.422
 7998W        W80258  39.382  41.965  12.869
 7999W        W80259  19.329   5.723   1.243
 8000W        W80260  28.254   3.497   2.134
 8001W        W80261   5.988  43.093   3.478
 8002W        W80262  12.223   2.084   3.551
 8003W        W80263   5.651  41.838   0.214
 8004W        W80264  41.170   1.408   2.342
 8005W        W80265  25.073  20.571   4.220
 8006W        W80266  26.577  28.928   0.086
 8007W        W80267  31.329   5.168  13.991
 8008W        W80268   0.950  41.695  12.016
 8009W        W80269  40.339  19.732  13.893
 8010W        W80270   3.898  27.658   0.946
 8011W        W80271   5.221  17.610   2.114
 8012W        W80272  39.857  16.835  13.938
 8013W        W80273  21.661  24.304   4.180
 8014W        W80274   5.051  22.130  11.249
 8015W        W80275  33.797   4.343   1.293
 8016W        W80276   5.037  11.145   3.410
 8017W        W80277  22.825  13.385   3.158
 8018W        W80278  14.692  18.797   5.351
 8019W        W80279   2.279  36.607   3.686
 8020W        W80280  15.929  26.559   1.911
 8021W        W80281  24.580  12.341  11.337
 8022W        W80282  16.621  15.372  13.093
 8023W        W80283  37.557  26.226   1.265
 8024W        W80284  44.295  23.538  12.913
 8025W        W80285  44.707  25.863   3.781
 8026W        W80286  14.212  14.436  14.976
 8027W        W80287  13.642   3.669   1.935
 8028W        W80288  35.445  17.794   5.509
 8029W        W80289  28.076  12.279   2.315
 8030W        W80290  11.465  19.017   0.941
 8031W        W80291  15.866  18.310   1.395
 8032W        W80292   8.668  20.669  10.430
 8033W        W80293  23.161  20.778   3.688
 8034W        W80294   6.783  28.726   2.699
 8035W        W80295  14.581  17.337  14.297
 8036W        W80296  19.074  15.080   1.818
 8037W        W80297  39.208  27.760  12.875
 8038W        W80298  37.555  20.673  14.433
 8039W        W80299  37.347  29.352   3.657
 8040W        W80300  16.798   0.005  11.627
 8041W        W80301  32.699  16.408  11.443
 8042W        W80302  12.251  36.585  12.048
 8043W        W80303  42.313   2.497  14.325
 8044W        W80304  16.308  18.048   3.644
 8045W        W80305  24.478   1.188   2.273
 8046W        W80306  25.952  14.731   2.318
 8047W        W80307  12.324  28.163   4.606
 8048W        W80308  10.028  36.370   2.730
 8049W        W80309  40.265  25.280  14.994
 8050W        W80310  35.828  28.633  12.488
 8051W        W80311  42.034  36.918   3.129
 8052W        W80312  42.631  39.965  13.341
 8053W        W80313  31.507  21.158   2.752
 8054W        W80314  30.421  39.804   4.102
 8055W        W80315  23.924  43.030  14.446
 8056W        W80316  18.134   5.171  12.780
 8057W        W80317  21.445  21.747  10.214
 8058W        W80318  16.075   5.408   2.238
 8059W        W80319  33.863  10.675   3.715
 8060W        W80320  42.798  41.449  14.908
 8061W        W80321  38.975  12.784  13.053
 8062W        W80322  21.643  23.118  12.158
 8063W        W80323  11.191   8.913  13.467
 8064W        W80324  18.044   2.499  10.591
 8065W        W80325  12.710  33.544   3.642
 8066W        W80326  30.351  15.256   2.928
 8067W        W80327  28.142  42.596  11.385
 8068W        W80328  38.366   4.523   0.724
 8069W        W80329  27.681  24.126   0.481
 8070W        W80330  44.829  28.559  12.710
 8071W        W80331   9.462  42.856   0.294
 8072W        W80332  22.462  13.888  12.839
 8073W        W80333  33.245  15.334   0.234
 8074W        W80334   9.341   1.462   0.293
 8075W        W80335   6.767  44.850  10.673
 8076W        W80336  14.124  28.256  12.729
 8077W        W80337  42.026  37.801   1.379
 8078W        W80338  40.907  24.542  13.645
 8079W        W80339  43.900  10.973  11.183
 8080W        W80340  41.656   1.294   4.295
 8081W        W80341  18.103  29.488   1.131
 8082W        W80342  14.581  30.792   4.616
 8083W        W80343  15.312  13.999  10.988
 8084W        W80344  42.920  37.287  11.593
 8085W        W80345  34.595   6.310   0.603
 8086W        W80346  13.224  13.794  11.105
 8087W        W80347   4.817  17.059   1.869
 8088W        W80348  33.388  44.589  14.204
 8089W        W80349  19.312   3.795   3.689
 8090W        W80350  27.019  42.074   3.814
 8091W        W80351  44.313  14.739   1.667
 8092W        W80352  34.489  20.628   4.225
 8093W        W80353   3.187  41.522   3.773
 8094W        W80354  21.006  27.359   0.183
 8095W        W80355  10.101   1.358   3.342
 8096W        W80356  16.205  37.333  12.464
 8097W        W80357  41.950  35.780  12.300
 8098W        W80358  44.699  35.972   4.105
 8099W        W80359  44.653  19.707   3.278
 8100W        W80360   8.349  43.694   3.575
 8101W        W80361  42.309  19.084   4.131
 8102W        W80362  38.830  21.255   4.523
 8103W        W80363  23.679  28.650  12.855
 8104W        W80364  19.591   4.875  10.697
 8105W        W80365   3.031   6.263  13.104
 8106W        W80366   7.144  32.617   1.472
 8107W        W80367  25.230  42.002   3.099
 8108W        W80368  31.811  22.522   0.870
 8109W        W80369  12.595  29.033  14.334
 8110W        W80370  21.007  18.796  13.355
 8111W        W80371   4.698  38.807   1.213
 8112W        W80372  28.592  10.280  11.525
 8113W        W80373  37.403   8.290   3.185
 8114W        W80374  14.238  30.101   3.697
 8115W        W80375  37.580  25.045   1.461
 8116W        W80376   8.104  11.889  12.920
 8117W        W80377  33.500  11.312   3.134
 8118W        W80378  12.252  18.285   0.766
 8119W        W80379  13.607  39.099   1.444
 8120W        W80380  36.935  44.069   0.756
 8121W        W80381  24.402  36.967   2.225
 8122W        W80382   3.172  38.714  11.821
 8123W        W80383  32.618  10.713  13.885
 8124W        W80384  10.083  40.502   0.659
 8125W        W80385   7.777   8.684  11.913
 8126W        W80386  28.051  27.831  12.497
 8127W        W80387  20.601  15.798   0.217
 8128W        W80388   9.240   3.446   1.311
 8129W        W80389  28.480  20.595  11.511
 8130W        W80390  33.343  16.036   1.882
 8131W        W80391  27.942  42.317   4.088
 8132W        W80392  21.615   7.356   4.210
 8133W        W80393   4.637  20.165   0.759
 8134W        W80394  29.446  37.717   4.482
 8135W        W80395  42.851  16.821   4.289
 8136W        W80396   9.080  39.128  10.593
 8137W        W80397  30.951  33.350   0.824
 8138W        W80398  24.867  38.003   0.173
 8139W        W80399  43.810   7.409  13.539
 8140W        W80400   6.865  36.590  13.347
 8141W        W80401   4.397  36.762   1.826
 8142W        W80402   8.409  17.096  14.615
 8143W        W80403  32.853  17.343   3.712
 8144W        W80404   5.222  18.180  12.584
 8145W        W80405  13.761   9.215   3.234
 8146W        W80406  34.986   4.274  11.750
 8147W        W80407   2.515  21.900   3.853
 8148W        W80408   3.852  32.509  12.528
 8149W        W80409  43.278  33.065   2.666
 8150W        W80410  22.204   0.197   3.917
 8151W        W80411  14.378   9.663   2.808
 8152W        W80412  19.675  33.359   2.338
 8153W        W80413  41.312  18.081   2.081
 8154W        W80414  23.444  13.086  11.716
 8155W        W80415  17.431  40.201   9.830
 8156W        W80416  15.778  28.287   3.929
 8157W        W80417  41.818  32.386   1.954
 8158W        W80418  34.448  29.355   0.744
 8159W        W80419   2.780   8.631  14.757
 8160W        W80420  22.571  43.325   1.280
 8161W        W80421  29.154  31.159   0.019
 8162W        W80422  18.219  40.511   0.871
 8163W        W80423  29.200  37.158   2.107
 8164W        W80424  37.854  38.983   3.101
 8165W        W80425  34.365  15.791  13.925
 8166W        W80426  36.078  29.607  10.775
 8167W        W80427  22.170  37.103   3.653
 8168W        W80428  15.667   1.867   2.371
 8169W        W80429  31.708  18.340  12.002
 8170W        W80430  14.265  19.744  14.781
 8171W        W80431   7.404   8.644   4.530
 8172W        W80432  12.230   2.697   0.954
 8173W        W80433  26.539  36.915   4.683
 8174W        W80434  18.132  17.252  13.983
 8175W        W80435  24.506  42.568  11.888
 8176W        W80436  41.698  30.382   4.950
 8177W        W80437  35.868   1.505   3.299
 8178W        W80438  33.038  40.455  11.420
 8179W        W80439  42.954  43.996  12.375
 8180W        W80440  33.535  43.757  14.835
 8181W        W80441  31.994  10.803  12.142
 8182W        W80442  25.340  10.929   2.210
 8183W        W80443  27.491  10.100   0.294
 8184W        W80444  38.027  35.795  13.818
 8185W        W80445  22.302  26.133   3.337
 8186W        W80446   1.141  39.864  14.479
 8187W        W80447  42.370  28.567  11.518
 8188W        W80448  13.603  33.046   4.411
 8189W        W80449  13.926  14.636  11.875
 8190W        W80450  43.556   7.827   0.613
 8191W        W80451   0.847  11.491   4.123
 8192W        W80452  16.985  12.823   0.765
 8193W        W80453  13.791  13.028  12.929
 8194W        W80454  35.609  33.019   3.204
 8195W        W80455  10.678  42.566   4.629
 8196W        W80456  38.497  17.616  14.399
 8197W        W80457   6.911  29.589   2.773
 8198W        W80458   7.787   2.131  10.494
 8199W        W80459  19.302  30.062   0.677
 8200W        W80460  23.250  39.385   1.401
 8201W        W80461  23.982  31.226  13.056
 8202W        W80462  32.261  35.522   0.827
 8203W        W80463  24.208   4.863  15.000
 8204W        W80464   7.592  31.661   5.004
 8205W        W80465   2.245  23.095   2.767
 8206W        W80466  19.039  41.548  12.987
 8207W        W80467  37.407  34.941  10.830
 8208W        W80468  39.527  21.762   4.174
 8209W        W80469  41.514  16.896  13.387
 8210W        W80470   8.489  28.084  11.698
 8211W        W80471   7.321  28.535   3.220
 8212W        W80472  11.364  18.609   2.663
 8213W        W80473   4.617  11.872  10.791
 8214W        W80474  21.805  33.541   0.936
 8215W        W80475  30.746  12.850  11.209
 8216W        W80476  35.970  22.952   0.469
 8217W        W80477  44.440  42.799  14.711
 8218W        W80478  17.074  36.425  14.344
 8219W        W80479  43.850   6.618  14.909
 8220W        W80480   8.601   9.874  14.763
 8221W        W80481  21.605  32.964   3.936
 8222W        W80482  42.532   3.341   5.114
 8223W        W80483   9.076  36.968   0.673
 8224W        W80484  29.856   6.432   4.716
 8225W        W80485  15.711  17.361   5.481
 8226W        W80486  20.257  44.603  11.116
 8227W        W80487  19.861   1.521   0.809
 8228W        W80488  35.141  23.094   4.921
 8229W        W80489  35.332  36.443  13.419
 8230W        W80490   0.373  27.634   2.821
 8231W        W80491   8.706  16.287   2.331
 8232W        W80492  11.806  36.313  12.028
 8233W        W80493  12.703  26.608   4.054
 8234W        W80494  31.136   8.138  13.709
 8235W        W80495  41.733  14.099  10.045
 8236W        W80496  27.871  40.567  12.856
 8237W        W80497  30.524  19.604  14.929
 8238W        W80498  12.272  13.514   1.166
 8239W        W80499  40.926  13.534   0.871
 8240W        W80500  15.748   4.209   0.414
 8241W        W80501  11.178  12.807   1.278
 8242W        W80502  38.587   9.095   3.803
 8243W        W80503  31.460  12.552  11.497
 8244W        W80504  31.185  21.810  13.938
 8245W        W80505   5.722  11.809  10.714
 8246W        W80506  14.074  39.104   1.653
 8247W        W80507  37.250  36.846  13.996
 8248W        W80508  13.292   3.211   4.590
 8249W        W80509  10.803  11.304  13.374
 8250W        W80510  28.760   1.224  13.168
 8251W        W80511   2.955  18.688   1.891
 8252W        W80512  15.554  25.950  13.282
 8253W        W80513  25.145   7.459   1.038
 8254W        W80514  38.808  37.811  10.738
 8255W        W80515  12.196   8.476   1.514
 8256W        W80516  40.430  36.546   1.856
 8257W        W80517  33.378  23.706   4.898
 8258W        W80518   6.259  40.410   1.839
 8259W        W80519  39.002  25.487  11.204
 8260W        W80520  24.597  24.290   4.815
 8261W        W80521   4.321  37.908   3.224
 8262W        W80522  29.657  37.223   1.840
 8263W        W80523  38.417  37.904   4.588
 8264W        W80524   4.787   1.973  11.019
 8265W        W80525  15.822   7.226   0.979
 8266W        W80526  28.711  39.566   4.440
 8267W        W80527  33.377  36.098  11.360
 8268W        W80528  40.024  20.837  14.423
 8269W        W80529  43.876  24.499  12.054
 8270W        W80530  15.829   3.706   0.401
 8271W        W80531  37.465  39.296  10.670
 8272W        W80532  32.473  16.836  14.389
 8273W        W80533  18.398   8.637  11.103
 8274W        W80534  34.500   5.309   4.255
 8275W        W80535  13.249  23.804   2.682
 8276W        W80536  32.373  27.306   4.194
 8277W        W80537  42.977  33.016   3.455
 8278W        W80538   5.918  34.421   0.834
 8279W        W80539   6.892  27.636  13.798
 8280W        W80540  40.366  38.694   3.642
 8281W        W80541   4.716  20.242   4.198
 8282W        W80542  39.822  16.554   3.175
 8283W        W80543  10.112  22.758   1.689
 8284W        W80544  30.342  14.142  11.570
 8285W        W80545  19.626  10.184   1.684
 8286W        W80546   2.481  10.109   3.262
 8287W        W80547  30.015  34.132   4.518
 8288W        W80548  42.839  13.141   3.386
 8289W        W80549  13.674  33.840   0.499
 8290W        W80550  38.658  13.305  13.808
 8291W        W80551  14.616   9.355  13.982
 8292W        W80552  43.972  38.427   1.333
 8293W        W80553  41.450  10.274   3.643
 8294W        W80554  13.908  21.137   1.662
 8295W        W80555  25.692  26.106  14.727
 8296W        W80556  43.061  27.901   3.788
 8297W        W80557  42.294  11.700  12.197
 8298W        W80558  10.698   2.800  11.605
 8299W        W80559  44.042   0.970  11.375
 8300W        W80560  37.441  16.629   2.306
 8301W        W80561  42.277  35.291   2.312
 8302W        W80562  41.484  23.598   0.080
 8303W        W80563   5.986  38.500  10.488
 8304W        W80564   8.620  42.352   1.743
 8305W        W80565  28.944  18.121   3.581
 8306W        W80566  38.975  27.084   3.961
 8307W        W80567  28.513   1.073  11.937
 8308W        W80568   3.261  34.528  13.246
 8309W        W80569  42.448   5.848  14.575
 8310W        W80570  42.474  26.143  14.404
 8311W        W80571   6.021  18.477   4.702
 8312W        W80572  36.897  44.025   3.939
 8313W        W80573   6.182  22.198   3.668
 8314W        W80574  44.479  12.081  12.558
 8315W        W80575  23.705  15.687   1.420
 8316W        W80576  21.266  42.226  13.953
 8317W        W80577  22.316  31.717   0.040
 8318W        W80578   6.253  28.870  11.975
 8319W        W80579  35.083  25.294   3.182
 8320W        W80580  24.958  27.388  13.947
 8321W        W80581  21.565  25.517   1.310
 8322W        W80582  23.948  26.509  10.690
 8323W        W80583   5.305  18.544   2.208
 8324W        W80584  33.232   7.709   2.561
 8325W        W80585   1.937  14.343  12.028
 8326W        W80586  44.776  40.924  10.783
 8327W        W80587  36.910  17.373   0.846
 8328W        W80588  44.347   9.968   5.014
 8329W        W80589  21.687   7.522  10.679
 8330W        W80590  30.113   2.503   1.616
 8331W        W80591  21.182  23.984  11.086
 8332W        W80592  38.026  19.825   1.897
 8333W        W80593  38.833  24.312  10.886
 8334W        W80594  43.495  20.583  11.609
 8335W        W80595  39.755  28.893  11.261
 8336W        W80596  22.393  43.890  11.106
 8337W        W80597   6.193  35.978  10.110
 8338W        W80598  41.497   1.788   4.259
 8339W        W80599  10.242  19.997  11.057
 8340W        W80600  42.752  26.034   0.288
 8341W        W80601  17.164   6.158   5.256
 8342W        W80602  22.378  26.935  13.034
 8343W        W80603  19.238  30.505   0.435
 8344W        W80604  44.203  34.627  11.640
 8345W        W80605   0.257  36.457  12.618
 8346W        W80606  23.095  41.776   1.732
 8347W        W80607   6.920  40.942   1.406
 8348W        W80608  25.961  25.691   0.834
 8349W        W80609  14.816   3.740  13.451
 8350W        W80610  44.740  41.987   1.746
 8351W        W80611  24.106  34.582  13.380
 8352W        W80612   1.869  16.010  14.460
 8353W        W80613  38.053  31.477   1.069
 8354W        W80614  39.535   2.351  13.152
 8355W        W80615   8.690   1.937  14.762
 8356W        W80616   3.932  26.974   3.148
 8357W        W80617  34.444   0.917  10.531
 8358W        W80618  25.049  35.586   1.042
 8359W        W80619  29.138  15.330  11.528
 8360W        W80620  29.163  12.421  14.379
 8361W        W80621  33.448  20.742  13.438
 8362W        W80622  20.893   2.375   3.437
 8363W        W80623  22.728  11.141   4.686
 8364W        W80624  36.480   3.726   0.923
 8365W        W80625  13.718  29.584  10.013
 8366W        W80626  24.388  25.040   1.628
 8367W        W80627  27.202  14.173   0.275
 8368W        W80628  21.669   5.211  11.074
 8369W        W80629  30.592  20.575   4.616
 8370W        W80630  30.274  31.811  12.489
 8371W        W80631  21.096  11.608   3.605
 8372W        W80632  37.534  36.287  11.535
 8373W        W80633  25.733  20.017   0.763
 8374W        W80634  13.602   8.211  11.177
 8375W        W80635  18.649  15.741   4.844
 8376W        W80636  24.235   3.357  10.815
 8377W        W80637  43.098  41.268  11.510
 8378W        W80638   3.373   2.704  12.325
 8379W        W80639  43.209  30.065  14.112
 8380W        W80640  26.578  26.989  13.944
 8381W        W80641  29.384  34.096   2.818
 8382W        W80642  29.186  36.995  12.428
 8383W        W80643  20.940  15.256  10.284
 8384W        W80644  29.386   5.198  14.366
 8385W        W80645  39.368   9.846   3.764
 8386W        W80646   4.435   0.250   4.276
 8387W        W80647  41.037   9.118  11.621
 8388W        W80648  23.157  36.809   3.723
 8389W        W80649   0.976  15.109   2.642
 8390W        W80650  20.294  44.264   4.144
 8391W        W80651  18.676  25.220   2.813
 8392W        W80652  43.914  39.406  13.561
 8393W        W80653   7.131  14.328  12.331
 8394W        W80654  17.089   2.312  14.507
 8395W        W80655   7.742   1.241   4.024
 8396W        W80656  25.472  10.262  10.654
 8397W        W80657  44.223   2.815   4.530
 8398W        W80658  27.030  40.555  11.466
 8399W        W80659  37.784  37.079  11.886
 8400W        W80660  40.132  24.075  14.830
 8401W        W80661  22.119  24.759  13.928
 8402W        W80662  17.967  25.535   4.329
 8403W        W80663  30.027   9.687  11.880
 8404W        W80664   8.278  27.837   1.399
 8405W        W80665  44.778  30.145   0.450
 8406W        W80666  28.480  11.862   4.863
 8407W        W80667  21.016  17.173  12.068
 8408W        W80668  38.015   3.194  14.859
 8409W        W80669  42.043  44.393   2.616
 8410W        W80670  30.690   5.923  14.447
 8411W        W80671  40.480   4.836   4.608
 8412W        W80672  38.412  24.258  13.840
 8413W        W80673  19.258  26.918   2.811
 8414W        W80674  31.015  39.977  14.885
 8415W        W80675  39.274   0.734   4.251
 8416W        W80676  28.893  20.351   2.329
 8417W        W80677   2.410  20.723   2.933
 8418W        W80678   8.433  38.333   0.315
 8419W        W80679  31.236  39.840   2.765
 8420W        W80680  20.632   2.868   2.639
 8421W        W80681   6.790  35.395  12.137
 8422W        W80682   7.405  11.319  12.456
 8423W        W80683   6.154  17.205   4.147
 8424W        W80684  36.090  39.292   2.823
 8425W        W80685  37.360  44.680   3.247
 8426W        W80686  31.818  27.913   1.645
 8427W        W80687   9.298  38.666  12.444
 8428W        W80688  28.964   5.956   1.943
 8429W        W80689  22.241  24.262  13.221
 8430W        W80690  41.992  41.631   2.606
 8431W        W80691  11.853   4.212   0.885
 8432W        W80692   1.419  10.685  10.420
 8433W        W80693  11.647  32.614  12.110
 8434W        W80694  34.338  14.190  13.455
 8435W        W80695   3.716  23.713   4.679
 8436W        W80696  18.220  17.378   1.062
 8437W        W80697  41.636  37.770   5.169
 8438W        W80698  12.620  32.704   3.675
 8439W        W80699   1.413  26.660  10.816
 8440W        W80700  28.964  17.508   3.954
 8441W        W80701   0.736  43.393   3.213
 8442W        W80702  18.101  15.929  12.544
 8443W        W80703  26.139  29.998  12.466
 8444W        W80704  19.125  14.870  10.661
 8445W        W80705   7.388  16.790  12.365
 8446W        W80706  34.656  40.856   3.730
 8447W        W80707  11.652  42.524  10.718
 8448W        W80708  32.602   9.118  11.204
 8449W        W80709  19.650  28.206  14.987
 8450W        W80710  35.005  39.877  13.157
 8451W        W80711   7.867  31.394   3.840
 8452W        W80712  31.967  40.039  13.792
 8453W        W80713  28.987  27.752  14.219
 8454W        W80714  20.425  30.867  11.911
 8455W        W80715   2.830  13.225   0.737
 8456W        W80716  18.927   9.868   2.801
 8457W        W80717  15.048  33.054  11.226
 8458W        W80718  20.137   1.904  12.118
 8459W        W80719   2.142   4.164   2.769
 8460W        W80720   0.404  18.207   2.471
 8461W        W80721  12.093  31.028  13.228
 8462W        W80722  18.654   9.978  12.920
 8463W        W80723   3.713  18.920  10.455
 8464W        W80724  14.345   5.744  13.025
 8465W        W80725  26.003  13.190  10.518
 8466W        W80726  27.202  28.064   4.718
 8467W        W80727   3.806  20.833   1.728
 8468W        W80728  44.971   6.004   0.775
 8469W        W80729  33.529  38.922  12.982
 8470W        W80730  19.121   3.675  12.900
 8471W        W80731   0.411   9.729  14.544
 8472W        W80732  11.796  19.713  11.587
 8473W        W80733  13.096  32.369   2.927
 8474W        W80734  34.436  29.372  11.693
 8475W        W80735  19.194  44.007   4.211
 8476W        W80736  12.194  26.787   1.872
 8477W        W80737  19.835  14.076   0.007
 8478W        W80738  17.282  26.105  11.658
 8479W        W80739  13.234   3.977  11.741
 8480W        W80740  15.212  41.237   1.350
 8481W        W80741   5.112  36.914   4.407
 8482W        W80742  15.713  13.290  10.659
 8483W        W80743  19.581  19.491  12.055
 8484W        W80744  32.329  20.217   3.606
 8485W        W80745  33.754  34.034   0.273
 8486W        W80746   8.720  23.190   2.826
 8487W        W80747  15.615  30.604  10.636
 8488W        W80748  26.487  15.269   1.769
 8489W        W80749   9.007  19.724   4.475
 8490W        W80750  29.229   0.286   1.375
 8491W        W80751  22.633  25.978  12.643
 8492W        W80752  17.807  14.255  13.056
 8493W        W80753   8.876  18.327   1.175
 8494W        W80754  17.226  14.764  10.896
 8495W        W80755  36.538  42.384   4.311
 8496W        W80756  21.825  12.705   1.175
 8497W        W80757  22.642  34.630   4.310
 8498W        W80758  28.011  17.272   0.011
 8499W        W80759  18.778  23.280   3.914
 8500W        W80760   9.151  42.311  10.616
 8501W        W80761   7.755  44.675   4.098
 8502W        W80762  25.657  16.565  11.153
 8503W        W80763  39.366  13.915  14.112
 8504W        W80764   9.038  29.003   5.058
 8505W        W80765  31.889  16.267   1.177
 8506W        W80766  24.625  19.438  14.255
 8507W        W80767  26.485  40.475   2.874
 8508W        W80768  12.677  13.738  13.519
 8509W        W80769  18.040  32.007   3.857
 8510W        W80770  31.642   9.752  13.794
 8511W        W80771  21.746  13.947   2.440
 8512W        W80772  20.548  41.280  14.765
 8513W        W80773  17.011  44.908  13.974
 8514W        W80774  26.087  39.758  11.154
 8515W        W80775  18.807  19.037   0.706
 8516W        W80776  38.297  18.580  10.590
 8517W        W80777  27.428  34.300   4.329
 8518W        W80778  23.427  17.565  14.954
 8519W        W80779  29.727   4.846   3.715
 8520W        W80780  13.903  11.887   4.111
 8521W        W80781   8.409  19.300  14.537
 8522W        W80782   7.222  12.632  11.239
 8523W        W80783  29.642   1.028  11.552
 8524W        W80784  14.933  39.419   1.141
 8525W        W80785  23.064  44.087  10.521
 8526W        W80786  41.475  21.015   4.129
 8527W        W80787  30.614  36.794   1.992
 8528W        W80788  40.013  44.533   4.221
 8529W        W80789  21.590  20.520  14.086
 8530W        W80790  26.388  39.511   1.417
 8531W        W80791  13.512   3.492  14.317
 8532W        W80792  18.342  29.285   3.756
 8533W        W80793  35.400  31.667   3.895
 8534W        W80794  35.667  20.043   4.963
 8535W        W80795  33.961   1.563  12.058
 8536W        W80796  24.343  23.191   1.246
 8537W        W80797   9.997  16.273   3.713
 8538W        W80798  30.444  38.013  10.662
 8539W        W80799  37.311  43.969   2.596
 8540W        W80800  22.500  28.655  13.499
 8541W        W80801  11.255  32.593   0.235
 8542W        W80802  20.642  35.795  14.966
 8543W        W80803  33.394  43.025  10.260
 8544W        W80804   6.407  44.252   0.161
 8545W        W80805  26.530  35.140  11.956
 8546W        W80806  22.220  33.949   4.710
 8547W        W80807  13.754  31.733   2.176
 8548W        W80808  12.273  30.379  14.782
 8549W        W80809  25.056  42.968   5.152
 8550W        W80810  36.963  11.821  10.322
 8551W        W80811  19.749  20.312   0.431
 8552W        W80812  19.659  18.044  14.639
 8553W        W80813  11.805   6.129   0.832
 8554W        W80814  11.806   7.689   3.937
 8555W        W80815  32.895  26.575   4.168
 8556W        W80816  21.670   6.869  11.124
 8557W        W80817  25.463   9.252  12.596
 8558W        W80818  41.713  26.361  11.044
 8559W        W80819   1.155  27.609   1.464
 8560W        W80820   8.168  10.824   3.252
 8561W        W80821   9.876  36.868   2.706
 8562W        W80822  26.693  38.935  11.167
 8563W        W80823  24.012  36.985  10.674
 8564W        W80824  41.380  36.621   2.436
 8565W        W80825  19.456  32.040  11.548
 8566W        W80826  26.476  12.344  14.333
 8567W        W80827  24.420  23.469   1.758
 8568W        W80828  20.240  43.537   1.170
 8569W        W80829  17.314  37.920   3.739
 8570W        W80830  35.700   9.541   3.747
 8571W        W80831  26.999  34.634  12.309
 8572W        W80832  37.947  30.365   3.272
 8573W        W80833  14.065  18.149  13.395
 8574W        W80834   4.656   7.881   4.795
 8575W        W80835  30.532   1.852  12.367
 8576W        W80836  29.942  19.181  13.928
 8577W        W80837   5.478  36.555   4.523
 8578W        W80838  19.737   2.357   2.848
 8579W        W80839  24.652  27.970   9.968
 8580W        W80840  43.943  42.453   3.341
 8581W        W80841  16.968  29.453   0.395
 8582W        W80842  42.005  26.791   3.232
 8583W        W80843  25.330  25.077   1.359
 8584W        W80844  27.533  13.257   4.579
 8585W        W80845  41.041  37.051   2.186
 8586W        W80846  35.464  41.030  11.167
 8587W        W80847  44.972  15.142   2.677
 8588W        W80848  16.820  44.927   2.393
 8589W        W80849  23.698  21.585   3.394
 8590W        W80850   6.128   4.223  13.881
 8591W        W80851  15.380  36.110  12.938
 8592W        W80852   0.430  25.460  13.413
 8593W        W80853   1.826  38.928  11.587
 8594W        W80854   7.881  35.267   0.150
 8595W        W80855  38.387  20.055   0.361
 8596W        W80856  35.121  10.243   4.165
 8597W        W80857  42.005  19.566   2.404
 8598W        W80858  13.135  32.360  14.122
 8599W        W80859  35.860  28.057   3.135
 8600W        W80860   2.274  44.267  11.277
 8601W        W80861  22.589  24.831   1.794
 8602W        W80862  20.198  30.876  14.412
 8603W        W80863  14.763  27.819   9.632
 8604W        W80864  28.433   9.836  12.449
 8605W        W80865  18.019  41.000   1.659
 8606W        W80866   9.685  32.239   0.925
 8607W        W80867  32.399   6.757   3.803
 8608W        W80868  22.103  41.723  13.410
 8609W        W80869  26.980  22.467  12.980
 8610W        W80870  28.242  15.358  12.908
 8611W        W80871  25.531   0.746   0.859
 8612W        W80872  14.406  23.686   3.219
 8613W        W80873   1.994  10.176   4.070
 8614W        W80874   2.520  41.997   4.179
 8615W        W80875  19.957  32.016  12.398
 8616W        W80876  27.338  16.920  10.954
 8617W        W80877  32.022   5.443   0.766
 8618W        W80878  23.198  21.611   1.813
 8619W        W80879  32.871  34.513   3.641
 8620W        W80880  38.593   4.465   2.137
 8621W        W80881  28.745  31.939  13.915
 8622W        W80882  32.920  19.827   2.472
 8623W        W80883  43.745  32.664  14.120
 8624W        W80884  29.465  11.671   4.629
 8625W        W80885  16.621   7.489   3.698
 8626W        W80886   1.653  36.968   2.269
 8627W        W80887   3.519  37.931  14.099
 8628W        W80888  23.256  28.185  11.023
 8629W        W80889  35.196  36.482  12.064
 8630W        W80890  13.331  31.605  12.398
 8631W        W80891  25.253  39.979   2.204
 8632W        W80892  18.798  11.294   0.894
 8633W        W80893  25.381  21.759   1.826
 8634W        W80894  25.716  25.428   1.239
 8635W        W80895  37.175  28.225  13.492
 8636W        W80896   1.469  23.501  13.969
 8637W        W80897   9.263  28.595  12.151
 8638W        W80898  44.490  27.731  14.428
 8639W        W80899  43.988  28.230  11.025
 8640W        W80900  33.892  26.414  10.177
 8641W        W80901  18.549  12.604  10.758
 8642W        W80902  31.134   4.182   0.446
 8643W        W80903  37.538  42.416   1.102
 8644W        W80904   1.241  41.783  13.939
 8645W        W80905  17.789  28.630  12.052
 8646W        W80906  14.073   3.857  11.902
 8647W        W80907   3.877  39.983   1.264
 8648W        W80908  30.136  10.008  10.570
 8649W        W80909  21.687  31.537  13.502
 8650W        W80910  17.684  10.699  12.489
 8651W        W80911  39.092  18.175  13.910
 8652W        W80912  20.120  27.553   0.248
 8653W        W80913  31.435  11.677  11.540
 8654W        W80914  32.688  33.909  14.380
 8655W        W80915  33.465  22.515  14.929
 8656W        W80916   0.432  17.182  10.708
 8657W        W80917  17.482  44.033   3.714
 8658W        W80918   9.433  29.015  12.919
 8659W        W80919  10.653   7.751   3.119
 8660W        W80920   8.885  12.197  11.574
 8661W        W80921   6.290   9.983  11.284
 8662W        W80922  22.689   3.458   0.196
 8663W        W80923  39.109  41.246   0.518
 8664W        W80924  21.925  25.179   3.282
 8665W        W80925  38.632  39.190  11.357
 8666W        W80926  27.278  33.111  10.655
 8667W        W80927  38.284   8.684   3.767
 8668W        W80928  24.708   5.401   3.571
 8669W        W80929  25.501  18.525  12.081
 8670W        W80930   4.332  30.527   2.626
 8671W        W80931  35.438  17.511  13.827
 8672W        W80932  34.533  14.288   2.178
 8673W        W80933  39.257  21.149   1.208
 8674W        W80934  25.009  12.773   3.171
 8675W        W80935  12.377  25.480  13.035
 8676W        W80936  42.053  39.349  12.950
 8677W        W80937  15.602   5.664  11.658
 8678W        W80938  41.051   4.979  10.194
 8679W        W80939   6.725  38.956  14.831
 8680W        W80940  10.747  30.994   2.364
 8681W        W80941  34.356  26.958   4.440
 8682W        W80942  32.887   7.229  13.110
 8683W        W80943  37.268  28.752   1.296
 8684W        W80944  14.053  39.555   0.779
 8685W        W80945  33.920  27.682   4.051
 8686W        W80946  28.944   8.930   2.178
 8687W        W80947  34.394  37.138   3.001
 8688W        W80948   4.694  27.241   4.203
 8689W        W80949  31.564   8.678  11.949
 8690W        W80950  19.503  15.193  13.219
 8691W        W80951  10.376  23.933  14.038
 8692W        W80952  12.317  41.349  10.683
 8693W        W80953   7.808  15.425   2.164
 8694W        W80954  28.433  31.136  12.962
 8695W        W80955   2.882   7.629   2.967
 8696W        W80956   3.686   1.848  14.970
 8697W        W80957  44.128  35.884   1.271
 8698W        W80958  19.833  34.946   3.737
 8699W        W80959  35.407  11.821   2.317
 8700W        W80960  31.190  31.983  14.850
 8701W        W80961  36.017  24.298   4.448
 8702W        W80962  29.999   7.363   4.878
 8703W        W80963  34.655  41.864   1.163
 8704W        W80964   9.710  35.408  12.567
 8705W        W80965  35.997   5.463   4.165
 8706W        W80966  26.610  26.426  12.832
 8707W        W80967  39.548  25.624  11.079
 8708W        W80968   5.292  26.516  10.096
 8709W        W80969   7.310  30.700   4.763
 8710W        W80970  11.406  38.307  11.170
 8711W        W80971   6.444  20.257   2.697
 8712W        W80972   4.266  24.229  10.509
 8713W        W80973  26.231  14.315  14.379
 8714W        W80974   2.573  30.044   0.832
 8715W        W80975  35.871  18.009  10.506
 8716W        W80976  41.407  36.459   1.558
 8717W        W80977  38.634  18.624   2.144
 8718W        W80978  22.941  37.953  12.574
 8719W        W80979  16.716   2.069   2.753
 8720W        W80980  25.419  19.652   5.106
 8721W        W80981   1.502  16.123  11.920
 8722W        W80982  43.238  11.320   1.602
 8723W        W80983  34.071  17.428  14.908
 8724W        W80984  34.513  15.290  13.933
 8725W        W80985  10.582  27.056  11.383
 8726W        W80986  14.358  29.483  11.159
 8727W        W80987  38.533  30.431  10.352
 8728W        W80988   0.649  39.377  12.440
 8729W        W80989   8.857  40.949   1.790
 8730W        W80990  14.590  18.103   3.789
 8731W        W80991   0.560  22.674  11.605
 8732W        W80992   2.773  10.959  12.087
 8733W        W80993  25.800  14.183  12.897
 8734W        W80994  20.304  29.756  12.586
 8735W        W80995  34.515  13.036  14.809
 8736W        W80996  32.502  37.976   1.674
 8737W        W80997  18.176  17.736   3.939
 8738W        W80998  25.124  29.000  14.378
 8739W        W80999  34.161  25.430   0.905
 8740W        W81000  35.971  37.802  13.761
 8741W        W81001  15.137  15.993  11.145
 8742W        W81002  16.002  39.961  12.881
 8743W        W81003  30.717  28.027   1.260
 8744W        W81004   4.774  44.727   0.975
 8745W        W81005  27.418  33.938  13.682
 8746W        W81006  34.752  40.596  11.125
 8747W        W81007  16.135  42.769   1.913
 8748W        W81008  35.847  24.195   2.257
 8749W        W81009  11.103  41.954  13.191
 8750W        W81010  33.461   1.847  14.271
 8751W        W81011  31.551  22.138   2.393
 8752W        W81012  37.796  32.961   4.713
 8753W        W81013  24.963   6.737   0.112
 8754W        W81014   3.419  17.132  13.093
 8755W        W81015  33.096  14.940  11.605
 8756W        W81016  40.489  12.693   4.512
 8757W        W81017   5.960  24.595   2.809
 8758W        W81018  42.280  37.459  11.916
 8759W        W81019   6.698   8.432  12.687
 8760W        W81020  10.096  42.404  11.564
 8761W        W81021  24.953  26.631   2.954
 8762W        W81022  13.288  44.800   1.045
 8763W        W81023   2.565  21.744  14.390
 8764W        W81024  35.520  13.929  13.810
 8765W        W81025  15.653  23.737   4.786
 8766W        W81026  32.903   7.409   4.076
 8767W        W81027  27.766  13.066   0.365
 8768W        W81028   4.429   1.812  13.452
 8769W        W81029  22.080   6.885  10.744
 8770W        W81030  40.247   4.755  11.492
 8771W        W81031  19.787   6.743   3.587
 8772W        W81032  30.858   1.394   2.524
 8773W        W81033  14.506  15.161   5.066
 8774W        W81034  33.724  42.436   3.284
 8775W        W81035  42.655  22.671  12.322
 8776W        W81036  36.609  16.959  12.922
 8777W        W81037  40.883   4.292  11.699
 8778W        W81038  25.000   5.995   0.254
 8779W        W81039  30.840  16.827  14.441
 8780W        W81040  38.957   9.480  11.813
 8781W        W81041  32.453  39.404   2.850
 8782W        W81042  36.326  37.894  13.352
 8783W        W81043  31.484  28.996  13.894
 8784W        W81044  11.304  13.766  14.698
 8785W        W81045  39.937  28.074   4.855
 8786W        W81046   3.490  12.697  12.962
 8787W        W81047  12.399  27.129  14.460
 8788W        W81048  34.353  21.012   1.936
 8789W        W81049   7.006  11.126   3.693
 8790W        W81050   8.849  36.148  14.082
 8791W        W81051  44.810   8.725  13.482
 8792W        W81052   4.274  30.119   0.898
 8793W        W81053   7.783   6.623  14.901
 8794W        W81054  27.541  34.185   2.984
 8795W        W81055  23.282  14.227  12.994
 8796W        W81056  40.075  33.013   1.415
 8797W        W81057  17.297  40.850  11.195
 8798W        W81058  34.823   4.738   3.133
 8799W        W81059   1.500  15.847  12.389
 8800W        W81060  27.609  19.783   4.133
 8801W        W81061  30.122  10.256   3.727
 8802W        W81062   6.668  10.712  12.371
 8803W        W81063  39.664   9.389   0.281
 8804W        W81064   8.291  27.595  12.499
 8805W        W81065  29.698  14.107  14.005
 8806W        W81066  34.017  10.611   0.331
 8807W        W81067  43.429   5.794  11.566
 8808W        W81068  30.706  30.653  11.920
 8809W        W81069  10.609  22.127  12.989
 8810W        W81070  30.007  38.509  14.587
 8811W        W81071  19.545  26.281  11.425
 8812W        W81072  16.094   2.830  11.181
 8813W        W81073  20.628   7.402  14.297
 8814W        W81074  17.282  19.623  14.949
 8815W        W81075  32.627  14.058   3.657
 8816W        W81076  36.703  30.438  13.813
 8817W        W81077  30.539  15.628  13.099
 8818W        W81078  10.382  27.057   1.495
 8819W        W81079  10.690  14.755  14.553
 8820W        W81080  18.810  16.540  11.170
 8821W        W81081  19.773  33.434  13.378
 8822W        W81082   5.107  26.299   5.138
 8823W        W81083  27.952   1.191  12.514
 8824W        W81084  42.350  38.946  13.120
 8825W        W81085   9.718  40.613   3.685
 8826W        W81086   6.065  18.541   3.212
 8827W        W81087  31.091  25.736  10.783
 8828W        W81088   0.788  16.548   2.641
 8829W        W81089  35.913   7.270   5.130
 8830W        W81090  26.156  25.769   1.288
 8831W        W81091  22.232  20.180   9.658
 8832W        W81092  44.058  13.062   0.398
 8833W        W81093  19.751  13.174   2.777
 8834W        W81094  16.808  29.664   4.580
 8835W        W81095   8.813  29.130   4.610
 8836W        W81096  13.091  39.458  11.934
 8837W        W81097  44.898   0.420  14.401
 8838W        W81098   3.332  24.920   4.525
 8839W        W81099  42.374  32.044   2.543
 8840W        W81100  23.948  42.333   2.746
 8841W        W81101  14.012  31.107  10.968
 8842W        W81102  33.610  25.603  14.471
 8843W        W81103  34.409  23.302   2.123
 8844W        W81104   2.939  36.794   0.926
 8845W        W81105  11.811  41.932  14.443
 8846W        W81106  42.726  20.605   1.240
 8847W        W81107  34.522  21.253   1.445
 8848W        W81108  11.137  42.212  13.961
 8849W        W81109   4.122  31.228   4.541
 8850W        W81110  38.466  29.564  14.978
 8851W        W81111   0.446  37.138   0.911
 8852W        W81112  32.581  39.473   1.353
 8853W        W81113   7.687  24.601   0.806
 8854W        W81114  44.450  26.137   0.853
 8855W        W81115   9.226  34.766   4.105
 8856W        W81116  13.647  11.136  13.059
 8857W        W81117  31.962  15.856   1.916
 8858W        W81118  11.148  41.880   2.287
 8859W        W81119  40.030  35.944  11.521
 8860W        W81120  22.154  42.391  13.019
 8861W        W81121  30.770  19.322   0.890
 8862W        W81122  24.549  40.813   5.043
 8863W        W81123  12.304  28.863   2.719
 8864W        W81124  23.082  28.533   1.349
 8865W        W81125   0.365  10.458   4.855
 8866W        W81126  32.534  38.627  14.805
 8867W        W81127  28.969  38.083  14.548
 8868W        W81128  34.845  43.798  14.500
 8869W        W81129  39.771  27.679   0.432
 8870W        W81130  26.054  38.167   4.919
 8871W        W81131  11.862  42.784   4.277
 8872W        W81132   3.051  11.808   0.850
 8873W        W81133  15.580   1.884  13.878
 8874W        W81134  40.113  18.759  13.059
 8875W        W81135  10.231  38.088  12.456
 8876W        W81136  22.069   2.900  14.317
 8877W        W81137  26.697   9.045  14.010
 8878W        W81138  31.168  17.760  12.076
 8879W        W81139  18.099  31.012   3.575
 8880W        W81140  13.531   1.714   2.825
 8881W        W81141   4.292   3.757  11.489
 8882W        W81142  44.897   1.275   1.105
 8883W        W81143  35.886  16.327  12.917
 8884W        W81144  12.668  40.932   2.226
 8885W        W81145  32.002  10.382   2.419
 8886W        W81146   8.344  42.292   4.135
 8887W        W81147  12.713  22.111   2.491
 8888W        W81148  38.322  37.561  14.264
 8889W        W81149  29.553  21.728  14.982
 8890W        W81150  41.217  10.749   0.426
 8891W        W81151  32.787  16.420   3.647
 8892W        W81152  25.741   9.918   2.214
 8893W        W81153  34.796  40.387  13.869
 8894W        W81154   1.506  10.296   3.175
 8895W        W81155  24.627   4.907   4.293
 8896W        W81156   2.194   3.299  13.527
 8897W        W81157  16.276   3.862  13.200
 8898W        W81158  17.749  22.416   0.326
 8899W        W81159  42.374  12.920  11.935
 8900W        W81160  36.020  43.003   3.216
 8901W        W81161  28.127  19.944  14.417
 8902W        W81162  18.273  29.008   2.447
 8903W        W81163   3.923   3.231   2.162
 8904W        W81164   4.404  22.491   1.855
 8905W        W81165   0.060  28.529   4.123
 8906W        W81166  32.340  44.200  11.248
 8907W        W81167  31.544   3.385   0.488
 8908W        W81168  28.229  35.830   3.713
 8909W        W81169  14.275   2.866  10.967
 8910W        W81170   4.522   1.390  12.089
 8911W        W81171  18.968  18.040  13.434
 8912W        W81172   7.861   4.175   0.426
 8913W        W81173  31.131  11.848  14.015
 8914W        W81174  33.193  34.585  12.423
 8915W        W81175  27.939  39.441   0.221
 8916W        W81176  44.860  42.760  14.347
 8917W        W81177  32.074  10.583  11.657
 8918W        W81178  37.197   8.021   2.169
 8919W        W81179  44.420  25.558  12.624
 8920W        W81180  19.324  23.008   1.959
 8921W        W81181  26.591  24.780   0.340
 8922W        W81182   5.408  38.456   1.147
 8923W        W81183   5.818  17.588  11.980
 8924W        W81184  22.954  38.816  12.819
 8925W        W81185   0.916  16.073   2.425
 8926W        W81186  19.250  21.726   1.407
 8927W        W81187  31.980  27.924   4.584
 8928W        W81188   3.464  41.299  13.183
 8929W        W81189  41.533   2.857   1.426
 8930W        W81190   8.507  42.125  13.296
 8931W        W81191  21.534   3.497   4.638
 8932W        W81192   3.945  15.674   4.156
 8933W        W81193  37.397  20.652  13.920
 8934W        W81194  39.603  30.372  13.463
 8935W        W81195  22.140  32.941   4.334
 8936W        W81196  37.415  27.590   3.912
 8937W        W81197  11.384  17.697   4.423
 8938W        W81198   1.279   9.379  14.971
 8939W        W81199  39.512  16.009   3.726
 8940W        W81200  25.446  30.483  10.601
 8941W        W81201  14.702  23.919  12.438
 8942W        W81202  27.579  11.759   4.083
 8943W        W81203  36.597   9.352   3.107
 8944W        W81204  28.553  30.143   1.339
 8945W        W81205  40.963  11.874   0.017
 8946W        W81206  40.417   1.296   1.190
 8947W        W81207  13.127  13.185  12.512
 8948W        W81208  41.494   5.180   1.338
 8949W        W81209  24.436   6.193   4.569
 8950W        W81210  12.760   0.802  11.012
 8951W        W81211  18.723  34.883   4.671
 8952W        W81212  41.273  36.833   0.063
 8953W        W81213  19.117  31.917   0.510
 8954W        W81214  10.775   7.845  12.946
 8955W        W81215   6.810  18.342   4.256
 8956W        W81216  15.123  26.268   3.011
 8957W        W81217  16.712  18.781   4.673
 8958W        W81218  33.457  24.033   1.895
 8959W        W81219   5.656  20.096   3.160
 8960W        W81220  33.634   3.009  12.451
 8961W        W81221  12.484  27.543  10.649
 8962W        W81222   9.505  11.584   4.497
 8963W        W81223   1.296  42.069  11.971
 8964W        W81224  11.638  16.067  10.379
 8965W        W81225  27.398  42.469   3.155
 8966W        W81226   3.011  34.536   2.479
 8967W        W81227  36.856  22.698   4.532
 8968W        W81228  38.462  23.229  12.859
 8969W        W81229   2.827  33.566   4.409
 8970W        W81230   2.562  26.572   1.708
 8971W        W81231  40.753  39.940   3.921
 8972W        W81232  36.603  29.747  14.340
 8973W        W81233  24.841  29.724   1.358
 8974W        W81234   5.701  19.785   1.322
 8975W        W81235  23.712   5.973  11.228
 8976W        W81236   4.202  42.983   0.322
 8977W        W81237   7.237  22.442   0.257
 8978W        W81238  43.472  35.116   1.834
 8979W        W81239  33.340  30.879  14.867
 8980W        W81240  21.223  13.041   0.257
 8981W        W81241  44.229  36.553  12.353
 8982W        W81242  13.026   0.870   3.640
 8983W        W81243  24.691   7.951   2.363
 8984W        W81244   7.745  25.462   1.179
 8985W        W81245   1.206   1.276  11.409
 8986W        W81246  30.259  13.932   3.310
 8987W        W81247  31.170  37.420  10.758
 8988W        W81248  39.030  31.059   4.535
 8989W        W81249  32.552  37.090  14.852
 8990W        W81250  16.159  44.937   4.623
 8991W        W81251  32.044  33.592   4.429
 8992W        W81252  30.638  15.007   4.961
 8993W        W81253  44.561  20.782   3.778
 8994W        W81254  35.252   6.359  11.657
 8995W        W81255  11.643   3.935   2.258
 8996W        W81256  28.702  29.022  10.585
 8997W        W81257  14.034  17.605   4.388
 8998W        W81258  24.782  43.461  14.499
 8999W        W81259  31.238  14.178   0.056
 9000W        W81260  24.220   7.242   0.088
 9001W        W81261  17.299  10.148   0.787
 9002W        W81262  28.469   7.512  10.609
 9003W        W81263  16.359   6.364  10.701
 9004W        W81264  35.943  34.072   4.932
 9005W        W81265  35.384  24.108  12.867
 9006W        W81266  30.452  36.773   3.857
 9007W        W81267  31.603   1.617  14.786
 9008W        W81268  41.304  36.490  11.725
 9009W        W81269  32.978   6.297  11.143
 9010W        W81270  34.439  43.690  11.877
 9011W        W81271  17.601  28.082  12.019
 9012W        W81272  17.959  14.612   4.798
 9013W        W81273  39.073  23.538  11.395
 9014W        W81274  29.102  35.656   2.343
 9015W        W81275   3.757  20.007   2.751
 9016W        W81276  15.573  43.785  14.027
 9017W        W81277   1.023  26.049   2.732
 9018W        W81278   8.518   8.301   2.708
 9019W        W81279  21.496  33.625  11.664
 9020W        W81280   4.787  26.143   5.551
 9021W        W81281  39.695  16.475   1.204
 9022W        W81282  38.979  20.064  12.435
 9023W        W81283  17.267   4.675  13.332
 9024W        W81284  10.597   9.788  10.359
 9025W        W81285  17.840  16.803   0.266
 9026W        W81286   2.020  12.890  12.958
 9027W        W81287  21.044  29.891   1.306
 9028W        W81288  24.166  34.707   4.519
 9029W        W81289  23.146   8.417   1.547
 9030W        W81290  33.784   3.708   4.630
 9031W        W81291   7.993  37.802  12.703
 9032W        W81292  13.029  23.637   1.226
 9033W        W81293  28.076  21.408   2.549
 9034W        W81294  13.347   0.410   3.550
 9035W        W81295  27.061  24.534   2.340
 9036W        W81296   9.433  13.846  11.404
 9037W        W81297  29.130  25.668  11.652
 9038W        W81298  32.100  42.532  11.503
 9039W        W81299  22.931  35.548  11.220
 9040W        W81300  31.046   3.213   3.904
 9041W        W81301  29.013  13.251  13.604
 9042W        W81302  13.750  39.797   2.238
 9043W        W81303  38.072  32.568  12.001
 9044W        W81304  20.795  32.096   0.315
 9045W        W81305   3.988  34.095  14.541
 9046W        W81306  30.954  42.020   0.358
 9047W        W81307  28.277  14.590  12.666
 9048W        W81308  27.339  44.361   0.748
 9049W        W81309  38.111  44.943  14.715
 9050W        W81310  23.256  19.397  14.401
 9051W        W81311  22.471  36.065  14.018
 9052W        W81312  39.524   3.678  12.969
 9053W        W81313  43.179  15.671   0.321
 9054W        W81314  23.902  16.327   0.791
 9055W        W81315  37.103  15.516   0.181
 9056W        W81316  25.747  17.810   3.759
 9057W        W81317   9.784  26.442  10.672
 9058W        W81318  43.867   4.875   0.714
 9059W        W81319   7.880  28.147  14.399
 9060W        W81320  25.734  22.814  10.610
 9061W        W81321  29.385  22.065   3.182
 9062W        W81322  26.785  24.074  10.698
 9063W        W81323  28.592   3.467  11.916
 9064W        W81324  38.963   7.349  10.536
 9065W        W81325  31.225   3.714   4.037
 9066W        W81326  44.775  37.358  12.925
 9067W        W81327  15.991  38.078   4.067
 9068W        W81328  17.257   4.620  11.514
 9069W        W81329   8.835  30.957  11.996
 9070W        W81330  15.839  12.825   4.244
 9071W        W81331  33.519  35.650  11.137
 9072W        W81332  20.631  28.429   0.435
 9073W        W81333   1.327  33.513   2.533
 9074W        W81334  41.420  43.467  12.056
 9075W        W81335  17.770  11.295  12.042
 9076W        W81336  12.673  40.816  14.875
 9077W        W81337  39.934   0.324  12.886
 9078W        W81338   1.500  27.008  11.530
 9079W        W81339  12.390  22.279   2.986
 9080W        W81340  31.992  42.293   4.912
 9081W        W81341  26.672  42.799  12.857
 9082W        W81342  29.387  22.071   1.399
 9083W        W81343  13.943   9.709  11.881
 9084W        W81344  27.646   3.361   0.352
 9085W        W81345   4.888  39.774  12.417
 9086W        W81346  11.347   0.546   4.114
 9087W        W81347  24.448  28.702  12.010
 9088W        W81348  44.211  34.479   0.847
 9089W        W81349  27.484  44.800   2.835
 9090W        W81350  23.261  10.897  12.972
 9091W        W81351  36.121  12.284   2.273
 9092W        W81352  31.927  33.101   2.158
 9093W        W81353  22.471   4.349   0.398
 9094W        W81354  36.289   7.147   1.899
 9095W        W81355  16.201  21.709   3.666
 9096W        W81356  35.882  39.980   3.291
 9097W        W81357  20.234  24.047   3.304
 9098W        W81358  28.261  43.020   2.846
 9099W        W81359  14.074  17.505  10.398
 9100W        W81360   0.210  28.158   0.652
 9101W        W81361  29.709  36.532  12.892
 9102W        W81362  37.346  21.036   2.289
 9103W        W81363   3.607   0.376   2.241
 9104W        W81364   4.141  35.564   4.545
 9105W        W81365  25.738  44.671  11.169
 9106W        W81366   9.374  12.802  12.091
 9107W        W81367  29.442  15.709   1.150
 9108W        W81368  23.237  35.839   2.027
 9109W        W81369  11.053  15.125   0.979
 9110W        W81370  26.476   4.370  11.865
 9111W        W81371  10.127   4.998   3.234
 9112W        W81372  42.502  28.598  12.976
 9113W        W81373  18.291   7.434   0.403
 9114W        W81374  35.391  20.006  12.975
 9115W        W81375   8.209  20.098  12.058
 9116W        W81376  19.529   1.522   4.838
 9117W        W81377  16.683   4.277   0.918
 9118W        W81378  43.343  37.931  11.948
 9119W        W81379   6.066  19.634  11.156
 9120W        W81380  25.246   8.863  11.423
 9121W        W81381  43.537  20.047   2.280
 9122W        W81382  28.499  12.961  14.817
 9123W        W81383  24.027  10.411  10.120
 9124W        W81384  15.527  13.992   0.332
 9125W        W81385  12.219   9.844   2.410
 9126W        W81386  43.988   3.638  13.922
 9127W        W81387  44.841  37.583   2.944
 9128W        W81388  29.109  41.890   4.457
 9129W        W81389  14.230   6.750  11.456
 9130W        W81390  36.569  32.100   4.941
 9131W        W81391  12.822  39.332   4.092
 9132W        W81392  28.377  23.662  14.220
 9133W        W81393  30.881  21.604  13.570
 9134W        W81394  11.128  11.164  12.064
 9135W        W81395  27.981  30.901   0.873
 9136W        W81396  17.099  27.921   4.011
 9137W        W81397  19.157  21.983  13.326
 9138W        W81398  37.170   7.306  10.071
 9139W        W81399  11.007  10.387  14.891
 9140W        W81400  16.108  42.982   4.273
 9141W        W81401  38.551   3.836   4.651
 9142W        W81402  25.322  38.432  12.857
 9143W        W81403   1.150  21.721   1.785
 9144W        W81404  22.843   9.156   1.813
 9145W        W81405  34.022  21.691   5.261
 9146W        W81406  31.772  31.164  11.132
 9147W        W81407  27.651   0.471  11.615
 9148W        W81408  42.581   0.788   3.275
 9149W        W81409   2.123  42.411   1.448
 9150W        W81410   5.918  26.026   3.862
 9151W        W81411  42.275  11.898   1.967
 9152W        W81412  35.863  15.648  10.938
 9153W        W81413  33.520  19.478   5.308
 9154W        W81414   1.205  32.830   3.090
 9155W        W81415   9.924   3.666   3.091
 9156W        W81416  33.571  35.457   4.570
 9157W        W81417  44.834  13.506   0.981
 9158W        W81418   1.308  28.080  13.489
 9159W        W81419   0.742   7.292   0.822
 9160W        W81420  21.200   4.838   4.962
 9161W        W81421  10.865  42.335   1.332
 9162W        W81422  33.811  36.528   4.201
 9163W        W81423   1.961  24.189  12.946
 9164W        W81424  31.597  16.263   2.327
 9165W        W81425  20.996  21.451  12.071
 9166W        W81426   0.388  36.297   3.728
 9167W        W81427  28.476  37.366  13.746
 9168W        W81428  39.736   3.679   2.251
 9169W        W81429  28.080   4.628  11.614
 9170W        W81430  38.063   7.288   3.640
 9171W        W81431  24.414  32.613  11.487
 9172W        W81432  44.058   5.557  14.975
 9173W        W81433   8.260  22.213  11.486
 9174W        W81434  34.728  37.142   0.899
 9175W        W81435  16.111   9.803   3.162
 9176W        W81436  10.887  42.891   1.881
 9177W        W81437   4.796  20.106  11.034
 9178W        W81438  43.615   8.217  14.967
 9179W        W81439   5.848  29.272  11.260
 9180W        W81440  13.153   7.878   3.198
 9181W        W81441  44.157  15.731   0.474
 9182W        W81442   9.416  23.586   5.006
 9183W        W81443  19.741  12.718  11.494
 9184W        W81444  42.458   2.676  12.281
 9185W        W81445  18.122   7.864  14.255
 9186W        W81446  14.626  27.074  10.353
 9187W        W81447  42.019   3.388   5.012
 9188W        W81448   5.944  22.508   4.230
 9189W        W81449  15.963   2.862   2.341
 9190W        W81450  14.667  31.250   3.173
 9191W        W81451  16.833   3.298  12.538
 9192W        W81452  43.385  14.222   1.003
 9193W        W81453  34.361  43.896   2.680
 9194W        W81454  17.373   1.269   1.173
 9195W        W81455  10.408  27.913  12.615
 9196W        W81456  38.724  23.379  11.065
 9197W        W81457  14.192  17.710  11.896
 9198W        W81458  20.509   2.398   2.410
 9199W        W81459  23.592  33.117  10.686
 9200W        W81460  14.894  43.351  11.015
 9201W        W81461  39.440  38.994   2.280
 9202W        W81462  10.899   5.922  14.025
 9203W        W81463  38.938  35.823   3.800
 9204W        W81464  25.540  31.263   0.529
 9205W        W81465   2.916  31.857   3.894
 9206W        W81466  24.661  23.451  11.167
 9207W        W81467   5.847  21.763   0.310
 9208W        W81468  29.382  15.632  11.123
 9209W        W81469   8.277   9.154   2.309
 9210W        W81470   2.018  16.763   1.820
 9211W        W81471  16.293  13.749  14.824
 9212W        W81472   9.823  16.781  10.370
 9213W        W81473  19.607  23.098  11.495
 9214W        W81474  44.364  30.622  11.882
 9215W        W81475  11.289   7.713  14.831
 9216W        W81476  10.039  26.897  10.628
 9217W        W81477  23.980  15.335  14.057
 9218W        W81478  30.633  33.356   0.420
 9219W        W81479   6.257   5.619  14.873
 9220W        W81480  43.874   3.511   4.286
 9221W        W81481  14.946  28.405  14.867
 9222W        W81482  13.743  18.897  10.341
 9223W        W81483  10.677  37.416  14.831
 9224W        W81484  25.744   6.453   3.125
 9225W        W81485  18.807   2.791   4.914
 9226W        W81486  33.627  21.752   4.020
 9227W        W81487  26.519  24.560   0.881
 9228W        W81488  43.253  26.621  13.227
 9229W        W81489  40.066  13.972  14.312
 9230W        W81490  40.746   2.734  14.804
 9231W        W81491  43.281   6.823   3.138
 9232W        W81492  28.107  11.402   1.368
 9233W        W81493  20.990  20.449   1.271
 9234W        W81494  12.188   5.901  12.931
 9235W        W81495   8.903  27.846  12.305
 9236W        W81496  25.694  41.863   3.288
 9237W        W81497  28.270  13.885   1.605
 9238W        W81498  36.090  38.531   3.285
 9239W        W81499  22.569  17.563  11.004
 9240W        W81500  28.604  34.956   3.665
 9241W        W81501  16.390  19.087   0.068
 9242W        W81502  33.877  41.341   2.488
 9243W        W81503  19.636  44.798  14.072
 9244W        W81504  42.895  15.561  13.996
 9245W        W81505  39.340  16.158  13.006
 9246W        W81506  28.355   0.977  10.028
 9247W        W81507  36.387   9.353  12.395
 9248W        W81508  18.618  19.755   0.012
 9249W        W81509  39.395   4.359  12.508
 9250W        W81510  25.015  14.086  12.420
 9251W        W81511  31.075  33.450   4.701
 9252W        W81512  41.996  35.113  11.569
 9253W        W81513  12.937  27.503  12.304
 9254W        W81514   6.375  26.189  11.973
 9255W        W81515  12.978  41.329   4.894
 9256W        W81516   0.554  12.116   4.720
 9257W        W81517  37.945  17.676   3.902
 9258W        W81518  12.116   0.702   3.216
 9259W        W81519  21.559  16.233   2.421
 9260W        W81520  13.820  34.420  13.740
 9261W        W81521  37.935  41.219   3.566
 9262W        W81522  10.160   2.492   2.691
 9263W        W81523   8.427   1.140  14.800
 9264W        W81524   4.149  17.104   4.174
 9265W        W81525  36.065  30.706  12.120
 9266W        W81526  31.725  15.009   1.898
 9267W        W81527  35.530  10.215  14.469
 9268W        W81528  26.471  37.714   4.071
 9269W        W81529  25.813  11.728   4.578
 9270W        W81530  33.469  44.058   2.139
 9271W        W81531   0.234  31.626  12.119
 9272W        W81532  19.778   9.653  10.823
 9273W        W81533  30.681   5.395  11.094
 9274W        W81534  27.061  19.446  11.451
 9275W        W81535  30.601   5.490  12.422
 9276W        W81536  26.147  14.836   0.015
 9277W        W81537  14.188  39.027   0.932
 9278W        W81538  21.613  29.419  14.219
 9279W        W81539  36.300  14.737  11.174
 9280W        W81540  27.180  41.144   3.192
 9281W        W81541  35.622  18.977   1.270
 9282W        W81542  10.001  31.097   5.055
 9283W        W81543  29.123  16.660  10.992
 9284W        W81544  22.493  10.410   0.419
 9285W        W81545  22.008  10.914  12.438
 9286W        W81546  32.610  22.605  13.829
 9287W        W81547  43.572  43.971  12.071
 9288W        W81548   6.278  21.280  14.490
 9289W        W81549  27.731  37.622   3.692
 9290W        W81550  23.754  29.109   3.206
 9291W        W81551  10.231  39.085  12.413
 9292W        W81552  41.221  36.803  12.863
 9293W        W81553  38.914  16.288  10.426
 9294W        W81554  23.962  36.621  12.388
 9295W        W81555  29.662   5.207   4.147
 9296W        W81556  43.851   4.983  11.813
 9297W        W81557  11.345  44.550   0.477
 9298W        W81558   1.690  13.853  12.021
 9299W        W81559   6.920  36.406   0.428
 9300W        W81560  22.439  36.514   4.432
 9301W        W81561  15.382   5.076  12.139
 9302W        W81562  35.177  21.547  12.024
 9303W        W81563  41.461  25.622   4.476
 9304W        W81564  34.875   9.323   4.760
 9305W        W81565  39.526  21.062   0.768
 9306W        W81566   4.466  42.534  10.719
 9307W        W81567  27.709  42.340  14.475
 9308W        W81568  20.251  29.557  14.579
 9309W        W81569  33.607   4.403  13.126
 9310W        W81570   5.653   6.762   2.176
 9311W        W81571  18.709   1.290   4.299
 9312W        W81572  38.023   3.930   4.608
 9313W        W81573  37.796  31.406   4.226
 9314W        W81574   5.392  37.350  10.689
 9315W        W81575   4.842   0.434   2.616
 9316W        W81576  29.201   9.819   2.201
 9317W        W81577  31.006  33.954   4.581
 9318W        W81578  39.810  33.350   4.231
 9319W        W81579  44.106  10.414   4.255
 9320W        W81580   3.249  14.592  13.932
 9321W        W81581  16.075  29.602  14.261
 9322W        W81582   9.289  13.063   1.125
 9323W        W81583  22.086  36.749   0.304
 9324W        W81584  17.156   6.586  10.879
 9325W        W81585  27.458  13.789  13.485
 9326W        W81586   4.880  28.125   4.715
 9327W        W81587  26.887  22.557   0.305
 9328W        W81588   8.284  25.271   2.221
 9329W        W81589  19.007  10.375  10.902
 9330W        W81590  33.173  22.693   0.320
 9331W        W81591  18.568   9.146  13.498
 9332W        W81592  25.049   2.841   3.205
 9333W        W81593  11.644  11.115  12.086
 9334W        W81594  15.139  36.884  13.369
 9335W        W81595  38.004   6.280  11.178
 9336W        W81596  37.011   7.474   5.376
 9337W        W81597  12.555  18.997  12.862
 9338W        W81598  14.256  16.258   1.102
 9339W        W81599  16.687  34.421   2.302
 9340W        W81600  28.033   8.303  11.088
 9341W        W81601   4.849  36.775  14.455
 9342W        W81602   5.422  42.988   2.884
 9343W        W81603  33.076  17.230  13.253
 9344W        W81604  35.719  33.535   3.483
 9345W        W81605  15.048  36.349   3.784
 9346W        W81606   7.854  33.553   0.035
 9347W        W81607  14.589  10.133  12.569
 9348W        W81608  22.678  23.026   3.622
 9349W        W81609  16.762   7.891  11.150
 9350W        W81610  35.465  36.937  12.090
 9351W        W81611  23.732  42.897  12.800
 9352W        W81612  29.131  26.511  12.239
 9353W        W81613  28.961  16.698   4.072
 9354W        W81614  21.308   9.818  12.948
 9355W        W81615  16.035  26.564  10.700
 9356W        W81616   3.220  41.810  11.599
 9357W        W81617  43.651  19.045  12.671
 9358W        W81618  15.056  28.301  11.933
 9359W        W81619  24.054  44.966  12.682
 9360W        W81620  27.645  14.704  14.958
 9361W        W81621  38.354   9.875   0.961
 9362W        W81622   9.718  38.939   3.887
 9363W        W81623  21.717   8.343   2.211
 9364W        W81624  40.378  25.416   1.283
 9365W        W81625  43.981  36.782  11.121
 9366W        W81626  39.367  39.973   1.273
 9367W        W81627  27.671   2.530  12.437
 9368W        W81628  40.973  15.763   1.856
 9369W        W81629  18.580  43.723   0.379
 9370W        W81630  41.250  10.024   1.778
 9371W        W81631  42.475  20.906   4.224
 9372W        W81632  24.027   9.099   3.916
 9373W        W81633  40.306  30.589   1.305
 9374W        W81634  13.104   2.534   2.683
 9375W        W81635  15.301  26.952  14.315
 9376W        W81636  29.248  27.146  12.466
 9377W        W81637  41.547  11.220   0.443
 9378W        W81638  11.792  33.304   0.302
 9379W        W81639   9.678  11.134   2.378
 9380W        W81640  26.863   4.732   3.578
 9381W        W81641  30.255  16.778   4.798
 9382W        W81642  42.963  37.578   2.398
 9383W        W81643  44.370  39.992  10.852
 9384W        W81644   0.537  27.406  11.450
 9385W        W81645   7.439   3.995   2.220
 9386W        W81646  43.853   0.378  14.035
 9387W        W81647  37.806  18.590  10.723
 9388W        W81648  17.274  23.966   3.863
 9389W        W81649  18.482  19.740   2.728
 9390W        W81650  41.440  38.591  11.489
 9391W        W81651  13.893  33.610   4.142
 9392W        W81652   9.008  13.391   3.563
 9393W        W81653   2.054  21.131  10.208
 9394W        W81654  36.449  35.853   2.226
 9395W        W81655  26.200  44.516   1.893
 9396W        W81656  42.284  13.252   3.437
 9397W        W81657  27.498   8.568   4.131
 9398W        W81658  15.516  20.331  13.810
 9399W        W81659  27.397  14.867   1.025
 9400W        W81660   2.042  43.540  11.196
 9401W        W81661  21.576  27.069  10.863
 9402W        W81662  21.802  10.758  13.377
 9403W        W81663  17.988  34.869   1.689
 9404W        W81664  25.740   0.005  14.718
 9405W        W81665   6.184   7.199   1.774
 9406W        W81666  32.226  29.248  12.043
 9407W        W81667   4.109  44.330   1.369
 9408W        W81668  39.733  38.933   3.337
 9409W        W81669  42.931  13.635  12.063
 9410W        W81670  31.541   0.592  11.123
 9411W        W81671  41.029  40.356   4.075
 9412W        W81672  22.289  36.603   3.648
 9413W        W81673  27.582  10.405   0.752
 9414W        W81674  20.244  13.276   0.089
 9415W        W81675  34.948  27.048   0.894
 9416W        W81676  38.531  12.754  11.548
 9417W        W81677  39.536  19.298   4.572
 9418W        W81678  37.529  21.586  14.397
 9419W        W81679  20.973  18.982   4.768
 9420W        W81680  31.061  28.477   3.292
 9421W        W81681   0.747  36.812   1.196
 9422W        W81682  33.854  32.837  10.711
 9423W        W81683  20.253  10.630  11.077
 9424W        W81684  39.262  39.850   4.121
 9425W        W81685  37.816  12.040  12.342
 9426W        W81686  21.791  30.831  10.635
 9427W        W81687   3.682  25.987  13.094
 9428W        W81688  10.693  43.875  12.993
 9429W        W81689  38.759   3.968  14.841
 9430W        W81690  18.836  23.108  12.007
 9431W        W81691   9.649  37.958  13.850
 9432W        W81692  25.748  27.445  13.617
 9433W        W81693  24.961  30.078  11.787
 9434W        W81694   8.300  30.391   0.959
 9435W        W81695  26.680  20.094   4.074
 9436W        W81696   1.675  17.144   4.716
 9437W        W81697  39.964   0.913   4.839
 9438W        W81698  20.579  38.894   3.315
 9439W        W81699   6.363  36.151   3.327
 9440W        W81700   3.288  30.374  10.421
 9441W        W81701  23.572  24.948  11.619
 9442W        W81702  12.159  37.353  14.356
 9443W        W81703  28.524  38.661  13.379
 9444W        W81704  30.389  11.278   0.600
 9445W        W81705  25.220  13.198  14.397
 9446W        W81706  28.957  16.408  13.943
 9447W        W81707  36.000  19.986   2.729
 9448W        W81708  33.959  39.984  11.972
 9449W        W81709  19.947  27.224   2.320
 9450W        W81710  32.865  29.113  14.942
 9451W        W81711  13.139  22.340  10.155
 9452W        W81712  23.944  16.252  13.035
 9453W        W81713  11.030  15.868  12.440
 9454W        W81714  32.019  17.076   0.015
 9455W        W81715  10.722  34.404  12.840
 9456W        W81716   3.491  14.587  10.781
 9457W        W81717  34.411  11.035  11.267
 9458W        W81718  36.446  14.033  14.153
 9459W        W81719  20.944  27.146   4.794
 9460W        W81720   8.290  29.472  11.651
 9461W        W81721  38.018  10.532   2.249
 9462W        W81722  19.826  13.543  14.923
 9463W        W81723   0.914  18.146   1.185
 9464W        W81724  21.155  30.171   0.885
 9465W        W81725   5.874  19.486   1.713
 9466W        W81726  15.843   4.683  12.637
 9467W        W81727  37.521  21.466  10.372
 9468W        W81728  19.758  42.805   0.976
 9469W        W81729  24.959   9.404  13.950
 9470W        W81730  21.848  12.479  11.118
 9471W        W81731  26.142  30.053   0.226
 9472W        W81732   0.866  10.772  14.989
 9473W        W81733  25.960  15.214   0.310
 9474W        W81734  42.345  28.788  12.020
 9475W        W81735   4.723  27.069  11.137
 9476W        W81736  19.165  27.220  11.533
 9477W        W81737  19.753   1.809   2.636
 9478W        W81738  37.376  31.681   1.864
 9479W        W81739  12.597   3.350  11.855
 9480W        W81740  15.312  13.157   4.906
 9481W        W81741  33.129  19.677  12.412
 9482W        W81742  12.432  32.899   3.142
 9483W        W81743   2.849  35.564   2.378
 9484W        W81744  33.629  12.577  10.784
 9485W        W81745  20.055  12.244  13.451
 9486W        W81746  40.955  10.894  13.037
 9487W        W81747  36.412  12.900  11.670
 9488W        W81748  22.520  39.191  12.886
 9489W        W81749  44.691  21.070  13.600
 9490W        W81750   4.664  40.484  14.470
 9491W        W81751  15.113  19.205  13.536
 9492W        W81752   1.345   3.391   2.251
 9493W        W81753  31.814   6.038   2.246
 9494W        W81754  27.997   8.813   0.790
 9495W        W81755   8.278  16.545  13.873
 9496W        W81756  16.897  39.093  11.594
 9497W        W81757  24.554  20.386   3.597
 9498W        W81758   8.227  15.835   3.606
 9499W        W81759  35.412  12.877   3.329
 9500W        W81760  19.082  27.444  11.077
 9501W        W81761  43.500  28.105  13.944
 9502W        W81762  18.044  37.448   3.712
 9503W        W81763   0.011  19.628  12.877
 9504W        W81764  16.093   4.285  12.943
 9505W        W81765   4.631  33.466   1.321
 9506W        W81766  18.043  18.570   1.627
 9507W        W81767  34.024  11.663  12.900
 9508W        W81768  21.834  39.961   2.584
 9509W        W81769   4.281  35.418  14.426
 9510W        W81770  22.075  38.536   3.647
 9511W        W81771  19.598   8.647   1.534
 9512W        W81772  30.479   7.245   2.128
 9513W        W81773   7.921   2.054   3.260
 9514W        W81774  13.231  43.197   3.280
 9515W        W81775  35.702  14.214  12.896
 9516W        W81776  35.540  15.071  11.895
 9517W        W81777  38.490   7.491  11.557
 9518W        W81778  38.116  32.368   4.272
 9519W        W81779  38.530  21.488   3.392
 9520W        W81780  13.038  22.730   3.247
 9521W        W81781  21.855  32.443  14.529
 9522W        W81782   2.551  15.665  14.000
 9523W        W81783   0.908  30.923  13.392
 9524W        W81784  15.471   9.265  12.685
 9525W        W81785  37.024  26.566  14.039
 9526W        W81786   8.877  18.809   0.316
 9527W        W81787   8.108   7.835   1.023
 9528W        W81788  40.615  41.922   2.903
 9529W        W81789   9.537  12.667  13.055
 9530W        W81790  18.771  10.749  13.451
 9531W        W81791   2.165  12.197  13.527
 9532W        W81792  17.727   2.501   0.688
 9533W        W81793  22.682   8.340  11.045
 9534W        W81794  33.419  37.391  11.715
 9535W        W81795   8.207   2.132  14.776
 9536W        W81796  12.089  27.383   0.386
 9537W        W81797  31.183  21.228   2.266
 9538W        W81798  17.146   7.316   0.502
 9539W        W81799   4.816  11.841  14.364
 9540W        W81800  44.527  31.472  14.202
 9541W        W81801  15.565  11.207  10.801
 9542W        W81802  38.403  40.460  14.980
 9543W        W81803   6.297   9.624  14.805
 9544W        W81804  35.585  39.821  10.578
 9545W        W81805  44.484  22.524  11.989
 9546W        W81806   0.399  36.816  13.566
 9547W        W81807  14.523  23.521   0.982
 9548W        W81808  11.160  31.026   4.140
 9549W        W81809  37.784  34.224   3.657
 9550W        W81810  35.607   4.972  10.484
 9551W        W81811   6.632  16.300  14.536
 9552W        W81812  10.350   0.492  13.342
 9553W        W81813  15.558   2.235  14.252
 9554W        W81814  39.014  34.219   2.851
 9555W        W81815  30.622  32.149   5.462
 9556W        W81816  40.120   8.198  12.942
 9557W        W81817  29.571  34.969   4.368
 9558W        W81818   1.856  33.529   0.905
 9559W        W81819  17.278   4.637   3.651
 9560W        W81820   1.827  32.276  11.420
 9561W        W81821   2.693  28.419  14.248
 9562W        W81822   4.414  17.663  13.095
 9563W        W81823   9.611  14.072  14.334
 9564W        W81824  21.320  38.592  13.972
 9565W        W81825  21.566  23.096  14.903
 9566W        W81826  15.249   1.281   3.516
 9567W        W81827   5.324  32.667  10.684
 9568W        W81828  15.551  42.207   3.214
 9569W        W81829  37.106  37.917   2.713
 9570W        W81830  10.578  38.410  12.679
 9571W        W81831  17.681  10.353  12.887
 9572W        W81832  22.563  28.193   4.616
 9573W        W81833  38.984  33.036  12.974
 9574W        W81834  28.465  24.999  11.999
 9575W        W81835  34.633   0.311  13.983
 9576W        W81836  10.273  40.106  10.663
 9577W        W81837  40.459  23.564  14.445
 9578W        W81838  36.016  38.728   0.044
 9579W        W81839  24.698  41.883   9.998
 9580W        W81840  31.000  42.717  11.548
 9581W        W81841  40.846  27.451   0.946
 9582W        W81842  35.031  16.297   4.662
 9583W        W81843  22.360  11.554   3.208
 9584W        W81844  43.871  42.998  10.700
 9585W        W81845   3.032  20.955  13.066
 9586W        W81846  37.846   7.161   0.340
 9587W        W81847  23.297   0.022   1.359
 9588W        W81848  37.897   9.714  13.295
 9589W        W81849  29.165  22.628   4.836
 9590W        W81850   5.212   9.238   0.027
 9591W        W81851   6.285  27.528   4.421
 9592W        W81852   2.113   6.799   4.579
 9593W        W81853  29.069  17.626   4.469
 9594W        W81854  26.571   4.262   0.028
 9595W        W81855  28.327   2.847  11.627
 9596W        W81856  13.895   0.243   3.636
 9597W        W81857  15.406  27.529   0.440
 9598W        W81858  38.379  34.044  14.899
 9599W        W81859  25.190  30.552  11.959
 9600W        W81860   9.680  22.607  13.085
 9601W        W81861  10.322   8.382  11.943
 9602W        W81862  18.215   6.323  10.744
 9603W        W81863   1.826  43.252  13.871
 9604W        W81864   9.391   0.235  10.268
 9605W        W81865  37.306   3.425  10.754
 9606W        W81866  33.940   0.875  13.154
 9607W        W81867  26.259   2.946  10.656
 9608W        W81868  37.361  16.612  13.594
 9609W        W81869  26.694  16.336   0.825
 9610W        W81870  12.690  31.384   9.722
 9611W        W81871  39.340  39.269  13.990
 9612W        W81872  30.498  30.712   4.820
 9613W        W81873  12.735  40.922   1.361
 9614W        W81874  19.040  15.348  11.659
 9615W        W81875  27.442  22.628   3.790
 9616W        W81876  14.280  30.625  13.920
 9617W        W81877  31.627  16.314  13.784
 9618W        W81878   6.183  17.549   4.591
 9619W        W81879  39.350  34.892  12.217
 9620W        W81880  25.545  24.244  11.057
 9621W        W81881  34.390   3.280  11.375
 9622W        W81882  10.094  36.822  13.035
 9623W        W81883  36.407  37.667  11.939
 9624W        W81884  12.656   2.002  14.805
 9625W        W81885  34.572  27.419   3.662
 9626W        W81886  22.010  17.972  11.718
 9627W        W81887   0.235   6.357  11.150
 9628W        W81888  20.740  26.176  13.334
 9629W        W81889  26.841   6.254   2.135
 9630W        W81890  37.820   3.956   1.456
 9631W        W81891  14.966  15.395  12.006
 9632W        W81892  17.837  42.168  11.169
 9633W        W81893  19.799  32.530   0.913
 9634W        W81894  25.562  33.852   4.750
 9635W        W81895  33.084  13.285   3.926
 9636W        W81896   6.605   8.169   2.686
 9637W        W81897  23.534   6.797  11.611
 9638W        W81898  34.857  29.098   4.621
 9639W        W81899   2.629  22.008  13.615
 9640W        W81900   6.322  23.189  13.081
 9641W        W81901  10.972  19.595   1.403
 9642W        W81902   9.174  37.807   3.203
 9643W        W81903  28.829  23.323  14.853
 9644W        W81904  42.373  36.898   0.393
 9645W        W81905  44.855  23.910   0.277
 9646W        W81906  15.983   4.881   1.098
 9647W        W81907  22.201  41.333  14.477
 9648W        W81908  30.023  16.630  10.667
 9649W        W81909  39.484  30.351  14.517
 9650W        W81910   3.345  18.672  12.874
 9651W        W81911   5.445  20.517  12.034
 9652W        W81912   1.288   7.299  11.908
 9653W        W81913  42.821  28.221   2.831
 9654W        W81914  10.741   4.657  12.490
 9655W        W81915  18.786  40.816   4.372
 9656W        W81916   6.385  14.392  14.536
 9657W        W81917  41.531  31.879   2.784
 9658W        W81918  18.424  10.258  12.548
 9659W        W81919  11.243   3.800   4.644
 9660W        W81920  15.404  40.323   4.150
 9661W        W81921  10.699  35.462   3.296
 9662W        W81922  28.501  13.864  14.901
 9663W        W81923  38.891  23.143  10.655
 9664W        W81924  29.628  35.132  11.663
 9665W        W81925  39.953  21.185   1.834
 9666W        W81926   5.892  19.745   2.222
 9667W        W81927  42.407  30.668   4.544
 9668W        W81928  19.456  42.877   4.964
 9669W        W81929  33.383  20.328  14.368
 9670W        W81930  21.411  19.574  12.116
 9671W        W81931   5.764   2.885  13.145
 9672W        W81932  27.582  40.165   4.499
 9673W        W81933   5.719  21.064  10.824
 9674W        W81934   8.420  21.941   0.655
 9675W        W81935  16.408  40.503   1.292
 9676W        W81936  16.640   1.486  14.261
 9677W        W81937  23.489  10.713   3.777
 9678W        W81938  43.226  33.368   3.744
 9679W        W81939  39.029  13.298   2.886
 9680W        W81940  13.241  20.683   1.666
 9681W        W81941  12.202   9.605  14.965
 9682W        W81942  14.648  25.246   2.389
 9683W        W81943  17.781  12.936   3.247
 9684W        W81944  29.708   2.958  13.323
 9685W        W81945  31.112  20.087   3.253
 9686W        W81946  18.632  40.837  13.913
 9687W        W81947   7.816   1.908  12.768
 9688W        W81948   1.766  16.036  13.470
 9689W        W81949  39.106  14.787   4.122
 9690W        W81950  24.872  22.924  14.187
 9691W        W81951  33.568  24.603  12.645
 9692W        W81952  24.171   5.201   1.057
 9693W        W81953  20.168   7.428  14.537
 9694W        W81954  31.350  19.783  11.935
 9695W        W81955  14.063  29.428   0.294
 9696W        W81956  10.690  31.970   4.955
 9697W        W81957  19.630  26.454   1.063
 9698W        W81958   4.951   5.719   3.774
 9699W        W81959   6.745   1.327  13.244
 9700W        W81960  25.527  27.884   1.545
 9701W        W81961  29.875  18.030  10.959
 9702W        W81962   8.179  25.204   1.302
 9703W        W81963  30.491  10.668   2.335
 9704W        W81964  40.102  44.984   0.672
 9705W        W81965  12.860  19.925   4.773
 9706W        W81966   8.902  24.481  12.451
 9707W        W81967  12.416  43.675   0.408
 9708W        W81968  43.886  39.039  14.771
 9709W        W81969  16.081   0.862  12.873
 9710W        W81970  14.584  17.281   0.324
 9711W        W81971  30.579   6.916  13.488
 9712W        W81972   9.944  35.898  10.101
 9713W        W81973   7.125   1.484   1.838
 9714W        W81974  20.302  31.362  13.098
 9715W        W81975  41.969  23.748  13.474
 9716W        W81976   8.255  42.877  13.786
 9717W        W81977  25.783  34.139  11.061
 9718W        W81978  12.376  31.318  12.542
 9719W        W81979  22.609  14.077   4.160
 9720W        W81980   9.949  20.427  11.174
 9721W        W81981  30.264   9.493  14.864
 9722W        W81982   5.412  11.290   0.795
 9723W        W81983  16.260   3.343   2.298
 9724W        W81984   2.908  25.576  14.292
 9725W        W81985   3.471  40.036   4.728
 9726W        W81986   1.849   7.741  11.267
 9727W        W81987  44.226  19.585  13.946
 9728W        W81988  16.111   7.345   1.939
 9729W        W81989  20.185  10.380  11.565
 9730W        W81990  36.928   9.656   4.240
 9731W        W81991   3.502   4.466  10.090
 9732W        W81992  26.498  12.675  14.762
 9733W        W81993  11.646  29.902   0.264
 9734W        W81994  14.210  27.802  13.002
 9735W        W81995  14.570  18.171   2.662
 9736W        W81996  28.997   0.337   0.838
 9737W        W81997  31.103   7.851  12.676
 9738W        W81998  12.727   0.433   0.713
 9739W        W81999  30.336  22.520   4.689
 9740W        W82000   0.208  26.760   4.666
 9741W        W82001  16.260  41.311  11.447
 9742W        W82002  31.420  15.662   5.021
 9743W        W82003   8.958   3.841  11.307
 9744W        W82004   5.734  14.887  13.827
 9745W        W82005  37.359   5.846  11.931
 9746W        W82006  24.187  16.089   0.427
 9747W        W82007  20.043  11.387  11.555
 9748W        W82008   7.453  32.266   0.781
 9749W        W82009  30.467   5.312  13.719
 9750W        W82010  11.305   1.091   0.391
 9751W        W82011  19.577  26.236   1.899
 9752W        W82012   4.229   6.317  12.221
 9753W        W82013  21.348  44.990  12.867
 9754W        W82014   5.713  28.606   2.598
 9755W        W82015  38.934  26.602  12.166
 9756W        W82016  37.444  17.155  13.491
 9757W        W82017  30.691  20.559   2.542
 9758W        W82018   5.710  26.506  13.839
 9759W        W82019  19.642  22.697  13.238
 9760W        W82020  40.060   1.269   3.576
 9761W        W82021   3.722  24.936   0.795
 9762W        W82022  29.744   9.407  14.866
 9763W        W82023   4.389  17.077   2.397
 9764W        W82024   7.711  26.808  10.831
 9765W        W82025  42.601   0.025   2.335
 9766W        W82026   8.744  21.007   1.233
 9767W        W82027  25.142  29.888   3.236
 9768W        W82028  44.199  31.088   1.021
 9769W        W82029  23.131   4.133   4.123
 9770W        W82030  35.013  29.528   0.647
 9771W        W82031  42.493  41.988  12.827
 9772W        W82032   9.490  23.523   2.984
 9773W        W82033   1.309  10.626  12.872
 9774W        W82034  20.976   1.391   1.523
 9775W        W82035  25.492  29.088   0.658
 9776W        W82036  19.511   5.894   2.424
 9777W        W82037   0.396  32.652  14.455
 9778W        W82038  39.492   7.865  11.535
 9779W        W82039  32.107  19.784   0.733
 9780W        W82040  10.315  41.098  13.929
 9781W        W82041  27.019   7.177   3.916
 9782W        W82042  38.608  17.637   2.236
 9783W        W82043  33.158  30.464  13.572
 9784W        W82044  34.965   8.339  14.758
 9785W        W82045  44.030  22.643   1.911
 9786W        W82046  26.417  22.979  11.968
 9787W        W82047  36.167  40.625  14.330
 9788W        W82048  17.078  33.893   5.071
 9789W        W82049  43.013  39.854   4.166
 9790W        W82050  19.001  19.815   1.309
 9791W        W82051  38.511  34.691   2.404
 9792W        W82052   5.889  27.194   1.981
 9793W        W82053   9.382   7.589  11.487
 9794W        W82054  15.507  35.673  14.875
 9795W        W82055  18.235   1.492  12.388
 9796W        W82056  19.785   1.383  14.423
 9797W        W82057  17.256  24.518  14.721
 9798W        W82058   0.796  25.449  11.593
 9799W        W82059   4.980  22.459   0.796
 9800W        W82060  12.561  32.998  13.934
 9801W        W82061  17.332  30.436   2.721
 9802W        W82062  31.669  14.890  12.569
 9803W        W82063  26.062  12.891  13.128
 9804W        W82064  31.051  27.249  10.663
 9805W        W82065  27.696  31.542   3.201
 9806W        W82066  19.199  40.279   0.303
 9807W        W82067  36.280  10.182   1.864
 9808W        W82068  36.325   3.793  10.533
 9809W        W82069  30.958  22.596  14.697
 9810W        W82070  15.996  17.569   3.686
 9811W        W82071   0.882  41.419  13.817
 9812W        W82072  16.180  35.525  12.126
 9813W        W82073  20.932  33.015  14.409
 9814W        W82074  28.680  36.862  14.483
 9815W        W82075  20.103   7.089  12.511
 9816W        W82076  12.914  41.248   1.795
 9817W        W82077   0.326  31.279  13.584
 9818W        W82078   6.671  41.481   1.327
 9819W        W82079  16.191  15.885  13.055
 9820W        W82080  10.647  38.056   3.193
 9821W        W82081  43.830   5.198   2.391
 9822W        W82082  37.758  44.255   4.306
 9823W        W82083  14.378  12.183   0.875
 9824W        W82084  12.145  20.759  12.659
 9825W        W82085  10.995  38.939  13.408
 9826W        W82086   0.878  41.998  12.488
 9827W        W82087   4.018   7.235  13.398
 9828W        W82088   3.028  25.699   1.727
 9829W        W82089   8.886   6.846   1.124
 9830W        W82090  23.150  11.429   1.239
 9831W        W82091  11.950  42.517   3.227
 9832W        W82092  21.735  15.923   0.188
 9833W        W82093  42.885  42.001   1.893
 9834W        W82094   0.263  20.933  14.253
 9835W        W82095  43.431  40.106   0.945
 9836W        W82096  13.528   1.894  13.999
 9837W        W82097  14.790  15.845   1.746
 9838W        W82098  42.971  32.834   2.278
 9839W        W82099  13.055  26.626  11.620
 9840W        W82100  35.624  19.511  13.969
 9841W        W82101  12.514  24.691  11.565
 9842W        W82102  28.620  38.295   2.354
 9843W        W82103  36.022  17.235  11.476
 9844W        W82104  27.273   7.737   0.331
 9845W        W82105  15.293   7.911  11.984
 9846W        W82106  31.704  44.759  14.037
 9847W        W82107  32.149   8.778   1.237
 9848W        W82108  43.344  17.888  12.048
 9849W        W82109   1.257  31.322   1.241
 9850W        W82110  38.872  36.941   4.532
 9851W        W82111  44.311  43.493  12.022
 9852W        W82112  19.039  36.801   3.723
 9853W        W82113  42.735   7.469  14.889
 9854W        W82114  42.237  21.656   0.518
 9855W        W82115  42.388  44.398  10.912
 9856W        W82116   1.013  29.404  10.336
 9857W        W82117   2.090  15.776  13.770
 9858W        W82118  24.067  20.576  10.164
 9859W        W82119  36.397  35.863   3.682
 9860W        W82120  22.545   8.119  12.479
 9861W        W82121  38.884  34.472  11.139
 9862W        W82122  22.624  32.640   1.946
 9863W        W82123  39.518  13.285  11.993
 9864W        W82124  14.033  13.872  12.911
 9865W        W82125  16.763  19.567   2.936
 9866W        W82126   1.266  23.510  12.919
 9867W        W82127  29.948  12.842   2.421
 9868W        W82128  13.236  36.260   1.493
 9869W        W82129   5.322  32.505  11.169
 9870W        W82130  18.254  15.623  14.940
 9871W        W82131  15.055  22.733   0.698
 9872W        W82132  15.734  16.524  10.033
 9873W        W82133  33.137   0.354   4.730
 9874W        W82134  37.957  42.963  13.534
 9875W        W82135  15.400  12.812   3.340
 9876W        W82136  17.583  34.176  14.864
 9877W        W82137  21.075  20.301   0.745
 9878W        W82138  32.533   7.674   4.380
 9879W        W82139  39.028   8.316  10.615
 9880W        W82140  40.956  26.680   4.014
 9881W        W82141   6.534   2.338  13.419
 9882W        W82142  21.646  44.655  12.592
 9883W        W82143  20.108  19.281  11.199
 9884W        W82144  18.132  14.632   3.280
 9885W        W82145  44.329  31.864  12.825
 9886W        W82146  15.293  19.233  12.061
 9887W        W82147  33.581  31.584   0.865
 9888W        W82148  17.444  24.218  11.525
 9889W        W82149  20.816   7.244   2.461
 9890W        W82150  17.099  33.453  10.717
 9891W        W82151  43.970  29.230  10.727
 9892W        W82152  40.874  28.429   2.579
 9893W        W82153  40.451  19.713   4.561
 9894W        W82154  10.314   3.688  12.991
 9895W        W82155  35.916  27.990   4.649
 9896W        W82156   8.336   1.786   3.092
 9897W        W82157  21.174   0.726  12.590
 9898W        W82158   0.291  41.565  14.563
 9899W        W82159   3.285  42.857   3.729
 9900W        W82160  29.560  19.302   1.961
 9901W        W82161   7.488  15.674  11.136
 9902W        W82162   9.433   0.050  13.276
 9903W        W82163   4.869  21.482   0.704
 9904W        W82164  28.986  15.109   1.680
 9905W        W82165  30.580  32.407   0.336
 9906W        W82166   5.788  19.234   1.220
 9907W        W82167  42.357  22.217  14.474
 9908W        W82168  36.513   9.906   4.496
 9909W        W82169  34.897   2.686  13.007
 9910W        W82170   0.728  27.450  13.995
 9911W        W82171  22.201   2.747   4.510
 9912W        W82172  44.015  40.614   1.641
 9913W        W82173   6.689   9.360   2.284
 9914W        W82174  22.859  42.403  10.216
 9915W        W82175  18.782   0.885   4.637
 9916W        W82176  33.911  43.779  14.450
 9917W        W82177  35.583  12.396  11.604
 9918W        W82178  38.511  44.487   3.695
 9919W        W82179  18.174  17.125  14.513
 9920W        W82180  36.948  28.001  14.298
 9921W        W82181   4.193  29.639   0.570
 9922W        W82182   1.401  42.890   2.053
 9923W        W82183   4.158  42.596  12.090
 9924W        W82184   1.030  17.750   2.776
 9925W        W82185  36.854  26.321   4.155
 9926W        W82186  22.506  28.347  10.086
 9927W        W82187   3.518  23.494  12.555
 9928W        W82188   0.488  39.301   3.920
 9929W        W82189  12.246  28.088  10.201
 9930W        W82190  28.247  34.535   4.564
 9931W        W82191   6.482  37.638  13.558
 9932W        W82192  17.312  32.050  14.860
 9933W        W82193  20.744   9.042  12.537
 9934W        W82194  11.092  32.816  13.845
 9935W        W82195  18.739  26.107  12.020
 9936W        W82196  32.650  12.103  11.597
 9937W        W82197  39.965  13.184  10.711
 9938W        W82198  38.582  23.969   1.183
 9939W        W82199   4.665  28.504  11.942
 9940W        W82200  28.142  26.400  12.122
 9941W        W82201  28.887  39.099   4.368
 9942W        W82202  13.468  23.508  10.799
 9943W        W82203  18.239   0.878   4.693
 9944W        W82204  39.841  24.061  13.774
 9945W        W82205  39.599  10.275   3.243
 9946W        W82206  28.277  21.707   0.822
 9947W        W82207  15.048  14.732  10.256
 9948W        W82208   0.817  12.594  13.993
 9949W        W82209  15.113  37.771  14.353
 9950W        W82210   7.354   5.124  11.922
 9951W        W82211  42.000  31.202  14.393
 9952W        W82212  23.660  19.213  12.112
 9953W        W82213  19.712  21.303  10.805
 9954W        W82214  19.710  19.269   0.415
 9955W        W82215  16.177  22.567  12.575
 9956W        W82216   0.849  23.678  14.449
 9957W        W82217  12.617  25.874  11.998
 9958W        W82218  41.890  18.579   2.610
 9959W        W82219  43.547  19.713   4.625
 9960W        W82220  11.472   5.983   0.464
 9961W        W82221  23.498  38.023  14.015
 9962W        W82222   5.888  38.693  12.110
 9963W        W82223   3.411   7.340  10.607
 9964W        W82224   2.695  34.039   3.690
 9965W        W82225  41.436  31.557   4.381
 9966W        W82226  38.111  15.688  11.590
 9967W        W82227  28.221  42.308   0.734
 9968W        W82228  34.073   2.254   0.452
 9969W        W82229  17.734  44.463  11.459
 9970W        W82230  21.530  19.171  14.426
 9971W        W82231  34.105  37.524  11.168
 9972W        W82232  31.037  22.974  13.406
 9973W        W82233  24.775  23.248   3.309
 9974W        W82234  15.784  43.526   3.579
 9975W        W82235   8.612  12.370  10.712
 9976W        W82236  17.047  10.640   2.870
 9977W        W82237   9.609  36.627   0.014
 9978W        W82238  18.042  35.040  12.387
 9979W        W82239   5.362  44.365  10.697
 9980W        W82240  41.492  38.476  12.382
 9981W        W82241  38.819  38.433  13.037
 9982W        W82242  12.689  24.148   3.274
 9983W        W82243  35.339  31.213   3.691
 9984W        W82244   4.846  43.470   0.454
 9985W        W82245   5.705   5.002  13.020
 9986W        W82246  28.288   6.318   3.204
 9987W        W82247  20.663  13.035   1.405
 9988W        W82248  10.264  10.666  12.437
 9989W        W82249   7.468   5.784  12.379
 9990W        W82250  24.880   2.737  11.866
 9991W        W82251  39.530  28.974  13.389
 9992W        W82252  36.516  44.748  10.513
 9993W        W82253  31.603  42.109   2.855
 9994W        W82254   5.644  40.090   0.594
 9995W        W82255  41.871   9.617   0.404
 9996W        W82256  29.061  42.365   4.797
 9997W        W82257  29.727  44.378  14.503
 9998W        W82258  38.342  35.968   1.189
 9999W        W82259   4.715  31.293  12.278
10000W        W82260  37.080   0.020  11.177
10001W        W82261  31.229  17.301  13.881
10002W        W82262   3.701   1.493   0.360
10003W        W82263  22.849  33.973  11.724
10004W        W82264  39.315  25.505   1.932
10005W        W82265  42.277  24.877   4.998
10006W        W82266  40.991   7.521  13.300
10007W        W82267  19.103  19.230  11.100
10008W        W82268  40.216   8.385  12.452
10009W        W82269   4.328   6.306  14.863
10010W        W82270   3.191  16.050  13.946
10011W        W82271   9.934  17.737  11.349
10012W        W82272   7.022  12.114   0.476
10013W        W82273   5.886  40.982  14.664
10014W        W82274  28.463  21.068   2.678
10015W        W82275   4.346  43.889   4.942
10016W        W82276  25.650  37.449  14.380
10017W        W82277   2.644  33.637   0.574
10018W        W82278  44.699  34.612  11.524
10019W        W82279  42.826  22.986   1.331
10020W        W82280   1.158  24.789  13.538
10021W        W82281  38.100  31.895   0.643
10022W        W82282  23.979  41.393   2.148
10023W        W82283   8.114   8.097  12.971
10024W        W82284   0.721  28.206  12.157
10025W        W82285  24.112  23.545  13.418
10026W        W82286  16.302  22.704  14.953
10027W        W82287   7.498  17.823  14.874
10028W        W82288  30.540  36.159   1.179
10029W        W82289  37.074  15.870   2.077
10030W        W82290  12.771  33.923  10.497
10031W        W82291   7.795   2.067   4.433
10032W        W82292  16.875  24.505  10.928
10033W        W82293   1.510   9.192  14.477
10034W        W82294   8.448   9.409  14.595
10035W        W82295  10.586  36.884   0.306
10036W        W82296  26.663  38.044  14.449
10037W        W82297  42.389  28.127   1.222
10038W        W82298  18.175  15.139  13.267
10039W        W82299  37.509  41.946   0.904
10040W        W82300  32.124  10.100   3.425
10041W        W82301  10.710  10.789  13.919
10042W        W82302   0.561  25.487   4.287
10043W        W82303  44.459  31.811   0.511
10044W        W82304   3.030  37.996   1.296
10045W        W82305  30.598  18.038  11.517
10046W        W82306  27.216  38.635   2.368
10047W        W82307   7.634   8.748   0.888
10048W        W82308  29.035  19.263   0.276
10049W        W82309  22.066  29.118   5.605
10050W        W82310  13.653  19.131   1.453
10051W        W82311  12.126   3.254   1.823
10052W        W82312  14.207  19.028  13.746
10053W        W82313  37.113  40.242  13.468
10054W        W82314  41.564   3.624  14.588
10055W        W82315   6.296  17.902  11.206
10056W        W82316  43.160   3.670   1.895
10057W        W82317  31.713   5.416  11.890
10058W        W82318  42.880  44.225  11.488
10059W        W82319  44.502   9.633  13.432
10060W        W82320  28.401   1.912   0.233
10061W        W82321   6.395   7.002   0.825
10062W        W82322  13.927  34.930   4.386
10063W        W82323   8.392  36.570   3.828
10064W        W82324  15.618  23.999   1.723
10065W        W82325  10.784  33.973   4.057
10066W        W82326   4.497  13.983   0.767
10067W        W82327  19.720  30.341   0.496
10068W        W82328  36.937  15.149  11.555
10069W        W82329  39.452   9.582  11.873
10070W        W82330  39.347  27.178  12.880
10071W        W82331  28.221  31.580   0.188
10072W        W82332  25.871  31.719  13.557
10073W        W82333  31.423  41.835  14.806
10074W        W82334  44.168  31.877   1.772
10075W        W82335  40.488   0.919  13.463
10076W        W82336  37.083  19.249   3.663
10077W        W82337  18.821  23.715  13.879
10078W        W82338  31.185   4.368  14.915
10079W        W82339  32.755   5.984   3.256
10080W        W82340  33.901  13.919  14.270
10081W        W82341  11.729  32.193  12.937
10082W        W82342  36.637  13.296   3.288
10083W        W82343  34.659   8.369   1.893
10084W        W82344   4.566  32.069   1.460
10085W        W82345  33.679  26.207  12.413
10086W        W82346  42.974   2.052   2.584
10087W        W82347  39.967  10.801  13.064
10088W        W82348  24.845  32.986   2.735
10089W        W82349  12.238  31.555  11.610
10090W        W82350  21.169  28.287  14.769
10091W        W82351  22.270  33.445   4.558
10092W        W82352  18.452  28.835  13.884
10093W        W82353  35.209  23.940  11.685
10094W        W82354  37.975  33.685  14.379
10095W        W82355  23.703  32.216  14.424
10096W        W82356   2.854  18.335  12.855
10097W        W82357  23.335  15.770   3.316
10098W        W82358   4.150  42.177   1.720
10099W        W82359  10.957  39.394   1.892
10100W        W82360  23.172  12.639  11.089
10101W        W82361  36.608  30.084  13.453
10102W        W82362  41.937  11.352  12.869
10103W        W82363  11.822  14.139  11.732
10104W        W82364  22.200  13.096  11.007
10105W        W82365  18.952  15.926  12.946
10106W        W82366  17.992  29.593   1.649
10107W        W82367   8.729  28.076   0.797
10108W        W82368  20.380   6.115   9.752
10109W        W82369  21.590   6.145  13.008
10110W        W82370  31.331  31.431   4.634
10111W        W82371  15.610  16.670  13.501
10112W        W82372  33.050   2.418   4.252
10113W        W82373  24.696  34.129   0.461
10114W        W82374  10.566  19.463  10.998
10115W        W82375  41.500  15.536   2.893
10116W        W82376  28.197  37.670   5.050
10117W        W82377  18.731  21.736  13.495
10118W        W82378   2.457   8.949  12.021
10119W        W82379  41.889  22.635  10.706
10120W        W82380  29.252  21.999   3.687
10121W        W82381   4.238  17.607   2.444
10122W        W82382  22.300  15.029   2.376
10123W        W82383  15.245  25.021  13.920
10124W        W82384   4.929  17.814   4.501
10125W        W82385  14.859  18.073   1.419
10126W        W82386  40.004  13.725   1.403
10127W        W82387   5.429  44.400   1.803
10128W        W82388  27.672  42.433   4.541
10129W        W82389   0.857  28.437   2.653
10130W        W82390  44.288  31.102  10.634
10131W        W82391   2.505   7.417  10.554
10132W        W82392   5.560  39.991  14.630
10133W        W82393  36.554  31.426   2.406
10134W        W82394   8.817   1.473  11.314
10135W        W82395  42.996   0.493  10.735
10136W        W82396  12.247  38.285   2.844
10137W        W82397  27.645  39.927   2.428
10138W        W82398  42.521  32.254   3.445
10139W        W82399  37.315  25.215  12.965
10140W        W82400  35.642  29.871  14.338
10141W        W82401   3.236  15.055  12.569
10142W        W82402  25.274  11.538   0.625
10143W        W82403   7.821  25.017   2.142
10144W        W82404   0.442  25.659   3.823
10145W        W82405   2.554  44.266  11.686
10146W        W82406  39.906  28.990  12.584
10147W        W82407  29.587  14.439   3.565
10148W        W82408  13.076   8.245   0.032
10149W        W82409   5.195  24.395  14.996
10150W        W82410  13.245  36.161  13.773
10151W        W82411  35.381   2.423  13.055
10152W        W82412  16.052   4.863  13.488
10153W        W82413  42.571   5.256   0.281
10154W        W82414  32.876  41.324  14.900
10155W        W82415  35.071  43.053  10.270
10156W        W82416  44.755   5.293  12.380
10157W        W82417  41.158  44.808   3.139
10158W        W82418   8.373   7.253  13.910
10159W        W82419   6.540  18.559   4.652
10160W        W82420  31.807   0.434  14.382
10161W        W82421  38.255  44.268   4.102
10162W        W82422  36.083  28.675   4.069
10163W        W82423  39.197  21.753  12.445
10164W        W82424  20.131   3.027  11.022
10165W        W82425  31.053  11.822  13.039
10166W        W82426  32.771   3.814   0.812
10167W        W82427  38.925  10.120   3.683
10168W        W82428  34.651  15.121  12.643
10169W        W82429  35.040   5.182  10.730
10170W        W82430   2.817  12.754   0.959
10171W        W82431  41.146   5.301  10.597
10172W        W82432   4.833  14.653  12.080
10173W        W82433   6.362  27.019  13.961
10174W        W82434  26.521   7.215  11.140
10175W        W82435  26.771   1.800  12.815
10176W        W82436  35.538  19.498  10.189
10177W        W82437  24.545  12.696   0.901
10178W        W82438  44.785  11.881  11.974
10179W        W82439  40.763  14.241   4.148
10180W        W82440  22.226  28.404  13.132
10181W        W82441   6.854   9.328   3.148
10182W        W82442   7.926  14.610   2.690
10183W        W82443  15.512  33.169   3.729
10184W        W82444   1.557  42.934  12.127
10185W        W82445  39.349  29.095  10.442
10186W        W82446  35.392  19.425   0.777
10187W        W82447  13.105  40.060  13.548
10188W        W82448  44.794  25.251  11.524
10189W        W82449   6.692  25.703   1.912
10190W        W82450  38.002  37.930   3.821
10191W        W82451   8.124   9.671  14.898
10192W        W82452   7.934   3.810   3.781
10193W        W82453   6.801  13.079  14.346
10194W        W82454   3.491   3.923  11.106
10195W        W82455  16.659   3.258  10.486
10196W        W82456  27.670   3.271  10.662
10197W        W82457  30.461  14.620   3.672
10198W        W82458   6.189  14.804  12.979
10199W        W82459  42.210  27.482   2.163
10200W        W82460  21.387  28.209   2.359
10201W        W82461  13.735  41.906   1.888
10202W        W82462  24.636  21.639   3.410
10203W        W82463  42.975  44.329   0.499
10204W        W82464  32.958   9.479  11.102
10205W        W82465  39.286  40.398  11.257
10206W        W82466  40.528  20.823  11.601
10207W        W82467   9.167  17.986  12.948
10208W        W82468  37.595  22.199   4.500
10209W        W82469  31.989  42.958   0.495
10210W        W82470  11.704   7.177  12.686
10211W        W82471   6.343  31.400  10.578
10212W        W82472   5.666  36.809   1.432
10213W        W82473  37.542   7.859   0.874
10214W        W82474  44.263  38.076   1.827
10215W        W82475  23.157  39.526   0.868
10216W        W82476   0.645  18.497  12.536
10217W        W82477  27.695   1.398   0.380
10218W        W82478  17.586  37.117   1.838
10219W        W82479  37.798  18.301  11.266
10220W        W82480  34.933  19.648   0.923
10221W        W82481   6.392  10.339   0.235
10222W        W82482  13.062  20.756   0.253
10223W        W82483  29.926  18.723   2.866
10224W        W82484  28.535  10.150   0.451
10225W        W82485  35.460  44.425   1.437
10226W        W82486  35.601  21.887  12.063
10227W        W82487  24.572  24.112   3.812
10228W        W82488   2.424  15.117   1.660
10229W        W82489  42.015   0.485  13.428
10230W        W82490  18.852  34.608   1.696
10231W        W82491  37.520  44.948  11.474
10232W        W82492  27.518  29.477   1.248
10233W        W82493  15.536  32.093  12.657
10234W        W82494  31.864   9.808   4.732
10235W        W82495  22.305  16.702   1.387
10236W        W82496  16.354  18.207  12.818
10237W        W82497  26.043  23.424   4.824
10238W        W82498  44.322  11.581  12.494
10239W        W82499  24.578  22.093   1.831
10240W        W82500  29.162  27.013   0.629
10241W        W82501  24.647  39.447  14.319
10242W        W82502   1.315  25.682  13.298
10243W        W82503  10.355  32.203   0.743
10244W        W82504  43.767  10.744  12.619
10245W        W82505  32.553  18.630   4.847
10246W        W82506  21.332  24.541  12.827
10247W        W82507  38.996  30.602   2.407
10248W        W82508  22.822  41.381   4.581
10249W        W82509  40.506  11.940  12.538
10250W        W82510   4.300  23.064   0.180
10251W        W82511   0.499   5.829  14.992
10252W        W82512  37.649  11.726   0.316
10253W        W82513  39.826  25.988   0.847
10254W        W82514  23.575   8.616  14.380
10255W        W82515   7.493  28.636   5.711
10256W        W82516   0.321  10.934   3.711
10257W        W82517  29.495   3.514   1.232
10258W        W82518  39.131  22.776   2.421
10259W        W82519  25.046  18.300   2.768
10260W        W82520  10.313   6.212  12.356
10261W        W82521   2.799  30.888   3.617
10262W        W82522  31.721  39.405   3.591
10263W        W82523  31.986  31.461   2.279
10264W        W82524   9.564  27.936  10.767
10265W        W82525  19.035  36.302   3.794
10266W        W82526   3.830  11.385  13.864
10267W        W82527  34.882  21.134  14.370
10268W        W82528   0.444  32.710   4.535
10269W        W82529  40.334  38.455  11.054
10270W        W82530  42.549   4.433  12.291
10271W        W82531  28.519  33.856   2.580
10272W        W82532  30.943  17.846  14.289
10273W        W82533  15.773  30.883   1.906
10274W        W82534  35.482  27.211  10.447
10275W        W82535  10.762  38.455   0.491
10276W        W82536  31.917  21.811  11.391
10277W        W82537   2.168  30.889  10.610
10278W        W82538   1.173  40.841  14.973
10279W        W82539  13.010  13.630  12.774
10280W        W82540  29.995  39.577  11.982
10281W        W82541  14.283  12.658   0.695
10282W        W82542   3.267  19.201   0.076
10283W        W82543  37.305   8.717  13.849
10284W        W82544  22.045  39.397   0.622
10285W        W82545   7.479  30.122  10.846
10286W        W82546  33.603  16.701   2.767
10287W        W82547  25.967  33.527   1.348
10288W        W82548  40.734  15.831  12.955
10289W        W82549  39.664  35.603  12.020
10290W        W82550   7.004  22.671   2.149
10291W        W82551  36.621  11.754   0.303
10292W        W82552  39.812   4.989  14.268
10293W        W82553  22.785   1.852   4.185
10294W        W82554   7.406  21.789   2.788
10295W        W82555  39.082  35.327   4.603
10296W        W82556   1.549  17.547  12.466
10297W        W82557  13.006  10.268   0.115
10298W        W82558  15.584  39.083  14.273
10299W        W82559  17.639  38.762   1.598
10300W        W82560  31.148  15.069  14.534
10301W        W82561   0.462  11.811   4.292
10302W        W82562   1.651  20.329  11.134
10303W        W82563  14.333  13.680   0.665
10304W        W82564   0.645  37.443   4.120
10305W        W82565  16.208  16.650  12.178
10306W        W82566  33.374  17.053  11.603
10307W        W82567  41.392   8.394  10.614
10308W        W82568  18.439  40.755   2.578
10309W        W82569  40.862   2.922   4.487
10310W        W82570  10.889  32.258  12.539
10311W        W82571  38.945  31.916   4.558
10312W        W82572  42.417   5.721  11.637
10313W        W82573  16.458  34.825   4.257
10314W        W82574  31.235  32.091  11.566
10315W        W82575  30.193  30.403   1.326
10316W        W82576  31.368  43.933   2.216
10317W        W82577   0.920  38.047   1.377
10318W        W82578   2.843  21.694   2.746
10319W        W82579  28.886   2.646  12.837
10320W        W82580  32.529  18.822   1.395
10321W        W82581  25.533  26.247  12.765
10322W        W82582  30.137  23.977   3.739
10323W        W82583   7.780  18.468   4.627
10324W        W82584  42.293   6.902   4.294
10325W        W82585  14.824  14.812  13.902
10326W        W82586  29.853  38.066  14.385
10327W        W82587  23.220  25.503   0.086
10328W        W82588  24.760  18.172  13.873
10329W        W82589   7.251  15.271  12.473
10330W        W82590  31.987  35.500  10.689
10331W        W82591  12.473  28.854  14.817
10332W        W82592  30.981  37.342  12.120
10333W        W82593  21.504  28.177   0.190
10334W        W82594  23.114  38.731  11.063
10335W        W82595  18.561  27.956  11.597
10336W        W82596  26.301   8.721  13.881
10337W        W82597   2.302  41.790   0.856
10338W        W82598   3.862  28.401   0.438
10339W        W82599   5.453  13.161   2.614
10340W        W82600  25.171  42.018   5.366
10341W        W82601  17.750  40.910  12.147
10342W        W82602  30.155  33.555   2.177
10343W        W82603  12.323   4.695  12.414
10344W        W82604  26.231  14.889  10.751
10345W        W82605   1.496  19.844   1.850
10346W        W82606  33.802  33.880  11.565
10347W        W82607  33.971   7.304   2.972
10348W        W82608  27.094  37.306  11.004
10349W        W82609  38.653  36.600  12.469
10350W        W82610  44.918   6.885   2.213
10351W        W82611  18.783   4.265  13.480
10352W        W82612  22.116  26.024   0.824
10353W        W82613  15.137  37.255   2.782
10354W        W82614  31.100  28.745  14.295
10355W        W82615  30.176  33.155   0.312
10356W        W82616  17.269  13.556   4.830
10357W        W82617  43.374   4.286   0.015
10358W        W82618  19.119   9.366  12.416
10359W        W82619   9.324  20.120   2.225
10360W        W82620   2.373   0.311   3.737
10361W        W82621  42.479   5.765  11.116
10362W        W82622  39.886   4.010   1.861
10363W        W82623  43.915  27.057  14.135
10364W        W82624   2.581  44.876  12.727
10365W        W82625  34.001   7.630  12.403
10366W        W82626   5.508  18.802  11.643
10367W        W82627  29.226  16.332  14.389
10368W        W82628  19.229   6.754   3.589
10369W        W82629  17.710  14.827  14.366
10370W        W82630   8.919  44.424   5.032
10371W        W82631  10.487  31.599  10.757
10372W        W82632   1.393  30.957   3.143
10373W        W82633   5.601  37.032   4.224
10374W        W82634  37.969  23.235  11.519
10375W        W82635   6.779  19.175   2.812
10376W        W82636  38.520  28.896  13.275
10377W        W82637   0.562   8.806   1.443
10378W        W82638  10.264  39.529   0.916
10379W        W82639  42.262  23.816   2.280
10380W        W82640  10.189   3.480   2.331
10381W        W82641  15.327   7.175  12.415
10382W        W82642  42.972  13.356   2.903
10383W        W82643   5.051  27.076  12.489
10384W        W82644   8.842  31.942   4.823
10385W        W82645  21.681   2.926   4.244
10386W        W82646  26.634  18.002  14.240
10387W        W82647   1.466   8.816   3.471
10388W        W82648  10.735  40.984   3.111
10389W        W82649  16.122  22.118  12.848
10390W        W82650  31.851  42.886  14.670
10391W        W82651  13.909  33.567  13.003
10392W        W82652   6.858  38.355  10.692
10393W        W82653  36.169  17.265   1.389
10394W        W82654  34.284  41.261   2.166
10395W        W82655  13.275  39.910  11.196
10396W        W82656  33.108  35.657  11.442
10397W        W82657  28.202   7.960  11.777
10398W        W82658  35.091  42.376   4.185
10399W        W82659   5.875  35.777   4.273
10400W        W82660  19.109   8.770   4.249
10401W        W82661   4.400  40.143  10.673
10402W        W82662  18.651  13.859   3.224
10403W        W82663   9.264  14.399   2.313
10404W        W82664   1.355  12.684   0.872
10405W        W82665  42.497  18.080  10.438
10406W        W82666  39.496  42.425  14.111
10407W        W82667  12.373   6.978   1.436
10408W        W82668  30.606  10.247  11.968
10409W        W82669  30.496  18.547  12.368
10410W        W82670  21.603  34.381  12.456
10411W        W82671  37.967  14.219   0.429
10412W        W82672  12.741  28.963   4.535
10413W        W82673  38.803  14.159   3.806
10414W        W82674  12.183  19.305   0.297
10415W        W82675  15.088   5.548   2.179
10416W        W82676  12.374  41.515   2.793
10417W        W82677  40.832  33.889  12.262
10418W        W82678  17.251   6.198  13.857
10419W        W82679  42.750   1.924  12.926
10420W        W82680   7.355  14.800   1.474
10421W        W82681  23.269   7.607   0.259
10422W        W82682   4.211  33.627   4.062
10423W        W82683  10.239  30.919   2.263
10424W        W82684  27.326  44.789   4.065
10425W        W82685  38.077   8.014  10.849
10426W        W82686  40.129  42.656  13.692
10427W        W82687  29.032  17.605   0.836
10428W        W82688   6.887  17.503   3.301
10429W        W82689  35.020   8.978  12.886
10430W        W82690   8.961  31.654   4.422
10431W        W82691  27.631  41.401   3.167
10432W        W82692  44.427  32.151   1.355
10433W        W82693  18.777   1.492  13.550
10434W        W82694   2.477  16.550  14.010
10435W        W82695  29.610  41.065  13.966
10436W        W82696  18.963   6.597   4.017
10437W        W82697  23.092  13.908   1.335
10438W        W82698  26.713  43.961   1.310
10439W        W82699   5.639  24.261  14.283
10440W        W82700  39.625  36.825   4.064
10441W        W82701  33.963  20.775   4.135
10442W        W82702  28.357  17.807  13.003
10443W        W82703  18.769  20.647  14.894
10444W        W82704  27.126  26.375  10.345
10445W        W82705  24.728  29.598   2.740
10446W        W82706  43.111  27.748  13.065
10447W        W82707  27.410   5.961   0.278
10448W        W82708  36.989  18.143   0.414
10449W        W82709  38.378  36.933  11.088
10450W        W82710  30.882  37.368   0.049
10451W        W82711  35.165  34.887  11.971
10452W        W82712   6.586  42.457   1.468
10453W        W82713   5.095  12.204   3.752
10454W        W82714  19.100  26.412  11.144
10455W        W82715  21.247  37.321  11.492
10456W        W82716   9.941  40.961  14.318
10457W        W82717  30.261  16.236  14.215
10458W        W82718   3.499  44.946   1.975
10459W        W82719  20.604  12.773   3.922
10460W        W82720  12.761  31.985   0.602
10461W        W82721  13.810  40.558  12.081
10462W        W82722  12.156  14.068  13.948
10463W        W82723  14.365  36.635  11.448
10464W        W82724   3.228  40.124   1.903
10465W        W82725  29.893  13.488   2.246
10466W        W82726  41.996  41.229   0.487
10467W        W82727  24.998   4.208   1.349
10468W        W82728  39.419  16.599  14.922
10469W        W82729  31.512  39.740  14.918
10470W        W82730  30.536  32.508  10.051
10471W        W82731  39.565  35.080   4.528
10472W        W82732  17.598  34.748  14.359
10473W        W82733  17.947  13.842  13.403
10474W        W82734  15.903  44.900  11.167
10475W        W82735  24.925   4.380   4.504
10476W        W82736   5.961   8.503  12.030
10477W        W82737   8.438   0.818  11.608
10478W        W82738  19.057  13.181   0.982
10479W        W82739  33.518  35.995  13.363
10480W        W82740  28.669   9.312   0.758
10481W        W82741  10.469   7.251   3.726
10482W        W82742  13.238   7.319   4.490
10483W        W82743  39.946  14.927   4.765
10484W        W82744  33.419  43.436  11.532
10485W        W82745   2.680   8.808   3.798
10486W        W82746  39.662  18.103   2.816
10487W        W82747   9.121   8.489   3.663
10488W        W82748  11.814  38.383   4.311
10489W        W82749  34.499  26.852  11.607
10490W        W82750  32.470  30.235  12.304
10491W        W82751   6.689  30.018  13.785
10492W        W82752   9.925   3.362   3.762
10493W        W82753  42.418   7.183   0.862
10494W        W82754  41.669   0.549  12.552
10495W        W82755  18.615  24.115  10.591
10496W        W82756  42.487  19.323  11.977
10497W        W82757   9.233  23.125   3.791
10498W        W82758   2.199  29.033   0.832
10499W        W82759  11.337  15.643  10.467
10500W        W82760   4.915   5.983   2.767
10501W        W82761  41.535  11.466  14.099
10502W        W82762  18.554  39.065   2.669
10503W        W82763  26.617  42.714  11.891
10504W        W82764  18.087  41.435  13.248
10505W        W82765  40.017  38.510   2.784
10506W        W82766  44.424  27.629   4.167
10507W        W82767  40.875  12.302  11.559
10508W        W82768  33.323   7.270   0.358
10509W        W82769  18.410   5.358  12.085
10510W        W82770  40.687  19.284   1.728
10511W        W82771  14.536  18.704   3.992
10512W        W82772  31.481   8.213  12.184
10513W        W82773  25.579  11.893  12.536
10514W        W82774   8.265   2.337   4.411
10515W        W82775  12.671  23.074  10.768
10516W        W82776  20.139  12.343  14.833
10517W        W82777  26.256   0.775   5.106
10518W        W82778  39.112  18.567  11.432
10519W        W82779  32.954  19.094  14.487
10520W        W82780  20.004  10.740   3.698
10521W        W82781  19.074  34.600  14.539
10522W        W82782  16.051  25.986  13.285
10523W        W82783   7.826   2.310  10.977
10524W        W82784  30.901  13.727   4.594
10525W        W82785  14.765   8.760  11.901
10526W        W82786  11.108  33.069  13.364
10527W        W82787  17.213  11.179  11.105
10528W        W82788  31.680   3.159   1.482
10529W        W82789  28.522  33.650   4.304
10530W        W82790  19.719  37.844   1.265
10531W        W82791  22.795  16.642  10.988
10532W        W82792  38.788  22.001   3.298
10533W        W82793  27.458  31.032   0.373
10534W        W82794  40.612  10.341   3.239
10535W        W82795  31.959  26.483   2.305
10536W        W82796   3.332  36.000   0.419
10537W        W82797  33.147  30.652   1.276
10538W        W82798  42.903  38.143   1.767
10539W        W82799   5.617  31.469  11.000
10540W        W82800  34.914  44.020  13.997
10541W        W82801   2.776  34.056   4.664
10542W        W82802   1.865   7.842   2.608
10543W        W82803  31.725   1.055   2.355
10544W        W82804  36.400   8.479  13.368
10545W        W82805  35.655   1.689   4.091
10546W        W82806  25.674  16.546   2.739
10547W        W82807  36.317  32.195  14.536
10548W        W82808  11.886  28.679   4.120
10549W        W82809  20.505   6.918  12.777
10550W        W82810   4.424   3.699   4.558
10551W        W82811  20.316  14.846   0.284
10552W        W82812  21.648  10.784  10.659
10553W        W82813  31.927   9.358   1.903
10554W        W82814   5.720   7.795   2.229
10555W        W82815   8.666   8.792   3.363
10556W        W82816  42.864  36.504   1.656
10557W        W82817  28.081   9.223  12.317
10558W        W82818  41.445   6.401   3.666
10559W        W82819   1.866   2.963   1.622
10560W        W82820  38.937   1.580  11.900
10561W        W82821  14.214  30.939   1.172
10562W        W82822   2.716  12.687   2.386
10563W        W82823  43.985   4.374  14.343
10564W        W82824  26.900   1.321  13.981
10565W        W82825   7.356  12.891  13.317
10566W        W82826  25.826  37.771   0.000
10567W        W82827  43.745   7.888  13.336
10568W        W82828  19.442  24.076   0.840
10569W        W82829  25.523  40.562   3.830
10570W        W82830  37.918  12.267   2.825
10571W        W82831  12.352  15.123  13.374
10572W        W82832  23.696  10.309   2.191
10573W        W82833  10.922  23.758   4.913
10574W        W82834   3.869  19.271  10.804
10575W        W82835  42.517  22.930   0.879
10576W        W82836  14.565  32.990  14.985
10577W        W82837   8.450   3.820   3.767
10578W        W82838  43.803  40.922  11.547
10579W        W82839  43.689   9.250  14.493
10580W        W82840   2.185  29.193   2.444
10581W        W82841  36.053   2.964  13.378
10582W        W82842   4.298  26.979  11.541
10583W        W82843  33.193  29.124  10.012
10584W        W82844  11.657  27.988   0.239
10585W        W82845  30.906  29.118   3.935
10586W        W82846  31.948   6.482   1.629
10587W        W82847  42.984  40.420  11.015
10588W        W82848  23.539  27.118  11.995
10589W        W82849  40.369  20.809   4.641
10590W        W82850  27.641  35.914  10.727
10591W        W82851  18.685  30.693   3.745
10592W        W82852  39.459  28.154   0.051
10593W        W82853  44.024  19.025   3.461
10594W        W82854  24.437  30.072   4.108
10595W        W82855  30.417  20.658  14.380
10596W        W82856   9.358  28.514  14.529
10597W        W82857  13.846  34.580   3.694
10598W        W82858  20.271  30.381  11.996
10599W        W82859   2.415  42.010   0.405
10600W        W82860   9.662  24.777   2.764
10601W        W82861  27.042  21.276  11.881
10602W        W82862  17.275  30.241   4.152
10603W        W82863  29.327  31.663  14.986
10604W        W82864  28.518  24.250  11.488
10605W        W82865   3.960  31.192   1.915
10606W        W82866  44.684  41.940   2.271
10607W        W82867  18.364  36.235   4.603
10608W        W82868  38.319  26.417  10.758
10609W        W82869  27.463  15.170   0.160
10610W        W82870  43.855   5.899   0.301
10611W        W82871  30.579   6.969  11.215
10612W        W82872  32.650   1.947   2.371
10613W        W82873  34.656  34.111   2.803
10614W        W82874  35.018  43.303   3.703
10615W        W82875  37.533  41.632   2.808
10616W        W82876  30.341  38.463  10.894
10617W        W82877  34.505  42.867  14.729
10618W        W82878   3.590  12.120   2.250
10619W        W82879   0.058  36.496  10.445
10620W        W82880  22.066  23.150  14.996
10621W        W82881  17.318  43.778   0.734
10622W        W82882  18.652   4.984  13.970
10623W        W82883  11.828  24.158  12.519
10624W        W82884  13.107  21.163   2.690
10625W        W82885  44.544  40.083  12.080
10626W        W82886  39.935  27.388   0.859
10627W        W82887  28.306  24.759  14.534
10628W        W82888  37.562  27.990   4.713
10629W        W82889  23.235  19.204   9.770
10630W        W82890  26.419  24.947   3.188
10631W        W82891  13.369   3.318  11.132
10632W        W82892  19.903  35.819  11.838
10633W        W82893  13.210  21.052   3.215
10634W        W82894  24.137  40.867  11.732
10635W        W82895  16.170   3.586  11.904
10636W        W82896  33.119  32.820  12.542
10637W        W82897  16.518   1.498  13.399
10638W        W82898   2.066  38.920   4.536
10639W        W82899  10.585  20.870  14.235
10640W        W82900  40.798  27.966   2.788
10641W        W82901  31.574  33.913   3.810
10642W        W82902  28.746  11.281   0.903
10643W        W82903  19.359   0.923  11.654
10644W        W82904  18.018  17.759   0.385
10645W        W82905  32.772  36.873   4.082
10646W        W82906   3.748  22.948   2.644
10647W        W82907   1.797  10.098   1.140
10648W        W82908  27.872  43.933   4.204
10649W        W82909  43.033   7.667  13.891
10650W        W82910   9.865  18.039  12.611
10651W        W82911  41.844  40.916  13.304
10652W        W82912   7.708  40.581   0.729
10653W        W82913  39.080  36.684   2.363
10654W        W82914   2.293   1.394   2.472
10655W        W82915  25.223  15.748  13.449
10656W        W82916  40.448  18.005   0.202
10657W        W82917  41.839  22.562  11.548
10658W        W82918  27.276  43.512  11.421
10659W        W82919   2.914  21.036  12.482
10660W        W82920   6.852  11.287  10.738
10661W        W82921  37.111  28.878  12.588
10662W        W82922  12.357  44.291   3.249
10663W        W82923  33.621  23.928   4.480
10664W        W82924  44.244  24.243  12.340
10665W        W82925  28.119  29.366   3.214
10666W        W82926  11.669  24.484  11.662
10667W        W82927   3.490  15.948   1.393
10668W        W82928  44.079  39.054  10.711
10669W        W82929  26.187  26.035  11.434
10670W        W82930  35.597  40.101  11.577
10671W        W82931  30.996  26.449   3.391
10672W        W82932   4.449   6.927   4.145
10673W        W82933   7.689   8.231   3.661
10674W        W82934  24.781  10.301  14.965
10675W        W82935  36.091  32.223   0.543
10676W        W82936  27.870  10.737  14.520
10677W        W82937   0.018  25.102  11.951
10678W        W82938  37.971  11.923  12.854
10679W        W82939  29.596  28.199   2.693
10680W        W82940  13.643   8.201  14.387
10681W        W82941  16.138   5.482  11.629
10682W        W82942  36.047  41.074  11.042
10683W        W82943  21.687   8.165  12.674
10684W        W82944   6.341  28.451   2.935
10685W        W82945  23.226  26.479   1.335
10686W        W82946  17.321  36.493  12.798
10687W        W82947  44.788   0.867   4.262
10688W        W82948  42.285  38.547  11.350
10689W        W82949  11.744  39.302  12.054
10690W        W82950  43.415  44.019   2.785
10691W        W82951  43.449  42.710   3.328
10692W        W82952  39.568  30.071   2.609
10693W        W82953  20.958  41.493   0.035
10694W        W82954  28.576   4.910  11.551
10695W        W82955  43.959   0.518  10.665
10696W        W82956  34.811  19.042  11.353
10697W        W82957  26.363  44.360  14.545
10698W        W82958  12.635  41.127   3.918
10699W        W82959  28.563  29.320   0.385
10700W        W82960   6.797  28.512  10.561
10701W        W82961  12.732  14.638   4.566
10702W        W82962  36.442  20.069   2.413
10703W        W82963   3.722  27.040  10.838
10704W        W82964  44.281   7.929  14.841
10705W        W82965  17.872  36.866  12.163
10706W        W82966  29.220   2.034  14.232
10707W        W82967  18.486  31.860  12.517
10708W        W82968   8.324  35.830  12.394
10709W        W82969  40.470  20.302   0.823
10710W        W82970   2.221  20.923  13.215
10711W        W82971  31.845  32.589   2.284
10712W        W82972  40.408  42.445  13.316
10713W        W82973  24.823  39.485  10.189
10714W        W82974  40.500   0.317   2.809
10715W        W82975  15.781  42.479   4.619
10716W        W82976   9.879  25.109   0.330
10717W        W82977   7.547   4.640   3.314
10718W        W82978  20.342  25.198  13.065
10719W        W82979  22.130  18.600  12.833
10720W        W82980   7.330  14.957  13.805
10721W        W82981  29.104  29.200  11.476
10722W        W82982  24.096  21.558   2.426
10723W        W82983  44.901   1.163   2.032
10724W        W82984  37.018   4.445  11.548
10725W        W82985  39.666   6.731  12.618
10726W        W82986  11.350  12.913  10.601
10727W        W82987  38.346  10.098   2.345
10728W        W82988  42.011  37.064   4.178
10729W        W82989  29.102  26.560  14.104
10730W        W82990  12.881  35.832   0.376
10731W        W82991  11.753  20.798  12.297
10732W        W82992  27.431  42.794  14.423
10733W        W82993  29.399  10.641   0.401
10734W        W82994  40.489  43.059  12.034
10735W        W82995  37.171  24.191  12.378
10736W        W82996  30.080   4.013   2.077
10737W        W82997  13.025   0.397  11.870
10738W        W82998  15.608  10.427  13.954
10739W        W82999  39.594  18.729  13.042
10740W        W83000  31.330  41.310  13.814
10741W        W83001  11.732  32.084   0.770
10742W        W83002  25.156  16.302   4.098
10743W        W83003  17.825  25.392   2.622
10744W        W83004  43.808   2.997   1.350
10745W        W83005  22.287  26.277  11.000
10746W        W83006  25.427  37.365  10.557
10747W        W83007  25.258   3.740  13.964
10748W        W83008  33.640  20.758  10.961
10749W        W83009  12.825  26.681   0.409
10750W        W83010  33.494  22.063  10.867
10751W        W83011  26.558  10.839   2.534
10752W        W83012  44.304   2.244   2.443
10753W        W83013  29.314  13.498   3.656
10754W        W83014  27.248  10.786   2.427
10755W        W83015  36.444  23.183  13.640
10756W        W83016  20.246  41.058  13.115
10757W        W83017   8.774  38.032  13.334
10758W        W83018  24.118   1.766   0.674
10759W        W83019   3.137  36.050  13.001
10760W        W83020  19.769   7.448  10.630
10761W        W83021  26.698  35.926  13.603
10762W        W83022  35.209  30.265  13.510
10763W        W83023  20.618  42.889  12.076
10764W        W83024  21.813  28.433   5.011
10765W        W83025  13.956  26.957   0.371
10766W        W83026  22.963  35.514  14.748
10767W        W83027  10.236   1.934  14.045
10768W        W83028  31.126   5.498  12.562
10769W        W83029   3.946   4.960   1.756
10770W        W83030   1.635  10.699  13.863
10771W        W83031  39.175  16.507   0.420
10772W        W83032   0.215  24.659  10.731
10773W        W83033   7.413  43.876   0.919
10774W        W83034   1.867  22.133  11.410
10775W        W83035  29.555   8.319  14.575
10776W        W83036  42.764  33.943  11.530
10777W        W83037  44.995  39.083   1.353
10778W        W83038   3.830  27.523  14.515
10779W        W83039  20.178  43.020   1.244
10780W        W83040   4.853  30.553  10.560
10781W        W83041   6.994   3.342  12.731
10782W        W83042  35.194   0.849  12.163
10783W        W83043   6.643   2.295  14.110
10784W        W83044  19.163  33.255   2.184
10785W        W83045  24.803   6.330  12.594
10786W        W83046  10.194   8.330   2.268
10787W        W83047   0.158  16.075  11.872
10788W        W83048  25.686  31.649   0.231
10789W        W83049   2.991  42.839  13.513
10790W        W83050   3.475  13.181  10.517
10791W        W83051   1.833   8.431   1.882
10792W        W83052  27.734  26.907  10.975
10793W        W83053  20.942   9.344   3.321
10794W        W83054  32.045  38.338   4.634
10795W        W83055  20.079   6.264   3.715
10796W        W83056  41.375  32.071  10.955
10797W        W83057  42.591  23.847  10.873
10798W        W83058  31.486  15.187   4.829
10799W        W83059   6.730  24.182  13.756
10800W        W83060  29.420  37.523   1.449
10801W        W83061  21.519  28.253   4.128
10802W        W83062  38.307   7.340   3.185
10803W        W83063  40.529  40.921   0.227
10804W        W83064  37.502  36.481   2.506
10805W        W83065   5.285  38.928  14.765
10806W        W83066   9.169   2.383  13.935
10807W        W83067  26.540  30.122  11.548
10808W        W83068   5.463   8.672  13.639
10809W        W83069  37.877   4.840  13.459
10810W        W83070  34.532   4.815   1.333
10811W        W83071  41.046   8.735   4.507
10812W        W83072  11.651  29.200  14.636
10813W        W83073   7.167   2.380  12.401
10814W        W83074   4.135  35.360   2.498
10815W        W83075   8.279  43.404  13.802
10816W        W83076   2.422  40.888   4.556
10817W        W83077  25.662  39.805   0.840
10818W        W83078  19.027   2.534  13.491
10819W        W83079  44.017  12.075   0.782
10820W        W83080  24.488  24.751   1.207
10821W        W83081  36.355   4.344   2.158
10822W        W83082  12.245  15.721   1.894
10823W        W83083  26.609   4.522  10.800
10824W        W83084  31.090  34.341  11.511
10825W        W83085  28.033   1.658  10.283
10826W        W83086  30.624  10.258  10.385
10827W        W83087  39.612  36.678  10.789
10828W        W83088  15.570  36.194   2.018
10829W        W83089   5.780   5.233   4.727
10830W        W83090  11.019  31.693   3.647
10831W        W83091  42.804  16.946  10.248
10832W        W83092  38.375  28.712   0.529
10833W        W83093  10.094  38.320  11.846
10834W        W83094  28.957  36.644  11.054
10835W        W83095  24.747  17.909  13.422
10836W        W83096   6.390  37.435   3.548
10837W        W83097  34.597   9.819  13.772
10838W        W83098  39.841  33.787  10.808
10839W        W83099  33.484  30.707   0.347
10840W        W83100  13.874  10.228   2.771
10841W        W83101  29.727   3.723   0.796
10842W        W83102  38.980  41.487  11.529
10843W        W83103  31.865  15.062   2.888
10844W        W83104   5.744  41.004  11.507
10845W        W83105  43.928  32.890  11.881
10846W        W83106   3.002  18.124   1.401
10847W        W83107  37.528   2.147   3.249
10848W        W83108   3.316  32.849   0.079
10849W        W83109  40.614   8.339  12.940
10850W        W83110  15.590  13.801  13.367
10851W        W83111   9.914   6.194  13.366
10852W        W83112  26.630  33.599   3.805
10853W        W83113  16.357   0.977  10.628
10854W        W83114   0.543  35.429  12.745
10855W        W83115   5.800  27.058  12.986
10856W        W83116  37.031   7.188  13.028
10857W        W83117   9.997  41.965  12.347
10858W        W83118   2.102   4.258  11.119
10859W        W83119  14.902  22.746  13.498
10860W        W83120  21.299   7.515   0.048
10861W        W83121  16.110  37.333   0.294
10862W        W83122  30.177   0.404  11.258
10863W        W83123  30.587  12.691  10.270
10864W        W83124   8.647  16.126  13.774
10865W        W83125   7.652   4.705  14.336
10866W        W83126  24.616  21.679   4.415
10867W        W83127  22.781   4.279  14.605
10868W        W83128  16.872   9.486   1.364
10869W        W83129  17.365  28.001  10.660
10870W        W83130  35.366   8.294  13.296
10871W        W83131   2.976  41.017  11.031
10872W        W83132  30.258  12.871  11.073
10873W        W83133  34.028  31.668  14.338
10874W        W83134  42.441  28.158  10.559
10875W        W83135  20.812  32.841  13.937
10876W        W83136   7.701  40.118  13.976
10877W        W83137  20.579   6.243   4.616
10878W        W83138   3.506   1.431  12.076
10879W        W83139  44.300   4.179   3.802
10880W        W83140  39.625  22.086   3.756
10881W        W83141  42.317   0.252   3.507
10882W        W83142   3.748  22.757   1.824
10883W        W83143  37.327  21.291  14.774
10884W        W83144  24.903   3.426   1.005
10885W        W83145   4.763   9.397   0.281
10886W        W83146  21.520  21.971   2.109
10887W        W83147  29.520  20.616   4.130
10888W        W83148  35.116  26.567  13.950
10889W        W83149  34.310   7.315  14.577
10890W        W83150   6.125  24.908   0.785
10891W        W83151  17.004  21.711  10.625
10892W        W83152  12.697  14.325  10.641
10893W        W83153  27.655  12.253  14.396
10894W        W83154  21.187   4.249   4.139
10895W        W83155   3.810   6.036  13.994
10896W        W83156   3.495  34.885   1.816
10897W        W83157   9.913  31.029   1.275
10898W        W83158  25.470  39.307  13.949
10899W        W83159  27.672  37.454  11.569
10900W        W83160  40.994  29.791   1.170
10901W        W83161   3.442  40.232  10.628
10902W        W83162   7.715  25.993   1.498
10903W        W83163  22.856  19.544   4.164
10904W        W83164  24.245   1.503  12.624
10905W        W83165  12.927  11.777  11.215
10906W        W83166  15.063   7.759  10.685
10907W        W83167  19.000  33.574  12.067
10908W        W83168  15.258  34.081  13.140
10909W        W83169  14.651  13.636  10.304
10910W        W83170  13.690  41.770   3.300
10911W        W83171  32.967  24.805   1.358
10912W        W83172  38.284   2.851  12.047
10913W        W83173   6.103  43.269   1.838
10914W        W83174  39.947  38.872  14.302
10915W        W83175  43.477  27.657   2.586
10916W        W83176   3.510  36.897   3.598
10917W        W83177   9.609   6.147   4.284
10918W        W83178  24.368   2.941  13.932
10919W        W83179  33.497  31.034   3.748
10920W        W83180  36.953  28.927  11.681
10921W        W83181   9.687   9.174  12.610
10922W        W83182  26.635  20.099  10.849
10923W        W83183  44.402  34.117  14.937
10924W        W83184  11.608  43.961   1.280
10925W        W83185  17.071  37.291   2.265
10926W        W83186  40.370  40.331  10.726
10927W        W83187   2.714  38.400   2.245
10928W        W83188  12.610  42.467   2.245
10929W        W83189   6.735  13.792   3.216
10930W        W83190  24.518  44.367  14.950
10931W        W83191  39.781  18.155  11.467
10932W        W83192  20.590  40.442   4.708
10933W        W83193  44.852  39.987  10.644
10934W        W83194  23.114  24.982   1.280
10935W        W83195  29.005   0.287   3.662
10936W        W83196  37.667  37.636  13.577
10937W        W83197  25.633   2.809   1.803
10938W        W83198  38.028   0.857   0.519
10939W        W83199  22.778   0.885   1.908
10940W        W83200  24.211  40.336  14.787
10941W        W83201  27.569  12.735  11.450
10942W        W83202   8.395   9.847  11.240
10943W        W83203  10.314  36.339  11.227
10944W        W83204  24.002   5.411   4.590
10945W        W83205  14.233  26.905   2.187
10946W        W83206  13.242  34.977   0.860
10947W        W83207  27.649  34.886  14.026
10948W        W83208  17.747  21.502  10.612
10949W        W83209  34.960  31.567  10.470
10950W        W83210  21.233  41.377   4.573
10951W        W83211   2.496   0.980   2.095
10952W        W83212   6.258  32.299   1.791
10953W        W83213  32.521   1.478  14.980
10954W        W83214   9.587  44.435   5.147
10955W        W83215  33.963  26.140   0.424
10956W        W83216  41.609   0.116  10.562
10957W        W83217  43.948  16.626   3.253
10958W        W83218  29.882  44.830  13.514
10959W        W83219  36.380  27.861  12.763
10960W        W83220   6.189   6.431   0.356
10961W        W83221   1.238  34.108  14.708
10962W        W83222  41.416  21.636  12.908
10963W        W83223  31.162  25.180   0.635
10964W        W83224  34.890   1.701  12.284
10965W        W83225  39.102  40.539  12.597
10966W        W83226  14.004  24.146  11.936
10967W        W83227  22.629  38.818  13.212
10968W        W83228  32.588  21.046  13.399
10969W        W83229  35.404  34.693  13.567
10970W        W83230  25.572  36.388   0.962
10971W        W83231   9.322   2.923   4.182
10972W        W83232  30.663  15.041  11.829
10973W        W83233  40.557  43.625   3.232
10974W        W83234  21.705  23.127   1.359
10975W        W83235  42.013   9.405   2.789
10976W        W83236  17.154  36.526  13.275
10977W        W83237  40.922   5.149   4.583
10978W        W83238  36.975  24.792  13.788
10979W        W83239  14.689  28.525  13.531
10980W        W83240  34.207  14.229  11.962
10981W        W83241   5.862  40.517   0.370
10982W        W83242   8.743  36.782  10.901
10983W        W83243   9.342  31.221   3.836
10984W        W83244  23.375  38.300  11.182
10985W        W83245   2.118   9.059   0.240
10986W        W83246  42.838  25.416  12.068
10987W        W83247  25.005   7.851   1.937
10988W        W83248  26.560  18.892   4.560
10989W        W83249  29.540   0.104  12.668
10990W        W83250  36.041  26.700   4.346
10991W        W83251  12.660   1.991   0.701
10992W        W83252  18.553  34.031   1.977
10993W        W83253   6.920  20.092  14.500
10994W        W83254  33.020  43.781  14.326
10995W        W83255  26.954  17.125  10.688
10996W        W83256   7.180  29.828   3.980
10997W        W83257  24.849  26.148  14.843
10998W        W83258   9.930  19.451   4.034
10999W        W83259  31.616  29.554  13.209
11000W        W83260   7.696  44.486   0.023
11001W        W83261  10.163   9.641  10.631
11002W        W83262  25.632  35.433  12.384
11003W        W83263   8.016  19.181  14.224
11004W        W83264  14.645  26.101   4.286
11005W        W83265  42.416   1.967   0.223
11006W        W83266   0.738  33.960  14.442
11007W        W83267  27.931  17.156  12.120
11008W        W83268  14.206  18.963  11.490
11009W        W83269   1.243  43.411   3.190
11010W        W83270  17.763  27.754  14.487
11011W        W83271  10.826  23.083  13.328
11012W        W83272  25.796   8.879  13.848
11013W        W83273  39.377  25.949   2.229
11014W        W83274   5.602  10.795   1.739
11015W        W83275  20.980  43.477   3.482
11016W        W83276  44.918  37.676   0.214
11017W        W83277  13.645   1.101  13.434
11018W        W83278   5.292  31.048   2.223
11019W        W83279  11.199   4.914   3.214
11020W        W83280  26.087   5.443   3.780
11021W        W83281  40.970   0.773   4.909
11022W        W83282  26.211  20.275   3.146
11023W        W83283  17.188   3.149   2.639
11024W        W83284  14.332  35.015   2.256
11025W        W83285  38.722  36.372  11.297
11026W        W83286  33.506   6.760  14.202
11027W        W83287  33.097   7.272  11.172
11028W        W83288   1.531  29.154  14.389
11029W        W83289  29.164  28.090   2.954
11030W        W83290  22.666  27.571   9.963
11031W        W83291  27.347  39.171  12.939
11032W        W83292  23.753  37.769   2.373
11033W        W83293  24.695  38.795  12.536
11034W        W83294  21.157   3.269   1.372
11035W        W83295  20.846   2.493  11.538
11036W        W83296   8.796  27.997   1.316
11037W        W83297   5.301  38.387  14.001
11038W        W83298  10.918  11.672  11.243
11039W        W83299  43.264  20.545  12.067
11040W        W83300  10.129  10.370  11.509
11041W        W83301  27.226  33.406  12.362
11042W        W83302  13.164  26.082  12.900
11043W        W83303   4.728  35.280  14.778
11044W        W83304   9.873  15.796   4.563
11045W        W83305   2.248  15.054   0.298
11046W        W83306   0.816  44.276   1.341
11047W        W83307  16.060  30.993  14.587
11048W        W83308  39.797  32.535  10.378
11049W        W83309   1.447  30.364   4.936
11050W        W83310  23.700  18.467   4.453
11051W        W83311  12.508  34.602  14.895
11052W        W83312  42.749  22.742  11.457
11053W        W83313  39.439  42.003   3.378
11054W        W83314  12.090  36.919  12.853
11055W        W83315  18.306  12.868   2.825
11056W        W83316   2.873  22.987  11.102
11057W        W83317  34.030  39.532  13.459
11058W        W83318   1.319  34.937   3.952
11059W        W83319  23.952   3.154  10.126
11060W        W83320  13.613  16.183   0.892
11061W        W83321   7.471  25.486   3.226
11062W        W83322   9.124  39.844  12.925
11063W        W83323   2.352  26.985   3.891
11064W        W83324  22.126  29.966   1.182
11065W        W83325   0.038  10.119   2.207
11066W        W83326  24.451  30.645   1.556
11067W        W83327   8.481  22.108  11.038
11068W        W83328   5.684  30.184   0.310
11069W        W83329  17.223   9.853   1.232
11070W        W83330  40.029   5.186   3.282
11071W        W83331  37.696   9.254  14.031
11072W        W83332  34.012  37.267  12.980
11073W        W83333  22.511   0.403   1.402
11074W        W83334  15.542  31.101  14.221
11075W        W83335  24.451   7.792  11.135
11076W        W83336  37.729  37.451  10.080
11077W        W83337   5.854  34.435  12.105
11078W        W83338  41.986  29.980  12.097
11079W        W83339   2.466  22.072  13.114
11080W        W83340   2.174   0.370  13.769
11081W        W83341  13.158  33.855   4.499
11082W        W83342  13.842  22.849  11.918
11083W        W83343  21.664  26.175   5.477
11084W        W83344  17.789  39.324  11.343
11085W        W83345  44.947  30.166  10.628
11086W        W83346   0.943  37.420   2.105
11087W        W83347  28.922  26.695   4.597
11088W        W83348   2.874  23.063  14.682
11089W        W83349  10.126  21.684  13.187
11090W        W83350  37.786  44.722  13.825
11091W        W83351  43.719  16.371   2.873
11092W        W83352  32.167  21.092  13.067
11093W        W83353  23.952  18.371  14.947
11094W        W83354  35.524   1.802   2.638
11095W        W83355  25.334  19.003   0.006
11096W        W83356  41.905  25.496   4.291
11097W        W83357   0.250   9.150   0.516
11098W        W83358  21.103   0.025   4.548
11099W        W83359  40.827  18.308   4.352
11100W        W83360  42.846  20.703  12.366
11101W        W83361   3.462   9.416  13.008
11102W        W83362   1.278   1.847  14.848
11103W        W83363  21.148  23.408   0.932
11104W        W83364  27.533  39.014  11.916
11105W        W83365  31.986   5.650  14.459
11106W        W83366  20.685  32.430  11.454
11107W        W83367  11.643  12.318   2.427
11108W        W83368  43.754  19.752   0.300
11109W        W83369  40.428   1.794   1.386
11110W        W83370  30.633  33.953   3.882
11111W        W83371  31.476   5.357   0.365
11112W        W83372   9.074  39.339   0.231
11113W        W83373   0.440  15.339   0.428
11114W        W83374  15.183  41.870  11.453
11115W        W83375  43.305   7.417  12.531
11116W        W83376  39.292  32.064  13.334
11117W        W83377  25.485  17.141  11.613
11118W        W83378  11.374  43.119  13.816
11119W        W83379  36.291  18.986   3.268
11120W        W83380   6.149  21.047   0.911
11121W        W83381  21.308  34.717   1.147
11122W        W83382  31.520  38.433  14.721
11123W        W83383  43.268  29.468  11.186
11124W        W83384   9.859  42.114   2.036
11125W        W83385  34.326  14.579   5.082
11126W        W83386  27.924  28.950  14.405
11127W        W83387  25.962   6.474  13.156
11128W        W83388  38.210  10.982  13.026
11129W        W83389  16.342   1.428   2.066
11130W        W83390   5.893  13.039  14.432
11131W        W83391  34.038   0.355   4.385
11132W        W83392  21.102   4.536   3.718
11133W        W83393  36.518  37.266  14.324
11134W        W83394   4.735  16.505   4.106
11135W        W83395  31.040  25.188  13.872
11136W        W83396  15.081  11.216   2.638
11137W        W83397  30.171   1.663  13.021
11138W        W83398  44.796  32.890   0.774
11139W        W83399  16.634  12.545  10.994
11140W        W83400  38.436  37.424  10.700
11141W        W83401  43.769   9.843   4.179
11142W        W83402  38.733   3.785   0.711
11143W        W83403   0.796  44.799   1.385
11144W        W83404  22.935  42.999  14.218
11145W        W83405  28.543   4.251  14.051
11146W        W83406  32.575   1.430  13.899
11147W        W83407  20.677  43.045   3.682
11148W        W83408   2.239   8.484  10.697
11149W        W83409  39.443   7.386  14.983
11150W        W83410  12.345   5.724  14.397
11151W        W83411   8.201   0.681   4.590
11152W        W83412  17.009   1.935   1.736
11153W        W83413   7.684  15.227   0.389
11154W        W83414  16.003  39.893   3.035
11155W        W83415  43.549  44.533  13.813
11156W        W83416  26.961  33.428   4.520
11157W        W83417  16.503  24.499   0.855
11158W        W83418  39.070  19.199   3.297
11159W        W83419  39.278  38.134   1.752
11160W        W83420  12.009  33.031  11.994
11161W        W83421  11.784   4.692  13.930
11162W        W83422  21.883  20.128  11.844
11163W        W83423  22.274   3.090  13.871
11164W        W83424  23.574  17.136  11.480
11165W        W83425  42.762  13.495  13.837
11166W        W83426   4.867  36.475  13.924
11167W        W83427  35.336   5.660   2.885
11168W        W83428  36.021   4.120   3.743
11169W        W83429  21.166   0.208  12.466
11170W        W83430  15.195  34.653   3.968
11171W        W83431  26.611  27.013  13.330
11172W        W83432  40.711  30.555   2.722
11173W        W83433  35.401  40.346  12.905
11174W        W83434  32.009  27.664   1.204
11175W        W83435  24.760  16.260   4.916
11176W        W83436  18.479  25.525   4.135
11177W        W83437  17.196  13.271   0.520
11178W        W83438  21.382  25.202   0.225
11179W        W83439  36.879   0.061  12.044
11180W        W83440   6.852  14.935   4.564
11181W        W83441  38.782  40.501   4.441
11182W        W83442  41.892   6.736   2.871
11183W        W83443   7.307  14.097   3.841
11184W        W83444   0.313  43.414  12.348
11185W        W83445   7.190  13.115  11.105
11186W        W83446  42.829  24.705   4.335
11187W        W83447  35.510  17.326  12.037
11188W        W83448  28.632  21.374   3.786
11189W        W83449  12.070  39.268   2.742
11190W        W83450  24.499  29.676   3.189
11191W        W83451  26.265  12.154   2.352
11192W        W83452  20.191  23.553   2.194
11193W        W83453  12.892   1.021   2.839
11194W        W83454  24.292  28.032   4.114
11195W        W83455  43.247  13.187  11.107
11196W        W83456  16.242  14.117   1.366
11197W        W83457   1.308  10.501   4.766
11198W        W83458  14.837  18.217   9.789
11199W        W83459  38.791  17.833   3.649
11200W        W83460  36.385  19.501   3.253
11201W        W83461  16.800  29.393  14.391
11202W        W83462   4.834  13.369  13.678
11203W        W83463  26.550  34.134  13.674
11204W        W83464   5.477  26.519  10.996
11205W        W83465  13.245  10.276   1.400
11206W        W83466  38.893  37.394  14.995
11207W        W83467  44.828  17.654   1.756
11208W        W83468  17.132  43.467   0.351
11209W        W83469  36.798  43.076   3.272
11210W        W83470  32.090  36.694  11.512
11211W        W83471   8.829  24.582   3.321
11212W        W83472  43.937  35.933  13.072
11213W        W83473  29.044  17.411   3.266
11214W        W83474   5.015  29.425  11.099
11215W        W83475  13.026  13.876   4.543
11216W        W83476  32.801  36.033  12.109
11217W        W83477  36.563   0.329   3.358
11218W        W83478  43.443   5.471   3.695
11219W        W83479   1.288  17.668   3.219
11220W        W83480  33.143  20.202  11.674
11221W        W83481   7.645  34.123  13.822
11222W        W83482  12.342  22.166   4.771
11223W        W83483   5.347  17.225  12.275
11224W        W83484   2.930  33.103  14.825
11225W        W83485  20.487   0.003  10.830
11226W        W83486   2.040  36.043  12.055
11227W        W83487  32.102  29.474  10.659
11228W        W83488  32.900  33.315  13.977
11229W        W83489  39.011  38.558  14.923
11230W        W83490  22.965  37.580  13.515
11231W        W83491   8.187   5.635   0.523
11232W        W83492  34.315  39.414   3.259
11233W        W83493  32.502  27.182   2.340
11234W        W83494  25.133  43.843   4.643
11235W        W83495  28.901   8.587   4.181
11236W        W83496  12.188  14.187   0.018
11237W        W83497  40.744  44.788  12.057
11238W        W83498   7.425   9.651   4.545
11239W        W83499  30.272  40.296   4.174
11240W        W83500  16.695  11.880   3.169
11241W        W83501  37.982  12.558   3.242
11242W        W83502  35.343  27.089  11.120
11243W        W83503   5.366  23.945  13.564
11244W        W83504  37.449  25.501   3.641
11245W        W83505   2.529  37.594  10.357
11246W        W83506  43.695  29.649  10.954
11247W        W83507   3.240  24.256   1.283
11248W        W83508  20.522   6.146   1.905
11249W        W83509  43.702  32.130   1.803
11250W        W83510  14.978  28.692   9.933
11251W        W83511  13.874  30.606  13.566
11252W        W83512  35.579  13.426  13.759
11253W        W83513  20.774  26.416  10.631
11254W        W83514  35.139  28.475   2.889
11255W        W83515  42.311   1.237   3.108
11256W        W83516  36.857   7.800   4.492
11257W        W83517  16.419  29.901   0.911
11258W        W83518   2.394  12.466   3.605
11259W        W83519  14.226   9.319  10.355
11260W        W83520  25.533  33.727   1.033
11261W        W83521   7.668  25.661   1.898
11262W        W83522   2.486  41.841  11.100
11263W        W83523  40.042   0.044   1.690
11264W        W83524  27.972  10.670   4.651
11265W        W83525  26.209  32.732  11.200
11266W        W83526  29.092  23.520  11.609
11267W        W83527  17.123   8.881  10.962
11268W        W83528  21.538  40.332  14.761
11269W        W83529   7.758  20.237   4.038
11270W        W83530  17.172   3.306   2.111
11271W        W83531  29.769  26.386  10.360
11272W        W83532  18.002  16.607   2.811
11273W        W83533  18.654   0.300   2.962
11274W        W83534  27.068  32.390   1.321
11275W        W83535  28.474  26.817  12.425
11276W        W83536  23.754  17.928  11.113
11277W        W83537   0.652  35.496   0.116
11278W        W83538   1.733  26.592   2.233
11279W        W83539   4.244  16.580   4.262
11280W        W83540  31.380  10.905  14.868
11281W        W83541  20.940  40.484   3.151
11282W        W83542  44.292  41.553   0.020
11283W        W83543  13.120  21.274  13.951
11284W        W83544  35.533  41.532   4.556
11285W        W83545  12.927   3.011  11.077
11286W        W83546  44.479   5.172   2.940
11287W        W83547  37.896  35.313   4.183
11288W        W83548   2.078  30.159  13.594
11289W        W83549  43.599  13.681   1.659
11290W        W83550   4.762  18.375  13.854
11291W        W83551  29.128   8.080   3.285
11292W        W83552  15.298   8.264  10.698
11293W        W83553  13.419  41.196   4.146
11294W        W83554  24.183  13.371  13.869
11295W        W83555  29.661  20.715  14.809
11296W        W83556  43.328  26.601   1.486
11297W        W83557  34.605  30.628   2.784
11298W        W83558  20.270  27.897  10.532
11299W        W83559  19.812   6.803  14.871
11300W        W83560  21.962  27.069  14.004
11301W        W83561  43.260  16.088  12.582
11302W        W83562  42.082   6.429  11.502
11303W        W83563  29.116   5.139   4.165
11304W        W83564  31.914  23.055   3.324
11305W        W83565  13.179   0.486  13.950
11306W        W83566  33.042  20.984   5.030
11307W        W83567   0.961  29.481   0.850
11308W        W83568  13.591   7.970   4.301
11309W        W83569  25.421  10.709  13.396
11310W        W83570  10.571  15.680  12.576
11311W        W83571  17.812   5.863  11.951
11312W        W83572  32.685  25.946   1.027
11313W        W83573  22.515  25.092  13.152
11314W        W83574  13.072  11.800  14.331
11315W        W83575  28.595  17.688  13.455
11316W        W83576   4.147  20.277   3.640
11317W        W83577   6.468   2.756   1.631
11318W        W83578  15.116  26.579   4.139
11319W        W83579  26.436  23.599  14.043
11320W        W83580  18.993  36.813   0.824
11321W        W83581  28.395   5.350   1.984
11322W        W83582   1.414  34.324   0.665
11323W        W83583  43.782  17.096  14.727
11324W        W83584   5.514  31.682   4.872
11325W        W83585  34.178   6.214   3.251
11326W        W83586  14.638  23.716  14.338
11327W        W83587  33.313  38.861  11.046
11328W        W83588  33.497  28.216  10.853
11329W        W83589  11.595  35.370   4.324
11330W        W83590   0.766  31.634  12.144
11331W        W83591  40.928  17.167  11.036
11332W        W83592  38.529  11.910   0.271
11333W        W83593   8.644  27.978  11.138
11334W        W83594  29.681  36.514   1.423
11335W        W83595  12.874  33.675   4.097
11336W        W83596  43.459   5.529   0.337
11337W        W83597  36.993   3.749   3.647
11338W        W83598  22.634  38.925   0.443
11339W        W83599  36.546  26.434  13.815
11340W        W83600   5.915  37.336   3.749
11341W        W83601  31.716  20.943   3.220
11342W        W83602  12.977  11.153  10.950
11343W        W83603  35.066  23.076   0.910
11344W        W83604  28.650  35.492   3.774
11345W        W83605  10.157  39.768  12.997
11346W        W83606  34.056  33.870  10.701
11347W        W83607  43.861  29.612  11.454
11348W        W83608  15.870  44.511   5.244
11349W        W83609  12.373   7.401   2.868
11350W        W83610  37.389  23.635  14.011
11351W        W83611  28.111  29.901   9.823
11352W        W83612   9.288  29.844  11.894
11353W        W83613  13.843  34.904  10.433
11354W        W83614  16.831  27.138   1.411
11355W        W83615   7.410   6.698   2.881
11356W        W83616  32.895   6.402   4.662
11357W        W83617  40.528  36.649  10.509
11358W        W83618  19.891  28.231   5.003
11359W        W83619  30.635   2.746  13.351
11360W        W83620  28.833  11.181   4.246
11361W        W83621  28.441  12.634   3.423
11362W        W83622  44.390   1.240  14.821
11363W        W83623  33.405  12.894   5.093
11364W        W83624  34.655  15.683  11.930
11365W        W83625  37.058  42.571   0.806
11366W        W83626  40.254   5.840   3.210
11367W        W83627  10.754  34.491   0.202
11368W        W83628   5.730  30.065   2.730
11369W        W83629  21.259   3.838  11.194
11370W        W83630  37.425  31.440   0.489
11371W        W83631  24.332   0.048  13.621
11372W        W83632   6.956   4.759  13.373
11373W        W83633  26.990  33.678   0.630
11374W        W83634  14.081  10.442   2.292
11375W        W83635  32.919  12.582   0.369
11376W        W83636  38.001  36.091   5.161
11377W        W83637  15.410  17.905  10.183
11378W        W83638  43.042  25.583   0.388
11379W        W83639  29.690   4.739   3.019
11380W        W83640  11.659  22.766  13.816
11381W        W83641  12.636  10.464  12.583
11382W        W83642  40.397  37.561   0.807
11383W        W83643  20.214  36.064   2.187
11384W        W83644   5.149   8.711  14.965
11385W        W83645   0.666   1.002   1.413
11386W        W83646  30.196   0.385  11.768
11387W        W83647   7.351  35.113   3.861
11388W        W83648  10.365  42.317  11.125
11389W        W83649  21.597  42.035  11.876
11390W        W83650  38.911   4.645   0.939
11391W        W83651  11.807  15.943  11.129
11392W        W83652  28.590   7.458   3.391
11393W        W83653  17.808   6.322  11.701
11394W        W83654   5.885   6.969   0.853
11395W        W83655  27.830  24.773   2.702
11396W        W83656  36.076  34.464   3.182
11397W        W83657  15.990  27.928  11.948
11398W        W83658  15.175  15.224  14.536
11399W        W83659  27.499   9.935  14.787
11400W        W83660  22.121   1.492  13.979
11401W        W83661  36.031  26.482   1.748
11402W        W83662  11.250   3.631   3.791
11403W        W83663  29.139  37.075   3.657
11404W        W83664  23.557  31.501  13.341
11405W        W83665  33.167  37.937  13.394
11406W        W83666  32.096  41.015  13.832
11407W        W83667  13.206  18.490   1.188
11408W        W83668  35.768  28.539  14.758
11409W        W83669  20.337  27.115   3.629
11410W        W83670  11.160   0.371   1.862
11411W        W83671  43.180  39.886   2.678
11412W        W83672   8.119  12.112  13.820
11413W        W83673  25.739   7.666   0.415
11414W        W83674  20.735  18.821   1.411
11415W        W83675  19.566   2.482  13.507
11416W        W83676  18.189   6.539  12.661
11417W        W83677  40.600  29.681   4.681
11418W        W83678  32.588  43.275  12.738
11419W        W83679  33.515  35.509   2.048
11420W        W83680   1.952   3.490   5.035
11421W        W83681  33.544   6.346   1.298
11422W        W83682  26.029  33.851  11.978
11423W        W83683  37.785  20.637  12.481
11424W        W83684  38.533  10.411   4.607
11425W        W83685  15.106  44.182   4.559
11426W        W83686  28.472  11.120  13.955
11427W        W83687  35.091  11.790  10.329
11428W        W83688  38.864  14.424   2.307
11429W        W83689   7.767  24.517  14.711
11430W        W83690  42.388  23.639  11.304
11431W        W83691  30.634  17.017  12.599
11432W        W83692  40.715  44.434   1.322
11433W        W83693  38.876  28.840   0.425
11434W        W83694  12.735   9.639  11.061
11435W        W83695  23.764  44.894  10.657
11436W        W83696  13.103  23.657   4.560
11437W        W83697  31.701  33.104   3.441
11438W        W83698  22.447   9.187   3.311
11439W        W83699   0.013   9.793  11.583
11440W        W83700  37.944   3.366  11.553
11441W        W83701  14.095  23.520  12.553
11442W        W83702  24.658   9.860  10.743
11443W        W83703  11.630  43.486   3.175
11444W        W83704  34.754   6.943   2.895
11445W        W83705   1.263  36.691   4.145
11446W        W83706  12.238   6.780  12.680
11447W        W83707  44.652  37.942  13.419
11448W        W83708   0.931   9.321   3.893
11449W        W83709  33.499  20.580   4.292
11450W        W83710   5.712   1.542   1.747
11451W        W83711   7.244  23.223   4.173
11452W        W83712   2.761   5.643   1.642
11453W        W83713  27.591  16.013  13.057
11454W        W83714  22.123   5.752   4.540
11455W        W83715  38.785   6.253   4.970
11456W        W83716   3.892  23.187   0.903
11457W        W83717  12.784   0.817  11.713
11458W        W83718  32.114  31.847   2.640
11459W        W83719  35.046   6.356  12.547
11460W        W83720  37.286  28.359   4.483
11461W        W83721  31.781  41.440   5.102
11462W        W83722  20.725  10.228   2.832
11463W        W83723  15.523  36.199  11.159
11464W        W83724  24.641  30.448  13.056
11465W        W83725  38.702  26.139  10.975
11466W        W83726  35.690   1.306  14.497
11467W        W83727  29.211  17.368   2.390
11468W        W83728  19.112   8.212  10.679
11469W        W83729   2.639   4.275   2.512
11470W        W83730   9.198  25.032   2.725
11471W        W83731  32.908   7.410  14.468
11472W        W83732  17.144  22.548  14.765
11473W        W83733  42.820  36.065  12.029
11474W        W83734  26.022  15.208  13.874
11475W        W83735  15.294  38.892  12.497
11476W        W83736  16.025   0.342  13.036
11477W        W83737  31.048   0.800  14.241
11478W        W83738  18.582  13.881   3.731
11479W        W83739  38.179  25.425   5.045
11480W        W83740  38.130   4.074  13.090
11481W        W83741  43.001  15.101  11.862
11482W        W83742   1.908   6.660  14.798
11483W        W83743   9.822  36.490  12.528
11484W        W83744   7.152  29.470   4.354
11485W        W83745  19.604   6.894   2.198
11486W        W83746   8.425  43.680  11.063
11487W        W83747  24.020  26.438  13.477
11488W        W83748  20.954  40.729  10.770
11489W        W83749   8.630  25.588   0.457
11490W        W83750  30.815  41.444   4.202
11491W        W83751   8.191  26.321   3.182
11492W        W83752   8.230  32.102  14.142
11493W        W83753  21.509  36.451  14.286
11494W        W83754  27.499  39.998   0.989
11495W        W83755   9.883  35.029  13.976
11496W        W83756   1.477  42.753  12.591
11497W        W83757  34.891  13.943   2.638
11498W        W83758  20.596  34.014  14.502
11499W        W83759  30.251  18.240  13.115
11500W        W83760  43.040  35.108  14.955
11501W        W83761  36.669   9.683  11.560
11502W        W83762  21.309  40.519  11.084
11503W        W83763  41.082  31.585  12.432
11504W        W83764  17.726   7.875   4.130
11505W        W83765  31.902  26.544   0.283
11506W        W83766  16.117   3.812   4.860
11507W        W83767  32.439  24.666   1.955
11508W        W83768  29.713   1.891   5.105
11509W        W83769  38.937  23.661  14.881
11510W        W83770   0.769  21.182  14.953
11511W        W83771  29.697  41.410   0.002
11512W        W83772  14.075   2.744  12.001
11513W        W83773  12.879  34.873   1.270
11514W        W83774  24.358  14.149  11.785
11515W        W83775  38.130  20.762   3.716
11516W        W83776   5.856  21.526   2.612
11517W        W83777  11.819  29.471   3.224
11518W        W83778  44.394  21.044  14.803
11519W        W83779  42.957  36.879   4.645
11520W        W83780  23.983   6.698  10.626
11521W        W83781  30.565  42.322  10.710
11522W        W83782   6.889  34.126  12.682
11523W        W83783  41.601  38.121  12.763
11524W        W83784  37.927  29.845   4.134
11525W        W83785  15.094  27.513   2.857
11526W        W83786   4.963  17.142  11.019
11527W        W83787  12.618   9.153  12.802
11528W        W83788  32.885  19.845   2.975
11529W        W83789  30.456  44.305   1.976
11530W        W83790  17.028  22.052  14.936
11531W        W83791  17.506  43.530   2.515
11532W        W83792  25.686  32.967  12.400
11533W        W83793  21.072   9.739   4.478
11534W        W83794  21.468   8.199  13.135
11535W        W83795  44.878  30.825  12.456
11536W        W83796  17.991  13.795  12.873
11537W        W83797   6.647  15.806  14.755
11538W        W83798   8.747  24.888   3.738
11539W        W83799  25.201  21.713   3.622
11540W        W83800  24.631  42.552   0.425
11541W        W83801  35.937  39.738  11.944
11542W        W83802  18.163  34.473   3.557
11543W        W83803  16.737  26.618  14.435
11544W        W83804   3.794   2.554  11.605
11545W        W83805   7.965   6.161   1.299
11546W        W83806  13.159   9.372  11.154
11547W        W83807  12.314  18.578  11.519
11548W        W83808  32.997  25.026   0.456
11549W        W83809  35.783   2.167   2.892
11550W        W83810  12.217  40.859   3.562
11551W        W83811   5.878  15.042   0.297
11552W        W83812  28.161   7.976  13.683
11553W        W83813  12.695  17.038   3.175
11554W        W83814  36.079  41.754  14.913
11555W        W83815  16.659   4.730  10.143
11556W        W83816  15.563   6.628   2.102
11557W        W83817  42.767  44.812  14.179
11558W        W83818  25.711  42.439   2.346
11559W        W83819  19.211   8.092   3.150
11560W        W83820  22.559   2.927  14.494
11561W        W83821  35.584  37.781  12.798
11562W        W83822   2.683  36.973   1.348
11563W        W83823  18.631  43.863   3.151
11564W        W83824  42.339  38.975   3.347
11565W        W83825  26.672  21.826  10.635
11566W        W83826  11.342  33.125   1.115
11567W        W83827  42.086  37.919  13.022
11568W        W83828  34.883  31.661   2.264
11569W        W83829  33.936  22.106   1.160
11570W        W83830  13.888  19.337   2.812
11571W        W83831  38.918  10.283  12.750
11572W        W83832  34.324  24.544  14.538
11573W        W83833  30.900  16.658  11.246
11574W        W83834  23.449  44.482  10.509
11575W        W83835  39.432  29.932  12.532
11576W        W83836   6.344  13.121   2.687
11577W        W83837  29.943  38.096  10.891
11578W        W83838  14.126  40.628   3.824
11579W        W83839  28.078  31.105  13.948
11580W        W83840  25.222  12.646  14.363
11581W        W83841  27.514  39.280   4.283
11582W        W83842  40.192  36.475   2.307
11583W        W83843  31.493  44.398  14.879
11584W        W83844  12.396   9.388   1.156
11585W        W83845  21.592  25.149   2.577
11586W        W83846  24.118   1.328  12.158
11587W        W83847  44.856  44.225   3.806
11588W        W83848  38.590  32.862  12.039
11589W        W83849  12.349  29.514  12.407
11590W        W83850  14.582  15.704   2.239
11591W        W83851  42.821  14.500   4.256
11592W        W83852  43.811   7.212  10.928
11593W        W83853   2.906   8.708  12.146
11594W        W83854  13.837  20.088  12.919
11595W        W83855   8.669   4.509  11.404
11596W        W83856  16.271  32.987   1.624
11597W        W83857  35.317  39.000   3.160
11598W        W83858  14.715  25.604   3.390
11599W        W83859   3.374  38.364  13.347
11600W        W83860  36.632  13.302  11.368
11601W        W83861   5.152  25.390   3.570
11602W        W83862  14.560  34.639   2.586
11603W        W83863  37.812  14.264   0.911
11604W        W83864   2.187  18.218  14.750
11605W        W83865   4.062  38.025   1.426
11606W        W83866  21.599  20.097  12.249
11607W        W83867  39.066  39.867   0.351
11608W        W83868  39.047  20.026  11.459
11609W        W83869  18.340  13.574   4.116
11610W        W83870   0.400  17.939  11.875
11611W        W83871  16.535  31.914   3.624
11612W        W83872  26.955   2.269  14.521
11613W        W83873  14.849  27.137  11.943
11614W        W83874  13.837   1.184   3.694
11615W        W83875   9.861   8.719  12.417
11616W        W83876  10.176   8.413   1.749
11617W        W83877  27.104   6.448  10.865
11618W        W83878  32.965  37.409  14.949
11619W        W83879  35.626   6.196   1.776
11620W        W83880  31.147  21.277  14.020
11621W        W83881   3.159   6.787  12.124
11622W        W83882  37.912  31.122   1.426
11623W        W83883  37.312  27.441  11.811
11624W        W83884  15.279  13.322  10.339
11625W        W83885   2.317  13.564  14.133
11626W        W83886  36.834  33.434   1.297
11627W        W83887  40.591  17.809  13.892
11628W        W83888   2.324  17.402  14.248
11629W        W83889  22.868  16.702   2.414
11630W        W83890   3.967  17.139  12.438
11631W        W83891  15.357  24.482   3.588
11632W        W83892   9.245  30.612   4.638
11633W        W83893  29.481   5.745  13.894
11634W        W83894  14.716   7.361   4.661
11635W        W83895  16.977  27.606   4.650
11636W        W83896  23.594  19.599  10.540
11637W        W83897  19.032  42.568  14.904
11638W        W83898  34.637   8.927  14.426
11639W        W83899  34.925   4.183  13.834
11640W        W83900   2.946  42.267  11.548
11641W        W83901  43.397  34.643  12.988
11642W        W83902  35.076   6.374  13.872
11643W        W83903  33.347  29.593  12.130
11644W        W83904  13.912  18.810  14.356
11645W        W83905   7.329  26.465   2.363
11646W        W83906   6.368   8.624  14.870
11647W        W83907  36.505  30.447  11.970
11648W        W83908  41.328  31.620  14.852
11649W        W83909  29.092  24.349  13.361
11650W        W83910  12.316  33.648   0.017
11651W        W83911  41.914  10.646   4.440
11652W        W83912  25.958  44.812  11.626
11653W        W83913  38.893  44.333   1.947
11654W        W83914  25.455  25.658  10.652
11655W        W83915  26.956  19.670   3.940
11656W        W83916  15.044  42.840   2.593
11657W        W83917   2.722  26.954   2.871
11658W        W83918  16.621   2.552  12.093
11659W        W83919  16.713  19.277  13.403
11660W        W83920   4.185  23.389  13.677
11661W        W83921  24.594  17.063  10.413
11662W        W83922  31.230   7.393  12.899
11663W        W83923  15.193  20.789  12.112
11664W        W83924  22.221  37.356  10.629
11665W        W83925   1.463  22.178   0.902
11666W        W83926  20.781  39.569  11.177
11667W        W83927   6.259   3.305  11.098
11668W        W83928  25.917  35.430   2.066
11669W        W83929  12.865  21.982   2.959
11670W        W83930  13.586  10.255   1.785
11671W        W83931   3.362  11.728   3.127
11672W        W83932   9.161   7.347  14.423
11673W        W83933  37.483   4.243   1.755
11674W        W83934  34.089  31.602   0.763
11675W        W83935  34.475  35.971  11.962
11676W        W83936   3.429  28.284   4.580
11677W        W83937  28.098  19.786   0.864
11678W        W83938  35.378   6.646   3.838
11679W        W83939  30.226  21.095   1.965
11680W        W83940   4.261   8.205   2.828
11681W        W83941  38.334   8.887   3.306
11682W        W83942  27.231  43.921   0.451
11683W        W83943  23.071  10.460  10.380
11684W        W83944  41.311  27.928   2.911
11685W        W83945   7.082  10.623   1.071
11686W        W83946   5.631  14.798  10.597
11687W        W83947  31.465  27.584  14.881
11688W        W83948  14.146  37.279   4.210
11689W        W83949  40.808  17.859   4.611
11690W        W83950  40.270  28.663  12.462
11691W        W83951  18.620   3.919   0.286
11692W        W83952  16.391   1.262   4.425
11693W        W83953   5.667  16.097   0.940
11694W        W83954  27.344  40.729  14.295
11695W        W83955  11.396  40.419   1.271
11696W        W83956  31.659  10.014   0.734
11697W        W83957  32.077  41.909  14.331
11698W        W83958  26.230  30.619  12.909
11699W        W83959  35.420  33.811  14.867
11700W        W83960   4.263  30.090   2.892
11701W        W83961   6.697  43.487  14.751
11702W        W83962  10.830  18.466   4.132
11703W        W83963  24.271  20.064   3.199
11704W        W83964   2.853  28.195   3.835
11705W        W83965  19.139   6.265  12.417
11706W        W83966   2.796  18.221   2.756
11707W        W83967  12.239   1.696   0.803
11708W        W83968   7.703  18.204   3.294
11709W        W83969  36.383   9.678   2.774
11710W        W83970  32.346   6.722   2.329
11711W        W83971  34.925  43.720  11.611
11712W        W83972  28.922  13.146   1.111
11713W        W83973  16.574   4.764   0.010
11714W        W83974  18.113  38.151   2.665
11715W        W83975  33.983  24.439  13.533
11716W        W83976   7.703  29.330   5.074
11717W        W83977  35.567   4.821  12.280
11718W        W83978  29.399  32.723  11.583
11719W        W83979   6.151  11.850   3.237
11720W        W83980  40.513  14.479  13.550
11721W        W83981   0.465  22.662  13.960
11722W        W83982  29.160  37.611  14.731
11723W        W83983   9.928  27.226  12.427
11724W        W83984  25.055  41.518   5.300
11725W        W83985  41.009  12.638   0.922
11726W        W83986  28.030   3.795  12.943
11727W        W83987  18.078  11.427  13.859
11728W        W83988  38.038  10.578  14.771
11729W        W83989  18.942  12.086   4.592
11730W        W83990  23.034   3.353   0.959
11731W        W83991  22.081  41.831   2.129
11732W        W83992   2.554   3.505   1.314
11733W        W83993   8.153   2.961   3.294
11734W        W83994   0.548  28.054   0.246
11735W        W83995  42.076  13.630   4.761
11736W        W83996   6.454   9.828   2.340
11737W        W83997  19.950  22.054   0.894
11738W        W83998  33.815   9.099   4.278
11739W        W83999   8.671  42.771   0.414
11740W        W84000   7.738   2.876  14.295
11741W        W84001  42.219   1.966  13.652
11742W        W84002  16.242  33.645  12.409
11743W        W84003   5.305  21.824  12.486
11744W        W84004  27.116  27.005  13.218
11745W        W84005  17.140  15.906   1.008
11746W        W84006   6.811  40.460  14.290
11747W        W84007  34.971   3.293   0.797
11748W        W84008  20.678  24.199   2.011
11749W        W84009  13.278  43.064  12.076
11750W        W84010  17.121  19.102   0.332
11751W        W84011  28.453  32.480  11.652
11752W        W84012   3.281   8.105   3.901
11753W        W84013   2.739  15.066  12.403
11754W        W84014  44.929  16.252  10.882
11755W        W84015  30.985  13.180  10.872
11756W        W84016  35.034  42.489   0.473
11757W        W84017   9.756  33.046   1.707
11758W        W84018  36.511   8.716   2.686
11759W        W84019  36.622  35.603   4.050
11760W        W84020  28.099  27.680  11.157
11761W        W84021  10.637  11.456  12.922
11762W        W84022  38.761   3.044  11.994
11763W        W84023  13.193   1.500  13.981
11764W        W84024   6.309  28.135  11.471
11765W        W84025  40.496  34.969   3.616
11766W        W84026   5.196  44.134   4.610
11767W        W84027  21.684   8.210  14.381
11768W        W84028  13.777  12.861  12.445
11769W        W84029  21.060  10.155  12.167
11770W        W84030  16.170  27.429  10.891
11771W        W84031   3.266  30.109  11.227
11772W        W84032  27.846   3.101  11.484
11773W        W84033  24.560  30.665   2.442
11774W        W84034  22.443  20.814   1.418
11775W        W84035  10.386  32.381   4.247
11776W        W84036  34.872  27.636  14.449
11777W        W84037  28.258  29.553  13.326
11778W        W84038  36.521   3.866  14.383
11779W        W84039  26.031  39.820   2.718
11780W        W84040  44.097  11.753   1.184
11781W        W84041  36.438  44.738   4.303
11782W        W84042   2.833  19.083  14.160
11783W        W84043  44.920  10.997  13.915
11784W        W84044  30.444   2.821   0.199
11785W        W84045  44.341   8.416  11.382
11786W        W84046   6.766  19.215   2.290
11787W        W84047  12.189  25.707   3.288
11788W        W84048   4.190   7.734  13.335
11789W        W84049  19.224  38.080   1.418
11790W        W84050   6.295  42.933  10.795
11791W        W84051   4.847  10.245   1.894
11792W        W84052  24.165  24.902   0.765
11793W        W84053   1.804  38.451  14.412
11794W        W84054  35.967   2.325   1.041
11795W        W84055  41.068  32.895  10.555
11796W        W84056  28.218   3.995   0.007
11797W        W84057   1.950  19.387  11.112
11798W        W84058  12.804  32.234   0.130
11799W        W84059  14.445  22.197  12.888
11800W        W84060  19.143   4.624  10.608
11801W        W84061  16.702  44.769   0.781
11802W        W84062  29.910  12.790   2.953
11803W        W84063  14.734   0.996   3.683
11804W        W84064  38.182  42.572  13.240
11805W        W84065   1.424   4.849   3.932
11806W        W84066   3.414  35.163  11.514
11807W        W84067  10.170  40.318   1.398
11808W        W84068  13.276  18.891  11.481
11809W        W84069  15.386   5.888  14.832
11810W        W84070  41.389  34.631   2.335
11811W        W84071  14.100  37.147   4.728
11812W        W84072  14.126  19.123   0.295
11813W        W84073  17.527   2.058   3.181
11814W        W84074  24.139  23.173  10.824
11815W        W84075  24.496  31.936  10.949
11816W        W84076   6.291  29.405   3.298
11817W        W84077  35.860  16.338  11.415
11818W        W84078  19.738  16.327   2.715
11819W        W84079  11.749   5.667   0.172
11820W        W84080  24.269  42.374   1.360
11821W        W84081  23.697   3.207   0.381
11822W        W84082  21.422  42.563  12.619
11823W        W84083  24.436  15.876   0.027
11824W        W84084   2.370  22.663  11.919
11825W        W84085  26.181   4.169  10.178
11826W        W84086  26.544  36.899  11.635
11827W        W84087  15.738  14.341   2.764
11828W        W84088  28.341  23.719   4.468
11829W        W84089  19.024   3.619   0.452
11830W        W84090  29.899  12.196   0.865
11831W        W84091  17.014  28.043  11.966
11832W        W84092  14.097  28.409   4.560
11833W        W84093  30.608  18.213  13.489
11834W        W84094   7.333   2.416   1.314
11835W        W84095  21.242   6.409   2.332
11836W        W84096   1.979   9.294   4.728
11837W        W84097   1.745  30.475  14.681
11838W        W84098   1.658  39.878  14.390
11839W        W84099  38.612   5.799  13.860
11840W        W84100  42.776  22.165  10.746
11841W        W84101  34.311  12.350   3.886
11842W        W84102  19.136  12.737  13.369
11843W        W84103   9.898  26.908   4.955
11844W        W84104  27.058  29.692  10.772
11845W        W84105  24.960  30.751   4.152
11846W        W84106   6.434   6.748   1.676
11847W        W84107   3.754  17.911   4.565
11848W        W84108  30.025  15.784  14.113
11849W        W84109  18.580   8.908   4.992
11850W        W84110  37.018   7.012  10.892
11851W        W84111  41.710   4.388   3.487
11852W        W84112  33.180  40.937   0.361
11853W        W84113   1.221  34.612  10.669
11854W        W84114  28.114  26.620   3.170
11855W        W84115   7.925  38.844   4.753
11856W        W84116  29.540  16.291  11.610
11857W        W84117  35.330  13.241   2.659
11858W        W84118  34.919  12.883  14.535
11859W        W84119  28.179  16.750  14.992
11860W        W84120   1.683  28.251  13.152
11861W        W84121   2.374   3.113   0.435
11862W        W84122   8.088  17.591  14.752
11863W        W84123   8.308  42.234   2.633
11864W        W84124  34.863  38.353   1.763
11865W        W84125  14.704   1.299   3.279
11866W        W84126  30.104   4.994   1.372
11867W        W84127   5.479  25.990   0.209
11868W        W84128  35.875  44.406   1.940
11869W        W84129  26.256   5.471  13.499
11870W        W84130  30.392  14.546   1.888
11871W        W84131  43.366  41.763   2.348
11872W        W84132  34.516   9.478  11.427
11873W        W84133  25.022  31.434  13.426
11874W        W84134   3.719   3.208  14.410
11875W        W84135   9.965  20.585   1.307
11876W        W84136  37.788  14.561  12.938
11877W        W84137  35.061  12.218  12.447
11878W        W84138  25.979  17.811  10.998
11879W        W84139  35.363  38.606   4.547
11880W        W84140  38.540  31.682   1.846
11881W        W84141   0.372  34.907   3.852
11882W        W84142  32.620  19.597   0.196
11883W        W84143   5.871  38.294   2.816
11884W        W84144   8.252  35.947   3.164
11885W        W84145  16.075  30.071  11.622
11886W        W84146   8.341  35.414   1.399
11887W        W84147  18.833  32.858   3.341
11888W        W84148   0.328  40.537   0.345
11889W        W84149   0.366  11.199   3.274
11890W        W84150   0.680  22.903   1.322
11891W        W84151  16.947   0.448   0.458
11892W        W84152   8.089  44.132   1.791
11893W        W84153   0.570   2.447  13.015
11894W        W84154  12.241   4.835   1.899
11895W        W84155   9.249  42.366   2.410
11896W        W84156  32.356   9.739   1.338
11897W        W84157  38.530  41.102   4.843
11898W        W84158   3.990  40.570   2.393
11899W        W84159  29.603   2.409   0.371
11900W        W84160  21.538  13.627  14.929
11901W        W84161  13.045  19.756   3.618
11902W        W84162  40.782  30.395  14.032
11903W        W84163   3.216  10.349   2.795
11904W        W84164  40.408  39.402   1.316
11905W        W84165  19.810  27.177  12.934
11906W        W84166  43.292  43.279   3.761
11907W        W84167   9.607  22.089  14.840
11908W        W84168  39.381  17.674  13.190
11909W        W84169  43.874  15.088   0.794
11910W        W84170  17.302  44.469  10.606
11911W        W84171  31.493  42.087   0.264
11912W        W84172   2.448  22.859  10.112
11913W        W84173  18.118  24.533   2.862
11914W        W84174  22.474  44.324   2.260
11915W        W84175  20.945  13.245   4.551
11916W        W84176   1.796  18.684   4.056
11917W        W84177  12.274  28.082  12.523
11918W        W84178  37.051  13.962   2.614
11919W        W84179  31.218  14.225  11.859
11920W        W84180   4.494  23.957  11.397
11921W        W84181   4.833  19.025   2.851
11922W        W84182   7.231  27.100  13.413
11923W        W84183  20.009  37.813  10.469
11924W        W84184   2.937   7.992   4.975
11925W        W84185  31.486  27.062  14.076
11926W        W84186   2.902   6.914  13.877
11927W        W84187  13.226  25.594  12.680
11928W        W84188  29.239  44.260  14.542
11929W        W84189  14.759  15.694   3.668
11930W        W84190  18.350  31.637  13.020
11931W        W84191  43.456   5.205   0.768
11932W        W84192  44.229  27.432  11.620
11933W        W84193  32.112  30.185  11.942
11934W        W84194  22.020  41.503   0.832
11935W        W84195   4.087  42.816   3.415
11936W        W84196  34.865   5.833  12.954
11937W        W84197  37.385   3.072   2.759
11938W        W84198   6.328  37.583  12.201
11939W        W84199  19.576  28.984  13.241
11940W        W84200  36.437  30.834  13.045
11941W        W84201   9.405  25.704  11.697
11942W        W84202  32.914   1.003   3.202
11943W        W84203  44.724  31.869  12.422
11944W        W84204  39.104  36.134   2.874
11945W        W84205  24.455  31.366  10.622
11946W        W84206   2.292  10.406   2.868
11947W        W84207   2.063  34.081  14.327
11948W        W84208   9.945  32.404  12.500
11949W        W84209  29.128  10.339   2.869
11950W        W84210   0.469   8.331  14.830
11951W        W84211  26.017  21.502   4.609
11952W        W84212  32.941  11.132  13.875
11953W        W84213  38.562  38.866   1.749
11954W        W84214  16.613  31.540  12.537
11955W        W84215  12.175  43.427  10.656
11956W        W84216  30.472  12.167  10.586
11957W        W84217  14.178  33.406  10.540
11958W        W84218  12.405   1.300  11.613
11959W        W84219  32.591   1.867  10.732
11960W        W84220  42.297  38.601   4.873
11961W        W84221  41.510  42.988  14.767
11962W        W84222  25.742  13.608   1.813
11963W        W84223   9.600  24.160  13.042
11964W        W84224  15.397   8.168   4.531
11965W        W84225  29.065   1.301  11.164
11966W        W84226  37.345  37.034  12.110
11967W        W84227  15.820  28.062   4.926
11968W        W84228  25.066   7.700  10.498
11969W        W84229  31.152  11.058  14.440
11970W        W84230   1.046  41.134  12.017
11971W        W84231   4.904  29.580   1.736
11972W        W84232  26.595   9.387  13.315
11973W        W84233  16.028  29.114   0.002
11974W        W84234  22.688  30.366   0.275
11975W        W84235   4.283  17.750  13.953
11976W        W84236  35.854   3.902  14.868
11977W        W84237  39.495   7.348   4.662
11978W        W84238  23.335  38.566   3.174
11979W        W84239  13.590  43.555   3.328
11980W        W84240  10.393  27.425   3.284
11981W        W84241  29.804  24.335   1.272
11982W        W84242  34.683  14.993   3.797
11983W        W84243  21.196  42.974   2.432
11984W        W84244  41.273  26.424  11.338
11985W        W84245  30.492   0.086   0.827
11986W        W84246  33.987  35.052  14.068
11987W        W84247   2.994  23.463  14.298
11988W        W84248  16.641  24.288  13.025
11989W        W84249  16.053  12.794   3.758
11990W        W84250  35.057   4.436  13.406
11991W        W84251  42.049  43.819  14.898
11992W        W84252  44.751  35.939   2.752
11993W        W84253   1.958   4.348   1.354
11994W        W84254  10.072  15.362   0.750
11995W        W84255  34.123  32.525   0.343
11996W        W84256  24.676  22.992   2.456
11997W        W84257  22.882  20.959   0.166
11998W        W84258   7.740  16.344   2.021
11999W        W84259  21.530  15.637   1.123
12000W        W84260  22.608  37.946   3.137
12001W        W84261  21.703  16.763   3.327
12002W        W84262   2.695  25.852   2.765
12003W        W84263  18.137  10.567  12.265
12004W        W84264  41.683  37.544  14.450
12005W        W84265  14.890  23.993   0.269
12006W        W84266  36.607  41.098   4.165
12007W        W84267  31.692  43.782  10.758
12008W        W84268  38.957   4.045   9.908
12009W        W84269  34.450   7.254   0.899
12010W        W84270  19.733   8.167   4.625
12011W        W84271   4.717  32.091  14.955
12012W        W84272   3.764   6.966   1.881
12013W        W84273  31.360  27.818  12.963
12014W        W84274  16.894   5.030   0.817
12015W        W84275  22.603   0.053   4.224
12016W        W84276  44.371  42.972  11.994
12017W        W84277  13.668  24.991   4.148
12018W        W84278  29.496   1.971  12.533
12019W        W84279  40.839   4.435   1.405
12020W        W84280  31.930  39.129  11.482
12021W        W84281  29.141  27.539   1.959
12022W        W84282  19.294  18.123   3.289
12023W        W84283  14.142  38.671   2.796
12024W        W84284   4.020  28.967   3.013
12025W        W84285  19.114   5.222   0.346
12026W        W84286  23.750  41.518  10.339
12027W        W84287  39.020  43.370  14.347
12028W        W84288   5.307  11.581  13.344
12029W        W84289  27.159   3.819   0.794
12030W        W84290  28.459  27.969   1.894
12031W        W84291  26.648   8.808  14.880
12032W        W84292   1.396  18.584   2.174
12033W        W84293  11.146  13.771  13.285
12034W        W84294   3.146  40.478   1.500
12035W        W84295  38.896  29.034   4.095
12036W        W84296  20.022  17.831  11.516
12037W        W84297  11.770   0.785  12.087
12038W        W84298  26.123   1.481   0.815
12039W        W84299   4.427  30.199  12.401
12040W        W84300  26.271  16.042  14.911
12041W        W84301   3.422   0.244  14.224
12042W        W84302  29.492  23.722   4.512
12043W        W84303  14.268  12.907   1.641
12044W        W84304   5.416  29.525   1.748
12045W        W84305  25.704  21.488   3.597
12046W        W84306  28.134  21.506   3.734
12047W        W84307  40.934   4.801   2.237
12048W        W84308  15.659  38.827   0.868
12049W        W84309  13.955  21.109   2.275
12050W        W84310  35.337   6.265   2.216
12051W        W84311  21.469  41.383  14.998
12052W        W84312  43.687  18.572  12.487
12053W        W84313  23.754  39.934  11.359
12054W        W84314   0.240  10.429   3.560
12055W        W84315  16.319  15.205   4.905
12056W        W84316  28.995   6.325   4.938
12057W        W84317  37.567  31.532   1.378
12058W        W84318  35.585  38.773   2.177
12059W        W84319  10.725  33.888  11.545
12060W        W84320  42.297  27.550  14.880
12061W        W84321  43.522  38.506   4.373
12062W        W84322  44.175  32.983   3.172
12063W        W84323  20.448   8.023   3.165
12064W        W84324   4.369  37.468   2.324
12065W        W84325  17.355  20.089   2.318
12066W        W84326  30.574  40.316  12.091
12067W        W84327  42.839  14.312  13.422
12068W        W84328   7.745   9.254  10.742
12069W        W84329   9.770  25.957   0.152
12070W        W84330  36.525  13.807  11.361
12071W        W84331  41.520   8.821   3.285
12072W        W84332  17.213  25.548  13.063
12073W        W84333   8.825  13.050   1.576
12074W        W84334  12.209  32.507  14.928
12075W        W84335  27.612  12.103   3.114
12076W        W84336   4.414  18.777   2.175
12077W        W84337  30.028  31.468   4.271
12078W        W84338  41.978   9.756  11.197
12079W        W84339  10.567  43.886   4.410
12080W        W84340  15.863   3.297   1.425
12081W        W84341  14.145  44.289   0.295
12082W        W84342  13.392  16.785   4.698
12083W        W84343  16.357  26.485  12.652
12084W        W84344  15.172   9.392  11.560
12085W        W84345  35.548  34.618   2.248
12086W        W84346  29.933  16.395   3.558
12087W        W84347  13.769   8.157  13.115
12088W        W84348  36.904  32.887  14.882
12089W        W84349   0.865  44.464  13.542
12090W        W84350   9.512  13.739   3.028
12091W        W84351  23.161  14.757  13.182
12092W        W84352  11.178  11.106   2.399
12093W        W84353  26.224   1.216  10.675
12094W        W84354   9.429  10.616  13.216
12095W        W84355  11.245  34.254  13.821
12096W        W84356  32.407  25.406  13.836
12097W        W84357  32.443  43.342   0.409
12098W        W84358  35.920  33.342   1.448
12099W        W84359  23.944  35.060  13.548
12100W        W84360  38.861   1.410   2.691
12101W        W84361  22.088  37.947   3.024
12102W        W84362  14.031  28.682  10.813
12103W        W84363  14.973  42.432  13.508
12104W        W84364  35.562  36.318   4.759
12105W        W84365  24.931  37.972   3.554
12106W        W84366  17.198   2.044  14.072
12107W        W84367  41.425  43.804   1.650
12108W        W84368  41.873  37.494  11.594
12109W        W84369  28.958  39.730   1.090
12110W        W84370  38.553  40.552   0.716
12111W        W84371  26.094  22.667  11.547
12112W        W84372  36.972  23.741  11.135
12113W        W84373   7.604   5.901  13.387
12114W        W84374  12.726  27.214  14.029
12115W        W84375  36.033  20.186   3.644
12116W        W84376  27.980  16.566   3.157
12117W        W84377  10.566  44.848   4.132
12118W        W84378  39.923  32.624  13.132
12119W        W84379  12.597  33.935   3.332
12120W        W84380  43.597  21.246   0.792
12121W        W84381  17.568  18.288   3.229
12122W        W84382   0.087  22.149   0.483
12123W        W84383  32.027   5.005   3.427
12124W        W84384  42.568   7.366   2.054
12125W        W84385  31.379  41.328  14.879
12126W        W84386  42.612  22.444  11.861
12127W        W84387  23.722  27.439   3.541
12128W        W84388  33.980   5.022  11.505
12129W        W84389   8.403  38.667  12.291
12130W        W84390  19.514  21.658  14.607
12131W        W84391  27.629   3.251   2.209
12132W        W84392  24.465  14.762  13.597
12133W        W84393  31.855  40.698  12.132
12134W        W84394  35.813  26.032   3.259
12135W        W84395  43.079   5.885  14.804
12136W        W84396   0.323  18.511   3.711
12137W        W84397   5.911  12.563  11.191
12138W        W84398  42.744  30.001   2.795
12139W        W84399   7.854   7.226   3.661
12140W        W84400  37.529  37.890  13.056
12141W        W84401  26.975  29.417   1.864
12142W        W84402  20.051  26.572   3.324
12143W        W84403   6.344  18.529   0.219
12144W        W84404  23.314  28.712  11.970
12145W        W84405  24.093  41.813   2.807
12146W        W84406   4.363  28.624  13.443
12147W        W84407  44.545  29.033  10.251
12148W        W84408   2.947  12.166  10.628
12149W        W84409  35.511   8.737  12.905
12150W        W84410  14.546  25.125   1.253
12151W        W84411  33.334   7.713  14.551
12152W        W84412   3.159   8.930  10.800
12153W        W84413  17.088  11.236   1.429
12154W        W84414  30.571   5.197   1.446
12155W        W84415   8.097  10.854  13.106
12156W        W84416  25.976  28.952   0.760
12157W        W84417  37.875  44.499  14.594
12158W        W84418   3.255  21.062  14.495
12159W        W84419  22.288  22.340   2.376
12160W        W84420  18.491  12.724  12.017
12161W        W84421  42.726  23.528   1.385
12162W        W84422  12.139  32.015   4.327
12163W        W84423  30.053  34.172   2.971
12164W        W84424  12.307  44.272   4.290
12165W        W84425  44.265  41.933   1.927
12166W        W84426  39.485  11.266  13.492
12167W        W84427   2.816   6.735  12.968
12168W        W84428  29.012  14.919  12.316
12169W        W84429  41.807   8.809   3.765
12170W        W84430  19.086  19.188   4.568
12171W        W84431  41.565  14.209   2.658
12172W        W84432  22.588  43.567   0.804
12173W        W84433   1.891  24.972  11.110
12174W        W84434  18.070   3.100   2.683
12175W        W84435  22.359  43.520   3.309
12176W        W84436  33.322  26.635  11.004
12177W        W84437  31.454  36.580  14.882
12178W        W84438  26.771  28.612   4.066
12179W        W84439   3.708   1.586   3.379
12180W        W84440  15.370  41.767  11.899
12181W        W84441  36.819   7.169  10.403
12182W        W84442  21.016  20.619   3.153
12183W        W84443  16.776  31.601   4.536
12184W        W84444  28.397   8.319  14.615
12185W        W84445  21.256  21.707   4.232
12186W        W84446   7.227  35.161  11.297
12187W        W84447  25.811   6.048   2.444
12188W        W84448  43.262   3.814  11.429
12189W        W84449   9.804  19.496   0.154
12190W        W84450  31.711  39.002   2.301
12191W        W84451  15.989  41.878  13.861
12192W        W84452  39.415   9.116   4.206
12193W        W84453   3.307   8.770   3.162
12194W        W84454  22.700   5.860  11.611
12195W        W84455  24.688  37.020  14.343
12196W        W84456  20.468  33.578   1.810
12197W        W84457  21.149  17.646  14.805
12198W        W84458  26.098  11.380  12.851
12199W        W84459  41.517   2.437   3.053
12200W        W84460  31.370  36.043   0.762
12201W        W84461  21.090  33.744   4.543
12202W        W84462  11.068  33.852  14.066
12203W        W84463  19.015  15.009  14.844
12204W        W84464  17.503   6.835  10.006
12205W        W84465  20.727  10.394  11.863
12206W        W84466  29.674   1.269  10.457
12207W        W84467   9.855  22.049   2.999
12208W        W84468  34.964  28.120  14.270
12209W        W84469  18.454  30.686   1.899
12210W        W84470  38.305   6.237  14.392
12211W        W84471  26.145  43.705   2.394
12212W        W84472  22.703  10.110  11.426
12213W        W84473  34.810   0.297   0.669
12214W        W84474   8.390  25.719  14.914
12215W        W84475  15.235  28.177  14.508
12216W        W84476  32.425  15.227   4.119
12217W        W84477  42.290   0.469   2.478
12218W        W84478  13.089  21.217  14.903
12219W        W84479  25.086  11.337  12.857
12220W        W84480  29.747  37.719   4.049
12221W        W84481  37.023   4.360  14.954
12222W        W84482  16.573  20.389   2.463
12223W        W84483   2.425   2.621  14.462
12224W        W84484   5.219   8.184  12.415
12225W        W84485  44.267  13.817   3.632
12226W        W84486  26.741  10.310   0.877
12227W        W84487   5.133  27.950   4.103
12228W        W84488  20.577  31.417   1.936
12229W        W84489  36.112   8.726  14.418
12230W        W84490  14.154  15.473  13.842
12231W        W84491  42.249  25.580  10.669
12232W        W84492   0.270   2.876  12.918
12233W        W84493  24.704   3.179  12.043
12234W        W84494  16.131  25.465   0.864
12235W        W84495  26.049   0.114  13.980
12236W        W84496  18.307  41.554  11.893
12237W        W84497  26.153  23.638  12.485
12238W        W84498  25.079  32.564   1.887
12239W        W84499  28.623   5.473  14.442
12240W        W84500  16.682   5.408   4.474
12241W        W84501  20.185   9.116  11.976
12242W        W84502  34.921   7.931   0.083
12243W        W84503  13.091  38.616  11.823
12244W        W84504  29.048   1.105  13.966
12245W        W84505  43.211  16.138   0.913
12246W        W84506  19.640  35.506   1.359
12247W        W84507  24.222  12.121   4.542
12248W        W84508  32.401   4.202   0.817
12249W        W84509  12.553   5.193   1.279
12250W        W84510  22.557  36.342   2.635
12251W        W84511  19.252   3.337  14.432
12252W        W84512  18.573  21.700   1.355
12253W        W84513  10.014  33.110  11.596
12254W        W84514  11.198  37.888  12.933
12255W        W84515  34.417  16.053  14.386
12256W        W84516   0.886  38.825   3.169
12257W        W84517  20.335  15.248  11.571
12258W        W84518   6.360   6.790  13.980
12259W        W84519  15.330  16.363  13.900
12260W        W84520  16.198  17.215   1.466
12261W        W84521   3.907   5.243   3.208
12262W        W84522  18.342  35.540  11.712
12263W        W84523  26.070  16.695  13.882
12264W        W84524  14.883  14.535  11.084
12265W        W84525  19.560  37.656  11.171
12266W        W84526  14.528  37.131  14.497
12267W        W84527  18.111  42.419  11.878
12268W        W84528  27.503  43.484   2.439
12269W        W84529  18.294  34.704  13.589
12270W        W84530  20.834  15.190  11.637
12271W        W84531  22.964  30.899  12.397
12272W        W84532  19.656  35.568   4.151
12273W        W84533  44.482  38.380   1.255
12274W        W84534  36.497   7.194   3.845
12275W        W84535  35.167  12.707  12.179
12276W        W84536  14.742  25.116   4.716
12277W        W84537  27.958   0.395  12.027
12278W        W84538  37.643  26.175  11.916
12279W        W84539  35.977   7.769  12.091
12280W        W84540  23.499  18.846   0.983
12281W        W84541   4.419   1.635  10.478
12282W        W84542  20.251   5.981  12.963
12283W        W84543   9.735  15.570  14.358
12284W        W84544  28.291   5.190  10.954
12285W        W84545   2.293  22.944   0.371
12286W        W84546  30.232   7.117   2.722
12287W        W84547   9.381  32.159  10.974
12288W        W84548  10.184  12.785   1.882
12289W        W84549  11.105  21.212  11.670
12290W        W84550   6.422  29.819   3.731
12291W        W84551  21.023  17.272  13.500
12292W        W84552  39.960  10.101  11.579
12293W        W84553   4.333  23.272   1.229
12294W        W84554  28.697  26.616   2.406
12295W        W84555   5.466  23.521  13.322
12296W        W84556  17.798   6.762  12.991
12297W        W84557   4.624  39.089   5.151
12298W        W84558  41.722  30.660   3.194
12299W        W84559  22.265  20.152   4.552
12300W        W84560   3.794  11.842   0.331
12301W        W84561   1.808  11.281   4.853
12302W        W84562  18.509   1.949   4.077
12303W        W84563  23.323  11.272   3.842
12304W        W84564  41.885  10.088  14.024
12305W        W84565  41.095  37.745  12.472
12306W        W84566   0.263  41.731  13.131
12307W        W84567  30.064   7.824   4.632
12308W        W84568   3.201  20.208  11.973
12309W        W84569   8.241  36.084   3.679
12310W        W84570   3.760   0.561  11.570
12311W        W84571   3.641  41.915  12.473
12312W        W84572  18.746  36.499   0.415
12313W        W84573  41.140  22.085   4.820
12314W        W84574   7.432   9.165   1.821
12315W        W84575  32.854  30.078  13.856
12316W        W84576  14.518   4.776  13.142
12317W        W84577   1.900  12.846  12.041
12318W        W84578  17.691  10.156  13.364
12319W        W84579   1.395   4.400   0.029
12320W        W84580  29.128   1.273  10.648
12321W        W84581  14.607  30.485   1.895
12322W        W84582   9.933   1.979  14.537
12323W        W84583   4.358  24.744  10.600
12324W        W84584  20.305  13.715  13.196
12325W        W84585  12.705  18.018   0.583
12326W        W84586  22.793  43.054   4.501
12327W        W84587  33.635  40.883   0.006
12328W        W84588  14.772   3.287   1.872
12329W        W84589  37.644  14.418   4.675
12330W        W84590  26.957  29.470  14.455
12331W        W84591  34.216   5.923   0.762
12332W        W84592   0.343   0.002   2.162
12333W        W84593  36.533  29.617   4.469
12334W        W84594  11.747  13.354  11.670
12335W        W84595  12.841  12.358  10.779
12336W        W84596   8.186   9.997  12.134
12337W        W84597  39.050  24.123   4.596
12338W        W84598  12.743  28.418  13.534
12339W        W84599  35.847  39.133  12.523
12340W        W84600  25.483  16.547   0.500
12341W        W84601   0.152  35.568   0.273
12342W        W84602  32.114  31.350   0.391
12343W        W84603  25.079  20.778   4.700
12344W        W84604  18.652   8.453   4.214
12345W        W84605  21.268   5.058   3.719
12346W        W84606  36.590  17.014   2.002
12347W        W84607  25.092  44.781   1.370
12348W        W84608   5.711  28.669   0.030
12349W        W84609  17.699  19.059  12.004
12350W        W84610   0.793  29.662  13.037
12351W        W84611   7.692  13.864   3.099
12352W        W84612  15.534  24.190   2.199
12353W        W84613   2.524  37.529  12.878
12354W        W84614  29.831   6.383   3.319
12355W        W84615  14.626  24.237  14.531
12356W        W84616   0.185  32.576   2.350
12357W        W84617  25.325  40.335   3.191
12358W        W84618  22.269   8.876  12.795
12359W        W84619  12.708  30.971   3.215
12360W        W84620   2.279  37.975  12.933
12361W        W84621  15.306  11.186  12.058
12362W        W84622   4.421  17.797  12.557
12363W        W84623  43.940  36.286  12.687
12364W        W84624   9.254  36.284   4.152
12365W        W84625   5.539  23.050  13.480
12366W        W84626  22.606  28.142   5.538
12367W        W84627  43.496   3.665  12.998
12368W        W84628   5.211  28.689   4.882
12369W        W84629  16.237  11.261   4.268
12370W        W84630  22.440  27.705  11.910
12371W        W84631  28.310  35.517  13.319
12372W        W84632  25.237  19.345  14.531
12373W        W84633  14.816   6.324   3.307
12374W        W84634  20.031  29.086  10.627
12375W        W84635  38.352  13.166  14.853
12376W        W84636   7.687  12.319   3.671
12377W        W84637  31.597  14.689   4.708
12378W        W84638   0.871  32.083   3.424
12379W        W84639  42.369   6.098   3.148
12380W        W84640  25.612   7.748  12.903
12381W        W84641  32.385  31.442  14.972
12382W        W84642   9.836  36.142  14.954
12383W        W84643   6.999  15.792  11.086
12384W        W84644  35.499  19.961   3.434
12385W        W84645  44.848  41.651   0.857
12386W        W84646  19.578   3.676   4.131
12387W        W84647   0.819   0.010   1.858
12388W        W84648   4.047   6.212  14.435
12389W        W84649  25.633  43.335   1.889
12390W        W84650   1.421  35.300  12.874
12391W        W84651  18.489  35.714   4.993
12392W        W84652  20.099  11.736   4.578
12393W        W84653   8.723  26.523   2.300
12394W        W84654  20.218  44.332   1.917
12395W        W84655  40.701  39.924  12.927
12396W        W84656  24.966  20.292   1.876
12397W        W84657  19.828  24.986   4.797
12398W        W84658  19.820  21.158   3.588
12399W        W84659  40.223  17.120   3.744
12400W        W84660  14.316  34.701  11.048
12401W        W84661  10.619  18.734   3.729
12402W        W84662  29.498   1.785   1.745
12403W        W84663  36.146  20.683   4.575
12404W        W84664  30.700  32.976   3.205
12405W        W84665  36.951  37.548  14.010
12406W        W84666   8.433   3.386   3.363
12407W        W84667  25.578  38.630   2.841
12408W        W84668  42.177   1.452  14.798
12409W        W84669  11.207  25.000  13.925
12410W        W84670  36.362  11.830  14.267
12411W        W84671   3.924  17.510   1.744
12412W        W84672  20.186   4.920  11.201
12413W        W84673  36.425  34.291   0.951
12414W        W84674   8.250  38.927  14.055
12415W        W84675   3.911  39.018  10.623
12416W        W84676  10.679   3.870  14.294
12417W        W84677  33.347  41.909  11.112
12418W        W84678  28.601  19.546  12.589
12419W        W84679  17.805  41.941  11.662
12420W        W84680  42.430  34.835   2.150
12421W        W84681   1.028   8.380  14.476
12422W        W84682  37.372  18.605   0.831
12423W        W84683  26.686  23.601  13.048
12424W        W84684  25.063  11.603  14.269
12425W        W84685  22.766  36.942  13.022
12426W        W84686  25.315   8.383   2.805
12427W        W84687  44.654  33.687  11.625
12428W        W84688   0.275  37.328   2.820
12429W        W84689  23.237   3.252  14.477
12430W        W84690  35.504  34.352  11.507
12431W        W84691  41.849   4.634   4.771
12432W        W84692  32.988  41.474  13.407
12433W        W84693  27.922  20.002   1.332
12434W        W84694  11.633   4.294  12.594
12435W        W84695  14.395  44.412  13.217
12436W        W84696  10.987  30.736   1.249
12437W        W84697   1.494  34.131  10.682
12438W        W84698  25.579  44.736   0.664
12439W        W84699  14.009   7.084   4.085
12440W        W84700  24.182  18.378   2.822
12441W        W84701   3.323  21.768   2.557
12442W        W84702  26.199  33.641  14.349
12443W        W84703  29.007  26.218   3.351
12444W        W84704   8.898   1.147   2.231
12445W        W84705  32.160  43.908   0.957
12446W        W84706  17.398  22.426   1.243
12447W        W84707   5.509  38.214   3.643
12448W        W84708  15.065  43.661  12.974
12449W        W84709  18.167  24.987   3.668
12450W        W84710  17.090  14.158   3.191
12451W        W84711   0.360   0.794  12.493
12452W        W84712  34.991  26.235  14.797
12453W        W84713  19.087   5.886  14.523
12454W        W84714  38.430  38.837  14.121
12455W        W84715   7.931  29.941   1.779
12456W        W84716  34.651  13.363  10.736
12457W        W84717  40.529  41.069   1.144
12458W        W84718  10.446   5.876   0.494
12459W        W84719  23.911   9.001   0.923
12460W        W84720  33.310  23.464   1.339
12461W        W84721  21.024  39.882   4.877
12462W        W84722  29.194  24.188   3.665
12463W        W84723   4.148  13.310   3.819
12464W        W84724  30.550  26.237   0.802
12465W        W84725  30.621  25.901  12.482
12466W        W84726  18.230  23.537   4.978
12467W        W84727  42.879   0.038   3.746
12468W        W84728  17.519   6.011   4.142
12469W        W84729  16.154  31.205   2.036
12470W        W84730  23.843  12.083  14.053
12471W        W84731   4.786  33.017   1.078
12472W        W84732  20.744  11.694  14.901
12473W        W84733  38.502  34.608  13.445
12474W        W84734  31.645  19.341  13.889
12475W        W84735   9.819  22.153   1.256
12476W        W84736  22.121  30.899   4.193
12477W        W84737  36.998  34.739   2.745
12478W        W84738  26.442  32.109   4.268
12479W        W84739   2.516  21.582  11.061
12480W        W84740   8.794  30.649  14.187
12481W        W84741  26.555  10.488  14.987
12482W        W84742   0.783  37.429  13.935
12483W        W84743  12.069  27.649  14.461
12484W        W84744   9.741  18.561   2.198
12485W        W84745   3.231  26.509   4.577
12486W        W84746   9.842  39.459   1.300
12487W        W84747  37.985  34.343   1.840
12488W        W84748  13.223  24.749   1.652
12489W        W84749  11.239  15.175  14.023
12490W        W84750  28.170  26.968  14.571
12491W        W84751  41.480  44.005   4.135
12492W        W84752  42.356   8.782   3.809
12493W        W84753  17.224  18.692   3.274
12494W        W84754   4.888   0.767  14.844
12495W        W84755  25.201  26.084  10.450
12496W        W84756  18.776   4.200  14.036
12497W        W84757  17.590  41.701  11.276
12498W        W84758  34.521  20.206  11.525
12499W        W84759  38.327  25.380   3.774
12500W        W84760   9.751   3.206   2.221
12501W        W84761  19.656  42.264   0.912
12502W        W84762  13.657  26.438   4.147
12503W        W84763  29.623  13.615  14.926
12504W        W84764  41.075  14.815   1.303
12505W        W84765  26.038  11.330  11.423
12506W        W84766  38.751  13.187   0.242
12507W        W84767   9.612  16.685  12.149
12508W        W84768   3.271   5.331  12.065
12509W        W84769  38.344  14.846  11.324
12510W        W84770  34.777   7.364  13.009
12511W        W84771  18.248   3.707  11.151
12512W        W84772   9.120  11.355   0.673
12513W        W84773  18.868  11.799   0.743
12514W        W84774   3.218  20.280   3.609
12515W        W84775  13.692  36.499   1.736
12516W        W84776  10.095   8.220  12.942
12517W        W84777  40.143  32.958  13.584
12518W        W84778  29.436   5.814  12.865
12519W        W84779  16.503   7.942   0.818
12520W        W84780  39.456   7.210   1.009
12521W        W84781  16.230  20.316   4.273
12522W        W84782  40.816  27.041  12.379
12523W        W84783  15.131  33.720   1.733
12524W        W84784  31.178  37.310   3.295
12525W        W84785  15.632  40.854  10.742
12526W        W84786  14.588  11.346   1.779
12527W        W84787   5.386  20.506   4.049
12528W        W84788  21.777   0.215  14.887
12529W        W84789  15.815  35.828  13.008
12530W        W84790  32.712  13.321   1.266
12531W        W84791  14.202  33.127  10.113
12532W        W84792  14.272  42.536  14.267
12533W        W84793   9.129  24.013   0.753
12534W        W84794  24.860  31.044  13.043
12535W        W84795  34.845  24.074   4.076
12536W        W84796   5.958  15.671  11.841
12537W        W84797  33.642   2.680   1.365
12538W        W84798   9.551  44.266  12.974
12539W        W84799  30.518   5.236  14.241
12540W        W84800  22.302  41.241   2.715
12541W        W84801  38.462   7.860   1.952
12542W        W84802  22.772  23.686  12.072
12543W        W84803  15.267   0.825   0.720
12544W        W84804  25.242  26.149  11.403
12545W        W84805   4.602  23.444  14.960
12546W        W84806  36.294  27.370   3.519
12547W        W84807  32.498  23.037   1.041
12548W        W84808  18.830  24.012  11.042
12549W        W84809  26.541  38.557   0.184
12550W        W84810  23.031  32.909  11.626
12551W        W84811  36.965  19.990   4.117
12552W        W84812  38.858  10.903   0.266
12553W        W84813   5.982  36.069  13.455
12554W        W84814  31.034  32.007  10.685
12555W        W84815  23.753  20.263  13.418
12556W        W84816  26.595  36.808  10.751
12557W        W84817   0.015  22.179   0.989
12558W        W84818   9.167   1.882  13.140
12559W        W84819  13.032  32.201  14.605
12560W        W84820  44.138  24.242   0.788
12561W        W84821  28.607  34.899   4.574
12562W        W84822   7.763  12.831  12.660
12563W        W84823  35.493  25.718  11.996
12564W        W84824  27.239  35.372   0.443
12565W        W84825  18.869  34.930  12.749
12566W        W84826  11.104  20.052   1.031
12567W        W84827  10.365  31.673   0.870
12568W        W84828  39.373  21.463  14.938
12569W        W84829  32.985  17.671   1.414
12570W        W84830  27.546  34.125  11.832
12571W        W84831  44.992   9.635  13.577
12572W        W84832   8.224  10.253   1.424
12573W        W84833  23.966  21.715  14.419
12574W        W84834  29.140   5.787   0.545
12575W        W84835  14.590  19.011  10.675
12576W        W84836  15.695   9.260   4.404
12577W        W84837  22.572  36.800   0.116
12578W        W84838  10.539  39.959   3.683
12579W        W84839   7.507  18.720   2.925
12580W        W84840  34.160  11.130   2.170
12581W        W84841  26.848  14.536   0.317
12582W        W84842  16.033  27.549  10.410
12583W        W84843  19.712   5.270   4.907
12584W        W84844  20.730  23.576  13.889
12585W        W84845  31.602  30.187   1.298
12586W        W84846  19.583  37.347   5.065
12587W        W84847  30.824  14.184   1.283
12588W        W84848  24.796  30.899  13.953
12589W        W84849  29.218  35.581  12.893
12590W        W84850  24.785  29.626  13.480
12591W        W84851   4.925   2.786   2.927
12592W        W84852  19.081  11.360  12.453
12593W        W84853  25.124   0.529   0.613
12594W        W84854  21.461  37.587   0.517
12595W        W84855  35.725  18.605   9.764
12596W        W84856  41.093  37.083   3.944
12597W        W84857  18.660  35.786  13.001
12598W        W84858   7.845  38.924  11.228
12599W        W84859   3.279  13.454   0.550
12600W        W84860  40.334   2.958   2.666
12601W        W84861   6.692  32.063   0.988
12602W        W84862  17.658  42.883  14.883
12603W        W84863  14.417   2.189  13.972
12604W        W84864  18.778  21.396  10.962
12605W        W84865   5.810  15.552   4.185
12606W        W84866  25.714  12.999   1.127
12607W        W84867  27.041  30.008   3.710
12608W        W84868  35.926  12.762   3.216
12609W        W84869  11.289  27.560  11.182
12610W        W84870  36.546  36.691   3.454
12611W        W84871  43.859  19.230  13.098
12612W        W84872  16.097  11.153   1.890
12613W        W84873  40.352  21.233  14.414
12614W        W84874  31.501  40.684   3.108
12615W        W84875  14.420  43.423   3.589
12616W        W84876  14.450  38.541   3.719
12617W        W84877  22.321  40.894   3.630
12618W        W84878   1.375  25.879   2.010
12619W        W84879  37.929  34.817  14.731
12620W        W84880   3.403  31.866   0.738
12621W        W84881  34.417  32.446   0.791
12622W        W84882  41.729  39.504   2.814
12623W        W84883  14.073  15.910  14.650
12624W        W84884  34.030  29.577   1.042
12625W        W84885  10.277  41.370   4.567
12626W        W84886  32.849   5.278  12.487
12627W        W84887  41.952  26.395   4.236
12628W        W84888  35.536  43.480  13.846
12629W        W84889  36.993  17.767   3.771
12630W        W84890  25.984  33.540   4.494
12631W        W84891  19.047   3.023  11.597
12632W        W84892   3.203  16.103  10.536
12633W        W84893  29.484  21.520  13.905
12634W        W84894  17.135  32.514   2.639
12635W        W84895  42.281  39.958  14.784
12636W        W84896  30.553   8.090  11.960
12637W        W84897  14.120   4.220  12.696
12638W        W84898   5.743   0.388  11.686
12639W        W84899   1.693  20.999  13.733
12640W        W84900   4.329  17.967  13.492
12641W        W84901  12.074  12.620  12.741
12642W        W84902  20.639   6.381   3.743
12643W        W84903  11.930  26.398  12.978
12644W        W84904  21.257  11.643  12.431
12645W        W84905   2.875  16.003   4.094
12646W        W84906  26.291  12.004   1.837
12647W        W84907  40.604   8.437  10.409
12648W        W84908   9.402  12.224  11.617
12649W        W84909   6.408  20.939   4.191
12650W        W84910   0.680  18.849  12.946
12651W        W84911   4.367  30.314   1.692
12652W        W84912  15.137   0.848   1.819
12653W        W84913  44.789  26.498   1.384
12654W        W84914  10.703  41.365  14.248
12655W        W84915   2.011  22.543  12.735
12656W        W84916  13.164   5.661  10.726
12657W        W84917  25.971  13.825   1.363
12658W        W84918  29.273  23.142  13.118
12659W        W84919  16.552  30.990  14.824
12660W        W84920  14.867   7.205   1.341
12661W        W84921   8.641  27.842   4.071
12662W        W84922  44.013  29.024  12.965
12663W        W84923  35.365  33.520  12.023
12664W        W84924  35.256  21.061  11.912
12665W        W84925  12.095   2.240   2.673
12666W        W84926  14.658  31.298  12.105
12667W        W84927  17.136  19.362   2.658
12668W        W84928  44.552  36.391   2.925
12669W        W84929  38.575  36.911   1.653
12670W        W84930  20.479  36.230   3.389
12671W        W84931  12.348   9.974  11.036
12672W        W84932  33.495   3.799   2.096
12673W        W84933  28.422  15.901  14.832
12674W        W84934  42.283  38.161  14.199
12675W        W84935  23.712  40.030  13.299
12676W        W84936  14.271  10.293   1.153
12677W        W84937   9.236  16.340   1.252
12678W        W84938   7.190  24.728   0.971
12679W        W84939  30.521  12.441   1.371
12680W        W84940   1.857  34.359   2.795
12681W        W84941   5.930  14.394  13.201
12682W        W84942  17.797  21.536  13.446
12683W        W84943  30.892  20.583  12.422
12684W        W84944  42.474  10.269   3.247
12685W        W84945  14.394   8.003  14.726
12686W        W84946  42.285  41.908   2.917
12687W        W84947   5.902   1.797   0.384
12688W        W84948   7.218  37.161   3.682
12689W        W84949   9.465  15.524  13.904
12690W        W84950  37.780  21.145  14.535
12691W        W84951   0.555   6.924   3.654
12692W        W84952  32.118  31.610   3.137
12693W        W84953  25.978  44.306  11.536
12694W        W84954  17.712  39.386  13.959
12695W        W84955  35.929   9.711   0.342
12696W        W84956  22.615  42.784  12.513
12697W        W84957   1.934  10.673   3.253
12698W        W84958  14.816  29.033  13.495
12699W        W84959  37.555  34.641   3.381
12700W        W84960   2.207  14.844   0.795
12701W        W84961  32.213  32.576  13.834
12702W        W84962  18.314  27.075  13.931
12703W        W84963   7.707  34.738   4.619
12704W        W84964  44.722  11.396   2.598
12705W        W84965  33.906  12.277   1.177
12706W        W84966  30.296  18.513   3.906
12707W        W84967  21.825   2.298  13.746
12708W        W84968  21.237  34.099   1.838
12709W        W84969   3.220  30.346  13.847
12710W        W84970   5.622   7.916  11.207
12711W        W84971  22.177  27.360  12.717
12712W        W84972   0.689  42.902   3.732
12713W        W84973  42.209  30.647  12.576
12714W        W84974  13.633  20.573  10.609
12715W        W84975  14.331   1.879   0.795
12716W        W84976  32.590  14.294   0.515
12717W        W84977  29.141   3.760  10.736
12718W        W84978   8.932   0.620  12.455
12719W        W84979  15.576  33.136  11.387
12720W        W84980   6.254  15.582   1.311
12721W        W84981  16.893  40.411   4.245
12722W        W84982  31.562  24.997  10.743
12723W        W84983  12.154   2.437   1.420
12724W        W84984   1.295  35.501  13.934
12725W        W84985   5.457  37.719  12.990
12726W        W84986  44.409  33.689   4.723
12727W        W84987  39.943  22.610  14.250
12728W        W84988  21.166  21.236  13.027
12729W        W84989  12.759  16.576   4.659
12730W        W84990  24.615   0.949   4.245
12731W        W84991  22.062  44.242  11.627
12732W        W84992  24.155   8.008   1.330
12733W        W84993   9.393  14.733  12.792
12734W        W84994  37.363  39.546   1.270
12735W        W84995  31.845   1.090   5.100
12736W        W84996   1.805  39.086   0.039
12737W        W84997  22.621  28.286   1.242
12738W        W84998  16.147  36.968   1.628
12739W        W84999   1.454  10.724   1.398
12740W        W85000  20.227   3.672   1.239
12741W        W85001  20.344  39.351  14.362
12742W        W85002   0.921  22.916  14.893
12743W        W85003  20.678  12.776  13.322
12744W        W85004  24.270  35.379  13.798
12745W        W85005  24.604  29.851   3.659
12746W        W85006  14.664  42.792  13.802
12747W        W85007  25.663  15.247  10.568
12748W        W85008  34.637   2.051   0.880
12749W        W85009   1.937  37.302   0.378
12750W        W85010   5.323  44.083  11.125
12751W        W85011  43.753  26.281  12.380
12752W        W85012  42.807  17.110  12.156
12753W        W85013  40.961  20.015   2.822
12754W        W85014   4.109   0.650   2.901
12755W        W85015  28.054  43.299   4.958
12756W        W85016  19.953  35.103  12.013
12757W        W85017  32.004  21.283   0.105
12758W        W85018  27.090  27.799   0.747
12759W        W85019  37.605  30.676   1.397
12760W        W85020   4.639   2.412  14.515
12761W        W85021  40.419   2.915  11.456
12762W        W85022  37.960  23.226  10.675
12763W        W85023  34.860   8.762   0.545
12764W        W85024   1.505   4.515  13.946
12765W        W85025  14.099  34.484  10.651
12766W        W85026  29.393   8.647  13.795
12767W        W85027  39.807  17.086  10.756
12768W        W85028   8.338  36.466  13.023
12769W        W85029  22.715   5.746   2.103
12770W        W85030   0.431  39.022  11.954
12771W        W85031  27.005   3.759  10.621
12772W        W85032  39.188  18.919   4.675
12773W        W85033  10.169   0.594   0.766
12774W        W85034   8.238   3.474  12.058
12775W        W85035  22.188  19.192   0.907
12776W        W85036   1.896  30.390  14.058
12777W        W85037   6.291  28.092   1.595
12778W        W85038  33.448  22.675  10.744
12779W        W85039  27.981  35.547   2.823
12780W        W85040  29.352  41.952  12.068
12781W        W85041  37.935  44.958   5.050
12782W        W85042   0.786  40.547  13.836
12783W        W85043   1.428  40.744  13.489
12784W        W85044  18.444   9.689  14.606
12785W        W85045   6.255  43.553   1.426
12786W        W85046  10.400  36.402   0.405
12787W        W85047  15.869   1.306   4.510
12788W        W85048   9.210   8.044  12.418
12789W        W85049  22.998   4.234  13.415
12790W        W85050  22.236  23.576   1.380
12791W        W85051  12.126  10.176   1.979
12792W        W85052  28.004   9.090   4.669
12793W        W85053  20.276  43.820  14.602
12794W        W85054  23.974  33.410   4.164
12795W        W85055   9.607  23.664  13.961
12796W        W85056   1.429   8.847   1.299
12797W        W85057  20.983  33.478  14.927
12798W        W85058  41.309  42.012   1.917
12799W        W85059  26.728  35.806  11.234
12800W        W85060  40.928  42.434  13.529
12801W        W85061  39.975  18.041  10.557
12802W        W85062  42.817  39.066   1.971
12803W        W85063   7.815  20.753  13.197
12804W        W85064  43.233  32.893  14.209
12805W        W85065  39.448  18.537  12.561
12806W        W85066  14.199  22.030  13.750
12807W        W85067  14.960   8.348  11.104
12808W        W85068  17.136  24.463  12.932
12809W        W85069  14.591  14.622   3.277
12810W        W85070  10.918  39.282  14.830
12811W        W85071   7.154  10.873  11.631
12812W        W85072  31.383  30.037  13.203
12813W        W85073  39.062  31.271   1.577
12814W        W85074   3.856  13.734  10.885
12815W        W85075  10.698  41.251  14.753
12816W        W85076  43.302  44.280   3.267
12817W        W85077  21.263   6.215  12.575
12818W        W85078   5.320   2.842  11.958
12819W        W85079  23.732   8.143   3.761
12820W        W85080  17.210  35.138   0.875
12821W        W85081   7.175  30.412   3.338
12822W        W85082  22.405   8.179  11.512
12823W        W85083  17.082   4.558   0.740
12824W        W85084  35.483  33.099   3.696
12825W        W85085  13.509  42.604   0.574
12826W        W85086  15.889   7.953  13.936
12827W        W85087  33.938  25.972   1.746
12828W        W85088  12.902  14.222  13.442
12829W        W85089   8.687  16.389   1.392
12830W        W85090  11.814  29.432   1.397
12831W        W85091  38.333   0.172  14.335
12832W        W85092  37.643  34.239   2.241
12833W        W85093  40.022  44.014   4.242
12834W        W85094  17.036  21.611  14.407
12835W        W85095   4.720  16.978  14.889
12836W        W85096  10.433  27.118  10.900
12837W        W85097  41.167   5.268  11.292
12838W        W85098   3.239   5.379  12.952
12839W        W85099  24.436  31.795   0.415
12840W        W85100  44.548  11.341   0.969
12841W        W85101  11.749   2.698  14.809
12842W        W85102   2.287   8.947  10.952
12843W        W85103  42.208  12.426  11.902
12844W        W85104  35.468   0.006  11.545
12845W        W85105  39.142  15.934   4.986
12846W        W85106  24.120  11.863  11.574
12847W        W85107  11.796  34.138   2.637
12848W        W85108   6.110   7.991  12.041
12849W        W85109  43.880  31.121   0.257
12850W        W85110  34.617  19.394   2.746
12851W        W85111  22.063  26.383  14.829
12852W        W85112   2.856  38.071  12.348
12853W        W85113   3.456   9.818  14.794
12854W        W85114   1.496  21.619   2.178
12855W        W85115  28.036  18.778   4.632
12856W        W85116  36.490  32.378   0.856
12857W        W85117  34.936  35.982   2.331
12858W        W85118  34.855  28.889   3.045
12859W        W85119  13.396  29.210  13.375
12860W        W85120  19.825  28.579  10.705
12861W        W85121  30.089  16.322   4.591
12862W        W85122  43.862  29.688   2.703
12863W        W85123  42.446  10.783   1.768
12864W        W85124   0.495  34.201   1.711
12865W        W85125  11.004  16.090   1.014
12866W        W85126  12.661   4.222   0.270
12867W        W85127   1.618   2.652  13.217
12868W        W85128  14.163  17.313  13.326
12869W        W85129  18.598  27.420   0.708
12870W        W85130  33.650  15.055  10.601
12871W        W85131  21.741  12.180  14.795
12872W        W85132  17.660  11.194  14.046
12873W        W85133  19.172  23.984  11.577
12874W        W85134  15.679   4.779  11.088
12875W        W85135  41.288   9.707  12.392
12876W        W85136  41.256   7.728  12.464
12877W        W85137  11.374  12.452  11.545
12878W        W85138  10.683  30.397   0.988
12879W        W85139  42.743  40.045  12.104
12880W        W85140   0.059  34.554  12.778
12881W        W85141  41.724  36.214  13.466
12882W        W85142  31.832  24.098  13.195
12883W        W85143  11.098  44.256  11.553
12884W        W85144  28.148   8.266  10.084
12885W        W85145  19.379  40.746  12.822
12886W        W85146  32.923   0.291  12.656
12887W        W85147  43.115  24.539   3.832
12888W        W85148  18.983  36.299   0.831
12889W        W85149  20.299   3.942  13.963
12890W        W85150  33.813  11.286   1.288
12891W        W85151  35.574  11.836   1.424
12892W        W85152  23.384  27.506   0.684
12893W        W85153  10.785  12.191  10.724
12894W        W85154   6.441  34.383   0.981
12895W        W85155  44.305  39.743   0.955
12896W        W85156  41.324   3.421   4.124
12897W        W85157   6.958  19.185  13.338
12898W        W85158  14.944   6.652  14.371
12899W        W85159  17.229  39.429  14.255
12900W        W85160  40.052  13.840   3.263
12901W        W85161  44.415  12.592  12.992
12902W        W85162  44.473  36.963   3.757
12903W        W85163   2.948  36.557  12.858
12904W        W85164  32.675  42.233  14.921
12905W        W85165  12.760  27.784  12.747
12906W        W85166   9.645  33.157   0.012
12907W        W85167   7.729  21.530   0.435
12908W        W85168  26.061  41.853  10.279
12909W        W85169  36.730   1.365  13.161
12910W        W85170  31.244  33.425  12.455
12911W        W85171  20.244  32.966   1.504
12912W        W85172  38.018  21.457  11.087
12913W        W85173  27.881  25.634  14.508
12914W        W85174  19.017   1.298  11.590
12915W        W85175   6.769  28.660  13.962
12916W        W85176   8.463   5.734  12.670
12917W        W85177   7.131   2.656  10.639
12918W        W85178  10.120  27.810  14.530
12919W        W85179  13.888  22.714   4.254
12920W        W85180   1.543   2.744   1.987
12921W        W85181  15.104   0.762  13.030
12922W        W85182  13.632  43.076   4.119
12923W        W85183  23.489  15.439  11.000
12924W        W85184   9.692  44.492   2.417
12925W        W85185  12.704   7.627  12.037
12926W        W85186  34.169  39.601   3.782
12927W        W85187  40.563  39.922   3.394
12928W        W85188  15.564   5.661   1.619
12929W        W85189  29.037  13.268   2.338
12930W        W85190  10.336   2.735  14.846
12931W        W85191  20.364  27.259  11.153
12932W        W85192  43.724  23.636  14.878
12933W        W85193  43.803  16.302  13.665
12934W        W85194  24.593  33.176   0.304
12935W        W85195   0.463  21.593   3.117
12936W        W85196  33.571  10.057  14.882
12937W        W85197  42.780  38.714   3.381
12938W        W85198  22.134  27.629  11.389
12939W        W85199  26.096  26.232   0.360
12940W        W85200  38.027  36.388   2.429
12941W        W85201   4.873  27.180   1.109
12942W        W85202  34.088  29.044   1.441
12943W        W85203  16.286  21.714   0.852
12944W        W85204   0.780  39.981   4.123
12945W        W85205  16.278   0.203  12.601
12946W        W85206  42.995  35.561   2.611
12947W        W85207   3.186  14.336  14.408
12948W        W85208  25.044  33.933   2.436
12949W        W85209  38.151  29.405   4.011
12950W        W85210  20.856  34.508   3.887
12951W        W85211  28.400  23.546  13.290
12952W        W85212  40.731   2.722   2.929
12953W        W85213  39.253   5.343  11.185
12954W        W85214  42.622  41.364  11.725
12955W        W85215   1.465  29.988  11.086
12956W        W85216  42.470  36.708  14.483
12957W        W85217  20.509  44.852   2.296
12958W        W85218  15.618   8.269  11.814
12959W        W85219  34.141  15.976  13.124
12960W        W85220  26.636   9.086  12.492
12961W        W85221  31.049   2.756  13.943
12962W        W85222  27.293  25.597   0.273
12963W        W85223  20.537  23.574   2.833
12964W        W85224   7.159  14.698   3.299
12965W        W85225  39.470  20.619   1.900
12966W        W85226  44.793  37.059   1.608
12967W        W85227  12.047   2.925  12.962
12968W        W85228  34.848  34.852   1.800
12969W        W85229   2.955  17.794  14.757
12970W        W85230  36.145  35.443  13.775
12971W        W85231  43.266   2.935  14.267
12972W        W85232  37.876  39.739  11.040
12973W        W85233   6.335  19.792  13.017
12974W        W85234  13.587  28.678   2.653
12975W        W85235  14.172  33.147  12.837
12976W        W85236  42.274  10.757   4.807
12977W        W85237  18.507  27.949  13.964
12978W        W85238  31.122  32.013   9.690
12979W        W85239   0.461  12.704  13.040
12980W        W85240  26.384   8.174  13.027
12981W        W85241  44.365   6.741   2.582
12982W        W85242  33.228  27.962  11.832
12983W        W85243  39.767  31.721   2.276
12984W        W85244   0.264  20.523   1.425
12985W        W85245  43.423  37.382   0.735
12986W        W85246   5.882  31.689   1.253
12987W        W85247  15.751  33.461   2.378
12988W        W85248   1.275  22.620   1.779
12989W        W85249  20.423  13.815   0.879
12990W        W85250  44.310  38.792  14.941
12991W        W85251  27.587  29.958   0.002
12992W        W85252  28.650  42.505  11.961
12993W        W85253   5.283  38.869  11.269
12994W        W85254  40.963   6.986  13.363
12995W        W85255   7.588   2.820   3.861
12996W        W85256  34.100  38.069   1.282
12997W        W85257   2.996   0.135  11.016
12998W        W85258  35.049  13.691   3.087
12999W        W85259   9.666  20.695   2.763
13000W        W85260  35.464  42.010   3.545
13001W        W85261  24.236  19.877   1.449
13002W        W85262  29.656  18.007   3.299
13003W        W85263  10.676  44.448  14.956
13004W        W85264  36.099  38.446   4.151
13005W        W85265   0.688  44.826  12.753
13006W        W85266  43.067   8.445  11.111
13007W        W85267   2.445  41.014  12.644
13008W        W85268  18.256  14.253  13.316
13009W        W85269   5.684  14.786  12.927
13010W        W85270   8.089  27.093   0.398
13011W        W85271  30.535  11.164   2.071
13012W        W85272  31.343  23.291   4.174
13013W        W85273  41.141   2.894  13.034
13014W        W85274   6.919  26.189   2.216
13015W        W85275  38.924   0.970   0.780
13016W        W85276  20.278  23.452   0.656
13017W        W85277  36.071  15.630  14.246
13018W        W85278  26.075  29.940   1.633
13019W        W85279  18.287  20.703  13.977
13020W        W85280  42.570  17.767   2.760
13021W        W85281  32.861  16.853  12.425
13022W        W85282  33.018  37.234   1.911
13023W        W85283  15.186  35.643  10.569
13024W        W85284  27.327  43.435  11.942
13025W        W85285  28.987  44.738  11.998
13026W        W85286  39.432  35.824   3.225
13027W        W85287   4.138  18.209   2.317
13028W        W85288  31.863  19.937   1.790
13029W        W85289  40.214   1.783  14.894
13030W        W85290  44.903  33.615   3.188
13031W        W85291  19.549   6.334   3.744
13032W        W85292  41.226   4.229   3.568
13033W        W85293   1.436  25.413   4.135
13034W        W85294  34.678  37.051   3.430
13035W        W85295  19.703  22.198   2.749
13036W        W85296  16.622  31.590  11.647
13037W        W85297  25.568  39.664  11.124
13038W        W85298  25.588  11.183  10.714
13039W        W85299  41.877  21.649   1.877
13040W        W85300  43.945   9.108  14.077
13041W        W85301  32.044  36.191  11.438
13042W        W85302  27.483  20.231  13.551
13043W        W85303  42.858  29.693  10.994
13044W        W85304   7.295  17.725   0.373
13045W        W85305  22.016  19.695  11.590
13046W        W85306  25.489  18.095   4.110
13047W        W85307  31.091   8.852  13.433
13048W        W85308  14.732  13.273   4.813
13049W        W85309  18.710  17.223   1.233
13050W        W85310  10.115  19.546  12.795
13051W        W85311   4.332  36.987   0.307
13052W        W85312  27.075  25.675  10.768
13053W        W85313  38.498   1.412   4.036
13054W        W85314  37.447  16.850  13.080
13055W        W85315  43.844  33.060   3.834
13056W        W85316   5.872  22.814   2.749
13057W        W85317  10.901  17.345  13.434
13058W        W85318  24.702  28.035   3.360
13059W        W85319  25.456   5.085   3.312
13060W        W85320  10.680   3.224   3.079
13061W        W85321  12.619   5.782  10.816
13062W        W85322  28.869  33.121  11.067
13063W        W85323  43.003  33.341   2.253
13064W        W85324  21.204  30.975  14.026
13065W        W85325  21.840  16.002   2.779
13066W        W85326  36.152  23.438   2.463
13067W        W85327  29.134  30.190   4.027
13068W        W85328  28.249   4.524   4.121
13069W        W85329   2.447  41.227  13.395
13070W        W85330   5.314  38.857   3.325
13071W        W85331   9.152  13.878   3.375
13072W        W85332  29.646  39.528   4.390
13073W        W85333  18.030  32.579  12.126
13074W        W85334  17.044  43.679  12.621
13075W        W85335  32.843  14.040   1.709
13076W        W85336  15.688  43.081  13.574
13077W        W85337  19.587  21.122  11.812
13078W        W85338  40.597  30.497  10.748
13079W        W85339   6.779  25.033   5.082
13080W        W85340  44.418  11.915   2.416
13081W        W85341  37.153  17.186   2.245
13082W        W85342  11.898  19.202   1.178
13083W        W85343  20.042  29.943   3.211
13084W        W85344   8.440  35.385  13.993
13085W        W85345  40.419  12.265  11.312
13086W        W85346  14.978  10.799   0.801
13087W        W85347   2.035  29.177   4.767
13088W        W85348  38.123  33.959  10.977
13089W        W85349   2.903  38.375   4.088
13090W        W85350  20.512  23.471  14.349
13091W        W85351  26.625  37.141  11.165
13092W        W85352   8.295  26.065  13.154
13093W        W85353  20.749  25.149  13.935
13094W        W85354  40.823   8.882  13.780
13095W        W85355  41.734  19.578   2.850
13096W        W85356  40.990  17.970  12.090
13097W        W85357  28.711  36.679  11.505
13098W        W85358   9.521  20.651   4.991
13099W        W85359   0.307  11.346  13.570
13100W        W85360  21.892  14.762   2.213
13101W        W85361  27.058   0.057   2.678
13102W        W85362  10.287  44.960   4.995
13103W        W85363  36.053   1.192  13.514
13104W        W85364   2.857   4.264  13.705
13105W        W85365   1.572  25.496  11.930
13106W        W85366  37.074  41.159   3.956
13107W        W85367   5.889  29.520   2.052
13108W        W85368  44.680  12.601  12.525
13109W        W85369  11.283  30.973   3.114
13110W        W85370  15.212  36.438  13.878
13111W        W85371  33.596  15.078  11.512
13112W        W85372  10.251  44.499   4.779
13113W        W85373  16.120  16.110  14.400
13114W        W85374  13.572  34.462  10.654
13115W        W85375  35.094  43.438  10.637
13116W        W85376  29.133  42.461   3.758
13117W        W85377   9.324  38.230   0.597
13118W        W85378   2.416  38.359   2.795
13119W        W85379  34.515  41.564  11.174
13120W        W85380  38.146  38.932  11.633
13121W        W85381  12.825  15.499   3.151
13122W        W85382  25.107  21.177  13.279
13123W        W85383   9.186  14.132  11.066
13124W        W85384  25.147  13.748  11.543
13125W        W85385  39.076  27.437  11.113
13126W        W85386  42.886  24.017   0.246
13127W        W85387  40.590  24.564  12.887
13128W        W85388   3.521  30.098  13.444
13129W        W85389   1.726  39.499   3.337
13130W        W85390  41.864  44.467  11.542
13131W        W85391  43.592  32.015   0.222
13132W        W85392  40.618  25.954   4.314
13133W        W85393  12.969   0.467  11.358
13134W        W85394  13.166  40.864   0.963
13135W        W85395  29.622   5.959   0.434
13136W        W85396  28.381  39.878  11.473
13137W        W85397  12.454   3.667   1.836
13138W        W85398  31.264  41.085  12.622
13139W        W85399  35.509   3.958   3.703
13140W        W85400   9.105  41.936   4.395
13141W        W85401  10.730  31.132   3.886
13142W        W85402  37.614  44.441   0.432
13143W        W85403  14.314   2.688  14.031
13144W        W85404  39.548  31.057   1.774
13145W        W85405  38.646  36.499   4.216
13146W        W85406  20.532  28.055   2.773
13147W        W85407  41.398  23.684  14.560
13148W        W85408  25.768  43.568  14.269
13149W        W85409  28.319  35.496  10.295
13150W        W85410  40.440  24.932   2.116
13151W        W85411  28.058  39.846   0.874
13152W        W85412  15.763   9.555  13.072
13153W        W85413   0.418  20.591   4.949
13154W        W85414  41.309  19.578  14.796
13155W        W85415  25.167   5.910   2.798
13156W        W85416   5.299  24.147  11.977
13157W        W85417   3.750  30.027  12.969
13158W        W85418  25.448  13.228  10.644
13159W        W85419  10.354  18.128   1.107
13160W        W85420  15.854   8.615  12.385
13161W        W85421  32.594  24.982  14.983
13162W        W85422  33.680  40.133   1.985
13163W        W85423  39.536  28.121  13.549
13164W        W85424  40.409  41.203  13.379
13165W        W85425  16.620  30.198   1.288
13166W        W85426  31.208   7.236  13.998
13167W        W85427  20.715   6.621   0.423
13168W        W85428  25.013  11.173  10.718
13169W        W85429  35.905  33.163   0.941
13170W        W85430   7.555   0.494   1.940
13171W        W85431  42.889  35.632   0.036
13172W        W85432  24.677  16.255   3.006
13173W        W85433  14.067  17.220  14.436
13174W        W85434  35.456  17.012   4.080
13175W        W85435  24.477  15.363   3.567
13176W        W85436  30.915  44.727  11.867
13177W        W85437   8.684  29.028  14.829
13178W        W85438  29.177  37.521  10.700
13179W        W85439  34.922  29.566  11.596
13180W        W85440  18.178  41.068  13.963
13181W        W85441  35.554  12.643   1.861
13182W        W85442  13.100  35.031  13.850
13183W        W85443  33.563  18.856  14.723
13184W        W85444  14.286  42.280   2.353
13185W        W85445  13.890   8.793   1.806
13186W        W85446  23.919  27.086   3.169
13187W        W85447  23.976  30.576   4.495
13188W        W85448  10.311  16.014  10.996
13189W        W85449  31.183   7.833   1.413
13190W        W85450  21.718  29.423  13.273
13191W        W85451   1.811  37.837  12.587
13192W        W85452  33.526  44.090  10.198
13193W        W85453  41.264  33.177   0.818
13194W        W85454  38.508  34.653   4.749
13195W        W85455  43.454  32.370  13.358
13196W        W85456  11.835  39.980   3.137
13197W        W85457  34.681  36.687   4.507
13198W        W85458  21.037  32.199   0.789
13199W        W85459  24.253   1.228   1.800
13200W        W85460  32.640   4.995  11.948
13201W        W85461  37.629   8.632   1.174
13202W        W85462   6.834   8.276  13.212
13203W        W85463  25.096  31.388   2.278
13204W        W85464  27.603   1.319   2.930
13205W        W85465  25.957  39.292   1.281
13206W        W85466  22.148   5.206   1.409
13207W        W85467   7.312  18.046   2.223
13208W        W85468  11.358  16.637   2.307
13209W        W85469  37.370   2.980  12.077
13210W        W85470  20.951  36.790  13.513
13211W        W85471  35.592  18.136  14.388
13212W        W85472  27.755  34.551  11.024
13213W        W85473  34.420  16.763  13.843
13214W        W85474  28.700   7.384   0.807
13215W        W85475   1.074  30.727  12.580
13216W        W85476  38.148  33.796  10.030
13217W        W85477  14.638  21.256   3.288
13218W        W85478  39.782   9.359   0.817
13219W        W85479  37.329   0.201   2.389
13220W        W85480  20.686  30.271   2.129
13221W        W85481  31.939   5.110   0.343
13222W        W85482   8.270  41.592  12.228
13223W        W85483  34.918   5.087   4.033
13224W        W85484  12.379  31.157   2.266
13225W        W85485  22.302  43.933   3.731
13226W        W85486  42.934  26.503  12.737
13227W        W85487  34.305  40.373  11.978
13228W        W85488   5.312  14.112  13.961
13229W        W85489  29.396  13.612   2.227
13230W        W85490  34.140  10.358   0.975
13231W        W85491   7.750  18.889   3.703
13232W        W85492  40.564   5.712  13.405
13233W        W85493   3.820  21.687  13.170
13234W        W85494  31.660  44.394  12.917
13235W        W85495  43.422  34.069   2.817
13236W        W85496  26.133  12.760  14.058
13237W        W85497  13.375  15.664   0.951
13238W        W85498  23.148   4.670  11.979
13239W        W85499   9.682  39.452   3.130
13240W        W85500  15.208  41.584   0.968
13241W        W85501  29.096  17.279  12.820
13242W        W85502  36.393   0.829  11.397
13243W        W85503  16.446   9.386   3.318
13244W        W85504  39.311  41.976  13.937
13245W        W85505   4.896  38.461   4.486
13246W        W85506   5.746  15.822  10.573
13247W        W85507  34.908  16.632  13.975
13248W        W85508  23.411  10.882  11.123
13249W        W85509  23.512  17.184   4.050
13250W        W85510  15.170  30.574   1.350
13251W        W85511  33.521  13.075   0.852
13252W        W85512  11.215  24.666  11.526
13253W        W85513  26.031  24.981  10.860
13254W        W85514  17.097  14.908   2.756
13255W        W85515  15.641  37.428   5.096
13256W        W85516  28.555  21.220  11.697
13257W        W85517  30.794  16.306  14.287
13258W        W85518  27.417  39.997   4.947
13259W        W85519  29.939  27.163   3.193
13260W        W85520  43.489  27.207   1.844
13261W        W85521   2.955  28.523   3.143
13262W        W85522  11.094  19.073  11.518
13263W        W85523  27.526  19.595  11.560
13264W        W85524  23.093  27.114   0.023
13265W        W85525   7.819  39.351  14.501
13266W        W85526  32.691  25.844  13.976
13267W        W85527  42.858  26.913  13.052
13268W        W85528   5.659  11.643   4.909
13269W        W85529  28.710  43.482  14.510
13270W        W85530  24.159  28.122   3.618
13271W        W85531  21.747  30.596   2.273
13272W        W85532  14.598  42.533  10.680
13273W        W85533  28.958  32.141  10.578
13274W        W85534  11.900   3.697  11.102
13275W        W85535  33.939  29.184  12.518
13276W        W85536  22.105  23.120   1.695
13277W        W85537  37.893   9.613  11.822
13278W        W85538   8.837  26.524   4.605
13279W        W85539   3.246  27.418   4.171
13280W        W85540  39.324  28.537  12.655
13281W        W85541  40.262  44.728   2.613
13282W        W85542   5.862  21.430  14.761
13283W        W85543  23.545  11.361   2.979
13284W        W85544  34.717  28.096  12.999
13285W        W85545  39.458  42.741   2.656
13286W        W85546   2.923  37.940   2.329
13287W        W85547  40.981   9.830  14.248
13288W        W85548   4.250   6.758  13.428
13289W        W85549  44.209  12.281   4.236
13290W        W85550  27.967  28.216  12.831
13291W        W85551  33.153  13.709   3.125
13292W        W85552  29.545  34.015  13.015
13293W        W85553   3.645   3.515  11.406
13294W        W85554  11.631  15.178  10.705
13295W        W85555  36.144   0.430  13.407
13296W        W85556  39.468   0.279   4.054
13297W        W85557   6.461  23.611   0.576
13298W        W85558  28.044  31.947   4.165
13299W        W85559  43.334  11.374  13.029
13300W        W85560  18.681  31.042   0.330
13301W        W85561  37.802  29.965   0.527
13302W        W85562  21.799  21.948   2.989
13303W        W85563  26.120  40.492   4.793
13304W        W85564   6.860  44.332  10.722
13305W        W85565  10.588  31.931  12.885
13306W        W85566  39.708  17.574   0.004
13307W        W85567  37.773  21.653   3.723
13308W        W85568  14.623  15.078  12.990
13309W        W85569  33.027  28.114  13.339
13310W        W85570  17.156   7.907  12.380
13311W        W85571  40.999  32.503   2.296
13312W        W85572  29.563   4.724  13.651
13313W        W85573  11.666  42.116  13.946
13314W        W85574   2.325  40.988   3.808
13315W        W85575  18.999   8.311  13.421
13316W        W85576   6.454   1.065   2.743
13317W        W85577  15.514  39.640   2.382
13318W        W85578   1.299  14.267  10.554
13319W        W85579  27.566  37.531  11.019
13320W        W85580  28.063  24.485  11.434
13321W        W85581  34.146   6.692  12.187
13322W        W85582  12.426  43.776   3.162
13323W        W85583  28.516  41.868  13.373
13324W        W85584  41.971   5.418   2.095
13325W        W85585  19.680  25.908   2.319
13326W        W85586  13.212  33.494   1.863
13327W        W85587   2.661  26.387  12.115
13328W        W85588   0.500  34.466   4.121
13329W        W85589  32.736  26.454  14.878
13330W        W85590  41.260   0.271  12.676
13331W        W85591  24.279  18.069  13.611
13332W        W85592  28.657  40.963  11.888
13333W        W85593  35.413  23.237  11.104
13334W        W85594  27.898  10.455  11.818
13335W        W85595   5.266  10.699   3.625
13336W        W85596  26.546  34.016  14.173
13337W        W85597   3.772  34.404  12.289
13338W        W85598  29.954   2.933   0.460
13339W        W85599  14.686  12.834   0.359
13340W        W85600  33.059  18.142   3.348
13341W        W85601  19.551   3.639   1.519
13342W        W85602  12.594   3.479  12.843
13343W        W85603   4.810  15.311   4.653
13344W        W85604  11.244  12.661  13.544
13345W        W85605  25.131  44.236  13.483
13346W        W85606  19.318  36.631  11.051
13347W        W85607  42.945  25.897  11.164
13348W        W85608  21.834  38.860  14.005
13349W        W85609  16.058   4.061   1.735
13350W        W85610  27.496   9.194  10.683
13351W        W85611  12.328   4.496   4.343
13352W        W85612  40.463  15.271   1.336
13353W        W85613   9.445  44.482   0.163
13354W        W85614  24.770   6.700   3.330
13355W        W85615  19.119  41.385  11.713
13356W        W85616  32.848   9.700   3.675
13357W        W85617  11.843  16.842   1.287
13358W        W85618  37.100   0.440   4.244
13359W        W85619  31.099   2.242   1.156
13360W        W85620  30.430  44.960   2.253
13361W        W85621  23.982   3.959   4.634
13362W        W85622  43.752  42.667   0.253
13363W        W85623  43.426  27.490  14.936
13364W        W85624  16.256  17.567  12.630
13365W        W85625   4.192  40.513  14.222
13366W        W85626  42.012  19.427  13.574
13367W        W85627  31.759  43.045   5.053
13368W        W85628  20.609  43.535   3.859
13369W        W85629  29.118  38.028  10.623
13370W        W85630   1.949  29.878   3.328
13371W        W85631  38.310   5.809  11.866
13372W        W85632  43.525   0.733   3.255
13373W        W85633  27.615  42.231   2.727
13374W        W85634  15.504  36.368   3.523
13375W        W85635   7.717   9.693   0.920
13376W        W85636  30.646  17.206  11.276
13377W        W85637  24.754  23.085   0.971
13378W        W85638   5.434   7.946   0.402
13379W        W85639  32.849  28.588  13.093
13380W        W85640  20.497  30.024   1.260
13381W        W85641  27.943  26.482  10.570
13382W        W85642  23.210  39.714  12.015
13383W        W85643   0.551  40.117  13.437
13384W        W85644  29.873  24.925   0.522
13385W        W85645  15.774  41.325   0.357
13386W        W85646  15.837   3.847  12.813
13387W        W85647  37.523  28.751   4.727
13388W        W85648   1.169  25.032  12.521
13389W        W85649   4.745  41.983   1.781
13390W        W85650  17.763  28.403   3.943
13391W        W85651  38.439  19.564   1.706
13392W        W85652  17.617   8.915  14.003
13393W        W85653  33.137  32.193  11.902
13394W        W85654  40.454  32.292   4.103
13395W        W85655  17.180   7.310  14.526
13396W        W85656  11.288  18.290  12.604
13397W        W85657   0.375  24.467  13.601
13398W        W85658  31.152  38.056   2.375
13399W        W85659  21.644  21.500  11.081
13400W        W85660   7.747  34.566  10.726
13401W        W85661  37.403  24.962   2.284
13402W        W85662  10.485   8.804   4.571
13403W        W85663  14.412  42.204   4.567
13404W        W85664  36.984   4.670   2.660
13405W        W85665  14.912  35.605  10.997
13406W        W85666  22.005  38.063  11.268
13407W        W85667  16.361  19.172   1.894
13408W        W85668  27.676   8.861   3.298
13409W        W85669  16.013  34.119   4.337
13410W        W85670  17.048  31.952  14.405
13411W        W85671   4.629  37.695   4.089
13412W        W85672  13.037  17.339  14.501
13413W        W85673  35.295   7.472   0.453
13414W        W85674  33.025  12.860  13.593
13415W        W85675  15.027  28.407   4.768
13416W        W85676  42.082   2.713  13.102
13417W        W85677  24.151  42.295   0.338
13418W        W85678  20.159  30.516  10.970
13419W        W85679  34.569  31.015  12.442
13420W        W85680  25.504  16.140  11.470
13421W        W85681  12.646  26.576  13.977
13422W        W85682  35.021  22.329   4.185
13423W        W85683  37.717  21.685  12.307
13424W        W85684   8.368  38.780  14.982
13425W        W85685   4.887  41.403   9.747
13426W        W85686  44.862  31.876   3.753
13427W        W85687   4.857  26.511  12.529
13428W        W85688  37.524  39.147  13.582
13429W        W85689   8.911  35.390  10.666
13430W        W85690  20.241  16.191  10.997
13431W        W85691  25.226  18.249  14.486
13432W        W85692  22.707  18.844   1.319
13433W        W85693  24.993  38.282  13.336
13434W        W85694  44.677  17.025  10.045
13435W        W85695  10.447  41.377   3.666
13436W        W85696  40.378  27.282   1.185
13437W        W85697  27.989  17.176   2.713
13438W        W85698  41.981  22.684   0.989
13439W        W85699  40.010  35.932   0.046
13440W        W85700  39.842  29.205   0.364
13441W        W85701   7.898   4.272  10.650
13442W        W85702   2.399  13.831   0.904
13443W        W85703   3.005   8.516   1.000
13444W        W85704  17.135   2.119  11.117
13445W        W85705   0.532   7.280  10.807
13446W        W85706   7.756   9.275   4.748
13447W        W85707  43.565  39.800  13.568
13448W        W85708  32.127   8.165  12.599
13449W        W85709   0.507  14.222   3.637
13450W        W85710  39.981  27.017   2.906
13451W        W85711  34.787  38.954  10.669
13452W        W85712   5.917   8.708   4.611
13453W        W85713  43.417  41.350   3.582
13454W        W85714  11.414  30.685   1.611
13455W        W85715  26.479  24.087  13.882
13456W        W85716  28.489   9.160  12.019
13457W        W85717  17.161   4.702  10.265
13458W        W85718  21.547  29.433  12.410
13459W        W85719  17.386  38.349   0.742
13460W        W85720  29.119  23.257   1.282
13461W        W85721  31.593  20.353  14.940
13462W        W85722  25.190  16.288  13.354
13463W        W85723  21.115  29.754  14.506
13464W        W85724  31.489   1.366   3.212
13465W        W85725  12.212   2.699  14.548
13466W        W85726  19.804  25.292  10.620
13467W        W85727  24.177  16.703  12.546
13468W        W85728  15.503   1.809   2.868
13469W        W85729  37.118   1.343  12.309
13470W        W85730  40.897   1.519   1.349
13471W        W85731  26.422  39.190   2.191
13472W        W85732   3.353  24.522  12.860
13473W        W85733  11.238  20.194  13.586
13474W        W85734  14.663  11.233   1.261
13475W        W85735  19.335  19.692  13.828
13476W        W85736  13.713  17.653   1.684
13477W        W85737  24.155  43.962  14.979
13478W        W85738   8.252   4.253  11.618
13479W        W85739  19.077   1.420   1.666
13480W        W85740  27.122  36.045  12.334
13481W        W85741   7.780  20.343  11.841
13482W        W85742  20.025  22.914  13.890
13483W        W85743  12.767  18.092   1.865
13484W        W85744  24.897   0.781  14.076
13485W        W85745  14.478  16.198  12.477
13486W        W85746   7.377   0.505   1.072
13487W        W85747  28.526  38.226  14.803
13488W        W85748  41.287  23.256  12.988
13489W        W85749  29.048  14.704   2.356
13490W        W85750  14.767   9.973   0.474
13491W        W85751  19.355  34.432  14.092
13492W        W85752  34.726  32.593  12.638
13493W        W85753  26.755   2.458  14.969
13494W        W85754  35.590  28.531  12.028
13495W        W85755  35.064   9.688  10.693
13496W        W85756   5.146  34.403  11.139
13497W        W85757  16.856  12.848  13.003
13498W        W85758   8.409  24.160   1.270
13499W        W85759  42.340  32.477   0.357
13500W        W85760  15.974  36.555  14.520
13501W        W85761   9.751  37.524  10.731
13502W        W85762  38.729  29.471  13.103
13503W        W85763  26.655  40.931   4.115
13504W        W85764  17.714  22.524   3.341
13505W        W85765  18.153  12.590   3.252
13506W        W85766  22.943  30.418   5.282
13507W        W85767  12.623  30.978  14.359
13508W        W85768  13.982   7.726  10.696
13509W        W85769  19.137  35.227  11.209
13510W        W85770  33.828  40.966  12.396
13511W        W85771  37.416  29.101  11.893
13512W        W85772  44.592  14.368   1.898
13513W        W85773  17.302  26.611  10.074
13514W        W85774  22.530  37.617  13.823
13515W        W85775   2.716  17.242   2.721
13516W        W85776  37.528  27.689   3.432
13517W        W85777   1.209  27.075   0.042
13518W        W85778  18.317   1.372  11.107
13519W        W85779   3.814  41.773   2.735
13520W        W85780   6.145  41.431  13.425
13521W        W85781  13.820  42.426   0.190
13522W        W85782  44.029  24.585   1.448
13523W        W85783   3.610  22.281   9.842
13524W        W85784  23.634  35.303   2.634
13525W        W85785  39.935  37.280   0.770
13526W        W85786  38.528  11.839   1.223
13527W        W85787   4.169  24.788  11.073
13528W        W85788  19.845  38.559   3.008
13529W        W85789  13.298  25.756  13.873
13530W        W85790  42.796  12.429  11.121
13531W        W85791  10.484  33.114  11.299
13532W        W85792  17.761  26.774  10.366
13533W        W85793  29.698  10.277  10.748
13534W        W85794  43.197   5.666   0.775
13535W        W85795  27.974  40.146   9.729
13536W        W85796   3.387  38.349   1.468
13537W        W85797   6.329  42.934   3.804
13538W        W85798  11.856  25.254   2.185
13539W        W85799  13.074  34.800   4.155
13540W        W85800  31.463  15.995   1.907
13541W        W85801   7.579  22.137  10.643
13542W        W85802  42.840  28.688  13.802
13543W        W85803  25.460  14.643   4.031
13544W        W85804   9.961  13.816  14.614
13545W        W85805  13.131  31.278   1.825
13546W        W85806  30.910   7.169   4.447
13547W        W85807  15.548  42.713  12.870
13548W        W85808  37.833  19.502   2.887
13549W        W85809  11.098  44.798   2.737
13550W        W85810   6.311  14.368   0.832
13551W        W85811  39.080  42.286   4.262
13552W        W85812  41.837   1.784  12.999
13553W        W85813  14.781   6.192  13.694
13554W        W85814  20.464   9.262   3.142
13555W        W85815  16.385   7.466   4.163
13556W        W85816  30.017   0.710   3.727
13557W        W85817  41.044  19.091  13.818
13558W        W85818  11.970   9.036   4.200
13559W        W85819  23.314  18.320   5.335
13560W        W85820  12.278  11.715   2.762
13561W        W85821  44.271  26.386   1.349
13562W        W85822  22.585  19.112   2.754
13563W        W85823  15.702  31.406   1.869
13564W        W85824  18.455   8.356   3.757
13565W        W85825  39.897  44.401  13.571
13566W        W85826   4.904  16.654  13.419
13567W        W85827   7.063  41.154   3.446
13568W        W85828  15.247  12.093  14.901
13569W        W85829  44.977  17.519   3.885
13570W        W85830  20.304  33.986   0.875
13571W        W85831  37.416   8.694   2.872
13572W        W85832  38.574  39.878   2.842
13573W        W85833   8.994  15.729   9.903
13574W        W85834  17.696  22.540  13.417
13575W        W85835  26.060   9.301   3.531
13576W        W85836  38.127   4.733  11.677
13577W        W85837   2.743  22.742   0.950
13578W        W85838  33.610   0.082  11.594
13579W        W85839  14.097  41.024  11.635
13580W        W85840  16.129  19.061   3.296
13581W        W85841  38.708  28.627   4.378
13582W        W85842  34.874  40.375   0.892
13583W        W85843   5.765  30.012  12.515
13584W        W85844  17.715  18.091   4.166
13585W        W85845  31.473  18.087   4.231
13586W        W85846  38.381  17.348  13.045
13587W        W85847  38.996  41.746  11.084
13588W        W85848  13.747  27.869   0.318
13589W        W85849  44.664  19.871  11.933
13590W        W85850  28.179   0.398   4.005
13591W        W85851   9.926  23.180   1.192
13592W        W85852  34.390   0.318   0.347
13593W        W85853  28.986   2.353  10.661
13594W        W85854  17.785  25.997   2.411
13595W        W85855  31.634  17.250  14.690
13596W        W85856   9.327  26.667   2.595
13597W        W85857  34.403  29.797   4.125
13598W        W85858  21.241   8.231   2.393
13599W        W85859  26.829  31.945   2.837
13600W        W85860  40.140  22.779   2.682
13601W        W85861  39.842  25.662  10.618
13602W        W85862  42.722  36.094   1.359
13603W        W85863  30.585   5.640   2.816
13604W        W85864  34.595   9.729   0.994
13605W        W85865  17.610  43.978   2.775
13606W        W85866  16.602  29.317  12.009
13607W        W85867  13.350   2.349  11.099
13608W        W85868   6.415   3.354  13.271
13609W        W85869  21.920   1.387   4.102
13610W        W85870  35.588  18.666   5.175
13611W        W85871  37.933  14.386  12.479
13612W        W85872  20.434   9.729   1.878
13613W        W85873  17.125  11.617  10.831
13614W        W85874  12.315  16.132   5.094
13615W        W85875  29.044  17.132   2.819
13616W        W85876  16.108   8.469   3.763
13617W        W85877  37.997  37.538  14.983
13618W        W85878  44.304  13.808   0.270
13619W        W85879   9.432  29.002   0.318
13620W        W85880  30.184   8.110   3.258
13621W        W85881   1.409  27.273   3.820
13622W        W85882  43.360  18.803  13.009
13623W        W85883  14.136  16.306   3.573
13624W        W85884  14.919  34.478  12.969
13625W        W85885  10.301  44.807   0.047
13626W        W85886  15.826  19.735   3.184
13627W        W85887   3.370  10.615   5.020
13628W        W85888  12.209  41.240   2.211
13629W        W85889  32.866   2.059  11.134
13630W        W85890  23.132   5.260   3.986
13631W        W85891  12.353  25.681  12.491
13632W        W85892  23.105  30.885   4.199
13633W        W85893  11.769  24.123   3.033
13634W        W85894  40.487  19.412   0.706
13635W        W85895  29.518  41.556   4.505
13636W        W85896   1.852  10.739   4.719
13637W        W85897  27.611  43.563  13.026
13638W        W85898   2.735  27.459   1.207
13639W        W85899  24.570  36.594   3.706
13640W        W85900  21.070  30.237  13.469
13641W        W85901   4.227  42.597  11.190
13642W        W85902  19.138  17.193  13.453
13643W        W85903  16.555  33.910  12.735
13644W        W85904   0.758  22.651  10.203
13645W        W85905  43.003  27.781  14.782
13646W        W85906  34.443  36.796   2.574
13647W        W85907  35.090  22.041  12.120
13648W        W85908  27.370  15.053  13.262
13649W        W85909  17.156  19.524  13.368
13650W        W85910  42.236  16.395   0.719
13651W        W85911  38.978   5.009   4.578
13652W        W85912  30.062  29.835   9.670
13653W        W85913   2.671  13.701  12.424
13654W        W85914   3.491  22.076   0.759
13655W        W85915  30.128  27.912  11.943
13656W        W85916  35.820  40.670   2.787
13657W        W85917   2.880  20.655  10.737
13658W        W85918   1.247  30.136   3.039
13659W        W85919   0.271  15.754  11.497
13660W        W85920  13.617  40.828   3.845
13661W        W85921   2.818  15.789  12.271
13662W        W85922  10.403   6.575   4.828
13663W        W85923   5.950  30.367   0.763
13664W        W85924  44.255  12.419   2.412
13665W        W85925  31.686  15.317  11.005
13666W        W85926   5.602  18.653   0.790
13667W        W85927  33.219  12.650  12.226
13668W        W85928  35.889   7.447   1.700
13669W        W85929  13.560  37.803  12.671
13670W        W85930  10.859  18.468  11.134
13671W        W85931  28.197   9.322  11.301
13672W        W85932   4.966   3.273   3.577
13673W        W85933  38.295  26.438   1.783
13674W        W85934  18.354   9.385   2.322
13675W        W85935  31.362  29.583  11.873
13676W        W85936  25.044  43.100  12.492
13677W        W85937  37.062  33.837   2.869
13678W        W85938  21.353  26.967   3.304
13679W        W85939  18.757  29.419  12.494
13680W        W85940   4.253  15.022  13.843
13681W        W85941  20.792  42.963  14.303
13682W        W85942   5.664  15.895  14.994
13683W        W85943   6.942  35.524  14.957
13684W        W85944  19.226  38.121  14.802
13685W        W85945  43.272   0.063  14.577
13686W        W85946  35.956  41.896  12.426
13687W        W85947  19.839  40.762   0.757
13688W        W85948  18.563  33.509   3.628
13689W        W85949  19.737  40.981  12.015
13690W        W85950  13.407  41.345   0.953
13691W        W85951  16.406  28.017  10.026
13692W        W85952  27.933  39.910   4.206
13693W        W85953   4.637   5.806   2.361
13694W        W85954  38.289  14.448   3.822
13695W        W85955   7.876  25.375   3.531
13696W        W85956  34.522  32.590   3.592
13697W        W85957  30.462  43.365  11.438
13698W        W85958   3.592  35.462  11.120
13699W        W85959   1.319   1.711  13.015
13700W        W85960   3.421  25.693   3.216
13701W        W85961   2.414  10.659   2.384
13702W        W85962  32.779  18.741   2.265
13703W        W85963  43.767  41.612   3.845
13704W        W85964  20.269  23.820  10.091
13705W        W85965   9.273  12.418   3.231
13706W        W85966  15.974  31.684   4.190
13707W        W85967   5.995  39.604  13.786
13708W        W85968  42.378  25.000  12.924
13709W        W85969   8.791  17.305   1.262
13710W        W85970  40.618  35.012   2.741
13711W        W85971  19.588  25.383   2.350
13712W        W85972  23.531  34.025  12.866
13713W        W85973   8.186  44.475   5.198
13714W        W85974  42.441  36.638   3.529
13715W        W85975  35.842  22.022  10.526
13716W        W85976  13.155  19.785   1.750
13717W        W85977  43.773   7.808  11.145
13718W        W85978  42.240  10.720   1.255
13719W        W85979  30.450  32.525  14.817
13720W        W85980  11.027   6.114   1.823
13721W        W85981  18.626  39.435  12.036
13722W        W85982  14.262  44.834   3.629
13723W        W85983  37.787  25.965  11.385
13724W        W85984  24.895   0.973   0.537
13725W        W85985  38.586  22.288   4.770
13726W        W85986  42.378   8.296  12.393
13727W        W85987  44.891  15.360   4.949
13728W        W85988  35.965  37.418   0.384
13729W        W85989  43.956  27.957   1.048
13730W        W85990  14.374  41.754   4.825
13731W        W85991   3.209  43.684   2.312
13732W        W85992  28.071  28.197   2.188
13733W        W85993  30.743  34.904  14.826
13734W        W85994   4.318   1.799   1.357
13735W        W85995   8.033   6.793   1.824
13736W        W85996  28.874  21.620   4.231
13737W        W85997  11.219   0.493  12.142
13738W        W85998  36.410  28.123   0.518
13739W        W85999   9.128  33.012   0.009
13740W        W86000  42.365   1.186   1.702
13741W        W86001  40.164  31.678  12.995
13742W        W86002  16.224   3.880  14.714
13743W        W86003  37.055  32.044  11.711
13744W        W86004  15.788  24.644   2.204
13745W        W86005  32.628  13.336  11.139
13746W        W86006   0.195   3.325   0.811
13747W        W86007  39.306  14.840  11.149
13748W        W86008  26.670   8.141   0.243
13749W        W86009  16.821  35.794  13.789
13750W        W86010  17.595  17.721   0.055
13751W        W86011  20.593   5.332   1.463
13752W        W86012  33.337  35.056   1.832
13753W        W86013  21.725  32.485  13.597
13754W        W86014   3.133  36.269   4.114
13755W        W86015  27.015  11.285   3.691
13756W        W86016  14.252  42.981  14.555
13757W        W86017  38.403  18.670   2.620
13758W        W86018   5.525  22.544  11.996
13759W        W86019  37.947  14.853   4.583
13760W        W86020  14.357   3.427   2.735
13761W        W86021  23.049  21.799   2.624
13762W        W86022   2.462  14.665  14.969
13763W        W86023   4.447  17.375   3.800
13764W        W86024  28.740   7.980  12.412
13765W        W86025  14.123  22.501  12.572
13766W        W86026  18.007  21.460   0.252
13767W        W86027  44.786  34.425  13.743
13768W        W86028   3.665  18.324   0.036
13769W        W86029  25.023  26.576   3.465
13770W        W86030  28.967  20.017   3.727
13771W        W86031  34.178  39.870   2.771
13772W        W86032  18.236  37.074  11.746
13773W        W86033   9.750   9.340   4.630
13774W        W86034  15.826  43.357   2.250
13775W        W86035  31.049  15.752  11.532
13776W        W86036  24.918  42.472   4.268
13777W        W86037  39.301  42.479  12.497
13778W        W86038  44.990  24.061   3.199
13779W        W86039   4.368  39.561  11.597
13780W        W86040  39.515  23.791  13.443
13781W        W86041   6.065  25.682   5.298
13782W        W86042  10.168   7.775   2.994
13783W        W86043  11.643  21.596   2.823
13784W        W86044  21.182  41.968   0.141
13785W        W86045  14.269   7.257  11.385
13786W        W86046  15.202  43.349   2.709
13787W        W86047  21.472  31.532   1.728
13788W        W86048  36.792  27.015  13.315
13789W        W86049  40.842  41.424   4.874
13790W        W86050  32.960   0.712   2.773
13791W        W86051  22.980  23.315  11.787
13792W        W86052   8.537  21.026  14.492
13793W        W86053  43.578  31.865  13.351
13794W        W86054  29.919  17.738  12.430
13795W        W86055  36.440  39.943   1.856
13796W        W86056  19.848  19.816   1.743
13797W        W86057  38.391  41.011  11.160
13798W        W86058   2.190  25.041   3.738
13799W        W86059  36.608  29.938   2.743
13800W        W86060  38.088  24.061   2.824
13801W        W86061  39.819  31.592   4.580
13802W        W86062  32.971  16.032  11.689
13803W        W86063  20.013  39.965   2.187
13804W        W86064  15.744  23.231   1.238
13805W        W86065  43.230   5.695  13.110
13806W        W86066  21.243   2.984   0.216
13807W        W86067   2.855   8.262  11.875
13808W        W86068  20.207   7.589  11.150
13809W        W86069   5.881  38.062  12.968
13810W        W86070  28.081  21.693   1.626
13811W        W86071  38.834  17.440   4.606
13812W        W86072  43.894  32.478  13.106
13813W        W86073   2.522  32.094  11.076
13814W        W86074  14.327  31.497   3.900
13815W        W86075  44.693  33.500   3.658
13816W        W86076  19.480  43.587   0.396
13817W        W86077  15.480  34.548  13.200
13818W        W86078   0.240  23.092  13.121
13819W        W86079  44.819  18.298  13.071
13820W        W86080  16.140  34.153  12.535
13821W        W86081   6.846  35.038   3.578
13822W        W86082  10.106   0.917  13.175
13823W        W86083  42.775  15.159  10.886
13824W        W86084  32.491  30.195  10.959
13825W        W86085  14.639   2.001   1.958
13826W        W86086  44.890  28.203   2.248
13827W        W86087  25.073   1.977  12.968
13828W        W86088  24.227  16.781   3.613
13829W        W86089   1.593  34.544  14.669
13830W        W86090  38.997  19.509  11.349
13831W        W86091  22.374   9.496  12.006
13832W        W86092  23.905  23.720  11.605
13833W        W86093  16.217   2.662   1.483
13834W        W86094  30.112   7.185   0.795
13835W        W86095  24.264   5.142   3.642
13836W        W86096  40.956  24.329  10.766
13837W        W86097  13.564  23.566   4.369
13838W        W86098   6.259  26.439   2.902
13839W        W86099   8.420  14.797  14.428
13840W        W86100  23.492  10.335  12.288
13841W        W86101   7.349  33.397   4.604
13842W        W86102  12.573  20.385  11.254
13843W        W86103  16.934  34.021  11.894
13844W        W86104  10.687  12.963   2.004
13845W        W86105  38.481  11.685  10.729
13846W        W86106  10.379  41.722  13.083
13847W        W86107   6.429  25.036  14.451
13848W        W86108  31.090  29.529  11.446
13849W        W86109  21.508  10.167   9.800
13850W        W86110  41.107  14.422  13.749
13851W        W86111   9.176  14.193  13.594
13852W        W86112  24.307  13.504   2.024
13853W        W86113  43.799  12.090   4.525
13854W        W86114  28.668  37.160  13.159
13855W        W86115  42.592  23.008  13.377
13856W        W86116  44.686  28.975  11.122
13857W        W86117  33.131  43.041  12.310
13858W        W86118  10.144   9.231   4.961
13859W        W86119  41.746  23.154   0.405
13860W        W86120   0.135  31.157   4.216
13861W        W86121  33.165  21.555  11.265
13862W        W86122  12.344  14.945   1.552
13863W        W86123  26.047  33.369  13.896
13864W        W86124  42.153  10.378  13.679
13865W        W86125  36.023  40.454  13.091
13866W        W86126  21.688  32.526   1.981
13867W        W86127  24.006  25.560  10.655
13868W        W86128   2.289   0.644   4.149
13869W        W86129  28.644   2.976  13.186
13870W        W86130  39.314  25.119   0.122
13871W        W86131   6.757  29.461  14.485
13872W        W86132  19.949  44.438   1.483
13873W        W86133  21.716  17.867   4.208
13874W        W86134  40.201  28.152  14.531
13875W        W86135   6.286  29.141  11.540
13876W        W86136  10.320  35.520  14.223
13877W        W86137  19.146  28.230  14.281
13878W        W86138  37.027  36.569   0.790
13879W        W86139  29.805   0.299  14.365
13880W        W86140   9.740  16.620  14.516
13881W        W86141   7.274  24.062  13.466
13882W        W86142  11.097  10.682   2.688
13883W        W86143  34.912   6.314   4.549
13884W        W86144  32.811  25.016  13.655
13885W        W86145  27.876  28.518   2.992
13886W        W86146  29.534  28.707  14.880
13887W        W86147   5.285  17.963  13.423
13888W        W86148  15.785   7.781  12.986
13889W        W86149   0.700   4.363   0.270
13890W        W86150  10.170  33.034   2.450
13891W        W86151  40.426   9.387   4.169
13892W        W86152  39.199  24.585   1.856
13893W        W86153  15.983  17.162   0.377
13894W        W86154  44.434  30.627   4.937
13895W        W86155   2.279  35.998   5.323
13896W        W86156  42.794  21.948  13.105
13897W        W86157  20.530  21.638  14.756
13898W        W86158  44.518  34.522  12.030
13899W        W86159   3.367  28.641   2.646
13900W        W86160  29.112  31.498   0.424
13901W        W86161   6.841  11.187  12.244
13902W        W86162   8.836  20.748   2.247
13903W        W86163  15.076  30.408  12.552
13904W        W86164  39.978  26.974  14.872
13905W        W86165  30.856  26.706  13.029
13906W        W86166  43.124  14.876  13.552
13907W        W86167  14.947  13.347  11.764
13908W        W86168  17.099   2.744  12.182
13909W        W86169   1.162  18.954  11.962
13910W        W86170  13.880  40.325   2.197
13911W        W86171  11.648  20.924  13.527
13912W        W86172  16.936  17.558   2.692
13913W        W86173  36.530  36.899   1.977
13914W        W86174   4.306  16.830   3.767
13915W        W86175  14.254  31.353   4.420
13916W        W86176  31.039  12.291  12.084
13917W        W86177   8.937  41.768   1.864
13918W        W86178  33.306  12.838   3.252
13919W        W86179   6.445  10.412   1.866
13920W        W86180  11.225   0.712   2.242
13921W        W86181   2.362  12.825   4.046
13922W        W86182  26.042  18.841   0.843
13923W        W86183  24.308  13.831  10.905
13924W        W86184  10.264  19.195   2.297
13925W        W86185  10.185  42.526   4.076
13926W        W86186  35.401  39.496  13.304
13927W        W86187  38.248  23.178   2.820
13928W        W86188  24.678  28.187   2.849
13929W        W86189  33.499  31.341  11.855
13930W        W86190  14.803  40.793  14.796
13931W        W86191  10.126  12.381  14.862
13932W        W86192   4.469  16.184   1.464
13933W        W86193  16.333  13.569   0.763
13934W        W86194  41.385   6.798  13.571
13935W        W86195  11.251  42.543   1.037
13936W        W86196  17.517  34.969  11.532
13937W        W86197  28.607   5.509   0.697
13938W        W86198  13.180   6.439  13.400
13939W        W86199  43.424  39.602  14.444
13940W        W86200  42.052  34.206   0.572
13941W        W86201  32.395  19.127  14.467
13942W        W86202  29.920  11.427   2.004
13943W        W86203  42.808  23.743  14.799
13944W        W86204   8.829  20.869   1.742
13945W        W86205  11.692   1.748  10.599
13946W        W86206  23.223   6.426  14.790
13947W        W86207  37.866  40.451   0.086
13948W        W86208  35.153  16.099   3.262
13949W        W86209  12.697  23.953   4.571
13950W        W86210  13.675  15.056   3.143
13951W        W86211   4.208  30.019   0.242
13952W        W86212  37.891  11.634   4.581
13953W        W86213  42.764  18.591   3.151
13954W        W86214   2.525  22.284   1.023
13955W        W86215   0.415  28.650   2.856
13956W        W86216   6.849  28.966  11.553
13957W        W86217   0.886   4.686   3.246
13958W        W86218  20.117  33.449  10.676
13959W        W86219  14.333  27.915   3.631
13960W        W86220  19.648  19.207   1.345
13961W        W86221  41.774  44.499  12.540
13962W        W86222  41.930  12.797   1.870
13963W        W86223  34.037  41.113   4.252
13964W        W86224  26.410  21.637  12.940
13965W        W86225  25.721   8.709  11.438
13966W        W86226  16.617   8.175  12.032
13967W        W86227  31.561   7.777  12.428
13968W        W86228  37.968  40.394   2.331
13969W        W86229   5.727  15.974  13.596
13970W        W86230   7.948  35.820   1.788
13971W        W86231  21.274  33.390  14.487
13972W        W86232  28.851   6.804  14.731
13973W        W86233   4.120  28.909  13.095
13974W        W86234  32.149  23.857  11.037
13975W        W86235  12.655  34.142  13.108
13976W        W86236   2.668  29.773   1.680
13977W        W86237   1.582  31.581  13.486
13978W        W86238  26.484  20.533   0.471
13979W        W86239  40.151  11.382  13.873
13980W        W86240  30.993  36.825  12.877
13981W        W86241   3.303  21.109  11.156
13982W        W86242  20.714  20.216   2.939
13983W        W86243   5.245  41.281   4.711
13984W        W86244   9.732   4.352   4.609
13985W        W86245  12.867  18.155  10.730
13986W        W86246  26.163  16.655   2.620
13987W        W86247  43.857  38.143  10.746
13988W        W86248   1.748  42.735  11.068
13989W        W86249  10.194  16.132  13.593
13990W        W86250  24.324  35.752   3.808
13991W        W86251  10.009   3.868  11.510
13992W        W86252  15.334  22.568  14.863
13993W        W86253  37.146  11.347   2.252
13994W        W86254  36.375  29.533   3.537
13995W        W86255   7.103  35.104   1.287
13996W        W86256  17.310   9.752  12.273
13997W        W86257  42.900  36.141  14.867
13998W        W86258   8.422  11.171   3.922
13999W        W86259  27.211   7.948  11.981
14000W        W86260  29.143  37.007  10.742
14001W        W86261  16.390  14.540  12.673
14002W        W86262  27.771  40.995  13.971
14003W        W86263   8.232  21.999  13.808
14004W        W86264   6.345  33.682  14.287
14005W        W86265  32.509   9.582  12.505
14006W        W86266  12.857  27.354  13.381
14007W        W86267  28.694  31.166   3.160
14008W        W86268  33.471   0.587  11.651
14009W        W86269  37.582   0.800  10.982
14010W        W86270  27.185  15.355   2.323
14011W        W86271  31.449   9.893  14.868
14012W        W86272   7.324  24.152   4.073
14013W        W86273  27.413  35.567   2.827
14014W        W86274  27.872  12.432   2.755
14015W        W86275  40.180  15.739  14.746
14016W        W86276  10.844  20.082   0.226
14017W        W86277  41.212  24.079  11.174
14018W        W86278   7.489  26.776  11.438
14019W        W86279  38.115   6.264  11.671
14020W        W86280  10.122  20.696   4.792
14021W        W86281  40.804  43.728  14.513
14022W        W86282  15.129  40.466   4.579
14023W        W86283  41.822  37.856   0.466
14024W        W86284  18.310  10.488   4.986
14025W        W86285  40.445   1.642   0.770
14026W        W86286  13.842   4.031  14.590
14027W        W86287   6.979  17.893  14.966
14028W        W86288  17.340  39.925   2.848
14029W        W86289  26.172  13.241   4.569
14030W        W86290  22.630  28.755   1.471
14031W        W86291  21.553  19.602  14.061
14032W        W86292  21.191  14.661   0.430
14033W        W86293   1.973  32.532   2.846
14034W        W86294  21.993   9.590  11.171
14035W        W86295   5.771  10.151   0.968
14036W        W86296  43.360   1.949   2.225
14037W        W86297  25.736   2.560   2.629
14038W        W86298  26.689   9.744  12.978
14039W        W86299  27.698  13.083  14.324
14040W        W86300  27.578  24.794   4.062
14041W        W86301  12.573  11.435  11.088
14042W        W86302   4.306  13.782  14.879
14043W        W86303  10.288  10.825   3.613
14044W        W86304  43.229   0.969   3.620
14045W        W86305  36.412   2.351   0.261
14046W        W86306  40.362  39.373   2.299
14047W        W86307  18.744  30.929  13.632
14048W        W86308  28.080  30.128   4.619
14049W        W86309  44.933  36.958  14.723
14050W        W86310   2.809  36.652   1.893
14051W        W86311   1.783   7.175  12.053
14052W        W86312  25.987  13.785  13.185
14053W        W86313  40.389  26.906   2.111
14054W        W86314  10.235   3.699   4.032
14055W        W86315  37.572  19.046  10.559
14056W        W86316  41.025   2.364   3.260
14057W        W86317  40.062  36.802  12.516
14058W        W86318   2.442   5.841  11.947
14059W        W86319   2.797   8.204   4.117
14060W        W86320   2.828  39.427   4.443
14061W        W86321  13.852  26.086  11.535
14062W        W86322  39.866  15.573  13.369
14063W        W86323  34.639  38.571   0.909
14064W        W86324  44.501  18.631  11.203
14065W        W86325  42.952   4.103   3.691
14066W        W86326  24.527   5.238  14.832
14067W        W86327  15.292  13.289  14.220
14068W        W86328  38.518  37.029   0.703
14069W        W86329  24.529  26.494  13.419
14070W        W86330  25.356  26.350   2.768
14071W        W86331  41.603  43.735  11.225
14072W        W86332   7.791   3.713  12.209
14073W        W86333  38.485  30.949   1.284
14074W        W86334  25.162   0.028   2.806
14075W        W86335  31.445  27.953   0.836
14076W        W86336  20.788  23.142  11.680
14077W        W86337  42.086  25.065   0.836
14078W        W86338  29.959  37.097  13.540
14079W        W86339  38.531  17.369  11.131
14080W        W86340  16.422  30.771   4.048
14081W        W86341  27.289  22.498  13.922
14082W        W86342  38.538   8.891  11.036
14083W        W86343  29.533  34.985   4.882
14084W        W86344   8.995   5.731   3.137
14085W        W86345  12.843  12.837   2.211
14086W        W86346   2.720   5.982   0.682
14087W        W86347  13.342   0.982   4.003
14088W        W86348   6.302  39.437   4.755
14089W        W86349   0.810  33.393  11.192
14090W        W86350  38.115  12.426  14.727
14091W        W86351  33.982  15.268  13.849
14092W        W86352  41.300  34.573   0.943
14093W        W86353  34.790  21.809  12.856
14094W        W86354  15.377  17.559  13.400
14095W        W86355  42.973  39.316  14.319
14096W        W86356  15.575  36.337   4.036
14097W        W86357   4.384   0.097  10.509
14098W        W86358  31.486  16.516  14.223
14099W        W86359  19.666  21.970   4.797
14100W        W86360  20.234   0.022   1.326
14101W        W86361  10.598  12.738  13.843
14102W        W86362   9.854  24.617  13.992
14103W        W86363  22.215  34.314   4.316
14104W        W86364  33.395  39.915   2.346
14105W        W86365   1.455  23.671  11.397
14106W        W86366  20.555  44.575  12.615
14107W        W86367   9.160   3.986  14.358
14108W        W86368   1.212   9.138   2.091
14109W        W86369   8.332  16.388  12.024
14110W        W86370   8.736  36.421   4.893
14111W        W86371   7.068   2.322   2.902
14112W        W86372  26.649  29.195  10.618
14113W        W86373  37.510  44.926  10.594
14114W        W86374  25.796  19.404   2.928
14115W        W86375  37.007  39.430  14.312
14116W        W86376  15.304  23.086   0.980
14117W        W86377  21.715  32.398   1.486
14118W        W86378  13.875  23.388  13.938
14119W        W86379  32.447   9.225  11.673
14120W        W86380   7.214  27.887   1.934
14121W        W86381  10.996  38.582  12.071
14122W        W86382  37.528  43.890  14.806
14123W        W86383  14.365   8.480  14.916
14124W        W86384  21.545   1.074   2.786
14125W        W86385  44.214   1.489  13.371
14126W        W86386  22.601  34.429  14.932
14127W        W86387  32.101   7.361   3.793
14128W        W86388  23.736  17.394  13.881
14129W        W86389  15.677  11.616  12.530
14130W        W86390   0.149  25.147   1.797
14131W        W86391  38.355  25.802  14.888
14132W        W86392   5.425  32.560   0.089
14133W        W86393  34.504  31.020  13.874
14134W        W86394  29.776  29.118  10.611
14135W        W86395  14.411  19.681  12.486
14136W        W86396  39.391  22.284   4.166
14137W        W86397  32.682  37.974   2.178
14138W        W86398   4.448  26.970   5.363
14139W        W86399  25.125  13.109  12.451
14140W        W86400  37.587  42.536   2.850
14141W        W86401  20.967  20.076  14.353
14142W        W86402  43.521  31.950   4.217
14143W        W86403  27.096  23.213  14.452
14144W        W86404   1.971  19.033  11.830
14145W        W86405  17.626  34.175   2.243
14146W        W86406   9.629  40.316  12.466
14147W        W86407  42.051   4.898  11.599
14148W        W86408  27.436  23.315  13.408
14149W        W86409  21.161   6.256  14.971
14150W        W86410  15.140  42.731  14.953
14151W        W86411  19.147  18.269   0.921
14152W        W86412  25.500   8.372  10.663
14153W        W86413   7.475  25.645  13.398
14154W        W86414  18.373  14.335   3.646
14155W        W86415  14.198  33.402  13.428
14156W        W86416  24.741  21.483  12.449
14157W        W86417  38.936  34.296  12.442
14158W        W86418  31.941   4.099   2.029
14159W        W86419  24.870  35.359   0.603
14160W        W86420  41.010  31.415  11.916
14161W        W86421  24.028  18.061  11.559
14162W        W86422   6.231   8.190  10.394
14163W        W86423  26.212  42.283  11.451
14164W        W86424  29.748  35.529   0.432
14165W        W86425  18.587  31.937  13.419
14166W        W86426  11.129   3.162   1.458
14167W        W86427  42.021  11.934  11.855
14168W        W86428  29.470  11.213   0.322
14169W        W86429   3.723  20.670  11.546
14170W        W86430  39.947  42.546  11.547
14171W        W86431   5.719  27.964   3.354
14172W        W86432  22.087   0.162   1.254
14173W        W86433  18.355   8.325   2.808
14174W        W86434  31.176  34.664   4.037
14175W        W86435  22.312   3.375  14.335
14176W        W86436  34.886  37.343   3.034
14177W        W86437  13.616  34.127   0.942
14178W        W86438  16.320   5.855  11.927
14179W        W86439  11.409  26.676   0.481
14180W        W86440  42.236   4.260  13.566
14181W        W86441  22.018  28.476  10.125
14182W        W86442  30.109  22.667   3.037
14183W        W86443  26.549  30.172   1.867
14184W        W86444   5.698  28.682  12.121
14185W        W86445  20.268   8.244  13.889
14186W        W86446  42.951  38.587  14.959
14187W        W86447  31.085  21.957   2.629
14188W        W86448  44.497  22.522   4.103
14189W        W86449  12.195   3.617  10.687
14190W        W86450  25.100   6.745   2.611
14191W        W86451  24.040  18.270  12.584
14192W        W86452  38.536  15.051  12.631
14193W        W86453  38.705  26.647   4.127
14194W        W86454  21.808   7.870   1.915
14195W        W86455  23.567   4.457   0.986
14196W        W86456  31.455  20.481   3.266
14197W        W86457  38.488  42.560   3.362
14198W        W86458  34.992  16.486  12.023
14199W        W86459  30.720   1.778  14.278
14200W        W86460  37.492  41.461  11.456
14201W        W86461  11.673  30.613  13.329
14202W        W86462  40.913  32.923  14.328
14203W        W86463  33.535   0.314   3.565
14204W        W86464  36.634  20.829   2.591
14205W        W86465  33.799  25.679   0.586
14206W        W86466  30.686  34.759   2.399
14207W        W86467  33.235  22.982   4.581
14208W        W86468   4.066  36.867  13.811
14209W        W86469  32.615   6.981  14.410
14210W        W86470  15.233  28.022   2.802
14211W        W86471  13.336  28.125  13.234
14212W        W86472  30.536   3.578  14.819
14213W        W86473  30.276  11.245  13.464
14214W        W86474  31.932  39.061  10.506
14215W        W86475  29.619   2.411   3.738
14216W        W86476   2.542  23.955  10.839
14217W        W86477  19.094   5.212   3.888
14218W        W86478   5.129  22.946   3.736
14219W        W86479  33.956   6.734  10.732
14220W        W86480  11.572   4.028  13.469
14221W        W86481  17.020  25.113   0.844
14222W        W86482  29.711  26.463  14.949
14223W        W86483   4.181  29.387   1.360
14224W        W86484  14.884  17.684  13.494
14225W        W86485  37.925   4.335  11.436
14226W        W86486   7.859   0.301   0.871
14227W        W86487   5.810  29.015  11.710
14228W        W86488  23.935   9.459  10.464
14229W        W86489   9.311  43.747   1.962
14230W        W86490   4.830  24.264  12.129
14231W        W86491  26.495  35.065   2.829
14232W        W86492  33.811  22.808   3.156
14233W        W86493  37.891  18.591  12.558
14234W        W86494  17.177  22.237   2.092
14235W        W86495  40.458  15.131   3.367
14236W        W86496  44.005  36.132   0.808
14237W        W86497   3.901  40.024  13.109
14238W        W86498  43.416  41.734   1.746
14239W        W86499  34.775  22.287   3.294
14240W        W86500   6.217  22.054  14.339
14241W        W86501  18.499  41.632  13.604
14242W        W86502   3.950  12.586   2.690
14243W        W86503   5.863  30.537   3.292
14244W        W86504  20.898  14.679   3.072
14245W        W86505  15.847  27.619   2.217
14246W        W86506  28.080  22.186  11.041
14247W        W86507  10.431  28.237   4.194
14248W        W86508   9.031  32.445  13.875
14249W        W86509  10.515   4.971  12.822
14250W        W86510  17.823  32.163  11.876
14251W        W86511   6.336  34.202  14.196
14252W        W86512   7.747  20.083   3.130
14253W        W86513  43.246  34.147   0.938
14254W        W86514  43.078  24.169  13.026
14255W        W86515  27.266  36.130   4.518
14256W        W86516  31.675  27.260   2.771
14257W        W86517  32.946  19.660   1.551
14258W        W86518  18.739  44.762   3.142
14259W        W86519  22.634   8.495   4.666
14260W        W86520  17.194  36.879  14.542
14261W        W86521  40.565  21.650  14.721
14262W        W86522  17.208  40.345  11.043
14263W        W86523  36.430  22.757  12.507
14264W        W86524   1.831   1.717   2.814
14265W        W86525  44.455  37.408   2.665
14266W        W86526   5.428  21.602   4.418
14267W        W86527  15.764  37.540  14.969
14268W        W86528  30.618  42.109  14.396
14269W        W86529   5.886  14.444   2.632
14270W        W86530  10.648  35.985  10.792
14271W        W86531  43.647   1.781  13.338
14272W        W86532   1.948   3.215  14.834
14273W        W86533   8.728  44.435   0.836
14274W        W86534  43.134  19.714   2.333
14275W        W86535  43.512  37.987  11.151
14276W        W86536   9.646  18.739  13.764
14277W        W86537  25.187  34.974  11.721
14278W        W86538  33.496  17.480   0.336
14279W        W86539  43.284  14.121  13.993
14280W        W86540  33.105  10.680  13.700
14281W        W86541  13.907  25.396   4.941
14282W        W86542  29.157  17.330  12.278
14283W        W86543  10.687  28.431  10.500
14284W        W86544   0.921  43.065   0.763
14285W        W86545  42.921  13.840  12.560
14286W        W86546  32.466  41.934   3.141
14287W        W86547  29.506  22.888   0.739
14288W        W86548  25.713   5.853   4.582
14289W        W86549  11.183  11.345  14.626
14290W        W86550  22.074  43.194   1.380
14291W        W86551  24.205  26.427  11.933
14292W        W86552  43.953   4.132  13.477
14293W        W86553  34.584  26.116  13.367
14294W        W86554  42.991  43.759  13.774
14295W        W86555  34.500  40.600   4.969
14296W        W86556   9.651  39.451   3.675
14297W        W86557  40.334  31.078   2.293
14298W        W86558  21.280  38.444   0.445
14299W        W86559  32.650  36.342   1.951
14300W        W86560  28.994  43.271  12.720
14301W        W86561   1.398  32.990  10.687
14302W        W86562  27.982  18.646  11.504
14303W        W86563  32.429  36.078  12.513
14304W        W86564   3.031   7.213  11.557
14305W        W86565  25.470  36.822   4.549
14306W        W86566  22.736  44.783   2.219
14307W        W86567  27.238  24.618   3.299
14308W        W86568  19.488   8.905  12.009
14309W        W86569  10.866   7.190   1.734
14310W        W86570  39.725   3.807   0.789
14311W        W86571  13.842   3.635   1.454
14312W        W86572  43.322  37.389   3.744
14313W        W86573  34.526   4.170   3.650
14314W        W86574  32.742  14.913   3.862
14315W        W86575  39.924  15.774  12.469
14316W        W86576  17.201  22.431   3.484
14317W        W86577  16.346   6.824   1.232
14318W        W86578  36.702  13.694  12.377
14319W        W86579  13.285  16.555   0.686
14320W        W86580  29.513  32.752  13.069
14321W        W86581   0.007  34.735   4.164
14322W        W86582  15.296  20.014  14.602
14323W        W86583   9.745  11.748  11.579
14324W        W86584  37.919  42.010   1.944
14325W        W86585  14.979  23.194  11.181
14326W        W86586  41.540  43.436   3.267
14327W        W86587  17.662  42.974   1.179
14328W        W86588  39.378   0.684  14.788
14329W        W86589  14.270  17.286   1.159
14330W        W86590   3.004  23.186   0.842
14331W        W86591   9.429  13.164   3.743
14332W        W86592  44.323   0.518  14.299
14333W        W86593  26.469  42.289  14.208
14334W        W86594   5.311  17.820   4.106
14335W        W86595  37.967  29.427   4.483
14336W        W86596  33.370   4.278   4.039
14337W        W86597  33.411  43.400  13.347
14338W        W86598  39.923  36.394   4.321
14339W        W86599  31.812  19.431   1.732
14340W        W86600  40.827  29.922  13.872
14341W        W86601  30.626  29.560  14.212
14342W        W86602  17.524  20.729  13.459
14343W        W86603   5.234   0.389   0.910
14344W        W86604   3.913  43.609  13.926
14345W        W86605  23.156  28.606  12.889
14346W        W86606  28.441  10.362  11.047
14347W        W86607   4.393  23.650   0.873
14348W        W86608  16.982  34.870   4.206
14349W        W86609  41.862   0.365  14.914
14350W        W86610  40.890  27.951   1.200
14351W        W86611  39.932   3.260   0.009
14352W        W86612  28.323   0.204  14.454
14353W        W86613  15.235  28.707   1.716
14354W        W86614  15.357  28.081   4.185
14355W        W86615  34.803  24.966   2.625
14356W        W86616  14.285  34.749   4.032
14357W        W86617   2.941   8.950   0.210
14358W        W86618  25.410  42.037  12.527
14359W        W86619  20.542  33.599   1.283
14360W        W86620  29.645  20.172   4.853
14361W        W86621  11.745   2.115   1.459
14362W        W86622  16.617  13.133   2.811
14363W        W86623  33.962   1.284   1.657
14364W        W86624  27.461  13.545   1.400
14365W        W86625  24.002  33.408   0.255
14366W        W86626  42.752  29.674  12.866
14367W        W86627  11.573  43.993  14.758
14368W        W86628   4.044   5.335  12.523
14369W        W86629  11.071  18.223  11.599
14370W        W86630   3.808   3.039   0.342
14371W        W86631  12.368  15.701  11.483
14372W        W86632  41.497  22.241   4.455
14373W        W86633  10.604  32.137  14.386
14374W        W86634  19.056   0.870   4.205
14375W        W86635  30.414   4.702   4.926
14376W        W86636   7.089   8.848   3.261
14377W        W86637  36.067   0.300   1.437
14378W        W86638  16.746  14.066   1.697
14379W        W86639  31.912  20.675  14.315
14380W        W86640  27.367  16.489  12.925
14381W        W86641  41.367   0.510   0.866
14382W        W86642  19.694  43.407   2.648
14383W        W86643  21.032  36.058  14.006
14384W        W86644   1.750  27.100   1.851
14385W        W86645   6.311  20.128   3.737
14386W        W86646   9.442  26.824  12.714
14387W        W86647  12.123  28.416  10.581
14388W        W86648   4.758  24.444  11.604
14389W        W86649  39.901   1.031   1.254
14390W        W86650  29.592  29.407  12.440
14391W        W86651   3.309  22.290   3.224
14392W        W86652   0.775  17.298  13.405
14393W        W86653  10.417   8.797   2.190
14394W        W86654  13.779  14.878  12.560
14395W        W86655  22.717  30.988  13.033
14396W        W86656   0.865  11.972  14.810
14397W        W86657  25.527  42.066   2.686
14398W        W86658  22.000  26.713  10.154
14399W        W86659  16.842  30.392  12.025
14400W        W86660  27.754  40.946   5.070
14401W        W86661  16.807  29.848  13.778
14402W        W86662   9.415  22.294  11.104
14403W        W86663   5.439  43.382  12.813
14404W        W86664  25.999  31.473   2.438
14405W        W86665  26.393  11.978  12.365
14406W        W86666  30.851   0.778   0.370
14407W        W86667  40.951  39.493   3.766
14408W        W86668   0.542  14.669   4.423
14409W        W86669  35.110  40.586   0.436
14410W        W86670  38.849  32.850  13.848
14411W        W86671  44.851  21.146  10.233
14412W        W86672  18.168  26.745   2.174
14413W        W86673  44.073  27.548   4.561
14414W        W86674  38.533  28.176   4.174
14415W        W86675  40.460  28.773   0.857
14416W        W86676  29.434   6.311   1.352
14417W        W86677  38.390  18.866  11.907
14418W        W86678  38.067  32.460   2.906
14419W        W86679  37.963   1.932  13.800
14420W        W86680  42.788  32.144  11.001
14421W        W86681  13.260  37.990   2.155
14422W        W86682   3.278  26.662  13.019
14423W        W86683  38.419   7.975   0.874
14424W        W86684   7.177  15.547  10.683
14425W        W86685  15.243  16.651   5.293
14426W        W86686   6.876  37.267  10.681
14427W        W86687  12.115  13.225  13.484
14428W        W86688   6.313  22.750   0.771
14429W        W86689  44.794  32.784   2.607
14430W        W86690  35.108   3.923  13.418
14431W        W86691   7.484   6.353   1.366
14432W        W86692  18.588  24.052  14.735
14433W        W86693  31.637   6.115  13.327
14434W        W86694  31.973  21.025  11.746
14435W        W86695  14.331  31.659   0.022
14436W        W86696  20.027  35.373   3.461
14437W        W86697  17.153  24.259   3.115
14438W        W86698  40.292  22.536  13.263
14439W        W86699  44.378  17.816   2.321
14440W        W86700  23.726  19.049  11.239
14441W        W86701  30.003  18.782  11.236
14442W        W86702  18.113  23.641   3.958
14443W        W86703  41.590  21.626   1.416
14444W        W86704  18.643   6.683  14.334
14445W        W86705   4.503  42.843   0.746
14446W        W86706   6.050  32.842  11.641
14447W        W86707  29.416  36.969  13.883
14448W        W86708  14.059   0.191   4.593
14449W        W86709  11.652   9.862   2.185
14450W        W86710  41.236  15.632  12.921
14451W        W86711  39.409  29.995   0.357
14452W        W86712  14.760  29.652   9.824
14453W        W86713  16.183  11.668   1.167
14454W        W86714  27.177  26.239  14.033
14455W        W86715   3.817  28.704   4.651
14456W        W86716  11.767  40.629  13.793
14457W        W86717  25.600   0.488  10.690
14458W        W86718  36.815  17.842  14.960
14459W        W86719  38.842  40.054  12.475
14460W        W86720   4.072  29.214  10.324
14461W        W86721  18.062  24.451  12.080
14462W        W86722  39.367  30.516   3.210
14463W        W86723  27.002  22.903   2.350
14464W        W86724  14.005   7.218  10.506
14465W        W86725  29.469  17.565  12.609
14466W        W86726  14.454  38.204  11.867
14467W        W86727  35.932  17.224   3.882
14468W        W86728  30.776  16.309   0.325
14469W        W86729   3.874  15.616   1.426
14470W        W86730  31.036  40.932  14.025
14471W        W86731  11.342  32.569   1.835
14472W        W86732  34.271  34.916   0.103
14473W        W86733   2.314   7.152  13.998
14474W        W86734  43.525  39.125   0.522
14475W        W86735  36.069  34.096   1.260
14476W        W86736  41.937   9.123   3.258
14477W        W86737  31.800  33.949   3.263
14478W        W86738  30.779  30.490  10.064
14479W        W86739  11.236  42.982  12.942
14480W        W86740  38.532  19.398  12.786
14481W        W86741  11.574  34.063  12.860
14482W        W86742  20.263  41.991   0.276
14483W        W86743  43.805  19.742  12.249
14484W        W86744  27.597  43.870   4.674
14485W        W86745   6.509  25.280  10.918
14486W        W86746  37.001  23.091   2.444
14487W        W86747   6.261  27.179  11.248
14488W        W86748  11.986  36.769   3.524
14489W        W86749  26.675   3.159   0.418
14490W        W86750  24.913  35.473   2.311
14491W        W86751  17.329  41.840  14.933
14492W        W86752  32.455  14.775  13.379
14493W        W86753  15.345   2.985   3.840
14494W        W86754  21.108  15.082  13.823
14495W        W86755  27.927  17.274  12.641
14496W        W86756  39.895  24.662  13.499
14497W        W86757  21.113  21.624   9.863
14498W        W86758   0.798  15.201  14.920
14499W        W86759  39.524  11.890  11.531
14500W        W86760  41.483  10.811  10.472
14501W        W86761  35.883  34.406  12.756
14502W        W86762  37.295  10.214   0.378
14503W        W86763  44.045   2.031   0.270
14504W        W86764  26.983  42.244   1.488
14505W        W86765  37.037  28.658   2.605
14506W        W86766  21.628  32.377  12.446
14507W        W86767  43.404  10.645   3.751
14508W        W86768  32.597  43.871   3.674
14509W        W86769  37.020  20.534   5.819
14510W        W86770   1.978  25.171   3.256
14511W        W86771  23.660  16.359   4.128
14512W        W86772  44.948  10.890  12.899
14513W        W86773  11.095  34.556  14.275
14514W        W86774  40.886  36.015  14.991
14515W        W86775  39.275  44.061  10.068
14516W        W86776  39.469  43.075   4.648
14517W        W86777  41.171   8.324   4.805
14518W        W86778   0.966  26.126   2.228
14519W        W86779  25.478  33.170  14.922
14520W        W86780  13.103   2.501  10.667
14521W        W86781  21.442  35.977  10.655
14522W        W86782  19.950  30.486  10.503
14523W        W86783  31.621  34.356  11.561
14524W        W86784  34.002  36.633  12.345
14525W        W86785  26.961   6.481  12.381
14526W        W86786  34.523  23.678  12.529
14527W        W86787  37.066  19.095  14.467
14528W        W86788  35.040  40.861  11.420
14529W        W86789  14.373  20.037   3.733
14530W        W86790  29.535  26.534   0.861
14531W        W86791  28.485  36.138  12.501
14532W        W86792  44.316  13.115   3.220
14533W        W86793  37.570  30.892  14.723
14534W        W86794  24.504   6.148   0.201
14535W        W86795   7.630  35.879  12.868
14536W        W86796   5.173  37.961   2.376
14537W        W86797  30.552  14.764   2.689
14538W        W86798  37.108  10.197  11.048
14539W        W86799   0.431  35.424   4.615
14540W        W86800  14.884  13.264  14.911
14541W        W86801   5.162  34.282  12.542
14542W        W86802  32.126   7.292  11.243
14543W        W86803  28.733  32.012  11.531
14544W        W86804  41.867  41.467   0.059
14545W        W86805  19.220   1.468  14.466
14546W        W86806  42.216   1.651   0.623
14547W        W86807  22.801   3.714   2.801
14548W        W86808   5.925  11.286   0.720
14549W        W86809  33.870  30.392   0.503
14550W        W86810  40.800   8.879  12.032
14551W        W86811   1.754   8.836   2.221
14552W        W86812  24.552  37.809   3.177
14553W        W86813  13.565  20.715   4.253
14554W        W86814  24.919   8.805   3.586
14555W        W86815  23.247  21.569  11.576
14556W        W86816   3.895   8.242   2.274
14557W        W86817  44.977  37.156   1.102
14558W        W86818  10.681  36.483   1.849
14559W        W86819   3.188  11.880  11.741
14560W        W86820   7.229   0.250   1.505
14561W        W86821  36.842   3.623  10.577
14562W        W86822  43.652  37.856  13.372
14563W        W86823   2.139   1.846   5.068
14564W        W86824  42.759  39.506  11.198
14565W        W86825  32.999  16.137   1.517
14566W        W86826  26.632  44.497   2.349
14567W        W86827  37.139  18.646   0.271
14568W        W86828  44.076  44.646   0.356
14569W        W86829   3.848  33.534  14.274
14570W        W86830   7.877  19.186   4.198
14571W        W86831  39.301  32.446   3.186
14572W        W86832  43.325  14.528  11.066
14573W        W86833  32.960   4.203   3.731
14574W        W86834   3.727  17.721  11.129
14575W        W86835  15.003  26.236  12.506
14576W        W86836  37.936  31.535   0.254
14577W        W86837  19.499  27.172  10.890
14578W        W86838   2.590   7.605   5.033
14579W        W86839   9.716   0.817  12.144
14580W        W86840  13.901  37.589   4.540
14581W        W86841  35.818  25.673   2.663
14582W        W86842  31.028   6.625  12.926
14583W        W86843  15.615  42.557   0.930
14584W        W86844  16.122   0.827   4.511
14585W        W86845   9.844  20.125   2.339
14586W        W86846   8.320  10.837   0.399
14587W        W86847  19.289   8.842   4.738
14588W        W86848  34.424  14.043  12.424
14589W        W86849   0.972  39.618   2.717
14590W        W86850  33.144  22.648  12.013
14591W        W86851  31.153  23.151   2.821
14592W        W86852  32.872   0.727   4.505
14593W        W86853  22.427  29.183   4.792
14594W        W86854   3.512  19.825  12.132
14595W        W86855   6.602  23.220  10.360
14596W        W86856  23.321  17.075   0.721
14597W        W86857  17.757  32.153   0.742
14598W        W86858  22.279  18.683   4.685
14599W        W86859   4.277  31.866   3.977
14600W        W86860   2.463   4.307   4.673
14601W        W86861  26.583  15.992   3.192
14602W        W86862  39.006  20.326   2.725
14603W        W86863  29.641  25.696  13.331
14604W        W86864  32.171   1.202   1.190
14605W        W86865  43.800  11.100  14.774
14606W        W86866   4.054   1.360  14.939
14607W        W86867  32.038  16.134  10.947
14608W        W86868   9.925   9.703  14.336
14609W        W86869  11.309   7.337   1.474
14610W        W86870  26.617  17.700  14.653
14611W        W86871   6.135   8.812   0.730
14612W        W86872   2.959  11.232  12.945
14613W        W86873  11.733   5.845   4.154
14614W        W86874   3.793  43.838   0.186
14615W        W86875  31.103  32.211   2.917
14616W        W86876   6.398  18.039  10.708
14617W        W86877   6.648  43.004   2.339
14618W        W86878  17.867  32.579   2.749
14619W        W86879  22.210  37.502   3.318
14620W        W86880  12.898  36.690  13.157
14621W        W86881   7.813   3.025   2.918
14622W        W86882  22.947   9.977   2.656
14623W        W86883   8.219  11.667  13.596
14624W        W86884  17.648  43.428   0.051
14625W        W86885  43.246  20.062  13.882
14626W        W86886  34.760  22.263  14.765
14627W        W86887  14.905  20.096  13.009
14628W        W86888  15.992  27.495   4.395
14629W        W86889   1.324   1.844   0.790
14630W        W86890   8.536  19.591   1.449
14631W        W86891   6.287  11.245  14.735
14632W        W86892  22.192  27.083   4.203
14633W        W86893  34.259  10.697   2.428
14634W        W86894  20.640  23.872   2.410
14635W        W86895  31.668  21.198  13.269
14636W        W86896  21.974  37.620   3.812
14637W        W86897  40.801  27.003   1.329
14638W        W86898  25.677  38.357   2.405
14639W        W86899  40.945   4.033   1.099
14640W        W86900  30.643  24.005   3.876
14641W        W86901  16.687   9.940   1.248
14642W        W86902  37.948  40.775   3.277
14643W        W86903   5.659  26.003  13.993
14644W        W86904  33.040  42.304   2.843
14645W        W86905  20.756  44.995   3.742
14646W        W86906  19.451  31.796   2.874
14647W        W86907   7.983   8.381   0.407
14648W        W86908  27.050  32.677   0.888
14649W        W86909  27.650  29.577  14.051
14650W        W86910   2.931   1.153  11.191
14651W        W86911  11.086  29.098   2.341
14652W        W86912   4.436  39.913   3.078
14653W        W86913  24.200  31.252   1.100
14654W        W86914   5.411   3.649  10.677
14655W        W86915   4.426  27.720   0.282
14656W        W86916   5.386  23.217   2.177
14657W        W86917  26.730  22.149  11.094
14658W        W86918   2.667   1.014   4.135
14659W        W86919  16.310  30.163  12.523
14660W        W86920   5.414  32.830  14.446
14661W        W86921  20.229  25.455  10.363
14662W        W86922  24.738  43.970  13.267
14663W        W86923  39.036  32.307   4.918
14664W        W86924  33.483  32.278   3.220
14665W        W86925  32.917  41.765   2.866
14666W        W86926  11.241  30.205   4.742
14667W        W86927   7.925   3.753   2.341
14668W        W86928   5.803   9.752  14.665
14669W        W86929   4.393  12.190   4.549
14670W        W86930  29.584  10.152   0.378
14671W        W86931  39.985  36.872  10.481
14672W        W86932  18.943  13.081   3.626
14673W        W86933  36.488  26.585  14.793
14674W        W86934  17.158   0.339   2.444
14675W        W86935  22.782  29.799  10.209
14676W        W86936  41.015  41.110   0.307
14677W        W86937  19.239   8.342   4.646
14678W        W86938   2.460  43.824  11.466
14679W        W86939  26.001   9.803   3.415
14680W        W86940  32.205  29.541   3.202
14681W        W86941  17.239   5.870   2.867
14682W        W86942  16.056  25.903   2.576
14683W        W86943  18.590  32.511   4.482
14684W        W86944  35.478  11.256   4.600
14685W        W86945  34.378   7.985   2.758
14686W        W86946   9.743  42.300   4.320
14687W        W86947  15.231  21.773   1.884
14688W        W86948  15.635  33.433  14.466
14689W        W86949  36.560  40.823  14.686
14690W        W86950   1.795  13.603  12.464
14691W        W86951  43.103  24.546   1.419
14692W        W86952  31.746  12.811  11.125
14693W        W86953  39.527  12.481  10.649
14694W        W86954  27.097   3.844  11.657
14695W        W86955  39.541   8.580   4.197
14696W        W86956  16.851   6.794  13.876
14697W        W86957  41.909  30.695  14.507
14698W        W86958  18.209  26.381  12.674
14699W        W86959  24.980  21.291   4.585
14700W        W86960   4.916  31.028   4.594
14701W        W86961  30.430   3.864  13.886
14702W        W86962   6.353  18.072   4.515
14703W        W86963  40.906   2.868   1.012
14704W        W86964  33.372   7.274   5.073
14705W        W86965   5.793  29.209   0.281
14706W        W86966  35.046  22.151   1.481
14707W        W86967  36.919  12.722   2.300
14708W        W86968  43.542  44.281  14.376
14709W        W86969   7.365   7.314   0.131
14710W        W86970  32.146   3.351  12.874
14711W        W86971  40.751  32.828   2.884
14712W        W86972  36.281  41.615  12.106
14713W        W86973   8.533   6.346  13.921
14714W        W86974  21.931  29.695   1.716
14715W        W86975   3.882  44.314  14.545
14716W        W86976  44.057  23.645   4.321
14717W        W86977  11.365  15.102  13.520
14718W        W86978  27.807   3.751   2.116
14719W        W86979  16.373  24.555   3.553
14720W        W86980  34.485  24.592   2.392
14721W        W86981  44.233  23.136   2.791
14722W        W86982  32.382  10.306   4.153
14723W        W86983  15.711  16.711   0.364
14724W        W86984  16.096   1.930  12.599
14725W        W86985  40.310  15.646   0.313
14726W        W86986  33.601  13.879   4.032
14727W        W86987  15.707  12.821   2.171
14728W        W86988  33.021  29.073  13.248
14729W        W86989  26.741  41.723  12.946
14730W        W86990  38.514  12.723   1.264
14731W        W86991  13.242   6.969   1.722
14732W        W86992  38.959  15.768  10.528
14733W        W86993  16.155  44.840  12.952
14734W        W86994  14.096  39.957   2.583
14735W        W86995  31.389  17.533  14.334
14736W        W86996  26.394  42.338  13.699
14737W        W86997  30.210   6.328   1.076
14738W        W86998  20.973  39.538  13.287
14739W        W86999   2.360   0.135   4.211
14740W        W87000   0.105  16.343  12.889
14741W        W87001   1.883  21.535   1.252
14742W        W87002  20.843  39.295  14.369
14743W        W87003   0.416  23.117   3.372
14744W        W87004  23.924  29.542  11.929
14745W        W87005  34.329  34.392   1.806
14746W        W87006  13.673  19.065   0.039
14747W        W87007   5.759  19.788   0.411
14748W        W87008  10.940  18.739  14.894
14749W        W87009  11.464  41.636   2.728
14750W        W87010  15.218  31.143  12.871
14751W        W87011  25.456  22.054  11.665
14752W        W87012   6.727  15.093  12.210
14753W        W87013  10.324   5.714   3.627
14754W        W87014  11.368  23.036   0.451
14755W        W87015   3.448  15.473   1.168
14756W        W87016  42.065   8.466  14.743
14757W        W87017  28.202  32.000  11.641
14758W        W87018   5.595  44.559   3.680
14759W        W87019   0.564  31.515   1.743
14760W        W87020  25.247  18.647   3.145
14761W        W87021  22.485  41.860  10.795
14762W        W87022  35.100  19.320   0.319
14763W        W87023  35.979   3.829   0.754
14764W        W87024  13.136   2.720   4.587
14765W        W87025  24.780  19.046   2.252
14766W        W87026   1.476  36.998   0.455
14767W        W87027  20.731  28.165   1.385
14768W        W87028  25.054  11.364   4.046
14769W        W87029  31.154  32.150   3.616
14770W        W87030  11.311  34.793  10.371
14771W        W87031  10.877   6.140   0.782
14772W        W87032  17.210  30.279  11.631
14773W        W87033   9.346  31.680   4.766
14774W        W87034   4.964  44.941   4.143
14775W        W87035  44.187  14.860  11.502
14776W        W87036  31.035  38.468  14.509
14777W        W87037   3.999  13.042  11.951
14778W        W87038  16.800  35.932   3.658
14779W        W87039  15.569  11.783  10.710
14780W        W87040   3.209  31.536  14.004
14781W        W87041  42.594  39.866   0.458
14782W        W87042  40.073  11.146  12.469
14783W        W87043  25.598   9.946  11.035
14784W        W87044   3.949  18.083  12.062
14785W        W87045   7.363  18.567  12.949
14786W        W87046  37.359  30.267   4.483
14787W        W87047  40.843  22.527  13.330
14788W        W87048  31.755   8.546  14.301
14789W        W87049  25.005   7.028   3.681
14790W        W87050  42.075  35.001   1.762
14791W        W87051  15.829  15.217   0.870
14792W        W87052  11.729   6.639   0.805
14793W        W87053   5.201  20.034  11.988
14794W        W87054  27.503  15.764   2.389
14795W        W87055  20.329  43.958   3.703
14796W        W87056  27.616  36.907   0.553
14797W        W87057  12.168  15.093   0.584
14798W        W87058   8.695  18.236   3.572
14799W        W87059  42.600  33.421   1.470
14800W        W87060  24.496  26.498   2.243
14801W        W87061  29.631   9.710   1.916
14802W        W87062  17.106   9.821  11.384
14803W        W87063   8.190  12.412   1.290
14804W        W87064  14.183   5.789   4.092
14805W        W87065  32.608   6.703   4.310
14806W        W87066  33.881  37.265   3.724
14807W        W87067  18.475  28.897   3.363
14808W        W87068   4.010  23.552  14.362
14809W        W87069  18.987  10.472   3.263
14810W        W87070  32.958   6.193   2.745
14811W        W87071  12.703  16.847   4.111
14812W        W87072  33.160   4.394  14.951
14813W        W87073  28.120  31.718  13.368
14814W        W87074  37.873  16.686   4.380
14815W        W87075  18.042  38.738   4.117
14816W        W87076  31.660  13.579   0.277
14817W        W87077  42.483  24.139  10.440
14818W        W87078  37.942  24.115   0.856
14819W        W87079  19.111   5.588   5.529
14820W        W87080   3.284   6.602  13.416
14821W        W87081  32.785  21.726  14.921
14822W        W87082  36.530   2.693  11.571
14823W        W87083  36.606  29.600   3.986
14824W        W87084  28.507  15.153   4.102
14825W        W87085  41.414  42.383  10.673
14826W        W87086  26.398   9.298   2.653
14827W        W87087  35.592  10.205   0.940
14828W        W87088  16.027   9.349   2.365
14829W        W87089  29.025  32.874   0.832
14830W        W87090  35.036   1.415   4.536
14831W        W87091  23.650   9.810  13.954
14832W        W87092  20.891  29.990  13.996
14833W        W87093  12.663  43.761   1.376
14834W        W87094  22.214  16.189   1.384
14835W        W87095  25.769  24.015  10.082
14836W        W87096  25.600  17.118  13.377
14837W        W87097   2.020  34.146  10.736
14838W        W87098  28.860  16.927   3.251
14839W        W87099  37.899   9.122  14.928
14840W        W87100  34.492  42.440  13.387
14841W        W87101  16.757   7.488   0.848
14842W        W87102  35.823  38.871   9.627
14843W        W87103  10.734  21.487  12.482
14844W        W87104   8.750  27.915  12.775
14845W        W87105  36.520  40.846   1.238
14846W        W87106  34.910  22.534   0.258
14847W        W87107   2.369  43.963   0.671
14848W        W87108  16.573  34.111  12.251
14849W        W87109  26.800  15.159   1.364
14850W        W87110   8.257  11.724   4.109
14851W        W87111  30.210  28.545  12.327
14852W        W87112  19.703  30.685   1.367
14853W        W87113  20.151  13.205  13.640
14854W        W87114  35.352  35.303   2.601
14855W        W87115  38.386  10.233  10.631
14856W        W87116   0.603  34.767  14.901
14857W        W87117  42.413  33.396  12.487
14858W        W87118  17.269  21.492  10.999
14859W        W87119  35.333  25.481  13.865
14860W        W87120  20.086  15.683  12.566
14861W        W87121  38.911  10.876  11.538
14862W        W87122  44.351  22.272  12.428
14863W        W87123   9.218  34.338  14.804
14864W        W87124  15.548  19.782  10.357
14865W        W87125  17.212   1.810   2.783
14866W        W87126  22.704  10.577  13.508
14867W        W87127  30.162  10.260   2.815
14868W        W87128  24.710   7.623   2.819
14869W        W87129  38.454  42.685  14.417
14870W        W87130  14.863  41.393  14.534
14871W        W87131  36.849  30.036   0.383
14872W        W87132  19.308  10.385  14.231
14873W        W87133   4.993  14.364   1.181
14874W        W87134  44.033  29.990  11.140
14875W        W87135  12.686  42.955  11.369
14876W        W87136   4.458  30.983   2.857
14877W        W87137  17.814  23.480  11.549
14878W        W87138  30.160  29.664  14.610
14879W        W87139  22.578   1.865  10.024
14880W        W87140   1.707  25.074   5.035
14881W        W87141  13.381  32.577   0.766
14882W        W87142  14.116  23.402   2.832
14883W        W87143  33.551  21.748   3.497
14884W        W87144  12.438  14.288  12.592
14885W        W87145  15.681   7.163  10.214
14886W        W87146  12.469  40.944  12.330
14887W        W87147   5.695  21.087  11.690
14888W        W87148  32.986  12.121   1.307
14889W        W87149  12.003  39.910  14.695
14890W        W87150  36.481  12.293  11.612
14891W        W87151  25.542  17.845   4.565
14892W        W87152  40.337  32.542   4.537
14893W        W87153  14.592  16.880  13.929
14894W        W87154  39.453  30.477   0.524
14895W        W87155  14.711  15.350  13.960
14896W        W87156  19.653  23.028   4.627
14897W        W87157  40.239  37.154  11.317
14898W        W87158  30.362  27.769  14.407
14899W        W87159  19.598  13.109  14.714
14900W        W87160  32.902  39.626   3.177
14901W        W87161   0.360   2.787   1.669
14902W        W87162   2.946   5.360  13.933
14903W        W87163   8.259  44.316  13.784
14904W        W87164  32.068  22.941   0.782
14905W        W87165   9.647  26.034  11.386
14906W        W87166  12.434  15.053  12.050
14907W        W87167  20.301  22.605   2.184
14908W        W87168   5.501  15.781   1.808
14909W        W87169   9.359  26.404   1.377
14910W        W87170  12.190  37.013  11.063
14911W        W87171  39.243   7.224   4.235
14912W        W87172  23.908  30.043  14.921
14913W        W87173  15.227  19.751  12.084
14914W        W87174  42.914   4.115   2.689
14915W        W87175  17.186  37.504  12.489
14916W        W87176  25.693  28.639  12.458
14917W        W87177  40.533  32.336   0.848
14918W        W87178  36.061  26.855  10.455
14919W        W87179  20.576  25.753   2.322
14920W        W87180  32.680  38.910   4.575
14921W        W87181   9.779   2.062  12.565
14922W        W87182  11.436  24.541   2.448
14923W        W87183   4.300  44.173  12.491
14924W        W87184  37.190  28.119   4.031
14925W        W87185   2.393  34.950   0.784
14926W        W87186  37.066  25.117  14.772
14927W        W87187  32.036  24.169  10.610
14928W        W87188  40.134   6.601   2.347
14929W        W87189  23.823  22.255  11.069
14930W        W87190  35.373  38.110  13.563
14931W        W87191  18.106   4.363  12.281
14932W        W87192  12.781  38.065   3.849
14933W        W87193  13.780  23.995   0.814
14934W        W87194   2.500   9.667  14.345
14935W        W87195  22.990  22.715  10.959
14936W        W87196  15.588   6.165  11.090
14937W        W87197  23.203  20.463   2.443
14938W        W87198  20.084  29.060  13.311
14939W        W87199   9.222  44.461   1.438
14940W        W87200  15.810  23.579  14.973
14941W        W87201   1.520  18.259  13.944
14942W        W87202  41.797   5.098   5.019
14943W        W87203  10.163  42.773  11.177
14944W        W87204  20.344  28.838   0.255
14945W        W87205  10.380  22.703   1.260
14946W        W87206  18.427   1.630   5.142
14947W        W87207  42.461  27.046   3.859
14948W        W87208  44.209  40.532   9.964
14949W        W87209  25.017  28.523  14.210
14950W        W87210  30.111  41.442   1.903
14951W        W87211  39.942   5.354  10.684
14952W        W87212   8.791  21.991  13.302
14953W        W87213  29.962   9.273  11.136
14954W        W87214  32.097  31.066  11.527
14955W        W87215  33.840  26.649  11.058
14956W        W87216  34.546  25.345  12.965
14957W        W87217   2.050   9.925  14.360
14958W        W87218  35.066  42.273   2.821
14959W        W87219  13.321  27.879   2.288
14960W        W87220  31.064  29.685   0.762
14961W        W87221  22.994  31.226   0.371
14962W        W87222  22.684  31.120   3.439
14963W        W87223  10.703  41.711   2.471
14964W        W87224  32.893  28.754  14.577
14965W        W87225   2.565  21.386  12.348
14966W        W87226  37.476  32.620  12.639
14967W        W87227  42.531  25.274  13.830
14968W        W87228  21.248  32.330   0.342
14969W        W87229  14.073  19.283   4.930
14970W        W87230  25.541  19.046   0.475
14971W        W87231   0.562  44.794   3.263
14972W        W87232  12.270  38.257  11.552
14973W        W87233  41.556  40.002  13.481
14974W        W87234  37.160  35.468  11.968
14975W        W87235  28.664  42.828  10.607
14976W        W87236  41.514  27.208  14.064
14977W        W87237  43.478  43.602  14.798
14978W        W87238  35.476   6.402  12.144
14979W        W87239  33.292  19.668  13.337
14980W        W87240   9.660  20.783  11.418
14981W        W87241  22.629  42.926  11.095
14982W        W87242  31.438  39.044   4.603
14983W        W87243  43.365  13.964   3.700
14984W        W87244  44.022  21.148   1.701
14985W        W87245   8.817   0.807   4.544
14986W        W87246  37.047  35.839   3.911
14987W        W87247   1.276  10.240  14.452
14988W        W87248  14.093  41.151   3.732
14989W        W87249  11.417  32.540  13.486
14990W        W87250  19.439   2.222  11.748
14991W        W87251  20.954  39.913   2.549
14992W        W87252  11.378  15.717   0.320
14993W        W87253  20.216   5.463  12.973
14994W        W87254  40.087   1.733  12.728
14995W        W87255  10.018  11.725   4.579
14996W        W87256  21.575  15.574  11.472
14997W        W87257  25.661  15.303   1.227
14998W        W87258  27.107  37.137   3.315
14999W        W87259  41.548  27.545  12.570
15000W        W87260  29.577   7.685  14.777
15001W        W87261  22.684   2.583  14.887
15002W        W87262  33.404   0.174  12.917
15003W        W87263  13.977  10.945   4.157
15004W        W87264  21.890  37.343   5.096
15005W        W87265  30.854  32.765  13.913
15006W        W87266  33.796  33.960   4.542
15007W        W87267  36.033  22.809  11.543
15008W        W87268  36.430   2.686   0.826
15009W        W87269  38.860  14.733  14.466
15010W        W87270  18.518  19.061   0.276
15011W        W87271   3.608  42.958  14.388
15012W        W87272  17.350  30.549  12.050
15013W        W87273  14.773  35.689  14.912
15014W        W87274  40.421  28.552   0.362
15015W        W87275  34.863   5.190  11.727
15016W        W87276  15.312  43.266   3.597
15017W        W87277  11.488  30.405   5.141
15018W        W87278  18.520  14.417   0.959
15019W        W87279  35.351  27.237   4.164
15020W        W87280  13.761  44.517  14.848
15021W        W87281   0.254  41.329   0.806
15022W        W87282  25.949  36.882   2.439
15023W        W87283   6.338  43.867  14.826
15024W        W87284  21.053   4.689  14.019
15025W        W87285  21.603  32.956  13.370
15026W        W87286   6.902  23.324  13.936
15027W        W87287  17.077   9.098  13.850
15028W        W87288  11.689  33.189  12.931
15029W        W87289  44.800  25.660  11.817
15030W        W87290  12.255   4.956   2.408
15031W        W87291  17.279  33.339  11.185
15032W        W87292  33.647  23.725   2.291
15033W        W87293   5.721  33.423  10.482
15034W        W87294  38.594   4.854  12.987
15035W        W87295   4.836  44.694   3.175
15036W        W87296   9.416   7.652  10.658
15037W        W87297   7.127  30.852   2.737
15038W        W87298  10.015  18.808   2.552
15039W        W87299  36.117  18.712  11.465
15040W        W87300  20.957  27.578   0.687
15041W        W87301  28.136  14.261   4.698
15042W        W87302  44.948   2.217   2.124
15043W        W87303  26.235  31.931   2.328
15044W        W87304   4.408   6.505  11.120
15045W        W87305  14.061  27.500   3.756
15046W        W87306  36.571   8.143   0.766
15047W        W87307  36.016  18.114  14.838
15048W        W87308   6.741  12.125  13.292
15049W        W87309   4.997   9.243  11.804
15050W        W87310  29.444  39.834   1.748
15051W        W87311  42.496  12.366  14.865
15052W        W87312   4.255  10.602  13.920
15053W        W87313   2.605  14.564  12.643
15054W        W87314  34.020  24.484   1.826
15055W        W87315  26.368  35.081  13.336
15056W        W87316  26.938  26.054  13.044
15057W        W87317  44.545  10.936   4.306
15058W        W87318  13.345  39.037  11.237
15059W        W87319  26.133  27.026  12.450
15060W        W87320  23.827   1.739  12.835
15061W        W87321  13.444  22.062   3.739
15062W        W87322  20.128  18.833   3.098
15063W        W87323  32.848  33.295   0.818
15064W        W87324  43.018   2.265  12.625
15065W        W87325  22.442  43.283   0.090
15066W        W87326  14.901  12.279  10.450
15067W        W87327  11.903  30.561   3.169
15068W        W87328  25.674  28.719  11.578
15069W        W87329   8.856  13.187   2.657
15070W        W87330   2.067  17.525  13.348
15071W        W87331  37.532  34.611   3.929
15072W        W87332   4.289   3.444   4.121
15073W        W87333  36.880  15.719   3.118
15074W        W87334  39.583  16.349  13.440
15075W        W87335  34.010   8.239   4.541
15076W        W87336  29.996  35.367  14.996
15077W        W87337   4.782  13.607  14.675
15078W        W87338  36.768  24.755  11.116
15079W        W87339  30.916  32.513   3.343
15080W        W87340  16.149   3.706  13.691
15081W        W87341  16.729  22.153  10.308
15082W        W87342  40.286  17.617  12.968
15083W        W87343  16.382  27.139  11.795
15084W        W87344  28.612   7.641   1.231
15085W        W87345  23.049  17.478  10.868
15086W        W87346  20.224  26.669   2.413
15087W        W87347   0.490  43.096  13.548
15088W        W87348   0.056  32.175   4.114
15089W        W87349  19.936  36.973  10.786
15090W        W87350  21.918  43.568   3.666
15091W        W87351  15.578  31.621  12.435
15092W        W87352  44.005  35.046   1.886
15093W        W87353  35.059  29.144   1.887
15094W        W87354  25.374  32.539  14.954
15095W        W87355  40.642  32.621  11.017
15096W        W87356  10.547   1.363  12.474
15097W        W87357  25.717  31.312  14.462
15098W        W87358  29.914  31.976   0.340
15099W        W87359  20.524  42.789  13.370
15100W        W87360  20.083  40.090  14.892
15101W        W87361   0.474   2.365   4.722
15102W        W87362   7.246   6.302  14.111
15103W        W87363  37.927  27.469   0.312
15104W        W87364  24.202   0.230  13.152
15105W        W87365   2.347  39.591   2.263
15106W        W87366  17.011  32.983   2.927
15107W        W87367  13.312   1.707   3.292
15108W        W87368  39.515  22.995   3.297
15109W        W87369  25.178  15.160  14.781
15110W        W87370  38.022  29.679  11.326
15111W        W87371  24.639  34.073  14.083
15112W        W87372   2.408  38.607  12.880
15113W        W87373  16.976  19.682  12.914
15114W        W87374  41.888   9.138  10.717
15115W        W87375   5.356  13.955  11.761
15116W        W87376  22.127   9.886  12.478
15117W        W87377  34.192  18.351  11.566
15118W        W87378  20.089   6.216  13.399
15119W        W87379  13.129  19.495   4.056
15120W        W87380  32.631  27.002   1.862
15121W        W87381  14.990  30.536   2.393
15122W        W87382  31.116  25.504   3.309
15123W        W87383   8.912  33.802  14.393
15124W        W87384  24.203  37.528   3.826
15125W        W87385  22.665  27.255   1.385
15126W        W87386  23.754  26.664  13.928
15127W        W87387  10.534  30.536   1.463
15128W        W87388  11.532  34.463  12.486
15129W        W87389   9.668  22.683   3.756
15130W        W87390  33.812  30.973   0.033
15131W        W87391  24.148  34.764   2.219
15132W        W87392   2.431  41.835  12.015
15133W        W87393  23.686   3.199  13.821
15134W        W87394  34.082  20.541  14.373
15135W        W87395  29.864  41.409   0.664
15136W        W87396  15.604   0.873   0.296
15137W        W87397  29.903  17.518   0.763
15138W        W87398   3.985  13.879  14.433
15139W        W87399  42.018  11.860  12.785
15140W        W87400   6.360  26.700  14.985
15141W        W87401   8.868  20.117  12.467
15142W        W87402  27.209  38.092   2.428
15143W        W87403   9.486  10.455   9.834
15144W        W87404   0.724  30.695  11.607
15145W        W87405  38.583   6.973   2.236
15146W        W87406  28.747  11.195  14.936
15147W        W87407  16.170  24.165  12.833
15148W        W87408  24.204  30.156   3.551
15149W        W87409  35.294  38.908  10.558
15150W        W87410  22.884  28.464  10.393
15151W        W87411   7.288   6.018   4.581
15152W        W87412  26.569   2.294   1.232
15153W        W87413  35.087   3.870  14.349
15154W        W87414   4.117  12.466  14.588
15155W        W87415  37.034   6.712  10.455
15156W        W87416  33.447  44.035  13.884
15157W        W87417  37.149  12.836  12.171
15158W        W87418  13.706  14.420   9.848
15159W        W87419  12.486  34.537  13.415
15160W        W87420  11.750   0.298   3.216
15161W        W87421  31.932  21.194  10.580
15162W        W87422  26.255   2.461   1.672
15163W        W87423  22.818  22.203  11.068
15164W        W87424   7.703  24.607  11.922
15165W        W87425   7.135  36.342   1.827
15166W        W87426  26.351  33.864   1.159
15167W        W87427  35.351   0.642   1.820
15168W        W87428  37.586  43.023  14.836
15169W        W87429  41.357  24.085   0.390
15170W        W87430   6.974  21.210  11.415
15171W        W87431   4.397  15.318  12.100
15172W        W87432  19.480  36.921  11.461
15173W        W87433  33.985  35.700   1.948
15174W        W87434  15.418  32.574  12.938
15175W        W87435  18.171  30.691   4.071
15176W        W87436  41.119  39.507  14.597
15177W        W87437  15.056  39.286   0.628
15178W        W87438   8.608  12.898   0.557
15179W        W87439  34.532   4.975  14.760
15180W        W87440  28.507  24.162   2.644
15181W        W87441  37.872  42.449  10.758
15182W        W87442  32.707  13.620   3.385
15183W        W87443  22.052  34.896  10.841
15184W        W87444  24.990  38.117   1.173
15185W        W87445   7.370  43.200   4.658
15186W        W87446   4.298   6.156   1.201
15187W        W87447  31.875  31.533  14.917
15188W        W87448  11.167   8.643   4.138
15189W        W87449  33.209   1.881  12.837
15190W        W87450  22.685   8.679   1.388
15191W        W87451  35.929  19.967  11.637
15192W        W87452   5.231  12.620  10.629
15193W        W87453  28.850  13.723   3.174
15194W        W87454  15.787   0.273   4.217
15195W        W87455  27.040   7.926  11.120
15196W        W87456  19.486  24.478  10.975
15197W        W87457   6.881  22.620   3.802
15198W        W87458  39.157   3.304   2.970
15199W        W87459  30.670  12.180  11.665
15200W        W87460  44.818  37.030   2.760
15201W        W87461   3.298  42.667  13.115
15202W        W87462  34.472   3.923  13.887
15203W        W87463  25.129  33.214   3.587
15204W        W87464  33.959  31.510   1.267
15205W        W87465   6.301  13.614   0.236
15206W        W87466  29.604  32.165   9.766
15207W        W87467  22.524  39.337  11.330
15208W        W87468  40.832  24.826  10.747
15209W        W87469  38.417  35.582   1.828
15210W        W87470  37.491   9.420   0.066
15211W        W87471  43.475  36.559  12.205
15212W        W87472   0.816   3.659   4.053
15213W        W87473  12.212  11.922   1.295
15214W        W87474  24.714  14.698  12.081
15215W        W87475   0.831  34.884   4.089
15216W        W87476  16.889  21.825  13.493
15217W        W87477  20.033   7.841  12.861
15218W        W87478  23.464  21.193   0.802
15219W        W87479   9.823   7.433   4.502
15220W        W87480  16.331  19.396   2.711
15221W        W87481  42.962  43.391   1.464
15222W        W87482  13.739  42.855   3.672
15223W        W87483  14.813  32.584   3.368
15224W        W87484  44.646  26.175   3.385
15225W        W87485  37.528  35.582   0.216
15226W        W87486   9.960  37.535  13.586
15227W        W87487   6.429  12.668   1.217
15228W        W87488   9.658   9.757   3.033
15229W        W87489  19.085  31.871  13.512
15230W        W87490  38.514  11.200  12.521
15231W        W87491   1.240  34.139  13.608
15232W        W87492  25.123   8.050  13.564
15233W        W87493  12.814   5.165   0.370
15234W        W87494   1.601  41.528   0.368
15235W        W87495  24.065  40.775   4.852
15236W        W87496   6.213  24.143   2.688
15237W        W87497  24.793  21.510  11.502
15238W        W87498   7.924  21.716   2.823
15239W        W87499   7.908  32.501  14.836
15240W        W87500   4.800  41.498   1.961
15241W        W87501  12.280  35.521   1.890
15242W        W87502  39.830  39.553  11.426
15243W        W87503   7.942  41.709  14.899
15244W        W87504  24.259  42.943  12.922
15245W        W87505  12.810  17.563   3.193
15246W        W87506  31.140  44.221  13.517
15247W        W87507  33.922  44.500  12.057
15248W        W87508  14.046  14.318   2.484
15249W        W87509   1.669  33.174  14.763
15250W        W87510  27.641  32.438   0.805
15251W        W87511  38.812   6.483   2.069
15252W        W87512  31.534   9.721  11.150
15253W        W87513  24.996   9.077  12.516
15254W        W87514   7.464  15.431  11.617
15255W        W87515  44.080  27.574  10.378
15256W        W87516  15.899  41.391   1.288
15257W        W87517  40.596  26.172   1.778
15258W        W87518  36.632  17.031   1.493
15259W        W87519  19.524   8.220   1.836
15260W        W87520  22.693  34.395   2.751
15261W        W87521   6.877   5.712   4.465
15262W        W87522  21.148  42.881   4.329
15263W        W87523  27.873  41.486  10.748
15264W        W87524  20.965   6.405  13.477
15265W        W87525  20.157  24.081   2.354
15266W        W87526  36.152  35.428  12.911
15267W        W87527  21.056  38.560   3.821
15268W        W87528   5.352  44.036  14.945
15269W        W87529  11.394  10.179  11.892
15270W        W87530   4.008  23.414  12.473
15271W        W87531  40.511  25.674  13.137
15272W        W87532   1.824   8.263   4.412
15273W        W87533  11.675  27.879   1.354
15274W        W87534  32.426  11.764   0.402
15275W        W87535  27.583  35.100  13.003
15276W        W87536  20.093  42.081  10.749
15277W        W87537   1.830   8.828  10.746
15278W        W87538  36.335  27.447  13.624
15279W        W87539   2.819  44.393   2.062
15280W        W87540   0.776  38.267   4.680
15281W        W87541  41.558  34.413  11.874
15282W        W87542  16.487  44.747  11.982
15283W        W87543  37.976  43.769   4.356
15284W        W87544  40.527  17.670   1.233
15285W        W87545  22.021   9.656   3.635
15286W        W87546  20.241  36.159   4.815
15287W        W87547   1.450  15.586   0.244
15288W        W87548  11.336  41.805  14.219
15289W        W87549   2.564  19.545   5.034
15290W        W87550   8.249  19.582  12.047
15291W        W87551  17.015  32.503  14.940
15292W        W87552   1.815  14.387   3.797
15293W        W87553  40.837  27.205  12.866
15294W        W87554  22.861  14.290   3.063
15295W        W87555  34.161  24.720   0.461
15296W        W87556  22.479   7.267  11.846
15297W        W87557  25.589  28.717   1.827
15298W        W87558  33.990   6.803   3.216
15299W        W87559  17.281  32.064  10.102
15300W        W87560   6.596  28.139   0.023
15301W        W87561   2.510  14.262   1.771
15302W        W87562  40.724  12.409  12.589
15303W        W87563  11.141  10.706  12.876
15304W        W87564   0.589   7.463  14.525
15305W        W87565   7.417   2.490  13.448
15306W        W87566   2.242   1.470   3.522
15307W        W87567   0.378  14.769  13.506
15308W        W87568  37.465  18.349   3.538
15309W        W87569  37.142  30.861   3.745
15310W        W87570  19.882  40.977   1.254
15311W        W87571  39.336   7.180  13.636
15312W        W87572  38.940  24.151  10.421
15313W        W87573  27.503  40.723  12.452
15314W        W87574  25.690  14.519  11.862
15315W        W87575  34.957  34.635  13.345
15316W        W87576  23.687   0.787   1.961
15317W        W87577  44.895   6.756  13.294
15318W        W87578  34.832  14.070   4.388
15319W        W87579  12.868  28.557  14.443
15320W        W87580  27.547  35.639   2.281
15321W        W87581  11.752  28.532  11.502
15322W        W87582  20.127  20.218  11.149
15323W        W87583   4.614  40.354   3.859
15324W        W87584  17.756  30.627   2.517
15325W        W87585  15.727  41.439  12.876
15326W        W87586   1.416  13.125  12.114
15327W        W87587  15.106  28.993   1.033
15328W        W87588  13.111  16.854   3.796
15329W        W87589  34.575  21.556  10.234
15330W        W87590  13.605  40.200  11.765
15331W        W87591   7.820  13.958  12.955
15332W        W87592  13.167   8.228   4.411
15333W        W87593  12.275   1.510   0.300
15334W        W87594  29.113  22.256   0.987
15335W        W87595   6.924  43.926   2.156
15336W        W87596  40.319  34.855   1.317
15337W        W87597  29.924  36.570  13.453
15338W        W87598  31.049  42.645  14.693
15339W        W87599   6.260  23.274  13.941
15340W        W87600   6.856   4.250   0.104
15341W        W87601  14.133  24.406   0.788
15342W        W87602  26.856  40.457  14.342
15343W        W87603  26.958  12.229  11.530
15344W        W87604  28.896  36.388   0.355
15345W        W87605   0.224  38.460  12.643
15346W        W87606   5.818   9.174  10.434
15347W        W87607  24.101   7.057   4.579
15348W        W87608   3.094  41.368  12.836
15349W        W87609  15.277  12.271  10.806
15350W        W87610  42.339  27.939  11.422
15351W        W87611   7.273  30.861  14.949
15352W        W87612  14.765   7.134   9.997
15353W        W87613   3.632  32.707   4.599
15354W        W87614  23.627  22.051   0.687
15355W        W87615   5.400  25.665  10.399
15356W        W87616  20.294  37.912   3.709
15357W        W87617  36.668  28.094   1.410
15358W        W87618  29.280  44.662  14.212
15359W        W87619  42.804  37.456  12.052
15360W        W87620   6.472  13.088   0.247
15361W        W87621  31.378  31.111   3.291
15362W        W87622  14.355  25.508   4.657
15363W        W87623   2.203  29.862   1.939
15364W        W87624  33.042  24.094   3.656
15365W        W87625  15.385  18.201  11.961
15366W        W87626   5.707  33.932  10.596
15367W        W87627  15.678  28.808  11.814
15368W        W87628  28.946   4.072  14.305
15369W        W87629  23.540  34.582   0.860
15370W        W87630  19.291  25.218  11.558
15371W        W87631   2.460  23.211   3.673
15372W        W87632  12.677   6.910  12.457
15373W        W87633  11.340  16.882   1.361
15374W        W87634  40.921  41.838  12.922
15375W        W87635   4.934  13.344  12.363
15376W        W87636  11.855  33.468  14.820
15377W        W87637  27.534  36.802   1.475
15378W        W87638   3.213  43.831   0.285
15379W        W87639  11.723  10.216  10.353
15380W        W87640  39.761  38.939  13.829
15381W        W87641  36.401  27.897   3.444
15382W        W87642  22.135  35.370  11.676
15383W        W87643  20.187  42.581   2.968
15384W        W87644  33.574  29.705  14.347
15385W        W87645  10.799   9.215   3.701
15386W        W87646  22.587  20.398   1.730
15387W        W87647  29.005   5.898   2.916
15388W        W87648  26.289  15.189   1.269
15389W        W87649  34.249  15.153   2.219
15390W        W87650  13.408  44.887   2.405
15391W        W87651  43.474  13.823   0.676
15392W        W87652   1.283  12.762  14.430
15393W        W87653  33.658  40.328  13.333
15394W        W87654   1.883   8.391  14.476
15395W        W87655  27.088  15.605   1.364
15396W        W87656   7.139  36.972   2.469
15397W        W87657  31.666  11.185   0.187
15398W        W87658  40.760  32.708   4.202
15399W        W87659   0.510  31.382   3.947
15400W        W87660  32.080   1.750  14.964
15401W        W87661   4.920  43.457   0.965
15402W        W87662   1.685  33.855  12.500
15403W        W87663   9.349  25.203   0.980
15404W        W87664  35.942  15.706  12.299
15405W        W87665   3.263  12.741   1.204
15406W        W87666  36.388  43.908   2.115
15407W        W87667   3.294  31.695   1.748
15408W        W87668  17.255  39.287   4.105
15409W        W87669   7.656  39.409  12.039
15410W        W87670  32.268  18.635   2.234
15411W        W87671  28.563  39.316  10.706
15412W        W87672  32.480   5.113  12.828
15413W        W87673  15.438   3.339  11.280
15414W        W87674   6.831  29.481   3.684
15415W        W87675   8.618  24.680  11.562
15416W        W87676  25.067  18.460  13.608
15417W        W87677  42.771  41.621  12.141
15418W        W87678  22.449   5.154  13.999
15419W        W87679  26.484  15.311   0.385
15420W        W87680   8.153   8.380   1.305
15421W        W87681  29.866  42.021   3.634
15422W        W87682  36.480  41.935  13.737
15423W        W87683  17.843  39.490   1.230
15424W        W87684   2.047  14.710   4.142
15425W        W87685  10.259  19.121   4.287
15426W        W87686  30.674  26.674  10.060
15427W        W87687  23.456   0.061  14.389
15428W        W87688  12.718   6.250   3.678
15429W        W87689  19.496  22.058   3.284
15430W        W87690   1.837  43.262  10.816
15431W        W87691  26.232  18.591  12.650
15432W        W87692  32.841  34.630  13.378
15433W        W87693  38.847  15.166   4.415
15434W        W87694   5.499   5.411  11.730
15435W        W87695  13.724  40.872   0.922
15436W        W87696  30.411  27.974  11.521
15437W        W87697  35.512  21.719  14.402
15438W        W87698  38.346  21.023   4.407
15439W        W87699   1.063   6.323   4.260
15440W        W87700  18.175  38.926  10.593
15441W        W87701  26.717   7.684   1.221
15442W        W87702   0.867  15.806  13.194
15443W        W87703   9.676  31.497  12.102
15444W        W87704  16.815   1.717   0.429
15445W        W87705  14.627  10.748  11.511
15446W        W87706  20.435   2.572   3.321
15447W        W87707  24.076   3.493  12.616
15448W        W87708  39.400  15.316  13.418
15449W        W87709  37.089  32.671  13.942
15450W        W87710  13.184  28.401   4.026
15451W        W87711   4.280  12.610  12.438
15452W        W87712  33.707  18.059  11.578
15453W        W87713  44.373   1.291   2.879
15454W        W87714  42.707   6.446  13.360
15455W        W87715  10.915  17.936   4.155
15456W        W87716  38.594  30.047   0.893
15457W        W87717   7.255  42.890  14.301
15458W        W87718   7.240   3.878  14.983
15459W        W87719  36.342   6.981  13.966
15460W        W87720   7.419  15.702   4.236
15461W        W87721  42.469  28.986   3.350
15462W        W87722   1.970  24.141   2.004
15463W        W87723  18.579  44.952   4.030
15464W        W87724   3.499  38.824  14.012
15465W        W87725  44.440  23.285   2.327
15466W        W87726  15.285  32.666   0.450
15467W        W87727  11.156  44.991   4.776
15468W        W87728  17.153  17.753  12.468
15469W        W87729  42.960  15.779  14.862
15470W        W87730  31.524   5.988  14.218
15471W        W87731  35.575  37.100   4.795
15472W        W87732  27.036  39.456   4.150
15473W        W87733  10.693  43.761  13.879
15474W        W87734  35.914  19.508   4.194
15475W        W87735   6.807  15.587  12.054
15476W        W87736   2.687  32.554  10.437
15477W        W87737  13.646  15.002   3.652
15478W        W87738  12.059  44.834   3.144
15479W        W87739  41.552   2.586  14.312
15480W        W87740  22.008   3.489  12.538
15481W        W87741  10.578  24.144  11.950
15482W        W87742   9.413   9.349   3.260
15483W        W87743  25.711  24.272   2.748
15484W        W87744  26.506  15.730   3.640
15485W        W87745  26.320  34.871   1.280
15486W        W87746  40.059  32.542   3.624
15487W        W87747  42.777   0.128  11.085
15488W        W87748   9.599  25.591  14.320
15489W        W87749  17.648   1.883   4.552
15490W        W87750   5.726  10.262  10.636
15491W        W87751  27.167  32.861  11.595
15492W        W87752  12.634  38.566   0.947
15493W        W87753   8.901  21.422   3.852
15494W        W87754  41.046  43.576  12.924
15495W        W87755   4.172  26.189  11.180
15496W        W87756  34.470  25.973  14.607
15497W        W87757   0.297  31.114  12.643
15498W        W87758  24.608   4.445   3.220
15499W        W87759  15.968  37.326  10.608
15500W        W87760  23.664  16.624   2.820
15501W        W87761   6.155  44.872  14.530
15502W        W87762   3.450   7.673   0.864
15503W        W87763  19.642   2.284   1.510
15504W        W87764  19.363  24.757  13.283
15505W        W87765   6.688  39.561  11.190
15506W        W87766  40.485  26.121   2.679
15507W        W87767  32.629  41.188   2.409
15508W        W87768  32.919  36.172  12.597
15509W        W87769  14.300   2.993   1.453
15510W        W87770  19.120  44.878  14.011
15511W        W87771  34.392  39.143  12.750
15512W        W87772  23.806  13.377  11.521
15513W        W87773  44.310   7.229   2.808
15514W        W87774  24.688  30.417   4.621
15515W        W87775   7.961  17.325  11.681
15516W        W87776  36.849  32.117   2.587
15517W        W87777   2.165  38.019   1.751
15518W        W87778  40.908   6.644   4.609
15519W        W87779  38.075  43.545  11.522
15520W        W87780   4.537  28.690  14.020
15521W        W87781  36.430  22.686   2.747
15522W        W87782   3.814   8.134  11.812
15523W        W87783  29.556  14.320   0.470
15524W        W87784  34.666  33.634  10.701
15525W        W87785  27.869  23.698   0.873
15526W        W87786  30.307  24.610   1.414
15527W        W87787  29.930  31.009  11.952
15528W        W87788  44.755   4.391  12.904
15529W        W87789  33.139  43.871   4.432
15530W        W87790  32.054  17.569  14.787
15531W        W87791  30.701  11.669  10.465
15532W        W87792  31.356   5.688  13.285
15533W        W87793  27.264  42.506   3.665
15534W        W87794  23.152   2.274  12.584
15535W        W87795  12.662   2.206   1.372
15536W        W87796  18.547  29.124   4.619
15537W        W87797  42.442  38.612  14.377
15538W        W87798  39.460   0.930   4.721
15539W        W87799  35.320  38.120  12.444
15540W        W87800  12.318   2.764   1.822
15541W        W87801   2.266  15.022  12.611
15542W        W87802  25.187  15.296   4.703
15543W        W87803   0.616   8.690  14.457
15544W        W87804  40.082   6.837   4.539
15545W        W87805   1.095  28.072   4.988
15546W        W87806  15.385  19.049   2.883
15547W        W87807  20.093  33.628  11.993
15548W        W87808   0.330  25.819  14.843
15549W        W87809  42.950  38.311  13.077
15550W        W87810  31.145   5.266  13.034
15551W        W87811  43.512  17.836  13.000
15552W        W87812   9.667  33.649  14.523
15553W        W87813  11.561  19.246  11.613
15554W        W87814   5.338  30.546  12.137
15555W        W87815  40.341  29.065   0.412
15556W        W87816   8.622  12.061  11.125
15557W        W87817  27.293  25.597  11.987
15558W        W87818  19.556  31.205  11.152
15559W        W87819  36.309   4.662  14.956
15560W        W87820  34.798  11.039   0.187
15561W        W87821   6.444  35.885  13.523
15562W        W87822  42.415  15.136   0.380
15563W        W87823  32.214  21.571   3.712
15564W        W87824  10.690   9.914  12.866
15565W        W87825  26.804   6.548   5.050
15566W        W87826  13.538  43.155   2.779
15567W        W87827   1.748  34.532  11.957
15568W        W87828   1.036  43.736  11.139
15569W        W87829   4.348  36.432  13.080
15570W        W87830  17.568  39.764  14.983
15571W        W87831  36.134  20.472  13.417
15572W        W87832  14.243  24.577  14.426
15573W        W87833  40.792   9.525   2.633
15574W        W87834  41.745  22.228  14.321
15575W        W87835  20.819   2.273   1.957
15576W        W87836  11.384  36.451  13.111
15577W        W87837  20.040   3.421  12.359
15578W        W87838   0.255  18.544  10.927
15579W        W87839   8.735   9.250  11.686
15580W        W87840  25.171  22.612   1.441
15581W        W87841  30.819  29.973  12.509
15582W        W87842   8.887   3.964   1.700
15583W        W87843  37.597  29.538  10.747
15584W        W87844   2.354  36.442   2.048
15585W        W87845  29.475  12.929  12.881
15586W        W87846  37.190  27.413   0.860
15587W        W87847   9.210  17.307  11.138
15588W        W87848  30.691   4.409   4.583
15589W        W87849  11.348  27.681  11.670
15590W        W87850  24.016   3.740  14.396
15591W        W87851  18.850  35.862   2.777
15592W        W87852  26.195  39.370  11.740
15593W        W87853  33.889  15.519   2.259
15594W        W87854  34.390   3.503  13.027
15595W        W87855  39.391  34.119   2.403
15596W        W87856  38.488  29.498   2.562
15597W        W87857  16.624  23.218  11.153
15598W        W87858  32.657  10.110   0.051
15599W        W87859  30.214   0.531  12.250
15600W        W87860  21.550  21.483   0.008
15601W        W87861  30.107  36.429   3.315
15602W        W87862  19.514   4.941  14.449
15603W        W87863  37.915  25.673   3.834
15604W        W87864  32.815  35.775   1.397
15605W        W87865  14.130  32.188  11.149
15606W        W87866  10.935  23.291   3.195
15607W        W87867  30.226  12.729   4.420
15608W        W87868  20.722  35.383  11.577
15609W        W87869   4.405  29.930   4.439
15610W        W87870  34.364  10.366   1.443
15611W        W87871   9.975  24.767  11.165
15612W        W87872  15.585  24.545   3.122
15613W        W87873  32.906   5.615   1.629
15614W        W87874  22.247  32.460   0.872
15615W        W87875   7.213  19.820   0.742
15616W        W87876   1.822  35.873  12.508
15617W        W87877  14.790  38.136  14.069
15618W        W87878  34.045  27.929  10.560
15619W        W87879  15.892  33.094   3.360
15620W        W87880  42.109   3.454   2.476
15621W        W87881  29.883  22.550  10.905
15622W        W87882   2.925   6.269   1.290
15623W        W87883  11.282  27.028   1.373
15624W        W87884   8.637  38.473  13.530
15625W        W87885   0.963   6.388   2.845
15626W        W87886   5.950  17.136   0.336
15627W        W87887  10.350  37.376   0.358
15628W        W87888  42.055  38.487   4.368
15629W        W87889  38.344  21.833  14.768
15630W        W87890   6.406  10.609  10.080
15631W        W87891  31.974  32.547  14.961
15632W        W87892  28.780  22.112  12.163
15633W        W87893  28.219   2.926  11.133
15634W        W87894  17.596   9.286  11.494
15635W        W87895  35.550  42.246  14.228
15636W        W87896  16.099  12.856  13.890
15637W        W87897   1.175  31.390   4.898
15638W        W87898  11.345  25.169  11.538
15639W        W87899  43.741  24.517   2.401
15640W        W87900  20.556  22.642   1.201
15641W        W87901  17.080   8.834  14.295
15642W        W87902   8.333   5.006  12.005
15643W        W87903  42.922   1.397  10.660
15644W        W87904   4.179  35.125  13.098
15645W        W87905  36.966  11.668  11.832
15646W        W87906   6.613   7.710  11.058
15647W        W87907   8.336  33.457   3.525
15648W        W87908   7.186   1.925   2.147
15649W        W87909   7.413   1.906  12.338
15650W        W87910   2.488  15.989   1.266
15651W        W87911   0.938  18.085   4.474
15652W        W87912  36.027   5.165  12.864
15653W        W87913  28.069  40.063  14.008
15654W        W87914  44.168  22.732  14.583
15655W        W87915  37.094  23.322  10.569
15656W        W87916   6.929  32.977   4.096
15657W        W87917  22.462  26.793   3.901
15658W        W87918   8.803  30.903   1.287
15659W        W87919  16.654  41.574  11.743
15660W        W87920   7.516   2.952   0.293
15661W        W87921   7.170  28.337  10.252
15662W        W87922  25.024  34.515  10.966
15663W        W87923  19.417  37.498   0.409
15664W        W87924  37.010  43.325   3.720
15665W        W87925  44.993  42.209   2.611
15666W        W87926  29.388  30.708  14.987
15667W        W87927   4.108  11.746  10.755
15668W        W87928  16.625   8.941   4.928
15669W        W87929  26.692  33.035  11.522
15670W        W87930  22.150   7.922  13.900
15671W        W87931  32.735   1.050   3.711
15672W        W87932  10.780  24.545  11.268
15673W        W87933  20.874  30.071   0.322
15674W        W87934  34.863  20.712  11.941
15675W        W87935   3.033   1.227  14.819
15676W        W87936  20.514  39.768   3.442
15677W        W87937   7.271   6.675  10.425
15678W        W87938   9.995  18.568   1.107
15679W        W87939  24.204  43.437  11.439
15680W        W87940  23.985  31.109   4.512
15681W        W87941  15.541  39.823  11.951
15682W        W87942  11.552  18.096   2.390
15683W        W87943  37.453  31.406   2.796
15684W        W87944  16.055  30.813  11.906
15685W        W87945  20.978  40.536   1.778
15686W        W87946  33.892  39.445   2.909
15687W        W87947   5.499   5.819  12.027
15688W        W87948   7.421   5.833  10.609
15689W        W87949  37.883  20.070  13.043
15690W        W87950  33.081  44.408  14.581
15691W        W87951  34.048  27.005  11.818
15692W        W87952   2.318  10.914   2.833
15693W        W87953  38.743  44.251   4.567
15694W        W87954   7.744  12.117   1.326
15695W        W87955   0.888  15.170   4.573
15696W        W87956   0.463  43.843  14.940
15697W        W87957   1.975  39.792  13.371
15698W        W87958   3.143  33.542  10.737
15699W        W87959  33.839  34.559   2.709
15700W        W87960  23.073  37.420   2.719
15701W        W87961   4.953  20.597   2.018
15702W        W87962  10.354  39.396  13.957
15703W        W87963   0.834  36.532   3.907
15704W        W87964  10.775  24.126  10.964
15705W        W87965  32.455  39.699  10.654
15706W        W87966  24.542  40.434  13.855
15707W        W87967  38.057  16.619  11.979
15708W        W87968  28.226  22.176   0.297
15709W        W87969   2.413   0.049   2.694
15710W        W87970  43.523  31.374  12.595
15711W        W87971   3.840  28.644  13.487
15712W        W87972  16.281   0.541   1.835
15713W        W87973   3.426   6.910   3.179
15714W        W87974   6.183  20.172   0.908
15715W        W87975  42.532   4.872  14.414
15716W        W87976  29.165   7.246   2.701
15717W        W87977  20.333  20.665  13.278
15718W        W87978  10.060  23.104   2.415
15719W        W87979  35.358  17.312  13.343
15720W        W87980  33.376   0.441  10.330
15721W        W87981  33.504  11.908   4.948
15722W        W87982  29.999  26.120   1.469
15723W        W87983  12.826  18.712  14.990
15724W        W87984  17.332  25.008  14.971
15725W        W87985  36.269  31.613  14.820
15726W        W87986  22.667  43.690   2.749
15727W        W87987  30.175  27.389   3.690
15728W        W87988  18.055  20.215  13.916
15729W        W87989  20.015  13.605   2.929
15730W        W87990  25.994  21.515  12.471
15731W        W87991  37.522  37.844   4.526
15732W        W87992  28.997   7.692   3.626
15733W        W87993  22.918  23.270   4.535
15734W        W87994  11.195  24.489   0.106
15735W        W87995  19.490   8.096  14.395
15736W        W87996  42.749  36.512   0.505
15737W        W87997  42.179  34.850   2.603
15738W        W87998  15.325   1.806  10.731
15739W        W87999  44.489  19.829   3.779
15740W        W88000   9.255  20.933   1.392
15741W        W88001   3.690  25.692   3.780
15742W        W88002  27.585  39.072  13.375
15743W        W88003  20.790  12.724   2.212
15744W        W88004  14.831  36.921   1.890
15745W        W88005  17.205  24.988   3.684
15746W        W88006  33.089  17.316  12.768
15747W        W88007  14.361  14.991  13.783
15748W        W88008  36.553  17.838  12.064
15749W        W88009  40.816  44.790   0.700
15750W        W88010  34.181  39.426  11.067
15751W        W88011  29.733  25.574  14.890
15752W        W88012   8.262  12.737  12.534
15753W        W88013  25.231  39.623   3.592
15754W        W88014   7.332   1.241   0.480
15755W        W88015   8.295   3.519   1.221
15756W        W88016   6.807  31.973   0.472
15757W        W88017   6.706   9.778  13.178
15758W        W88018  13.202   7.696   4.132
15759W        W88019  32.836  41.550   3.798
15760W        W88020  39.766  17.542   3.165
15761W        W88021  44.526   7.854  12.938
15762W        W88022  18.623  17.020  11.122
15763W        W88023  40.046   1.752  14.407
15764W        W88024   1.618  17.739  14.145
15765W        W88025  18.498  36.528  14.516
15766W        W88026  17.551  23.732   0.805
15767W        W88027  12.374  11.721   3.261
15768W        W88028  40.881  43.867   0.898
15769W        W88029  17.170  42.236   0.957
15770W        W88030   9.113   0.359  14.777
15771W        W88031  22.091  32.395   2.277
15772W        W88032  39.051  32.583   3.903
15773W        W88033  44.028  11.816   4.143
15774W        W88034  26.714  29.670  14.046
15775W        W88035   5.957   6.870   2.605
15776W        W88036  23.292  29.313   3.148
15777W        W88037  22.228  42.573  11.145
15778W        W88038  34.612   2.264   0.391
15779W        W88039   3.440  40.813  13.425
15780W        W88040  10.210   9.356  14.093
15781W        W88041   5.159  35.321  11.049
15782W        W88042  42.406  24.226   4.919
15783W        W88043  31.844   9.693   1.211
15784W        W88044  23.008   6.833   5.070
15785W        W88045  43.315   9.166  12.008
15786W        W88046  17.749  19.569   3.641
15787W        W88047  32.639   5.354   2.294
15788W        W88048   7.273  35.297  13.408
15789W        W88049  25.852  12.435   3.651
15790W        W88050  22.506  25.077   0.972
15791W        W88051  22.757  29.204  12.397
15792W        W88052   9.232  16.576  14.446
15793W        W88053  18.220  30.636   0.330
15794W        W88054   3.225   8.886  14.772
15795W        W88055  17.081  33.010   3.758
15796W        W88056  20.292   0.912  13.104
15797W        W88057  38.834   6.373   5.471
15798W        W88058  23.255  44.787   2.277
15799W        W88059  14.983   1.111  13.410
15800W        W88060   9.763  10.552  12.247
15801W        W88061  32.095  42.742  14.211
15802W        W88062  15.592  18.200   2.865
15803W        W88063  34.998  41.852  12.302
15804W        W88064  44.408  27.994  12.324
15805W        W88065  41.471   7.734   4.135
15806W        W88066  30.134  19.712   1.180
15807W        W88067  30.876  16.731   4.207
15808W        W88068  22.649  27.497  14.438
15809W        W88069  24.052  42.230   0.902
15810W        W88070   1.216  24.267  14.298
15811W        W88071  32.657  35.184   0.891
15812W        W88072  35.279  33.915  11.214
15813W        W88073  27.675   8.389   0.925
15814W        W88074  31.492  30.271  12.361
15815W        W88075   2.875  44.900  14.152
15816W        W88076  26.730   5.365  11.408
15817W        W88077  13.842   0.007  10.541
15818W        W88078  14.038   3.470  12.584
15819W        W88079  14.124  30.491   2.175
15820W        W88080  33.146  41.437   3.308
15821W        W88081  30.383  16.649   4.321
15822W        W88082  16.280  16.219   1.396
15823W        W88083  44.245  16.843  14.044
15824W        W88084  22.688   7.714  11.659
15825W        W88085  20.251  37.101   2.461
15826W        W88086   1.287  21.037  12.970
15827W        W88087  43.247  12.104   1.156
15828W        W88088  20.203  37.600   0.029
15829W        W88089   9.083  18.811   4.708
15830W        W88090  23.175  29.191   2.134
15831W        W88091   4.217  39.978   1.846
15832W        W88092  17.287  28.511   3.747
15833W        W88093  39.354   0.927   3.463
15834W        W88094  43.580  24.784  11.747
15835W        W88095  33.975  19.669   3.163
15836W        W88096  32.020  38.419  14.854
15837W        W88097  36.908  11.737   0.884
15838W        W88098  31.647   1.010   1.006
15839W        W88099  26.612  26.095   0.263
15840W        W88100  14.301  12.850  12.391
15841W        W88101  27.145  37.093   0.477
15842W        W88102  21.067   8.644   3.658
15843W        W88103   9.206  32.205  11.884
15844W        W88104  12.067  17.876   1.110
15845W        W88105  38.106  36.431   3.374
15846W        W88106  38.006  34.860  10.901
15847W        W88107  26.153  21.075  10.775
15848W        W88108   9.339  21.950   1.275
15849W        W88109   3.702  24.193   4.821
15850W        W88110  14.862   8.088  13.955
15851W        W88111   4.668   0.485  11.157
15852W        W88112   1.694  14.676   1.291
15853W        W88113  39.264  20.365  12.751
15854W        W88114   8.000  28.125  11.906
15855W        W88115  42.094  13.285   4.082
15856W        W88116   7.765   8.779   2.650
15857W        W88117   9.909  25.760   2.779
15858W        W88118  36.979  32.704   1.893
15859W        W88119  40.785   9.401  12.002
15860W        W88120  29.774  10.751   4.954
15861W        W88121   1.709  11.221   3.415
15862W        W88122  21.132  37.812  12.868
15863W        W88123  14.679   6.119  10.997
15864W        W88124   0.281  33.552   4.292
15865W        W88125   4.444  23.472   4.083
15866W        W88126   6.088  29.070  10.171
15867W        W88127  24.207  38.855   2.868
15868W        W88128  37.445  43.021   0.340
15869W        W88129  22.093  10.129   3.076
15870W        W88130  17.162  17.199   4.285
15871W        W88131   1.871   8.273   3.888
15872W        W88132  30.578  15.832  14.085
15873W        W88133   9.691  22.044  13.923
15874W        W88134  18.809   0.204   3.424
15875W        W88135   9.677  22.827  14.402
15876W        W88136  32.171   8.290   3.257
15877W        W88137  24.152   4.918   4.515
15878W        W88138  37.026  36.619   2.140
15879W        W88139   7.337  10.850  13.525
15880W        W88140  13.572   7.397   0.336
15881W        W88141  15.736  10.175   1.659
15882W        W88142  30.570  16.782  13.594
15883W        W88143  37.642  21.981   0.222
15884W        W88144   8.605  19.777   2.702
15885W        W88145  34.892   6.749  14.896
15886W        W88146  43.841  21.324   3.255
15887W        W88147  23.702  28.541   2.493
15888W        W88148   9.558  28.251  11.174
15889W        W88149  10.100  31.205  14.393
15890W        W88150  32.709  15.240  14.332
15891W        W88151   3.830   1.650   1.454
15892W        W88152  31.241  43.037   5.007
15893W        W88153  10.639  13.885  13.095
15894W        W88154  12.918  22.541  13.416
15895W        W88155  41.891  18.170  13.801
15896W        W88156  12.194  11.063   0.979
15897W        W88157  44.887  24.173  10.650
15898W        W88158  14.181   4.030  10.942
15899W        W88159   7.352  13.391   2.199
15900W        W88160  35.059  15.147  13.939
15901W        W88161  30.121  26.062   4.568
15902W        W88162  21.082   5.380  11.088
15903W        W88163  33.086  42.155  10.752
15904W        W88164  39.319  26.968  14.318
15905W        W88165  39.401  41.605   0.794
15906W        W88166  39.679  22.876   1.372
15907W        W88167  36.964  10.416  12.608
15908W        W88168  39.142  34.892   3.763
15909W        W88169   1.456  19.460  13.048
15910W        W88170  37.990  21.211   1.663
15911W        W88171  40.889  21.720  12.003
15912W        W88172  44.783  18.432   2.821
15913W        W88173   4.919   3.927   1.466
15914W        W88174   7.756  42.293   2.176
15915W        W88175  30.342  18.059  12.320
15916W        W88176   2.265  10.364  14.901
15917W        W88177  20.494  12.337   4.687
15918W        W88178  22.979  44.424  11.391
15919W        W88179  20.568  20.239   4.200
15920W        W88180  43.248  14.511   1.796
15921W        W88181  38.326  20.488   4.159
15922W        W88182  31.192  39.237   1.472
15923W        W88183  37.832  36.309   2.930
15924W        W88184   4.813  33.073   2.651
15925W        W88185  35.601  38.536  13.379
15926W        W88186   6.785  44.762   4.562
15927W        W88187   0.362  13.070  10.695
15928W        W88188  36.851  40.393  11.916
15929W        W88189  32.486  30.433  13.024
15930W        W88190  26.665  44.764   1.899
15931W        W88191  34.408  22.126   1.356
15932W        W88192  32.436  29.760   2.355
15933W        W88193  37.892  22.555  13.983
15934W        W88194   0.366   8.164   4.098
15935W        W88195  17.997  22.745   2.944
15936W        W88196   0.263  22.957   2.827
15937W        W88197  35.384   3.782   0.221
15938W        W88198  13.373  18.661   0.181
15939W        W88199  30.968  25.197  13.348
15940W        W88200  11.961  27.049  10.192
15941W        W88201   2.381  35.706  13.334
15942W        W88202  21.573  28.957   3.264
15943W        W88203  20.251  38.590  13.874
15944W        W88204  39.161  29.807   2.799
15945W        W88205   5.984  33.401  13.986
15946W        W88206   5.496   5.081   0.333
15947W        W88207   4.137  35.474  13.491
15948W        W88208   9.579  10.321   1.415
15949W        W88209  27.569   4.645  14.924
15950W        W88210  43.326  41.301   2.588
15951W        W88211  17.200  25.858   0.411
15952W        W88212  17.544  37.900  12.468
15953W        W88213  43.928   5.469  10.426
15954W        W88214  21.219  30.671  11.603
15955W        W88215  36.348  24.030  10.645
15956W        W88216  26.038  38.593   4.599
15957W        W88217  29.103  11.805  13.769
15958W        W88218   5.696  10.132   3.207
15959W        W88219  14.522  20.274   4.171
15960W        W88220   4.753   9.111  13.323
15961W        W88221   9.369  30.846  13.925
15962W        W88222  44.855  24.817  12.882
15963W        W88223   1.414  39.889  14.926
15964W        W88224   0.406  25.132  11.474
15965W        W88225  13.863  14.535   3.691
15966W        W88226  42.867   0.800  14.435
15967W        W88227  17.744  44.240   1.839
15968W        W88228  35.417  28.058   2.807
15969W        W88229  32.249  20.701  12.045
15970W        W88230  41.375  19.296   3.644
15971W        W88231   1.864   8.999   3.750
15972W        W88232  36.388  17.573   4.638
15973W        W88233   4.655  24.126   1.361
15974W        W88234  29.670  28.100  10.984
15975W        W88235  17.686   6.379  12.662
15976W        W88236  26.066  19.542   1.981
15977W        W88237  18.553  26.677  12.892
15978W        W88238  42.911  42.540   0.384
15979W        W88239  34.393   4.484   3.282
15980W        W88240   2.803  24.808  13.071
15981W        W88241  29.138  44.967   2.749
15982W        W88242  30.714  12.331   2.682
15983W        W88243  11.237  41.843  12.195
15984W        W88244  44.802  43.338  11.528
15985W        W88245  22.529   4.316   1.887
15986W        W88246  16.635  36.287  12.525
15987W        W88247  39.123  37.592  11.084
15988W        W88248  24.465  12.508  10.449
15989W        W88249  40.126  36.566  14.361
15990W        W88250   8.582  22.226  14.785
15991W        W88251  40.061  31.436   0.279
15992W        W88252  38.251  14.537  13.711
15993W        W88253  14.155  44.726  12.151
15994W        W88254   2.508  33.042   3.111
15995W        W88255  25.298   8.409  11.168
15996W        W88256   5.509  26.948   2.242
15997W        W88257  24.037  22.222   0.937
15998W        W88258  17.762  21.692  13.941
15999W        W88259  17.622  31.552  13.450
16000W        W88260  32.662  42.963   1.760
16001W        W88261   2.007   7.842  13.198
16002W        W88262   0.338  15.293  10.637
16003W        W88263   0.258  16.956   4.395
16004W        W88264   5.922   9.709   0.666
16005W        W88265  32.071  43.426   1.691
16006W        W88266  10.763   1.691   0.820
16007W        W88267  42.844  12.890  10.866
16008W        W88268  19.970   8.257   9.789
16009W        W88269  37.944  19.555  11.925
16010W        W88270   0.984  27.581   3.844
16011W        W88271  44.459  19.551   4.602
16012W        W88272  29.011  33.637  14.779
16013W        W88273  35.897   7.645  13.077
16014W        W88274  30.414   3.974   4.725
16015W        W88275  16.537  16.360   4.090
16016W        W88276  28.585  44.435   2.166
16017W        W88277  28.164  19.722  10.731
16018W        W88278  26.041   7.773   3.177
16019W        W88279  15.165  26.947  12.906
16020W        W88280  34.019   0.613  10.498
16021W        W88281  37.555  10.277  12.296
16022W        W88282  15.582  20.298  11.528
16023W        W88283  38.574  12.357  13.760
16024W        W88284  29.754   3.299   4.153
16025W        W88285  25.160   0.248  13.507
16026W        W88286  44.741   5.939   3.432
16027W        W88287  28.592  27.527   1.176
16028W        W88288  32.134  43.594  10.576
16029W        W88289  23.616  44.300  13.838
16030W        W88290  44.773  18.753   0.483
16031W        W88291   6.012   2.376   3.648
16032W        W88292  30.997   4.497  12.169
16033W        W88293   8.395  27.685   5.610
16034W        W88294  11.713  15.554  14.297
16035W        W88295   2.147   5.646  11.095
16036W        W88296  24.045  10.764  13.284
16037W        W88297  14.142  13.392  10.987
16038W        W88298  33.368  27.545   3.168
16039W        W88299   8.771  26.050   0.011
16040W        W88300  27.969   8.287  12.096
16041W        W88301   8.255  19.838   1.086
16042W        W88302  21.642  33.072   4.430
16043W        W88303  27.548  28.611  14.321
16044W        W88304  41.090  44.400  13.912
16045W        W88305   6.103  10.246   4.594
16046W        W88306  25.672  16.521  14.268
16047W        W88307  31.004  35.143   1.835
16048W        W88308  13.852  23.631  13.090
16049W        W88309  39.649   0.247   0.594
16050W        W88310   8.284  37.606  11.607
16051W        W88311  37.930  39.903   4.614
16052W        W88312  22.734  35.500   4.328
16053W        W88313  13.792   9.497  13.624
16054W        W88314  23.577  40.635  14.503
16055W        W88315  23.861  16.658  13.392
16056W        W88316  37.998  35.812   4.224
16057W        W88317  12.697   7.117  12.935
16058W        W88318   8.817  25.084   0.479
16059W        W88319  15.973   3.766   4.355
16060W        W88320  41.907  19.689   1.895
16061W        W88321  37.795  25.003  13.596
16062W        W88322  26.308  21.731   2.235
16063W        W88323  34.033  20.017  12.728
16064W        W88324  32.025  15.212   4.470
16065W        W88325  23.128  35.360  10.779
16066W        W88326  26.433   3.444   4.097
16067W        W88327  16.794  14.366   4.099
16068W        W88328   1.385  41.450  10.589
16069W        W88329  26.864  43.798  13.470
16070W        W88330   5.559   1.382  14.876
16071W        W88331  25.146   2.472  13.133
16072W        W88332  13.040  25.640  11.748
16073W        W88333  40.047  43.868  14.974
16074W        W88334  26.110  18.732  14.067
16075W        W88335   7.435  26.710   0.885
16076W        W88336   7.304  19.111  11.044
16077W        W88337  26.286  14.130   3.166
16078W        W88338  16.744  35.340  13.048
16079W        W88339   1.993  11.348   0.044
16080W        W88340  14.764  19.455   4.577
16081W        W88341  12.862  21.405   3.684
16082W        W88342  31.393  30.717   4.012
16083W        W88343  17.193  34.360   4.886
16084W        W88344  42.617   9.605   3.789
16085W        W88345   6.183  28.361   3.444
16086W        W88346  28.028  39.339  13.355
16087W        W88347  25.698  27.627   0.403
16088W        W88348  32.530   4.036  12.016
16089W        W88349  25.223  23.106   1.206
16090W        W88350   3.207   1.705  14.874
16091W        W88351  29.415  27.763   4.220
16092W        W88352  14.173  30.203   1.729
16093W        W88353  28.022  42.816  11.850
16094W        W88354  20.214  35.786  14.083
16095W        W88355  19.595  42.798   2.330
16096W        W88356   1.946   5.488  11.628
16097W        W88357  36.431  44.280   0.803
16098W        W88358  37.454  14.786  13.989
16099W        W88359  25.109  12.110  12.475
16100W        W88360  38.066   1.774   2.739
16101W        W88361   7.681  12.718   0.501
16102W        W88362   3.838   2.860   2.703
16103W        W88363  22.742  31.993  12.913
16104W        W88364  11.653   6.704  12.474
16105W        W88365  35.876  24.982  10.595
16106W        W88366  16.783  20.825  10.664
16107W        W88367  30.786  18.424   3.781
16108W        W88368  38.426  32.878   2.841
16109W        W88369   9.243  19.232  12.391
16110W        W88370  42.550  23.459  13.644
16111W        W88371   3.785  14.647  13.959
16112W        W88372  12.820  30.466  14.348
16113W        W88373  27.534  35.729   4.369
16114W        W88374  32.044  26.389  13.924
16115W        W88375  26.164  12.775   3.922
16116W        W88376   7.331  32.997  11.985
16117W        W88377   3.632  24.648  12.089
16118W        W88378  23.057  19.315   2.879
16119W        W88379  18.946  31.379  13.513
16120W        W88380   4.799  43.248   4.614
16121W        W88381  28.109  32.702  10.480
16122W        W88382  28.143  20.080   3.651
16123W        W88383  27.517  29.872  11.975
16124W        W88384  30.894  31.288   3.162
16125W        W88385  17.792  17.309   0.267
16126W        W88386  37.623   8.894   0.325
16127W        W88387  44.318  37.058   1.852
16128W        W88388  18.141  16.751   2.275
16129W        W88389  31.669  15.077  14.380
16130W        W88390   8.867  24.175   0.284
16131W        W88391  28.546  32.363  14.980
16132W        W88392  21.453  18.508  13.406
16133W        W88393  11.745  38.933   1.386
16134W        W88394   6.852   8.466   3.020
16135W        W88395  26.485  23.947  11.099
16136W        W88396   1.427  30.463  11.363
16137W        W88397  11.032  29.628  13.917
16138W        W88398  18.528  37.333  13.846
16139W        W88399  33.122  22.988   2.640
16140W        W88400  31.561  25.291   2.403
16141W        W88401   5.463  37.555   3.099
16142W        W88402  33.629  30.775   1.145
16143W        W88403  11.669  32.684  13.030
16144W        W88404  34.397   6.303   3.707
16145W        W88405  16.625  22.287  12.862
16146W        W88406  33.870   0.828  10.937
16147W        W88407  39.495   4.701  13.943
16148W        W88408  15.406  14.514   4.225
16149W        W88409   8.813  12.213   2.480
16150W        W88410  27.376  40.080   0.094
16151W        W88411   5.188  24.982   3.206
16152W        W88412  29.781   6.988   0.457
16153W        W88413  37.205  13.380   3.755
16154W        W88414  30.385   6.441   1.608
16155W        W88415   3.681  28.497  12.195
16156W        W88416  18.544  15.917   1.809
16157W        W88417  12.795  27.422   0.822
16158W        W88418  18.803  30.904  12.455
16159W        W88419   2.320  37.318  11.635
16160W        W88420  41.817  10.592  12.575
16161W        W88421  34.904  25.729  14.753
16162W        W88422  17.677  28.949   2.910
16163W        W88423  28.858  18.933   4.203
16164W        W88424  19.698  13.163  12.324
16165W        W88425  20.629  14.117  11.129
16166W        W88426   1.489  30.559  11.848
16167W        W88427  27.029   8.563  11.918
16168W        W88428  32.473  11.724   2.909
16169W        W88429  22.980   0.969  12.277
16170W        W88430   4.759  30.887  13.518
16171W        W88431  14.080   4.988  14.892
16172W        W88432  30.990  31.166   9.873
16173W        W88433  25.730   9.211   3.156
16174W        W88434  21.667   0.834  13.325
16175W        W88435   0.708  36.574  11.944
16176W        W88436   9.751  20.709   4.442
16177W        W88437  38.023   5.920  12.452
16178W        W88438  27.163   2.143  12.485
16179W        W88439   6.363  10.591  13.467
16180W        W88440  37.459  41.423  14.861
16181W        W88441  24.190   3.220  14.486
16182W        W88442   2.742  13.671  13.833
16183W        W88443  44.660  12.066  13.342
16184W        W88444  31.809  41.475   4.158
16185W        W88445  33.154  36.436  12.214
16186W        W88446  33.439  31.537  12.493
16187W        W88447  30.065  40.405   4.640
16188W        W88448   0.812  28.643   0.281
16189W        W88449   2.721  41.805  11.560
16190W        W88450  24.140  42.709   4.058
16191W        W88451  25.224  34.663   1.923
16192W        W88452  24.670  44.838   2.797
16193W        W88453  44.545   7.227   2.359
16194W        W88454  15.771  22.173   4.696
16195W        W88455  20.342  11.860  11.416
16196W        W88456   1.267  44.293   3.237
16197W        W88457  28.864  39.765  11.317
16198W        W88458  28.729  31.016  14.759
16199W        W88459  44.789  35.863  13.048
16200W        W88460  14.181  32.862  13.298
16201W        W88461   5.361  43.488  14.876
16202W        W88462  19.632   6.866  12.761
16203W        W88463  15.237  44.485  12.054
16204W        W88464  20.447  27.346   3.171
16205W        W88465  40.513  41.036   3.415
16206W        W88466  35.157  44.131   5.214
16207W        W88467  27.541  31.925   0.966
16208W        W88468   0.388   8.390   4.560
16209W        W88469   0.409  24.745   2.965
16210W        W88470  41.100   2.365  14.238
16211W        W88471  14.837   2.694  14.955
16212W        W88472   1.929  43.666   4.487
16213W        W88473  10.907  40.086   4.610
16214W        W88474  26.993  40.605   2.191
16215W        W88475   4.789  28.131  10.653
16216W        W88476  17.551  40.000   0.449
16217W        W88477  10.952   6.917  13.243
16218W        W88478   9.743  36.985  10.945
16219W        W88479  16.117  20.678  11.061
16220W        W88480  33.551   4.313  13.629
16221W        W88481  33.823  14.166  12.912
16222W        W88482  28.364  15.381  14.783
16223W        W88483  11.209   0.316   2.687
16224W        W88484  19.435  19.296  12.518
16225W        W88485  31.377  21.031   0.410
16226W        W88486   4.451  42.212   2.135
16227W        W88487  30.310  43.497   3.108
16228W        W88488   8.281  17.060   3.256
16229W        W88489  42.041  37.134  14.443
16230W        W88490  42.382  23.484  14.973
16231W        W88491  31.570  42.044  14.361
16232W        W88492  33.435  33.981   2.088
16233W        W88493  21.655  17.079   1.365
16234W        W88494  34.598  12.597   4.231
16235W        W88495  31.180  21.098   3.161
16236W        W88496  14.291  16.741  14.366
16237W        W88497  17.579   7.927  14.882
16238W        W88498  33.044  15.265   2.260
16239W        W88499   7.350   1.771   4.603
16240W        W88500  16.792   0.608   1.643
16241W        W88501  28.686  34.033   3.517
16242W        W88502  18.065  30.019  12.971
16243W        W88503  14.170  31.021   4.032
16244W        W88504  16.745  15.651   4.512
16245W        W88505  20.890  34.415   0.836
16246W        W88506  39.212  23.206   2.759
16247W        W88507  29.396   2.227   0.840
16248W        W88508  36.573  12.604   2.668
16249W        W88509  29.896  13.169   0.765
16250W        W88510  23.613  44.198   0.456
16251W        W88511  19.497  36.054   0.374
16252W        W88512  20.164  38.407   4.658
16253W        W88513  13.119  37.506  14.302
16254W        W88514  26.565  31.600  12.899
16255W        W88515   7.212  41.528  14.210
16256W        W88516   9.959   0.343   2.348
16257W        W88517   1.768  35.991   1.463
16258W        W88518  23.181  16.869   2.818
16259W        W88519  15.477   8.647   2.712
16260W        W88520  31.914  14.741  10.502
16261W        W88521  34.115  16.732   2.722
16262W        W88522  43.811  12.124  13.878
16263W        W88523  17.884  22.667  13.912
16264W        W88524  19.128   2.291   1.387
16265W        W88525  41.088  43.404   1.755
16266W        W88526  43.669   4.141  10.722
16267W        W88527  14.221  10.863  14.767
16268W        W88528  16.804  42.026  11.522
16269W        W88529  26.011  12.071  14.348
16270W        W88530   2.202  37.976  10.500
16271W        W88531  43.973   0.438   0.540
16272W        W88532  23.689  27.016  10.663
16273W        W88533  10.218   7.678   3.486
16274W        W88534   8.960  10.166  14.447
16275W        W88535  30.504   8.760   1.692
16276W        W88536   0.346  15.626   1.416
16277W        W88537  11.962  19.704  13.053
16278W        W88538   9.151  11.704   1.417
16279W        W88539  40.779  22.393  11.411
16280W        W88540  43.484  40.086   4.109
16281W        W88541   2.907   7.225  12.338
16282W        W88542   5.725  36.934  13.647
16283W        W88543   9.729  27.220  14.128
16284W        W88544   8.000  10.874   3.770
16285W        W88545  41.044  35.952  13.010
16286W        W88546  20.055  26.367  14.828
16287W        W88547   1.500  20.533  13.874
16288W        W88548  22.756  19.042   4.218
16289W        W88549  24.800  40.935  13.650
16290W        W88550  29.508  41.514   2.760
16291W        W88551  15.246   3.359  14.736
16292W        W88552  38.858   9.371  11.331
16293W        W88553  34.294  41.271  10.780
16294W        W88554  41.699  11.145   3.325
16295W        W88555  33.067  38.369  12.460
16296W        W88556  26.705  20.198  14.726
16297W        W88557   0.684   0.975   4.094
16298W        W88558   3.804  30.486  13.230
16299W        W88559   4.139  22.165  14.830
16300W        W88560  24.237  39.358  13.315
16301W        W88561  36.929  41.159  12.469
16302W        W88562  25.710  44.844   2.607
16303W        W88563  24.956  18.440   1.452
16304W        W88564  43.514   9.891  11.636
16305W        W88565  39.079  10.669  14.265
16306W        W88566   3.753  41.924   0.694
16307W        W88567  15.610  36.644  13.345
16308W        W88568  20.764  15.604   3.173
16309W        W88569  34.899   4.642   4.262
16310W        W88570   7.690  42.041   1.297
16311W        W88571   8.234  21.203   1.169
16312W        W88572  12.379  22.926  14.315
16313W        W88573  43.191  11.084  10.670
16314W        W88574  19.624  16.811  11.005
16315W        W88575  32.945  30.000   0.228
16316W        W88576  33.519  17.257   4.600
16317W        W88577   5.612  16.796  10.897
16318W        W88578   0.886   8.156   4.247
16319W        W88579   4.433  39.492  13.474
16320W        W88580  21.669  21.495  13.980
16321W        W88581  37.057  19.111  10.680
16322W        W88582  23.115   5.401  11.417
16323W        W88583  36.674  43.697  13.061
16324W        W88584  15.441  22.669   2.752
16325W        W88585  21.734  27.050  12.371
16326W        W88586  30.585  21.204   2.777
16327W        W88587  20.243   7.466   0.062
16328W        W88588  10.693  22.206  14.033
16329W        W88589  13.141   9.818   2.836
16330W        W88590  15.584  12.852  14.330
16331W        W88591   9.772  34.419  12.810
16332W        W88592  12.307  13.408   3.622
16333W        W88593   8.215  18.369   0.410
16334W        W88594  41.990  31.804  12.525
16335W        W88595  28.031  32.585   3.745
16336W        W88596  37.799  32.126   5.094
16337W        W88597  18.320  36.025  11.946
16338W        W88598   6.371   0.681   3.084
16339W        W88599  40.869   2.705  13.929
16340W        W88600  30.566  13.596  12.368
16341W        W88601  10.587  33.390  13.418
16342W        W88602   4.072   7.273   3.961
16343W        W88603   3.475  42.600   2.843
16344W        W88604  12.747  23.632   0.774
16345W        W88605  36.429  22.647   4.212
16346W        W88606  21.335  39.349  14.491
16347W        W88607  15.091  24.456   2.236
16348W        W88608  44.697  30.086   1.065
16349W        W88609  12.894  40.849  11.130
16350W        W88610   0.915  15.377  12.910
16351W        W88611  18.255   9.931   1.500
16352W        W88612  40.577  37.965   3.761
16353W        W88613  10.179  18.263   3.704
16354W        W88614  43.079  22.514  12.612
16355W        W88615  33.971   3.855  10.925
16356W        W88616   7.944  40.802   1.318
16357W        W88617  37.851  30.013   2.391
16358W        W88618  27.674   4.035   4.624
16359W        W88619  30.369  32.413   0.844
16360W        W88620  29.581  31.067   2.751
16361W        W88621  17.516  31.214  12.111
16362W        W88622  38.835  26.009  14.866
16363W        W88623  18.018  28.505  12.510
16364W        W88624  23.902  21.694  13.524
16365W        W88625  39.388  14.123  14.818
16366W        W88626  32.935  20.502  14.512
16367W        W88627  15.496  28.699   3.712
16368W        W88628   4.504  38.797  13.817
16369W        W88629   0.921  43.034  11.603
16370W        W88630  21.471  17.614   4.623
16371W        W88631  35.835   3.150   2.634
16372W        W88632  24.525  14.618   4.076
16373W        W88633   8.457  18.861   2.562
16374W        W88634   3.298  24.076  13.245
16375W        W88635  36.837  40.429   1.096
16376W        W88636  38.129  33.845   1.897
16377W        W88637  32.463  25.512  10.765
16378W        W88638  29.759  18.507   3.289
16379W        W88639   5.315   9.044   2.932
16380W        W88640   9.749  32.004  10.649
16381W        W88641  25.969   4.175   4.202
16382W        W88642  35.390  32.350   4.897
16383W        W88643  19.369   1.802   3.831
16384W        W88644  38.776   4.997  14.482
16385W        W88645  32.067  25.013   2.291
16386W        W88646  20.395  24.023  12.026
16387W        W88647   0.605  26.610  14.517
16388W        W88648  30.376   9.253  13.097
16389W        W88649   3.721  33.557   3.847
16390W        W88650  35.556   6.005   0.688
16391W        W88651  20.717  30.236  14.837
16392W        W88652  21.300  34.924  12.376
16393W        W88653  12.137  23.349  11.134
16394W        W88654   9.718  24.639   4.617
16395W        W88655  41.340  32.390   4.626
16396W        W88656  26.444  19.672  11.123
16397W        W88657  30.692   5.697   1.332
16398W        W88658   9.207  27.933  13.016
16399W        W88659   8.269  18.056  12.968
16400W        W88660  31.192  26.239  13.964
16401W        W88661  32.878  43.548  10.972
16402W        W88662  22.456   2.133   2.841
16403W        W88663  35.525  38.550   0.327
16404W        W88664   2.467  19.509  10.250
16405W        W88665  36.979  36.389  11.842
16406W        W88666  13.235   3.097   5.079
16407W        W88667  32.890  35.028  10.653
16408W        W88668  31.112  16.670  13.411
16409W        W88669  14.287  31.826  10.412
16410W        W88670  40.888  36.499  13.070
16411W        W88671  41.557  36.541  12.607
16412W        W88672  39.846   0.462  10.425
16413W        W88673  26.759  24.432  12.830
16414W        W88674  12.435  43.351   3.643
16415W        W88675  35.932  32.424  10.616
16416W        W88676  26.154  27.053   4.342
16417W        W88677  34.067  22.614   4.846
16418W        W88678  15.099  44.163   1.344
16419W        W88679  33.010  16.695   0.469
16420W        W88680  28.134  40.057   3.766
16421W        W88681  24.483  22.544  14.243
16422W        W88682  25.543  23.180   3.968
16423W        W88683  38.827  41.439   1.819
16424W        W88684  30.223  39.895   2.752
16425W        W88685   0.424  28.113   2.139
16426W        W88686  34.502  19.004   2.397
16427W        W88687  25.081  20.043  13.988
16428W        W88688  16.671  41.459   4.800
16429W        W88689  22.679  25.359   3.582
16430W        W88690  18.706  31.598  10.739
16431W        W88691  40.250  21.366  13.906
16432W        W88692  18.842   0.809  11.575
16433W        W88693  22.806  42.763  10.602
16434W        W88694  34.094  24.309  10.923
16435W        W88695  11.591   3.186  13.859
16436W        W88696  30.027   2.547  10.540
16437W        W88697   2.190   3.888  14.203
16438W        W88698  28.750  21.885   0.938
16439W        W88699   2.424   2.590   0.372
16440W        W88700  44.434   6.502   4.331
16441W        W88701  34.577  20.174  14.400
16442W        W88702  19.049  30.058  12.000
16443W        W88703  36.046  28.947  14.597
16444W        W88704  40.408   5.214   0.915
16445W        W88705  31.364  24.603   3.649
16446W        W88706  38.052  22.459  14.483
16447W        W88707  42.491   9.655  11.362
16448W        W88708  23.634   4.311  14.554
16449W        W88709   9.724  16.387  13.574
16450W        W88710  12.771  41.724  10.784
16451W        W88711   3.196  34.094   3.710
16452W        W88712  29.430  14.571  10.413
16453W        W88713  14.810  34.144  13.475
16454W        W88714  23.254  13.322   0.854
16455W        W88715   0.957  13.605  13.972
16456W        W88716  26.244  37.571   1.179
16457W        W88717  30.706  10.838   4.390
16458W        W88718  31.268  22.800   4.276
16459W        W88719   6.122  34.957  12.796
16460W        W88720  18.590  43.374  14.462
16461W        W88721  24.915  23.565   1.892
16462W        W88722   7.256   1.860   0.607
16463W        W88723  30.199  18.588   1.932
16464W        W88724  10.914  23.647  14.867
16465W        W88725  42.428  34.309  10.449
16466W        W88726  28.403  21.110  12.166
16467W        W88727  16.513  30.720   1.310
16468W        W88728  15.928  36.537   2.808
16469W        W88729   3.076  40.294   0.246
16470W        W88730   1.086  22.142   3.263
16471W        W88731  19.221  11.236   2.830
16472W        W88732  29.478  21.150   3.675
16473W        W88733  23.382   7.205   1.191
16474W        W88734   6.404  23.991   1.285
16475W        W88735  19.292   5.417   9.762
16476W        W88736   9.224  37.473   2.501
16477W        W88737  13.061  35.755  14.565
16478W        W88738   0.687  37.400  14.787
16479W        W88739  37.311  19.112   9.743
16480W        W88740  41.857  33.611  12.477
16481W        W88741   7.265  15.784   0.996
16482W        W88742   1.524  42.958   4.084
16483W        W88743  15.615  41.732   4.132
16484W        W88744  29.145  17.896   3.168
16485W        W88745  35.384  36.753  11.283
16486W        W88746  39.369  11.548  10.074
16487W        W88747  25.536  41.517  12.418
16488W        W88748   2.898  28.818   1.265
16489W        W88749   4.290   0.236   0.409
16490W        W88750   7.794  31.547  11.982
16491W        W88751  34.898  29.145   0.972
16492W        W88752   0.345  17.676   1.840
16493W        W88753  41.397   1.229   3.690
16494W        W88754  21.429  39.713  12.460
16495W        W88755  13.267  23.447  14.376
16496W        W88756   1.453   0.460  14.510
16497W        W88757  28.680  43.971   4.740
16498W        W88758   5.789   8.849  13.288
16499W        W88759  28.133  12.766   3.044
16500W        W88760  36.420  19.100  11.304
16501W        W88761   1.934   5.210  14.121
16502W        W88762   3.543  37.541  13.754
16503W        W88763  14.836  11.146   2.187
16504W        W88764  21.201  14.184   4.363
16505W        W88765   9.726   3.772   4.016
16506W        W88766   8.801  16.456   4.277
16507W        W88767  25.202  15.597   1.383
16508W        W88768  17.528  34.405   1.192
16509W        W88769  11.026  12.721  11.907
16510W        W88770  31.143   5.714  14.448
16511W        W88771  27.106  14.356  11.897
16512W        W88772   5.662  28.078   5.482
16513W        W88773  17.799   2.433   4.233
16514W        W88774  11.141  21.250  12.199
16515W        W88775  44.894  23.252  14.413
16516W        W88776   3.374  12.957  14.704
16517W        W88777  16.737  17.616  14.844
16518W        W88778  38.812   0.320   3.786
16519W        W88779  23.741   9.677   0.304
16520W        W88780  38.620  36.446   3.298
16521W        W88781  15.305  19.103  10.737
16522W        W88782  20.132  41.522   2.387
16523W        W88783  34.208  28.624  13.894
16524W        W88784   4.885  40.833   2.652
16525W        W88785  26.528  29.691  10.595
16526W        W88786  20.667  22.935   3.708
16527W        W88787   6.014   2.412  13.332
16528W        W88788  42.355  10.870  13.846
16529W        W88789  43.612  24.155   2.733
16530W        W88790  37.646  32.604  13.132
16531W        W88791  22.814  28.623  11.964
16532W        W88792  28.706  15.350  13.911
16533W        W88793  15.430   4.311   2.753
16534W        W88794  19.576  38.984  12.812
16535W        W88795  18.564  18.274   3.617
16536W        W88796  23.517  39.531   2.184
16537W        W88797  43.261  32.392   1.401
16538W        W88798  18.305  26.601   0.566
16539W        W88799  40.560  24.460   1.292
16540W        W88800  12.162  33.749  12.680
16541W        W88801   4.151   1.875   3.483
16542W        W88802  25.232  39.537   0.869
16543W        W88803  22.458  29.923   3.054
16544W        W88804  24.805  44.640   2.261
16545W        W88805   9.991  21.149  12.864
16546W        W88806  21.332  38.853  10.672
16547W        W88807   9.615  36.082  11.993
16548W        W88808  19.715   1.791   1.224
16549W        W88809  18.258  35.726  10.702
16550W        W88810  37.315  24.613   1.315
16551W        W88811  10.351   1.326  13.366
16552W        W88812   1.487  22.287   4.066
16553W        W88813  39.676  39.484  13.169
16554W        W88814   6.188  32.312  14.103
16555W        W88815  32.086  43.856   2.878
16556W        W88816  11.365  24.647  10.679
16557W        W88817  29.125   9.184  11.756
16558W        W88818  41.747  21.128   4.555
16559W        W88819   7.387  31.645   1.285
16560W        W88820  31.911  35.502  13.817
16561W        W88821  18.802  17.767  14.853
16562W        W88822  33.227  38.891   4.477
16563W        W88823  20.290  20.950   3.669
16564W        W88824  10.753   6.942   2.910
16565W        W88825  18.725  24.482   0.006
16566W        W88826  15.058  26.454  13.006
16567W        W88827  31.448  42.883  11.748
16568W        W88828   2.521   7.345  11.494
16569W        W88829  40.977  21.041   0.718
16570W        W88830  20.254  41.394   4.870
16571W        W88831  29.513  29.128  10.127
16572W        W88832   3.722  25.384  14.468
16573W        W88833   7.357  37.153  13.215
16574W        W88834  36.415  38.531  12.307
16575W        W88835  38.093  23.161  13.484
16576W        W88836   2.770  21.451   3.884
16577W        W88837   1.360  32.395  13.844
16578W        W88838  30.603   9.074  12.088
16579W        W88839  24.693  40.802   4.180
16580W        W88840  42.760   5.381  13.947
16581W        W88841  19.097  42.364   3.726
16582W        W88842  32.333  30.824   2.346
16583W        W88843  40.638  35.338  11.872
16584W        W88844  36.033  12.182  10.750
16585W        W88845  12.861   5.726  11.807
16586W        W88846   1.155   3.371  13.456
16587W        W88847  30.505   4.696   0.103
16588W        W88848  39.842  15.806   4.533
16589W        W88849  32.129  19.113   1.467
16590W        W88850   8.005  17.730   4.091
16591W        W88851   7.755  25.469   4.531
16592W        W88852  13.940  13.651  11.941
16593W        W88853  41.266   6.139   3.253
16594W        W88854   5.912   8.358  14.417
16595W        W88855  36.969   1.549  11.113
16596W        W88856   1.320   5.264   1.585
16597W        W88857  12.896  44.458  14.268
16598W        W88858  21.023  23.182  10.537
16599W        W88859  18.241  40.891   3.051
16600W        W88860   0.714  17.164   0.939
16601W        W88861   2.248   7.656  12.316
16602W        W88862   1.982  12.300  14.020
16603W        W88863  38.578   5.841   4.677
16604W        W88864  12.896  19.656  13.548
16605W        W88865  38.421  21.669  13.927
16606W        W88866  25.403  30.879  11.210
16607W        W88867  25.783  17.570   4.204
16608W        W88868  33.829  39.568   3.409
16609W        W88869   7.900   1.045   3.181
16610W        W88870  42.523  27.038  11.005
16611W        W88871  10.755  25.224   4.973
16612W        W88872   5.126   6.338  11.506
16613W        W88873  15.630   6.980  14.011
16614W        W88874  25.012  18.905  13.365
16615W        W88875   9.899  38.529  14.868
16616W        W88876  25.077  42.264   5.803
16617W        W88877  21.191  27.246   1.704
16618W        W88878  34.556  44.881  14.269
16619W        W88879  33.462  36.206   4.000
16620W        W88880   3.311  27.258  13.887
16621W        W88881  35.990   0.503  10.631
16622W        W88882  20.287  29.502   2.403
16623W        W88883  40.401  25.052  12.870
16624W        W88884   7.767  23.128   3.331
16625W        W88885  12.088  10.356  12.586
16626W        W88886   6.776  14.015   2.730
16627W        W88887  18.799   8.372   0.790
16628W        W88888  32.836  14.157   4.360
16629W        W88889  36.582   6.538  10.269
16630W        W88890  21.535  30.466  13.463
16631W        W88891  40.685  28.503  10.442
16632W        W88892  15.329  23.464  14.829
16633W        W88893  13.239   3.735   4.529
16634W        W88894  14.636  44.222   2.962
16635W        W88895  36.168   8.356   1.729
16636W        W88896  21.942  13.186   2.391
16637W        W88897  15.330  34.653  11.813
16638W        W88898  15.369  37.405  14.026
16639W        W88899   2.373  11.731  12.629
16640W        W88900  41.915  21.751   2.889
16641W        W88901  22.747  33.098  12.024
16642W        W88902  23.977  31.551   0.279
16643W        W88903  26.024  19.834   3.840
16644W        W88904  20.605  13.283   2.316
16645W        W88905  23.969  13.590   0.839
16646W        W88906  32.530   0.728  13.136
16647W        W88907  18.971  16.815  12.913
16648W        W88908  13.468   3.968   0.727
16649W        W88909  39.584  44.263   0.735
16650W        W88910  35.356  19.497   3.651
16651W        W88911   9.405   2.792  10.979
16652W        W88912   3.889  41.448  11.880
16653W        W88913  31.511  26.743   2.197
16654W        W88914  38.971  36.368  10.870
16655W        W88915  25.104  22.782  11.762
16656W        W88916   2.355  27.853   5.254
16657W        W88917  44.449   7.432  11.510
16658W        W88918  12.259  22.471  14.566
16659W        W88919   4.428   0.917  12.227
16660W        W88920  20.741  20.184   2.432
16661W        W88921  26.384  31.629   2.803
16662W        W88922   1.247  17.000   4.465
16663W        W88923   2.532  16.826  11.498
16664W        W88924  34.617  41.387   1.360
16665W        W88925  15.629  20.519   1.876
16666W        W88926  11.549  33.364   3.019
16667W        W88927  27.799   7.641   4.352
16668W        W88928   6.210   2.450  13.829
16669W        W88929  19.651   3.394   2.698
16670W        W88930  27.214  18.574   1.693
16671W        W88931  28.607  35.022  11.092
16672W        W88932  41.852   5.128  13.800
16673W        W88933  27.095   3.229   1.281
16674W        W88934  44.841  17.265  13.022
16675W        W88935  31.882  25.102   5.059
16676W        W88936  36.443  26.220   4.981
16677W        W88937  21.059  19.100   2.298
16678W        W88938  35.992   9.091   4.067
16679W        W88939  25.293  19.158   4.947
16680W        W88940  35.663  11.605  12.366
16681W        W88941  41.019  12.310   3.760
16682W        W88942  25.216  35.381   1.505
16683W        W88943  27.202   0.891  13.957
16684W        W88944  41.775   9.354   3.690
16685W        W88945  12.117  28.881   1.799
16686W        W88946  15.591   4.343  12.909
16687W        W88947  11.901  24.042   0.495
16688W        W88948   3.867  40.842   2.827
16689W        W88949   0.445  15.709   0.019
16690W        W88950  15.661  15.801  14.041
16691W        W88951  30.564  37.324  12.485
16692W        W88952   8.139   1.503  12.144
16693W        W88953   2.022  16.595  12.666
16694W        W88954  17.550  23.591  13.141
16695W        W88955  33.127  10.077  10.581
16696W        W88956  30.539   2.706   2.716
16697W        W88957  19.746   4.500  13.051
16698W        W88958  43.849  35.524  12.076
16699W        W88959  15.662  25.761   2.915
16700W        W88960  42.919  14.848   2.600
16701W        W88961  26.485  13.691  12.983
16702W        W88962  10.582  41.331  11.225
16703W        W88963  42.953   6.069   3.800
16704W        W88964  19.122  38.527   1.184
16705W        W88965   9.282  17.035  11.590
16706W        W88966  23.084  29.199  11.079
16707W        W88967  43.859  13.281   4.993
16708W        W88968  24.755  26.211   3.213
16709W        W88969  21.062  24.211  11.549
16710W        W88970  24.780  33.942  11.141
16711W        W88971  13.365  43.563  12.060
16712W        W88972  21.504  31.504   1.216
16713W        W88973   1.097  34.957  11.494
16714W        W88974  10.937  12.979   0.087
16715W        W88975  43.428  14.662   2.605
16716W        W88976  18.115   5.606  11.627
16717W        W88977  10.672  40.490  14.386
16718W        W88978  43.103  43.932  11.902
16719W        W88979  44.951  16.876   1.308
16720W        W88980  35.420  34.219  12.535
16721W        W88981  41.105  22.698  11.983
16722W        W88982  19.515  11.343   4.129
16723W        W88983  35.535   1.008   4.962
16724W        W88984  41.276  39.385  11.153
16725W        W88985   8.806  40.266  12.101
16726W        W88986  27.128   1.603   2.797
16727W        W88987  37.478   3.942   3.791
16728W        W88988  30.326   7.169  14.335
16729W        W88989   0.469  31.637  14.572
16730W        W88990  21.356   4.301  14.760
16731W        W88991  32.593   0.985  14.326
16732W        W88992  19.741  32.144   1.717
16733W        W88993   2.869  35.402  14.043
16734W        W88994  27.208  40.410  14.718
16735W        W88995  19.732  35.886   2.211
16736W        W88996  26.168   3.767   2.793
16737W        W88997  29.510   8.114   3.716
16738W        W88998  40.068  23.093   3.197
16739W        W88999  32.802  35.881  14.906
16740W        W89000   9.550  13.856  14.941
16741W        W89001  28.531  32.660   0.983
16742W        W89002   6.439  19.743   0.891
16743W        W89003  16.186  44.897   3.550
16744W        W89004   3.362  19.684   4.711
16745W        W89005  33.976  22.517  14.809
16746W        W89006  12.728  21.113   2.296
16747W        W89007  13.349  18.396  13.858
16748W        W89008   0.247  27.025  11.161
16749W        W89009  11.091   8.784   0.544
16750W        W89010  30.124   7.394  12.474
16751W        W89011  16.771  11.242  12.956
16752W        W89012  11.266   9.930   1.417
16753W        W89013  28.930  44.413   4.632
16754W        W89014  43.268  21.276   1.838
16755W        W89015  42.936  23.908  12.615
16756W        W89016   9.348   8.254   4.287
16757W        W89017  25.268  41.903   1.948
16758W        W89018   1.078  12.406  13.537
16759W        W89019  28.956   9.811  12.418
16760W        W89020  12.587  44.174   0.258
16761W        W89021  28.251  13.037   1.710
16762W        W89022   1.354   1.058   0.365
16763W        W89023  28.498  21.007  11.228
16764W        W89024  29.122  19.440  11.548
16765W        W89025   1.721  15.619   0.898
16766W        W89026   0.420   7.180   0.326
16767W        W89027  25.189   3.728  12.098
16768W        W89028  28.940  26.776  14.531
16769W        W89029  18.258  40.262   2.146
16770W        W89030   5.037  23.252   3.319
16771W        W89031  42.278  41.917   3.741
16772W        W89032  23.438  41.305  11.966
16773W        W89033   1.621  28.556  14.978
16774W        W89034  25.978  36.926   4.493
16775W        W89035  21.767  40.365   2.924
16776W        W89036  28.246   3.904   2.451
16777W        W89037  38.440   2.752   2.625
16778W        W89038  25.270  26.581  11.049
16779W        W89039  35.817  41.943  12.972
16780W        W89040  26.324   2.483   3.691
16781W        W89041   9.442   0.373   1.358
16782W        W89042  39.539  38.924  12.089
16783W        W89043   5.751  25.167   2.700
16784W        W89044  39.323   9.876  10.595
16785W        W89045  35.971   9.255   3.113
16786W        W89046  36.691  10.515  11.065
16787W        W89047  36.596  34.081   4.138
16788W        W89048  10.410  14.078   0.990
16789W        W89049   9.878  31.678  14.218
16790W        W89050  41.528  37.006  11.097
16791W        W89051  16.844  12.048  10.936
16792W        W89052  27.645   9.915   2.781
16793W        W89053   0.442  33.209   4.658
16794W        W89054  25.932  17.639   0.027
16795W        W89055   5.335  33.445   0.277
16796W        W89056  26.292  25.732   0.427
16797W        W89057   0.912  10.765  10.280
16798W        W89058  26.633  26.896   3.215
16799W        W89059  36.341  20.189   1.912
16800W        W89060   8.204  44.836  14.003
16801W        W89061  18.269  29.610  12.538
16802W        W89062  37.803   3.086  14.350
16803W        W89063  35.578   2.251  12.111
16804W        W89064  20.996  36.123   3.736
16805W        W89065  36.707  19.421  14.718
16806W        W89066   1.061   4.834  13.060
16807W        W89067  21.698  21.846   3.485
16808W        W89068  11.267  24.514   4.139
16809W        W89069  44.928   1.150  14.854
16810W        W89070  16.582   2.505  13.477
16811W        W89071  27.011  32.548  14.982
16812W        W89072  11.550  37.963   3.250
16813W        W89073   9.818  44.393   0.528
16814W        W89074   0.289  12.334   2.794
16815W        W89075   7.992  37.959   0.849
16816W        W89076   7.847   5.234  14.500
16817W        W89077  24.076  12.610  14.903
16818W        W89078  42.908  28.585   0.909
16819W        W89079   3.664  19.562  11.212
16820W        W89080  38.877  21.724   2.776
16821W        W89081   0.004  40.384  10.987
16822W        W89082  35.323  37.464  14.685
16823W        W89083  29.729   3.765   2.902
16824W        W89084  27.962  18.085   2.311
16825W        W89085  26.706  11.389   1.037
16826W        W89086  31.147   1.876   3.481
16827W        W89087  33.316  35.797  14.865
16828W        W89088  31.984   9.530  12.500
16829W        W89089   1.673  14.696  13.545
16830W        W89090  24.059  41.491   4.568
16831W        W89091  43.901  22.999  11.183
16832W        W89092  24.600  34.510  13.567
16833W        W89093  19.675  35.553  10.636
16834W        W89094  15.004   4.999   0.848
16835W        W89095  12.781   6.982   0.842
16836W        W89096  39.608  28.507   0.772
16837W        W89097  40.380  42.796  11.594
16838W        W89098  44.126  18.695   2.675
16839W        W89099  40.001  17.278   2.734
16840W        W89100   1.176  15.736   2.125
16841W        W89101  23.268  15.626  14.398
16842W        W89102  27.044  10.379  11.405
16843W        W89103  39.029   5.248  11.653
16844W        W89104  40.621  21.817   1.577
16845W        W89105   6.600  29.994   2.748
16846W        W89106   6.327  30.440   4.540
16847W        W89107   9.804  13.343  13.296
16848W        W89108  39.836   1.608   3.112
16849W        W89109  34.608   0.511   2.750
16850W        W89110  15.708  39.962  13.745
16851W        W89111  26.586  26.012   3.909
16852W        W89112  14.326  33.878   4.202
16853W        W89113  24.234   7.759  13.310
16854W        W89114  13.781  39.247  12.741
16855W        W89115  43.991  40.392  13.448
16856W        W89116  34.234   0.836  12.486
16857W        W89117  43.808  25.043  11.351
16858W        W89118  10.104  12.789   1.321
16859W        W89119   8.627  41.775   2.300
16860W        W89120  28.080  14.653   1.739
16861W        W89121  36.831  40.057  13.860
16862W        W89122  36.892  13.593   2.950
16863W        W89123  24.545  29.400   1.077
16864W        W89124  26.995  27.139  13.682
16865W        W89125   0.508   0.888  13.414
16866W        W89126  15.010  30.347   2.873
16867W        W89127  36.883  18.611   2.200
16868W        W89128  43.088  36.802  11.387
16869W        W89129  25.635  33.925  13.646
16870W        W89130   8.206  28.841  14.887
16871W        W89131   0.933  31.454  14.307
16872W        W89132  31.860   6.985   4.575
16873W        W89133  36.833  11.094  14.030
16874W        W89134  16.300  21.208   3.569
16875W        W89135  14.272   4.203  14.329
16876W        W89136  13.061  12.864   4.138
16877W        W89137  20.586  44.301  14.406
16878W        W89138  12.366  15.731  12.854
16879W        W89139   1.831  16.774  10.680
16880W        W89140  29.176  43.334  13.214
16881W        W89141   4.202   3.394  14.389
16882W        W89142  30.622  27.878   4.521
16883W        W89143   2.899  31.495   4.298
16884W        W89144  32.224  43.891   1.866
16885W        W89145  44.754  28.663  13.940
16886W        W89146   8.145  24.008  11.124
16887W        W89147  18.643  27.750  11.141
16888W        W89148  22.078   6.172  11.221
16889W        W89149  19.084  26.217  11.651
16890W        W89150   0.520  41.371  12.863
16891W        W89151   4.500  36.887  13.191
16892W        W89152   6.310  17.521   5.131
16893W        W89153   8.979  17.656   2.222
16894W        W89154  16.858   9.129   3.526
16895W        W89155  29.715   5.595  14.424
16896W        W89156  12.739  26.491   3.567
16897W        W89157  42.854  35.181   0.428
16898W        W89158  11.182   7.787  13.347
16899W        W89159  19.329  19.597  12.944
16900W        W89160  15.590  17.645   4.610
16901W        W89161  36.898  13.027  11.744
16902W        W89162  35.334  24.364  12.332
16903W        W89163  20.067  19.796  13.282
16904W        W89164   2.852  33.165  12.940
16905W        W89165  43.023  11.121   1.144
16906W        W89166  37.972  39.490  12.125
16907W        W89167  26.553  35.566  13.110
16908W        W89168  22.709  43.489  13.301
16909W        W89169  18.617  10.156  13.433
16910W        W89170  14.497  41.871  11.032
16911W        W89171  36.493  26.003   4.529
16912W        W89172  41.465  28.210   4.801
16913W        W89173   7.247   9.884  11.714
16914W        W89174  38.873  42.541  13.234
16915W        W89175   6.543   3.322  11.528
16916W        W89176  38.054  36.894  13.204
16917W        W89177   6.121  14.755   1.801
16918W        W89178  15.136  24.685   0.346
16919W        W89179  16.504  10.427  11.462
16920W        W89180  19.500  42.352  11.070
16921W        W89181  29.660  41.060  12.490
16922W        W89182  17.340  18.188   4.611
16923W        W89183   1.019   6.833   0.965
16924W        W89184  29.062   6.891  12.773
16925W        W89185  39.981  22.109   4.838
16926W        W89186  29.921  41.528  11.590
16927W        W89187  44.474  34.053   4.353
16928W        W89188  19.965   2.867  11.475
16929W        W89189   2.820  13.786   3.105
16930W        W89190  44.411  42.700  13.376
16931W        W89191   3.840  27.626  12.069
16932W        W89192  36.835   1.753  12.444
16933W        W89193  25.905  31.880   2.736
16934W        W89194  41.627  32.092  12.313
16935W        W89195  14.549  14.369   2.413
16936W        W89196  36.682  23.624  10.737
16937W        W89197  27.512  21.905  14.476
16938W        W89198  28.351  15.587   3.832
16939W        W89199  18.066  43.600   0.340
16940W        W89200   8.358  37.103  11.066
16941W        W89201  13.811   6.670   4.310
16942W        W89202   2.195  27.597   0.316
16943W        W89203  16.049  43.022   2.740
16944W        W89204  14.848  24.039  10.685
16945W        W89205  28.644  11.795   1.025
16946W        W89206  32.145   3.764   1.565
16947W        W89207   8.829  41.603  11.551
16948W        W89208  34.035  38.418  12.437
16949W        W89209   4.872  25.704   4.315
16950W        W89210   2.219  13.785  12.098
16951W        W89211  21.067   2.084  14.798
16952W        W89212  14.101  14.204   4.252
16953W        W89213  30.906  29.060  12.571
16954W        W89214   1.961  22.500   3.274
16955W        W89215  13.421   8.583  10.854
16956W        W89216  35.792  34.545  11.132
16957W        W89217   6.404  18.011   1.423
16958W        W89218  34.899   8.446  12.058
16959W        W89219  30.101  10.365  14.760
16960W        W89220  35.537   1.206  13.530
16961W        W89221  39.816  10.784   3.319
16962W        W89222  22.780  41.208  12.508
16963W        W89223  42.917  43.883   0.163
16964W        W89224  40.705  42.504  12.478
16965W        W89225  21.615  19.348   3.598
16966W        W89226   8.237  20.051   3.319
16967W        W89227   8.429  28.566  13.378
16968W        W89228  41.630  32.402   2.727
16969W        W89229  33.959  15.631   1.306
16970W        W89230  29.484  14.189   3.997
16971W        W89231  14.549  27.562   1.492
16972W        W89232  38.858  41.900   0.324
16973W        W89233  12.581  27.618  14.332
16974W        W89234  30.141  24.227   4.219
16975W        W89235   5.667  23.215  10.481
16976W        W89236   2.026  11.614  11.847
16977W        W89237  44.558  36.006   3.244
16978W        W89238  13.766  29.501  11.489
16979W        W89239  28.019  10.614  12.690
16980W        W89240  11.911  18.783  12.817
16981W        W89241  29.263   2.867   1.807
16982W        W89242  43.867  18.661  14.355
16983W        W89243   4.015  17.216  11.072
16984W        W89244  19.465  43.879   4.654
16985W        W89245   2.280  40.321  11.078
16986W        W89246  21.083  40.263   3.584
16987W        W89247   3.518  26.629  14.863
16988W        W89248   2.309  17.729  11.391
16989W        W89249  24.086  19.591   0.042
16990W        W89250  28.163  12.209  11.591
16991W        W89251  30.666   5.326   3.233
16992W        W89252   9.611   0.689  14.005
16993W        W89253  38.159   8.909  12.487
16994W        W89254   4.175  41.772   3.806
16995W        W89255  29.541   0.297   0.909
16996W        W89256  17.022   6.335  12.049
16997W        W89257  33.148  11.748  14.449
16998W        W89258   5.164  35.629  13.435
16999W        W89259  15.772  31.733   3.502
17000W        W89260  42.229  23.046   2.761
17001W        W89261  40.932   2.339   0.971
17002W        W89262  44.249   2.993  14.454
17003W        W89263  44.802   5.731   1.217
17004W        W89264  38.593  30.030  11.995
17005W        W89265   0.556  44.044  13.609
17006W        W89266   0.711  18.146  13.581
17007W        W89267  11.147  44.488   4.684
17008W        W89268  26.745   6.874   4.648
17009W        W89269  39.011  24.297   3.781
17010W        W89270   2.673   3.891  14.062
17011W        W89271  24.507  39.475  11.071
17012W        W89272   9.188  27.722   2.686
17013W        W89273  35.399   6.169   2.718
17014W        W89274  13.881  43.241  11.126
17015W        W89275  29.972  12.471  11.239
17016W        W89276  24.893  39.473  10.702
17017W        W89277   4.969  37.545  13.825
17018W        W89278   4.321   8.240  12.493
17019W        W89279  38.460   8.262  13.605
17020W        W89280  36.558   9.466   0.919
17021W        W89281  15.018   1.898  14.827
17022W        W89282  25.561  14.783  12.849
17023W        W89283  26.953  22.161  14.830
17024W        W89284  35.955   8.773   1.915
17025W        W89285  32.012   3.960   3.420
17026W        W89286  39.544   9.805   1.903
17027W        W89287  41.837  19.784  11.104
17028W        W89288  33.119  32.497   4.578
17029W        W89289   8.328   0.920  10.651
17030W        W89290  37.393  24.460   2.337
17031W        W89291  19.177  32.952  14.912
17032W        W89292  22.645   5.201  12.859
17033W        W89293  26.148  44.235   2.410
17034W        W89294  22.690  44.470  11.886
17035W        W89295   0.000  16.663   3.263
17036W        W89296  17.463  12.323  11.538
17037W        W89297  27.677  18.239   0.468
17038W        W89298  38.722  25.570  12.608
17039W        W89299  37.325  30.665   0.942
17040W        W89300  10.742  32.093   3.834
17041W        W89301  38.362   4.982   2.144
17042W        W89302  40.738  21.900  11.552
17043W        W89303  16.517  34.086   4.443
17044W        W89304  13.279  12.251   2.630
17045W        W89305  23.395  22.743  10.621
17046W        W89306  42.552   3.922   1.293
17047W        W89307  44.495  40.598   1.893
17048W        W89308  39.388   6.804  11.630
17049W        W89309  39.434  30.398   2.193
17050W        W89310  42.521   7.346   4.082
17051W        W89311  19.229  14.220  13.362
17052W        W89312  17.694   8.966  14.828
17053W        W89313   2.301  37.001  13.606
17054W        W89314  11.150  36.414   0.925
17055W        W89315  41.566  21.075  13.605
17056W        W89316  13.923  13.551  14.336
17057W        W89317  33.471  18.768  10.153
17058W        W89318  17.241  17.748  14.697
17059W        W89319  38.806  29.995  13.749
17060W        W89320   9.420  19.400   1.306
17061W        W89321  27.550   6.955   3.054
17062W        W89322  13.799  21.493  13.431
17063W        W89323  32.360  34.430  11.128
17064W        W89324  27.103  40.257   3.066
17065W        W89325  42.254  28.781   0.198
17066W        W89326  43.581  13.288  13.585
17067W        W89327  25.154  33.719   3.451
17068W        W89328   6.470   5.880   1.828
17069W        W89329  15.987  15.791  12.115
17070W        W89330   4.011  31.080  11.684
17071W        W89331  33.080  16.842   3.709
17072W        W89332  13.525   5.824  11.058
17073W        W89333   3.572  17.305   1.429
17074W        W89334  22.049  42.784   3.859
17075W        W89335  31.028   6.485  14.991
17076W        W89336  33.646  44.979   1.765
17077W        W89337  17.797  12.285  13.809
17078W        W89338  37.461  41.013  11.171
17079W        W89339  33.726  15.083  14.268
17080W        W89340  21.413   5.385  11.492
17081W        W89341  17.676  43.702   1.764
17082W        W89342  27.066  25.614   1.423
17083W        W89343  41.104  40.489  11.499
17084W        W89344  24.659  16.193   2.475
17085W        W89345  37.501  33.589   3.112
17086W        W89346   1.550  11.677  11.702
17087W        W89347  18.604  17.744   3.623
17088W        W89348  33.349  34.381  11.963
17089W        W89349  24.404  33.417  14.331
17090W        W89350  14.418   7.289   3.157
17091W        W89351   4.731  43.523  13.948
17092W        W89352  31.329  10.172  13.862
17093W        W89353  28.529  14.499   2.902
17094W        W89354  12.776  31.600   2.017
17095W        W89355  18.832  16.702   0.371
17096W        W89356   5.478  33.483  13.994
17097W        W89357   3.832   8.322  12.291
17098W        W89358  39.311  30.463   1.240
17099W        W89359  15.874   1.230  11.979
17100W        W89360  30.108  23.569  10.583
17101W        W89361   5.423  34.136  13.423
17102W        W89362  12.938  32.452  12.558
17103W        W89363  21.123  20.399   2.684
17104W        W89364  27.013  43.763  14.658
17105W        W89365  24.495  24.196  12.977
17106W        W89366  19.617  42.516   3.406
17107W        W89367  27.346  44.006  11.521
17108W        W89368  31.055  11.847   1.818
17109W        W89369  44.354  12.575  10.454
17110W        W89370  38.897  10.641  14.777
17111W        W89371  31.230  11.919   1.341
17112W        W89372  13.839  44.274  14.366
17113W        W89373  43.555   1.266   0.444
17114W        W89374  42.486  17.325   3.813
17115W        W89375  19.674  41.886  12.463
17116W        W89376  36.425  17.579   0.764
17117W        W89377  40.426  14.369  14.488
17118W        W89378  27.976   2.969   4.932
17119W        W89379  30.589  32.050   9.766
17120W        W89380  10.614  14.073  13.906
17121W        W89381  12.827  18.674  10.741
17122W        W89382  10.315  24.833   3.973
17123W        W89383   5.679  42.287  13.520
17124W        W89384  24.336  42.764  11.136
17125W        W89385  30.093  36.261  14.953
17126W        W89386  21.605  40.668   4.222
17127W        W89387  24.677  10.614   1.229
17128W        W89388  33.481   5.208  11.581
17129W        W89389  14.123  11.781   0.204
17130W        W89390  41.029  13.067   0.611
17131W        W89391  31.836  26.140  12.497
17132W        W89392  17.198  27.218  14.056
17133W        W89393  23.236  33.097   4.705
17134W        W89394  27.259  34.146  11.249
17135W        W89395   6.801  32.152   3.565
17136W        W89396  35.069  43.302  12.555
17137W        W89397  34.471  21.467  14.990
17138W        W89398  30.937  35.205  12.966
17139W        W89399  42.330  18.167   4.375
17140W        W89400  37.451   7.328   2.752
17141W        W89401   7.338  12.084   1.841
17142W        W89402  23.769   2.221  11.124
17143W        W89403   5.409   0.027  11.024
17144W        W89404   9.271  43.735   3.358
17145W        W89405  19.730  15.845  11.984
17146W        W89406   2.009  24.080   2.509
17147W        W89407   1.212  21.709   0.822
17148W        W89408   9.718  33.004  13.104
17149W        W89409  33.393   8.850  13.625
17150W        W89410   4.448  42.849   2.696
17151W        W89411  44.325  25.223  14.458
17152W        W89412  22.252   3.731  11.237
17153W        W89413  39.796  24.129   0.230
17154W        W89414  42.463  35.286  13.793
17155W        W89415  31.867   2.260  12.080
17156W        W89416  11.071  25.255  12.384
17157W        W89417  34.051  43.299  12.453
17158W        W89418  35.486  44.531   0.912
17159W        W89419  17.626  22.955   0.384
17160W        W89420  24.506   2.945  13.393
17161W        W89421   4.926  20.577  10.846
17162W        W89422  17.171   1.814   2.231
17163W        W89423  29.923  40.074   1.233
17164W        W89424   2.225  18.829   4.830
17165W        W89425  36.840  26.097  13.118
17166W        W89426  29.424  42.625   4.484
17167W        W89427   5.462  40.390   2.154
17168W        W89428  35.607   0.326   3.192
17169W        W89429   6.479  44.432  10.387
17170W        W89430  42.292  30.662   2.256
17171W        W89431  41.490  33.395  14.835
17172W        W89432   7.242  13.093   0.827
17173W        W89433  15.856  10.839  12.220
17174W        W89434  10.193  20.450  11.642
17175W        W89435  37.401  39.143   3.878
17176W        W89436   8.883  33.894   3.194
17177W        W89437  29.773  31.932  12.489
17178W        W89438   3.039  13.264   2.249
17179W        W89439  22.281  27.949   4.258
17180W        W89440  15.607  11.170   1.412
17181W        W89441   4.151  21.656   3.179
17182W        W89442   8.262   2.247   2.840
17183W        W89443  29.505  38.752  10.414
17184W        W89444  24.762  15.908   1.505
17185W        W89445  31.687  31.985  12.559
17186W        W89446  31.448   4.628   3.337
17187W        W89447  40.412  30.919  10.926
17188W        W89448  26.533  22.707   2.224
17189W        W89449   2.410  35.170   0.264
17190W        W89450  39.308  43.813   2.768
17191W        W89451  38.844  15.404   2.439
17192W        W89452  24.892  26.055   3.741
17193W        W89453  32.530   5.213  10.454
17194W        W89454  40.245   3.818  11.672
17195W        W89455   9.739  16.786   4.739
17196W        W89456  10.872  21.602   4.964
17197W        W89457   5.447  32.139   4.655
17198W        W89458  36.708  12.181  14.096
17199W        W89459  19.099   1.463   3.544
17200W        W89460  14.714  36.911  12.145
17201W        W89461   0.392  14.364   0.179
17202W        W89462  26.617   0.906   4.749
17203W        W89463  29.299  40.538  12.793
17204W        W89464  25.441  19.519  11.928
17205W        W89465  27.094  37.536   4.215
17206W        W89466  26.711  36.052  13.081
17207W        W89467   7.833  40.339   4.606
17208W        W89468  14.366  25.687  11.064
17209W        W89469  32.622  32.608  13.347
17210W        W89470  32.966  16.193  14.311
17211W        W89471   2.767  38.399  11.579
17212W        W89472  38.882  21.323  12.040
17213W        W89473  35.858  12.316   1.305
17214W        W89474   1.371  22.997  14.083
17215W        W89475   6.308   4.211  10.762
17216W        W89476  22.024  26.514   3.090
17217W        W89477  15.783  13.712  13.847
17218W        W89478  31.442  20.102   2.845
17219W        W89479   4.924  21.278  13.489
17220W        W89480  19.468  37.857   3.276
17221W        W89481   1.784  38.453  11.853
17222W        W89482  11.152  17.135   2.332
17223W        W89483  29.669   6.825   3.116
17224W        W89484  26.442  40.285  12.841
17225W        W89485  13.109  35.305   1.453
17226W        W89486  26.672  22.254   3.071
17227W        W89487   7.460  13.912   4.316
17228W        W89488   3.654   8.908   0.732
17229W        W89489  15.117   2.303  14.522
17230W        W89490  15.345  11.415   0.414
17231W        W89491  15.152  44.769  10.745
17232W        W89492   5.964   1.471   3.587
17233W        W89493   6.812  31.175  11.203
17234W        W89494  41.194   4.316  13.417
17235W        W89495  29.507   6.624  11.680
17236W        W89496  10.292   8.102   4.234
17237W        W89497  21.069  20.790   0.904
17238W        W89498  24.179  36.236   3.696
17239W        W89499  34.852  28.636  13.046
17240W        W89500  38.327   3.966   4.186
17241W        W89501  32.080  31.524  11.824
17242W        W89502  25.466  34.086   3.261
17243W        W89503  18.286  11.097  12.903
17244W        W89504  28.466  26.644  12.937
17245W        W89505  27.923  43.759   2.296
17246W        W89506  44.984  42.689   2.432
17247W        W89507  41.381  29.204  14.011
17248W        W89508  40.355  32.605   2.151
17249W        W89509  25.875  36.175  12.523
17250W        W89510   7.123  36.936   4.145
17251W        W89511  28.054  31.158   4.593
17252W        W89512  27.705  30.096   4.275
17253W        W89513  23.695  15.342  11.458
17254W        W89514  39.053   3.206  11.079
17255W        W89515  25.513  16.290  12.932
17256W        W89516  39.096   2.412  12.497
17257W        W89517  19.760   3.486   0.714
17258W        W89518  13.218  41.159   1.401
17259W        W89519  38.805  41.273  11.096
17260W        W89520  42.662  13.722  11.409
17261W        W89521  32.175  25.125  12.060
17262W        W89522  33.976   9.601   4.263
17263W        W89523   3.745  26.911   1.815
17264W        W89524  28.574   3.774   0.303
17265W        W89525   5.747  43.323  14.172
17266W        W89526  31.887  44.326  12.471
17267W        W89527  18.282  15.789   3.732
17268W        W89528  33.486  20.168  13.346
17269W        W89529  33.390  34.505  14.283
17270W        W89530  11.687  30.640  12.368
17271W        W89531   8.693  15.920   4.171
17272W        W89532  41.302  28.662  13.786
17273W        W89533  39.550  37.439   0.387
17274W        W89534  25.202  26.733   1.367
17275W        W89535  35.717  21.362   4.883
17276W        W89536  25.022  41.283   1.512
17277W        W89537  19.918  30.608   0.885
17278W        W89538   1.213  18.589   1.117
17279W        W89539   2.818  33.635   2.126
17280W        W89540   3.319  29.480  13.520
17281W        W89541  42.990   6.187   1.320
17282W        W89542   1.478  20.230  13.469
17283W        W89543   9.130   4.911  13.154
17284W        W89544  17.239  33.218  13.032
17285W        W89545  35.885  20.080  13.137
17286W        W89546   0.864   2.289  12.458
17287W        W89547  38.551  22.941   4.093
17288W        W89548  28.869  29.960   3.082
17289W        W89549  41.387  20.177  11.217
17290W        W89550  41.842  42.328  11.422
17291W        W89551   1.762  15.087   0.903
17292W        W89552  14.570  42.283  13.839
17293W        W89553  19.760  14.312  13.145
17294W        W89554  36.338  14.951   3.302
17295W        W89555  36.421  10.646  10.644
17296W        W89556   3.750  26.495  13.799
17297W        W89557  31.534   0.790   3.343
17298W        W89558  21.723  30.230  11.968
17299W        W89559   4.940  33.173  12.454
17300W        W89560  12.729  27.617   2.592
17301W        W89561  10.339   8.944  13.735
17302W        W89562  22.963  25.122  12.122
17303W        W89563  26.543   8.885   4.204
17304W        W89564  13.680  23.027   2.624
17305W        W89565   9.974  10.047   2.725
17306W        W89566  18.161  28.552   3.642
17307W        W89567  19.393  16.795  13.192
17308W        W89568   0.836  10.272   4.882
17309W        W89569  39.933  28.019  12.193
17310W        W89570  20.033  19.420   5.463
17311W        W89571   8.355   9.711   4.274
17312W        W89572   4.701  34.958   1.173
17313W        W89573   6.333  17.510  10.052
17314W        W89574   5.851  33.234   1.842
17315W        W89575  17.842   4.867   3.353
17316W        W89576  23.465  34.856   0.407
17317W        W89577  13.190  26.676   3.377
17318W        W89578  16.809  25.515   2.263
17319W        W89579  34.574  44.361  11.095
17320W        W89580  26.940  13.759  13.276
17321W        W89581  33.916  37.786  10.748
17322W        W89582  27.204  19.240  13.320
17323W        W89583   6.859  41.706   1.767
17324W        W89584   8.712  39.520   4.667
17325W        W89585  15.867  16.703  11.359
17326W        W89586  35.744  13.868   4.853
17327W        W89587  12.225  12.908   3.737
17328W        W89588  41.249   5.488  12.944
17329W        W89589  27.458  22.334   4.842
17330W        W89590  37.889  16.219   4.602
17331W        W89591  44.265  29.402   4.980
17332W        W89592   4.013  17.552  10.675
17333W        W89593  33.619  27.513   2.712
17334W        W89594   3.740  22.182  11.974
17335W        W89595  22.959  30.023  13.320
17336W        W89596  28.522  37.995   0.527
17337W        W89597  41.145  33.900   3.674
17338W        W89598  37.456  36.082   1.521
17339W        W89599  11.658  20.538   4.281
17340W        W89600  27.769  30.428   0.846
17341W        W89601  15.011  20.453  13.826
17342W        W89602  24.658  26.458  10.151
17343W        W89603  35.180  30.435  12.196
17344W        W89604  44.857  29.364   2.809
17345W        W89605  38.219  38.735   3.378
17346W        W89606   6.512  38.322  14.037
17347W        W89607  16.339  29.270   4.121
17348W        W89608   3.711  38.567  12.989
17349W        W89609   7.788  39.134  10.762
17350W        W89610   3.943  21.823   0.154
17351W        W89611  29.121  41.423  11.183
17352W        W89612  32.956  10.406   1.953
17353W        W89613   5.326   5.524   4.726
17354W        W89614   9.325  37.881  14.276
17355W        W89615  24.273  42.094   2.393
17356W        W89616  12.029  38.156   3.283
17357W        W89617  30.606  35.770  14.287
17358W        W89618   6.467  14.777  12.558
17359W        W89619  27.263  17.446  11.037
17360W        W89620   3.237   0.388  12.926
17361W        W89621   2.217  33.499  12.067
17362W        W89622  32.573   7.888  13.291
17363W        W89623   1.587  29.804   1.171
17364W        W89624   2.836  14.339   0.293
17365W        W89625  14.039  19.310  12.539
17366W        W89626  33.001  12.424   3.052
17367W        W89627  17.572  19.110   3.314
17368W        W89628   0.007  32.408   0.686
17369W        W89629  38.110   7.933  10.351
17370W        W89630   6.961  22.928   4.899
17371W        W89631   6.843  32.565   2.355
17372W        W89632  21.539  44.823   1.906
17373W        W89633  23.847   6.223  10.791
17374W        W89634  29.615   6.953  11.167
17375W        W89635  11.302   2.478   0.746
17376W        W89636   3.853   2.349   2.641
17377W        W89637   9.241  10.678  13.683
17378W        W89638  32.682   4.293  12.863
17379W        W89639  34.563  42.224   2.172
17380W        W89640  24.162  18.561   4.219
17381W        W89641   2.644   3.901  11.995
17382W        W89642  41.086   4.873   1.308
17383W        W89643  22.856   3.795  12.509
17384W        W89644   2.377   2.914  14.945
17385W        W89645  21.614  10.971   2.228
17386W        W89646  16.000  16.610  10.827
17387W        W89647  11.197  35.746   3.261
17388W        W89648  27.686  10.679   1.707
17389W        W89649   6.280   8.731  12.451
17390W        W89650  34.968  18.716  13.059
17391W        W89651   2.803   0.605   3.670
17392W        W89652   3.865  16.188   3.284
17393W        W89653   9.506   0.138   3.142
17394W        W89654  14.888  40.288   4.140
17395W        W89655  12.971  36.899  11.526
17396W        W89656  36.061  33.094   0.307
17397W        W89657  38.941  43.036   4.756
17398W        W89658  26.241   4.600  13.904
17399W        W89659   5.875  15.153  11.944
17400W        W89660  13.643   6.247  10.250
17401W        W89661  14.322  21.259   1.955
17402W        W89662  27.553   0.326   2.840
17403W        W89663  22.823  16.001   4.219
17404W        W89664  13.319   2.024   2.185
17405W        W89665   3.324  32.363   0.808
17406W        W89666  17.355  33.519   1.784
17407W        W89667  39.899  35.539   3.496
17408W        W89668   5.885   9.439   1.645
17409W        W89669  32.892  26.338   2.361
17410W        W89670  30.904  14.190  11.454
17411W        W89671  10.098  39.280   0.468
17412W        W89672  38.869  39.530   4.033
17413W        W89673  13.363  41.892   3.675
17414W        W89674  29.027   6.673   1.269
17415W        W89675   0.784  43.386  12.590
17416W        W89676  29.093  41.242  12.005
17417W        W89677   8.263   0.539  13.055
17418W        W89678   0.859  12.876   0.740
17419W        W89679  15.529   3.698  11.649
17420W        W89680  34.319   9.744  14.333
17421W        W89681  29.634  24.738  13.845
17422W        W89682  32.476  18.961   3.324
17423W        W89683   2.826   2.268  12.916
17424W        W89684  17.864  32.115  14.811
17425W        W89685  12.814   8.929  11.538
17426W        W89686  42.830  15.167  11.389
17427W        W89687   1.385  19.364   4.480
17428W        W89688  34.132  34.349   2.317
17429W        W89689  31.035  38.586  10.854
17430W        W89690   6.455  35.339  13.007
17431W        W89691  18.209  22.141   4.534
17432W        W89692  26.502  17.074  13.534
17433W        W89693  27.687  41.846   4.230
17434W        W89694   7.717  24.681  10.516
17435W        W89695  34.860   3.859   4.964
17436W        W89696  39.427  20.986  14.770
17437W        W89697  25.185  28.082  11.526
17438W        W89698  17.627  25.711  12.320
17439W        W89699   5.658  24.682   3.238
17440W        W89700  26.452  20.277   2.678
17441W        W89701  22.560  34.268  12.446
17442W        W89702  18.095  15.042  12.325
17443W        W89703  29.526   5.766  10.546
17444W        W89704  24.180  13.124  12.540
17445W        W89705  43.755  34.530   3.677
17446W        W89706  29.910  39.377   1.431
17447W        W89707  43.603  35.692   2.512
17448W        W89708  37.862  38.248  12.169
17449W        W89709  38.965  39.387   0.211
17450W        W89710   8.407  41.968  14.654
17451W        W89711  24.485  39.577  13.819
17452W        W89712  13.666   7.309   3.673
17453W        W89713  31.658  21.309   4.175
17454W        W89714  15.249   2.936   2.993
17455W        W89715  24.241  32.861   0.511
17456W        W89716  10.403  21.499  13.586
17457W        W89717   0.480   0.671  13.874
17458W        W89718   5.307   6.772  14.813
17459W        W89719  37.971   8.301  13.466
17460W        W89720   9.651  35.670  14.901
17461W        W89721   1.362  36.851  11.759
17462W        W89722  30.382  39.503  14.343
17463W        W89723  33.523  10.415   4.109
17464W        W89724  12.851  42.771  14.005
17465W        W89725  26.739  26.934  11.963
17466W        W89726  13.092   2.733  14.441
17467W        W89727  15.338  25.671   4.219
17468W        W89728   0.718  11.288  10.960
17469W        W89729  19.158   4.291   1.856
17470W        W89730  30.190  15.128   2.376
17471W        W89731   8.607  15.167  10.743
17472W        W89732  16.081  38.241  11.497
17473W        W89733  29.136  29.872   0.815
17474W        W89734  20.076  16.533   9.962
17475W        W89735  14.656  18.274  11.414
17476W        W89736  23.177  27.198   2.342
17477W        W89737  21.618  19.282  12.966
17478W        W89738  19.506  11.813  11.129
17479W        W89739  29.377  15.125   2.862
17480W        W89740  38.220  10.995  14.035
17481W        W89741  31.451   0.413  13.014
17482W        W89742  27.142   8.353   0.974
17483W        W89743  13.030  23.489   2.161
17484W        W89744  31.808  20.692  13.315
17485W        W89745  40.148   2.263   1.412
17486W        W89746  20.996   9.232  13.863
17487W        W89747   7.269  11.206  11.975
17488W        W89748  11.369  17.074   4.282
17489W        W89749   9.939  14.601  11.949
17490W        W89750  15.914   5.905  14.716
17491W        W89751  22.923   2.225   2.474
17492W        W89752  42.204  35.810   2.250
17493W        W89753  11.802  37.179   1.009
17494W        W89754   7.405  42.262  12.883
17495W        W89755  22.624  27.152   2.810
17496W        W89756   4.115  17.780   3.723
17497W        W89757   7.727  20.729   1.286
17498W        W89758  43.240  40.840   1.902
17499W        W89759  44.060  19.520  11.211
17500W        W89760  37.612  30.273  13.257
17501W        W89761  12.645   4.719   4.698
17502W        W89762  31.400   9.633   2.229
17503W        W89763  19.129  23.980  12.469
17504W        W89764  38.300  44.600  12.635
17505W        W89765  25.312  26.056   1.618
17506W        W89766  37.888  36.446   1.710
17507W        W89767  32.341  24.542   0.038
17508W        W89768   7.528  37.237   4.071
17509W        W89769  33.584  27.249  12.505
17510W        W89770  34.583   9.117   4.114
17511W        W89771  13.573  30.635  12.671
17512W        W89772  44.291   0.621   1.508
17513W        W89773  35.344   2.685  11.151
17514W        W89774  18.608  15.548  12.920
17515W        W89775   6.321  22.616  10.646
17516W        W89776  10.290  36.014   1.743
17517W        W89777  42.859   8.893  14.908
17518W        W89778  15.424   8.732   1.841
17519W        W89779  23.570  25.163   1.484
17520W        W89780   3.884  14.266  10.767
17521W        W89781  15.110  25.457   2.205
17522W        W89782   5.503   4.930   0.867
17523W        W89783  40.562  33.010   1.182
17524W        W89784   5.713   8.736  11.238
17525W        W89785  11.479  25.976  11.029
17526W        W89786  30.401  27.478  13.082
17527W        W89787  33.884  17.298   1.901
17528W        W89788  34.003  39.847   0.797
17529W        W89789  36.424  16.355   2.854
17530W        W89790  44.039  30.232  13.588
17531W        W89791   0.973  38.147   2.797
17532W        W89792  19.908  18.509   1.681
17533W        W89793  44.237  11.314   2.376
17534W        W89794   0.815  14.964   4.108
17535W        W89795  14.803  29.581   0.959
17536W        W89796  19.690   7.802   4.997
17537W        W89797  12.934  14.963   3.161
17538W        W89798  24.446  25.964  14.223
17539W        W89799  10.637  26.979   3.377
17540W        W89800  14.546   2.843   2.353
17541W        W89801   0.165  38.266   0.931
17542W        W89802  36.481   2.038   1.244
17543W        W89803  25.650  31.847   4.582
17544W        W89804   1.879  29.101   3.834
17545W        W89805  44.403   2.712  13.953
17546W        W89806  13.708  24.997   4.668
17547W        W89807   6.902   6.978   0.806
17548W        W89808   2.988  32.994   3.269
17549W        W89809  36.390  14.824   2.807
17550W        W89810   7.224   8.972  14.833
17551W        W89811   9.939   6.411   4.597
17552W        W89812  23.101  27.585  13.146
17553W        W89813   0.229   4.391  11.566
17554W        W89814  11.366  32.412   2.356
17555W        W89815   3.504  40.337   2.360
17556W        W89816  33.302  11.164   1.336
17557W        W89817  30.893   0.350  10.198
17558W        W89818  29.452  39.732  13.417
17559W        W89819  38.515   0.496  11.199
17560W        W89820   6.518  18.677  11.536
17561W        W89821  35.535  22.955   4.572
17562W        W89822   7.993   9.789  12.566
17563W        W89823  38.883  10.411   4.994
17564W        W89824  26.459   2.245  12.830
17565W        W89825  11.674  30.447  13.812
17566W        W89826   5.856  29.174  12.200
17567W        W89827  44.434  42.951   4.132
17568W        W89828  15.672  26.975  11.473
17569W        W89829  21.672   5.953   1.483
17570W        W89830  23.204  35.008   1.024
17571W        W89831  16.347  32.602   4.118
17572W        W89832  11.304  36.416   2.312
17573W        W89833  28.413  41.361   4.102
17574W        W89834  23.698  19.970   4.958
17575W        W89835  29.529  22.476   4.417
17576W        W89836  21.093  16.944   0.218
17577W        W89837  37.935  39.870  14.532
17578W        W89838  24.165  13.615   1.329
17579W        W89839   9.728  15.888   1.262
17580W        W89840  37.381  31.358   3.712
17581W        W89841  19.080  34.525   0.061
17582W        W89842  37.814  14.815  11.233
17583W        W89843  34.948   1.378   3.637
17584W        W89844  40.537  20.593   2.234
17585W        W89845   7.099  27.579  14.391
17586W        W89846  31.525  34.113   1.417
17587W        W89847  27.737   4.831  13.724
17588W        W89848   4.978  25.196  11.057
17589W        W89849   9.107  34.685  12.661
17590W        W89850  20.680   8.106   0.198
17591W        W89851  41.887  39.819   4.602
17592W        W89852   3.225  10.166   0.122
17593W        W89853  19.731  33.010   1.361
17594W        W89854  15.698  25.405   4.601
17595W        W89855  33.357  11.649   4.543
17596W        W89856   4.175  13.236   4.721
17597W        W89857   9.283  10.090   2.789
17598W        W89858  17.617  35.529   4.639
17599W        W89859   9.839  26.605   1.341
17600W        W89860  27.987   4.901  14.739
17601W        W89861  41.404  39.973   2.390
17602W        W89862  38.591  27.925   1.859
17603W        W89863   5.886  37.767   2.812
17604W        W89864  10.133   9.891  10.170
17605W        W89865  41.984  41.956  14.939
17606W        W89866  39.441   4.788   0.838
17607W        W89867   2.944   4.384   1.432
17608W        W89868  44.578   2.387   0.967
17609W        W89869  23.632  19.345   0.248
17610W        W89870  29.063   9.316   4.689
17611W        W89871  13.043  20.611  12.806
17612W        W89872  44.264   6.989  11.170
17613W        W89873  13.244  22.693   1.870
17614W        W89874  13.216  27.677  13.590
17615W        W89875  18.598  19.982   3.174
17616W        W89876  35.343  24.490   1.358
17617W        W89877  12.182  26.525  14.330
17618W        W89878  43.861  23.683   2.906
17619W        W89879  37.736  12.917   4.200
17620W        W89880  27.413  30.658  11.617
17621W        W89881  42.664  32.035  14.004
17622W        W89882  18.102   5.484  13.982
17623W        W89883  26.982   7.261   0.304
17624W        W89884  24.544   9.106  12.983
17625W        W89885  16.066  21.145  13.753
17626W        W89886  23.795  12.270  12.693
17627W        W89887  14.972  24.097   1.296
17628W        W89888   9.758   9.843   4.242
17629W        W89889  21.754  12.883   2.032
17630W        W89890  14.742  38.768  11.035
17631W        W89891  13.912  12.907   2.435
17632W        W89892  25.491   8.790   2.543
17633W        W89893  24.204  44.884   0.462
17634W        W89894  33.899   0.832  14.136
17635W        W89895  17.832  28.199   1.323
17636W        W89896  23.483   0.887  12.203
17637W        W89897  42.395  15.503   0.753
17638W        W89898   8.220  21.281  11.883
17639W        W89899  19.283   8.476  11.114
17640W        W89900   7.361  16.227   1.271
17641W        W89901  41.770  10.191   0.884
17642W        W89902   8.154  19.817   1.782
17643W        W89903  24.416  30.111  14.886
17644W        W89904  35.397  19.442  14.823
17645W        W89905  23.448  24.089   1.327
17646W        W89906   9.505  22.994   3.356
17647W        W89907  42.484  17.192   4.318
17648W        W89908  30.250  25.909   3.714
17649W        W89909  18.584  18.082  10.019
17650W        W89910  21.615  13.133  14.888
17651W        W89911  24.997  36.586  13.841
17652W        W89912  41.612  22.640  12.019
17653W        W89913  32.069  44.165  10.805
17654W        W89914  13.640  27.002   4.183
17655W        W89915  10.404  22.481   5.136
17656W        W89916   0.986  18.738   2.483
17657W        W89917  17.345  39.873  12.489
17658W        W89918  18.842  23.197   1.903
17659W        W89919  12.566  36.126   2.828
17660W        W89920   6.967  22.231   1.838
17661W        W89921  20.251   0.139  14.885
17662W        W89922  24.271  39.896  14.511
17663W        W89923   0.742  11.045   2.941
17664W        W89924  35.139  11.377   2.255
17665W        W89925   4.887   9.833   1.485
17666W        W89926  41.429  17.750  12.224
17667W        W89927  36.104  17.968   0.924
17668W        W89928  32.885  23.686  12.913
17669W        W89929   6.545  14.415   0.028
17670W        W89930  26.123  28.052   2.725
17671W        W89931  18.031   6.734  11.505
17672W        W89932  23.143  31.958  10.648
17673W        W89933   0.991  29.723   3.214
17674W        W89934  39.825  23.137  12.612
17675W        W89935  29.576   6.455  10.313
17676W        W89936  23.957  36.282   0.406
17677W        W89937  13.164  43.073   2.400
17678W        W89938  23.033  14.742   3.240
17679W        W89939  43.031   3.830   0.067
17680W        W89940  40.184  33.090  14.872
17681W        W89941   6.876  43.967  14.845
17682W        W89942  32.077  14.256   3.154
17683W        W89943  20.250  26.229   1.498
17684W        W89944  44.405  13.899   5.010
17685W        W89945  20.696   6.935   3.812
17686W        W89946  35.561  28.419   1.475
17687W        W89947  24.744  38.026  14.233
17688W        W89948  12.264  30.875  12.766
17689W        W89949  37.508  34.080   0.432
17690W        W89950  35.329  29.080   4.194
17691W        W89951  37.572  43.207   2.241
17692W        W89952  18.250  26.942  11.993
17693W        W89953   6.703   2.915  10.702
17694W        W89954  35.210  14.637   3.980
17695W        W89955   3.918  32.261  12.979
17696W        W89956   4.044  30.915  13.055
17697W        W89957  26.269  40.564   3.345
17698W        W89958  28.595  36.878  13.563
17699W        W89959  40.806  44.324   4.570
17700W        W89960  24.133   5.487  11.368
17701W        W89961  12.241  40.822  11.540
17702W        W89962   3.965  25.856  14.548
17703W        W89963  24.318  13.380  11.422
17704W        W89964  30.572  17.387  12.952
17705W        W89965  40.346  35.545  11.519
17706W        W89966  19.907  31.606   2.720
17707W        W89967   6.492  17.520   1.255
17708W        W89968  29.133  25.478   1.906
17709W        W89969  44.783  12.992  11.155
17710W        W89970  36.618  29.543   2.110
17711W        W89971  20.713  24.774  13.325
17712W        W89972  27.705  23.592   0.006
17713W        W89973  22.337   6.268   4.545
17714W        W89974  15.113   2.791  11.509
17715W        W89975  11.801  29.614  14.317
17716W        W89976  20.750  30.917   4.500
17717W        W89977  37.989  38.551  13.374
17718W        W89978  21.205  34.742  11.097
17719W        W89979  30.654  43.752   0.709
17720W        W89980   3.791  34.109   2.743
17721W        W89981  34.161  35.371   3.219
17722W        W89982  23.348  18.792   5.540
17723W        W89983  39.307  38.511   2.093
17724W        W89984  13.288  32.941  13.378
17725W        W89985   7.127   7.964   1.385
17726W        W89986  14.316  13.399   1.451
17727W        W89987  40.659  32.518   1.314
17728W        W89988  10.630  12.733   4.714
17729W        W89989  14.344   5.552  13.787
17730W        W89990   7.637  38.325   0.999
17731W        W89991  38.382   4.960  13.462
17732W        W89992   0.962  25.991   0.353
17733W        W89993   4.898  13.888  13.719
17734W        W89994  44.454  40.105   4.028
17735W        W89995  37.775   5.349   0.253
17736W        W89996   2.547  40.514  12.838
17737W        W89997  43.458  13.039   4.730
17738W        W89998   5.419  38.404   2.543
17739W        W89999   8.336  29.042  11.964
17740W        W90000   8.398  40.049   0.729
17741W        W90001   6.653  33.626  14.801
17742W        W90002  37.708  17.568  14.974
17743W        W90003  38.530  34.599  12.540
17744W        W90004  27.649  38.137   0.950
17745W        W90005  10.687  32.951  13.082
17746W        W90006   4.003  33.438   9.686
17747W        W90007  21.119   8.127   3.591
17748W        W90008  12.559  17.660  14.860
17749W        W90009  38.934  15.694   3.553
17750W        W90010  27.215   1.456   1.630
17751W        W90011  31.028  15.193  13.485
17752W        W90012  17.541  19.502  10.694
17753W        W90013  22.664   1.302   0.896
17754W        W90014  19.310  33.984  11.829
17755W        W90015  11.416  22.732   4.058
17756W        W90016   4.686  17.628   0.303
17757W        W90017  41.192  12.275  11.993
17758W        W90018  43.383  31.639   0.976
17759W        W90019   3.494  12.299   2.762
17760W        W90020  13.815   6.299  13.275
17761W        W90021  32.641  20.469  10.404
17762W        W90022   8.447  24.031  14.846
17763W        W90023  38.194   4.785   4.364
17764W        W90024  28.729   4.956  11.048
17765W        W90025  30.741   1.620  10.795
17766W        W90026   4.419  10.133   1.366
17767W        W90027  18.590   8.875   3.851
17768W        W90028  21.615  10.771  12.077
17769W        W90029  35.512   9.822   4.542
17770W        W90030  39.432  40.266  10.790
17771W        W90031  33.551  13.759   4.545
17772W        W90032  35.060  25.928  13.515
17773W        W90033  37.102   8.931   4.687
17774W        W90034  32.205   2.926   4.293
17775W        W90035  29.521  26.010  14.726
17776W        W90036  26.004  28.612  14.445
17777W        W90037  40.301  33.940  14.503
17778W        W90038   9.058  12.575   1.225
17779W        W90039  19.503   6.319   1.573
17780W        W90040  15.060  35.002  14.217
17781W        W90041   5.221  23.981   0.524
17782W        W90042  41.191  15.537  12.094
17783W        W90043  40.358  31.215  12.888
17784W        W90044  28.098  29.752  13.785
17785W        W90045  29.692  30.171   2.776
17786W        W90046  35.122   0.875  11.269
17787W        W90047  24.185  36.080   2.393
17788W        W90048  32.622  15.791  14.321
17789W        W90049  23.788   7.193  11.428
17790W        W90050  38.077  28.163   3.933
17791W        W90051   3.084  28.757  14.346
17792W        W90052  28.451  37.617  12.420
17793W        W90053  36.878  25.896  11.703
17794W        W90054  21.702   4.942  11.517
17795W        W90055  43.272  41.387   0.157
17796W        W90056  35.827  26.455   0.833
17797W        W90057  23.161  15.207  14.072
17798W        W90058  12.901   5.586   4.923
17799W        W90059  22.146  13.194  10.499
17800W        W90060   2.904  25.750  10.620
17801W        W90061  28.726  28.026   0.001
17802W        W90062  32.120  16.634   0.339
17803W        W90063  20.187  40.472   3.579
17804W        W90064  11.885  35.290  11.960
17805W        W90065   4.939  21.078  14.048
17806W        W90066   5.690  34.142   0.439
17807W        W90067  18.038  14.044  10.645
17808W        W90068  42.976  25.377  11.206
17809W        W90069  27.529   0.289   1.932
17810W        W90070  20.062  34.020   4.022
17811W        W90071  22.965   4.653   4.058
17812W        W90072  27.899   5.359   2.863
17813W        W90073  23.142  36.349   1.975
17814W        W90074  18.809  26.917  13.859
17815W        W90075   1.942   4.714   4.049
17816W        W90076   2.732   2.627   4.211
17817W        W90077   7.498  23.051  13.408
17818W        W90078  29.785  33.400  12.094
17819W        W90079   9.258  42.386   0.457
17820W        W90080  11.685   4.289  10.925
17821W        W90081  11.415   1.694  11.158
17822W        W90082  34.712  19.307  12.937
17823W        W90083  13.173   1.468   0.391
17824W        W90084  17.536  37.943   1.864
17825W        W90085  40.737   9.115  10.517
17826W        W90086  40.108  32.026  12.365
17827W        W90087  33.712  29.553   1.941
17828W        W90088   5.324  25.658   4.057
17829W        W90089  36.533  20.818  13.363
17830W        W90090  35.787  30.089   3.193
17831W        W90091  21.565  33.644  14.145
17832W        W90092  25.439  31.688  13.252
17833W        W90093  23.944  33.523   5.121
17834W        W90094   4.697  35.909   3.722
17835W        W90095   7.772   5.848  11.964
17836W        W90096  30.026  39.619  11.257
17837W        W90097  34.896  38.780   3.614
17838W        W90098  10.096  10.304   1.376
17839W        W90099  15.749  25.151  13.782
17840W        W90100  23.978  13.211  11.998
17841W        W90101  22.306  27.018   5.100
17842W        W90102  20.568  27.606   3.613
17843W        W90103  18.240  13.618   1.908
17844W        W90104  10.903  18.833   2.727
17845W        W90105  36.367  38.177  11.947
17846W        W90106  18.697  17.782  10.442
17847W        W90107  36.654  27.866  14.706
17848W        W90108  32.112  40.345   2.748
17849W        W90109   3.562  33.894  12.937
17850W        W90110  31.016  40.857   2.958
17851W        W90111  27.231   0.098   3.640
17852W        W90112  30.450   6.766  12.113
17853W        W90113   9.933   7.751   1.483
17854W        W90114  40.701   8.197  13.817
17855W        W90115  38.900  16.738   3.707
17856W        W90116  24.713  19.755   5.102
17857W        W90117  22.750  18.948  13.873
17858W        W90118  10.196  15.053  11.935
17859W        W90119   9.677   1.290  11.036
17860W        W90120  35.853  28.918  13.386
17861W        W90121   3.465  43.395  13.044
17862W        W90122  38.289  28.196   0.694
17863W        W90123  35.012   6.110  13.422
17864W        W90124  16.351  11.592   2.652
17865W        W90125  38.574  25.436   4.220
17866W        W90126  12.428  28.073   2.442
17867W        W90127  42.980   6.206   3.314
17868W        W90128  13.149  28.641  10.206
17869W        W90129  44.511  40.934   2.311
17870W        W90130   2.314  20.786  11.475
17871W        W90131  44.211  30.544   4.482
17872W        W90132  31.507  25.283   4.360
17873W        W90133  43.502  16.558  12.570
17874W        W90134  35.111  12.571  11.681
17875W        W90135   8.709   3.580  10.202
17876W        W90136  27.411  36.035   2.592
17877W        W90137  14.184  29.898  10.479
17878W        W90138  30.990   7.804  14.457
17879W        W90139  17.111   8.568   3.647
17880W        W90140  40.483   0.393   1.429
17881W        W90141  28.801  33.021   0.315
17882W        W90142  43.556  24.779   3.759
17883W        W90143   7.236   1.466   0.932
17884W        W90144  12.220  13.812   2.843
17885W        W90145  32.004  17.701   3.163
17886W        W90146  24.721  41.943   2.135
17887W        W90147   3.294  33.587   4.145
17888W        W90148  38.873  17.540   3.196
17889W        W90149   1.327  24.936  14.950
17890W        W90150  39.874  25.702  14.265
17891W        W90151  43.084  11.290  11.492
17892W        W90152   0.948  27.675   0.980
17893W        W90153  28.175  41.919  10.634
17894W        W90154   2.357  15.550  12.300
17895W        W90155  29.615  27.555   1.774
17896W        W90156  31.037   9.847   2.916
17897W        W90157  10.264   5.288  10.656
17898W        W90158   0.241  35.530  14.260
17899W        W90159  32.192  40.284   0.668
17900W        W90160  29.320  19.604  11.117
17901W        W90161  40.112   1.963   2.798
17902W        W90162   9.224  37.826   0.234
17903W        W90163  31.078   0.549  12.678
17904W        W90164  37.588  21.742   3.233
17905W        W90165   8.424  24.859  14.693
17906W        W90166  27.681  39.571  12.934
17907W        W90167  32.007  37.485   0.913
17908W        W90168  22.193   7.955  13.006
17909W        W90169  44.379  13.764   2.686
17910W        W90170  15.260  18.256   2.444
17911W        W90171  22.926  26.116   2.667
17912W        W90172  22.055   7.886   3.193
17913W        W90173  30.912  34.383   3.683
17914W        W90174  25.590   0.257   0.667
17915W        W90175  15.776  16.521   3.252
17916W        W90176  12.241  19.001  14.038
17917W        W90177  18.616  44.739  13.991
17918W        W90178   9.756  13.932   3.992
17919W        W90179  37.357  23.032  12.464
17920W        W90180   2.848   7.723  11.609
17921W        W90181  24.458  21.813  14.996
17922W        W90182  23.220  38.805  13.754
17923W        W90183  37.013   0.782   1.624
17924W        W90184  41.519  18.282  14.604
17925W        W90185  26.073   7.849  13.833
17926W        W90186  43.269   2.686   3.855
17927W        W90187  12.807  19.753  10.651
17928W        W90188  11.053   7.734  13.864
17929W        W90189  21.515  16.045  12.407
17930W        W90190  22.584  15.348  13.435
17931W        W90191  25.544  25.606   2.077
17932W        W90192   4.221  37.922  11.617
17933W        W90193  18.284  20.482   3.753
17934W        W90194  20.347  35.780   3.130
17935W        W90195   6.219  34.961  14.872
17936W        W90196  17.334  14.267  13.315
17937W        W90197   4.444  42.403  12.846
17938W        W90198  23.169   5.170  11.876
17939W        W90199  29.141  26.790  13.133
17940W        W90200  14.133  31.086  12.783
17941W        W90201  36.364  42.082  11.863
17942W        W90202  40.574  44.982  14.420
17943W        W90203   2.442  42.885   1.449
17944W        W90204  36.660  31.962  14.859
17945W        W90205  15.292   2.433  13.004
17946W        W90206  17.829  26.251  11.351
17947W        W90207  18.061  44.896   3.965
17948W        W90208  10.255  34.411  11.931
17949W        W90209   2.322  26.547  12.507
17950W        W90210  14.240  33.596  12.589
17951W        W90211  29.657  13.587   1.210
17952W        W90212  14.587  40.460   1.919
17953W        W90213  17.639  20.465   4.117
17954W        W90214  30.364   2.119  10.519
17955W        W90215  38.814  16.087  10.915
17956W        W90216  35.868   7.237  12.119
17957W        W90217  26.129  10.348  11.979
17958W        W90218   6.777  12.298  10.827
17959W        W90219  24.299  38.876  13.474
17960W        W90220  12.806  27.087   4.590
17961W        W90221  38.818  13.797  10.622
17962W        W90222  29.922   9.668   4.661
17963W        W90223  10.282   5.405  13.534
17964W        W90224  25.483  11.336  14.441
17965W        W90225  17.543  38.505  13.934
17966W        W90226  20.246  10.837   2.139
17967W        W90227   7.283  24.957   2.218
17968W        W90228  25.967  15.086   4.155
17969W        W90229  19.871  41.420  12.264
17970W        W90230   8.137   4.225  14.993
17971W        W90231  34.506  27.406   4.188
17972W        W90232  32.659  30.491   1.371
17973W        W90233   9.955  12.523   0.888
17974W        W90234  32.441  43.932  12.917
17975W        W90235  36.285  39.123   0.269
17976W        W90236  38.461  22.684  14.737
17977W        W90237  37.894  41.528  10.689
17978W        W90238  16.795  16.805   4.231
17979W        W90239  15.085  35.525   3.705
17980W        W90240  11.797  17.060  12.341
17981W        W90241  15.200  29.025   4.076
17982W        W90242  30.108  23.271  14.551
17983W        W90243   6.375  20.746  11.229
17984W        W90244  29.129  28.443  12.162
17985W        W90245  35.561  43.509   2.909
17986W        W90246  23.944   2.400   0.461
17987W        W90247  33.854   8.706  13.868
17988W        W90248  24.116  39.233   1.242
17989W        W90249  19.194  28.931   2.586
17990W        W90250  23.245  20.621   0.443
17991W        W90251  31.128  43.451  12.958
17992W        W90252  19.511  17.107   4.101
17993W        W90253  41.402  16.608   1.954
17994W        W90254   0.511   4.170   1.782
17995W        W90255  29.284  33.149  12.835
17996W        W90256   4.642   4.305  13.457
17997W        W90257  11.664  38.298   2.854
17998W        W90258  41.450   0.979  12.384
17999W        W90259  12.389  39.576   3.896
18000W        W90260   8.421  42.829   3.368
18001W        W90261  19.210  23.282   1.530
18002W        W90262   5.368  31.175   4.363
18003W        W90263  22.638  20.593  12.949
18004W        W90264   8.239  39.853  12.507
18005W        W90265  24.270   2.428   2.903
18006W        W90266  13.394  24.562  12.977
18007W        W90267  33.581  38.277  12.218
18008W        W90268  18.272  38.515  12.856
18009W        W90269  44.977   3.004   0.466
18010W        W90270  16.856  35.369  14.071
18011W        W90271  18.005   0.851   3.259
18012W        W90272  42.898   0.503  13.549
18013W        W90273   9.339  36.669  12.455
18014W        W90274  14.952  17.028   4.279
18015W        W90275  39.877  27.694   1.290
18016W        W90276   4.913   3.681  14.661
18017W        W90277   6.662   2.188  11.617
18018W        W90278  34.505   1.411  10.823
18019W        W90279  24.239  20.499  11.055
18020W        W90280   6.389  17.113   4.782
18021W        W90281  43.046  17.590  12.984
18022W        W90282  13.635  35.811  11.095
18023W        W90283  38.641  38.773  11.636
18024W        W90284  33.586  40.601  10.644
18025W        W90285  16.229  16.706   0.398
18026W        W90286  29.956   5.911  14.077
18027W        W90287  23.631  28.563  10.958
18028W        W90288  34.447  27.241  11.289
18029W        W90289  18.766  38.288  13.914
18030W        W90290   5.219   9.647  13.571
18031W        W90291   6.800  15.279   0.496
18032W        W90292   0.310  43.038  12.004
18033W        W90293  22.339  20.145  13.831
18034W        W90294  30.219  35.131  13.245
18035W        W90295  15.604  15.664   2.199
18036W        W90296   8.215  26.520  13.379
18037W        W90297  21.727  17.510   2.761
18038W        W90298   8.285  38.193  12.478
18039W        W90299   5.916  39.554   2.318
18040W        W90300  24.963   2.197   3.669
18041W        W90301  42.777  37.582  13.531
18042W        W90302  22.576  17.656   2.280
18043W        W90303  39.373  12.789  11.251
18044W        W90304   3.945  29.681   1.014
18045W        W90305  13.851  22.241  11.215
18046W        W90306  34.410  35.329  12.552
18047W        W90307  30.849  40.947   4.629
18048W        W90308  11.029  41.507  10.980
18049W        W90309  33.052  15.684   1.289
18050W        W90310  35.423   0.859  11.679
18051W        W90311  19.626  31.611  12.439
18052W        W90312  23.960  20.067  12.635
18053W        W90313  22.239  37.112  11.627
18054W        W90314  24.107  25.811  12.598
18055W        W90315  35.502   8.395   3.148
18056W        W90316  24.505   9.773  14.895
18057W        W90317  30.606  35.586  11.698
18058W        W90318  27.029  32.513   4.233
18059W        W90319  14.731  43.372  14.618
18060W        W90320  37.884  38.268  12.958
18061W        W90321  25.077   4.829   2.139
18062W        W90322  15.357  24.181  10.581
18063W        W90323  23.992  38.484  12.418
18064W        W90324   3.830  35.167   1.259
18065W        W90325  37.488  16.031   2.385
18066W        W90326  39.543   3.757   3.630
18067W        W90327   4.478   8.713   2.148
18068W        W90328   4.371  11.306   0.040
18069W        W90329  18.145  43.080   1.360
18070W        W90330  31.953   0.260   0.806
18071W        W90331  25.279   0.868  12.339
18072W        W90332   7.298  18.870   3.390
18073W        W90333  31.077  19.721   2.366
18074W        W90334   0.494   6.330  12.903
18075W        W90335  32.659  17.638   2.450
18076W        W90336   3.211  17.088  12.203
18077W        W90337  30.427  29.987  11.087
18078W        W90338  13.194  42.030   4.544
18079W        W90339  42.994  38.288   3.603
18080W        W90340   0.742  24.161  12.633
18081W        W90341  19.242   7.574   1.460
18082W        W90342   9.758  39.613   0.788
18083W        W90343   5.845  17.357   3.742
18084W        W90344  25.700   6.233   0.724
18085W        W90345  24.270  24.173   2.601
18086W        W90346  23.048  13.242  11.417
18087W        W90347   1.481  16.560   1.830
18088W        W90348   9.878  39.889  12.532
18089W        W90349   5.155  24.812  11.366
18090W        W90350  31.025  26.922   2.815
18091W        W90351  15.835  33.989  10.460
18092W        W90352   9.366  36.354   1.321
18093W        W90353  33.164   3.828   4.641
18094W        W90354  36.384   5.202  13.477
18095W        W90355  19.770  21.669  11.691
18096W        W90356  43.930   8.360  13.157
18097W        W90357  37.555  27.515  14.874
18098W        W90358  41.764   8.351   4.756
18099W        W90359  39.796  13.259   2.329
18100W        W90360  43.300  15.327  13.339
18101W        W90361  28.571   5.887   3.244
18102W        W90362  40.311  12.727  14.863
18103W        W90363  30.787  19.157  12.309
18104W        W90364  32.919  33.097  11.679
18105W        W90365  40.037  18.576   1.491
18106W        W90366  33.701  24.707  13.146
18107W        W90367  41.025   0.052  11.598
18108W        W90368  32.678  22.184  13.549
18109W        W90369  16.008  29.425   2.344
18110W        W90370  38.405  22.034  12.744
18111W        W90371  23.810  15.575  10.588
18112W        W90372  38.370  43.784  14.796
18113W        W90373  13.876  27.603   9.806
18114W        W90374  22.485  24.608  14.852
18115W        W90375  25.405   8.815   4.108
18116W        W90376  31.508  20.759   1.792
18117W        W90377  15.169  36.977  12.420
18118W        W90378  41.824  18.067   4.168
18119W        W90379  26.928  16.040   3.591
18120W        W90380  16.062  14.652  11.781
18121W        W90381   0.004  41.259  13.737
18122W        W90382  34.008  38.122  11.984
18123W        W90383  10.253  38.421   0.283
18124W        W90384   0.881  41.976  11.601
18125W        W90385   9.629  24.354  14.391
18126W        W90386  27.010   7.172  14.724
18127W        W90387  39.469  13.169   0.903
18128W        W90388  27.975  31.923   0.688
18129W        W90389  17.709  31.380   1.187
18130W        W90390  36.608  36.599  14.007
18131W        W90391   3.903  30.098   4.540
18132W        W90392   3.398  43.585   4.887
18133W        W90393   0.627  26.930  13.238
18134W        W90394  26.272   2.823  13.843
18135W        W90395  36.087  14.617   4.265
18136W        W90396   7.432  22.692  14.361
18137W        W90397   3.893  26.362  12.281
18138W        W90398   2.411  39.879  11.649
18139W        W90399  23.688  33.897  13.781
18140W        W90400  34.818  33.997   0.901
18141W        W90401  21.487  36.534   4.908
18142W        W90402  36.619  18.861  12.020
18143W        W90403   9.925   8.519  11.561
18144W        W90404  34.489  36.999  12.550
18145W        W90405  32.752  18.137  12.904
18146W        W90406  20.716   0.759   4.267
18147W        W90407   7.446  35.838   4.948
18148W        W90408   5.435  25.249   1.869
18149W        W90409  35.261   3.512  11.542
18150W        W90410   8.619  27.818   1.808
18151W        W90411  43.032   3.594   2.663
18152W        W90412   8.847  34.310  14.432
18153W        W90413   9.404  36.223  11.529
18154W        W90414  31.077  14.571  14.750
18155W        W90415  23.051  14.364  13.495
18156W        W90416  39.067  11.709   2.090
18157W        W90417  17.071  19.642   2.253
18158W        W90418  32.934  12.417  11.863
18159W        W90419   4.909   0.526  14.377
18160W        W90420  12.775  16.206   3.788
18161W        W90421  21.427   1.506   4.106
18162W        W90422  43.052  17.895  13.778
18163W        W90423  12.837  14.559  12.891
18164W        W90424  42.511  29.496   2.703
18165W        W90425  23.385  25.473   5.204
18166W        W90426  33.082  33.915   1.689
18167W        W90427  39.562  24.410  12.119
18168W        W90428  34.843   8.143   2.328
18169W        W90429  31.187  42.523   3.794
18170W        W90430   1.748   7.684  12.170
18171W        W90431  34.984  31.258   4.749
18172W        W90432  37.615  10.372   0.922
18173W        W90433  10.286  39.784   0.487
18174W        W90434  32.362  21.681   2.291
18175W        W90435   7.229   1.264  10.781
18176W        W90436  30.487  32.939  10.518
18177W        W90437   8.204  40.143  12.104
18178W        W90438  36.922  38.345  11.066
18179W        W90439   4.927   0.424   4.900
18180W        W90440   5.512   0.675  14.061
18181W        W90441   6.649   5.875  11.117
18182W        W90442  20.206   2.518  11.007
18183W        W90443  13.292  21.105   4.606
18184W        W90444  22.398  16.509   2.322
18185W        W90445  16.054  27.761  14.326
18186W        W90446   1.683  10.810  14.425
18187W        W90447  34.655  39.110   0.544
18188W        W90448  21.709  12.172   3.054
18189W        W90449   5.927   6.356   2.322
18190W        W90450  32.565   7.473  11.857
18191W        W90451  43.097  18.714   1.364
18192W        W90452  22.938   7.718   0.797
18193W        W90453  31.901  21.157   3.740
18194W        W90454   1.817  39.716   0.218
18195W        W90455  41.820  15.060  14.764
18196W        W90456  32.076  40.825   2.000
18197W        W90457  21.606  16.294  10.401
18198W        W90458  43.553   3.131  12.095
18199W        W90459  36.661  15.010  12.450
18200W        W90460   5.829   9.224   0.788
18201W        W90461   8.123  41.308   1.433
18202W        W90462  44.422  19.106   1.222
18203W        W90463   6.341  37.940   2.316
18204W        W90464  18.806  37.317  14.781
18205W        W90465   5.271  11.254  11.307
18206W        W90466   6.775   3.596  13.636
18207W        W90467   8.694   2.898   0.889
18208W        W90468   1.951  44.762   2.853
18209W        W90469  17.005   3.758  14.297
18210W        W90470   3.285   1.340  13.380
18211W        W90471  37.443  16.709   4.071
18212W        W90472  34.409  39.060  11.775
18213W        W90473   6.287  18.964   2.374
18214W        W90474  24.795  29.181  14.753
18215W        W90475  34.043  13.981   4.820
18216W        W90476   9.892  39.910   3.221
18217W        W90477  32.975   5.349   0.809
18218W        W90478  36.539   3.191  13.305
18219W        W90479  20.252  36.572   0.246
18220W        W90480  34.424  35.463  11.136
18221W        W90481  35.986  39.211  14.848
18222W        W90482   6.968  20.331   2.747
18223W        W90483  28.914  18.011  11.923
18224W        W90484  39.769  21.083   1.242
18225W        W90485  40.387   1.345  12.945
18226W        W90486  25.974  30.987   2.602
18227W        W90487  42.412   2.854  14.885
18228W        W90488  29.951   9.392   3.556
18229W        W90489  32.871  39.286  12.427
18230W        W90490   3.993  43.363  12.876
18231W        W90491  34.972   9.323  14.907
18232W        W90492  16.679  27.398  11.483
18233W        W90493  21.248  24.161  10.613
18234W        W90494  33.576   2.902   3.581
18235W        W90495  22.757  20.182  11.356
18236W        W90496   9.273  36.045  14.391
18237W        W90497  31.003  16.591   2.715
18238W        W90498  10.191  30.668  10.630
18239W        W90499   0.308  25.613  12.906
18240W        W90500  30.573  21.858   0.991
18241W        W90501  28.695  20.619   4.196
18242W        W90502   5.055  35.529   3.706
18243W        W90503  43.934  10.675  14.032
18244W        W90504  35.477  43.661   1.973
18245W        W90505   2.847  11.160   1.691
18246W        W90506  31.718  37.818   2.144
18247W        W90507   2.355   7.402  14.867
18248W        W90508  12.691  38.015  10.656
18249W        W90509  14.869  11.693   1.987
18250W        W90510   8.324  29.509  13.370
18251W        W90511  14.710  29.665  12.931
18252W        W90512   8.959   3.668   0.411
18253W        W90513  22.248   0.657  14.903
18254W        W90514   6.736  20.593   1.837
18255W        W90515   7.906  34.992  12.695
18256W        W90516   1.277  30.458   3.860
18257W        W90517  40.726  38.839   3.311
18258W        W90518  43.804  39.678   3.259
18259W        W90519  31.478  15.655  10.637
18260W        W90520  43.450   8.412  12.438
18261W        W90521   4.647  33.192  13.731
18262W        W90522   1.462   2.028   1.521
18263W        W90523   6.984  26.100   4.552
18264W        W90524  23.218  10.553  13.458
18265W        W90525  36.647   5.415  10.348
18266W        W90526  19.768  12.132   0.770
18267W        W90527  29.058  16.298   4.467
18268W        W90528   7.706  43.438  11.535
18269W        W90529   5.953   2.017  12.402
18270W        W90530  38.135  16.368   0.193
18271W        W90531  36.434   8.954  13.114
18272W        W90532  13.182  34.090   0.631
18273W        W90533  14.617   0.970   1.962
18274W        W90534   8.726  14.157   2.652
18275W        W90535   9.689  43.289  10.701
18276W        W90536  37.260   1.373  11.526
18277W        W90537  30.884   2.985   2.442
18278W        W90538  26.185  33.921   1.655
18279W        W90539  11.510  20.490  13.228
18280W        W90540  30.421  26.544   1.662
18281W        W90541  28.997  20.111  13.479
18282W        W90542   9.828  32.175  14.079
18283W        W90543  18.944  14.604   1.678
18284W        W90544  10.330  30.852   2.788
18285W        W90545   4.425  28.572  10.612
18286W        W90546   1.313  35.841   3.595
18287W        W90547  11.278   8.158  14.020
18288W        W90548  15.768  30.585  11.532
18289W        W90549  15.594  16.241  14.361
18290W        W90550  16.824  29.572  11.588
18291W        W90551  44.950  38.946  12.145
18292W        W90552  28.015  21.065   0.367
18293W        W90553   6.680  23.486  11.144
18294W        W90554  35.632  11.368   2.357
18295W        W90555  37.649   1.423  12.294
18296W        W90556  36.991  36.596  12.780
18297W        W90557  23.266  10.750   1.843
18298W        W90558  12.622  25.396   1.909
18299W        W90559  38.594  20.266  14.074
18300W        W90560  19.037  29.336   2.156
18301W        W90561  12.846  14.647  11.919
18302W        W90562  44.207  42.344  14.541
18303W        W90563   3.215   5.409   2.367
18304W        W90564  36.996  27.233  14.942
18305W        W90565  39.072  36.530  13.451
18306W        W90566   0.009   4.352  14.259
18307W        W90567   3.906  22.526  12.362
18308W        W90568  27.720  16.696   2.692
18309W        W90569  18.199  36.583   1.333
18310W        W90570   5.859  11.301  12.434
18311W        W90571  39.276  22.109   1.387
18312W        W90572   3.680  38.488  11.093
18313W        W90573  32.334  21.200  12.115
18314W        W90574  22.441   0.724  14.397
18315W        W90575  29.706  44.103   2.861
18316W        W90576  27.074   5.440  14.960
18317W        W90577  32.298  36.803  11.986
18318W        W90578  38.906  30.155   0.213
18319W        W90579  14.917  22.573   2.293
18320W        W90580  21.132   8.116  13.519
18321W        W90581  12.433  10.237   0.828
18322W        W90582  43.293   3.971   2.305
18323W        W90583  38.377  42.875  11.541
18324W        W90584  19.158  26.683   0.963
18325W        W90585  37.040  19.859  13.999
18326W        W90586  24.069  44.438  14.699
18327W        W90587  10.158  38.450   2.344
18328W        W90588  28.945  43.578   2.752
18329W        W90589  41.835  36.996   2.668
18330W        W90590  34.412  32.306   1.792
18331W        W90591  39.793  22.219  12.574
18332W        W90592  10.622   7.329   4.280
18333W        W90593  10.843   5.461  11.429
18334W        W90594  29.644  16.223   1.840
18335W        W90595   3.755   4.989  10.237
18336W        W90596  38.358  26.574   3.249
18337W        W90597  30.183  10.284   1.377
18338W        W90598  13.236   0.682   0.811
18339W        W90599  22.064   9.229   2.904
18340W        W90600   4.861  11.141  14.930
18341W        W90601  23.637  33.420   2.695
18342W        W90602  22.459  37.521   0.300
18343W        W90603   6.902  14.517   2.784
18344W        W90604   6.224   1.385  10.352
18345W        W90605  15.331  18.358   3.834
18346W        W90606  21.803  15.422   0.341
18347W        W90607  43.127  14.146   3.280
18348W        W90608  33.226  20.920  10.632
18349W        W90609  23.653  20.666  11.572
18350W        W90610   6.720  12.221   1.434
18351W        W90611  23.785  37.499   4.099
18352W        W90612   5.355  11.178   4.583
18353W        W90613  39.945  30.263   2.313
18354W        W90614   2.789  13.563  12.922
18355W        W90615  20.618  26.757   1.296
18356W        W90616  42.733  30.674  13.248
18357W        W90617  20.964  36.099  11.989
18358W        W90618  12.894  17.192   1.361
18359W        W90619  13.365  22.575  11.114
18360W        W90620   4.434  38.701  10.730
18361W        W90621  18.548  15.265   4.655
18362W        W90622   2.313  31.811   0.883
18363W        W90623  17.285   6.730  11.800
18364W        W90624  24.485   7.682   1.904
18365W        W90625   8.138  12.939   1.311
18366W        W90626   7.864  36.087  12.414
18367W        W90627  38.497  38.948  12.096
18368W        W90628   0.713  12.609  10.650
18369W        W90629  11.168  41.369   4.650
18370W        W90630  23.485   6.006  11.688
18371W        W90631  14.792  26.835   5.055
18372W        W90632  32.609  17.372   1.217
18373W        W90633  27.863  39.915   0.015
18374W        W90634  11.384  25.026   2.248
18375W        W90635  26.185  31.999  14.489
18376W        W90636  19.313  38.541   2.707
18377W        W90637  13.310  15.085  12.471
18378W        W90638  32.557  19.667  10.843
18379W        W90639  12.266   9.131   0.171
18380W        W90640  28.094  18.385   3.877
18381W        W90641  34.617  36.854  11.626
18382W        W90642  36.573  29.514   0.306
18383W        W90643  20.797  34.983   4.089
18384W        W90644  27.413  20.164  14.078
18385W        W90645   8.363   5.446  13.823
18386W        W90646   4.697  40.322   1.398
18387W        W90647  11.257  14.367   1.474
18388W        W90648  37.396   9.715  13.075
18389W        W90649  37.517  11.890   1.305
18390W        W90650   9.694  31.118  11.774
18391W        W90651   5.102  28.078  10.266
18392W        W90652  22.219  33.055  11.986
18393W        W90653  23.068   2.830  13.436
18394W        W90654   9.921  14.262  14.864
18395W        W90655  36.176  15.674  11.849
18396W        W90656   2.685   9.615   2.740
18397W        W90657   7.925   2.520   1.089
18398W        W90658  14.601  16.683   0.408
18399W        W90659  28.373  41.346   1.285
18400W        W90660   7.867   0.832  12.887
18401W        W90661   2.626  15.417   5.150
18402W        W90662  12.635  25.182  14.220
18403W        W90663   4.309   9.756   4.222
18404W        W90664  36.468  21.029   0.236
18405W        W90665  37.040  25.929  14.500
18406W        W90666   5.350  39.517  14.962
18407W        W90667  19.041  34.046  13.815
18408W        W90668  31.509  26.762   2.731
18409W        W90669   4.402  37.839   1.096
18410W        W90670  29.003  42.759  14.959
18411W        W90671  12.146  26.051   2.906
18412W        W90672  25.586  36.555  14.440
18413W        W90673  19.558  26.919   3.234
18414W        W90674   9.417  35.545  14.436
18415W        W90675  39.422   6.385   4.360
18416W        W90676  17.557  19.687  11.574
18417W        W90677  31.464  31.933   0.295
18418W        W90678  14.311  29.587  12.201
18419W        W90679  21.087   4.788   2.814
18420W        W90680   0.074  40.457   3.292
18421W        W90681   9.396   9.426   1.892
18422W        W90682  43.044  39.596  14.766
18423W        W90683   3.263  26.719   1.738
18424W        W90684  11.708  20.036  13.393
18425W        W90685   9.858   4.659   4.198
18426W        W90686   7.121  17.937  14.104
18427W        W90687  20.482  21.213   5.092
18428W        W90688   5.687  16.971  13.767
18429W        W90689  12.809  43.134  11.845
18430W        W90690   9.004  10.371  13.068
18431W        W90691  21.041  14.201   1.462
18432W        W90692  10.894  32.520  13.440
18433W        W90693  21.182   6.452  13.010
18434W        W90694  19.592  33.008  12.631
18435W        W90695  44.198  39.546   9.930
18436W        W90696  25.904  20.640  14.728
18437W        W90697  20.521  12.842  12.425
18438W        W90698  31.822  21.235  12.224
18439W        W90699  18.831  37.761  13.944
18440W        W90700  41.602  16.536  12.036
18441W        W90701  20.675  14.298  13.517
18442W        W90702  34.603  36.419  13.953
18443W        W90703   4.805  14.172   1.628
18444W        W90704  15.645  41.763  12.481
18445W        W90705  24.695  12.253   1.552
18446W        W90706  36.988   1.185  14.935
18447W        W90707   4.419  41.943   0.858
18448W        W90708  25.097   3.769  14.882
18449W        W90709  21.569   2.959   1.420
18450W        W90710  39.606  23.339  11.135
18451W        W90711  12.141  19.700   4.156
18452W        W90712  23.070   0.299   0.288
18453W        W90713   9.256  26.697   1.795
18454W        W90714  23.899  16.689   2.350
18455W        W90715  31.396  32.311   0.669
18456W        W90716  41.503  21.544  11.239
18457W        W90717  41.220  19.672  12.065
18458W        W90718  16.244  43.259   4.687
18459W        W90719  30.461   6.331   2.111
18460W        W90720  19.800  22.063  14.426
18461W        W90721  29.871   0.377  12.998
18462W        W90722  17.562  24.708  13.768
18463W        W90723  31.914   2.635  14.943
18464W        W90724  14.634   3.255  12.882
18465W        W90725  32.515  19.803   1.262
18466W        W90726  17.100  12.293   4.380
18467W        W90727  39.524  23.035   0.727
18468W        W90728   4.272  30.955  14.937
18469W        W90729  24.142  33.358  14.770
18470W        W90730   5.950  28.364  12.564
18471W        W90731  33.877  28.592  14.379
18472W        W90732  26.533  31.224   1.807
18473W        W90733  39.858   5.206  12.885
18474W        W90734  12.561  41.270  11.966
18475W        W90735  36.340  26.280   4.128
18476W        W90736  35.987  38.350   0.422
18477W        W90737  11.373  11.700   4.078
18478W        W90738  31.498   0.722  11.628
18479W        W90739  42.358  22.657   4.038
18480W        W90740   5.281  29.154   4.183
18481W        W90741  14.174  38.631   1.828
18482W        W90742  14.812  24.474  13.608
18483W        W90743  26.222   6.337   3.345
18484W        W90744   3.467  34.067   4.144
18485W        W90745   3.455  39.994  11.637
18486W        W90746  38.209   6.109   4.244
18487W        W90747  12.662  16.754   0.042
18488W        W90748   2.409  12.956  13.346
18489W        W90749   9.315  22.685  12.744
18490W        W90750  24.335   3.927  12.548
18491W        W90751  41.396  24.625  10.757
18492W        W90752  32.888   3.527  11.220
18493W        W90753   5.808   6.972  14.968
18494W        W90754  24.106   1.720   1.787
18495W        W90755  35.472  19.954  14.899
18496W        W90756  13.117   3.246  14.583
18497W        W90757  34.472  43.037   4.917
18498W        W90758   0.936  36.060   4.665
18499W        W90759  42.881  39.434   0.386
18500W        W90760  17.358  25.336   0.427
18501W        W90761   0.058   7.350  14.433
18502W        W90762  41.493  33.626   1.617
18503W        W90763   3.264  11.813   1.312
18504W        W90764  42.994  37.876   3.276
18505W        W90765  12.349  20.061   3.820
18506W        W90766  37.058  28.859   4.533
18507W        W90767   0.798  25.935   4.625
18508W        W90768  12.438  15.093   3.256
18509W        W90769  17.304  24.391   1.276
18510W        W90770   6.024  39.358  13.308
18511W        W90771  24.345  33.116   1.377
18512W        W90772  28.114  22.745   3.013
18513W        W90773  25.705  36.827   3.298
18514W        W90774  30.647  19.835   0.994
18515W        W90775  17.707   3.411   2.956
18516W        W90776   7.131  20.117  14.036
18517W        W90777   8.445  41.865   1.660
18518W        W90778  35.576   1.481   0.830
18519W        W90779  39.837  37.299  13.933
18520W        W90780  37.877  15.753   4.833
18521W        W90781   7.609   7.127  12.398
18522W        W90782  38.357  35.982   2.644
18523W        W90783   4.255  15.305  14.963
18524W        W90784  19.677   0.816  14.389
18525W        W90785  22.325  17.134   1.683
18526W        W90786  13.607  12.122   2.187
18527W        W90787  36.343  21.785   3.979
18528W        W90788  34.089   4.680  14.790
18529W        W90789  36.130  39.444  14.027
18530W        W90790  41.026  34.354   2.085
18531W        W90791  11.781  43.885   4.858
18532W        W90792   7.162  29.182   0.757
18533W        W90793  41.596  24.464  11.212
18534W        W90794  28.075  11.035   3.663
18535W        W90795  34.751   5.681   2.113
18536W        W90796  39.631   3.140   5.042
18537W        W90797  43.790  41.574   1.274
18538W        W90798  18.516  42.020  13.268
18539W        W90799  13.298  37.357  12.472
18540W        W90800  44.162  31.120   3.563
18541W        W90801  21.971  28.205   3.366
18542W        W90802  22.757  10.430   0.902
18543W        W90803   2.037   2.638  14.118
18544W        W90804   6.390  25.773  13.145
18545W        W90805  25.079  31.898  11.133
18546W        W90806   9.224  19.813  12.018
18547W        W90807  38.762  26.193   1.730
18548W        W90808  11.216  35.536  12.864
18549W        W90809   4.787   7.596  14.349
18550W        W90810  33.825  14.836   2.323
18551W        W90811  37.516  40.211   2.080
18552W        W90812  38.923  32.026  14.319
18553W        W90813  30.083  42.397   0.726
18554W        W90814   5.153  41.671   2.697
18555W        W90815  16.610  18.337  13.498
18556W        W90816   8.621  18.060   4.603
18557W        W90817  21.134  12.665  10.241
18558W        W90818   3.959  29.959  10.422
18559W        W90819  39.956   8.877  10.762
18560W        W90820  37.282   8.641  11.952
18561W        W90821  38.261  13.690  12.630
18562W        W90822   3.921   2.032  11.589
18563W        W90823  43.851   1.453  11.169
18564W        W90824  20.782  16.189  14.893
18565W        W90825   9.414  13.696   0.425
18566W        W90826  31.606  33.274   0.448
18567W        W90827   0.206  10.648   2.759
18568W        W90828  28.735  31.575  11.913
18569W        W90829  19.442  43.502  10.890
18570W        W90830  11.892  29.340  12.619
18571W        W90831  22.025  40.446  13.888
18572W        W90832  39.972  13.772  12.974
18573W        W90833  10.584   4.944   4.669
18574W        W90834  21.526  42.456   2.221
18575W        W90835   8.197   3.465  10.763
18576W        W90836  35.921  21.988  12.446
18577W        W90837  37.433  12.798   0.351
18578W        W90838  37.202   6.407   0.861
18579W        W90839  41.969  40.908   4.182
18580W        W90840  16.594   9.352   0.007
18581W        W90841  41.881   2.306   1.159
18582W        W90842  22.116   0.934   1.925
18583W        W90843  29.575   8.660   0.196
18584W        W90844   4.811  36.112  10.623
18585W        W90845  17.606   9.791  14.588
18586W        W90846   4.276  12.718  13.887
18587W        W90847  11.317  33.984   1.742
18588W        W90848   0.851  23.007  13.298
18589W        W90849  37.155   4.906   4.190
18590W        W90850  44.977  26.191  12.439
18591W        W90851  43.391  44.088  11.525
18592W        W90852   4.351  37.622  12.002
18593W        W90853  18.561  12.900  13.938
18594W        W90854  28.195   0.795   2.324
18595W        W90855  44.743   9.347  12.481
18596W        W90856   5.252  18.566   0.388
18597W        W90857  18.979   2.323   0.348
18598W        W90858  34.046   0.843   4.195
18599W        W90859   8.719   1.007  14.320
18600W        W90860   5.694  32.430  13.924
18601W        W90861  21.788  25.602  13.423
18602W        W90862   2.404  39.004   2.015
18603W        W90863   1.458  27.137   0.496
18604W        W90864  18.102  19.861   1.451
18605W        W90865  34.416  21.003  13.257
18606W        W90866  13.116  13.784  13.245
18607W        W90867   8.641   6.903  13.145
18608W        W90868  16.725  28.394   3.149
18609W        W90869   3.198  14.101  11.519
18610W        W90870  13.944  23.685  10.759
18611W        W90871  37.965   0.179  10.561
18612W        W90872  29.634  33.586  11.597
18613W        W90873  44.006   1.848   0.750
18614W        W90874  31.403  18.626  13.309
18615W        W90875  42.821  26.624   1.400
18616W        W90876  38.491  21.400  14.993
18617W        W90877   9.333  43.912  14.032
18618W        W90878  23.871  36.519   3.292
18619W        W90879  14.119  42.702   1.440
18620W        W90880  13.893  26.870   2.831
18621W        W90881  36.779   3.202  14.078
18622W        W90882  43.101  11.209  11.991
18623W        W90883  26.623  41.387   2.376
18624W        W90884  26.244  16.565   1.058
18625W        W90885  12.244  41.997   0.968
18626W        W90886   8.690  39.509   0.541
18627W        W90887   8.193  19.165  11.539
18628W        W90888  38.834  10.692  13.384
18629W        W90889   6.836  20.741   2.347
18630W        W90890  36.143   5.634   1.129
18631W        W90891  18.749  44.978   4.535
18632W        W90892   9.759  41.382   4.727
18633W        W90893   8.839  25.719   4.113
18634W        W90894  28.299  33.362   1.943
18635W        W90895   6.369  33.190  14.431
18636W        W90896  17.577   1.932  14.474
18637W        W90897  27.981  37.537  10.626
18638W        W90898  26.698  33.880   0.198
18639W        W90899   3.233  29.426   0.920
18640W        W90900  39.949  27.534  11.385
18641W        W90901  17.068  24.967  14.518
18642W        W90902  40.032  21.164  14.846
18643W        W90903  22.986  43.946  13.404
18644W        W90904  39.581  14.863  12.980
18645W        W90905  35.335  29.716   4.132
18646W        W90906  42.809   5.225   1.560
18647W        W90907  19.638   6.629   0.347
18648W        W90908  27.096  37.439   1.758
18649W        W90909  14.646  13.922   0.245
18650W        W90910  42.406  16.977  11.084
18651W        W90911  42.682  26.545   2.427
18652W        W90912  15.106  13.552  13.289
18653W        W90913  31.444   4.847  13.109
18654W        W90914  19.164  27.617   3.555
18655W        W90915  25.133  18.545   3.717
18656W        W90916  18.269   5.279  13.274
18657W        W90917  17.142  31.979   2.774
18658W        W90918   4.451  30.548   2.138
18659W        W90919   9.259   6.282   1.742
18660W        W90920  34.070  25.031  11.391
18661W        W90921  19.268  41.119  13.165
18662W        W90922  11.644   8.698   3.941
18663W        W90923  11.878  12.417  11.537
18664W        W90924   8.886  22.580   0.056
18665W        W90925   9.471  39.803   4.022
18666W        W90926  32.095  18.143  10.696
18667W        W90927  10.065  16.408   0.698
18668W        W90928  20.561  43.910   0.975
18669W        W90929  32.754   6.333   2.264
18670W        W90930  10.765   0.633  10.655
18671W        W90931  31.429   0.840  10.673
18672W        W90932  14.753  20.500   4.578
18673W        W90933  44.829  35.805  14.023
18674W        W90934   5.329  26.064   5.540
18675W        W90935  41.160  19.325   2.433
18676W        W90936  18.586   7.203  12.014
18677W        W90937  36.171  29.394   4.758
18678W        W90938  11.589  36.887   2.205
18679W        W90939  33.311  35.984  11.949
18680W        W90940  13.174  31.655   0.636
18681W        W90941  30.969  15.095  11.118
18682W        W90942  32.041  33.199   4.779
18683W        W90943  24.191  18.625   0.315
18684W        W90944  24.221   0.704   5.206
18685W        W90945   7.269  44.280  14.223
18686W        W90946  42.831  32.580  12.215
18687W        W90947  23.108  10.899  10.698
18688W        W90948  20.248  29.465  13.015
18689W        W90949   3.411  12.791  11.216
18690W        W90950  24.033  24.451   0.977
18691W        W90951  15.103   2.003   4.137
18692W        W90952  25.593  32.056  12.870
18693W        W90953  14.525  23.152  12.060
18694W        W90954  14.544  42.420  11.674
18695W        W90955   5.610   6.801   1.267
18696W        W90956  37.401  29.296   1.182
18697W        W90957  33.835   5.368  10.648
18698W        W90958  42.770   1.419  13.133
18699W        W90959  12.364  24.200   4.248
18700W        W90960  24.805   3.891   2.321
18701W        W90961  33.330  27.688  13.406
18702W        W90962   2.583   6.411   1.690
18703W        W90963  29.581   1.029   3.737
18704W        W90964  11.352  24.769   3.159
18705W        W90965  16.700  32.321   0.329
18706W        W90966  17.869  24.215   0.776
18707W        W90967   4.830   5.764  11.257
18708W        W90968  36.587   1.383  12.204
18709W        W90969  11.653  12.855   4.315
18710W        W90970  38.505   0.490   1.249
18711W        W90971  25.036   7.563   2.389
18712W        W90972  20.129   2.906  12.384
18713W        W90973   4.404  32.849  10.749
18714W        W90974  19.815  14.409   4.261
18715W        W90975  12.638  25.932   1.782
18716W        W90976  11.141  37.931  11.928
18717W        W90977  10.255  26.077  14.981
18718W        W90978   1.919  21.976   0.443
18719W        W90979  33.353  19.320  12.091
18720W        W90980  15.354   3.426  10.794
18721W        W90981  42.891  36.827  12.516
18722W        W90982   8.827   7.397  13.161
18723W        W90983  13.294  29.518  13.816
18724W        W90984   7.189  10.870   0.025
18725W        W90985  17.927  29.424  14.453
18726W        W90986   3.888   8.452   0.844
18727W        W90987  39.389   2.659   1.648
18728W        W90988  13.227  26.027   4.045
18729W        W90989  18.639  19.838  12.441
18730W        W90990  25.691  18.685  12.603
18731W        W90991  18.329  28.242   4.561
18732W        W90992  19.872  43.816  11.264
18733W        W90993  33.728   3.379   0.166
18734W        W90994  20.449  20.119  11.564
18735W        W90995  14.664   6.667  13.133
18736W        W90996  32.952   4.305   4.625
18737W        W90997   5.020  43.010   0.697
18738W        W90998  22.989  12.544  12.443
18739W        W90999   6.676  30.011   0.938
18740W        W91000   3.405  14.756   2.543
18741W        W91001  35.994  40.462  11.575
18742W        W91002  38.464  44.947  11.718
18743W        W91003  41.509  28.935  12.615
18744W        W91004  23.926  35.197   4.455
18745W        W91005  12.745   6.178   0.379
18746W        W91006  33.489  16.959  14.497
18747W        W91007   8.793  44.421  10.241
18748W        W91008  25.793   1.175   3.768
18749W        W91009  32.917  19.541  11.934
18750W        W91010  10.305  34.180   3.839
18751W        W91011  38.084  13.387  11.004
18752W        W91012  42.079  35.313   2.811
18753W        W91013  22.444  32.383  11.577
18754W        W91014  30.434   0.841  11.880
18755W        W91015   7.678   0.774   0.733
18756W        W91016  36.997  38.150  11.528
18757W        W91017  32.811  41.522  12.909
18758W        W91018  11.151   3.361  13.537
18759W        W91019  38.872  15.713  14.291
18760W        W91020   3.881  31.427  13.380
18761W        W91021  22.231  35.672   4.293
18762W        W91022  30.350  36.270  13.509
18763W        W91023  36.330   3.882   1.398
18764W        W91024  38.293  27.479  11.574
18765W        W91025  29.004  24.995  14.551
18766W        W91026   5.143  26.055  12.510
18767W        W91027   6.445  16.047   1.159
18768W        W91028   4.292  27.179  12.860
18769W        W91029  31.344  19.767  13.014
18770W        W91030  10.039  17.672   1.295
18771W        W91031  14.053  41.411   1.859
18772W        W91032  23.729  21.324  10.677
18773W        W91033   7.208  44.126  13.094
18774W        W91034  16.734  41.388  13.530
18775W        W91035  42.449   1.035  14.633
18776W        W91036  22.709  21.023   3.205
18777W        W91037  34.903  18.566  14.848
18778W        W91038  35.714   1.881  12.578
18779W        W91039  43.386   7.265  13.809
18780W        W91040  28.745  18.020  11.435
18781W        W91041  14.653   0.911  12.118
18782W        W91042  27.281  33.352   0.371
18783W        W91043  18.821  30.595  14.497
18784W        W91044  24.385  23.037  14.333
18785W        W91045  10.311   1.856  10.638
18786W        W91046   5.844   9.786   3.801
18787W        W91047   0.533   5.292   0.229
18788W        W91048  36.437  39.544   2.216
18789W        W91049  32.038  44.521   4.633
18790W        W91050  18.639  42.592   3.841
18791W        W91051   7.767  11.518   4.084
18792W        W91052  35.239  41.443  12.471
18793W        W91053   3.050   8.195  14.055
18794W        W91054  31.495  35.665  13.022
18795W        W91055  37.344  43.960   3.606
18796W        W91056  36.026  21.262  11.694
18797W        W91057  25.249   7.076  13.745
18798W        W91058  19.736  43.747  12.941
18799W        W91059   8.648  16.796  12.074
18800W        W91060  17.199  25.091  11.168
18801W        W91061  25.095  40.280   1.386
18802W        W91062  12.125  23.178  13.639
18803W        W91063  15.557  41.816   0.364
18804W        W91064  16.423  41.149  10.472
18805W        W91065  37.003  18.868   1.731
18806W        W91066  38.549  32.337  12.007
18807W        W91067   7.760  29.090  14.789
18808W        W91068  31.252   1.728  10.813
18809W        W91069  38.940  44.339  13.783
18810W        W91070  18.743  28.936   2.289
18811W        W91071  34.448  29.017   4.931
18812W        W91072  13.323  39.016   0.694
18813W        W91073   9.421  31.453   4.287
18814W        W91074  38.740  10.863   3.299
18815W        W91075   0.303   3.995   1.358
18816W        W91076  36.638  32.956   2.334
18817W        W91077  20.754   2.918  11.830
18818W        W91078  14.372  10.652  12.816
18819W        W91079  31.141   4.423   1.882
18820W        W91080  40.693   1.903   0.018
18821W        W91081  22.464   5.371  12.390
18822W        W91082  20.915   1.302  11.163
18823W        W91083   9.190  32.691   4.414
18824W        W91084  31.595  25.255  14.498
18825W        W91085  33.181  44.806  12.644
18826W        W91086   4.653  14.830   0.433
18827W        W91087  14.038   4.624  13.040
18828W        W91088  39.026  36.832   0.756
18829W        W91089  20.191  12.149   4.294
18830W        W91090  30.117  33.838   4.942
18831W        W91091   8.903  43.041  11.481
18832W        W91092  42.307  34.463   4.863
18833W        W91093   7.674  24.632  14.033
18834W        W91094   9.194   8.567  13.312
18835W        W91095  30.890  32.256  13.113
18836W        W91096  35.395   8.648   3.587
18837W        W91097  17.780  34.168   3.687
18838W        W91098  25.699  22.987  11.504
18839W        W91099   5.227  21.771   1.471
18840W        W91100  20.168  21.602  10.666
18841W        W91101  21.770   0.429  10.883
18842W        W91102  11.902  31.905   2.259
18843W        W91103   3.415  17.558   2.996
18844W        W91104  23.526  24.876   0.611
18845W        W91105   0.430  36.803   3.709
18846W        W91106   0.435  28.618  11.895
18847W        W91107   2.068   6.192  12.007
18848W        W91108   5.705  34.287  11.623
18849W        W91109  15.761   4.824   3.591
18850W        W91110  14.040  34.028   2.299
18851W        W91111  24.775  10.958   3.886
18852W        W91112  30.531   8.207  10.512
18853W        W91113  19.350  41.800  11.479
18854W        W91114  10.392  38.432  13.990
18855W        W91115  22.603  29.641  13.258
18856W        W91116  34.503   5.497  13.080
18857W        W91117  42.065  34.355  11.990
18858W        W91118  44.716  42.868   0.272
18859W        W91119  22.250  34.920  13.089
18860W        W91120  12.296  18.491   2.707
18861W        W91121  15.126  32.781  13.348
18862W        W91122   0.488   5.474   2.190
18863W        W91123  44.429   7.824  10.666
18864W        W91124  20.570   9.576  14.956
18865W        W91125  42.816   3.480  12.479
18866W        W91126  13.273  11.590   3.314
18867W        W91127  19.527  12.243   0.326
18868W        W91128  44.366   4.430  11.126
18869W        W91129  33.651   0.208  10.713
18870W        W91130   0.245  16.128   4.309
18871W        W91131  33.460  18.130  13.512
18872W        W91132  10.530   6.162   1.748
18873W        W91133  12.613   1.271  10.386
18874W        W91134  35.196  24.459   0.571
18875W        W91135  14.173   5.962  14.711
18876W        W91136  22.410  28.229   0.388
18877W        W91137  23.168  17.631   4.069
18878W        W91138   6.807   2.506  11.995
18879W        W91139   2.879   6.184   3.352
18880W        W91140  26.926  37.606  13.799
18881W        W91141  40.128  12.713   5.104
18882W        W91142   2.135  23.502   2.457
18883W        W91143  10.539   3.424  14.499
18884W        W91144  13.866  20.264  11.005
18885W        W91145   7.424   8.574  11.535
18886W        W91146  19.202  39.900  11.974
18887W        W91147   8.387  43.537   4.576
18888W        W91148  30.209  43.928   2.842
18889W        W91149  32.623  20.310  13.836
18890W        W91150  23.436  28.427   4.103
18891W        W91151  40.488  10.666  14.827
18892W        W91152   3.997   4.882   0.832
18893W        W91153  16.465  21.853   0.301
18894W        W91154  30.841  26.563  11.020
18895W        W91155  26.858  39.837   4.927
18896W        W91156   9.651  23.975   4.205
18897W        W91157   8.308   2.203   1.976
18898W        W91158  37.073   3.508   0.009
18899W        W91159  26.541   3.219  12.822
18900W        W91160   4.240  14.746   1.609
18901W        W91161  21.143  22.640  10.519
18902W        W91162  44.199  27.680   0.335
18903W        W91163  25.636  21.218   1.286
18904W        W91164  13.584   7.387   1.709
18905W        W91165  15.174  10.154   4.225
18906W        W91166  28.038  11.961  14.910
18907W        W91167  15.853  20.777  11.513
18908W        W91168  26.520  39.066  14.194
18909W        W91169  43.712  14.738   4.315
18910W        W91170  22.239   8.799  13.777
18911W        W91171  13.702  29.237  14.962
18912W        W91172  25.226  19.820   1.007
18913W        W91173  24.154  39.475   4.266
18914W        W91174   1.579  39.336  13.297
18915W        W91175  13.863  31.494   1.719
18916W        W91176  10.198  19.740  14.498
18917W        W91177  12.587  18.507   0.415
18918W        W91178   2.332  17.773   4.051
18919W        W91179   5.998  27.058  14.379
18920W        W91180   7.235  11.715  10.713
18921W        W91181  29.360   8.812  10.768
18922W        W91182  38.307   6.462   2.216
18923W        W91183  21.905  42.974  14.312
18924W        W91184  39.567  35.251  14.899
18925W        W91185  41.976  10.347   4.895
18926W        W91186   9.079  23.701  11.532
18927W        W91187   1.368  34.927  14.385
18928W        W91188   0.710   3.266   2.895
18929W        W91189   3.000  32.559  14.750
18930W        W91190  34.940  36.396   0.329
18931W        W91191  43.703  12.337  10.930
18932W        W91192  11.089  39.590  14.453
18933W        W91193  13.170  15.306   4.365
18934W        W91194  43.418  31.895   1.412
18935W        W91195  43.279  44.334  11.078
18936W        W91196   3.678  20.523   1.332
18937W        W91197  17.150  28.685   2.746
18938W        W91198  10.432   8.736  12.280
18939W        W91199  40.259  10.830   2.370
18940W        W91200  18.029  22.163  14.854
18941W        W91201   8.643  11.125  12.960
18942W        W91202   8.571  12.421   4.631
18943W        W91203  19.452  38.882   4.256
18944W        W91204  26.690  22.053  12.805
18945W        W91205  29.902  32.556   3.092
18946W        W91206   9.374  17.277  12.070
18947W        W91207  36.122  18.098  14.331
18948W        W91208   3.438  26.487  10.765
18949W        W91209   6.911  33.390  12.884
18950W        W91210   1.272  23.118  10.698
18951W        W91211  28.494  41.002   2.979
18952W        W91212  17.504  36.448   3.650
18953W        W91213   1.967  38.043   1.258
18954W        W91214  13.121  18.586  12.067
18955W        W91215  11.949  41.335   0.812
18956W        W91216  12.675  33.967   1.312
18957W        W91217  38.322  44.510  14.904
18958W        W91218  11.665  18.365  12.982
18959W        W91219  15.090  41.900   3.180
18960W        W91220  12.330  40.533   1.088
18961W        W91221  36.503  13.148   1.000
18962W        W91222  27.052   4.768  10.794
18963W        W91223  12.851  33.452  13.917
18964W        W91224  11.030  34.010  12.964
18965W        W91225  29.488  38.298  12.355
18966W        W91226  25.428   2.379  11.549
18967W        W91227  42.607   4.769   3.057
18968W        W91228  37.390  26.529  10.797
18969W        W91229  38.592  15.187   2.853
18970W        W91230   6.816   4.935  13.863
18971W        W91231   0.517  23.959   4.601
18972W        W91232  27.890   7.254  12.924
18973W        W91233   0.435  12.105   3.258
18974W        W91234  36.617  35.560  14.743
18975W        W91235  31.439  40.221   1.765
18976W        W91236  16.793  29.920  14.953
18977W        W91237  17.994   7.433   2.747
18978W        W91238  40.842  36.835   2.856
18979W        W91239  43.772  33.513  13.645
18980W        W91240  21.086  15.586   4.700
18981W        W91241  11.128  28.963  11.045
18982W        W91242  17.690   9.115   3.527
18983W        W91243  34.383   7.850  13.434
18984W        W91244  44.465  18.234   3.589
18985W        W91245  32.627  14.290  11.971
18986W        W91246   0.917   2.833  10.502
18987W        W91247  32.544  28.697  14.939
18988W        W91248  42.538  42.643   3.127
18989W        W91249  19.248  19.751   0.838
18990W        W91250  12.387   5.194  12.360
18991W        W91251  19.096  18.255   2.803
18992W        W91252  17.668  18.334  10.574
18993W        W91253  30.660  30.608  14.901
18994W        W91254  29.923  16.357  12.014
18995W        W91255  31.507  24.119   0.065
18996W        W91256  16.330  32.708   3.314
18997W        W91257  30.740  44.746   1.902
18998W        W91258  25.099  12.639   1.736
18999W        W91259  22.024  27.312  14.954
19000W        W91260  11.835  16.556   4.591
19001W        W91261  40.330   6.429   0.422
19002W        W91262  24.445   9.772  11.203
19003W        W91263  14.573  15.328  10.718
19004W        W91264  35.427   3.412   0.561
19005W        W91265  20.942  26.066  11.472
19006W        W91266  40.288   5.260   4.366
19007W        W91267  36.895  19.076  12.962
19008W        W91268  25.723  14.822   2.773
19009W        W91269  18.262  17.359   1.567
19010W        W91270  23.945  10.188   4.579
19011W        W91271  24.519  17.034  10.939
19012W        W91272  12.139  13.396   3.119
19013W        W91273  36.553   2.304   3.227
19014W        W91274  23.272  38.000  13.546
19015W        W91275  27.131  42.548  12.817
19016W        W91276  41.375   6.181  11.677
19017W        W91277   6.250  33.947   4.608
19018W        W91278  18.196  26.563  11.176
19019W        W91279  27.640  13.379   0.933
19020W        W91280   0.740  42.740   4.411
19021W        W91281  32.053  20.180  14.458
19022W        W91282  11.205  11.949   1.358
19023W        W91283  41.839  20.843  12.666
19024W        W91284  28.895  39.677   0.566
19025W        W91285  21.748  12.340   2.021
19026W        W91286   0.587  40.110  12.495
19027W        W91287  25.618  15.607   0.153
19028W        W91288  10.266  13.015   5.128
19029W        W91289   2.915   0.840   2.882
19030W        W91290  34.530  24.961  10.522
19031W        W91291  28.557  25.870  10.814
19032W        W91292  15.013   2.890  14.514
19033W        W91293  26.529  32.832   0.260
19034W        W91294  41.818   3.716   3.762
19035W        W91295   4.931  27.582  14.975
19036W        W91296   7.918   5.702   1.731
19037W        W91297  38.495  26.773   2.750
19038W        W91298  22.302  44.717   1.375
19039W        W91299  34.635  12.420  13.078
19040W        W91300  10.100  23.096  14.506
19041W        W91301  20.064   1.891  11.123
19042W        W91302  40.266  39.347  11.063
19043W        W91303  11.927   2.393   3.847
19044W        W91304  42.983  41.305  14.443
19045W        W91305  22.998  44.323   2.195
19046W        W91306  26.757  37.128  14.552
19047W        W91307  30.963   3.398  14.450
19048W        W91308  11.678  13.786  11.389
19049W        W91309  10.167  33.084  13.357
19050W        W91310  14.582   1.486   1.926
19051W        W91311  30.239  18.716   3.392
19052W        W91312  16.362  30.242   4.084
19053W        W91313  22.138  44.436   0.463
19054W        W91314  41.005  11.912   2.103
19055W        W91315  20.320  43.418   2.216
19056W        W91316  40.754  33.682  13.358
19057W        W91317  20.551  23.445   0.220
19058W        W91318   3.443  18.798  14.794
19059W        W91319  31.594  32.433   4.738
19060W        W91320  21.314  43.197  10.706
19061W        W91321   8.130   2.764   4.686
19062W        W91322   5.371   4.364   4.366
19063W        W91323  25.713  24.610   0.447
19064W        W91324  44.962  35.674   3.239
19065W        W91325  41.392  16.648   2.504
19066W        W91326   8.843  13.759  11.124
19067W        W91327   3.224  33.364  11.210
19068W        W91328  25.484   2.690   1.003
19069W        W91329  11.636  35.816   4.612
19070W        W91330  44.324  13.337   1.168
19071W        W91331  16.516  24.983  14.576
19072W        W91332  11.216  16.394   1.393
19073W        W91333  28.935  18.252   1.496
19074W        W91334  13.010  27.068   1.793
19075W        W91335   0.722   9.271   1.276
19076W        W91336  13.534  14.444   4.973
19077W        W91337  14.296  17.673   5.623
19078W        W91338  20.204  29.498   0.103
19079W        W91339  11.132  43.933   2.646
19080W        W91340  15.129  35.304   2.800
19081W        W91341  26.469  34.553   3.598
19082W        W91342  32.256  22.705  10.256
19083W        W91343  41.708   4.233  11.072
19084W        W91344  32.842  26.755   0.285
19085W        W91345  33.989  23.472   1.865
19086W        W91346  19.808  43.499   2.143
19087W        W91347   4.960   7.789  12.658
19088W        W91348  22.514  21.247  14.935
19089W        W91349  31.268   2.360   3.724
19090W        W91350  40.105  39.586  12.872
19091W        W91351  15.233  23.489   4.543
19092W        W91352   2.431   2.365   2.891
19093W        W91353   7.130   4.992   1.430
19094W        W91354  35.058  25.065   0.820
19095W        W91355  18.173  16.708   3.333
19096W        W91356   8.175  24.112  12.519
19097W        W91357  25.203   2.893  12.795
19098W        W91358  12.746  10.960  11.397
19099W        W91359  41.380  25.007   3.624
19100W        W91360  35.667  34.455  10.644
19101W        W91361  23.442  26.542  10.726
19102W        W91362   8.770  17.136  13.824
19103W        W91363  25.889  23.831   1.876
19104W        W91364  28.157   1.949  14.332
19105W        W91365  11.165  24.198   1.143
19106W        W91366  16.606  16.893  12.391
19107W        W91367  41.606   6.822   2.404
19108W        W91368   4.277   0.590   4.636
19109W        W91369  24.484  42.625   4.478
19110W        W91370  30.999  13.579   2.910
19111W        W91371  31.866   8.743   3.237
19112W        W91372  38.980  21.030   3.208
19113W        W91373   1.276  14.939   3.249
19114W        W91374  16.449  25.024  10.703
19115W        W91375  18.651  26.406  11.403
19116W        W91376  22.612  15.764   0.675
19117W        W91377  34.806   8.661  11.608
19118W        W91378  26.488   1.851  11.130
19119W        W91379  23.821  42.509  14.433
19120W        W91380  12.158  27.175  13.537
19121W        W91381   0.168  24.163  11.976
19122W        W91382  16.756  13.284   4.272
19123W        W91383  42.320  14.130  10.667
19124W        W91384  26.888   9.380  10.617
19125W        W91385   6.256  24.621  12.463
19126W        W91386  26.039   5.833   0.657
19127W        W91387  20.309   1.796  11.600
19128W        W91388  24.058  37.956  11.673
19129W        W91389  23.009  33.499  11.079
19130W        W91390  11.133  44.030  13.916
19131W        W91391   4.214  27.056   4.087
19132W        W91392  20.975  25.179   0.521
19133W        W91393  17.133   5.726  12.480
19134W        W91394  26.730  40.506  11.005
19135W        W91395   9.626   8.649   2.886
19136W        W91396   1.992   2.584   2.279
19137W        W91397  16.361   9.295  14.401
19138W        W91398  25.776   9.296  12.168
19139W        W91399  19.982  19.605   1.285
19140W        W91400  39.446  34.541   4.610
19141W        W91401   0.022  40.277  13.442
19142W        W91402   6.164  13.617   2.376
19143W        W91403  22.622  42.032  12.873
19144W        W91404   5.691   6.032  10.665
19145W        W91405  13.628  27.066  12.524
19146W        W91406  31.072  22.284  12.586
19147W        W91407   2.269  25.794  14.846
19148W        W91408   9.380  34.637  12.232
19149W        W91409   7.269  12.908  12.477
19150W        W91410  21.174  37.865  13.393
19151W        W91411  14.293  40.938  12.920
19152W        W91412  17.891   7.744   0.254
19153W        W91413   0.718  15.362  13.988
19154W        W91414   7.691  28.736   4.166
19155W        W91415  16.387  14.156  10.068
19156W        W91416   0.478  21.165   4.574
19157W        W91417  20.650  44.340   4.557
19158W        W91418  12.318  26.239  12.465
19159W        W91419  15.175  37.864  13.847
19160W        W91420  33.435  24.516  14.910
19161W        W91421   4.861   3.095  11.236
19162W        W91422   9.927  34.193   2.584
19163W        W91423  26.130  22.490   2.474
19164W        W91424  44.604  11.684   1.324
19165W        W91425  29.726  26.996   0.697
19166W        W91426  10.487  36.488  10.764
19167W        W91427  22.266  42.013   3.285
19168W        W91428  34.625  36.112  14.574
19169W        W91429  28.431  28.498   4.575
19170W        W91430  16.642   9.634   2.721
19171W        W91431  25.866   1.740   0.344
19172W        W91432  19.698  13.319  13.294
19173W        W91433  13.163   9.984   2.344
19174W        W91434   1.904  43.955  11.492
19175W        W91435  25.243  26.935  12.743
19176W        W91436   0.285  32.353  14.032
19177W        W91437   9.550  43.285   4.299
19178W        W91438  41.061  40.047  10.653
19179W        W91439  14.484   3.699   2.187
19180W        W91440  22.582   2.079  14.784
19181W        W91441   9.422   7.889  12.936
19182W        W91442   3.976   3.838  12.361
19183W        W91443  26.219  17.293   4.191
19184W        W91444   3.313  22.611   4.625
19185W        W91445  33.219  26.403   0.070
19186W        W91446  33.305  36.459  11.721
19187W        W91447  44.393  26.637   1.795
19188W        W91448  25.512  44.531  11.609
19189W        W91449   4.832  14.811  11.208
19190W        W91450  29.035  25.184  11.457
19191W        W91451  16.574  13.324  14.672
19192W        W91452  10.340  21.746  14.494
19193W        W91453  42.898  32.474   4.741
19194W        W91454  34.742  38.978  14.536
19195W        W91455  29.090  36.109  12.936
19196W        W91456  40.618  23.005   1.676
19197W        W91457  13.444   9.799   1.304
19198W        W91458  32.410  30.712   0.943
19199W        W91459  22.736  24.895  14.495
19200W        W91460  18.540  24.095   3.171
19201W        W91461  39.890  15.669   3.633
19202W        W91462  17.615  39.453   0.427
19203W        W91463   8.308   1.048  13.012
19204W        W91464  14.225   5.742   0.780
19205W        W91465  17.133  36.497   1.162
19206W        W91466  32.990  19.972   0.694
19207W        W91467  22.954   1.419   1.324
19208W        W91468   9.900  27.576  13.299
19209W        W91469  27.657  18.592  12.999
19210W        W91470  14.694  27.176   2.233
19211W        W91471  31.537   5.324   0.911
19212W        W91472  41.383  28.056   1.283
19213W        W91473   4.469  14.838  14.260
19214W        W91474  37.865  26.661  10.645
19215W        W91475  43.878  22.649   4.615
19216W        W91476   3.869  15.672  13.522
19217W        W91477  24.294  13.153   0.808
19218W        W91478   9.717  39.980  10.670
19219W        W91479   3.834  14.086   2.683
19220W        W91480  37.068  39.585   2.725
19221W        W91481   3.949  20.456  14.955
19222W        W91482  11.422  42.947  10.607
19223W        W91483  35.866   4.437  14.803
19224W        W91484  31.802  33.019   4.330
19225W        W91485  43.956  15.055  13.020
19226W        W91486   2.721  39.790   3.168
19227W        W91487  38.793  21.124  10.745
19228W        W91488   4.503  30.375   0.505
19229W        W91489  10.816  36.925  12.547
19230W        W91490   4.784  35.471   2.280
19231W        W91491   4.972  37.091  14.070
19232W        W91492   3.496  43.857   3.633
19233W        W91493  12.973  37.060   3.644
19234W        W91494  22.212  26.825   0.054
19235W        W91495  22.829  13.855   1.792
19236W        W91496  38.952  10.781  11.001
19237W        W91497  16.688   2.244  10.633
19238W        W91498  22.729  31.058  13.951
19239W        W91499  20.193  35.597  10.436
19240W        W91500  38.592  32.718   3.579
19241W        W91501   7.737  38.626  10.830
19242W        W91502  35.135  15.390   0.837
19243W        W91503  28.543  20.056  10.829
19244W        W91504  44.286  44.090   2.652
19245W        W91505  12.321  26.682  12.818
19246W        W91506   6.524  15.649  13.923
19247W        W91507  32.662   9.724  13.829
19248W        W91508  16.570  24.171   2.349
19249W        W91509  41.464  11.389   2.833
19250W        W91510  38.646   5.350   4.944
19251W        W91511  14.132   3.192  12.987
19252W        W91512  38.485  23.284  11.967
19253W        W91513  37.991  37.231   5.058
19254W        W91514  33.564   4.358  14.625
19255W        W91515   4.184  22.936  12.469
19256W        W91516  22.381   4.018   2.727
19257W        W91517   3.896  24.270  11.134
19258W        W91518   6.481   3.431  12.769
19259W        W91519  36.984  29.173  12.146
19260W        W91520  41.503  10.771   3.801
19261W        W91521  22.424  25.189   3.136
19262W        W91522  25.704  43.201  12.996
19263W        W91523   3.222   8.282   1.447
19264W        W91524  28.146  40.585   1.285
19265W        W91525  40.554   0.480   3.346
19266W        W91526  13.839  33.900  12.592
19267W        W91527  44.950   3.810   4.316
19268W        W91528  24.319   8.310   4.097
19269W        W91529  28.753  32.183  11.036
19270W        W91530  28.211  18.111  10.720
19271W        W91531  30.199  33.378  12.482
19272W        W91532   9.305   9.370  14.554
19273W        W91533  16.277  20.556  14.993
19274W        W91534   0.236  23.008  12.602
19275W        W91535   5.917  40.432   0.875
19276W        W91536  12.890  25.152   1.515
19277W        W91537   4.498  17.786  10.666
19278W        W91538  12.859   6.118  12.135
19279W        W91539   9.648  13.533   0.883
19280W        W91540  28.365  10.628   0.327
19281W        W91541   6.693  19.276   1.399
19282W        W91542  36.361  18.594   2.274
19283W        W91543  28.619  17.524  12.654
19284W        W91544  20.655  22.428   4.636
19285W        W91545   6.781  44.189  12.010
19286W        W91546  10.727  27.655  11.948
19287W        W91547  40.015  26.448  13.616
19288W        W91548  19.822  42.068  13.707
19289W        W91549  26.912  34.335   4.271
19290W        W91550   6.266   9.913   4.157
19291W        W91551   7.758   9.266   3.777
19292W        W91552  26.653  44.250   1.885
19293W        W91553  30.176  13.338  12.600
19294W        W91554  31.172  20.306  14.635
19295W        W91555  37.249  21.675   3.809
19296W        W91556  14.335  32.521   0.990
19297W        W91557  27.980  40.733   4.642
19298W        W91558  38.845  19.475   2.917
19299W        W91559  18.106   8.635  14.805
19300W        W91560  32.138   8.912  14.231
19301W        W91561   3.919  20.746  12.057
19302W        W91562   1.106  39.288   0.861
19303W        W91563  13.244  16.536  12.083
19304W        W91564  21.301  13.817  13.531
19305W        W91565   8.960  11.178  12.504
19306W        W91566  32.831  30.685   2.251
19307W        W91567  41.869  38.282   4.850
19308W        W91568  31.534   0.242  12.521
19309W        W91569  42.732  19.675   1.396
19310W        W91570  22.432  31.772   5.092
19311W        W91571  40.738  13.712  14.848
19312W        W91572   8.647   3.900  14.355
19313W        W91573  14.083  31.093  13.766
19314W        W91574   1.675  36.151  12.922
19315W        W91575  21.555  41.231   0.750
19316W        W91576   5.705  22.060   4.966
19317W        W91577  26.169  29.919   3.175
19318W        W91578  39.283  33.414   0.868
19319W        W91579  29.027  25.272  13.867
19320W        W91580  42.572  23.411   2.199
19321W        W91581  34.868   1.248   2.181
19322W        W91582  13.720  28.620  14.106
19323W        W91583  37.402   9.091   2.071
19324W        W91584  12.369  39.123  13.292
19325W        W91585  24.017  20.087   1.876
19326W        W91586  26.538  15.827   0.528
19327W        W91587   6.427   3.807  11.696
19328W        W91588  14.691  28.935  11.530
19329W        W91589  24.279   4.800  14.032
19330W        W91590   7.097  43.209   0.922
19331W        W91591  39.287  43.808  13.106
19332W        W91592   4.045  24.879   1.587
19333W        W91593   5.442   4.307   0.037
19334W        W91594  36.306  17.606  14.732
19335W        W91595  39.887  32.985   3.874
19336W        W91596  43.924  34.705   2.326
19337W        W91597  11.923  38.653  14.012
19338W        W91598  33.137  34.908   3.859
19339W        W91599  31.267  32.396  13.842
19340W        W91600   0.549  10.444   0.988
19341W        W91601  42.438  23.278   4.625
19342W        W91602  38.469  43.357   2.414
19343W        W91603   2.166  14.537   0.392
19344W        W91604  28.952  37.993   0.060
19345W        W91605  38.463  36.075  12.378
19346W        W91606  20.520  15.856  12.800
19347W        W91607  11.551  28.170   1.868
19348W        W91608  14.253   4.947   0.409
19349W        W91609  11.770  18.697   3.414
19350W        W91610  22.811  21.035   1.122
19351W        W91611  10.155  18.151  11.160
19352W        W91612  16.343  34.288  11.057
19353W        W91613   9.708  42.266  14.856
19354W        W91614  33.877  32.638  14.856
19355W        W91615  35.580  43.003   2.826
19356W        W91616   7.169  26.416  14.792
19357W        W91617  11.365  14.858  10.381
19358W        W91618   5.186   7.870   3.523
19359W        W91619  38.287  21.343   2.132
19360W        W91620  15.371   6.199   4.668
19361W        W91621  31.913  22.348  14.975
19362W        W91622  23.050  24.930   4.575
19363W        W91623  24.939  20.424   3.242
19364W        W91624  23.652  35.127   3.131
19365W        W91625  33.043  25.660   2.897
19366W        W91626  29.980  31.852  14.486
19367W        W91627  27.942   4.245   0.909
19368W        W91628  37.473  28.599   1.776
19369W        W91629  33.472  14.711   2.748
19370W        W91630  25.310  36.376   4.268
19371W        W91631   3.709  28.463   3.708
19372W        W91632  24.498  29.939  11.555
19373W        W91633  39.658   3.410   2.714
19374W        W91634  15.071  35.109  10.682
19375W        W91635  23.552  26.425  14.345
19376W        W91636  43.283  34.570  10.351
19377W        W91637  17.840   4.800  10.525
19378W        W91638  24.783  11.212  13.739
19379W        W91639  37.984  40.406  11.619
19380W        W91640  30.214  42.704  10.761
19381W        W91641   9.434  29.104   3.158
19382W        W91642  17.770  26.273  12.917
19383W        W91643   7.682   8.200   4.524
19384W        W91644  15.825  18.594   3.729
19385W        W91645  18.483   3.689   4.610
19386W        W91646  14.116  14.958   0.024
19387W        W91647  42.770   3.398   1.674
19388W        W91648  37.850  13.236  11.800
19389W        W91649   8.857  13.884   4.398
19390W        W91650  40.837  41.973   4.014
19391W        W91651   9.887  10.652  14.442
19392W        W91652  22.122   6.681  14.316
19393W        W91653   2.662  31.733   1.284
19394W        W91654  26.555   2.752   4.921
19395W        W91655  39.811  35.323  12.438
19396W        W91656   7.527  18.640  11.767
19397W        W91657  28.598  27.222  10.678
19398W        W91658  11.753  28.961   3.226
19399W        W91659  22.032   5.181   3.271
19400W        W91660  19.137  26.575   1.876
19401W        W91661   8.280  38.436  10.495
19402W        W91662  23.618  27.959   0.742
19403W        W91663  11.195  23.688   1.824
19404W        W91664  11.375  26.057   4.548
19405W        W91665  25.547  38.245  11.569
19406W        W91666  44.833   2.379   3.422
19407W        W91667  28.187   9.629   1.934
19408W        W91668  40.990   0.019  14.740
19409W        W91669  35.573  31.477   0.467
19410W        W91670   6.959  28.209  12.098
19411W        W91671  37.827   1.702  13.365
19412W        W91672  27.334  30.079  12.462
19413W        W91673  22.259  43.310  14.466
19414W        W91674  30.528  18.142  14.461
19415W        W91675  21.014   0.202  13.774
19416W        W91676  42.453  20.055  13.732
19417W        W91677  24.183  21.923   3.308
19418W        W91678  38.267  44.472  11.637
19419W        W91679  31.426  19.183   0.794
19420W        W91680  44.492   5.206   3.821
19421W        W91681   9.203  28.611  11.229
19422W        W91682   1.762   1.457   3.257
19423W        W91683   0.961  42.966  13.395
19424W        W91684  36.944  44.505   4.731
19425W        W91685  31.434  13.895  12.441
19426W        W91686  26.245  30.423   0.726
19427W        W91687  26.530  17.230  11.571
19428W        W91688   0.994  10.811   1.175
19429W        W91689  34.032   3.323  12.337
19430W        W91690   4.140  32.346   2.860
19431W        W91691   8.370   8.867  11.653
19432W        W91692  12.807  40.670  12.573
19433W        W91693  33.068  13.246  13.957
19434W        W91694  41.789  34.585  12.450
19435W        W91695  20.749  29.673  12.346
19436W        W91696   6.360  17.563  12.231
19437W        W91697  23.162   5.910  11.314
19438W        W91698  34.136  38.372   0.398
19439W        W91699  33.834  35.971  13.863
19440W        W91700  43.012  28.514   1.822
19441W        W91701  34.320  37.102   2.172
19442W        W91702   1.015   3.669   2.634
19443W        W91703  16.505  16.745  10.690
19444W        W91704  42.929   6.708  13.774
19445W        W91705   1.712   4.797  13.317
19446W        W91706   9.340  41.038  13.379
19447W        W91707  42.258  21.012   1.837
19448W        W91708  39.534  38.007  12.077
19449W        W91709  40.563  42.396   2.694
19450W        W91710  35.960   8.618   3.418
19451W        W91711   7.909   1.488   0.508
19452W        W91712  40.511  43.786   3.916
19453W        W91713  11.703  17.981  12.624
19454W        W91714  14.161  31.490  14.106
19455W        W91715  25.920  28.602   3.503
19456W        W91716  21.538  34.342  11.110
19457W        W91717  22.764  21.223   2.254
19458W        W91718  12.876  17.565   2.680
19459W        W91719   8.301  21.611   1.887
19460W        W91720  38.012  32.438  13.443
19461W        W91721  37.492  29.758   1.444
19462W        W91722  15.777  15.207   4.808
19463W        W91723  32.493   4.261   3.969
19464W        W91724  33.125  42.169  11.743
19465W        W91725  28.200  19.107  11.433
19466W        W91726  10.437  11.155  12.534
19467W        W91727   2.430  10.264  12.016
19468W        W91728   3.428  22.770   1.384
19469W        W91729  11.358  33.870  12.364
19470W        W91730   4.287  25.690  11.162
19471W        W91731  16.279   1.669  11.165
19472W        W91732  25.550  24.508   3.205
19473W        W91733  32.146  35.504   1.728
19474W        W91734   5.780   6.437  14.987
19475W        W91735   1.668  21.685   1.699
19476W        W91736  14.532   4.516  13.977
19477W        W91737  14.800  32.651   0.712
19478W        W91738  27.786   8.097   4.602
19479W        W91739  26.566  19.012  12.428
19480W        W91740  19.633  42.496   2.892
19481W        W91741  11.273   7.806  12.838
19482W        W91742  17.077  23.053  13.900
19483W        W91743  42.113  36.009  13.209
19484W        W91744  40.658  36.928  11.650
19485W        W91745   4.789   6.770  13.478
19486W        W91746  15.836  21.737  14.968
19487W        W91747  11.725  34.945  12.553
19488W        W91748  20.420   8.751  13.879
19489W        W91749   9.416  27.287  12.507
19490W        W91750  23.522  35.417   3.688
19491W        W91751  43.872  41.996  13.920
19492W        W91752  29.934  36.001   3.053
19493W        W91753  10.154   2.358   4.202
19494W        W91754  36.337   6.767   2.618
19495W        W91755  29.963  39.443  14.042
19496W        W91756  31.320  11.919   2.290
19497W        W91757  10.074   1.475  14.279
19498W        W91758   3.233  37.940  13.652
19499W        W91759  26.919  30.987   3.781
19500W        W91760  30.664  11.059  14.252
19501W        W91761  13.187   7.440  12.061
19502W        W91762  19.329  31.604  12.890
19503W        W91763  25.124  28.144   1.763
19504W        W91764  34.693  21.680  11.985
19505W        W91765  37.521   0.732  14.317
19506W        W91766  37.458  44.386  14.904
19507W        W91767  28.269  24.163  13.433
19508W        W91768  31.629  31.067  12.857
19509W        W91769  35.693  29.133  12.429
19510W        W91770   6.221  12.572   2.699
19511W        W91771  41.985  38.088   0.916
19512W        W91772  40.980  14.201  14.444
19513W        W91773  36.020  16.313   4.474
19514W        W91774  16.679  20.818  13.250
19515W        W91775  29.420   0.321   2.258
19516W        W91776  17.966  43.563   1.348
19517W        W91777   8.307  18.068  14.202
19518W        W91778   4.255  12.629  11.599
19519W        W91779  34.942  34.841   3.248
19520W        W91780  43.748  25.729   3.391
19521W        W91781  22.738  40.895  14.077
19522W        W91782   0.450  24.990   2.176
19523W        W91783  13.219  11.218  10.498
19524W        W91784  31.023   2.670   0.866
19525W        W91785  13.115  33.548  12.537
19526W        W91786  30.956  27.830   2.900
19527W        W91787  19.453  42.332  12.290
19528W        W91788  31.941  28.308  12.877
19529W        W91789  42.059   1.062   4.072
19530W        W91790  41.787  31.375  13.068
19531W        W91791  17.119  42.196   2.624
19532W        W91792  35.927   9.734  13.786
19533W        W91793  10.359  15.263  12.366
19534W        W91794   6.949   1.192   1.266
19535W        W91795   5.360  33.413  12.652
19536W        W91796  26.092  37.645  13.658
19537W        W91797  19.347   5.089   5.635
19538W        W91798  44.721   7.211   3.701
19539W        W91799  11.553  43.924   0.321
19540W        W91800  42.747  15.001   4.317
19541W        W91801  10.151  43.553  13.376
19542W        W91802   9.889  35.138   0.736
19543W        W91803  23.731  25.160   2.381
19544W        W91804  30.508  16.685   2.864
19545W        W91805  43.010  40.304  11.750
19546W        W91806  28.168  26.566   2.629
19547W        W91807  29.424  25.224  13.353
19548W        W91808   0.057   8.302   2.483
19549W        W91809  39.339  33.689   0.386
19550W        W91810  33.937  11.452   2.882
19551W        W91811  41.091  21.674  14.311
19552W        W91812  13.680  16.279  12.092
19553W        W91813  41.156  18.324  11.767
19554W        W91814  13.361  32.385  14.963
19555W        W91815  19.927  42.079   1.826
19556W        W91816  16.686   4.901  14.145
19557W        W91817  25.911  19.301   0.234
19558W        W91818  30.171   5.798   4.124
19559W        W91819   1.516   0.249   2.963
19560W        W91820   3.470  35.978   2.452
19561W        W91821  38.858  30.197   4.009
19562W        W91822  19.104  43.768  13.381
19563W        W91823  37.867   2.026   2.227
19564W        W91824  30.640   0.232   0.324
19565W        W91825  26.083  16.790  13.353
19566W        W91826  31.986  14.955   4.936
19567W        W91827  40.220  11.998  11.985
19568W        W91828  35.925  33.436  13.358
19569W        W91829  19.720   2.672  11.042
19570W        W91830   0.296   2.269  12.601
19571W        W91831  33.372  31.467  13.534
19572W        W91832   9.816  38.286   3.689
19573W        W91833  32.092   2.929  11.679
19574W        W91834  35.496  14.677  12.829
19575W        W91835  20.262  14.081   3.025
19576W        W91836  19.999  12.752   1.692
19577W        W91837  24.354  12.825  13.005
19578W        W91838   7.256  16.311  13.314
19579W        W91839   0.296   0.883   2.853
19580W        W91840  34.284  44.844   1.309
19581W        W91841   7.236  17.214   0.763
19582W        W91842  33.015  11.134  12.932
19583W        W91843  33.054   3.409  13.837
19584W        W91844  10.168  36.939  12.095
19585W        W91845  21.066   2.177  10.244
19586W        W91846  26.990   6.166   9.920
19587W        W91847  39.952  33.014   0.879
19588W        W91848  21.916  39.830  10.679
19589W        W91849   5.702  16.671   1.649
19590W        W91850  25.527  21.440   0.457
19591W        W91851  35.204   9.164   5.138
19592W        W91852  34.487  37.388  14.792
19593W        W91853  38.426  17.242   1.422
19594W        W91854  41.582  44.014  14.782
19595W        W91855  11.244   0.036   1.469
19596W        W91856  17.247  14.627   0.086
19597W        W91857  12.303   6.867  13.191
19598W        W91858  15.319  10.903   0.420
19599W        W91859  35.325  24.100  10.419
19600W        W91860  43.056   5.171  13.067
19601W        W91861  18.253  44.907  10.709
19602W        W91862  21.804  15.817   0.705
19603W        W91863  15.004  40.555  13.992
19604W        W91864  17.562   8.348  13.043
19605W        W91865  24.999  43.399   4.874
19606W        W91866  34.229  33.405   4.027
19607W        W91867  18.979   3.553  11.604
19608W        W91868  14.719  38.064  14.567
19609W        W91869   3.570  44.252  13.228
19610W        W91870  43.845  41.209   4.205
19611W        W91871   3.389  31.560   0.326
19612W        W91872  25.532  42.953  13.418
19613W        W91873   8.623  10.709   0.784
19614W        W91874  28.452  28.443   1.680
19615W        W91875  24.187  40.274  10.612
19616W        W91876  31.519   0.455   1.266
19617W        W91877  26.659  25.027  14.291
19618W        W91878  44.817  23.474  11.152
19619W        W91879  43.422  16.124   0.443
19620W        W91880  28.433  17.415  13.867
19621W        W91881  36.519   6.860   0.454
19622W        W91882   8.935  26.773   4.162
19623W        W91883  42.533  21.569  13.358
19624W        W91884  42.251  23.130   4.159
19625W        W91885  22.250  14.321  11.015
19626W        W91886  13.441  27.481   5.277
19627W        W91887  35.524  28.730   0.180
19628W        W91888  29.924  15.567   2.337
19629W        W91889  35.441   9.682  11.077
19630W        W91890  44.361  30.630  10.433
19631W        W91891  15.470  41.118  13.583
19632W        W91892  37.926  28.471   0.454
19633W        W91893   1.877  34.218  13.830
19634W        W91894  15.831  42.876  14.497
19635W        W91895   3.772  22.588   3.269
19636W        W91896  32.952   0.824  12.791
19637W        W91897   9.702  10.584   3.666
19638W        W91898   3.069  28.058   3.360
19639W        W91899  12.085  13.354  10.262
19640W        W91900   6.440  12.615  14.989
19641W        W91901  14.375  17.123  10.244
19642W        W91902   7.075   7.423   0.533
19643W        W91903  33.684  38.625   0.417
19644W        W91904  17.602  19.196   2.779
19645W        W91905  30.908  31.975   1.835
19646W        W91906  27.519  11.953  14.785
19647W        W91907   9.391   2.304  13.412
19648W        W91908  25.434  14.629   0.488
19649W        W91909   0.981  32.589   0.864
19650W        W91910  27.156  19.114   4.924
19651W        W91911  19.685  21.616   4.410
19652W        W91912  32.990  28.884   1.747
19653W        W91913  36.952  35.506   3.307
19654W        W91914  37.263  44.285  11.985
19655W        W91915  13.176  19.823  10.054
19656W        W91916  27.661  42.488  12.203
19657W        W91917  29.560  40.791   4.040
19658W        W91918   9.133   2.860   4.667
19659W        W91919  13.856  18.021   4.167
19660W        W91920  19.787  26.668  10.683
19661W        W91921   8.258  32.240   1.240
19662W        W91922  20.738  26.103   5.407
19663W        W91923  32.622  12.779  12.033
19664W        W91924  16.188  44.696  13.482
19665W        W91925  15.800  13.146   3.458
19666W        W91926  43.446  25.141  11.006
19667W        W91927  40.508  23.730   2.720
19668W        W91928   7.734   4.324   4.534
19669W        W91929   0.220   2.830   4.761
19670W        W91930  38.283  44.930   2.930
19671W        W91931  34.411  20.234  12.998
19672W        W91932  38.004  16.170  11.392
19673W        W91933  12.337  38.162   1.059
19674W        W91934  13.470  35.865  13.416
19675W        W91935  17.717  30.789  12.967
19676W        W91936  24.248  10.686   1.533
19677W        W91937  37.686   4.831   4.238
19678W        W91938  36.835  24.241  11.107
19679W        W91939  35.345  17.682  14.301
19680W        W91940  23.067  26.868  10.906
19681W        W91941   6.467  14.410  11.974
19682W        W91942  12.277  20.820  13.215
19683W        W91943  14.947  42.995   0.362
19684W        W91944  10.251  22.085  11.740
19685W        W91945   1.392   5.401  10.643
19686W        W91946   3.444  23.070   2.145
19687W        W91947   4.222  44.476  13.801
19688W        W91948   3.429  31.654  13.523
19689W        W91949  41.061  39.851  11.128
19690W        W91950   1.528  23.095   4.754
19691W        W91951  35.785  11.817  11.073
19692W        W91952   2.675  37.855   4.908
19693W        W91953  42.564   3.147  11.355
19694W        W91954  32.070  38.912   5.120
19695W        W91955   1.877  12.306  11.085
19696W        W91956  24.822  18.005   2.355
19697W        W91957  40.782  10.410  11.063
19698W        W91958  37.290   6.222   2.490
19699W        W91959  39.347   3.901  13.419
19700W        W91960  13.548  14.265   2.641
19701W        W91961  41.934   6.573  10.326
19702W        W91962  13.367   9.764   1.835
19703W        W91963  39.124  42.526   2.305
19704W        W91964  44.452  30.372  13.295
19705W        W91965   1.437  16.783   3.024
19706W        W91966  16.703   2.013  14.282
19707W        W91967  37.575   9.321  14.564
19708W        W91968  31.197   2.983  14.682
19709W        W91969   5.273  43.792  11.563
19710W        W91970  29.122  27.288   1.481
19711W        W91971  11.800   4.787  13.053
19712W        W91972  19.701  24.440  11.573
19713W        W91973  38.640  35.332  12.880
19714W        W91974  32.989  38.532  10.751
19715W        W91975  26.592  30.111   2.946
19716W        W91976   6.424  40.511  10.954
19717W        W91977  17.171  24.602  11.333
19718W        W91978  22.204   4.811   4.562
19719W        W91979  18.951  21.211   4.120
19720W        W91980  18.053  44.632  12.550
19721W        W91981   7.248  25.643   4.559
19722W        W91982  17.736  14.648   2.653
19723W        W91983  31.110  25.539   2.278
19724W        W91984  23.187  42.421  10.633
19725W        W91985  19.741  20.343  14.879
19726W        W91986  35.969  24.835   3.048
19727W        W91987  37.454  12.724  10.807
19728W        W91988  40.065  16.127   0.459
19729W        W91989  40.140  37.478  14.339
19730W        W91990  20.920  42.301  14.851
19731W        W91991  27.922   7.845   3.876
19732W        W91992  20.052  11.692   3.656
19733W        W91993  18.668  15.641  11.450
19734W        W91994   8.221  11.680  12.451
19735W        W91995  35.839  13.274   2.786
19736W        W91996  26.749  37.217  11.993
19737W        W91997   4.537  34.402  13.511
19738W        W91998  27.926  41.330   0.445
19739W        W91999  14.370  17.741  13.513
19740W        W92000  40.835  33.878   1.924
19741W        W92001  42.410  40.577   3.253
19742W        W92002  37.891  33.841   3.337
19743W        W92003  44.890   5.744  11.711
19744W        W92004  10.056   5.510   3.223
19745W        W92005   0.329   0.520   3.230
19746W        W92006  15.665  24.514   1.722
19747W        W92007   4.108  14.462  11.698
19748W        W92008   9.798  21.473  12.535
19749W        W92009  14.650  20.639   1.951
19750W        W92010   1.353  21.192   0.900
19751W        W92011  10.221  15.818  14.443
19752W        W92012  20.789  11.893  10.470
19753W        W92013  44.508  22.451   1.839
19754W        W92014   5.369  40.446   0.245
19755W        W92015  15.789  44.085   3.716
19756W        W92016  33.038  23.743  11.968
19757W        W92017  26.675  31.478   1.383
19758W        W92018   8.246  34.536  11.442
19759W        W92019   3.601  28.168  13.327
19760W        W92020  39.804  12.788  10.986
19761W        W92021  25.533  44.037  11.561
19762W        W92022  37.053  15.660   4.193
19763W        W92023  25.596  21.575  12.134
19764W        W92024  23.486  30.379   4.583
19765W        W92025  34.467  27.006  10.674
19766W        W92026  29.269  27.079   2.836
19767W        W92027   4.930  15.753  13.464
19768W        W92028  32.156  14.299   3.687
19769W        W92029  27.178  34.382  12.754
19770W        W92030  24.966  40.768   3.185
19771W        W92031   7.348  32.121  14.358
19772W        W92032  18.492  33.483  11.959
19773W        W92033  21.590  16.626  10.801
19774W        W92034  43.185  36.857   1.406
19775W        W92035  39.761  38.433  14.042
19776W        W92036  27.481  37.513   3.242
19777W        W92037  42.838  43.472   2.909
19778W        W92038  12.413   7.320   1.035
19779W        W92039  12.874  20.008  12.122
19780W        W92040  12.392  29.105   0.826
19781W        W92041  32.623  22.339  10.381
19782W        W92042   4.862  11.778   0.337
19783W        W92043   6.748  27.235   4.276
19784W        W92044  23.525   8.603   2.312
19785W        W92045  16.571   6.783  13.405
19786W        W92046  43.028  13.968  11.697
19787W        W92047  30.338  16.255  10.376
19788W        W92048  18.818  20.916   2.438
19789W        W92049  15.325  32.599   3.392
19790W        W92050  44.861   6.229  11.510
19791W        W92051  40.999   2.820  12.053
19792W        W92052  39.815  36.389  14.951
19793W        W92053  41.901  43.581   1.496
19794W        W92054  10.643  16.529  13.796
19795W        W92055   5.930  20.790   1.358
19796W        W92056   2.005  24.649   1.808
19797W        W92057   2.061   2.230  14.543
19798W        W92058   0.880   1.538   1.280
19799W        W92059  10.123  16.564   2.813
19800W        W92060  39.910  27.416  13.389
19801W        W92061   6.295  31.970  11.873
19802W        W92062  24.084   2.449  10.707
19803W        W92063   3.441  13.695  11.220
19804W        W92064  13.320  29.910   2.228
19805W        W92065  28.667  35.676   1.257
19806W        W92066  13.143  42.334  12.312
19807W        W92067  19.863  10.629   1.819
19808W        W92068  39.101  20.718  10.711
19809W        W92069  33.165   6.260   0.957
19810W        W92070   0.775  25.415  13.920
19811W        W92071  24.772   8.367  12.044
19812W        W92072   4.334  39.276  11.153
19813W        W92073  10.556  34.949  12.624
19814W        W92074  20.220  26.922   1.953
19815W        W92075  25.193  28.116   2.720
19816W        W92076  23.972  35.431   3.440
19817W        W92077  33.553  30.947   2.165
19818W        W92078  44.282  27.391  13.454
19819W        W92079   7.971  23.421  13.014
19820W        W92080  12.045  23.522  11.612
19821W        W92081   6.175   9.336   2.384
19822W        W92082  44.966   9.781  10.710
19823W        W92083  17.372  18.302   0.917
19824W        W92084  38.928  24.550   2.324
19825W        W92085  37.957  16.833  12.430
19826W        W92086   8.258  22.273  12.477
19827W        W92087   8.282  43.049   1.036
19828W        W92088  31.862  26.232   1.054
19829W        W92089  17.727  35.291  14.295
19830W        W92090  37.586   8.374  11.643
19831W        W92091   3.845   4.324   4.862
19832W        W92092  34.572  37.273  11.982
19833W        W92093  16.297  25.569   2.214
19834W        W92094  44.584  20.735   4.508
19835W        W92095  11.245   2.371  13.564
19836W        W92096   0.938  40.486  13.339
19837W        W92097  35.516  14.802  12.338
19838W        W92098  44.555  16.542   1.016
19839W        W92099  10.325  23.011  10.602
19840W        W92100   2.699  20.257   0.837
19841W        W92101  23.669  19.068   4.047
19842W        W92102   1.295  44.438  11.590
19843W        W92103   0.472  21.898  14.430
19844W        W92104   2.070  11.107  13.317
19845W        W92105  41.111  43.305  14.607
19846W        W92106  35.158  13.618   0.358
19847W        W92107  38.382   8.949   0.761
19848W        W92108  33.470  31.622   1.370
19849W        W92109  37.155   8.903  14.335
19850W        W92110  39.793   0.354   3.627
19851W        W92111  40.841  35.471  12.849
19852W        W92112  10.233  21.310   1.352
19853W        W92113  40.293   4.305  11.007
19854W        W92114  18.979  14.227   2.528
19855W        W92115  16.029  35.012  12.508
19856W        W92116  24.196   6.313   4.106
19857W        W92117  13.817  30.013  12.879
19858W        W92118   7.204  22.579   1.245
19859W        W92119  29.650  37.846  13.902
19860W        W92120  36.939   4.141  11.147
19861W        W92121  19.108  14.894   1.273
19862W        W92122  29.084  35.381  10.876
19863W        W92123  38.345  39.977   1.314
19864W        W92124   1.947  44.007  10.977
19865W        W92125  31.925   0.472   1.792
19866W        W92126   0.356   4.307   0.656
19867W        W92127  33.338   6.693  10.003
19868W        W92128  41.580  11.313   4.527
19869W        W92129  32.496  26.045  13.494
19870W        W92130   2.281  38.526   3.298
19871W        W92131  39.692  23.723   4.139
19872W        W92132   9.150  41.531   1.288
19873W        W92133   0.363   9.409   4.624
19874W        W92134   8.184  25.062  12.380
19875W        W92135  34.960  43.445   1.250
19876W        W92136   4.977  31.123   0.862
19877W        W92137  28.913  12.753  11.399
19878W        W92138   3.528   7.814  12.101
19879W        W92139  44.441   4.291   4.315
19880W        W92140   2.434  14.702  12.164
19881W        W92141  19.764   8.207  13.975
19882W        W92142   9.652   2.161   3.350
19883W        W92143  10.179  14.188   2.473
19884W        W92144  10.171  31.090   0.817
19885W        W92145   4.669  26.271   1.082
19886W        W92146  36.987  41.560   2.191
19887W        W92147  37.246  38.804   4.707
19888W        W92148  14.213  29.390   3.057
19889W        W92149  39.290  13.607  14.923
19890W        W92150  41.261  41.016   1.577
19891W        W92151  40.777   3.312  13.630
19892W        W92152   5.134  16.669  10.737
19893W        W92153   7.071  24.927   2.723
19894W        W92154  37.485  40.098   4.858
19895W        W92155   6.877  28.420   3.678
19896W        W92156   4.499  43.587  11.917
19897W        W92157  15.737  25.045   1.759
19898W        W92158  35.027  19.719   1.473
19899W        W92159  26.202  28.152   1.188
19900W        W92160   6.116  16.639  12.624
19901W        W92161  33.486  30.334  13.992
19902W        W92162  33.983  37.600  14.941
19903W        W92163   4.321  14.125   3.901
19904W        W92164  37.327  24.703   4.551
19905W        W92165  22.533  37.886   1.730
19906W        W92166  42.265  41.320   4.260
19907W        W92167  40.345  31.677  12.000
19908W        W92168  17.717  29.441  11.664
19909W        W92169   0.013  38.523   4.036
19910W        W92170  22.576  22.610  12.203
19911W        W92171  40.007   8.066   1.401
19912W        W92172  29.788  36.692   1.920
19913W        W92173  35.990  42.288  14.909
19914W        W92174  27.507  26.488  14.864
19915W        W92175  27.547  24.729   4.596
19916W        W92176   7.822  19.546  12.352
19917W        W92177  32.699   3.301  14.815
19918W        W92178  12.783  36.849  11.046
19919W        W92179  26.935  20.954   4.576
19920W        W92180  15.413  42.065  13.535
19921W        W92181  24.449  31.371  14.461
19922W        W92182  20.616  18.517  13.645
19923W        W92183  32.185  40.880   4.463
19924W        W92184  24.291   5.755   2.730
19925W        W92185   8.359  27.963  14.567
19926W        W92186   5.844  18.059  11.040
19927W        W92187  17.754  44.032   1.325
19928W        W92188  30.981  40.663  12.607
19929W        W92189  40.900  42.434  11.012
19930W        W92190  43.938  33.926   3.164
19931W        W92191  14.727  42.729   4.141
19932W        W92192  36.019   7.216   4.081
19933W        W92193   2.532   5.138   2.706
19934W        W92194  29.546  15.146  12.420
19935W        W92195   4.048  38.973  12.117
19936W        W92196  24.865  25.439   2.843
19937W        W92197  29.636  19.275   0.016
19938W        W92198  15.328  29.596  11.572
19939W        W92199  31.784  14.158   1.673
19940W        W92200  13.283  37.929   1.632
19941W        W92201  19.379   4.694   3.573
19942W        W92202  37.639  26.917  11.042
19943W        W92203  15.294  19.631   0.743
19944W        W92204  10.398  15.648  13.977
19945W        W92205   3.385  25.398   1.942
19946W        W92206  33.402  10.395   3.247
19947W        W92207   3.463  20.287  13.327
19948W        W92208  12.422  32.478   0.408
19949W        W92209   5.708   8.327   2.276
19950W        W92210  38.459  16.362  11.168
19951W        W92211   7.949   9.167  11.737
19952W        W92212  43.001  10.580   0.217
19953W        W92213  21.132   4.267  13.721
19954W        W92214   1.292  16.064  13.311
19955W        W92215  17.086  38.457  11.479
19956W        W92216  16.859  27.369   2.436
19957W        W92217   9.427   4.236  12.374
19958W        W92218  15.154   5.447  13.423
19959W        W92219   0.028  24.546   1.141
19960W        W92220  19.243   9.804   2.328
19961W        W92221  34.539  18.481   2.434
19962W        W92222  19.177   5.807  11.854
19963W        W92223   1.765   3.914  10.778
19964W        W92224   7.584  37.473  11.048
19965W        W92225   9.894  10.850  11.524
19966W        W92226  24.968  26.524  10.596
19967W        W92227  36.999  27.754   1.218
19968W        W92228  44.562  24.530   1.357
19969W        W92229  30.531  30.056  14.325
19970W        W92230  24.803   9.542   1.853
19971W        W92231  31.093  12.641   2.508
19972W        W92232   6.756   1.799   2.407
19973W        W92233  42.868   8.312  11.582
19974W        W92234  21.603   1.315  13.927
19975W        W92235  29.217   3.766   0.837
19976W        W92236  27.586  43.591  13.956
19977W        W92237  23.526  15.128  11.899
19978W        W92238  37.466  36.513   0.494
19979W        W92239  35.966  22.922  14.347
19980W        W92240  21.954   6.182  13.419
19981W        W92241  18.866   5.047   9.788
19982W        W92242   0.817   7.409   4.524
19983W        W92243  19.026  33.050  11.184
19984W        W92244  42.746  31.038  10.957
19985W        W92245   4.861  33.993   1.652
19986W        W92246  35.160  22.136   2.935
19987W        W92247  38.338  19.074  13.156
19988W        W92248  10.058  23.023   4.155
19989W        W92249   3.339  21.580  14.485
19990W        W92250  43.765  21.069   3.688
19991W        W92251   4.426  27.458  11.349
19992W        W92252  40.679  31.636  12.832
19993W        W92253  11.200   4.002  13.927
19994W        W92254  30.156  28.159   3.209
19995W        W92255  44.876  15.792  10.660
19996W        W92256  12.674  15.508   1.711
19997W        W92257   9.855  36.063  13.890
19998W        W92258  40.964  19.564  11.052
19999W        W92259   3.363  43.214   2.213
20000W        W92260  19.290   5.696   3.657
20001W        W92261  42.141  16.820   2.689
20002W        W92262  19.970   2.229   1.131
20003W        W92263  11.199   5.341   1.031
20004W        W92264  37.341  25.549  14.762
20005W        W92265  41.488   3.768  12.654
20006W        W92266  26.037  17.202   0.319
20007W        W92267  13.771  32.518  14.651
20008W        W92268  24.203  12.310  13.012
20009W        W92269  22.684  28.674   3.726
20010W        W92270  38.314   1.252   2.657
20011W        W92271   6.787  42.860   3.629
20012W        W92272   6.754  41.749  12.123
20013W        W92273  29.030  40.601   1.485
20014W        W92274  19.097  43.298  11.248
20015W        W92275  39.894   9.855  11.125
20016W        W92276   4.213  31.398   0.194
20017W        W92277  16.323  14.309   0.364
20018W        W92278  35.399  31.952   0.540
20019W        W92279  23.589  43.831  11.139
20020W        W92280   6.875  33.480   2.489
20021W        W92281  25.095  23.259   0.167
20022W        W92282  13.697  38.402   2.763
20023W        W92283  35.814  41.391   4.149
20024W        W92284  11.232   9.714  11.693
20025W        W92285  36.524  36.975   3.943
20026W        W92286   5.464  11.857  13.748
20027W        W92287  33.891  26.573   3.050
20028W        W92288   7.028  16.135  14.810
20029W        W92289  24.656  12.342  12.693
20030W        W92290  32.606  16.577   0.176
20031W        W92291  37.438  25.400  13.434
20032W        W92292  43.362  21.773  13.009
20033W        W92293  18.869  24.257   0.441
20034W        W92294  25.005   3.323   1.531
20035W        W92295  27.570   0.733  13.016
20036W        W92296  20.295   6.092  13.836
20037W        W92297   8.469  20.599   4.694
20038W        W92298   0.414  12.538  14.390
20039W        W92299  22.587  43.041   1.709
20040W        W92300  19.343   2.863   4.044
20041W        W92301  11.244   8.735  10.620
20042W        W92302  33.328  12.140  12.064
20043W        W92303  24.679  19.158   4.355
20044W        W92304  14.133  11.141   1.833
20045W        W92305   0.232  39.940  11.473
20046W        W92306  15.240  37.318   1.461
20047W        W92307  22.143  10.417   0.036
20048W        W92308   2.763  22.029  11.728
20049W        W92309  31.961  33.563  13.856
20050W        W92310  23.186  13.332  10.477
20051W        W92311  41.456   4.361  13.872
20052W        W92312  20.674  19.833  11.931
20053W        W92313   3.354  16.138  13.068
20054W        W92314  16.070  24.426  13.872
20055W        W92315  21.554  17.093  14.389
20056W        W92316  33.246  28.579  11.147
20057W        W92317  40.562  19.187   4.620
20058W        W92318  42.361  16.548   2.299
20059W        W92319  17.817  18.644  11.195
20060W        W92320  27.435  37.242  13.262
20061W        W92321  21.898  15.702  12.307
20062W        W92322   5.233  15.324   0.905
20063W        W92323  32.553   3.513  13.943
20064W        W92324  32.919  32.235   4.195
20065W        W92325   2.935  23.869  13.954
20066W        W92326   9.112  38.348  14.354
20067W        W92327  19.232  31.586  13.912
20068W        W92328  30.480   8.386  11.091
20069W        W92329   2.751  30.972   4.147
20070W        W92330   0.879  37.493  11.140
20071W        W92331   6.849   0.045   4.144
20072W        W92332  18.631   1.220   1.331
20073W        W92333  17.326  38.118  14.177
20074W        W92334  35.072  21.216   1.282
20075W        W92335  15.214  37.531  12.097
20076W        W92336  13.855  43.322  12.822
20077W        W92337   3.508  30.951  11.107
20078W        W92338  44.530  40.482  10.834
20079W        W92339   0.729  18.218   3.178
20080W        W92340  43.399  10.581  10.471
20081W        W92341  23.759  29.286  10.694
20082W        W92342  37.000   3.271   3.862
20083W        W92343   7.314   2.191  10.716
20084W        W92344  24.639  28.341   1.918
20085W        W92345  34.058  27.285  14.837
20086W        W92346  17.310  17.693   4.405
20087W        W92347   3.684  43.924  10.861
20088W        W92348   2.972   7.110  13.364
20089W        W92349  20.656  44.846   4.330
20090W        W92350  17.864  15.387   2.268
20091W        W92351  20.276   7.590  12.473
20092W        W92352  44.299  29.889  12.418
20093W        W92353  18.574  33.398   4.512
20094W        W92354  43.868  10.510   4.725
20095W        W92355  20.859  35.587   1.903
20096W        W92356   7.677   6.952   2.193
20097W        W92357   9.645   2.918   4.617
20098W        W92358  22.671  44.680  11.051
20099W        W92359   7.838  39.281   2.241
20100W        W92360  10.112   9.702   4.643
20101W        W92361  27.230  13.171  14.541
20102W        W92362  25.655   3.184  12.802
20103W        W92363  39.103  23.876   2.946
20104W        W92364  42.024  21.499  12.056
20105W        W92365  41.868   9.640   1.375
20106W        W92366  10.096  41.311  11.986
20107W        W92367  13.179  43.911   2.179
20108W        W92368  11.286   3.459  14.900
20109W        W92369   4.812  19.425   4.622
20110W        W92370  31.587  30.093  11.856
20111W        W92371  15.301  21.780   3.618
20112W        W92372  20.897  33.627  12.371
20113W        W92373  44.712  22.098   2.690
20114W        W92374  20.492  17.228   4.211
20115W        W92375  43.439  31.639   1.848
20116W        W92376  43.691  31.302   2.277
20117W        W92377  30.721  26.437  14.851
20118W        W92378  35.101  38.450  11.520
20119W        W92379  16.581  44.017   4.540
20120W        W92380  15.176  43.064  14.555
20121W        W92381   7.852  33.890  11.187
20122W        W92382  12.608  12.187  11.200
20123W        W92383  38.766  42.802  14.007
20124W        W92384  15.062  15.047   0.011
20125W        W92385  36.863  41.315  13.356
20126W        W92386   3.813  11.602   3.365
20127W        W92387  35.044  24.171  11.254
20128W        W92388  23.549  25.626   5.676
20129W        W92389  26.482  31.541   4.237
20130W        W92390  17.178  19.041   2.245
20131W        W92391  34.402  28.848  11.617
20132W        W92392  17.291   0.111  11.278
20133W        W92393  36.514  11.833   1.265
20134W        W92394  16.747   7.295   2.260
20135W        W92395  26.570  26.902  11.061
20136W        W92396  35.372  30.429   1.891
20137W        W92397  24.086  43.043  12.414
20138W        W92398  29.452  43.640   2.866
20139W        W92399  43.886   7.421   0.332
20140W        W92400  42.732  27.520   0.292
20141W        W92401  19.817  34.974  14.887
20142W        W92402  37.253  11.599  13.017
20143W        W92403  37.811  18.990   4.683
20144W        W92404  36.922  29.036  14.424
20145W        W92405   7.220  24.716  13.144
20146W        W92406  26.856  23.085   2.815
20147W        W92407  43.741  10.275   0.194
20148W        W92408  44.798   3.030  13.847
20149W        W92409  24.278  36.526   4.126
20150W        W92410  31.280  18.707   0.014
20151W        W92411  35.334  40.330   0.001
20152W        W92412  41.347   1.029   0.812
20153W        W92413   8.865  44.779  11.250
20154W        W92414  33.276  30.192   2.674
20155W        W92415  43.878  21.980  11.156
20156W        W92416  35.012   7.397  13.903
20157W        W92417   9.791   1.490  11.492
20158W        W92418  15.062  19.628   4.164
20159W        W92419  29.562  15.556   4.360
20160W        W92420  43.884   2.234  11.510
20161W        W92421  17.154  41.019   1.087
20162W        W92422  31.370  33.429   3.681
20163W        W92423  33.320  32.664   2.369
20164W        W92424   2.890  23.634  10.649
20165W        W92425  44.480  36.172   2.370
20166W        W92426  41.379  28.948   0.420
20167W        W92427   1.179  29.575   3.722
20168W        W92428  16.082  35.786  13.553
20169W        W92429  42.674  35.841  14.435
20170W        W92430  38.019  13.614   2.246
20171W        W92431   4.161  28.577  12.011
20172W        W92432  37.582  17.654  13.375
20173W        W92433  34.118  27.474   4.533
20174W        W92434  29.008  31.874   1.868
20175W        W92435  21.238  10.906   1.894
20176W        W92436  15.582  27.096  12.417
20177W        W92437  27.532  14.064   5.169
20178W        W92438  10.353  25.314   3.140
20179W        W92439  27.993  30.601  10.618
20180W        W92440   0.466  29.077   0.247
20181W        W92441  14.528  17.868  12.689
20182W        W92442   7.936  21.604   3.855
20183W        W92443  27.453  41.606  11.008
20184W        W92444  17.723  23.194   1.664
20185W        W92445  14.798   8.123  13.109
20186W        W92446  21.523  35.003   0.366
20187W        W92447  27.542   2.272   2.489
20188W        W92448   9.917  34.937   2.202
20189W        W92449   9.128   0.399  11.237
20190W        W92450   0.856  35.579  11.634
20191W        W92451  44.778  34.231  12.448
20192W        W92452   0.071  19.247  13.979
20193W        W92453  43.957  24.528   2.870
20194W        W92454   6.858  21.731   0.009
20195W        W92455  18.639   9.158   5.444
20196W        W92456  38.643  14.640  10.365
20197W        W92457  14.034  31.967   3.246
20198W        W92458  15.138  41.519  14.963
20199W        W92459  42.915  18.309   2.199
20200W        W92460  15.252  32.582   0.958
20201W        W92461  13.339   9.032   4.120
20202W        W92462  38.559  20.544   1.840
20203W        W92463  13.733  22.130  14.251
20204W        W92464  41.113  34.065  14.877
20205W        W92465  31.943  17.857  11.102
20206W        W92466  25.292  28.425   2.308
20207W        W92467  40.819  35.509  13.779
20208W        W92468  27.339   3.074   5.040
20209W        W92469  22.182  37.079   2.715
20210W        W92470  27.647  16.732  11.673
20211W        W92471  36.554  34.746  10.503
20212W        W92472  32.351  34.007   4.467
20213W        W92473   2.274  34.677   3.658
20214W        W92474  28.644  27.116  12.967
20215W        W92475  36.652  26.372  12.677
20216W        W92476  11.830   3.219   4.400
20217W        W92477  32.176  21.206   3.300
20218W        W92478  23.590   4.963   1.778
20219W        W92479  40.898  18.133   2.422
20220W        W92480  22.399  20.979   0.382
20221W        W92481  11.614  32.007  13.393
20222W        W92482  11.344  27.121   4.602
20223W        W92483  41.908  22.455   4.188
20224W        W92484  26.657  14.530  12.054
20225W        W92485  40.959  27.265  11.106
20226W        W92486  37.199  42.735   3.268
20227W        W92487  25.068  28.650   1.898
20228W        W92488  21.256  42.817   1.445
20229W        W92489  30.906  20.657  11.542
20230W        W92490  21.634   4.948   2.216
20231W        W92491   6.971   6.750   1.662
20232W        W92492  35.123  38.587  12.842
20233W        W92493  37.124   8.765   0.321
20234W        W92494   4.276  12.342   0.912
20235W        W92495  37.841   8.726   4.037
20236W        W92496  29.138   5.731  11.505
20237W        W92497  40.934  44.547  11.652
20238W        W92498  24.519  17.038  12.369
20239W        W92499   6.150  35.503  11.224
20240W        W92500  17.053   8.123  12.889
20241W        W92501  30.117  36.988  10.766
20242W        W92502  19.290  16.480   0.343
20243W        W92503  42.918  10.818   0.657
20244W        W92504  31.341  37.761  12.472
20245W        W92505  16.704   6.823  14.928
20246W        W92506  21.349  28.446  13.394
20247W        W92507   1.753  36.128   3.581
20248W        W92508  11.484  24.305   4.887
20249W        W92509  34.474  18.867  13.044
20250W        W92510  17.469  31.673   5.111
20251W        W92511  33.907  11.848   0.889
20252W        W92512  14.692  33.583  13.516
20253W        W92513   7.466  27.921  10.150
20254W        W92514  27.720  10.800   2.224
20255W        W92515  40.605  33.092  11.892
20256W        W92516  41.829   8.001  14.527
20257W        W92517   9.360  42.540  11.028
20258W        W92518  36.036  15.541  13.763
20259W        W92519   9.317  37.748  11.592
20260W        W92520  33.669  15.626   1.783
20261W        W92521  39.479  13.196  12.503
20262W        W92522  22.547  27.459  10.460
20263W        W92523   7.616  23.159   0.071
20264W        W92524  41.978  26.270   3.294
20265W        W92525  43.461  31.881  14.238
20266W        W92526  14.722  17.351   0.889
20267W        W92527  14.273  41.082   3.179
20268W        W92528  21.027  25.560   0.047
20269W        W92529  35.406  43.981  13.775
20270W        W92530  22.657   0.370   4.638
20271W        W92531  40.951  25.180  12.175
20272W        W92532   9.686  20.780   1.707
20273W        W92533  16.252   2.216   3.319
20274W        W92534  20.829  31.611   2.335
20275W        W92535  28.348   9.331  14.470
20276W        W92536  13.461  24.823  13.446
20277W        W92537  15.317   5.197  11.114
20278W        W92538   5.477   5.205  14.810
20279W        W92539  23.391  35.331  11.214
20280W        W92540  43.473  19.068   1.447
20281W        W92541  29.621  35.467   4.658
20282W        W92542  29.089  23.082   4.421
20283W        W92543   5.838  29.011  13.767
20284W        W92544   1.847  25.434   3.715
20285W        W92545  43.745   0.402  13.021
20286W        W92546  22.172  40.359   2.575
20287W        W92547  11.164  20.260   3.307
20288W        W92548  37.885  23.530  13.813
20289W        W92549  42.876  41.710  10.701
20290W        W92550  21.772  44.441   4.088
20291W        W92551   7.141  26.103  13.363
20292W        W92552  36.044  10.623   4.367
20293W        W92553  33.806  26.933   4.495
20294W        W92554   1.953  13.741   4.219
20295W        W92555  17.808  42.259   2.967
20296W        W92556  21.944  37.431  11.048
20297W        W92557  20.711   9.782   4.116
20298W        W92558  42.857  37.897  11.757
20299W        W92559  13.704  32.264  12.848
20300W        W92560   9.103  15.258   3.831
20301W        W92561  24.746  22.955  13.374
20302W        W92562  19.745   4.302  14.425
20303W        W92563  11.385  14.296  11.571
20304W        W92564  17.176   9.358  11.177
20305W        W92565  19.585   2.847   4.641
20306W        W92566  19.028   4.720  14.465
20307W        W92567  40.897   9.650   1.642
20308W        W92568  42.501  35.266   1.839
20309W        W92569  18.732   9.206  10.232
20310W        W92570  18.262  26.601  10.658
20311W        W92571  26.067  17.940  12.633
20312W        W92572  18.847  16.281   1.592
20313W        W92573  27.132  39.387   1.858
20314W        W92574   1.293  27.478  11.481
20315W        W92575  28.473  14.400  14.946
20316W        W92576  14.137   2.862   1.910
20317W        W92577   4.328  26.431  12.554
20318W        W92578  28.587   0.355  11.649
20319W        W92579  38.987  26.637   3.659
20320W        W92580  27.323  26.372   2.816
20321W        W92581  37.616  22.748  14.401
20322W        W92582  34.422  28.951  13.043
20323W        W92583  41.804  42.308   4.519
20324W        W92584  29.644   9.321  13.571
20325W        W92585  19.390  10.251  12.559
20326W        W92586   2.575  44.685  11.075
20327W        W92587  38.781  27.271  11.515
20328W        W92588  23.747  31.619   4.059
20329W        W92589  13.678  19.862   1.845
20330W        W92590   5.053  32.367   1.455
20331W        W92591  40.788   7.302   0.185
20332W        W92592  32.086  37.818   4.612
20333W        W92593  20.801  38.996   3.772
20334W        W92594  33.201  24.539   0.381
20335W        W92595  40.503  17.851   2.565
20336W        W92596  18.274  43.968   1.204
20337W        W92597  19.114  43.610  10.504
20338W        W92598  21.267  17.113  13.915
20339W        W92599  43.463  22.171  14.393
20340W        W92600  10.236  13.288  12.867
20341W        W92601  44.714  20.097  13.967
20342W        W92602  25.095  36.094  12.134
20343W        W92603  26.088  26.702   2.363
20344W        W92604  10.761  21.282  10.989
20345W        W92605   6.418  35.483  14.966
20346W        W92606   1.890  20.498  14.470
20347W        W92607  22.445  12.268   0.288
20348W        W92608  23.153  39.688  10.219
20349W        W92609  11.608   6.101  11.114
20350W        W92610  11.274   5.942   2.338
20351W        W92611  39.512  14.796  13.506
20352W        W92612  20.350  35.586   1.978
20353W        W92613  16.031  36.958  13.319
20354W        W92614   8.827   2.970  11.535
20355W        W92615  43.400  25.295   3.779
20356W        W92616  16.334  29.617  11.675
20357W        W92617   3.103  10.652  11.834
20358W        W92618  37.319  18.741   4.612
20359W        W92619  16.153  38.969  12.005
20360W        W92620  28.529  15.385   1.678
20361W        W92621   8.514  17.281  13.189
20362W        W92622  26.884  26.770  14.323
20363W        W92623  36.601   8.912   0.277
20364W        W92624  19.475  22.079   2.250
20365W        W92625  14.430   1.794   3.249
20366W        W92626  23.292  27.941   4.147
20367W        W92627  39.644  28.121  14.555
20368W        W92628   5.900  26.919   0.839
20369W        W92629  39.205  13.225  12.979
20370W        W92630  23.742   0.855   3.398
20371W        W92631  31.127  20.905  11.129
20372W        W92632  37.436   3.235  11.630
20373W        W92633  33.183   3.874  12.581
20374W        W92634  36.089  35.638   2.794
20375W        W92635  36.459  37.604  13.855
20376W        W92636   6.865  26.470  13.023
20377W        W92637  10.800  18.165   3.685
20378W        W92638  36.597  13.576  14.820
20379W        W92639  37.087  16.986  10.909
20380W        W92640  39.024  20.231  10.592
20381W        W92641  41.552  16.857   3.411
20382W        W92642  25.600  23.257   0.380
20383W        W92643   3.989  25.004  12.183
20384W        W92644  17.524  11.183  12.474
20385W        W92645  35.487   2.815  12.104
20386W        W92646  37.473  15.924  10.519
20387W        W92647  23.712  39.555   1.246
20388W        W92648   7.882  17.513   1.198
20389W        W92649  31.596  40.722   1.832
20390W        W92650  35.973  24.915   0.814
20391W        W92651  34.111   5.187  14.973
20392W        W92652  34.550   4.881   4.539
20393W        W92653  23.947  19.839  13.114
20394W        W92654  35.391   4.462  13.795
20395W        W92655  14.835  18.782   3.190
20396W        W92656  23.900  10.348  10.662
20397W        W92657   7.634  22.537  11.157
20398W        W92658   9.905  12.400  13.314
20399W        W92659  25.689   3.885   2.659
20400W        W92660  36.100  13.150  14.283
20401W        W92661  42.348  10.292   0.948
20402W        W92662  11.581  30.895   0.338
20403W        W92663  43.945  39.388  12.447
20404W        W92664  38.160  31.417  11.049
20405W        W92665  13.229  18.869   2.407
20406W        W92666  35.055  14.206   2.202
20407W        W92667  41.996   0.299   0.930
20408W        W92668  16.873  16.952   0.937
20409W        W92669  37.556  15.361   2.876
20410W        W92670  34.454  27.449   3.164
20411W        W92671  29.050  23.689  11.086
20412W        W92672  21.519   6.634  12.456
20413W        W92673  13.009  23.160  11.172
20414W        W92674  12.141  15.799  11.936
20415W        W92675   5.850  21.675   4.068
20416W        W92676  14.546  31.879   2.361
20417W        W92677  10.460  30.008   0.735
20418W        W92678  37.566  21.485   2.386
20419W        W92679  24.580  29.923  13.029
20420W        W92680  40.861  33.123   3.775
20421W        W92681   6.129  35.627   1.598
20422W        W92682  19.261   3.369   0.851
20423W        W92683   2.837   8.349   0.518
20424W        W92684  23.077  22.740  12.365
20425W        W92685   8.365   1.206  11.228
20426W        W92686  29.224   8.282   4.703
20427W        W92687  27.368  19.666   0.350
20428W        W92688  13.716  33.881   1.417
20429W        W92689  20.679  19.023   0.949
20430W        W92690  15.258  27.458   2.299
20431W        W92691  19.000  12.295  14.327
20432W        W92692   1.811  39.053   1.356
20433W        W92693  23.228  21.258   1.374
20434W        W92694   9.811  33.589   1.819
20435W        W92695  30.465  37.611  14.805
20436W        W92696  27.020  41.450  12.415
20437W        W92697  17.568  12.666  10.583
20438W        W92698  13.818  23.594   4.808
20439W        W92699  37.571  15.223  11.032
20440W        W92700  31.403  25.315   4.871
20441W        W92701   5.163  16.988  13.112
20442W        W92702  25.032  38.343  11.433
20443W        W92703   7.679  34.936   5.170
20444W        W92704  40.656  27.044  13.893
20445W        W92705   2.693  31.002   3.105
20446W        W92706  12.133  13.785  14.693
20447W        W92707  35.635  25.033  13.894
20448W        W92708  10.209  41.380  14.392
20449W        W92709  34.595  17.512  14.332
20450W        W92710  36.014   2.585   4.126
20451W        W92711  22.524  29.159   1.006
20452W        W92712  23.549  18.999   5.020
20453W        W92713  37.818  39.003   0.488
20454W        W92714  39.065   5.910  14.043
20455W        W92715   8.314  16.577  11.520
20456W        W92716  21.813  27.042  11.856
20457W        W92717  35.527  23.561  12.127
20458W        W92718  23.612  20.706   0.053
20459W        W92719  17.271  32.576   3.159
20460W        W92720  19.661  20.484   1.028
20461W        W92721  43.581  14.823  10.707
20462W        W92722   5.873  35.307   2.773
20463W        W92723  40.956   7.748  13.754
20464W        W92724  24.586   7.961   0.043
20465W        W92725  31.860  39.124   4.262
20466W        W92726   0.906  35.458  13.590
20467W        W92727  11.163  42.715  12.479
20468W        W92728  36.498  39.562   0.957
20469W        W92729  36.524   1.393   4.076
20470W        W92730  12.219  24.222  13.710
20471W        W92731  35.052  43.794   3.888
20472W        W92732  41.865  18.773   4.805
20473W        W92733  21.030  38.404   1.901
20474W        W92734  16.835  19.487   1.021
20475W        W92735  18.818  35.619  11.007
20476W        W92736  21.008  12.325   4.583
20477W        W92737   1.913  16.518  14.374
20478W        W92738  26.989  15.547   0.463
20479W        W92739  42.458  37.031  12.117
20480W        W92740  36.340  23.674  13.972
20481W        W92741  38.143  29.599   0.391
20482W        W92742  26.685  36.416  13.432
20483W        W92743  44.791  17.647  10.714
20484W        W92744   4.810  23.736   3.517
20485W        W92745  38.465  34.363   2.833
20486W        W92746  12.834  10.872   3.385
20487W        W92747  42.137  40.089  13.392
20488W        W92748  34.074   0.276  13.374
20489W        W92749  16.894   8.408  11.144
20490W        W92750  15.384  33.507  13.956
20491W        W92751   4.361  33.025   1.444
20492W        W92752  34.944  44.331   4.182
20493W        W92753  35.773  18.354   1.043
20494W        W92754  23.129   3.302  12.267
20495W        W92755  27.391  28.174  10.530
20496W        W92756  21.160  28.447  12.400
20497W        W92757   1.878  31.060   4.610
20498W        W92758  33.734  33.653   4.134
20499W        W92759  15.239  13.584   2.376
20500W        W92760  13.336  21.683   1.867
20501W        W92761  33.698   3.333  11.937
20502W        W92762  30.096  27.411   2.763
20503W        W92763  36.515   8.733  10.330
20504W        W92764  34.032  31.953   0.354
20505W        W92765  36.408   2.989  13.756
20506W        W92766  27.695  31.502   1.673
20507W        W92767  13.769  24.090   4.661
20508W        W92768  44.234  33.753  14.567
20509W        W92769  27.794  19.027  14.599
20510W        W92770  14.781   3.901  14.801
20511W        W92771  21.248  20.156   3.123
20512W        W92772  24.634   4.075  13.108
20513W        W92773   1.421  28.071   0.005
20514W        W92774  34.328  42.862   1.257
20515W        W92775  11.399  25.929   1.426
20516W        W92776  35.564  30.070   3.652
20517W        W92777  33.546  24.800   0.761
20518W        W92778  34.005  41.534   0.506
20519W        W92779  41.887  11.146  10.596
20520W        W92780  26.250  27.967  12.844
20521W        W92781  21.340  42.762  10.214
20522W        W92782  36.555   8.148  11.589
20523W        W92783  36.141  41.252   3.700
20524W        W92784  35.147  16.575  12.523
20525W        W92785  16.733  33.346  13.973
20526W        W92786  32.212  44.305  14.406
20527W        W92787  23.758  22.979   2.223
20528W        W92788  32.422  19.061  12.202
20529W        W92789  16.306  44.338  13.853
20530W        W92790  42.203  29.028  12.963
20531W        W92791  26.959  20.510  11.502
20532W        W92792  41.112   5.841  12.026
20533W        W92793  36.174  29.676  12.164
20534W        W92794  43.927  26.402   1.942
20535W        W92795  43.480  15.336  12.020
20536W        W92796  41.873  37.358  13.994
20537W        W92797  11.065  23.800  12.556
20538W        W92798  44.871  44.928   1.418
20539W        W92799  34.104  19.733  14.989
20540W        W92800  15.302   2.664   3.426
20541W        W92801  38.518  40.322  13.817
20542W        W92802   3.479   6.715   3.859
20543W        W92803  21.507  40.024   3.386
20544W        W92804  27.032  36.460   3.231
20545W        W92805  42.214  33.405  11.185
20546W        W92806  36.669   5.965   3.182
20547W        W92807   5.299  25.509  11.963
20548W        W92808  33.865  30.229  13.015
20549W        W92809  11.525  19.756  11.120
20550W        W92810   7.739  42.098  13.848
20551W        W92811   7.333   1.776  14.155
20552W        W92812   2.222  22.728   0.858
20553W        W92813  30.234  42.158  11.079
20554W        W92814  23.575  19.329   1.263
20555W        W92815  37.401  20.646   0.391
20556W        W92816  22.127  14.218   0.573
20557W        W92817  31.986  26.567   1.785
20558W        W92818  38.920  43.263   2.960
20559W        W92819  34.922  40.123  11.071
20560W        W92820   0.990   9.822   1.351
20561W        W92821  40.479  24.175   5.118
20562W        W92822  21.351  34.137   4.344
20563W        W92823  32.961  14.698  10.762
20564W        W92824  36.853   8.431  12.564
20565W        W92825  36.402  12.640   3.558
20566W        W92826  25.889  37.950  11.017
20567W        W92827  12.886  23.232  14.999
20568W        W92828  44.196  31.783   4.991
20569W        W92829  23.558  10.704  11.942
20570W        W92830   6.904  32.927   0.204
20571W        W92831  41.373  17.979   4.648
20572W        W92832   4.428  32.284   3.716
20573W        W92833   3.437  30.736   2.008
20574W        W92834   0.334  40.033   0.411
20575W        W92835  15.090  17.902   3.888
20576W        W92836  33.514   2.741  12.893
20577W        W92837  14.821  33.462  14.966
20578W        W92838  10.362   9.922   0.450
20579W        W92839  21.748   8.937  13.848
20580W        W92840   5.033  39.456  13.480
20581W        W92841  20.337  33.045  13.567
20582W        W92842  10.400  13.759   2.238
20583W        W92843   6.817  39.234   4.086
20584W        W92844  17.834  41.297   2.849
20585W        W92845   4.879  24.929  12.932
20586W        W92846  28.248  19.238  10.603
20587W        W92847  43.101  16.148   3.388
20588W        W92848  20.156   3.890   4.680
20589W        W92849  12.420  36.767  10.672
20590W        W92850  22.138  42.757   1.631
20591W        W92851   6.173   2.729  10.663
20592W        W92852  27.525  38.400   2.712
20593W        W92853  33.453  20.214   9.608
20594W        W92854  28.479   6.485  14.830
20595W        W92855  21.718   8.816   2.986
20596W        W92856  27.366  38.858  10.495
20597W        W92857  21.585  25.239  14.386
20598W        W92858   1.346  13.308   4.347
20599W        W92859  17.835  14.105   0.552
20600W        W92860  30.605  33.211   1.452
20601W        W92861   1.892   3.168  13.944
20602W        W92862  43.692  20.651  13.553
20603W        W92863  31.619  21.980  11.764
20604W        W92864  41.797   4.706   4.243
20605W        W92865  36.269  26.912  11.056
20606W        W92866  26.164  21.170  12.840
20607W        W92867  24.744  10.642  14.240
20608W        W92868  34.416  28.788   3.885
20609W        W92869  23.036  17.708   4.563
20610W        W92870  19.511  11.129  10.737
20611W        W92871  13.247  39.044  14.686
20612W        W92872  38.585  21.535  14.414
20613W        W92873   6.418   4.184   3.342
20614W        W92874  41.380  21.006   2.794
20615W        W92875  26.181  16.773   4.106
20616W        W92876  34.851  23.608  14.310
20617W        W92877  27.064  31.360  12.894
20618W        W92878  14.131  28.635   4.110
20619W        W92879  13.165  29.966   1.295
20620W        W92880   1.715  11.284   0.910
20621W        W92881  42.459  13.126  12.388
20622W        W92882   8.168   9.891   1.798
20623W        W92883  19.959  14.634  13.505
20624W        W92884  16.337  12.171  14.922
20625W        W92885  17.598   4.421   3.255
20626W        W92886  41.851  37.552   1.795
20627W        W92887  30.362  44.194  12.546
20628W        W92888  11.297  13.693   0.213
20629W        W92889  32.122  10.864   4.919
20630W        W92890  27.605  20.300   2.375
20631W        W92891  31.500  17.267   3.155
20632W        W92892   9.773  35.881  13.372
20633W        W92893  26.954  33.183   0.805
20634W        W92894  16.826  25.179   2.758
20635W        W92895  15.640   5.213   0.370
20636W        W92896  29.884  26.311  12.861
20637W        W92897  28.965   1.885   4.747
20638W        W92898  25.035  22.344   2.372
20639W        W92899  23.668  33.304  13.866
20640W        W92900  15.383   6.997   4.264
20641W        W92901  31.532  32.956   4.772
20642W        W92902   9.304  20.043   4.818
20643W        W92903   0.742  18.193  13.077
20644W        W92904  23.667  35.176  12.447
20645W        W92905  35.871   8.228  14.509
20646W        W92906   6.635  19.684   2.821
20647W        W92907  11.278  35.667   3.770
20648W        W92908  17.874  31.498   3.763
20649W        W92909  18.163  25.587  14.952
20650W        W92910  35.326  17.159   1.687
20651W        W92911  42.859  31.298   4.027
20652W        W92912  11.819   9.696  13.267
20653W        W92913  23.087   7.822   4.685
20654W        W92914  31.202  32.495  10.689
20655W        W92915  28.018  38.795  12.539
20656W        W92916  38.407  21.203  12.238
20657W        W92917  13.724  29.133   2.371
20658W        W92918   5.589  41.519  10.711
20659W        W92919   6.658  21.227  14.835
20660W        W92920  22.772  10.124  10.112
20661W        W92921   3.584  32.145  14.398
20662W        W92922  30.343  26.601   2.282
20663W        W92923  30.970  27.028   4.613
20664W        W92924  27.465  16.738  14.314
20665W        W92925  25.327  25.548   3.259
20666W        W92926  15.071  27.867  10.239
20667W        W92927  42.504  43.908  12.114
20668W        W92928  10.567   4.781   0.850
20669W        W92929  30.141  38.119   1.032
20670W        W92930  17.679   6.863   1.343
20671W        W92931  37.540  17.739   3.056
20672W        W92932  37.319  16.332  13.005
20673W        W92933  30.435  24.470  14.764
20674W        W92934  26.555  15.100  10.350
20675W        W92935  14.116  37.921  12.396
20676W        W92936  24.550  36.311  13.945
20677W        W92937  24.687   3.291   1.960
20678W        W92938  10.378  35.593   3.719
20679W        W92939   9.019   2.839  14.843
20680W        W92940   1.764  19.332   0.717
20681W        W92941  24.557  40.938  13.131
20682W        W92942  40.270  18.780   3.784
20683W        W92943  11.838  22.075   1.932
20684W        W92944  18.907  34.881  10.875
20685W        W92945  11.325  29.378  14.292
20686W        W92946  17.144  34.228  13.019
20687W        W92947  27.889  33.569  13.409
20688W        W92948  31.990  34.372  12.998
20689W        W92949  14.358  42.558   0.993
20690W        W92950  30.990  30.020  11.136
20691W        W92951  19.156   3.742   3.184
20692W        W92952  15.890  14.309   3.783
20693W        W92953   5.376  12.879  11.942
20694W        W92954  22.993  30.745  11.118
20695W        W92955   3.229  35.343   0.918
20696W        W92956   0.942  18.172   0.319
20697W        W92957  11.156   4.620  10.487
20698W        W92958   3.915  10.680   4.767
20699W        W92959   9.760   9.976  10.558
20700W        W92960   2.001  22.329   2.732
20701W        W92961  22.328  44.863  11.902
20702W        W92962   8.861   3.674   4.053
20703W        W92963   4.121  26.206   1.023
20704W        W92964   1.923  28.017   0.160
20705W        W92965  34.378  16.153   3.715
20706W        W92966  17.397  13.071   4.964
20707W        W92967   2.307   4.509  10.709
20708W        W92968  22.563  29.896  12.824
20709W        W92969  37.829  18.090   0.760
20710W        W92970  42.556  35.935  11.094
20711W        W92971  19.761  26.617   0.209
20712W        W92972  16.146  27.474   3.363
20713W        W92973   5.384  25.562  14.064
20714W        W92974   1.684  37.419   0.815
20715W        W92975   9.145   6.256  12.499
20716W        W92976  33.794  24.576   3.625
20717W        W92977  18.239  39.529  14.889
20718W        W92978   5.815   5.248  11.009
20719W        W92979   7.040   7.552  10.797
20720W        W92980   4.924  29.091   2.583
20721W        W92981  43.185  22.614   4.703
20722W        W92982   9.179  11.225   1.171
20723W        W92983  23.126  35.456   3.375
20724W        W92984  30.371  42.109  13.852
20725W        W92985  35.815  31.909  12.548
20726W        W92986  39.129  11.099   4.442
20727W        W92987   0.320  28.680   3.677
20728W        W92988  36.327   9.685   1.320
20729W        W92989  43.018  23.818   1.903
20730W        W92990   4.658  36.868  11.617
20731W        W92991  11.142  24.961   2.722
20732W        W92992  30.538  28.546  14.094
20733W        W92993  10.216  22.008   4.303
20734W        W92994  28.382  28.026   0.381
20735W        W92995  31.258   8.681  14.376
20736W        W92996  14.240  42.459   0.498
20737W        W92997  23.161  41.527   3.575
20738W        W92998   3.845  27.954  10.369
20739W        W92999  24.549  17.430   2.004
20740W        W93000  34.972  37.526   2.272
20741W        W93001  29.996  10.092  13.929
20742W        W93002  44.857   9.148  13.800
20743W        W93003   2.921  26.431  12.562
20744W        W93004  19.634   0.722  12.024
20745W        W93005  14.728  26.593   2.863
20746W        W93006  30.034  28.222  10.590
20747W        W93007  31.892  30.261   2.896
20748W        W93008  18.555   5.402   3.138
20749W        W93009  39.616  19.327   3.297
20750W        W93010  40.856   3.824  11.907
20751W        W93011  35.011  21.651  14.272
20752W        W93012   5.424   6.022   2.875
20753W        W93013  26.052  39.192  13.932
20754W        W93014  41.337  30.604  12.754
20755W        W93015  37.567  22.269  13.046
20756W        W93016   5.890   8.856   9.980
20757W        W93017  43.476  21.133  11.596
20758W        W93018  30.494  33.459  13.578
20759W        W93019  19.267  11.107  12.887
20760W        W93020  14.098   2.897  13.417
20761W        W93021  16.040  35.049  14.663
20762W        W93022  42.487  35.623   2.645
20763W        W93023  21.192   6.747  11.060
20764W        W93024  36.402  20.110  13.119
20765W        W93025  25.420  35.013  14.393
20766W        W93026  10.875  44.737   1.716
20767W        W93027  28.981   8.795  10.419
20768W        W93028  37.661  35.600  11.967
20769W        W93029   2.471  36.488   1.544
20770W        W93030  19.721  19.049   3.392
20771W        W93031  42.906  29.404  12.455
20772W        W93032  41.291  13.706   0.521
20773W        W93033  44.401  23.705  14.035
20774W        W93034   7.852  43.583   2.340
20775W        W93035   4.251  15.371   0.894
20776W        W93036  31.244  33.398  10.667
20777W        W93037  34.100   5.373  11.084
20778W        W93038  25.745  39.018  13.507
20779W        W93039   9.911  21.203  11.533
20780W        W93040   5.241  16.339   0.468
20781W        W93041  26.844  27.134   0.374
20782W        W93042  25.819  39.683  13.970
20783W        W93043  15.174   7.250   2.423
20784W        W93044  18.555  37.588   3.678
20785W        W93045  27.438  33.598  10.587
20786W        W93046  15.434  36.414   3.017
20787W        W93047  34.349  23.758  11.647
20788W        W93048   0.734  23.484   4.605
20789W        W93049   8.747  10.323  11.739
20790W        W93050  21.032  16.331  12.478
20791W        W93051  26.463  37.635  11.969
20792W        W93052  41.064  15.361   4.867
20793W        W93053  12.284  43.909  14.458
20794W        W93054  31.764  14.096   0.223
20795W        W93055   6.008  24.291   3.258
20796W        W93056  26.291  26.754   3.555
20797W        W93057   0.967  27.062  11.512
20798W        W93058  19.737  33.940  12.186
20799W        W93059  22.319  16.451   0.108
20800W        W93060  10.231   0.945   1.710
20801W        W93061  36.419   0.844   4.799
20802W        W93062  20.074  41.862  12.054
20803W        W93063  26.853  29.709  11.663
20804W        W93064  19.819  27.746  14.827
20805W        W93065  32.732  17.177   0.735
20806W        W93066  29.001  34.213   2.419
20807W        W93067  10.212  35.658  12.414
20808W        W93068  29.543  25.724  12.428
20809W        W93069   7.753   2.325  14.956
20810W        W93070  35.471  13.695   1.923
20811W        W93071  36.149  17.247   3.406
20812W        W93072  19.281  16.261   2.949
20813W        W93073  37.794  15.246   2.388
20814W        W93074  33.327   1.555  12.455
20815W        W93075  33.033  15.686  10.520
20816W        W93076   3.690  37.005  13.039
20817W        W93077  23.676  25.970  11.443
20818W        W93078  33.033  33.799   0.744
20819W        W93079  32.399  39.793   3.243
20820W        W93080  43.031  32.450   3.612
20821W        W93081   6.366  44.115   0.657
20822W        W93082  26.635  36.438   4.479
20823W        W93083  30.180  43.786   0.949
20824W        W93084  32.739  19.649   5.338
20825W        W93085  10.168  34.867  10.668
20826W        W93086  10.865   7.713  14.385
20827W        W93087  22.629  32.535  13.933
20828W        W93088  16.730  42.534  13.311
20829W        W93089  41.737  36.263   0.523
20830W        W93090   6.974   3.261   2.342
20831W        W93091  19.255  40.977   0.859
20832W        W93092  37.741  14.686   0.452
20833W        W93093  28.360   0.907  12.446
20834W        W93094  40.756  17.831  11.641
20835W        W93095   1.987  43.223   2.778
20836W        W93096  39.262  36.138  11.220
20837W        W93097  41.961  41.554   3.563
20838W        W93098   0.756  43.316  12.042
20839W        W93099  18.825  20.161  14.399
20840W        W93100  17.532   2.325   1.660
20841W        W93101  26.592  24.692  11.564
20842W        W93102  27.749  17.089   1.409
20843W        W93103  13.532  12.371  12.473
20844W        W93104  22.431  39.108  10.238
20845W        W93105  10.958  20.164   2.869
20846W        W93106  20.478  26.830   3.139
20847W        W93107   1.200  39.937  11.632
20848W        W93108   1.136  40.953  10.710
20849W        W93109   8.833  12.124   0.413
20850W        W93110  21.006  10.180   0.996
20851W        W93111  26.590  25.730  11.519
20852W        W93112  26.601  43.981   2.328
20853W        W93113  34.960  33.834   3.127
20854W        W93114  21.315   1.708   2.923
20855W        W93115  40.142  30.155   3.278
20856W        W93116  24.241  12.244   1.202
20857W        W93117  25.239  24.433  14.373
20858W        W93118  32.189  23.430   0.895
20859W        W93119  26.328  39.589  14.121
20860W        W93120  36.175  43.822  13.011
20861W        W93121  24.082  39.328   0.250
20862W        W93122   5.468   2.353   3.710
20863W        W93123   0.667  18.486  14.260
20864W        W93124   7.324   4.954  13.992
20865W        W93125   9.717  41.105   2.395
20866W        W93126  36.354   5.934  11.599
20867W        W93127   9.324  12.309   0.327
20868W        W93128  41.820   2.914  10.675
20869W        W93129  24.178  10.174   2.367
20870W        W93130  28.758  13.015  10.988
20871W        W93131  39.713  43.252  10.628
20872W        W93132  39.345   9.394   5.104
20873W        W93133  16.551   6.336   1.305
20874W        W93134   7.093  22.735  13.500
20875W        W93135   2.163  10.319   4.536
20876W        W93136  13.292  27.463  14.571
20877W        W93137  22.833  39.381   4.338
20878W        W93138   0.328  44.458   2.096
20879W        W93139  20.781  38.271  12.114
20880W        W93140  10.531  43.399  12.967
20881W        W93141  39.881   2.368  11.956
20882W        W93142   1.809  12.610  14.401
20883W        W93143  44.123  11.111  12.619
20884W        W93144  12.270  37.135   1.270
20885W        W93145  28.592   8.462  10.288
20886W        W93146   8.880  39.847   3.232
20887W        W93147  35.418  17.711   0.377
20888W        W93148  11.646  42.008   3.817
20889W        W93149  36.274  25.739   5.004
20890W        W93150  26.645  17.657   0.815
20891W        W93151  35.062   1.181  14.110
20892W        W93152   4.316  28.312   3.600
20893W        W93153   2.254   0.691  13.035
20894W        W93154  20.937  41.289   1.454
20895W        W93155  35.413   4.215   3.210
20896W        W93156  39.562  25.312  14.187
20897W        W93157  17.600  40.360   3.840
20898W        W93158  28.390  12.148  13.341
20899W        W93159   3.775   5.755   3.189
20900W        W93160  26.053  28.085   4.630
20901W        W93161  22.477  38.671  12.724
20902W        W93162   7.906  17.587   2.189
20903W        W93163   7.879   8.259   1.905
20904W        W93164  13.355   1.398   4.709
20905W        W93165  21.225   4.228  14.243
20906W        W93166  13.751  25.507   1.509
20907W        W93167  22.217  21.594  11.449
20908W        W93168  23.628  31.652   1.045
20909W        W93169  43.236  36.440   0.695
20910W        W93170  22.732  18.103  12.902
20911W        W93171  31.529  12.081   1.835
20912W        W93172  26.921  32.775  13.942
20913W        W93173   2.965  26.289  10.673
20914W        W93174  20.084  11.099   1.727
20915W        W93175  37.557  24.727   0.426
20916W        W93176  27.728  43.370  11.626
20917W        W93177  20.172  20.747  14.750
20918W        W93178  40.011  25.479  11.562
20919W        W93179   7.727  36.998   1.366
20920W        W93180  33.133  31.061  14.064
20921W        W93181  27.142   6.335  12.885
20922W        W93182  41.729  42.307  13.067
20923W        W93183   1.370  38.994  10.574
20924W        W93184  30.451  33.913   3.380
20925W        W93185  36.531  30.422   3.339
20926W        W93186  39.498  18.655   0.762
20927W        W93187   2.642  11.163   3.609
20928W        W93188   6.211  42.399  11.946
20929W        W93189  34.541   1.976   2.868
20930W        W93190  11.215  33.723   3.775
20931W        W93191  22.579  11.081  13.558
20932W        W93192  16.126  19.803  11.953
20933W        W93193  32.086  12.391   3.402
20934W        W93194  36.986   9.637  10.217
20935W        W93195  30.670   2.363   0.325
20936W        W93196  23.552   8.462  10.614
20937W        W93197  13.125  18.245   4.745
20938W        W93198  30.699  16.975   5.050
20939W        W93199  31.927  12.729  14.397
20940W        W93200  36.126  21.444  12.946
20941W        W93201  24.861  22.590   3.882
20942W        W93202  23.648  40.460   4.855
20943W        W93203  19.166  42.349   2.686
20944W        W93204  16.197   4.720   3.254
20945W        W93205  43.796   1.341  13.119
20946W        W93206   8.096  38.551   0.971
20947W        W93207  19.479  14.325   2.436
20948W        W93208  43.851  11.568  14.305
20949W        W93209  42.028  20.289  11.184
20950W        W93210   8.863  43.300   2.341
20951W        W93211  28.584   4.397  12.309
20952W        W93212  17.107  12.703   1.246
20953W        W93213   5.266  43.494   1.358
20954W        W93214   1.986  35.756   2.357
20955W        W93215  15.832  12.401   3.455
20956W        W93216  28.148  38.038  10.724
20957W        W93217   0.348   4.950  12.103
20958W        W93218  30.468  10.223   1.834
20959W        W93219   1.435  31.827  14.842
20960W        W93220  22.399  14.623  14.761
20961W        W93221  27.541  12.927  11.942
20962W        W93222  38.445  19.493   1.196
20963W        W93223  19.793   7.313  14.867
20964W        W93224  32.857   9.355  12.112
20965W        W93225  27.443   8.318  13.323
20966W        W93226   4.621   8.631   0.767
20967W        W93227  24.554  37.161  11.592
20968W        W93228  23.992  21.485  11.088
20969W        W93229  13.573  30.522   9.904
20970W        W93230  27.085  21.510   0.360
20971W        W93231  34.979  42.272   0.959
20972W        W93232  42.031  24.093   2.667
20973W        W93233  23.944  13.481   4.742
20974W        W93234  27.006  14.813  11.674
20975W        W93235   8.789  35.356  13.635
20976W        W93236  15.455  23.000  11.130
20977W        W93237   6.952  28.730   0.180
20978W        W93238   2.622   2.015  11.337
20979W        W93239  21.744  44.775   0.511
20980W        W93240  44.463  36.955   0.497
20981W        W93241  41.357   6.667   4.145
20982W        W93242   0.755   5.759   3.541
20983W        W93243  16.662   0.580   3.638
20984W        W93244  24.139  24.675   1.924
20985W        W93245  20.421  37.941   2.316
20986W        W93246   2.377  44.526   3.372
20987W        W93247  34.862   6.064  10.603
20988W        W93248   6.967  25.212   4.613
20989W        W93249  24.149  35.004   3.200
20990W        W93250  33.254  37.667  14.497
20991W        W93251  11.603  11.577  10.448
20992W        W93252  21.520  40.893  12.402
20993W        W93253  28.190  39.970   0.392
20994W        W93254  31.708   7.928  13.401
20995W        W93255  39.958   9.097  11.619
20996W        W93256  12.175  20.229   0.298
20997W        W93257  20.030  15.137   3.604
20998W        W93258  17.858  14.715  11.518
20999W        W93259  43.154  20.043   3.185
21000W        W93260   1.270  12.848   0.369
21001W        W93261  24.796  16.647  11.104
21002W        W93262  37.002   9.636  11.985
21003W        W93263  20.132  26.056   4.118
21004W        W93264  15.011  22.453   0.256
21005W        W93265  43.063  27.033   0.826
21006W        W93266  31.961  18.805  12.063
21007W        W93267  23.616  20.244  11.303
21008W        W93268  17.042   5.302  10.545
21009W        W93269  10.302   6.940  12.328
21010W        W93270  15.090  22.289   1.894
21011W        W93271  41.713  39.087  13.870
21012W        W93272  38.005  31.111   4.624
21013W        W93273  32.301  33.210   2.933
21014W        W93274  22.193   3.009   2.836
21015W        W93275  21.528  39.537   0.453
21016W        W93276   0.768  28.891  14.820
21017W        W93277   3.119  18.641   0.813
21018W        W93278   5.795  43.051  11.533
21019W        W93279  14.153  39.319  10.508
21020W        W93280  32.054   5.418   4.531
21021W        W93281  26.359  11.673   2.679
21022W        W93282   8.686  17.740  12.984
21023W        W93283  25.464  19.025   2.777
21024W        W93284  33.440  10.404  14.482
21025W        W93285  44.296  30.197   1.363
21026W        W93286  25.536   0.906   4.346
21027W        W93287  24.001  15.065  12.118
21028W        W93288  21.168   4.210   1.196
21029W        W93289   1.379  16.542  13.128
21030W        W93290  22.621   4.419   2.922
21031W        W93291  24.676  18.669   4.164
21032W        W93292  37.934  14.717  10.742
21033W        W93293   6.400  32.299   0.404
21034W        W93294  24.918  27.365   0.850
21035W        W93295  41.571  25.493  12.957
21036W        W93296  40.417  33.691  11.651
21037W        W93297  14.407  27.982  12.372
21038W        W93298   0.381   6.379   1.656
21039W        W93299   8.258  29.005   2.337
21040W        W93300  18.855   0.883  13.870
21041W        W93301  40.562   9.607   4.629
21042W        W93302  10.162  21.483  14.905
21043W        W93303  18.336  18.659  11.005
21044W        W93304  16.871   4.498  13.589
21045W        W93305  37.727  21.769  11.353
21046W        W93306   0.456  17.986  13.998
21047W        W93307   6.198  25.499  10.601
21048W        W93308  34.325  32.475  13.977
21049W        W93309  30.961  15.144  14.061
21050W        W93310  34.716  28.629  13.938
21051W        W93311   3.383   2.498   2.404
21052W        W93312  20.285   6.413   5.601
21053W        W93313  23.096   5.911   0.925
21054W        W93314  44.515  42.963  12.865
21055W        W93315  42.935  22.060   2.221
21056W        W93316  34.684  21.065   0.962
21057W        W93317  28.033  12.603  11.273
21058W        W93318  11.699  21.239   5.079
21059W        W93319  39.520  35.588   4.666
21060W        W93320  36.287   0.034  11.355
21061W        W93321  14.686   4.229   1.427
21062W        W93322  18.770  41.415  12.108
21063W        W93323  43.318  34.675  14.846
21064W        W93324   9.786  19.735  12.032
21065W        W93325  13.612   8.457  12.656
21066W        W93326   4.362   0.020   0.882
21067W        W93327   6.936  44.047   3.261
21068W        W93328   8.674  16.984   4.479
21069W        W93329   0.464  11.567  13.118
21070W        W93330   5.719  34.868  10.465
21071W        W93331  28.265  40.934   5.047
21072W        W93332  17.476  44.880  10.319
21073W        W93333   5.358  33.043   1.816
21074W        W93334  28.476   3.023   4.787
21075W        W93335  16.735  34.424   4.117
21076W        W93336  10.838  42.467  12.060
21077W        W93337   5.977   4.335   3.107
21078W        W93338   5.759  40.949  10.748
21079W        W93339  19.525   2.916   2.868
21080W        W93340  30.461  40.629  12.505
21081W        W93341  39.882  28.655   4.117
21082W        W93342  44.692  12.709   2.257
21083W        W93343   5.795  41.902  14.724
21084W        W93344  18.583  32.905  12.894
21085W        W93345  37.397   9.710   4.429
21086W        W93346  42.813  26.672   4.224
21087W        W93347   8.427  18.681   3.070
21088W        W93348  20.259  34.981  13.325
21089W        W93349  43.037  31.760  11.212
21090W        W93350  24.484  19.917  14.331
21091W        W93351  35.944  16.867  14.047
21092W        W93352   2.288   8.156  12.531
21093W        W93353   5.243  29.918  11.620
21094W        W93354  22.119   0.708   1.189
21095W        W93355  44.402  29.590   4.505
21096W        W93356  36.911  21.205  12.476
21097W        W93357  43.301  42.578  14.980
21098W        W93358  37.327   4.772  14.763
21099W        W93359  18.024   0.762   0.989
21100W        W93360  29.734  26.791   4.133
21101W        W93361   6.680  16.073   3.373
21102W        W93362  37.890  22.226  10.477
21103W        W93363  29.353   7.208  13.066
21104W        W93364  37.954  28.394  11.922
21105W        W93365  26.450  41.003   4.629
21106W        W93366  43.951  13.103  11.609
21107W        W93367  30.145  27.369   1.902
21108W        W93368  22.273  43.774  12.440
21109W        W93369  29.913  27.105  14.289
21110W        W93370  28.056  11.178   4.586
21111W        W93371  14.754  18.841   4.444
21112W        W93372  40.812  30.080  14.426
21113W        W93373  31.235  38.457   4.584
21114W        W93374  27.559  25.902   1.488
21115W        W93375  11.440   7.655   4.333
21116W        W93376  25.038  19.189   0.425
21117W        W93377  29.613  36.135   1.058
21118W        W93378  44.349  13.615  10.638
21119W        W93379   1.988   3.561  12.974
21120W        W93380  37.386  22.072  11.588
21121W        W93381  27.385  22.287   1.499
21122W        W93382  21.413  29.188  11.971
21123W        W93383   9.674  44.242   3.270
21124W        W93384  41.414  33.038  13.519
21125W        W93385  17.073  18.207  14.498
21126W        W93386  40.068  35.366   2.998
21127W        W93387  19.974  20.115  14.490
21128W        W93388   7.269  40.491   4.990
21129W        W93389  10.239  11.620  14.495
21130W        W93390  14.295  27.523  12.553
21131W        W93391  32.545  22.018   1.935
21132W        W93392  14.756  14.828   2.588
21133W        W93393  29.032   3.666  12.459
21134W        W93394   4.719  12.333  11.045
21135W        W93395   8.253  34.834   1.896
21136W        W93396  42.045  42.286   4.040
21137W        W93397  12.389  11.248   3.026
21138W        W93398  34.362   1.292   2.327
21139W        W93399   6.431  29.012  14.484
21140W        W93400  38.436  33.725   2.450
21141W        W93401  34.177  30.592  14.957
21142W        W93402  39.839   4.290  12.861
21143W        W93403  15.744  33.881   1.315
21144W        W93404   2.800  39.868   4.142
21145W        W93405  30.653   1.862   1.075
21146W        W93406  26.081  18.191   4.779
21147W        W93407  36.365  39.197  11.795
21148W        W93408  25.666  34.864  11.518
21149W        W93409  21.695  26.667  10.596
21150W        W93410  35.803  27.084   1.357
21151W        W93411  36.421   6.840  11.683
21152W        W93412  28.057  44.817   3.184
21153W        W93413  31.641  20.187  12.818
21154W        W93414   8.243  28.646   3.586
21155W        W93415  28.889   5.038  14.381
21156W        W93416  15.811  32.029   3.079
21157W        W93417  26.898  11.342  11.274
21158W        W93418  38.393  25.952  12.594
21159W        W93419  39.300  17.708  11.145
21160W        W93420  15.071  26.088   3.932
21161W        W93421  32.541   5.947   1.439
21162W        W93422  31.631  39.951  14.435
21163W        W93423   1.355  12.350   4.075
21164W        W93424  44.797  41.489   1.357
21165W        W93425   1.971   0.711   3.762
21166W        W93426  42.452   5.331   4.362
21167W        W93427  27.462  28.530   4.854
21168W        W93428  38.487  16.077  13.387
21169W        W93429  30.281  16.738  11.928
21170W        W93430  37.795  32.517   3.346
21171W        W93431  17.037   2.943   0.271
21172W        W93432  34.178  25.015  13.135
21173W        W93433  21.984  23.313   0.971
21174W        W93434  44.757  32.729  11.046
21175W        W93435  30.051   3.172   3.403
21176W        W93436  41.045   4.707   3.823
21177W        W93437  21.155   7.622   3.490
21178W        W93438  43.599  11.860  10.144
21179W        W93439  28.089  17.085   3.237
21180W        W93440  17.500   0.240  12.925
21181W        W93441  25.236  38.896   3.670
21182W        W93442  43.481  28.968   1.256
21183W        W93443  21.023  39.821   3.371
21184W        W93444  22.657  25.117  11.669
21185W        W93445   0.669  20.000  13.917
21186W        W93446  37.938  19.067   4.158
21187W        W93447  24.165  22.769   4.627
21188W        W93448  27.036   8.282  12.381
21189W        W93449  30.332  39.925   0.844
21190W        W93450  19.157  37.225  10.169
21191W        W93451   0.400  15.925   2.830
21192W        W93452  34.773  28.257  11.198
21193W        W93453  30.213  22.738  12.057
21194W        W93454  33.661  19.215   1.490
21195W        W93455  24.547  11.113  14.378
21196W        W93456  41.556   0.862   4.041
21197W        W93457  16.210  37.101   3.821
21198W        W93458   7.657   1.555   3.619
21199W        W93459  32.054  12.115  13.005
21200W        W93460  15.388  44.103  11.131
21201W        W93461  22.488  28.170   3.725
21202W        W93462  17.730  35.038  13.859
21203W        W93463  40.848   1.018   2.172
21204W        W93464   4.515  39.107  10.071
21205W        W93465   6.299  32.683  12.668
21206W        W93466  23.301  36.969   0.337
21207W        W93467  18.187  19.168  12.152
21208W        W93468  28.528  39.502   0.894
21209W        W93469  44.746  30.575  14.299
21210W        W93470  38.070  22.174   0.467
21211W        W93471  12.543  29.282  13.880
21212W        W93472   8.476  33.851  12.100
21213W        W93473  30.240  30.686   0.511
21214W        W93474   0.035  12.638   0.243
21215W        W93475   3.873   1.866   4.341
21216W        W93476   2.717  43.929  13.005
21217W        W93477  14.130  27.040   3.276
21218W        W93478  32.573   2.700  11.220
21219W        W93479  18.096  28.845   0.522
21220W        W93480  33.641  13.864   3.117
21221W        W93481  28.036  37.536   0.205
21222W        W93482   3.216  24.596   0.446
21223W        W93483  28.188  39.455   1.743
21224W        W93484   4.135  33.395   3.598
21225W        W93485  19.222  22.021   2.826
21226W        W93486  18.050  41.524  11.440
21227W        W93487  18.363  37.002  12.227
21228W        W93488   3.403  24.967   2.236
21229W        W93489  23.261  44.368  13.202
21230W        W93490  13.951   3.690   2.335
21231W        W93491  29.981  22.118  14.637
21232W        W93492  35.849  22.486  14.053
21233W        W93493  37.399  37.094   1.366
21234W        W93494  41.773  27.759   3.166
21235W        W93495  41.454  37.953   3.472
21236W        W93496  13.269  30.660   3.172
21237W        W93497  34.452  23.182  12.357
21238W        W93498  21.148  17.639  13.863
21239W        W93499  44.740  34.526  10.977
21240W        W93500   3.962  12.214  11.605
21241W        W93501  29.924  23.619  14.232
21242W        W93502  18.509  44.729  14.506
21243W        W93503   3.242  19.248   2.727
21244W        W93504  27.981  20.212  12.516
21245W        W93505  36.556  44.943   3.819
21246W        W93506  25.541  16.833   4.794
21247W        W93507   9.189  41.827   0.364
21248W        W93508   1.145  28.652  10.758
21249W        W93509  36.040   4.397   3.317
21250W        W93510  15.040   6.517   3.751
21251W        W93511  30.816   7.636   2.224
21252W        W93512  17.593   9.598   2.184
21253W        W93513  38.829  14.338   1.133
21254W        W93514   3.448  15.080  10.618
21255W        W93515  27.483   9.471  12.694
21256W        W93516  16.619  34.144   2.770
21257W        W93517  15.839  22.642  14.758
21258W        W93518   6.343  23.814   4.475
21259W        W93519  29.167  27.845  12.871
21260W        W93520  14.078  32.119   2.313
21261W        W93521  40.491  37.418  12.838
21262W        W93522  40.829   0.809  13.844
21263W        W93523  18.869  32.144   1.399
21264W        W93524  37.537  13.103  11.405
21265W        W93525  18.711  14.171   0.059
21266W        W93526   0.766  16.196   4.387
21267W        W93527  20.738   5.837   2.358
21268W        W93528  40.286  14.227   3.517
21269W        W93529  23.644  40.919   5.123
21270W        W93530   0.799   9.399   0.380
21271W        W93531  36.170  34.960  14.392
21272W        W93532   4.873   0.351  12.639
21273W        W93533   8.385   7.937  11.641
21274W        W93534  39.030  28.101   4.721
21275W        W93535  24.540  44.509   0.983
21276W        W93536   2.291  13.410  11.695
21277W        W93537  42.547  20.674  14.248
21278W        W93538   1.510  24.032   3.349
21279W        W93539  16.132  16.806  14.073
21280W        W93540  22.148  28.465   1.480
21281W        W93541  14.099  22.222   4.342
21282W        W93542  13.315  14.292  11.160
21283W        W93543  43.830  36.163  12.153
21284W        W93544  21.633   0.319   4.612
21285W        W93545  19.743   6.933  10.636
21286W        W93546  17.596  40.043  11.155
21287W        W93547  28.618  18.787  11.376
21288W        W93548   8.691  26.227   4.133
21289W        W93549  37.551  17.202   1.427
21290W        W93550  21.247  30.351   2.220
21291W        W93551  17.293  40.545   0.915
21292W        W93552  33.383   0.425   2.658
21293W        W93553  25.850  14.068  12.039
21294W        W93554   2.640   9.251  11.643
21295W        W93555  10.954  28.074   4.182
21296W        W93556  15.369  44.988   4.076
21297W        W93557  22.733  27.071  12.682
21298W        W93558  33.067   9.808  14.836
21299W        W93559   8.564  42.864  10.067
21300W        W93560  18.143  15.998   0.314
21301W        W93561  24.011   4.391   3.085
21302W        W93562  27.242   4.919   0.241
21303W        W93563  23.953  41.445  13.714
21304W        W93564   3.119  34.282   1.007
21305W        W93565  18.046   9.969  11.154
21306W        W93566   1.267  11.153   4.203
21307W        W93567  36.594  34.909   4.509
21308W        W93568  42.956   3.803   4.538
21309W        W93569  22.701  37.844  11.067
21310W        W93570  22.276  30.696   0.361
21311W        W93571  25.062  42.422  14.472
21312W        W93572  34.961  14.980  10.728
21313W        W93573  40.427   6.295   4.592
21314W        W93574  43.464   6.788  13.610
21315W        W93575  35.171  33.816  13.002
21316W        W93576  34.075  25.928  12.634
21317W        W93577  10.172  23.891   4.170
21318W        W93578  27.145  12.833  14.144
21319W        W93579   1.718  32.367   3.697
21320W        W93580  18.315   8.119  11.131
21321W        W93581   3.675  25.946   0.905
21322W        W93582  12.850   1.961   4.100
21323W        W93583  25.718  22.155   2.681
21324W        W93584  44.139  20.088  12.984
21325W        W93585  18.762   2.054   3.017
21326W        W93586  29.546  29.441  11.447
21327W        W93587  13.268  37.611   0.431
21328W        W93588   4.137  18.599  14.339
21329W        W93589  15.243  36.957   1.056
21330W        W93590  15.608  14.497   5.053
21331W        W93591  15.063  26.273  14.843
21332W        W93592  31.372  34.581  11.969
21333W        W93593  25.091  16.702   4.528
21334W        W93594  19.738  18.629  11.165
21335W        W93595   7.192  39.932  13.048
21336W        W93596  25.475  40.532  11.374
21337W        W93597  19.648  20.687   2.814
21338W        W93598  24.030  30.233  13.914
21339W        W93599  41.015  24.923  14.041
21340W        W93600  39.899  33.270  10.739
21341W        W93601   8.993  29.082   4.127
21342W        W93602  38.978   3.276  13.971
21343W        W93603  21.648  12.542  10.263
21344W        W93604   5.254  34.529   1.905
21345W        W93605  20.470  20.114  14.452
21346W        W93606   6.187  22.497  13.426
21347W        W93607  37.879  42.333   4.048
21348W        W93608  18.605  42.290  10.681
21349W        W93609  10.288  28.201   2.441
21350W        W93610  19.642   3.865  13.510
21351W        W93611   2.528   4.421  12.767
21352W        W93612   2.209   3.481   4.068
21353W        W93613  13.307  35.849   0.034
21354W        W93614  19.087  37.881   2.935
21355W        W93615  42.369  38.417   0.771
21356W        W93616  37.394  33.143  10.637
21357W        W93617  11.156  21.641  13.073
21358W        W93618  21.451  33.420   2.801
21359W        W93619  17.633  34.519   4.634
21360W        W93620  15.276  10.790   1.761
21361W        W93621  15.187  44.018  14.283
21362W        W93622  21.605  41.549  13.258
21363W        W93623  22.485  36.371   1.589
21364W        W93624  14.292  13.149  10.563
21365W        W93625  29.858  29.518  13.811
21366W        W93626  23.206  10.729   0.831
21367W        W93627  41.438  10.289  11.643
21368W        W93628  29.651  42.477   3.740
21369W        W93629  19.540  20.035   3.155
21370W        W93630  17.997  11.817  11.962
21371W        W93631   9.788  11.266   0.136
21372W        W93632   7.246  17.852  12.477
21373W        W93633   0.785  40.570  12.335
21374W        W93634  14.871   6.275  10.560
21375W        W93635  43.811  38.240   2.757
21376W        W93636  32.425   8.778   0.251
21377W        W93637  22.694   8.655  12.509
21378W        W93638  23.122  24.793  11.382
21379W        W93639  20.521  27.070   5.061
21380W        W93640  23.815  44.274  11.020
21381W        W93641  19.668  39.563   1.911
21382W        W93642   8.242  17.218   2.359
21383W        W93643  14.124   1.187   1.810
21384W        W93644  31.901  44.817   3.291
21385W        W93645  33.838  10.727  11.997
21386W        W93646  27.685   7.121   0.926
21387W        W93647   4.705   5.685  11.738
21388W        W93648  39.554  35.338   3.150
21389W        W93649  29.148   6.698  11.335
21390W        W93650  28.621  21.534   1.778
21391W        W93651  19.024  17.772   0.543
21392W        W93652  27.865  33.956  14.949
21393W        W93653  34.885  38.987  12.531
21394W        W93654  12.555  24.636   3.486
21395W        W93655  17.240  21.262   5.042
21396W        W93656  24.442  44.425   4.541
21397W        W93657   3.318  30.927  14.984
21398W        W93658  22.938  25.408  13.180
21399W        W93659  24.948  13.192  10.761
21400W        W93660   8.927  10.186   2.209
21401W        W93661  10.368   2.407   3.689
21402W        W93662  43.280  42.005  10.532
21403W        W93663  14.103  25.579  13.207
21404W        W93664  37.426   1.664   1.485
21405W        W93665  25.322  13.181   3.013
21406W        W93666   2.833  13.886  13.353
21407W        W93667  12.318   7.370  14.078
21408W        W93668  25.260  20.122   2.317
21409W        W93669  35.709  42.343  12.658
21410W        W93670  13.391   0.592   1.697
21411W        W93671  15.522  40.147   2.371
21412W        W93672  30.490  38.030   3.106
21413W        W93673  18.726  39.830   3.320
21414W        W93674  37.340   8.632   2.358
21415W        W93675  38.332  18.374  13.853
21416W        W93676  26.050   3.480  14.896
21417W        W93677  42.803  42.661   1.191
21418W        W93678   6.266  13.175  11.526
21419W        W93679  11.115  35.448  11.538
21420W        W93680  15.254  36.093  12.413
21421W        W93681  42.233  40.905  11.023
21422W        W93682  30.465   6.405   4.085
21423W        W93683  13.043  28.106   3.090
21424W        W93684   3.995   6.684   0.069
21425W        W93685  16.859  22.217   0.395
21426W        W93686   5.732   2.669  13.884
21427W        W93687  28.663  19.773  14.549
21428W        W93688  40.617  34.864   1.748
21429W        W93689  32.566  25.441  11.602
21430W        W93690  25.611   1.817  13.252
21431W        W93691  32.624  39.421   3.999
21432W        W93692  16.617  30.432  14.748
21433W        W93693  15.870  17.540  13.257
21434W        W93694   1.171   0.812  14.132
21435W        W93695  28.080  17.480   0.496
21436W        W93696   9.624  12.048  11.190
21437W        W93697  20.953   5.274   4.076
21438W        W93698  11.870  11.395  13.916
21439W        W93699  27.444   5.928   3.353
21440W        W93700  36.364  11.807   2.288
21441W        W93701  12.787   4.879  14.531
21442W        W93702   5.657  15.601   0.804
21443W        W93703  26.589  43.993  14.901
21444W        W93704  42.710  21.500   0.332
21445W        W93705  37.405  26.054  11.014
21446W        W93706   1.314  30.785   1.242
21447W        W93707  22.643  15.672  10.701
21448W        W93708  36.430  42.952  12.528
21449W        W93709  22.493  26.376   2.561
21450W        W93710  29.791  29.513  10.938
21451W        W93711  14.236  31.453  12.413
21452W        W93712  16.592   3.286   0.104
21453W        W93713  38.602  21.303   2.564
21454W        W93714  10.734   7.899   1.231
21455W        W93715  14.563  28.392   4.258
21456W        W93716  34.236  10.396   2.852
21457W        W93717  21.263   5.295  10.629
21458W        W93718  29.590  22.220  13.817
21459W        W93719   0.755  19.678  13.512
21460W        W93720  15.624  42.388   2.668
21461W        W93721  10.101   7.934   0.734
21462W        W93722  22.802  15.210  11.522
21463W        W93723   0.721  37.653   2.782
21464W        W93724   6.722  14.144  13.657
21465W        W93725  28.864   4.687   3.342
21466W        W93726  17.184  38.974   4.525
21467W        W93727  40.768   1.579   4.150
21468W        W93728  25.300  10.616  11.510
21469W        W93729  34.674   5.444  11.009
21470W        W93730  20.306  25.772   4.517
21471W        W93731  10.715  40.531   4.850
21472W        W93732  40.591  44.850  10.744
21473W        W93733   2.283  26.635  10.675
21474W        W93734   0.390  10.857  13.747
21475W        W93735  31.175  32.584  14.313
21476W        W93736  13.398  31.632  11.385
21477W        W93737  36.276  13.207   4.238
21478W        W93738  10.838  22.672  12.179
21479W        W93739  40.583  31.395  11.610
21480W        W93740   8.772  28.245   4.992
21481W        W93741   9.596  11.272  11.550
21482W        W93742  24.061  22.429   3.265
21483W        W93743  23.011  32.132  13.985
21484W        W93744  31.405  12.716  14.144
21485W        W93745  22.780  34.514  14.323
21486W        W93746  16.808   0.851  10.354
21487W        W93747  10.670  37.509   0.766
21488W        W93748  38.323   4.706   3.202
21489W        W93749  23.737  34.299  11.575
21490W        W93750  32.409   3.296  13.452
21491W        W93751  41.306   6.678   3.242
21492W        W93752   2.018  44.918  14.223
21493W        W93753   6.168  30.494   1.263
21494W        W93754  27.080  23.714  13.362
21495W        W93755   0.650  27.570   1.385
21496W        W93756  16.351  36.169   3.656
21497W        W93757   1.950  13.171  13.401
21498W        W93758  28.605  30.101   4.037
21499W        W93759  20.652  18.143   2.889
21500W        W93760  16.563  10.308   4.721
21501W        W93761  27.705  13.366  11.757
21502W        W93762  25.678  16.042   4.149
21503W        W93763   6.296  29.410  10.483
21504W        W93764  26.198   2.271  11.117
21505W        W93765  44.768  37.319  13.816
21506W        W93766   3.685  13.388   4.788
21507W        W93767   6.681  44.850   2.628
21508W        W93768  39.341  37.858   3.348
21509W        W93769   7.810   1.815  14.874
21510W        W93770   4.255  11.321  10.486
21511W        W93771  33.464   9.492   4.224
21512W        W93772  11.931  36.088   1.337
21513W        W93773  30.869   2.905  12.079
21514W        W93774  38.531  33.107   4.325
21515W        W93775  16.237  31.337   1.158
21516W        W93776  42.039  15.376   2.766
21517W        W93777  35.066  21.481   2.171
21518W        W93778  21.831  41.869  12.303
21519W        W93779  24.747  15.389  11.571
21520W        W93780  23.954  36.949  14.982
21521W        W93781   7.376  31.337   3.640
21522W        W93782  30.213   0.240  13.478
21523W        W93783  37.933  35.487  11.519
21524W        W93784  20.620  44.954  11.850
21525W        W93785  17.277  17.174  13.758
21526W        W93786  13.636   5.767  10.529
21527W        W93787  38.363  15.171  13.110
21528W        W93788  33.409  16.701  13.794
21529W        W93789   7.314  23.570   2.857
21530W        W93790  12.206  39.577   4.904
21531W        W93791  33.877  37.256   0.921
21532W        W93792  24.065  33.412  10.572
21533W        W93793   2.025  34.662   3.201
21534W        W93794  41.466   7.836   2.616
21535W        W93795  20.777  42.447   4.158
21536W        W93796  23.299  14.289   2.336
21537W        W93797   3.674  17.818   0.223
21538W        W93798  35.340  41.966  11.034
21539W        W93799  36.717  20.035   1.616
21540W        W93800  43.739  32.304  12.510
21541W        W93801   6.331   3.702  10.788
21542W        W93802   4.183  37.082  14.773
21543W        W93803  23.995  18.629  14.505
21544W        W93804  10.712  30.397   0.467
21545W        W93805  20.064  24.615   2.446
21546W        W93806  10.666  44.554   1.265
21547W        W93807  35.913  32.313   4.165
21548W        W93808  40.846  19.575  10.553
21549W        W93809  32.132  22.209  10.474
21550W        W93810  16.725  10.275  11.929
21551W        W93811  22.572   4.319  10.090
21552W        W93812   5.844  37.333   0.457
21553W        W93813   1.680  25.054   1.873
21554W        W93814  36.897  11.876   3.357
21555W        W93815  33.010  13.192   4.917
21556W        W93816  26.327  41.791   9.838
21557W        W93817  39.508   4.418   2.656
21558W        W93818  26.520  40.875  14.369
21559W        W93819   2.897  22.995   3.568
21560W        W93820  31.604  14.528  13.818
21561W        W93821  14.077   4.942  11.062
21562W        W93822  34.649  14.601  13.423
21563W        W93823  41.147  28.091   1.747
21564W        W93824  34.997   1.700  12.785
21565W        W93825   7.647  26.155  13.438
21566W        W93826  10.516  43.750  12.085
21567W        W93827   6.731  16.103  13.298
21568W        W93828  22.738  13.763  12.432
21569W        W93829  30.219  39.420   0.653
21570W        W93830  25.461   0.986  14.785
21571W        W93831  23.654  39.297   2.653
21572W        W93832  27.369  33.532  13.371
21573W        W93833  12.222  26.614   4.732
21574W        W93834   8.712  21.150  11.729
21575W        W93835  44.861  15.330  10.411
21576W        W93836  16.088   3.542   1.845
21577W        W93837  43.867   5.411  14.450
21578W        W93838  21.637  20.833   3.788
21579W        W93839  10.628   6.380   4.146
21580W        W93840  29.432  39.492   1.280
21581W        W93841  25.059   5.726   3.328
21582W        W93842  31.039   8.171  10.352
21583W        W93843  33.598   5.496  12.005
21584W        W93844   5.813  42.163  12.883
21585W        W93845  23.448  37.827   2.794
21586W        W93846  15.707  14.871   2.636
21587W        W93847  21.183   8.885  14.996
21588W        W93848   8.951  38.282   3.299
21589W        W93849   0.564  40.997  12.518
21590W        W93850   9.669   0.245   1.803
21591W        W93851  32.043   7.629  12.624
21592W        W93852   9.139  13.781  10.677
21593W        W93853  29.509  34.045   4.421
21594W        W93854  23.376  26.591   0.857
21595W        W93855   0.018   7.740   0.871
21596W        W93856  33.810   9.291   1.937
21597W        W93857  34.554  25.133   2.209
21598W        W93858  29.119  15.415  12.418
21599W        W93859  17.116  22.183  13.024
21600W        W93860  14.182  14.725  12.303
21601W        W93861  40.324   8.890   1.518
21602W        W93862  31.933  10.383   1.894
21603W        W93863  32.037  36.865   0.899
21604W        W93864  29.899   8.107   2.783
21605W        W93865   3.706  35.115  10.663
21606W        W93866   3.808  44.057   2.285
21607W        W93867   6.446   1.493   3.413
21608W        W93868  43.493   2.519  11.676
21609W        W93869  24.253  25.076   9.916
21610W        W93870  34.172  34.167  13.432
21611W        W93871   1.217  15.074  11.154
21612W        W93872  43.055  40.926   4.006
21613W        W93873  16.073  25.872   1.228
21614W        W93874  30.467   2.048  13.925
21615W        W93875  16.691  18.643   3.181
21616W        W93876  19.935  10.653   1.271
21617W        W93877   5.290  31.008   1.321
21618W        W93878  18.577   5.794   5.495
21619W        W93879  36.861  21.850   0.693
21620W        W93880  41.099  17.123   3.465
21621W        W93881   1.901  31.214  14.818
21622W        W93882  15.005  18.292  11.052
21623W        W93883  37.830  22.726  13.339
21624W        W93884  33.789  36.396  13.551
21625W        W93885   8.896  40.461  10.789
21626W        W93886  16.792   3.349  13.978
21627W        W93887   5.540  17.843   1.285
21628W        W93888   9.178  39.320  13.414
21629W        W93889   1.741  35.302  14.486
21630W        W93890  44.745  29.145  14.840
21631W        W93891  31.139  24.685  10.705
21632W        W93892   2.952  11.922   3.427
21633W        W93893  12.222  39.999   4.609
21634W        W93894  41.317  16.658   4.413
21635W        W93895   3.227  23.090   4.416
21636W        W93896  17.940   4.819   2.283
21637W        W93897  30.577  18.934   3.773
21638W        W93898   3.924  19.519  12.080
21639W        W93899  16.268  38.173  14.922
21640W        W93900  15.137  16.059  13.466
21641W        W93901  13.186  26.419   4.394
21642W        W93902  22.211  15.835   0.365
21643W        W93903  18.450  28.910   5.090
21644W        W93904  20.532  39.868   2.239
21645W        W93905  33.584  18.008   2.436
21646W        W93906   2.933  38.994  14.711
21647W        W93907  25.186  38.838  11.528
21648W        W93908   2.445  27.645   0.801
21649W        W93909  23.967  23.414   2.020
21650W        W93910  17.550  34.169   1.679
21651W        W93911  24.270  42.199  13.397
21652W        W93912   4.234   6.994  11.232
21653W        W93913  33.605   7.864  12.637
21654W        W93914  37.324  28.100   3.172
21655W        W93915   8.917  11.690   1.869
21656W        W93916   0.213   0.229  13.899
21657W        W93917  20.505   4.765  14.812
21658W        W93918  40.913   6.605   1.559
21659W        W93919   0.669  13.543  10.723
21660W        W93920   6.494  16.574   3.660
21661W        W93921  11.198  26.747  14.047
21662W        W93922   9.885  32.586   4.114
21663W        W93923  37.390  39.266   0.805
21664W        W93924  12.764  24.640   1.367
21665W        W93925  28.357  42.955  11.009
21666W        W93926   8.891   2.458  11.572
21667W        W93927  35.320   8.906  14.027
21668W        W93928  42.836   4.965  14.915
21669W        W93929  28.377   6.295   2.320
21670W        W93930  35.488  43.781   3.342
21671W        W93931  17.217   2.709  14.826
21672W        W93932  21.629  28.455  11.073
21673W        W93933  15.162  26.946   2.263
21674W        W93934  20.307  39.961  13.930
21675W        W93935  40.764   0.726   1.727
21676W        W93936   6.952   8.355   0.580
21677W        W93937  37.310  11.090  12.916
21678W        W93938   3.342  15.755   2.781
21679W        W93939   5.537   2.550   0.874
21680W        W93940  17.291   6.260  10.494
21681W        W93941  41.963  12.099   1.598
21682W        W93942  18.218  10.349  11.539
21683W        W93943  10.132  32.906   3.784
21684W        W93944   1.944  44.411   4.003
21685W        W93945   2.377  13.428  14.610
21686W        W93946  30.179  17.226   3.588
21687W        W93947  36.986  41.503  12.862
21688W        W93948  26.106  41.328   3.679
21689W        W93949  15.013  36.549   3.323
21690W        W93950  30.713  36.557   1.494
21691W        W93951   6.179  16.169  10.921
21692W        W93952  43.367   3.480   3.357
21693W        W93953  14.332  21.141  11.299
21694W        W93954  22.027   2.605   4.055
21695W        W93955  19.525  22.010  14.014
21696W        W93956   6.252   0.459  11.164
21697W        W93957  30.360  17.659   0.928
21698W        W93958  16.332  41.321   0.307
21699W        W93959  37.729  38.016  11.333
21700W        W93960  10.779  42.806   1.038
21701W        W93961  10.222   3.909  13.455
21702W        W93962  28.692   8.826   3.316
21703W        W93963  40.345   9.805  11.378
21704W        W93964   8.557  13.109  12.368
21705W        W93965   4.935  37.408  11.422
21706W        W93966  38.012   7.529  10.058
21707W        W93967   3.030  10.667   0.847
21708W        W93968   9.076  28.663   2.812
21709W        W93969   8.413   1.326   1.411
21710W        W93970   4.648   8.366   4.274
21711W        W93971  17.861  13.693   0.858
21712W        W93972  31.125  30.460  13.300
21713W        W93973  22.158  30.150   1.786
21714W        W93974  31.382  34.641  11.189
21715W        W93975  44.726  44.617  13.464
21716W        W93976  27.392  24.693  13.346
21717W        W93977  14.251   1.619   2.748
21718W        W93978  40.177  18.478  11.456
21719W        W93979  10.585  32.817  10.891
21720W        W93980  11.772   1.255   3.677
21721W        W93981  19.695  16.761   0.238
21722W        W93982  11.840  41.708  12.889
21723W        W93983  42.351  39.015   4.561
21724W        W93984   3.775   0.796   2.504
21725W        W93985   2.368   1.662   1.657
21726W        W93986  27.953  27.427   4.227
21727W        W93987   8.381  14.739   3.602
21728W        W93988  23.257  26.772  14.085
21729W        W93989  10.176  34.164  12.594
21730W        W93990   6.004  21.939  14.823
21731W        W93991  31.415   8.233   1.914
21732W        W93992  23.466   4.765  11.022
21733W        W93993  32.413   0.833  12.624
21734W        W93994  23.414  23.652  10.806
21735W        W93995  14.901  39.503   1.683
21736W        W93996  32.977  18.222   0.762
21737W        W93997   9.150  32.631   1.033
21738W        W93998  11.954  18.112   2.730
21739W        W93999  30.051  26.655   0.928
21740W        W94000  30.518  23.986  14.925
21741W        W94001  21.513  38.384   1.703
21742W        W94002  38.965  18.573  14.349
21743W        W94003  15.050  43.778  13.845
21744W        W94004  42.284  17.641   3.239
21745W        W94005  17.332  40.494   4.568
21746W        W94006   2.462   3.625  12.671
21747W        W94007   5.321  34.620  11.586
21748W        W94008  12.538  12.165  12.083
21749W        W94009  44.096   9.099   2.131
21750W        W94010  43.407  37.080   4.895
21751W        W94011  39.980   4.847  13.793
21752W        W94012   2.239  11.962   3.618
21753W        W94013   7.963  33.830  12.062
21754W        W94014  33.976  18.782   5.512
21755W        W94015  13.330   3.420   4.130
21756W        W94016  35.167  14.595  13.227
21757W        W94017  12.379   8.267  10.716
21758W        W94018  42.257  42.223  11.739
21759W        W94019  13.325  37.640  14.789
21760W        W94020   1.312  18.133  13.062
21761W        W94021  14.300  37.642   3.293
21762W        W94022  40.651  16.203   4.621
21763W        W94023  10.149   4.463   2.160
21764W        W94024  20.663  13.296  11.448
21765W        W94025  35.804  41.275   0.830
21766W        W94026  21.774  12.036  12.988
21767W        W94027  14.245  11.712  12.968
21768W        W94028  21.541   3.858   4.223
21769W        W94029  36.854  27.187   4.140
21770W        W94030  30.554  37.599  12.937
21771W        W94031  15.613   9.332   3.684
21772W        W94032  27.091  12.263  12.067
21773W        W94033  14.338  27.068  11.844
21774W        W94034   5.923  23.470  11.702
21775W        W94035  38.300  15.239   0.860
21776W        W94036  21.088  41.867  10.660
21777W        W94037   0.246   7.415   1.703
21778W        W94038  43.958  22.226  13.478
21779W        W94039  18.604   5.993   0.870
21780W        W94040  38.444  16.748   1.620
21781W        W94041  14.689  29.321  12.543
21782W        W94042   7.275  20.330   0.855
21783W        W94043  10.933  33.117  12.063
21784W        W94044  34.941  28.746  11.045
21785W        W94045  43.839   8.434   0.473
21786W        W94046   5.651  14.846  14.873
21787W        W94047  33.993  42.556  13.493
21788W        W94048  14.562  37.050   4.498
21789W        W94049   1.754  28.037  11.195
21790W        W94050  16.728  21.637  13.963
21791W        W94051  39.947  33.631  11.981
21792W        W94052  35.140   9.027   3.355
21793W        W94053  12.419   7.105   4.109
21794W        W94054  33.391  41.893   3.096
21795W        W94055  13.584   5.696   1.424
21796W        W94056  15.182  28.765   3.196
21797W        W94057   5.862  18.118   4.298
21798W        W94058   3.054   0.914  10.697
21799W        W94059  39.036   4.365   0.058
21800W        W94060  21.269   0.887   0.756
21801W        W94061  35.892  20.488   0.421
21802W        W94062  34.613  16.638   0.958
21803W        W94063  20.740  38.462   4.648
21804W        W94064   8.705  11.706  11.527
21805W        W94065   1.231  25.275   0.364
21806W        W94066  37.663  14.363  11.016
21807W        W94067  32.866  25.989   1.951
21808W        W94068  22.277  18.112   4.974
21809W        W94069   4.533   5.751  12.206
21810W        W94070  38.017  14.930   0.043
21811W        W94071  39.583  36.444  13.572
21812W        W94072   0.072  44.110   0.925
21813W        W94073  14.324  16.663  10.481
21814W        W94074  21.131   1.598   2.463
21815W        W94075  38.113   5.756   2.426
21816W        W94076  21.888   4.702   4.174
21817W        W94077  42.863  35.002  14.026
21818W        W94078  17.163  21.663   2.220
21819W        W94079   0.875  33.870  13.912
21820W        W94080   8.890  23.331   1.371
21821W        W94081  38.616  22.558   1.676
21822W        W94082  26.948  22.628   1.889
21823W        W94083  11.613  18.849  13.258
21824W        W94084  20.560  39.071  11.160
21825W        W94085  30.949  41.049   0.027
21826W        W94086  21.499  28.087  13.779
21827W        W94087  35.501  39.579  11.636
21828W        W94088  36.706  43.475   1.443
21829W        W94089  19.363  44.949  14.476
21830W        W94090  40.853  36.281  10.743
21831W        W94091  37.601  39.104  12.129
21832W        W94092  33.531  17.140  13.461
21833W        W94093   2.784  42.858   3.718
21834W        W94094   5.753  17.067  14.842
21835W        W94095   9.266   5.432   1.275
21836W        W94096  21.203  30.420   1.344
21837W        W94097  12.554  14.825   0.815
21838W        W94098  18.112  24.958  12.123
21839W        W94099  40.389  36.598   2.778
21840W        W94100  30.386  32.354   5.032
21841W        W94101  42.625  18.610   4.394
21842W        W94102  38.009  28.527   2.914
21843W        W94103  37.348  20.201   0.673
21844W        W94104   0.283   3.230  10.838
21845W        W94105  26.255  40.713  11.063
21846W        W94106  23.803  21.542   0.549
21847W        W94107   2.814  13.699  14.858
21848W        W94108   0.040  12.140   1.317
21849W        W94109  18.737  11.840   4.135
21850W        W94110  22.543  19.559   0.054
21851W        W94111   4.633  28.990  13.143
21852W        W94112  23.537   9.759   1.444
21853W        W94113   0.435  42.307  13.874
21854W        W94114  41.318  29.523  10.637
21855W        W94115  19.798   2.400   1.990
21856W        W94116  38.430  23.259   4.473
21857W        W94117  11.583   9.857  12.841
21858W        W94118   3.102  12.282   2.406
21859W        W94119  17.178   6.017  13.356
21860W        W94120  23.214  19.735  12.524
21861W        W94121  23.666  28.311   3.660
21862W        W94122  42.328  18.054  10.933
21863W        W94123  20.477   6.528  13.551
21864W        W94124  17.862  35.315   4.221
21865W        W94125  41.081  36.322  12.632
21866W        W94126  35.534  19.774   1.616
21867W        W94127  41.566   1.786  11.950
21868W        W94128  36.129  29.509  11.644
21869W        W94129   2.419   3.868  11.022
21870W        W94130  14.802  12.777  14.741
21871W        W94131  18.074  16.094   1.712
21872W        W94132  39.428  39.412   0.436
21873W        W94133  33.718  26.486   0.128
21874W        W94134   6.116  35.885  14.786
21875W        W94135  34.704  20.535  13.314
21876W        W94136  22.551  11.249   2.361
21877W        W94137  32.686  24.183  12.119
21878W        W94138  29.385  44.510   2.804
21879W        W94139  12.367  23.306  14.668
21880W        W94140  35.896  31.424   3.898
21881W        W94141  30.839  29.617  11.910
21882W        W94142  22.256  42.534   0.245
21883W        W94143  25.648  18.839  13.865
21884W        W94144   7.831  26.421  11.162
21885W        W94145  12.307   2.677   4.087
21886W        W94146  34.796  34.774  13.857
21887W        W94147  10.595  35.942   0.260
21888W        W94148   5.224   4.727  11.519
21889W        W94149  39.098   1.012   5.103
21890W        W94150   3.918  38.545   3.865
21891W        W94151  10.293  31.404   3.986
21892W        W94152  28.562   5.799   2.239
21893W        W94153   0.604  24.196  14.032
21894W        W94154  26.664  18.748   3.176
21895W        W94155  37.794  23.889   0.396
21896W        W94156  32.072  28.364   4.915
21897W        W94157  38.973  37.389   1.806
21898W        W94158  36.073  13.707  12.086
21899W        W94159  15.176   9.438  13.139
21900W        W94160   2.486  25.110   4.742
21901W        W94161   0.958  26.401  10.696
21902W        W94162  32.154   1.346  11.148
21903W        W94163  19.679   2.244  12.902
21904W        W94164  12.331  24.961  14.566
21905W        W94165  14.812  23.422  13.349
21906W        W94166  14.242  28.301   2.326
21907W        W94167   4.289  16.100  13.856
21908W        W94168  10.766   5.922  13.083
21909W        W94169  10.693  30.885   1.830
21910W        W94170   3.472  16.449   3.438
21911W        W94171  38.857  16.838   4.730
21912W        W94172   0.311   3.608  11.194
21913W        W94173  27.256  41.079  13.891
21914W        W94174  40.335  26.472  10.224
21915W        W94175  14.288   7.302  13.767
21916W        W94176  17.129  22.535   4.008
21917W        W94177  38.305   9.626  12.973
21918W        W94178  42.898  43.392   4.704
21919W        W94179   2.946  13.566   2.664
21920W        W94180   5.075   5.483  12.019
21921W        W94181  42.325   3.987  12.156
21922W        W94182  18.773  16.156   0.656
21923W        W94183  38.770   5.051   3.256
21924W        W94184  43.282  44.240   2.322
21925W        W94185  33.451   5.437  14.908
21926W        W94186  37.827  24.052   4.182
21927W        W94187  20.885   5.528   1.038
21928W        W94188  39.444  36.186  10.738
21929W        W94189  32.430   3.524  10.969
21930W        W94190   0.022  18.891   2.789
21931W        W94191  43.342  12.673   1.799
21932W        W94192  39.845   5.302  12.016
21933W        W94193  29.907  18.693  11.730
21934W        W94194  20.541   3.782   4.310
21935W        W94195  27.996  25.129  14.736
21936W        W94196  38.196   2.186   0.939
21937W        W94197  42.622  38.546  10.980
21938W        W94198  25.855   4.778   1.200
21939W        W94199  28.670   3.894   2.826
21940W        W94200  26.961  15.325  11.848
21941W        W94201   0.565   6.546   9.909
21942W        W94202  39.370  11.392   1.282
21943W        W94203  30.606  10.553  12.862
21944W        W94204  25.040  44.614   0.265
21945W        W94205  37.809  33.910  12.554
21946W        W94206  20.259  43.670  10.645
21947W        W94207   8.971  11.831  13.154
21948W        W94208  10.366  33.435  14.299
21949W        W94209  36.523  41.903   0.720
21950W        W94210  20.995  24.771  11.332
21951W        W94211  20.274  25.998  13.437
21952W        W94212  17.791  15.944  11.239
21953W        W94213  23.106  42.743  12.905
21954W        W94214  26.951  42.297  13.296
21955W        W94215  18.559   1.502   3.838
21956W        W94216  41.933  38.979   2.838
21957W        W94217  35.149  21.294  14.850
21958W        W94218  26.194   9.252   4.038
21959W        W94219  34.186  36.830   4.392
21960W        W94220  29.691  43.827   1.702
21961W        W94221  40.310  19.155   4.160
21962W        W94222  31.949   5.217   1.239
21963W        W94223   4.706  14.595   2.368
21964W        W94224   3.792  14.724   0.905
21965W        W94225  27.983  13.715  13.544
21966W        W94226  44.410   2.835   1.692
21967W        W94227  30.463  16.115  12.886
21968W        W94228   8.641  43.553  10.617
21969W        W94229  10.600   7.417   2.715
21970W        W94230   0.933   3.713   2.128
21971W        W94231  27.467  44.007  10.605
21972W        W94232  38.934  21.195  14.804
21973W        W94233  22.715   4.349   0.859
21974W        W94234  17.148  15.903   2.892
21975W        W94235   4.423  16.711   0.537
21976W        W94236  35.603  34.254  13.414
21977W        W94237  43.908  19.383  13.589
21978W        W94238   4.344  15.503   3.330
21979W        W94239  39.405  26.444   3.901
21980W        W94240  33.660  29.284   1.265
21981W        W94241  14.306   6.917   1.756
21982W        W94242  43.014  14.056   1.954
21983W        W94243  19.705  35.497  13.159
21984W        W94244   7.907  27.039  14.550
21985W        W94245  16.369  27.582   2.183
21986W        W94246  43.957  44.006   3.882
21987W        W94247  12.497  41.796   3.211
21988W        W94248  27.453  12.907  14.985
21989W        W94249  32.886  42.023   2.351
21990W        W94250  29.528  30.176   5.133
21991W        W94251  29.772   2.911   1.682
21992W        W94252  24.064  40.919  10.700
21993W        W94253   7.613   1.464   2.728
21994W        W94254  39.293  38.330  13.811
21995W        W94255  41.377  28.018  12.364
21996W        W94256  25.093  29.114   0.990
21997W        W94257  35.542  37.428   2.229
21998W        W94258  17.673   0.834   4.819
21999W        W94259  15.686  40.918  14.046
22000W        W94260  32.715  40.373  11.045
22001W        W94261   3.446  13.616   4.364
22002W        W94262   4.831  42.434   4.246
22003W        W94263  32.125  16.066   3.406
22004W        W94264   8.209  42.969   2.913
22005W        W94265  34.364  29.151  14.839
22006W        W94266  10.853  13.826  14.977
22007W        W94267  43.008   9.462   1.908
22008W        W94268   8.268   0.860   1.713
22009W        W94269  28.695  31.275   2.298
22010W        W94270  37.810  10.190   9.771
22011W        W94271  37.613   0.295   0.942
22012W        W94272  40.091  17.780  12.126
22013W        W94273  19.640  42.974   3.176
22014W        W94274  19.786  16.323   4.024
22015W        W94275  24.602  41.811  12.122
22016W        W94276   3.488   8.617   2.278
22017W        W94277  25.056  43.148  14.865
22018W        W94278  25.667  41.521  10.153
22019W        W94279   6.673  42.973  11.566
22020W        W94280  18.770  41.505   1.964
22021W        W94281   6.276  28.408  10.652
22022W        W94282   5.247   8.847  13.171
22023W        W94283  28.833  27.113   3.742
22024W        W94284  16.262   3.912   2.217
22025W        W94285   5.414  44.359   2.743
22026W        W94286  18.727  22.263  12.540
22027W        W94287  36.540  23.701   1.938
22028W        W94288  23.026  41.736  12.970
22029W        W94289  14.105  35.965  11.146
22030W        W94290  40.525  19.031   3.388
22031W        W94291  38.099  36.945   1.860
22032W        W94292  29.909  10.234   1.879
22033W        W94293   7.802  26.699  10.268
22034W        W94294   8.444  34.086  12.562
22035W        W94295   7.701  33.157  10.701
22036W        W94296  27.187  18.925  14.803
22037W        W94297  16.698  39.226   4.776
22038W        W94298   3.000   7.314   1.415
22039W        W94299  27.419  28.706  10.616
22040W        W94300  27.683  31.466  14.251
22041W        W94301  25.122  14.216   3.649
22042W        W94302  13.028  37.130   5.318
22043W        W94303   3.365  38.194   4.284
22044W        W94304  36.572  23.596   0.423
22045W        W94305  23.274   7.361  12.311
22046W        W94306  22.294  26.060  13.031
22047W        W94307  33.853   6.981   3.683
22048W        W94308   5.664  41.269  11.984
22049W        W94309  16.258  13.982  11.927
22050W        W94310  26.501  41.881  11.596
22051W        W94311  26.625  21.006   0.725
22052W        W94312  24.544  17.142   2.804
22053W        W94313   1.373  24.139   4.228
22054W        W94314  33.966  11.631   0.432
22055W        W94315   3.238  35.603   2.827
22056W        W94316  20.896  38.411   3.350
22057W        W94317  44.826  10.851  12.015
22058W        W94318  41.017  38.864   1.794
22059W        W94319  41.422   9.367   3.283
22060W        W94320  14.328  24.783   4.776
22061W        W94321  41.966   7.902   4.867
22062W        W94322   1.452  11.300  14.475
22063W        W94323  20.548   8.928   4.430
22064W        W94324  31.478  30.997   0.657
22065W        W94325  13.702  16.261  11.057
22066W        W94326  13.585  35.459  13.794
22067W        W94327  19.579  11.861  11.911
22068W        W94328   7.641  31.842   3.941
22069W        W94329  32.056  10.774  10.763
22070W        W94330   1.224  43.294   1.148
22071W        W94331   9.248  33.561   2.272
22072W        W94332  30.924  38.800  12.563
22073W        W94333  11.277  37.450  13.182
22074W        W94334  22.397  28.965  14.438
22075W        W94335  31.043   0.689   4.337
22076W        W94336  37.399  27.953  12.504
22077W        W94337   8.397  17.054  11.704
22078W        W94338  19.049  40.995   3.570
22079W        W94339  44.995  33.708   1.761
22080W        W94340   1.470   7.870  14.810
22081W        W94341  41.654  36.934  11.581
22082W        W94342  35.695  14.326  11.603
22083W        W94343  34.623  35.840   0.799
22084W        W94344  25.220   0.183   1.688
22085W        W94345   2.381   6.889  14.874
22086W        W94346   5.654   5.885   1.319
22087W        W94347  16.723  24.905   4.577
22088W        W94348   0.931  27.969  12.552
22089W        W94349  33.515  25.482   2.873
22090W        W94350  42.918  28.343   2.333
22091W        W94351   5.385  13.663   0.764
22092W        W94352  25.729  36.377   2.353
22093W        W94353   1.717  12.904   4.454
22094W        W94354   5.174   8.106   1.215
22095W        W94355  27.954  36.499   1.747
22096W        W94356  42.345  23.197   1.307
22097W        W94357  17.235  32.164   4.117
22098W        W94358  21.557  32.386   4.656
22099W        W94359   1.711  22.067   2.333
22100W        W94360  10.441  31.006   1.280
22101W        W94361  25.637  36.660   2.818
22102W        W94362  28.240  33.137  13.353
22103W        W94363   3.363   9.408  10.676
22104W        W94364   0.002  27.168   2.195
22105W        W94365  21.033  12.589  11.936
22106W        W94366  19.176  25.681   2.208
22107W        W94367  20.255   2.743  11.891
22108W        W94368  41.328  25.574   1.754
22109W        W94369  24.908   8.300   1.469
22110W        W94370  13.501   2.233   2.894
22111W        W94371  32.678  30.199  11.836
22112W        W94372  42.744   0.651  11.165
22113W        W94373  43.939  26.024  11.559
22114W        W94374  14.768  21.510   1.930
22115W        W94375   8.872  22.657  10.672
22116W        W94376  15.888  38.996  11.579
22117W        W94377  13.939  38.999  11.379
22118W        W94378   1.895   4.556   1.809
22119W        W94379  24.585  17.282  14.961
22120W        W94380   8.253  34.880  14.755
22121W        W94381  27.393  28.976  13.491
22122W        W94382  43.628   3.112  13.458
22123W        W94383  43.962  39.389   4.109
22124W        W94384   6.209  16.219   4.246
22125W        W94385   7.010  36.473  12.406
22126W        W94386  21.624  21.572   1.750
22127W        W94387   4.146   0.810  13.680
22128W        W94388  38.082  17.340   0.371
22129W        W94389   1.046  21.696   2.411
22130W        W94390  43.593  15.140   1.912
22131W        W94391  43.758  40.101   2.908
22132W        W94392  24.055   7.366  12.418
22133W        W94393  19.900   0.963  12.404
22134W        W94394   5.493  14.089  13.098
22135W        W94395  22.317  36.083  11.564
22136W        W94396  39.547  42.518   4.295
22137W        W94397  36.886   4.615  12.011
22138W        W94398  16.792  28.707  11.170
22139W        W94399   6.185  23.654   2.346
22140W        W94400  17.696  20.175  12.550
22141W        W94401  22.062  16.309  10.653
22142W        W94402  29.761  17.333   1.219
22143W        W94403  15.163  38.805  14.008
22144W        W94404   2.169  14.183   4.685
22145W        W94405  15.660  10.378  14.832
22146W        W94406   7.090  39.025   3.596
22147W        W94407  36.924  24.111   0.491
22148W        W94408  24.691  15.593  12.038
22149W        W94409  26.980  17.764  12.504
22150W        W94410  37.632  11.977   4.234
22151W        W94411  19.612  19.258   3.843
22152W        W94412   6.640  14.067  11.454
22153W        W94413  34.462  18.702   1.041
22154W        W94414  34.509   3.497  14.902
22155W        W94415   0.844   3.294  10.742
22156W        W94416  24.549   5.323  11.655
22157W        W94417  32.697  44.476  12.951
22158W        W94418   7.501  38.228  13.984
22159W        W94419   7.797  18.110  11.255
22160W        W94420   1.422  16.316  14.289
22161W        W94421  12.830  43.382  13.406
22162W        W94422  42.550  24.032   1.905
22163W        W94423  18.970   0.586   3.755
22164W        W94424  29.181  39.883  13.856
22165W        W94425   9.195  26.707   0.942
22166W        W94426  22.213  24.868   4.728
22167W        W94427   3.826  36.841   0.503
22168W        W94428  42.333  19.806  14.616
22169W        W94429  28.656  16.625  11.590
22170W        W94430  18.651  31.193   1.257
22171W        W94431   3.656  31.302  13.840
22172W        W94432  28.004   3.264  12.831
22173W        W94433   7.804   2.673  12.066
22174W        W94434  39.035  26.726   2.468
22175W        W94435  21.253  36.362   4.146
22176W        W94436  17.622  27.575  12.440
22177W        W94437  23.890  33.298  14.338
22178W        W94438  21.247  16.479  13.141
22179W        W94439  28.110  31.567  12.866
22180W        W94440   4.801  21.579   1.698
22181W        W94441   7.318  36.993   4.645
22182W        W94442  22.515   9.661  13.947
22183W        W94443  28.916  39.935   3.181
22184W        W94444  23.120  23.502   3.001
22185W        W94445   9.733  36.442  13.500
22186W        W94446  18.806  21.678  10.518
22187W        W94447   3.362  25.653   1.230
22188W        W94448  12.298  24.706  10.564
22189W        W94449  13.527  22.683   3.454
22190W        W94450  30.088  11.880  11.135
22191W        W94451  27.396  37.451  10.546
22192W        W94452   2.879  25.053   4.299
22193W        W94453  28.427  34.028   0.030
22194W        W94454  40.487  44.883   1.505
22195W        W94455  34.091   6.419   0.830
22196W        W94456  22.026  23.194   2.215
22197W        W94457  33.381   6.852  12.375
22198W        W94458  22.525  26.756  11.014
22199W        W94459  44.763  29.670  14.751
22200W        W94460  30.499  38.109  11.634
22201W        W94461  24.776  35.402  13.728
22202W        W94462  19.701  19.972   0.974
22203W        W94463  35.642   5.580  14.698
22204W        W94464  21.005  18.837   0.591
22205W        W94465  43.303  16.945  14.082
22206W        W94466  43.752  31.139   3.895
22207W        W94467  16.729  32.946  12.935
22208W        W94468   6.650  17.653   4.772
22209W        W94469   3.228  23.078  13.855
22210W        W94470  25.138  16.137   2.224
22211W        W94471   2.209  30.935   1.026
22212W        W94472   2.703   0.519  11.530
22213W        W94473  27.332   9.166  14.519
22214W        W94474  40.980  25.554   0.422
22215W        W94475  12.764   1.460   4.777
22216W        W94476  13.607  37.286   4.826
22217W        W94477  28.103   5.387   0.498
22218W        W94478  18.597   1.608  14.338
22219W        W94479   7.433  34.963   2.198
22220W        W94480  10.103   4.856  14.238
22221W        W94481  34.135  27.704   3.495
22222W        W94482  10.852  28.572   4.099
22223W        W94483  40.951  35.048  11.572
22224W        W94484  18.052  25.247  13.540
22225W        W94485  22.191  22.857   0.840
22226W        W94486  27.925  30.031  11.128
22227W        W94487   9.280   3.331   3.526
22228W        W94488   2.918   4.403  14.199
22229W        W94489  19.692  38.503   1.989
22230W        W94490  24.894  24.516  13.545
22231W        W94491  39.382  44.739  11.136
22232W        W94492  12.130  36.840   0.775
22233W        W94493  18.735   7.807  13.329
22234W        W94494   2.331  29.537   0.214
22235W        W94495  15.312  34.871  13.783
22236W        W94496  44.134  21.683   0.743
22237W        W94497  12.055   8.657  10.618
22238W        W94498  43.720  38.562   0.904
22239W        W94499  23.611  11.577   3.463
22240W        W94500  14.524  15.598   1.336
22241W        W94501  21.432  32.784   0.271
22242W        W94502  38.325  20.039   2.407
22243W        W94503   5.637   2.785  11.535
22244W        W94504  14.311  25.525   2.134
22245W        W94505   5.820  11.564   2.903
22246W        W94506   0.822   3.073   0.341
22247W        W94507   6.381  36.312  13.149
22248W        W94508  21.667   8.132   4.595
22249W        W94509  42.848  11.956   5.160
22250W        W94510   2.927  13.050   2.732
22251W        W94511   4.957   6.936   4.314
22252W        W94512  38.227  26.134  11.184
22253W        W94513   4.994   6.432   4.596
22254W        W94514  19.496   2.469   1.043
22255W        W94515  24.952  10.295  10.679
22256W        W94516  43.784  25.663  13.774
22257W        W94517   8.214  44.960   3.957
22258W        W94518  44.875  17.243   4.602
22259W        W94519   5.246  32.549  12.602
22260W        W94520  18.837  14.253   3.985
22261W        W94521   1.450   7.443  12.903
22262W        W94522   5.299  34.488   4.210
22263W        W94523  32.543  28.419  11.544
22264W        W94524  38.314  14.623  12.840
22265W        W94525  31.445   4.855   4.676
22266W        W94526   3.328  14.952  11.107
22267W        W94527  38.944  40.883  14.422
22268W        W94528   8.625   3.383  14.934
22269W        W94529  33.515  20.435   1.940
22270W        W94530   4.809   7.715  11.648
22271W        W94531  38.935  28.478   2.862
22272W        W94532  36.067  16.008   0.206
22273W        W94533  42.515  31.574  12.595
22274W        W94534  11.138  10.162  12.728
22275W        W94535  41.921   9.297  12.105
22276W        W94536  19.543  14.755   2.935
22277W        W94537   5.408  32.109   3.328
22278W        W94538   3.760   6.799  13.278
22279W        W94539   6.263  31.258   0.094
22280W        W94540   0.403  35.066   0.293
22281W        W94541  10.592  40.821  11.240
22282W        W94542  13.715   7.255   2.697
22283W        W94543   3.977  16.119  14.940
22284W        W94544  12.672  31.486  11.877
22285W        W94545  26.311  40.595   4.319
22286W        W94546  21.758  20.604  11.973
22287W        W94547   1.015  34.272  12.448
22288W        W94548   2.198  23.982  14.472
22289W        W94549  40.342  42.197  14.367
22290W        W94550   9.733  19.745  14.249
22291W        W94551   5.703  42.012   2.186
22292W        W94552  34.322  13.350  13.147
22293W        W94553  41.759  20.015  11.547
22294W        W94554  39.025  25.094   1.845
22295W        W94555  26.039   4.960   0.755
22296W        W94556   1.765   1.496   4.205
22297W        W94557  26.934  42.768  13.483
22298W        W94558  43.306  24.622  13.010
22299W        W94559  12.583  14.548   1.780
22300W        W94560  40.221  42.316   0.811
22301W        W94561   7.914   8.591  13.657
22302W        W94562  29.594   7.770  10.649
22303W        W94563  12.565  10.850   1.351
22304W        W94564   0.832  11.221  13.222
22305W        W94565  26.248   3.684  13.843
22306W        W94566   5.898  32.081   3.111
22307W        W94567  43.086  25.690   1.327
22308W        W94568  26.589  11.147  12.952
22309W        W94569  11.715   7.651   1.425
22310W        W94570  32.716  26.563   1.161
22311W        W94571  13.672  31.341  13.977
22312W        W94572  11.639   9.444   1.777
22313W        W94573  28.650  33.616   1.017
22314W        W94574  14.366  29.647   5.007
22315W        W94575  22.763  43.190   2.753
22316W        W94576  20.728   1.157  13.526
22317W        W94577   3.432   3.673  14.415
22318W        W94578  20.784  41.850  13.977
22319W        W94579  23.098   4.488   4.550
22320W        W94580   9.375  32.626  13.316
22321W        W94581  30.947  26.306   1.593
22322W        W94582  26.947  27.088   2.419
22323W        W94583  19.257  11.199  13.789
22324W        W94584  41.758  11.902   0.331
22325W        W94585  27.021  23.088  10.603
22326W        W94586  26.631  12.859  14.276
22327W        W94587  19.801  29.713   2.394
22328W        W94588  37.185  26.066   2.815
22329W        W94589  26.138   9.051   4.499
22330W        W94590  16.654  38.213   4.598
22331W        W94591  20.097  17.153   2.379
22332W        W94592   9.372   5.434  12.365
22333W        W94593   8.546   2.730  12.474
22334W        W94594  41.224  13.540  11.898
22335W        W94595   9.904  42.301   1.241
22336W        W94596  41.437  28.434   0.142
22337W        W94597  31.639  12.282   0.836
22338W        W94598  39.433  26.940   3.734
22339W        W94599  20.117  23.402   1.140
22340W        W94600   4.395   9.625   1.478
22341W        W94601  34.433  29.891   1.184
22342W        W94602  18.759  38.408   4.780
22343W        W94603  20.248  33.902  14.885
22344W        W94604  44.830  25.338  14.263
22345W        W94605  15.850   0.956  10.683
22346W        W94606  44.542  18.345   0.689
22347W        W94607  44.966  39.820   4.706
22348W        W94608  44.927  23.063   2.252
22349W        W94609  31.799  16.257   0.683
22350W        W94610   2.340  30.998   0.037
22351W        W94611  22.906   7.347  14.931
22352W        W94612  13.293  38.651  13.374
22353W        W94613   7.398   0.747  11.626
22354W        W94614  12.848   4.689  12.490
22355W        W94615  32.499   3.710   4.108
22356W        W94616  42.880  39.125  14.941
22357W        W94617   6.029   3.310   2.194
22358W        W94618  29.412  10.712   2.580
22359W        W94619   3.719  10.392  12.433
22360W        W94620  21.338  27.496  11.054
22361W        W94621  30.291  44.163  10.762
22362W        W94622  41.678  16.312  11.599
22363W        W94623  27.765  21.212  12.566
22364W        W94624  23.442  20.970   4.702
22365W        W94625  13.747  17.586  12.647
22366W        W94626   3.127  14.305  13.518
22367W        W94627  12.301  16.566   0.933
22368W        W94628  13.997  40.541  11.100
22369W        W94629  10.778  18.990   4.144
22370W        W94630  27.684  34.946  13.501
22371W        W94631  16.557  38.014   2.744
22372W        W94632  29.598  15.631  12.628
22373W        W94633  18.718   9.675   1.523
22374W        W94634  35.284  24.437  11.643
22375W        W94635  44.358  21.477  12.757
22376W        W94636  37.047  18.105  13.226
22377W        W94637  39.092   4.617   9.780
22378W        W94638  13.165  30.015  14.525
22379W        W94639  33.600  29.471  11.724
22380W        W94640  35.041  36.882  13.473
22381W        W94641  20.998  40.032  12.407
22382W        W94642  13.577  17.043   2.378
22383W        W94643   3.723  13.678   3.128
22384W        W94644  16.075  32.023   0.776
22385W        W94645   9.923  19.036   0.832
22386W        W94646   6.655  23.108  14.760
22387W        W94647  14.795  42.555   2.230
22388W        W94648  21.152  15.596  14.080
22389W        W94649  36.940  28.394  13.908
22390W        W94650   9.224  29.005  10.909
22391W        W94651  18.552  23.610   4.255
22392W        W94652  20.095   1.544   1.851
22393W        W94653  32.831   5.203   1.296
22394W        W94654  17.471  42.316  14.866
22395W        W94655  17.244  11.419  13.814
22396W        W94656  17.309  15.752  12.035
22397W        W94657  12.380  30.390   3.869
22398W        W94658  34.065  18.563  11.084
22399W        W94659  31.020  18.002   1.277
22400W        W94660  31.240  13.782   4.200
22401W        W94661  32.229  30.592  14.769
22402W        W94662   8.285  39.253   4.827
22403W        W94663  32.465  28.574   3.495
22404W        W94664  15.344  26.780  13.377
22405W        W94665  38.693   4.679  11.159
22406W        W94666  31.101  35.561   0.854
22407W        W94667   0.068  16.824   4.848
22408W        W94668  26.468  34.850   0.197
22409W        W94669  10.739  23.715  12.170
22410W        W94670   2.064  19.689   5.063
22411W        W94671  36.775  27.396  11.829
22412W        W94672  23.935  22.480  10.228
22413W        W94673  25.536  23.027   2.960
22414W        W94674   8.074  26.048   2.752
22415W        W94675  35.835   5.522   2.754
22416W        W94676  20.437   5.328   0.971
22417W        W94677  14.457   3.745  12.834
22418W        W94678   8.156  11.190   1.858
22419W        W94679  43.222  28.163   4.216
22420W        W94680  17.096  44.829   1.096
22421W        W94681  23.217   3.351  10.659
22422W        W94682  18.754  37.228  12.861
22423W        W94683   6.837   2.667   1.274
22424W        W94684  14.854  12.708   4.127
22425W        W94685  33.715  17.990  14.507
22426W        W94686  21.195   2.691  13.049
22427W        W94687  23.480  20.613   3.298
22428W        W94688  18.524   1.245  11.571
22429W        W94689  42.025  33.400  13.849
22430W        W94690  39.965  43.783   3.354
22431W        W94691  13.751  41.283   3.200
22432W        W94692   8.901  34.092  12.335
22433W        W94693  24.777  34.458   1.709
22434W        W94694  20.017  30.355   3.548
22435W        W94695  40.056  19.266  13.793
22436W        W94696   6.447  22.527  14.375
22437W        W94697  11.551   6.785  13.887
22438W        W94698  22.368  11.882  11.391
22439W        W94699  13.165  34.157   2.334
22440W        W94700  41.738   7.308   3.714
22441W        W94701  31.830  31.424  10.473
22442W        W94702  27.135  29.856  13.801
22443W        W94703   6.963  21.727   3.886
22444W        W94704  11.445  37.023  11.472
22445W        W94705  32.393  35.659  13.898
22446W        W94706  38.986   1.754   1.753
22447W        W94707   7.393  21.546   4.683
22448W        W94708  35.635  19.637   2.132
22449W        W94709  34.112  11.148  12.900
22450W        W94710  41.608   3.924   3.271
22451W        W94711  39.302  37.079   3.670
22452W        W94712  15.761  33.343   4.219
22453W        W94713  23.944  33.890   2.466
22454W        W94714   0.293   3.340   4.713
22455W        W94715  14.242  38.923  13.830
22456W        W94716  16.046  42.805  13.285
22457W        W94717  22.749  31.356   2.625
22458W        W94718  40.800  17.342  11.519
22459W        W94719  16.254   4.774  12.946
22460W        W94720  37.130   1.834   0.343
22461W        W94721   2.101  29.469  12.396
22462W        W94722   9.889  25.212  14.566
22463W        W94723  15.701  36.621  13.864
22464W        W94724  17.310   5.880  12.021
22465W        W94725  11.293  20.154  14.086
22466W        W94726   2.965  41.878  12.890
22467W        W94727   9.128  37.090  13.401
22468W        W94728  10.320  12.109  13.502
22469W        W94729  26.258  17.118   3.340
22470W        W94730  13.308  11.704   1.278
22471W        W94731  20.372  37.431   4.495
22472W        W94732  32.418  14.006   0.896
22473W        W94733  14.736  37.636  13.405
22474W        W94734  39.776  39.523  10.467
22475W        W94735  38.988  20.767  13.002
22476W        W94736   8.863  37.270  10.816
22477W        W94737  13.176  31.882   0.034
22478W        W94738  38.544   9.412   9.884
22479W        W94739  40.777  24.935   3.001
22480W        W94740   6.220  28.034  14.696
22481W        W94741  40.755  17.249   2.495
22482W        W94742   3.219   6.905   0.190
22483W        W94743   1.654  35.012  13.500
22484W        W94744  40.928   5.650  11.580
22485W        W94745  42.495  13.947   4.764
22486W        W94746   9.682  37.695   3.366
22487W        W94747  27.534  44.344  12.433
22488W        W94748   3.722  24.567   2.126
22489W        W94749  12.418  26.187   3.321
22490W        W94750  10.075  44.995  12.076
22491W        W94751  42.115  27.915   0.848
22492W        W94752  39.897  27.186   1.345
22493W        W94753  18.777   9.755   0.229
22494W        W94754  34.324  14.157   0.806
22495W        W94755  33.724  16.443   4.216
22496W        W94756  33.078  34.914   4.953
22497W        W94757   2.280  34.392   4.265
22498W        W94758  12.310   6.211  14.574
22499W        W94759   1.042  11.229   1.960
22500W        W94760  38.560  14.742   3.191
22501W        W94761   9.365  43.991   4.958
22502W        W94762  30.131   1.572   4.133
22503W        W94763  41.308  22.572   4.862
22504W        W94764  44.273  41.538   3.681
22505W        W94765   7.104  12.610   2.713
22506W        W94766  39.610   7.655  13.584
22507W        W94767  35.012  39.890  14.155
22508W        W94768  10.598  27.419   0.332
22509W        W94769  35.537   8.267  11.643
22510W        W94770   5.621  36.516   1.861
22511W        W94771  21.383  42.096  12.387
22512W        W94772   1.704   3.862   1.252
22513W        W94773  12.297   5.667   4.182
22514W        W94774  14.321  37.520  11.655
22515W        W94775  23.741  40.931   2.245
22516W        W94776  35.091   8.337   4.649
22517W        W94777  16.855   7.794   0.432
22518W        W94778  34.338   1.778   0.397
22519W        W94779  12.832  29.408  11.530
22520W        W94780  15.671  11.772   1.300
22521W        W94781  31.751  42.560   1.366
22522W        W94782  17.657  44.742  12.870
22523W        W94783  43.942  18.826   4.053
22524W        W94784  32.957  42.506   0.370
22525W        W94785  28.897  29.875  13.935
22526W        W94786   5.470  33.692  11.765
22527W        W94787   4.719  22.021   4.640
22528W        W94788  24.497   7.270  11.076
22529W        W94789  13.923  14.680   5.197
22530W        W94790   5.504  26.643   2.667
22531W        W94791  18.663   5.100  14.514
22532W        W94792   1.707  35.570  14.924
22533W        W94793  44.079  36.478   2.806
22534W        W94794  42.873  16.406   3.975
22535W        W94795  12.666  24.377  10.699
22536W        W94796  19.786   6.451  13.059
22537W        W94797   7.236  13.735  14.897
22538W        W94798  19.210   8.495  10.198
22539W        W94799  38.175  21.608  11.541
22540W        W94800  41.598  43.319   1.824
22541W        W94801  37.803  30.384  12.647
22542W        W94802   0.499  34.543  13.089
22543W        W94803  13.447  41.773  11.187
22544W        W94804  38.300   2.252   3.543
22545W        W94805  39.895   6.869   0.501
22546W        W94806  14.678  39.654  11.644
22547W        W94807  28.592  40.327   1.380
22548W        W94808  17.847  18.808  10.714
22549W        W94809  25.220  13.183   2.473
22550W        W94810  40.485   5.058  11.849
22551W        W94811   8.116  21.539   0.799
22552W        W94812  20.125   8.543  10.204
22553W        W94813  23.562  29.052  11.135
22554W        W94814  43.239  19.521   3.144
22555W        W94815  23.639   2.757   3.342
22556W        W94816  17.219  37.404  10.200
22557W        W94817  20.138  42.429   1.029
22558W        W94818  12.154  24.245   0.910
22559W        W94819   6.340  25.191  13.951
22560W        W94820   6.766  17.253   1.650
22561W        W94821   3.963  17.594   0.817
22562W        W94822  20.744   7.340  12.555
22563W        W94823  31.811   4.792  13.484
22564W        W94824   0.467  16.942   3.260
22565W        W94825   5.951   8.823   0.212
22566W        W94826  43.038  33.171  10.175
22567W        W94827   7.158  23.963   2.577
22568W        W94828  19.598  21.663   1.015
22569W        W94829  13.168  32.784   4.278
22570W        W94830  29.604  25.077   2.308
22571W        W94831   3.948  41.110   0.319
22572W        W94832   0.555  25.466   1.264
22573W        W94833  26.998  10.397  14.033
22574W        W94834  21.928  24.036   2.881
22575W        W94835  40.078   0.898  14.398
22576W        W94836  13.195  21.791   2.373
22577W        W94837  37.584  23.427   0.369
22578W        W94838  20.250  34.897   3.430
22579W        W94839  31.082   2.960  13.241
22580W        W94840  22.037   4.405   4.849
22581W        W94841  19.142   8.991  14.278
22582W        W94842  36.288  41.362   0.984
22583W        W94843  38.509  28.150  11.193
22584W        W94844  39.599  34.895  14.004
22585W        W94845  38.217  41.817  12.830
22586W        W94846  17.693   3.567  11.886
22587W        W94847  15.759  13.756  14.923
22588W        W94848  22.106  27.127   2.716
22589W        W94849  43.191  42.352  11.744
22590W        W94850  35.139  18.755  11.679
22591W        W94851   2.777  10.850   1.255
22592W        W94852  40.357  30.972   0.424
22593W        W94853  20.238  20.661   4.163
22594W        W94854   3.536  29.090   2.922
22595W        W94855  29.570  11.138  14.396
22596W        W94856  37.603  13.800   0.971
22597W        W94857  15.310  39.249   1.480
22598W        W94858  10.409   1.259  14.596
22599W        W94859  28.641   8.169  13.679
22600W        W94860  25.911  13.177   4.131
22601W        W94861  44.005  28.654  14.357
22602W        W94862  38.351  37.075   3.643
22603W        W94863  30.545  23.788   4.331
22604W        W94864  10.891  12.664  10.513
22605W        W94865  35.398  17.603  12.502
22606W        W94866  37.890  24.075  14.494
22607W        W94867  23.777  36.811   0.463
22608W        W94868  13.645  18.083   2.862
22609W        W94869  39.410  19.002  11.558
22610W        W94870  29.037  17.678   0.334
22611W        W94871  41.872  19.345   1.342
22612W        W94872  22.637  29.943  14.928
22613W        W94873  37.004  22.943   4.096
22614W        W94874   8.683  44.080  13.953
22615W        W94875   8.081   5.828  13.568
22616W        W94876  25.102  27.645   3.626
22617W        W94877  29.978  32.667   5.197
22618W        W94878  33.597  37.540   4.090
22619W        W94879  19.000  10.258   1.286
22620W        W94880  23.103  35.854  12.453
22621W        W94881   7.584  26.368   4.114
22622W        W94882   1.189  40.567   4.883
22623W        W94883   5.927  27.180   4.367
22624W        W94884  44.331  28.487  12.483
22625W        W94885  29.976   2.755  14.972
22626W        W94886  13.184  41.088   2.332
22627W        W94887  17.222  44.219  11.455
22628W        W94888   3.326  16.000  12.157
22629W        W94889  13.378  11.204   1.368
22630W        W94890   9.007  14.252  10.126
22631W        W94891  44.364  28.150   2.361
22632W        W94892  22.219  12.515  11.979
22633W        W94893  13.395   7.802   2.178
22634W        W94894   1.582  24.896   2.746
22635W        W94895   9.036  12.763   9.854
22636W        W94896  28.067  42.551  12.490
22637W        W94897  36.862  34.425  14.788
22638W        W94898  44.901   9.641   2.332
22639W        W94899  39.561  27.105   4.729
22640W        W94900   5.367  21.737  11.124
22641W        W94901  36.929  31.036  13.872
22642W        W94902  24.032  39.425  12.322
22643W        W94903  39.784   9.027   2.246
22644W        W94904   9.825  37.367   1.289
22645W        W94905  18.554  19.080   1.152
22646W        W94906   8.630  43.466  11.505
22647W        W94907  11.392  37.132  14.063
22648W        W94908  44.264  25.833   3.268
22649W        W94909  42.317  42.917  10.729
22650W        W94910  18.004  29.080  13.944
22651W        W94911  26.858  15.185  11.352
22652W        W94912  17.205   5.257   3.068
22653W        W94913  34.542  21.493   1.943
22654W        W94914  18.032  41.919  13.426
22655W        W94915  32.107   7.121  13.473
22656W        W94916  21.223  24.659  10.440
22657W        W94917  27.761  25.283   3.895
22658W        W94918  24.969  42.210  11.731
22659W        W94919  16.800   4.342  11.461
22660W        W94920   1.465  20.383  12.569
22661W        W94921  16.984   0.462   5.053
22662W        W94922   6.378  14.681   2.717
22663W        W94923  23.260   1.096  12.706
22664W        W94924   6.883   6.753  12.587
22665W        W94925   5.707  18.746  14.384
22666W        W94926  15.510  40.043   4.575
22667W        W94927  24.690  33.363   4.902
22668W        W94928  22.125  28.321   5.473
22669W        W94929  19.042  14.550   2.969
22670W        W94930  40.599  15.158   2.441
22671W        W94931  24.574  39.493   1.317
22672W        W94932  16.526  17.776  10.770
22673W        W94933  35.642  43.945   1.285
22674W        W94934  24.695  44.521  13.531
22675W        W94935   7.890  10.796   4.666
22676W        W94936  10.458  24.452  12.919
22677W        W94937  41.929  20.195  11.992
22678W        W94938  24.317  27.505  12.195
22679W        W94939  36.675   7.753  12.538
22680W        W94940  37.122  44.755  14.909
22681W        W94941  32.557   4.495  13.857
22682W        W94942  43.028   6.850  13.292
22683W        W94943  23.131  35.907   4.502
22684W        W94944  12.275  44.936  12.168
22685W        W94945  38.978   4.534  14.568
22686W        W94946  13.759  23.092   4.597
22687W        W94947  40.019  42.840  11.969
22688W        W94948   7.861  34.085   2.309
22689W        W94949  15.997  39.822   2.354
22690W        W94950  26.730  18.128   4.330
22691W        W94951   7.670   6.702   3.732
22692W        W94952   1.953  22.851   4.631
22693W        W94953  21.128  17.100  10.736
22694W        W94954  24.108  11.626   1.808
22695W        W94955  11.161   3.713  11.592
22696W        W94956  42.978  18.025   0.935
22697W        W94957  23.675  37.675  11.457
22698W        W94958  20.688  43.354   4.885
22699W        W94959  24.432  33.665  13.338
22700W        W94960  27.180   8.718  12.869
22701W        W94961  23.278  19.872  14.692
22702W        W94962   9.687   0.077   3.768
22703W        W94963   7.477   3.241   4.130
22704W        W94964  18.168  10.900   4.164
22705W        W94965   1.876   1.735  10.588
22706W        W94966  25.493  29.218   1.833
22707W        W94967   7.306   4.281   0.417
22708W        W94968  38.599  20.634  14.453
22709W        W94969   4.641  34.787  14.896
22710W        W94970  36.425  26.414   3.169
22711W        W94971  29.937  28.057   0.854
22712W        W94972  27.486  37.154   2.393
22713W        W94973  25.101  12.609  12.473
22714W        W94974   7.780  11.587   1.248
22715W        W94975  25.876  25.237  13.011
22716W        W94976  18.173   8.912   4.646
22717W        W94977  24.277  41.466   3.164
22718W        W94978   5.387  11.375   3.113
22719W        W94979  25.485   4.667  13.284
22720W        W94980  35.674  24.696   0.420
22721W        W94981  36.562  14.308   1.364
22722W        W94982  40.092   1.238  14.848
22723W        W94983   9.170  20.526   2.576
22724W        W94984  10.227  10.710  12.966
22725W        W94985  34.718  36.413  11.132
22726W        W94986  26.226  20.739   4.095
22727W        W94987  44.085  22.184  10.742
22728W        W94988  18.078  22.510  11.251
22729W        W94989   5.671  17.029  13.257
22730W        W94990  16.043   3.808  11.425
22731W        W94991  38.832  17.794  12.558
22732W        W94992  15.216  27.245   3.874
22733W        W94993   9.805  44.868   0.269
22734W        W94994  21.206   5.798   0.731
22735W        W94995  14.723  11.303  14.257
22736W        W94996  25.443  43.014  14.514
22737W        W94997  44.178  21.538  14.800
22738W        W94998  31.147  19.167   4.732
22739W        W94999  15.106  24.580  10.767
22740W        W95000  17.530  12.753  13.849
22741W        W95001   9.343   5.386  13.960
22742W        W95002  25.717   1.555  12.312
22743W        W95003  22.230   8.384   1.394
22744W        W95004  30.182  19.979   1.917
22745W        W95005  17.176   1.557  13.905
22746W        W95006  29.876  19.296   0.497
22747W        W95007  22.217   2.231   4.343
22748W        W95008  12.145  33.018   4.490
22749W        W95009  33.434  39.269  10.744
22750W        W95010  27.032  30.358  13.909
22751W        W95011  30.190  21.965   2.820
22752W        W95012   2.762  23.173   0.377
22753W        W95013  22.987   4.674   2.668
22754W        W95014  20.575  41.944  12.049
22755W        W95015  15.754  38.574   1.501
22756W        W95016  13.314  18.855  13.504
22757W        W95017   4.252  37.151   2.740
22758W        W95018   7.244  36.421   4.166
22759W        W95019  14.714  12.213   1.262
22760W        W95020  38.749   7.332   1.421
22761W        W95021  11.912  38.411  13.075
22762W        W95022  10.815   9.700  13.329
22763W        W95023   6.156  42.802   2.219
22764W        W95024   2.185  40.106  12.996
22765W        W95025  40.163  27.514  12.928
22766W        W95026  29.972  33.215   2.907
22767W        W95027  15.672  17.165  11.491
22768W        W95028  13.702  24.597  14.051
22769W        W95029  29.429  25.186  14.780
22770W        W95030  13.618  34.537   2.745
22771W        W95031  24.665  29.937   2.316
22772W        W95032  33.857  14.165   4.387
22773W        W95033  30.391  14.136   1.571
22774W        W95034   9.714  36.809   3.628
22775W        W95035  25.199  10.225  13.455
22776W        W95036  21.734  15.235  14.271
22777W        W95037   7.736  10.073  13.403
22778W        W95038  10.458  37.577  13.482
22779W        W95039   0.290  40.792  12.082
22780W        W95040  30.055  36.506   0.410
22781W        W95041  16.423  25.493   1.313
22782W        W95042  29.137   8.008  14.581
22783W        W95043  17.842   8.724   0.257
22784W        W95044  43.812   2.354  12.043
22785W        W95045  27.220  42.100   5.527
22786W        W95046  37.569   6.474  13.539
22787W        W95047  38.454  44.415  10.643
22788W        W95048   0.715  18.550   0.946
22789W        W95049  43.281  38.927  10.752
22790W        W95050   9.176  12.625  13.416
22791W        W95051  22.109  36.163   4.262
22792W        W95052  20.657  38.409   2.258
22793W        W95053   3.867  31.978  13.569
22794W        W95054  20.139  14.234   0.847
22795W        W95055  39.623   2.241   1.460
22796W        W95056  24.548   9.741   3.738
22797W        W95057  35.778  22.189   0.663
22798W        W95058  22.923  38.466  12.447
22799W        W95059   5.889   8.116  12.954
22800W        W95060   5.946   9.175  11.450
22801W        W95061   6.543  44.190   1.958
22802W        W95062  34.435  42.312   3.844
22803W        W95063  13.725  27.794   2.970
22804W        W95064   6.744  43.548   0.763
22805W        W95065  24.690  39.849   0.940
22806W        W95066  27.131   8.727   2.654
22807W        W95067   7.230   7.662   0.975
22808W        W95068  34.592  35.141   1.435
22809W        W95069  38.771  19.713   2.457
22810W        W95070  40.479  16.829   2.340
22811W        W95071  40.320  25.212  13.357
22812W        W95072  35.898  30.105  12.977
22813W        W95073  13.830  15.590   4.162
22814W        W95074  36.831  23.214   3.667
22815W        W95075  29.394  41.793  11.576
22816W        W95076  17.661   2.173   0.264
22817W        W95077  21.128  12.843  13.082
22818W        W95078   8.646   7.471   4.206
22819W        W95079  31.410  11.140   2.251
22820W        W95080  23.689   0.792  12.681
22821W        W95081  30.413  30.057  12.797
22822W        W95082   1.452  18.962  12.419
22823W        W95083  38.269   1.019  12.869
22824W        W95084   0.358  19.511  12.530
22825W        W95085  13.603   4.371  13.845
22826W        W95086  41.880  20.053   2.633
22827W        W95087   7.880  43.903  14.406
22828W        W95088   6.751  10.857  10.410
22829W        W95089  16.199  12.519  12.461
22830W        W95090  36.648  32.010   4.213
22831W        W95091  31.555  35.109   3.147
22832W        W95092  23.647  26.845  13.467
22833W        W95093  10.849   9.390   1.281
22834W        W95094   5.149   8.469  10.606
22835W        W95095  10.627  39.400   3.317
22836W        W95096  39.793  20.650  14.846
22837W        W95097  14.304  31.149   0.693
22838W        W95098  15.883  33.498  14.001
22839W        W95099  18.627  11.359   3.840
22840W        W95100   9.494   4.278  11.101
22841W        W95101  26.201  37.789   2.250
22842W        W95102  35.913  21.700   0.779
22843W        W95103  39.481  19.737  11.442
22844W        W95104  16.854  17.218   0.202
22845W        W95105  23.874  23.142   4.964
22846W        W95106  36.333  13.645  10.394
22847W        W95107  29.123   9.580   0.252
22848W        W95108   6.460  26.872  14.476
22849W        W95109  11.389   1.385  13.418
22850W        W95110  30.497  25.408  12.421
22851W        W95111  15.709  34.183   2.682
22852W        W95112   0.882   5.809   2.142
22853W        W95113  15.409  41.422  11.512
22854W        W95114  23.130  23.176  10.741
22855W        W95115  40.417  21.508  12.037
22856W        W95116   7.388  26.089  10.564
22857W        W95117  24.194  24.626  13.026
22858W        W95118  42.498  27.277  12.194
22859W        W95119  21.106  39.899  10.270
22860W        W95120   4.771  43.783   4.681
22861W        W95121  13.718  29.567   4.246
22862W        W95122  31.676  13.402   1.245
22863W        W95123  44.656  28.975   1.374
22864W        W95124  13.232   6.691   0.688
22865W        W95125   2.084  23.199  11.021
22866W        W95126  13.580  12.126   0.356
22867W        W95127  30.022   1.386  12.594
22868W        W95128   0.938  39.063   1.300
22869W        W95129   3.392  21.694   2.053
22870W        W95130  15.226   6.687   2.760
22871W        W95131  35.572  25.033   4.228
22872W        W95132   1.881  34.496  13.356
22873W        W95133  25.007  23.716  14.917
22874W        W95134   3.247  29.204  11.505
22875W        W95135  23.326  41.344   4.547
22876W        W95136  43.726   6.830  12.007
22877W        W95137   5.457  23.634   4.171
22878W        W95138   0.919  20.660  13.146
22879W        W95139  39.586  40.143   3.845
22880W        W95140   5.153  35.429  14.499
22881W        W95141   5.463   3.843  13.627
22882W        W95142  12.822  13.672   3.678
22883W        W95143  27.138   5.189   4.203
22884W        W95144  40.390  24.696  11.518
22885W        W95145  29.257  24.536  14.501
22886W        W95146  20.027  33.597   3.683
22887W        W95147   0.812  26.496   2.906
22888W        W95148   6.434  11.940  14.026
22889W        W95149   5.824  36.831   0.945
22890W        W95150  44.424  25.614  13.516
22891W        W95151  18.072  37.790  13.411
22892W        W95152  38.026  28.560   0.946
22893W        W95153   0.908  29.160  10.779
22894W        W95154   0.514   9.236  13.051
22895W        W95155  10.741  38.312   4.903
22896W        W95156  39.647  33.236  12.103
22897W        W95157   3.106  15.128   2.743
22898W        W95158  20.684  11.901   4.464
22899W        W95159  28.936  20.251   1.326
22900W        W95160  21.298  38.334  10.677
22901W        W95161  26.592  22.614   2.728
22902W        W95162  16.989   1.707  13.424
22903W        W95163  24.082  31.104   0.577
22904W        W95164  38.030   1.520   4.236
22905W        W95165  24.442  28.523   4.258
22906W        W95166   5.807  32.951  14.917
22907W        W95167  29.023   4.843   4.773
22908W        W95168  29.589  19.790  14.979
22909W        W95169  11.552  41.369  11.955
22910W        W95170  29.064  14.417   3.714
22911W        W95171  19.483   9.619  13.324
22912W        W95172  21.767  41.571   0.394
22913W        W95173  41.859   4.881   0.669
22914W        W95174   6.141  35.624  14.336
22915W        W95175  37.368   3.754  11.518
22916W        W95176  29.851  20.758   2.151
22917W        W95177  28.912  11.333  13.810
22918W        W95178  16.257  11.545  14.264
22919W        W95179  20.606  16.551   2.230
22920W        W95180  38.282  41.970   2.808
22921W        W95181  16.229  12.608  13.411
22922W        W95182   9.126   0.877  13.992
22923W        W95183   6.836  22.740   4.311
22924W        W95184  14.713  10.394   1.667
22925W        W95185  39.131  29.529  11.162
22926W        W95186   3.789   2.018  10.769
22927W        W95187  16.320  19.541   3.197
22928W        W95188  19.078  25.163   2.186
22929W        W95189   0.942  22.538  12.880
22930W        W95190  25.233  40.146   3.670
22931W        W95191  21.719  24.105  14.937
22932W        W95192   8.677  14.741  14.914
22933W        W95193  26.707  33.540  14.325
22934W        W95194  34.013  22.988   0.736
22935W        W95195  44.377  14.948  13.386
22936W        W95196   0.358  44.361   3.809
22937W        W95197   7.426  31.973  13.461
22938W        W95198  24.996  29.066   2.583
22939W        W95199  26.481  33.654   4.607
22940W        W95200   8.497   9.879   4.740
22941W        W95201  29.661  39.078   0.391
22942W        W95202  20.966   9.810   2.708
22943W        W95203  35.941  27.567  12.535
22944W        W95204  21.132   7.285  13.492
22945W        W95205  12.588  23.150  12.108
22946W        W95206  28.497  20.592  13.927
22947W        W95207   5.778  29.511  10.752
22948W        W95208  19.485  10.769   3.691
22949W        W95209  25.712  23.196  13.599
22950W        W95210  35.967  15.486   5.255
22951W        W95211  24.988   1.444  12.181
22952W        W95212  24.243  21.170   2.856
22953W        W95213  42.383  10.228   0.036
22954W        W95214  25.718  10.222  13.476
22955W        W95215  28.071  10.604   0.917
22956W        W95216   0.162  29.973  12.026
22957W        W95217   7.398  33.789  13.515
22958W        W95218  39.927   9.346   2.652
22959W        W95219  39.481  26.960   1.590
22960W        W95220  33.194  16.636   1.473
22961W        W95221  28.666  30.751   2.209
22962W        W95222  37.721   1.154  11.336
22963W        W95223  41.034   8.661  12.452
22964W        W95224  16.952  31.204   3.287
22965W        W95225  37.944  36.602   0.750
22966W        W95226  15.309  17.219   4.604
22967W        W95227  11.863  38.897   4.124
22968W        W95228  23.580  23.176   1.750
22969W        W95229  27.213  12.074   2.811
22970W        W95230  30.854   9.674   1.226
22971W        W95231  30.234  17.570   2.019
22972W        W95232  40.904   1.829   0.938
22973W        W95233  10.895  36.015  14.837
22974W        W95234  22.985  30.085   1.014
22975W        W95235  31.084  28.708   1.702
22976W        W95236  16.715  33.442   3.881
22977W        W95237   8.331  34.236   4.262
22978W        W95238  40.979   3.974   0.298
22979W        W95239  38.440  30.006  10.641
22980W        W95240  21.241  41.792  11.530
22981W        W95241   4.319  19.737  14.847
22982W        W95242  26.900  12.276   3.738
22983W        W95243  18.450  24.209   2.644
22984W        W95244  34.542   4.951  10.857
22985W        W95245  19.193  37.704  13.456
22986W        W95246   1.357  34.036   3.887
22987W        W95247   7.464  44.368   2.802
22988W        W95248  34.038  39.466  12.412
22989W        W95249  17.870  11.966  11.057
22990W        W95250  24.964  44.394  13.941
22991W        W95251  42.403  29.649   4.612
22992W        W95252  24.711  32.694   0.484
22993W        W95253  36.633   7.613   2.766
22994W        W95254  24.710  10.760  10.687
22995W        W95255  14.431  44.998   0.835
22996W        W95256   7.722  25.569   0.672
22997W        W95257  13.632  32.838   3.533
22998W        W95258  34.499  17.149  14.693
22999W        W95259  23.160  31.447  10.638
23000W        W95260  29.152   6.885   3.078
23001W        W95261  25.396  38.031   1.945
23002W        W95262  40.812  43.326  11.113
23003W        W95263  28.911   9.884   2.970
23004W        W95264  42.921  41.932  13.087
23005W        W95265  35.504   9.397  13.939
23006W        W95266  33.034  30.253  10.314
23007W        W95267   9.633  29.997  13.479
23008W        W95268  28.300  34.555  10.017
23009W        W95269  37.634   5.682   1.370
23010W        W95270  44.379  31.047  11.584
23011W        W95271  44.616  41.469   4.046
23012W        W95272  16.786  13.631   2.835
23013W        W95273  40.551  10.344  13.423
23014W        W95274  18.299  26.826  10.188
23015W        W95275  25.589  19.558   4.623
23016W        W95276  10.686   4.257   0.698
23017W        W95277  41.131  41.257  13.939
23018W        W95278  28.225  31.141  14.885
23019W        W95279   6.737   0.972  14.524
23020W        W95280   6.235   2.764   3.921
23021W        W95281   3.565  16.903  11.576
23022W        W95282  27.722  27.004   2.003
23023W        W95283  31.700  31.145   4.188
23024W        W95284  43.500  10.099   1.516
23025W        W95285   3.563  21.022  13.877
23026W        W95286  41.786  28.680   3.418
23027W        W95287  15.771  29.461   3.321
23028W        W95288  31.600  19.543   2.616
23029W        W95289  44.389  43.823  14.729
23030W        W95290   0.474   6.422  12.148
23031W        W95291   5.177   9.181   1.386
23032W        W95292   9.618  21.617  10.749
23033W        W95293   0.498  23.747  11.853
23034W        W95294   6.356  32.617   2.201
23035W        W95295   7.365  17.061  10.619
23036W        W95296  20.987  27.636   9.794
23037W        W95297   8.289  39.233  14.725
23038W        W95298  10.035  39.688   4.242
23039W        W95299  30.529  38.786  12.201
23040W        W95300  11.736   8.706  14.981
23041W        W95301  42.198  42.410   1.747
23042W        W95302   0.174  20.805  11.037
23043W        W95303  20.703  32.643   1.928
23044W        W95304  41.601   4.698   1.514
23045W        W95305  33.591   8.863  11.114
23046W        W95306  41.396   2.469  13.400
23047W        W95307  26.206   7.252  12.584
23048W        W95308  20.491  26.684   0.749
23049W        W95309  28.633  15.354   0.682
23050W        W95310  32.064  34.634   1.277
23051W        W95311  13.020  30.259   5.054
23052W        W95312  25.633   2.311   0.068
23053W        W95313  19.530  19.046   4.287
23054W        W95314   2.349  36.470  11.996
23055W        W95315  17.346  29.578  11.144
23056W        W95316  24.666  43.515  13.008
23057W        W95317  29.478   4.645   4.680
23058W        W95318  35.966  23.007  12.482
23059W        W95319  38.330   7.030   1.336
23060W        W95320   5.427   3.417  13.922
23061W        W95321  36.964  26.450   1.851
23062W        W95322  40.701  10.400   4.114
23063W        W95323  13.386  10.100  14.786
23064W        W95324  16.835  30.479   3.988
23065W        W95325  22.543  13.906   1.318
23066W        W95326  41.704  28.901   1.743
23067W        W95327  11.180  28.132   0.455
23068W        W95328  41.049  14.724  10.381
23069W        W95329  31.118  29.485  14.888
23070W        W95330  30.488   9.944  14.987
23071W        W95331  13.800   0.908   2.963
23072W        W95332  30.532  32.802   2.360
23073W        W95333   0.499  17.102  13.799
23074W        W95334  40.372  34.787  13.440
23075W        W95335  23.016  24.968   0.774
23076W        W95336  23.048  39.275   3.631
23077W        W95337  16.641  42.513  14.772
23078W        W95338  38.586  31.853  13.970
23079W        W95339  41.830  44.950  13.890
23080W        W95340   2.893   7.116   3.238
23081W        W95341  30.838  37.434   4.186
23082W        W95342   3.510  13.320  13.760
23083W        W95343  34.657  12.365  11.629
23084W        W95344  35.710  22.095  13.372
23085W        W95345  23.206  40.815  12.869
23086W        W95346  22.228   1.687  14.921
23087W        W95347   1.503  23.565  14.854
23088W        W95348  44.009  21.718  13.576
23089W        W95349  28.449  42.802   2.396
23090W        W95350  22.241  40.273   1.688
23091W        W95351  42.902  10.505   3.655
23092W        W95352  11.915  33.039  11.016
23093W        W95353  42.610  38.690   0.348
23094W        W95354  40.770   8.259   1.980
23095W        W95355  19.731  10.728  14.893
23096W        W95356  41.956  23.524  12.979
23097W        W95357  30.585  19.611  14.400
23098W        W95358  40.943  37.625  12.979
23099W        W95359  43.212  20.236  11.177
23100W        W95360  12.605  35.532   4.592
23101W        W95361  34.458  38.060  11.708
23102W        W95362  17.184  36.402   0.263
23103W        W95363  15.961  12.053   0.894
23104W        W95364  26.044  16.498  14.799
23105W        W95365  20.156  27.824   4.852
23106W        W95366  43.782  25.921  12.969
23107W        W95367  43.851  29.578   4.668
23108W        W95368  31.540   5.294   4.360
23109W        W95369  36.108  42.998   0.778
23110W        W95370  32.045  30.757  12.988
23111W        W95371  22.503   1.292   3.121
23112W        W95372  28.735  39.506   3.437
23113W        W95373  13.698  25.578  11.107
23114W        W95374  25.147   5.408  11.396
23115W        W95375  31.584  37.302   4.230
23116W        W95376   4.952  17.239   3.682
23117W        W95377   9.960  42.874   3.730
23118W        W95378  23.672  13.747  13.527
23119W        W95379  17.243   3.768   4.706
23120W        W95380  10.880  33.415   0.216
23121W        W95381   5.314   8.179   2.742
23122W        W95382  12.633  34.102  14.883
23123W        W95383  23.728  23.215  10.515
23124W        W95384  11.750  37.309   1.938
23125W        W95385  30.659  19.016   4.661
23126W        W95386  24.913  28.060   9.520
23127W        W95387  10.329  39.286   1.355
23128W        W95388  19.721  38.436   1.460
23129W        W95389   9.343  32.485  11.450
23130W        W95390   2.927  21.478   2.269
23131W        W95391  14.751  15.551  14.447
23132W        W95392  17.414   8.295  12.551
23133W        W95393   6.280  12.890  14.041
23134W        W95394  35.229   0.867   3.886
23135W        W95395  35.012  42.811  12.650
23136W        W95396  44.977  14.279   2.275
23137W        W95397   6.158   3.758   1.853
23138W        W95398   5.219  29.984  14.946
23139W        W95399  15.727   3.709  10.111
23140W        W95400  38.912   8.185   0.812
23141W        W95401   7.741  35.752   0.314
23142W        W95402  11.805  16.741   3.636
23143W        W95403  15.064  28.342   2.446
23144W        W95404  36.539  15.559   0.909
23145W        W95405  34.260  13.109  14.379
23146W        W95406  15.228  27.621   9.817
23147W        W95407  33.206  35.912   0.788
23148W        W95408  36.087  41.166   1.419
23149W        W95409   1.705  40.476  13.860
23150W        W95410  12.645  13.541   3.202
23151W        W95411  16.233  13.294   3.673
23152W        W95412  19.514  15.210   3.652
23153W        W95413  31.505   6.828  13.866
23154W        W95414  27.212  31.030   4.253
23155W        W95415  13.810  20.038  11.879
23156W        W95416   0.475  31.597  12.583
23157W        W95417   3.618  24.486   4.402
23158W        W95418   9.086  33.539   0.786
23159W        W95419  43.420  43.988  12.976
23160W        W95420  32.696  44.215  11.630
23161W        W95421  23.922  17.355  14.933
23162W        W95422  19.492  41.270  13.615
23163W        W95423   6.877  42.281  10.913
23164W        W95424  14.397   5.246   2.622
23165W        W95425  24.155   5.466  12.579
23166W        W95426  39.746  20.094   0.445
23167W        W95427  38.259  24.382   1.863
23168W        W95428  22.671  19.583   0.576
23169W        W95429  30.923  11.306   4.378
23170W        W95430  37.612  37.488   2.301
23171W        W95431  23.475  19.806  13.351
23172W        W95432  29.680  13.651  12.492
23173W        W95433   8.037  12.580  11.567
23174W        W95434   8.254  22.465   4.410
23175W        W95435  22.071  19.032  13.136
23176W        W95436  31.684  23.056  13.031
23177W        W95437  18.178  31.544  14.683
23178W        W95438  19.816  40.338   2.519
23179W        W95439   2.381  14.067   0.414
23180W        W95440  32.714   0.248   1.310
23181W        W95441  36.633  32.423  13.861
23182W        W95442  37.574  23.518  11.646
23183W        W95443  37.765  14.330  14.533
23184W        W95444   7.927  34.453   1.780
23185W        W95445  16.612  14.698   2.785
23186W        W95446  21.942   9.196  12.097
23187W        W95447  17.491  15.319   3.761
23188W        W95448  25.281  41.164  13.697
23189W        W95449  11.065  24.528  14.571
23190W        W95450  21.190  35.976   2.701
23191W        W95451  16.324  15.028   2.319
23192W        W95452   4.214  23.010   1.811
23193W        W95453  32.107   7.243  11.744
23194W        W95454  22.118  28.997  10.077
23195W        W95455  43.324  35.389  10.890
23196W        W95456  44.743  22.721  12.384
23197W        W95457   1.934  16.308  10.928
23198W        W95458  35.619  12.282   2.265
23199W        W95459   3.164  32.089  11.578
23200W        W95460  28.903  17.734  13.038
23201W        W95461  23.325  13.623   1.704
23202W        W95462  28.984   4.674   4.287
23203W        W95463  21.927  16.752  10.415
23204W        W95464  39.639  12.282   3.705
23205W        W95465   1.525  26.902   3.178
23206W        W95466   3.469  14.811  14.374
23207W        W95467  24.827   6.254  11.541
23208W        W95468  28.138  30.126  11.575
23209W        W95469  14.889  25.394   0.953
23210W        W95470  20.576  26.618  12.551
23211W        W95471   5.834  33.828  11.423
23212W        W95472  43.630  24.045  12.081
23213W        W95473  24.963  35.887  11.673
23214W        W95474  19.601  40.518  11.412
23215W        W95475  22.928  41.931  14.893
23216W        W95476   3.194  32.323  11.119
23217W        W95477  15.276  19.651   2.204
23218W        W95478  38.479  11.740  12.454
23219W        W95479   6.227  21.207   3.795
23220W        W95480  24.569  28.553  12.502
23221W        W95481  39.759   7.870   2.823
23222W        W95482  24.129  44.422   2.772
23223W        W95483  35.060   3.350  14.239
23224W        W95484  22.253  37.110   0.629
23225W        W95485  22.987  15.159  11.998
23226W        W95486  21.457  16.192   0.522
23227W        W95487  17.663  27.929   0.861
23228W        W95488   6.669  39.915   2.846
23229W        W95489  10.822   9.114   3.199
23230W        W95490  27.895  38.989  14.543
23231W        W95491  10.658  18.151   1.963
23232W        W95492  27.739  17.258  11.002
23233W        W95493  39.630  26.154  14.498
23234W        W95494   4.088  26.124  10.284
23235W        W95495  30.711  37.644  10.926
23236W        W95496  17.227  41.519  10.636
23237W        W95497  13.654  32.627  13.223
23238W        W95498  42.829  22.325  10.189
23239W        W95499  16.661  17.383  11.567
23240W        W95500  43.204  26.354  12.318
23241W        W95501  12.277   4.696  14.544
23242W        W95502  10.648  39.713  14.736
23243W        W95503   6.392  32.924   4.105
23244W        W95504  23.134  17.368   2.688
23245W        W95505  32.294  10.507   0.098
23246W        W95506   3.957  44.636  11.332
23247W        W95507   4.710  41.890   4.661
23248W        W95508  19.218  35.496   2.747
23249W        W95509  15.519  37.432  14.510
23250W        W95510  27.197   4.718  12.376
23251W        W95511   2.417   2.297   4.980
23252W        W95512  40.276  26.990   0.785
23253W        W95513  11.916   5.093  11.069
23254W        W95514  30.429  25.725   0.873
23255W        W95515  24.588   7.812  14.549
23256W        W95516  25.539   7.219  13.341
23257W        W95517   0.979  33.322   2.903
23258W        W95518  37.282   1.351   3.064
23259W        W95519   9.876  28.349   3.199
23260W        W95520   7.752  34.071   1.060
23261W        W95521  34.111  12.947  13.404
23262W        W95522  26.974   6.161  13.785
23263W        W95523  18.225  42.000   3.146
23264W        W95524  31.834  39.624  11.614
23265W        W95525  11.209  26.194   2.611
23266W        W95526   2.696  13.608   4.893
23267W        W95527  39.584  32.130  13.790
23268W        W95528  24.196  13.917   2.735
23269W        W95529  21.632  28.650  13.763
23270W        W95530  34.712  40.144   3.749
23271W        W95531  18.603  27.192   0.250
23272W        W95532  30.909  31.344  11.278
23273W        W95533  22.503  28.883   3.275
23274W        W95534   8.606  41.140  13.005
23275W        W95535  20.215  33.944  10.768
23276W        W95536  34.670   2.868  11.573
23277W        W95537  33.902  34.349  12.865
23278W        W95538  12.160  43.782  13.874
23279W        W95539  30.891  44.996   3.340
23280W        W95540  12.056  22.048  12.372
23281W        W95541   8.697   0.016   2.703
23282W        W95542   4.920  14.999  14.471
23283W        W95543   8.755  14.392  14.497
23284W        W95544  43.380  17.556   4.628
23285W        W95545  35.145   5.789   2.429
23286W        W95546  30.492   8.833   1.174
23287W        W95547  33.084   3.407   0.958
23288W        W95548  40.582  26.611  12.574
23289W        W95549  13.967  17.906   4.904
23290W        W95550  32.955   1.876   4.388
23291W        W95551  34.516  25.152  12.505
23292W        W95552  37.918  43.827  13.986
23293W        W95553  11.551  15.182  12.940
23294W        W95554  25.954  36.002   2.718
23295W        W95555   2.814  29.661   1.080
23296W        W95556   8.306  18.899  11.106
23297W        W95557  29.239  40.420   4.241
23298W        W95558  37.265   9.194   4.282
23299W        W95559  11.569  33.475  11.627
23300W        W95560  22.546  16.390   3.362
23301W        W95561   0.804  36.569  13.335
23302W        W95562   3.502   7.421  11.608
23303W        W95563  14.589  25.547  13.379
23304W        W95564  23.379  21.256  13.340
23305W        W95565   2.431   2.276  13.229
23306W        W95566   4.685  26.626  10.702
23307W        W95567  14.905   6.254   1.002
23308W        W95568  17.702  39.159  12.968
23309W        W95569  44.237  30.798   3.146
23310W        W95570  16.020  11.819  12.969
23311W        W95571  25.985  36.676  12.523
23312W        W95572   6.347   2.293   4.103
23313W        W95573  29.602   6.594   3.860
23314W        W95574  14.114   0.083   2.721
23315W        W95575   7.275  29.173  10.616
23316W        W95576   4.906  25.465  13.853
23317W        W95577  23.119  31.118   3.746
23318W        W95578  18.797   7.173   4.925
23319W        W95579  43.297  19.605  14.092
23320W        W95580   9.883  28.052   2.766
23321W        W95581  34.084  34.543   3.171
23322W        W95582  19.304  32.824   4.135
23323W        W95583   2.463  44.935   4.702
23324W        W95584  15.853  15.634   4.087
23325W        W95585  15.705  26.056  11.357
23326W        W95586  28.211   9.652  12.002
23327W        W95587  42.799  20.354  11.971
23328W        W95588  13.705  17.095  12.753
23329W        W95589  18.150   9.038  13.824
23330W        W95590  16.497   0.556  12.952
23331W        W95591  23.972  28.580  13.950
23332W        W95592  29.995  13.143  10.725
23333W        W95593   0.850  31.140   3.639
23334W        W95594  11.932  24.021  11.628
23335W        W95595  31.257   0.733   3.858
23336W        W95596  37.523  16.799  14.467
23337W        W95597  25.986  14.095   1.818
23338W        W95598   5.483   6.664  13.929
23339W        W95599  44.052  30.620   0.637
23340W        W95600  40.469  17.450   2.889
23341W        W95601  22.487  44.683   2.652
23342W        W95602  16.687   5.819   3.587
23343W        W95603  36.187  39.330  13.267
23344W        W95604   5.910  42.016  11.546
23345W        W95605   7.232  34.783   4.880
23346W        W95606  36.354   2.431   2.354
23347W        W95607  37.455  21.197   4.230
23348W        W95608  35.956  17.869  11.001
23349W        W95609   1.882  17.134  14.134
23350W        W95610  30.479   2.753   2.216
23351W        W95611  23.745  28.120  11.221
23352W        W95612   0.429   6.785   2.328
23353W        W95613  37.095  12.653   0.768
23354W        W95614  24.223  38.319   3.804
23355W        W95615  21.022  38.305  14.318
23356W        W95616  20.397  30.273   0.285
23357W        W95617  32.977  35.431   0.113
23358W        W95618  18.378  30.397   0.834
23359W        W95619  11.173  27.079  12.633
23360W        W95620  19.531  43.935   3.199
23361W        W95621   3.230  44.783   3.748
23362W        W95622   0.980  33.623  13.462
23363W        W95623  34.427  29.170   2.962
23364W        W95624  11.271   9.576  14.965
23365W        W95625  16.449  44.980  14.870
23366W        W95626  43.811  19.071   2.423
23367W        W95627  38.496  14.109  13.857
23368W        W95628  42.090  19.080  14.913
23369W        W95629  26.486  36.631   0.022
23370W        W95630   9.663  12.610   0.074
23371W        W95631  19.942  24.388   1.512
23372W        W95632   2.430  34.175  10.423
23373W        W95633  28.198  38.326  12.606
23374W        W95634  35.624  26.535  13.975
23375W        W95635  43.819   8.257  14.094
23376W        W95636  39.328  37.715  12.443
23377W        W95637  15.019   0.368   0.882
23378W        W95638   7.213   5.835   2.372
23379W        W95639  21.043   7.833   0.857
23380W        W95640  36.481  32.662  13.390
23381W        W95641  28.818  18.571  10.704
23382W        W95642  36.824  43.821  10.563
23383W        W95643  21.254  31.642   4.518
23384W        W95644  37.096  14.108   1.729
23385W        W95645  14.788   9.274  11.871
23386W        W95646  22.583  27.898   2.203
23387W        W95647  19.152  33.309   0.726
23388W        W95648  36.581  21.421   3.221
23389W        W95649  35.791  18.735   4.660
23390W        W95650   3.835   7.463   1.939
23391W        W95651  38.207   9.162  13.930
23392W        W95652  44.821   5.205  14.242
23393W        W95653  39.956  13.088   4.362
23394W        W95654  44.721  25.594   2.179
23395W        W95655  13.352  36.323  10.680
23396W        W95656  16.381  17.747  13.095
23397W        W95657   3.290  12.413   1.940
23398W        W95658  43.597   0.351   0.897
23399W        W95659  17.998  44.401   2.410
23400W        W95660  34.239  15.270   3.638
23401W        W95661  28.483  35.783   2.794
23402W        W95662  27.888   8.752  11.890
23403W        W95663   4.738   6.104  10.569
23404W        W95664  36.993  36.317  13.222
23405W        W95665  17.241  33.912  14.402
23406W        W95666  21.107  22.684   4.617
23407W        W95667   3.303  37.863  13.145
23408W        W95668  35.201  43.354  14.690
23409W        W95669  14.850  40.370  12.184
23410W        W95670  22.541  35.379   1.126
23411W        W95671  39.030   5.287   2.236
23412W        W95672  20.766   8.907  13.500
23413W        W95673   4.923   9.339   4.702
23414W        W95674  16.794  20.454  14.897
23415W        W95675   1.868  40.985  11.189
23416W        W95676  35.486  17.540  11.538
23417W        W95677  39.383  35.034  13.555
23418W        W95678  23.672   0.326  13.053
23419W        W95679  27.119  20.239  11.090
23420W        W95680   5.470  13.636   1.278
23421W        W95681  34.508  19.150  13.535
23422W        W95682  29.505  29.025  11.061
23423W        W95683  21.722  39.740   0.915
23424W        W95684   9.269  36.959  12.020
23425W        W95685   0.232  42.828   0.279
23426W        W95686   1.854   8.711   3.165
23427W        W95687  17.770  18.625  11.697
23428W        W95688  38.561   4.457  14.861
23429W        W95689   3.777  31.450  11.389
23430W        W95690  44.375  37.579   3.162
23431W        W95691  42.051   4.705   3.720
23432W        W95692  36.156  16.784   2.731
23433W        W95693   4.193  11.704   4.639
23434W        W95694  32.198  14.120  10.963
23435W        W95695  31.572  43.207   3.724
23436W        W95696  29.936  42.251  13.506
23437W        W95697  40.375  32.872  13.130
23438W        W95698  21.768  13.348   2.852
23439W        W95699  34.373  39.524   4.580
23440W        W95700  13.317  29.673   2.904
23441W        W95701  17.678  41.458  14.544
23442W        W95702  44.571  33.309  11.198
23443W        W95703  37.418  22.573   1.480
23444W        W95704  27.630  12.065  13.932
23445W        W95705  33.255   1.491   2.277
23446W        W95706  36.591  15.565   3.981
23447W        W95707   3.393  40.308  13.527
23448W        W95708  17.848  14.366   3.661
23449W        W95709  22.112  10.782  14.340
23450W        W95710  22.531  35.580   3.863
23451W        W95711  21.617  27.524  11.488
23452W        W95712  15.994   2.893  12.499
23453W        W95713   6.226  29.500  14.418
23454W        W95714  44.492  33.777   1.961
23455W        W95715  21.146  17.178   3.809
23456W        W95716  15.265  38.495  11.678
23457W        W95717  13.150  35.715  12.347
23458W        W95718  18.598  18.223  10.709
23459W        W95719  14.409  36.809   1.145
23460W        W95720  13.631   5.486   2.313
23461W        W95721  27.624   2.866  14.369
23462W        W95722  19.835  12.208   3.644
23463W        W95723  27.747  18.070  12.116
23464W        W95724  21.202  14.289  13.356
23465W        W95725  31.941  28.686   3.412
23466W        W95726  37.902  18.606  12.043
23467W        W95727   7.487   9.732  14.126
23468W        W95728   2.028  16.346  13.135
23469W        W95729  32.098  35.197  13.403
23470W        W95730  22.474  40.807   1.457
23471W        W95731  12.396  16.236  12.486
23472W        W95732  19.554   4.656  14.871
23473W        W95733  29.942  28.666  11.502
23474W        W95734  14.713  41.959  10.577
23475W        W95735  26.612  20.169  12.508
23476W        W95736   4.355  27.009   0.245
23477W        W95737   0.299  41.430   1.306
23478W        W95738  42.937  28.882  12.452
23479W        W95739  14.178  40.869   1.254
23480W        W95740   7.208  26.373   4.929
23481W        W95741  26.555   3.712  12.983
23482W        W95742  23.267   4.949  13.930
23483W        W95743  11.487  44.347   3.670
23484W        W95744  33.741   5.295   0.348
23485W        W95745  38.839   0.257  14.286
23486W        W95746  14.506  16.230  14.304
23487W        W95747  24.527  42.775  12.367
23488W        W95748  18.327  43.652   0.803
23489W        W95749   1.807  40.449   2.070
23490W        W95750  18.277  40.448   0.042
23491W        W95751  30.521   6.647   2.788
23492W        W95752  44.366  21.696   1.219
23493W        W95753  17.647  28.394  11.613
23494W        W95754  15.608  23.472   1.675
23495W        W95755   5.351  15.131  13.564
23496W        W95756  24.650  38.580  10.610
23497W        W95757  43.127  36.380   1.208
23498W        W95758  40.327   2.732  10.509
23499W        W95759  18.140  34.530   3.050
23500W        W95760  23.721  11.293  11.183
23501W        W95761  29.771  17.831   1.962
23502W        W95762  43.553  19.114   0.916
23503W        W95763  17.519   6.436  11.256
23504W        W95764   6.194  38.805  12.513
23505W        W95765  22.181  27.281  12.187
23506W        W95766  17.431   5.484   3.936
23507W        W95767  41.371  16.091  10.650
23508W        W95768  18.200  38.402   2.228
23509W        W95769  44.506   7.799  13.849
23510W        W95770  27.144  39.594   0.844
23511W        W95771  39.967  15.393   1.569
23512W        W95772  37.623  32.580   4.377
23513W        W95773  13.166   6.182   0.735
23514W        W95774  10.861  21.250   0.662
23515W        W95775  23.781  42.959   2.861
23516W        W95776  33.562  21.256   1.323
23517W        W95777  27.012  32.088   1.852
23518W        W95778  44.775  29.229   4.135
23519W        W95779  26.618  36.386  14.403
23520W        W95780  44.065  16.100   2.585
23521W        W95781  29.650  21.230  14.777
23522W        W95782   1.217  38.923  14.991
23523W        W95783  41.423  39.265   3.755
23524W        W95784  44.828  21.637  14.410
23525W        W95785   1.555  43.708  11.154
23526W        W95786  27.941  41.945   2.364
23527W        W95787   7.257  41.390   2.586
23528W        W95788  31.571   5.243  13.476
23529W        W95789  15.281  44.776   3.602
23530W        W95790  32.567  10.589  11.562
23531W        W95791   7.153  42.756   4.458
23532W        W95792  41.192  30.208   3.712
23533W        W95793  34.125  26.767  13.983
23534W        W95794   2.258  22.200   5.003
23535W        W95795  30.621  10.694  11.166
23536W        W95796  30.949  33.304  13.842
23537W        W95797  33.344   1.531   0.414
23538W        W95798  15.368  24.741  11.199
23539W        W95799  28.658  15.040  13.488
23540W        W95800   0.804  14.089   4.261
23541W        W95801  37.798  20.198  14.516
23542W        W95802   1.449  27.774   3.724
23543W        W95803  15.750  33.219   1.928
23544W        W95804  22.022  32.899   2.199
23545W        W95805  10.728  12.574  14.359
23546W        W95806   2.030  15.377  11.259
23547W        W95807  38.590  28.980  13.802
23548W        W95808   7.162  13.264  14.698
23549W        W95809  27.610  11.560   1.563
23550W        W95810  11.638  32.189   1.956
23551W        W95811  17.355  20.624   2.305
23552W        W95812  36.603  32.550   4.684
23553W        W95813  31.351  12.930   2.155
23554W        W95814   6.842  24.184   3.365
23555W        W95815  13.594  42.934  13.323
23556W        W95816  39.400  12.785   4.571
23557W        W95817  26.457  28.723   3.662
23558W        W95818   4.134  40.784  13.786
23559W        W95819  28.506  11.771   3.854
23560W        W95820  12.322  27.534   5.157
23561W        W95821  44.414  11.039  11.209
23562W        W95822   1.979  38.320   2.128
23563W        W95823  20.687  17.141   0.475
23564W        W95824   4.273  33.426  11.997
23565W        W95825  20.528  34.577  12.430
23566W        W95826   0.630  25.749   2.311
23567W        W95827  30.989  29.391   2.735
23568W        W95828  23.212  15.264   3.164
23569W        W95829   1.984  25.046   4.606
23570W        W95830   6.283  14.869  12.097
23571W        W95831   5.707  43.378   3.157
23572W        W95832  35.529  12.197  14.410
23573W        W95833  30.879  38.866   0.850
23574W        W95834  19.498  33.989   2.318
23575W        W95835  34.895   4.310  11.242
23576W        W95836  10.807  42.836   0.012
23577W        W95837  21.378  24.668   5.177
23578W        W95838   2.221  16.740  13.417
23579W        W95839  39.821   6.214   2.203
23580W        W95840  34.911  24.735   2.165
23581W        W95841  39.892  12.602   4.108
23582W        W95842  31.046  39.359   2.768
23583W        W95843  19.350  16.095   4.204
23584W        W95844  35.358   7.088  14.865
23585W        W95845  11.863  37.323   4.197
23586W        W95846   4.373  22.114   0.287
23587W        W95847   6.359  34.025   3.730
23588W        W95848  30.402   4.752  13.014
23589W        W95849  38.386  34.131   4.648
23590W        W95850   7.803  17.647   1.686
23591W        W95851  14.248  32.510  11.543
23592W        W95852  22.590  35.078   4.047
23593W        W95853  44.627  37.510   1.114
23594W        W95854  23.308  35.929  14.812
23595W        W95855  28.821  28.947  13.440
23596W        W95856  25.327  29.455  14.534
23597W        W95857  38.776   6.935   0.296
23598W        W95858  37.507   6.773  12.681
23599W        W95859  41.992  12.895   0.477
23600W        W95860  28.465  41.660  14.453
23601W        W95861   4.891  18.814   2.378
23602W        W95862  19.167  13.882   3.313
23603W        W95863  19.457  22.743   2.521
23604W        W95864   2.661  38.266   0.946
23605W        W95865  43.509  12.113  14.860
23606W        W95866  42.731  16.306   0.000
23607W        W95867  19.476  12.129   4.624
23608W        W95868  13.659  22.596   2.959
23609W        W95869  34.595  41.695  12.007
23610W        W95870  23.934  37.263  11.123
23611W        W95871   1.989  32.965  11.369
23612W        W95872  39.502   1.058   2.951
23613W        W95873  28.307  15.169  11.632
23614W        W95874  18.721  12.874  14.466
23615W        W95875   0.665   5.692  14.060
23616W        W95876  12.787  11.592   2.864
23617W        W95877  33.952  21.530  12.561
23618W        W95878   9.284  29.982  11.408
23619W        W95879  41.301  15.702   2.426
23620W        W95880  33.656  22.152  10.386
23621W        W95881   2.004  26.504   4.651
23622W        W95882  28.399   3.168   1.759
23623W        W95883  11.589  36.809  12.744
23624W        W95884  43.663  36.883  10.523
23625W        W95885  10.849  39.042   1.279
23626W        W95886  29.102  32.597  12.817
23627W        W95887   0.951  43.566   0.800
23628W        W95888  11.433  24.451  13.373
23629W        W95889  17.109   1.395   3.734
23630W        W95890   6.899   9.777  11.309
23631W        W95891  41.572  42.629   3.175
23632W        W95892   3.361  25.977  10.788
23633W        W95893  22.318  39.901   3.367
23634W        W95894  28.190  22.986   0.393
23635W        W95895  10.271  24.657  12.479
23636W        W95896  40.969  30.277  14.881
23637W        W95897  21.509  32.532  14.067
23638W        W95898  32.460   1.569   2.810
23639W        W95899  11.777  28.082  11.224
23640W        W95900  42.447   2.489   3.300
23641W        W95901  22.017   2.291   0.526
23642W        W95902  36.572   9.838  13.519
23643W        W95903  29.642   1.761   0.754
23644W        W95904  15.682  19.074   0.503
23645W        W95905  10.097  26.227   2.907
23646W        W95906  29.377   1.554  13.889
23647W        W95907  11.136   6.984   2.183
23648W        W95908  15.722  33.686  14.910
23649W        W95909  40.062  26.159   2.978
23650W        W95910  16.113  14.893   1.813
23651W        W95911   2.356   3.445  11.960
23652W        W95912   6.613   4.552  12.155
23653W        W95913  20.945  15.283   2.777
23654W        W95914  31.531   1.694   4.697
23655W        W95915  44.715   9.651  11.186
23656W        W95916  40.273   8.725  12.900
23657W        W95917  40.968  29.981   4.871
23658W        W95918  19.172   9.852  12.030
23659W        W95919  40.349  23.552  10.706
23660W        W95920  36.057   0.582   1.942
23661W        W95921  37.332  43.800  10.784
23662W        W95922  34.329  14.090   4.168
23663W        W95923  34.711  36.179   4.516
23664W        W95924  38.849   3.773   1.206
23665W        W95925  39.018  34.863   2.347
23666W        W95926   0.196  38.609   1.788
23667W        W95927  37.815  43.461  14.679
23668W        W95928  30.585  17.664   2.388
23669W        W95929  11.331   2.601  12.397
23670W        W95930   3.389  11.245   3.420
23671W        W95931  17.784  20.653  13.901
23672W        W95932  40.662  18.333  11.631
23673W        W95933   8.157  15.385   3.877
23674W        W95934  17.025   5.881   0.520
23675W        W95935  12.298   1.912  11.622
23676W        W95936   1.703  33.874   2.636
23677W        W95937  24.396  25.175  13.844
23678W        W95938  36.619  29.978   3.630
23679W        W95939   3.624  25.905  12.563
23680W        W95940  31.910  17.550  12.392
23681W        W95941  31.424  15.604   0.200
23682W        W95942  29.435  17.394  10.596
23683W        W95943  21.436  36.943  13.362
23684W        W95944  21.455   9.952  11.919
23685W        W95945   2.842  21.169  11.945
23686W        W95946  19.760  20.836   1.944
23687W        W95947  25.089  32.924  14.695
23688W        W95948  19.501  20.646  12.042
23689W        W95949   0.784  43.725   2.251
23690W        W95950   9.152  38.026  14.751
23691W        W95951  25.767  33.314  11.476
23692W        W95952  10.240   8.923  11.439
23693W        W95953  21.712  35.413   0.745
23694W        W95954  30.302  32.616  10.937
23695W        W95955  36.498  21.301   1.256
23696W        W95956  14.685  11.537   5.059
23697W        W95957   9.176  10.865  14.157
23698W        W95958   4.314  23.889  14.980
23699W        W95959  42.768  42.367   4.744
23700W        W95960  22.109  34.551   2.728
23701W        W95961  12.531   3.236  13.294
23702W        W95962  40.748  20.698   4.272
23703W        W95963  21.747  20.024  10.847
23704W        W95964  14.387  34.233  11.992
23705W        W95965   0.936  15.491   0.333
23706W        W95966  28.213   1.759   5.005
23707W        W95967   4.831  10.910  14.449
23708W        W95968  44.894  21.753   0.260
23709W        W95969  30.539   9.144  12.602
23710W        W95970  39.511  40.497   2.165
23711W        W95971  15.020   1.960   2.765
23712W        W95972  16.245  26.354  13.558
23713W        W95973  41.416  28.110  10.618
23714W        W95974  31.093  32.590  11.648
23715W        W95975  19.699  37.326   1.403
23716W        W95976  37.326  32.481  11.630
23717W        W95977   9.710  19.829  14.742
23718W        W95978  31.413  27.003   3.196
23719W        W95979  42.505  38.084   3.177
23720W        W95980   9.628   3.269  10.912
23721W        W95981  36.499  34.808   5.006
23722W        W95982  26.719  18.465   2.373
23723W        W95983   0.869  15.820  13.716
23724W        W95984  13.738  32.090   3.981
23725W        W95985  41.807  27.182   0.778
23726W        W95986  24.768  21.132   2.804
23727W        W95987  38.479  18.131   1.954
23728W        W95988  31.908  20.542  11.575
23729W        W95989  19.314  11.708  13.433
23730W        W95990  32.460   6.912   0.776
23731W        W95991  43.549  41.867   4.254
23732W        W95992  39.637  16.225   0.750
23733W        W95993  13.661  20.638  12.970
23734W        W95994  15.456  43.732  11.514
23735W        W95995   7.762   4.697  12.737
23736W        W95996  16.251  13.095   1.356
23737W        W95997  24.973  11.615  11.585
23738W        W95998  21.109  31.015   3.224
23739W        W95999  22.539  42.337   4.843
23740W        W96000  22.926  32.182   1.897
23741W        W96001   4.341  37.731   0.597
23742W        W96002  43.290   6.974   3.708
23743W        W96003  38.126  42.912  10.697
23744W        W96004  44.608  20.437   1.706
23745W        W96005   2.064  34.448  14.905
23746W        W96006  29.785   4.229   1.689
23747W        W96007  44.335   6.870  13.986
23748W        W96008  16.852  34.492  12.477
23749W        W96009   3.347  20.763   2.656
23750W        W96010  31.015   9.642   4.822
23751W        W96011   2.858   2.915  11.640
23752W        W96012  37.468  16.126  12.520
23753W        W96013  12.273   5.778   1.953
23754W        W96014  39.850   8.946  13.857
23755W        W96015  33.058  32.588   3.300
23756W        W96016  40.926  35.078  14.717
23757W        W96017  36.058  34.808   4.574
23758W        W96018   8.202  43.364  12.765
23759W        W96019  20.780  40.109  14.057
23760W        W96020   4.845  33.577   2.817
23761W        W96021   3.288  13.239  11.423
23762W        W96022  18.516  35.955  11.461
23763W        W96023  16.018   4.697   2.753
23764W        W96024  12.080  21.992  14.805
23765W        W96025   1.605  12.001   3.228
23766W        W96026   5.387   6.961   4.604
23767W        W96027  23.833  30.533   1.712
23768W        W96028   8.169  25.311  14.691
23769W        W96029  30.538   3.902   2.385
23770W        W96030   2.457  28.429   4.162
23771W        W96031   5.913   7.607   3.225
23772W        W96032   0.773  19.295  12.745
23773W        W96033  22.745  39.972  10.080
23774W        W96034   0.892   5.274   2.411
23775W        W96035  10.683   3.814   3.778
23776W        W96036  22.214  20.765   2.560
23777W        W96037  27.507  21.590  11.007
23778W        W96038  24.275  12.718   0.407
23779W        W96039  40.683  14.454  11.125
23780W        W96040  21.954   9.955  14.921
23781W        W96041  19.128   9.525  10.167
23782W        W96042   4.312  14.555  10.707
23783W        W96043  11.728   7.683  12.621
23784W        W96044   0.802  44.293  11.970
23785W        W96045  35.728   3.639  11.387
23786W        W96046  39.009  25.175   3.284
23787W        W96047  28.344  19.092  13.318
23788W        W96048   0.637  25.391   2.679
23789W        W96049   0.380  34.036  13.830
23790W        W96050   3.894  20.055   1.442
23791W        W96051  43.349  35.069  14.522
23792W        W96052  36.376   2.155  13.297
23793W        W96053  17.060  25.899  11.168
23794W        W96054  30.187  36.331   4.158
23795W        W96055  26.137  34.651   2.708
23796W        W96056  28.533  22.724   3.705
23797W        W96057  12.080  30.564   0.629
23798W        W96058  41.971   4.922   2.244
23799W        W96059   6.132  23.917   0.840
23800W        W96060  35.356  15.649   3.423
23801W        W96061  22.956  33.962   2.907
23802W        W96062  28.151   5.815  13.364
23803W        W96063  19.761  31.479   4.154
23804W        W96064  28.880  30.490   2.624
23805W        W96065  17.682  14.426   3.153
23806W        W96066  35.353   7.442   4.594
23807W        W96067  35.462  34.547   4.594
23808W        W96068  20.834  29.470   2.398
23809W        W96069  22.206  27.799   5.568
23810W        W96070  18.674  34.940   0.767
23811W        W96071  42.998  36.344   4.559
23812W        W96072   9.672  40.523  14.281
23813W        W96073   2.281  19.847   3.774
23814W        W96074  38.925  42.880  14.488
23815W        W96075   1.077  10.539  11.712
23816W        W96076   5.618  20.300  13.288
23817W        W96077   9.663  22.494   3.225
23818W        W96078   1.920   2.240   4.719
23819W        W96079  18.229  28.362  13.796
23820W        W96080  17.786   1.889   2.764
23821W        W96081  18.661  15.231   2.118
23822W        W96082   5.351  17.103  10.545
23823W        W96083  40.975  22.033  13.439
23824W        W96084  21.692  35.600  13.054
23825W        W96085   9.235  37.404  14.433
23826W        W96086  22.831   2.888   1.763
23827W        W96087  29.027  37.186   1.532
23828W        W96088  39.525  35.696  11.042
23829W        W96089  43.555  37.865   2.406
23830W        W96090  10.173  13.051  11.128
23831W        W96091  38.622  31.039  14.566
23832W        W96092   9.634  35.434   2.118
23833W        W96093   9.235   6.448   1.255
23834W        W96094  39.426  40.335   1.648
23835W        W96095  43.964  15.851  10.627
23836W        W96096  21.214  19.341  10.419
23837W        W96097  28.437  43.487   2.539
23838W        W96098   1.865  29.320  11.505
23839W        W96099  43.871  11.941  13.402
23840W        W96100  12.736  43.039  14.441
23841W        W96101  23.948   8.681  11.936
23842W        W96102  27.995  38.454   1.201
23843W        W96103  19.667   0.660   3.164
23844W        W96104  36.403  24.243   1.285
23845W        W96105  16.810  33.601   2.603
23846W        W96106  32.463  29.103  10.761
23847W        W96107  38.598  12.377  14.319
23848W        W96108   1.694  15.691  14.085
23849W        W96109   0.282  18.724   0.702
23850W        W96110  13.689  12.796  13.753
23851W        W96111   2.365   8.540   3.054
23852W        W96112  21.513   1.436  12.909
23853W        W96113  40.345  19.048  12.693
23854W        W96114  14.027   6.631   3.662
23855W        W96115  38.532  14.259   0.201
23856W        W96116  15.400  13.392  13.684
23857W        W96117  10.074  15.667  13.344
23858W        W96118  15.040  23.499   0.766
23859W        W96119  29.932  41.825  13.826
23860W        W96120   1.437   7.736   1.736
23861W        W96121  38.836  19.132  13.126
23862W        W96122   0.872  37.010  11.657
23863W        W96123   1.481  34.581  13.722
23864W        W96124  35.331  15.148   4.090
23865W        W96125   3.905  26.035   4.666
23866W        W96126  33.049  40.812  13.860
23867W        W96127  43.885   6.750   4.610
23868W        W96128  35.409  19.199  11.850
23869W        W96129  21.334  22.263   2.771
23870W        W96130  39.808  12.648  12.506
23871W        W96131  38.587  32.411   0.314
23872W        W96132  31.146  44.948  11.466
23873W        W96133  31.408   3.700   2.325
23874W        W96134  33.499  34.892  14.607
23875W        W96135  30.522   8.003   4.383
23876W        W96136   2.712  33.910  12.498
23877W        W96137   9.316   7.747  13.866
23878W        W96138  21.743  35.557  13.975
23879W        W96139  18.106  13.045  12.985
23880W        W96140  24.589  18.080   2.824
23881W        W96141  44.247   5.933  11.134
23882W        W96142  44.765  32.490   2.096
23883W        W96143  20.318  34.139   4.481
23884W        W96144  34.408  28.042  10.901
23885W        W96145  28.047  39.896   1.991
23886W        W96146  11.286   4.855   2.325
23887W        W96147  35.191  38.992  14.799
23888W        W96148  30.716  31.437  12.976
23889W        W96149  27.903  25.772   2.875
23890W        W96150  19.915  39.726  12.407
23891W        W96151   2.670  38.957  11.919
23892W        W96152   8.815  29.532  13.548
23893W        W96153   9.514  15.121   3.111
23894W        W96154  35.325  31.392  11.869
23895W        W96155  19.252  37.197  13.582
23896W        W96156  26.917  31.921   4.157
23897W        W96157  14.556  43.684  12.964
23898W        W96158  28.136  44.043   3.759
23899W        W96159  24.698   9.075   3.185
23900W        W96160  26.094  15.333   3.720
23901W        W96161  11.133  12.159   4.033
23902W        W96162  38.660  29.678   2.105
23903W        W96163  36.044  18.403   5.087
23904W        W96164  43.436  26.167  11.410
23905W        W96165   9.466  33.883   0.504
23906W        W96166  28.816  34.474  14.335
23907W        W96167   1.871   0.196   3.779
23908W        W96168  30.007  44.702   0.420
23909W        W96169  44.441  16.575   1.901
23910W        W96170  13.206  26.604   0.788
23911W        W96171  42.751  41.098  12.214
23912W        W96172  40.254  20.594   4.169
23913W        W96173  34.879  42.966   2.011
23914W        W96174  41.802   1.862  13.940
23915W        W96175  19.803  36.357  12.585
23916W        W96176  37.869   8.611  14.854
23917W        W96177  22.839   9.362  13.661
23918W        W96178  19.122   7.682  10.689
23919W        W96179   0.571  43.852  12.216
23920W        W96180  25.909  10.176   1.777
23921W        W96181   7.844  22.312  13.749
23922W        W96182  44.526  41.959   2.787
23923W        W96183  20.093  16.003  13.063
23924W        W96184  39.897  16.125  14.976
23925W        W96185  28.128  16.851   3.761
23926W        W96186   3.954   8.959   0.286
23927W        W96187  32.544  41.733   0.725
23928W        W96188   5.197  40.289  14.328
23929W        W96189   0.874  16.142   2.934
23930W        W96190  41.614  24.987   5.005
23931W        W96191  20.658  11.186  12.986
23932W        W96192  26.637  19.693  11.639
23933W        W96193  34.970  27.101  10.538
23934W        W96194  20.146  16.100   4.772
23935W        W96195   6.796  39.088  12.833
23936W        W96196  13.930   9.199  10.760
23937W        W96197  27.614  12.731   4.573
23938W        W96198  33.462  18.702   0.227
23939W        W96199  41.888  17.793  10.978
23940W        W96200  30.337   3.327  11.025
23941W        W96201  28.052  41.795  11.941
23942W        W96202  32.798  42.786   3.035
23943W        W96203   0.979  22.224   4.179
23944W        W96204  39.768  41.498   3.666
23945W        W96205  18.447  14.647   1.832
23946W        W96206  34.706  43.087   0.986
23947W        W96207  11.453   6.699  11.956
23948W        W96208  13.647  37.882  12.177
23949W        W96209  24.070  27.164   5.078
23950W        W96210  26.619  25.359   3.430
23951W        W96211  36.093   0.576   3.295
23952W        W96212  10.175  20.616   2.612
23953W        W96213   5.113  20.631   2.542
23954W        W96214  37.323   5.799   3.661
23955W        W96215  40.427  40.830  10.586
23956W        W96216  17.204  22.209   3.013
23957W        W96217  39.033  12.723   2.348
23958W        W96218   5.863   2.262  14.190
23959W        W96219   8.392   5.918   1.437
23960W        W96220  22.916  22.830  11.887
23961W        W96221  13.037  24.178   1.336
23962W        W96222  31.675  15.625   3.657
23963W        W96223  17.287  19.527  11.140
23964W        W96224   4.677  37.845  12.558
23965W        W96225  29.540  17.764   4.666
23966W        W96226  39.485   4.202  14.821
23967W        W96227  20.670  24.527   1.588
23968W        W96228  16.414  23.228   2.302
23969W        W96229  27.767  27.460   1.728
23970W        W96230   2.761  18.960  13.651
23971W        W96231  22.237   7.806   0.219
23972W        W96232   3.739  20.117  13.764
23973W        W96233   8.109  13.765  10.628
23974W        W96234  32.440  35.097  12.498
23975W        W96235   1.764  19.935  10.785
23976W        W96236  44.842  29.872   2.802
23977W        W96237   4.299  37.829  12.952
23978W        W96238  37.338  41.764   1.724
23979W        W96239   6.169   5.751   3.263
23980W        W96240  16.198  43.362  10.406
23981W        W96241  36.849  29.322   3.666
23982W        W96242  12.358   5.320   1.763
23983W        W96243   1.052  23.651   4.200
23984W        W96244  21.780  12.593  12.965
23985W        W96245  23.579  29.504   4.946
23986W        W96246  37.258  22.878  11.095
23987W        W96247  20.059   0.517   1.676
23988W        W96248  15.821   2.980  13.093
23989W        W96249  43.445  23.989  10.629
23990W        W96250  18.563   8.193   2.328
23991W        W96251  19.183  34.598  13.053
23992W        W96252  14.618   7.623  13.993
23993W        W96253  24.963  14.704  13.433
23994W        W96254   5.921   6.318  12.785
23995W        W96255   8.449  11.853  11.984
23996W        W96256  16.443  15.407  10.316
23997W        W96257  31.092   6.203  11.209
23998W        W96258  31.085  27.537   2.162
23999W        W96259   9.096  21.150   4.250
24000W        W96260  21.812   7.193   3.751
24001W        W96261  37.345   5.266  12.340
24002W        W96262   1.003  31.581  12.590
24003W        W96263   2.926   9.068   1.837
24004W        W96264  12.380  27.395   2.893
24005W        W96265  37.857  35.782  11.076
24006W        W96266  11.432  38.107   0.807
24007W        W96267  12.818  16.111  13.872
24008W        W96268  16.212  14.886  13.910
24009W        W96269  39.966  30.001  14.965
24010W        W96270  43.349  43.475  12.989
24011W        W96271  41.015  26.178   3.326
24012W        W96272  34.841  37.054  14.984
24013W        W96273  15.620   5.677  13.536
24014W        W96274  17.278   8.899   3.286
24015W        W96275  33.574  12.274   1.970
24016W        W96276  19.724  33.728  10.919
24017W        W96277  26.283  38.331   1.348
24018W        W96278  38.152   9.609   2.289
24019W        W96279  15.676  38.325   3.282
24020W        W96280  13.258  20.662   2.876
24021W        W96281  23.780  14.400   2.224
24022W        W96282  38.610  42.082   1.354
24023W        W96283  42.361  22.763  12.754
24024W        W96284   6.385  10.495  10.594
24025W        W96285  39.247  29.485  12.221
24026W        W96286  10.968  15.211   3.434
24027W        W96287  18.127  37.312  12.549
24028W        W96288  14.253  19.480  11.506
24029W        W96289   7.858  11.758   0.334
24030W        W96290   2.755  13.321   1.790
24031W        W96291  33.039  30.129   1.235
24032W        W96292  18.066   5.317   3.248
24033W        W96293  31.544   9.191  11.232
24034W        W96294  12.771  32.017  10.825
24035W        W96295  39.416  17.050   1.884
24036W        W96296  43.519  44.759   3.173
24037W        W96297  24.473  14.375  10.120
24038W        W96298   2.518  20.122  13.774
24039W        W96299  30.232  16.323   0.363
24040W        W96300  12.435  21.728  12.642
24041W        W96301  43.783   1.298  13.616
24042W        W96302  23.841   0.458   0.743
24043W        W96303  34.056  16.366  11.975
24044W        W96304  35.460  22.182  14.158
24045W        W96305  32.949  25.978   3.288
24046W        W96306  44.807  31.883   2.898
24047W        W96307   4.311  25.943  13.434
24048W        W96308  18.340  16.277   2.595
24049W        W96309   6.915  43.006   4.845
24050W        W96310   1.959  25.986  11.212
24051W        W96311  16.298  36.568   1.933
24052W        W96312  16.593  42.004   1.707
24053W        W96313  38.918  39.082  14.792
24054W        W96314  39.564  28.983   0.975
24055W        W96315  14.808  27.718  13.596
24056W        W96316  19.814   3.918   2.617
24057W        W96317  41.531  14.669   3.882
24058W        W96318   3.660  13.438  13.266
24059W        W96319   4.183   4.377  12.389
24060W        W96320   0.422  42.469   3.611
24061W        W96321  12.699  26.426  14.988
24062W        W96322  12.076   7.729   1.057
24063W        W96323  32.478   0.539   2.867
24064W        W96324  13.209  23.959  12.549
24065W        W96325  34.391  11.650   0.796
24066W        W96326   8.457  43.497  14.741
24067W        W96327  24.597  32.095  14.843
24068W        W96328  17.059  13.031   2.561
24069W        W96329   2.958  40.403   4.703
24070W        W96330  20.605  39.973  13.018
24071W        W96331  22.762  26.261   1.334
24072W        W96332  10.848  41.039   0.225
24073W        W96333  16.363  40.990   0.708
24074W        W96334  10.772  16.100  12.032
24075W        W96335  23.761   3.783  11.150
24076W        W96336  39.224  13.853  13.595
24077W        W96337  23.080   1.715   2.348
24078W        W96338  11.348  15.269  14.998
24079W        W96339  23.989  31.089  14.495
24080W        W96340   5.236  38.410   3.061
24081W        W96341  21.482   5.185   2.792
24082W        W96342  10.524   6.809  12.919
24083W        W96343  32.686  18.257  14.353
24084W        W96344  19.601  40.242  14.996
24085W        W96345   1.888  29.599   4.506
24086W        W96346  34.835   3.901  10.935
24087W        W96347  29.793  15.692   4.832
24088W        W96348  19.668  28.994   1.846
24089W        W96349  30.140  39.819   0.331
24090W        W96350  28.746  32.383   2.876
24091W        W96351   0.181  44.954  13.453
24092W        W96352   6.238   9.564  12.098
24093W        W96353  43.041  25.044   0.484
24094W        W96354  21.450   7.733  12.003
24095W        W96355  34.584  26.210   1.019
24096W        W96356  27.008  39.055  12.468
24097W        W96357  30.389  34.320   2.454
24098W        W96358  18.734  41.899  12.779
24099W        W96359   6.759  37.923  14.874
24100W        W96360  35.327  29.510  14.726
24101W        W96361  32.946  33.182   2.261
24102W        W96362   2.988  24.269   1.802
24103W        W96363  19.838  21.147  14.424
24104W        W96364  27.873   0.318  12.871
24105W        W96365  32.009   4.368  10.612
24106W        W96366  31.895   5.481   1.690
24107W        W96367  14.681   2.842  12.573
24108W        W96368  24.459  14.961   1.352
24109W        W96369  34.923  24.363  10.194
24110W        W96370  40.066   8.342   0.901
24111W        W96371  27.112  38.952   4.167
24112W        W96372  10.374  30.923  14.046
24113W        W96373  42.267   1.858   1.120
24114W        W96374  29.463   2.058  13.775
24115W        W96375  28.060  23.493  11.540
24116W        W96376   4.174  17.697   0.359
24117W        W96377  39.330   4.847  10.464
24118W        W96378  43.953  43.905   3.384
24119W        W96379   3.260  41.583   2.377
24120W        W96380  37.376  23.402   4.582
24121W        W96381  44.347  18.772  14.511
24122W        W96382  16.975   7.219   2.744
24123W        W96383   8.776   1.796  12.815
24124W        W96384   5.409  28.837  10.529
24125W        W96385  42.483   0.253  13.418
24126W        W96386  36.129  20.737   2.695
24127W        W96387  35.328  28.764  12.468
24128W        W96388   7.400  14.543  11.864
24129W        W96389   9.050   2.134   0.532
24130W        W96390  17.027  31.673   4.096
24131W        W96391  30.071  44.610  11.485
24132W        W96392  37.887  40.249  11.128
24133W        W96393  33.697   8.640   0.867
24134W        W96394  37.019  11.671  11.322
24135W        W96395   1.122  34.668  14.847
24136W        W96396   2.000  18.034  13.915
24137W        W96397  18.049  41.735   2.651
24138W        W96398  17.825  13.281   0.299
24139W        W96399  33.534   3.362   0.675
24140W        W96400  18.779   8.722   1.203
24141W        W96401   3.229  35.034  14.085
24142W        W96402  31.277  31.440   0.948
24143W        W96403   8.249  23.352   3.107
24144W        W96404  33.469  37.089  13.974
24145W        W96405  19.894  43.945   1.761
24146W        W96406   1.145  25.199   2.754
24147W        W96407  32.401   7.234   1.259
24148W        W96408  36.564  31.142   4.528
24149W        W96409  35.043  30.643   4.632
24150W        W96410  15.106  28.819   2.234
24151W        W96411   4.331  15.972  10.765
24152W        W96412  33.526  29.409  14.805
24153W        W96413  40.062  16.479   2.315
24154W        W96414  17.339  25.390   1.344
24155W        W96415   1.943   6.032  12.833
24156W        W96416  25.246   6.452   0.862
24157W        W96417  16.028  40.573  13.700
24158W        W96418  43.903  17.745   1.005
24159W        W96419  34.923  21.157  10.140
24160W        W96420  44.559  44.211   0.921
24161W        W96421   9.834  37.957   4.834
24162W        W96422  30.200   3.392  13.940
24163W        W96423  32.365  21.633  11.674
24164W        W96424  38.586   9.510  13.846
24165W        W96425   1.203   6.885  12.193
24166W        W96426  14.369  33.369   2.860
24167W        W96427  27.915  29.156  12.634
24168W        W96428  10.648  10.043   3.190
24169W        W96429  11.610  12.533  11.988
24170W        W96430  11.669  32.786   4.626
24171W        W96431  38.829  31.468  14.946
24172W        W96432  11.693  11.894  13.298
24173W        W96433  15.733  26.215   4.182
24174W        W96434  32.368  31.099  11.997
24175W        W96435  42.498   2.651  11.418
24176W        W96436  13.282  42.500  13.285
24177W        W96437  25.060  23.182  10.986
24178W        W96438   5.255  28.078   5.060
24179W        W96439   8.956  16.257  12.817
24180W        W96440  24.767   4.855  11.612
24181W        W96441   0.739   7.906  10.796
24182W        W96442  18.508  43.895   4.696
24183W        W96443  30.450  35.847   2.176
24184W        W96444  25.651  20.252  10.710
24185W        W96445  38.359  37.819   1.669
24186W        W96446  33.690  41.526   1.363
24187W        W96447   0.724   9.080  12.536
24188W        W96448   0.076   8.804   1.256
24189W        W96449   2.979  42.415  12.795
24190W        W96450  29.915  31.098   0.540
24191W        W96451  43.225   6.668  10.670
24192W        W96452   6.951  30.644  13.874
24193W        W96453  10.264   1.855   0.911
24194W        W96454   9.580   6.254   2.146
24195W        W96455   9.720  44.335   4.324
24196W        W96456   7.849  26.322  10.645
24197W        W96457   5.481  44.529   0.287
24198W        W96458  36.104  44.778  12.174
24199W        W96459  10.419  31.538  11.585
24200W        W96460  25.718  15.018  13.369
24201W        W96461  29.987  33.982   2.452
24202W        W96462  20.585  35.176   1.733
24203W        W96463  26.237  26.970  10.664
24204W        W96464   7.893   4.759   1.658
24205W        W96465  25.444  30.222  14.842
24206W        W96466  38.213   6.642   1.014
24207W        W96467  39.990  36.299   0.443
24208W        W96468  18.998  12.235   3.206
24209W        W96469  14.124  15.728   2.820
24210W        W96470  39.155  12.158   3.580
24211W        W96471  15.677  29.001  12.276
24212W        W96472  24.509  17.606   3.016
24213W        W96473   0.252  34.117   1.262
24214W        W96474  43.321  35.532   3.968
24215W        W96475  27.425  22.195   2.963
24216W        W96476  11.775  21.557  14.295
24217W        W96477  39.801  13.519   1.820
24218W        W96478   1.279   5.536  12.305
24219W        W96479  15.003  29.175   1.897
24220W        W96480   2.195  41.569  12.604
24221W        W96481  23.617  42.869  12.281
24222W        W96482  26.603   7.001   4.166
24223W        W96483   6.632   4.835   1.353
24224W        W96484  11.198  30.889   2.068
24225W        W96485  27.984  35.976  13.378
24226W        W96486  36.228  10.140  10.630
24227W        W96487  25.579  15.092   1.935
24228W        W96488   4.081  22.275  13.936
24229W        W96489  34.274  28.449  11.224
24230W        W96490   5.723  30.724  11.859
24231W        W96491  28.033  12.685   4.867
24232W        W96492  25.186  35.175  12.208
24233W        W96493  37.955  38.474   3.750
24234W        W96494   5.950   9.305   3.643
24235W        W96495  28.379  43.237  13.582
24236W        W96496  40.621   4.053  10.690
24237W        W96497   7.701  11.573  12.791
24238W        W96498   2.202   1.234  10.804
24239W        W96499   7.195   0.730   0.363
24240W        W96500  44.670  33.301   1.846
24241W        W96501   2.667  35.829  12.891
24242W        W96502  16.818  24.639   1.296
24243W        W96503  32.899   7.929   3.994
24244W        W96504  27.021  16.517   3.743
24245W        W96505  24.545  12.475  11.828
24246W        W96506   2.774  18.538   0.381
24247W        W96507   2.812   3.502  11.675
24248W        W96508  36.007  38.433   2.348
24249W        W96509  40.348   4.378   0.330
24250W        W96510  27.143  13.167   0.884
24251W        W96511   2.637  25.350   2.572
24252W        W96512   7.791  15.726   0.432
24253W        W96513   7.641   9.618   3.025
24254W        W96514   8.293   1.738  12.580
24255W        W96515  19.024  42.325  12.585
24256W        W96516  38.978   4.070  14.371
24257W        W96517  19.141  35.612  12.318
24258W        W96518  11.983  12.585   4.613
24259W        W96519  15.678  30.328   3.135
24260W        W96520  37.944  20.936   3.240
24261W        W96521  11.405  21.583  13.523
24262W        W96522  13.050  42.469  10.412
24263W        W96523  30.863  10.327  13.702
24264W        W96524  42.873  24.067   1.436
24265W        W96525  29.070  31.491  10.096
24266W        W96526  17.105  41.411  14.780
24267W        W96527  41.408   4.675   9.977
24268W        W96528  31.258   2.926  11.733
24269W        W96529  41.368  43.325  13.240
24270W        W96530  34.446  16.185   0.772
24271W        W96531   0.933  39.339   1.775
24272W        W96532   1.582   2.016  14.460
24273W        W96533   5.779  30.951  13.630
24274W        W96534  37.501  40.942   4.147
24275W        W96535   5.333  21.569   3.414
24276W        W96536  30.622  18.278  12.774
24277W        W96537  16.224  37.958   4.921
24278W        W96538  23.142  37.140  10.743
24279W        W96539  19.239   2.414  10.773
24280W        W96540  22.996  29.034   0.350
24281W        W96541  16.775  34.595   4.601
24282W        W96542  42.994  34.990   0.918
24283W        W96543  14.548  33.552  10.188
24284W        W96544   6.859  37.821  10.620
24285W        W96545  15.810  25.539   1.511
24286W        W96546  15.161  33.653  14.458
24287W        W96547   5.888   2.277   2.248
24288W        W96548  44.778  33.871  12.083
24289W        W96549  16.167  34.705  13.739
24290W        W96550  39.759  42.644  12.370
24291W        W96551   5.678  33.725   1.761
24292W        W96552   4.888  25.604  12.347
24293W        W96553  39.577  26.100  12.567
24294W        W96554  27.155   2.008  14.920
24295W        W96555  16.058  20.751   3.136
24296W        W96556  19.060  23.601   2.914
24297W        W96557   2.790   8.129  14.530
24298W        W96558  23.512  12.634   4.811
24299W        W96559  20.392   3.758  10.655
24300W        W96560  19.538  43.805  12.465
24301W        W96561  18.320   6.409   0.733
24302W        W96562  13.059  18.278   0.301
24303W        W96563  19.031  23.068  12.512
24304W        W96564  39.710  10.140   4.085
24305W        W96565  32.867  40.051   2.351
24306W        W96566   7.348  41.539  10.598
24307W        W96567  36.880  22.720  13.447
24308W        W96568   3.837  15.677   0.877
24309W        W96569   7.717  11.919  12.438
24310W        W96570  12.232  10.824   2.191
24311W        W96571  29.662   1.750  14.276
24312W        W96572   1.975  22.120   1.865
24313W        W96573   8.758  26.784   1.855
24314W        W96574  15.460   3.120  14.334
24315W        W96575  34.424  17.103   1.172
24316W        W96576  44.994  32.164   3.276
24317W        W96577   6.790  25.463  12.356
24318W        W96578  20.588   9.923  11.986
24319W        W96579  23.649   1.883   0.514
24320W        W96580  13.681  32.914   3.023
24321W        W96581  15.896  14.676  10.524
24322W        W96582  19.794  20.238   4.454
24323W        W96583  29.124  34.002   4.947
24324W        W96584   7.358   0.611   2.692
24325W        W96585  30.861  14.682  12.118
24326W        W96586  19.173  26.425   2.906
24327W        W96587  41.911  25.673   2.635
24328W        W96588  30.463   0.414   3.718
24329W        W96589  26.134  39.558   0.882
24330W        W96590  26.899  21.654  12.543
24331W        W96591  16.640  30.559   4.459
24332W        W96592  17.644  33.913   1.214
24333W        W96593  14.310  35.989  14.896
24334W        W96594   7.607   3.205  13.925
24335W        W96595  25.571  42.970  12.545
24336W        W96596   3.835  39.010  14.802
24337W        W96597  25.252  29.971   2.163
24338W        W96598  16.691  18.835   0.407
24339W        W96599  29.503  11.756   2.009
24340W        W96600  37.357  14.115   2.195
24341W        W96601  40.010   2.834   0.502
24342W        W96602  36.150  14.252  11.370
24343W        W96603  10.761  12.069   3.684
24344W        W96604  27.326   0.826   0.327
24345W        W96605  37.896   3.865  11.646
24346W        W96606  17.783  30.076  13.414
24347W        W96607   8.346  32.981   3.272
24348W        W96608   8.573  15.805  11.264
24349W        W96609   6.266  19.454   4.223
24350W        W96610  17.143  17.101  11.553
24351W        W96611  37.102  24.766  12.878
24352W        W96612  22.865  25.446   0.984
24353W        W96613   6.364  41.837   1.029
24354W        W96614  17.711  37.503   4.116
24355W        W96615  11.270  14.155   0.523
24356W        W96616  27.226  35.764  14.232
24357W        W96617  10.745  11.893   0.230
24358W        W96618   3.660  31.397  10.876
24359W        W96619  14.223  40.004   3.703
24360W        W96620  22.690  25.396  10.133
24361W        W96621  37.322   8.850   0.806
24362W        W96622   3.629  23.577   2.157
24363W        W96623  35.164  31.517   4.344
24364W        W96624  16.839  20.991   0.727
24365W        W96625  36.904  38.551  13.047
24366W        W96626  41.522  30.614   3.704
24367W        W96627  26.637  28.998  11.924
24368W        W96628   7.214  23.948  11.601
24369W        W96629   7.251  24.917  10.645
24370W        W96630  40.287  36.331  11.932
24371W        W96631  10.708  19.234   0.494
24372W        W96632   2.667  40.849  10.667
24373W        W96633  18.634  10.645  14.997
24374W        W96634  30.502   5.825   3.304
24375W        W96635  22.510  26.427  12.427
24376W        W96636  44.041   4.311  12.395
24377W        W96637  44.724  27.564  12.411
24378W        W96638   7.930   9.177   0.906
24379W        W96639  33.651  21.607  14.422
24380W        W96640  14.726  43.506  12.494
24381W        W96641   0.092  25.436  11.122
24382W        W96642  18.229   1.024   0.061
24383W        W96643  41.557  20.662   4.690
24384W        W96644  24.134  22.465   4.191
24385W        W96645  17.152   5.895   3.808
24386W        W96646  14.875   4.529   4.595
24387W        W96647   7.361  43.296   3.669
24388W        W96648  14.112  10.300  13.481
24389W        W96649   4.795  23.271  14.456
24390W        W96650  16.811  38.032  11.473
24391W        W96651   3.100   6.800   4.648
24392W        W96652   8.445  32.647  11.472
24393W        W96653  37.861  22.276   2.331
24394W        W96654  34.505  39.417  10.644
24395W        W96655   4.932  17.170  11.966
24396W        W96656  37.496  27.884  12.011
24397W        W96657  17.642  10.417   1.782
24398W        W96658  27.463  19.689  13.435
24399W        W96659   6.780  19.118   0.525
24400W        W96660   2.495   4.978  12.029
24401W        W96661  42.066  23.239  11.341
24402W        W96662  36.070  21.996  12.929
24403W        W96663  20.605  17.080  14.968
24404W        W96664  13.326  18.460  10.616
24405W        W96665  42.385   5.274  11.887
24406W        W96666  18.098  14.678  13.016
24407W        W96667  44.031  38.913   3.300
24408W        W96668  30.560  14.618   1.397
24409W        W96669  23.187  24.514   1.490
24410W        W96670  40.845  25.047  11.279
24411W        W96671  26.662  32.890   4.104
24412W        W96672  16.440  29.338   0.350
24413W        W96673   2.823  23.692   0.386
24414W        W96674  18.319  36.787   3.272
24415W        W96675  36.033  29.317   2.724
24416W        W96676   0.482   6.283   4.256
24417W        W96677  18.902  36.058  13.511
24418W        W96678  17.684  22.346   2.811
24419W        W96679  40.800  24.695  12.235
24420W        W96680  16.687  28.504  13.456
24421W        W96681  20.779  17.327  12.512
24422W        W96682  37.883  12.909  11.085
24423W        W96683  15.617  21.673  14.007
24424W        W96684  37.007  22.761   0.719
24425W        W96685  32.360  11.836   2.133
24426W        W96686   6.886  34.313  13.151
24427W        W96687  37.575  42.862  10.645
24428W        W96688  27.010  31.585   4.951
24429W        W96689  16.205  13.125  13.346
24430W        W96690  35.934  40.503   1.951
24431W        W96691   2.890  44.592  14.971
24432W        W96692  24.233  27.953   1.838
24433W        W96693  41.489  12.743  13.771
24434W        W96694  20.248  42.655   4.337
24435W        W96695  15.251  11.742   9.954
24436W        W96696  34.652   8.827   1.652
24437W        W96697  10.186  29.456  13.929
24438W        W96698  30.153   8.849  12.792
24439W        W96699  20.668  33.894   4.798
24440W        W96700  10.399   0.913  12.267
24441W        W96701  11.405   5.197   4.512
24442W        W96702  20.839  28.946   0.353
24443W        W96703   6.644  41.291   0.418
24444W        W96704  14.803   2.316   1.581
24445W        W96705  21.587  28.584   1.624
24446W        W96706  12.774  31.201  10.522
24447W        W96707  34.548  30.425  11.663
24448W        W96708  21.521  21.213   4.236
24449W        W96709  29.987  23.126  14.012
24450W        W96710  35.446  31.463   0.969
24451W        W96711   2.382  24.613  12.317
24452W        W96712  44.810  21.570   2.459
24453W        W96713  22.439  25.637   9.736
24454W        W96714  38.471  10.947  12.052
24455W        W96715   9.560  19.125   0.477
24456W        W96716   1.397  14.106  13.971
24457W        W96717  25.992  16.937  11.048
24458W        W96718  16.952  14.508   2.454
24459W        W96719   0.991   9.226  13.293
24460W        W96720   6.947  19.659   3.239
24461W        W96721  30.152  30.938  12.410
24462W        W96722  20.659  22.965   2.057
24463W        W96723  13.249  15.256   5.404
24464W        W96724  13.790  12.405  14.977
24465W        W96725  43.403  24.246   0.258
24466W        W96726   4.148  38.193   0.790
24467W        W96727  31.644   3.802   3.750
24468W        W96728  42.453  32.934   1.388
24469W        W96729   0.264  20.558   2.304
24470W        W96730   9.121   9.878  11.193
24471W        W96731  42.688  25.808   1.759
24472W        W96732  32.417  24.626  12.047
24473W        W96733  42.267   9.265   3.642
24474W        W96734  16.762  19.863   3.362
24475W        W96735  25.099  23.683  12.326
24476W        W96736   7.172  44.896   0.530
24477W        W96737   9.577  21.219  11.148
24478W        W96738  10.033  19.502  11.072
24479W        W96739  17.138  33.058  13.866
24480W        W96740  25.668  27.254  12.625
24481W        W96741  33.981  25.972  14.453
24482W        W96742  16.156  21.694   1.750
24483W        W96743   8.700  16.004   0.855
24484W        W96744  28.357  41.819  13.911
24485W        W96745   0.304   6.381  14.938
24486W        W96746  24.651  37.541   0.899
24487W        W96747  37.076   1.243   1.266
24488W        W96748  27.873  21.617  12.832
24489W        W96749  39.424  35.665  12.471
24490W        W96750   1.861  31.261   0.334
24491W        W96751   6.336   8.323  13.086
24492W        W96752  23.056  31.200   4.588
24493W        W96753   6.943  41.446   4.594
24494W        W96754   4.617  31.595  11.162
24495W        W96755  16.388   7.299   0.007
24496W        W96756  28.857  41.595   1.205
24497W        W96757   3.262  18.036   2.846
24498W        W96758  38.801  38.209   4.166
24499W        W96759   1.073  43.954  13.664
24500W        W96760  36.819  13.079  10.823
24501W        W96761   2.788   8.889   2.297
24502W        W96762   5.731   2.284   3.225
24503W        W96763   4.796   1.436  13.471
24504W        W96764  15.331   6.788   0.238
24505W        W96765   5.766  13.354  11.588
24506W        W96766  34.356  19.522  11.156
24507W        W96767  29.134   5.010  13.912
24508W        W96768  38.790   9.757  14.359
24509W        W96769  42.735   2.642  13.087
24510W        W96770  11.134   3.655  10.728
24511W        W96771   7.179  20.206  14.931
24512W        W96772  41.042  37.804  11.301
24513W        W96773  26.950   5.146  13.921
24514W        W96774  43.355  38.574  12.828
24515W        W96775  18.255  18.724   3.701
24516W        W96776  32.471  43.535   4.558
24517W        W96777  22.231   9.832   2.214
24518W        W96778  24.089  43.746  11.044
24519W        W96779  18.562   8.857   0.758
24520W        W96780  33.663  19.155   0.970
24521W        W96781  12.323  30.475   1.628
24522W        W96782  42.697  16.161  11.384
24523W        W96783  18.085   6.389   4.673
24524W        W96784  16.138  15.113  12.567
24525W        W96785  35.519  31.211  14.670
24526W        W96786  29.978  29.036   0.779
24527W        W96787  26.823   7.227  13.871
24528W        W96788  22.495  20.478   5.038
24529W        W96789   0.567  41.723  10.490
24530W        W96790  42.215  10.666   0.290
24531W        W96791  34.820  33.368   3.293
24532W        W96792  15.064  29.004   2.721
24533W        W96793  33.271  32.131   0.209
24534W        W96794   8.618  33.216   0.623
24535W        W96795  14.675  17.577   3.183
24536W        W96796  23.935  38.751   1.855
24537W        W96797   1.396  27.677   2.802
24538W        W96798  22.749  33.705   4.371
24539W        W96799   7.942  24.549   3.083
24540W        W96800  21.423   9.827  12.422
24541W        W96801  44.950   1.860   0.245
24542W        W96802   9.267   1.953  12.084
24543W        W96803  16.515  37.046  13.069
24544W        W96804  21.255  40.035  13.830
24545W        W96805  41.934  34.327  14.295
24546W        W96806  31.424   3.015   0.137
24547W        W96807  42.028  17.310   3.580
24548W        W96808  11.278   4.499  14.811
24549W        W96809   9.463  24.664  13.082
24550W        W96810   0.942   9.324  11.066
24551W        W96811  29.452  28.922   0.792
24552W        W96812  19.546  20.284   4.002
24553W        W96813  30.074  28.090   4.141
24554W        W96814   1.331  43.391  12.011
24555W        W96815  39.652  43.297  13.906
24556W        W96816  16.505  41.900  12.701
24557W        W96817  41.219  11.576   4.256
24558W        W96818   0.809  26.486  13.517
24559W        W96819  42.772  41.452   0.995
24560W        W96820  41.906   2.157   4.339
24561W        W96821  21.080   8.192  14.015
24562W        W96822   5.925  20.234   2.750
24563W        W96823   7.182  24.634  14.918
24564W        W96824  29.953   1.915  10.783
24565W        W96825  10.841  42.396   0.267
24566W        W96826  34.286   2.359  14.983
24567W        W96827  31.125  43.823  11.505
24568W        W96828  17.054  41.885  14.013
24569W        W96829  19.706  17.245   0.382
24570W        W96830   4.402  32.019  11.399
24571W        W96831  26.844  41.928  14.247
24572W        W96832  21.408  38.775   0.877
24573W        W96833  24.097  14.556  12.425
24574W        W96834  19.069  13.377   4.492
24575W        W96835  13.603  44.140  13.909
24576W        W96836  16.519  30.015   2.735
24577W        W96837  19.459  21.504   4.907
24578W        W96838  20.049  17.621   3.069
24579W        W96839  23.262  30.482  13.330
24580W        W96840  17.939   0.541  12.409
24581W        W96841  39.521  27.774   4.199
24582W        W96842   2.312  19.265  13.720
24583W        W96843  43.334   3.450  12.557
24584W        W96844  16.572  40.037   4.114
24585W        W96845   4.138  36.882  12.831
24586W        W96846  30.585  29.437   2.222
24587W        W96847   9.399   3.525   3.061
24588W        W96848  29.939   1.433  13.942
24589W        W96849  44.380  38.698   4.755
24590W        W96850  18.100  28.170  11.528
24591W        W96851  15.349  23.251   3.349
24592W        W96852  34.997  41.897   3.265
24593W        W96853  33.641  25.681  12.490
24594W        W96854  16.669  32.583   0.781
24595W        W96855  29.323  35.879  13.371
24596W        W96856  34.865  38.098   2.307
24597W        W96857  27.065   1.029   0.752
24598W        W96858   0.872   2.160  14.761
24599W        W96859  21.592   6.453   1.367
24600W        W96860  42.479  30.146  12.089
24601W        W96861  27.513   2.326   0.520
24602W        W96862  44.846  26.378   4.626
24603W        W96863   9.218  16.702  12.926
24604W        W96864  20.101  31.045   2.221
24605W        W96865  30.597  36.140   0.191
24606W        W96866  22.128  42.060  11.127
24607W        W96867  32.878   6.605   0.676
24608W        W96868  26.280   7.027  13.801
24609W        W96869  44.999  10.242   4.522
24610W        W96870  37.410  29.503  13.666
24611W        W96871  15.153   5.835  13.771
24612W        W96872  10.433  20.555  11.193
24613W        W96873  37.747  32.057   2.683
24614W        W96874   4.478  11.749  12.092
24615W        W96875  21.973  20.106   2.344
24616W        W96876  32.422  27.286  13.694
24617W        W96877   4.822  12.382  12.426
24618W        W96878  31.849  39.782  11.092
24619W        W96879  20.639  33.138  11.878
24620W        W96880  31.337  22.540  13.459
24621W        W96881  41.212  30.385   5.123
24622W        W96882  39.487  19.262  13.876
24623W        W96883  12.169   8.290  14.014
24624W        W96884   9.935  13.973   0.833
24625W        W96885  21.084   9.189  11.228
24626W        W96886  31.451  38.479  11.708
24627W        W96887  33.928  10.385  12.499
24628W        W96888  19.777  27.947   4.042
24629W        W96889  41.041  12.610   4.566
24630W        W96890  25.156  33.542  14.788
24631W        W96891   4.815  36.595  10.369
24632W        W96892  29.953  42.324  10.560
24633W        W96893  29.683  33.372   2.207
24634W        W96894  16.060  11.120  13.322
24635W        W96895  19.733   5.358  13.079
24636W        W96896  12.780  10.636   2.935
24637W        W96897   6.449  20.669   4.624
24638W        W96898  16.928  14.074   3.668
24639W        W96899  26.125  16.649   3.601
24640W        W96900   4.769  40.215  13.495
24641W        W96901  15.981   2.516  12.925
24642W        W96902   2.444  35.940   1.707
24643W        W96903  44.168  15.036   4.253
24644W        W96904  21.113  32.037   2.239
24645W        W96905  32.495   5.830   2.815
24646W        W96906  34.996  14.097   0.446
24647W        W96907  38.826  36.311  12.074
24648W        W96908  27.577   6.245   0.699
24649W        W96909  43.899  27.095   1.273
24650W        W96910   9.813  10.359  12.999
24651W        W96911  16.581   5.160   0.368
24652W        W96912   9.890   5.869   2.853
24653W        W96913  25.472  17.620   2.900
24654W        W96914   6.189  14.232   3.544
24655W        W96915   8.509  35.000   4.561
24656W        W96916  12.348   6.668   3.264
24657W        W96917  16.588  31.522  14.820
24658W        W96918  21.124  11.014  14.258
24659W        W96919   8.868  19.592  12.521
24660W        W96920  31.854   6.561   2.137
24661W        W96921  37.769  25.598  12.466
24662W        W96922  11.198  35.180   0.223
24663W        W96923  19.606  27.566   0.270
24664W        W96924  27.522  28.195  11.427
24665W        W96925   4.483  20.660   0.723
24666W        W96926  25.550  30.764   0.430
24667W        W96927  42.553  40.832   1.303
24668W        W96928  30.982   0.567   2.462
24669W        W96929  37.979   9.790   1.822
24670W        W96930  13.539  43.358   4.547
24671W        W96931  34.452   6.817  10.884
24672W        W96932  22.152   0.316  14.534
24673W        W96933  20.052  29.052  11.951
24674W        W96934  21.225  27.081  13.553
24675W        W96935  28.407   4.239   0.458
24676W        W96936  11.025   9.917   4.882
24677W        W96937  31.845   4.280  11.142
24678W        W96938  31.463  33.936  14.056
24679W        W96939  25.890   8.115   1.345
24680W        W96940  17.460  26.057  14.978
24681W        W96941   1.640  32.134  14.233
24682W        W96942  12.071  27.118  12.655
24683W        W96943  41.809  20.943   0.382
24684W        W96944  35.913  13.856  12.558
24685W        W96945   1.233  23.935   3.778
24686W        W96946   8.969  15.895   3.164
24687W        W96947   8.672  28.845   3.808
24688W        W96948  15.850  35.926   2.359
24689W        W96949  11.909  21.752   2.407
24690W        W96950  26.527  13.216   5.008
24691W        W96951  13.810  41.719   4.574
24692W        W96952  42.373  22.123   2.162
24693W        W96953  27.031  40.351   4.986
24694W        W96954  32.465   1.950   0.747
24695W        W96955  25.059  27.927   0.226
24696W        W96956  40.989  29.280  11.040
24697W        W96957   3.704   5.318  11.033
24698W        W96958  44.448  36.376   3.877
24699W        W96959  37.697  26.068   2.852
24700W        W96960  21.548  24.916  11.521
24701W        W96961  31.021  13.398   3.764
24702W        W96962   6.277  16.155   0.463
24703W        W96963  40.432  13.000  12.152
24704W        W96964  19.130  24.009  10.620
24705W        W96965   4.476  25.209  11.149
24706W        W96966  15.061  44.807  12.483
24707W        W96967  43.023  24.497  13.454
24708W        W96968  27.360  39.243   3.758
24709W        W96969   2.850  39.463  13.009
24710W        W96970  33.415  43.304   2.632
24711W        W96971  24.355   2.143  10.398
24712W        W96972  10.047  31.510   3.536
24713W        W96973   8.889   7.800  11.313
24714W        W96974  27.398  25.744  14.249
24715W        W96975  10.893  19.374  13.532
24716W        W96976   2.479  17.580  10.569
24717W        W96977  14.030  29.030  13.940
24718W        W96978  38.932  37.810  12.046
24719W        W96979  21.889  36.007  14.293
24720W        W96980  40.813  26.087  11.870
24721W        W96981  36.067  18.630  13.218
24722W        W96982  32.493  40.953   2.876
24723W        W96983   4.774   8.206  13.455
24724W        W96984   7.602  19.630  10.267
24725W        W96985  27.966  18.247   0.919
24726W        W96986  18.728  17.341   1.753
24727W        W96987  13.677  26.738  14.871
24728W        W96988  18.649  29.251  14.464
24729W        W96989  22.261  19.532  14.595
24730W        W96990  41.451  30.948  14.547
24731W        W96991   0.897  17.400   3.677
24732W        W96992   4.406  29.514   4.114
24733W        W96993  29.121  30.917   3.379
24734W        W96994  31.642   3.812  11.209
24735W        W96995   6.966  28.993  14.338
24736W        W96996  21.220  25.335  14.022
24737W        W96997  13.913  22.838   3.767
24738W        W96998  35.439  16.689   1.428
24739W        W96999   1.394  19.072   1.933
24740W        W97000  17.598  25.080  13.377
24741W        W97001   5.219  25.778   5.099
24742W        W97002   2.810  26.260   3.587
24743W        W97003  28.709  36.356  10.681
24744W        W97004   2.630  44.240   1.614
24745W        W97005  28.973  14.143   4.136
24746W        W97006   3.882  28.981  13.918
24747W        W97007  28.572   5.862  12.477
24748W        W97008  13.740  19.172  13.541
24749W        W97009   5.469   3.227   3.653
24750W        W97010  18.366   7.363   5.159
24751W        W97011  21.535  20.536   0.907
24752W        W97012   3.888   5.897  13.004
24753W        W97013  22.747  22.591   2.063
24754W        W97014  13.831   6.226   4.580
24755W        W97015  10.609  39.815  12.212
24756W        W97016   5.332  34.064   3.838
24757W        W97017  28.425  14.621   2.128
24758W        W97018  15.486   0.935   3.195
24759W        W97019  41.871  37.957  11.844
24760W        W97020   1.817  38.267  10.875
24761W        W97021  12.782  11.911  12.465
24762W        W97022  11.372  26.158  12.456
24763W        W97023  26.207  21.331   1.939
24764W        W97024  15.080  33.074   0.787
24765W        W97025  18.521  23.195  10.641
24766W        W97026  21.755   2.457   4.504
24767W        W97027  34.160  33.320   2.270
24768W        W97028  32.011   4.604   0.471
24769W        W97029  38.229  21.271   0.411
24770W        W97030  38.080  38.090  14.926
24771W        W97031  39.438  32.141   0.114
24772W        W97032  25.574  43.818   1.691
24773W        W97033  12.803  12.775   3.600
24774W        W97034  39.490  42.811   1.787
24775W        W97035  36.512  31.491   4.149
24776W        W97036  22.037   5.261   2.354
24777W        W97037  29.713  44.247   0.408
24778W        W97038  10.211  29.661   0.443
24779W        W97039  18.986  18.723   1.849
24780W        W97040  19.768  35.578   0.376
24781W        W97041  25.657   1.869  14.803
24782W        W97042  23.719  27.373  13.528
24783W        W97043  38.061  18.578  13.067
24784W        W97044  24.612  31.111   4.264
24785W        W97045  23.031  34.636   0.696
24786W        W97046  41.808  35.304  12.910
24787W        W97047  17.363   3.200   1.131
24788W        W97048  24.325  20.031  13.457
24789W        W97049  12.525  39.815   0.579
24790W        W97050  36.720  15.325  14.867
24791W        W97051   1.153  26.979  13.312
24792W        W97052   4.903   3.479  13.844
24793W        W97053  42.378  18.040   4.886
24794W        W97054  24.150  43.963  10.569
24795W        W97055  27.438  16.713   0.384
24796W        W97056  28.573  40.321  11.626
24797W        W97057  33.934   3.974   4.194
24798W        W97058  19.545  11.086  12.446
24799W        W97059  24.613   8.863   0.213
24800W        W97060   0.816  10.876  12.830
24801W        W97061  43.000  16.627  13.305
24802W        W97062   6.634  41.881   4.518
24803W        W97063  37.973  19.703  14.431
24804W        W97064   3.974  39.497  14.490
24805W        W97065  20.589  18.549  13.149
24806W        W97066  34.198  27.570  10.991
24807W        W97067   1.983  14.465  14.491
24808W        W97068  26.611  37.345   4.383
24809W        W97069  42.985  35.893  12.534
24810W        W97070  38.656  19.150  14.599
24811W        W97071  27.549  41.917  11.495
24812W        W97072  29.035  34.835  14.709
24813W        W97073  39.808  30.411   4.870
24814W        W97074  29.155  37.472   4.943
24815W        W97075  16.848  40.019  11.606
24816W        W97076  41.243   4.209  12.865
24817W        W97077  33.340  28.934  14.876
24818W        W97078  31.068   0.692   1.191
24819W        W97079  17.160  14.081   4.534
24820W        W97080  31.319  10.750   2.849
24821W        W97081  27.928  28.393  11.665
24822W        W97082  26.590  40.471   3.739
24823W        W97083  16.673   0.294  13.973
24824W        W97084  36.986  13.159   1.998
24825W        W97085  21.124  17.695   3.831
24826W        W97086  31.500  11.590  12.881
24827W        W97087  12.968  41.975   4.075
24828W        W97088  13.756   3.887  12.616
24829W        W97089  20.340  29.894  12.097
24830W        W97090   9.780  35.924  14.455
24831W        W97091  16.886   9.374   4.764
24832W        W97092   5.523   8.418  13.141
24833W        W97093  32.426  37.468   2.595
24834W        W97094  29.609  19.632   3.196
24835W        W97095  24.168  17.073   1.828
24836W        W97096  30.993  34.577   1.838
24837W        W97097  11.856   0.537   0.990
24838W        W97098  34.990   4.768  11.035
24839W        W97099   5.660   9.135   4.057
24840W        W97100  10.931  44.111  12.614
24841W        W97101  27.599   9.875   0.772
24842W        W97102  11.757  32.794   0.259
24843W        W97103  35.607  32.356  13.022
24844W        W97104  14.632  30.887  14.425
24845W        W97105  25.519  32.956   0.544
24846W        W97106  25.204  16.758   2.681
24847W        W97107  16.572  19.079  12.409
24848W        W97108  30.511  15.345   0.333
24849W        W97109  26.786  32.522  11.637
24850W        W97110  36.692  41.994   0.207
24851W        W97111  43.440  13.633   1.164
24852W        W97112  24.775  20.392   0.908
24853W        W97113  16.416   1.178  11.104
24854W        W97114  42.093  30.948   0.958
24855W        W97115   7.199  42.240  12.409
24856W        W97116  22.937   6.108   3.718
24857W        W97117  11.010  32.988  14.928
24858W        W97118  39.306  34.688   1.573
24859W        W97119  30.638   0.517  13.370
24860W        W97120  21.627  38.933   4.390
24861W        W97121  24.069  13.709   4.274
24862W        W97122   9.667  21.517  13.033
24863W        W97123  22.814  29.892   0.441
24864W        W97124  34.369  37.786  12.144
24865W        W97125  16.877   2.014  12.978
24866W        W97126   7.376  39.523   0.275
24867W        W97127  25.127  30.154  12.272
24868W        W97128  14.368  43.830   0.369
24869W        W97129  37.388  25.604   2.745
24870W        W97130  22.756  42.461   3.932
24871W        W97131  23.950  40.872   1.362
24872W        W97132  30.601  21.129   4.599
24873W        W97133  43.690  20.316  13.937
24874W        W97134  42.021  18.079  14.781
24875W        W97135  13.394  31.415   4.737
24876W        W97136  21.073  28.543   2.080
24877W        W97137  34.100  17.958  14.889
24878W        W97138   8.827  43.269  13.992
24879W        W97139  28.622  14.920  14.843
24880W        W97140  11.380  29.494  10.390
24881W        W97141  13.311  33.392  10.613
24882W        W97142  17.573  28.643   1.410
24883W        W97143  37.578   6.677   3.316
24884W        W97144   8.889   4.443  14.409
24885W        W97145  35.047   6.492   0.326
24886W        W97146  41.807  21.180  11.476
24887W        W97147  19.321   6.210  13.103
24888W        W97148  35.459   4.931   1.663
24889W        W97149  14.702  23.098   4.530
24890W        W97150   2.269  28.720  14.204
24891W        W97151  38.672  39.343  12.875
24892W        W97152   7.619  44.057  12.402
24893W        W97153   5.141  40.431   3.188
24894W        W97154   9.205  27.488   0.362
24895W        W97155  26.718  18.650   3.695
24896W        W97156  18.243  42.230   2.644
24897W        W97157  40.388  36.619   0.404
24898W        W97158  11.343  31.711  11.537
24899W        W97159   1.930  33.066   0.730
24900W        W97160  38.084  28.234  10.919
24901W        W97161  23.108  35.685  13.388
24902W        W97162  18.978   5.683  13.430
24903W        W97163   4.787  42.377  12.027
24904W        W97164  38.452  24.215   0.707
24905W        W97165  44.846  40.937  14.507
24906W        W97166  34.128  21.799   4.207
24907W        W97167  39.127  37.201   4.143
24908W        W97168  15.160  28.720  14.502
24909W        W97169   3.381  23.586  13.931
24910W        W97170   3.618   6.648  12.296
24911W        W97171  40.273  17.991  11.555
24912W        W97172  19.234  40.477   0.757
24913W        W97173   2.829  14.768   0.859
24914W        W97174  32.565  37.286   4.274
24915W        W97175  23.560  17.732   1.418
24916W        W97176   3.788  39.116  12.561
24917W        W97177  28.125  13.500   1.903
24918W        W97178  17.601  11.740   2.196
24919W        W97179  43.089  44.144   1.838
24920W        W97180  28.075  32.702  14.441
24921W        W97181   9.839  16.420   1.319
24922W        W97182  14.288  22.232   1.043
24923W        W97183  43.857  12.871   4.051
24924W        W97184   1.219  13.837   1.842
24925W        W97185   1.227   1.442   3.258
24926W        W97186  11.755  37.483  10.826
24927W        W97187  19.314  19.024   2.122
24928W        W97188   2.797   7.372   3.682
24929W        W97189  25.712  14.569   1.842
24930W        W97190  20.443  33.841  12.951
24931W        W97191  18.108  44.599   4.877
24932W        W97192  37.061  19.024  13.479
24933W        W97193  25.489   4.429   4.156
24934W        W97194  44.362  14.233   1.006
24935W        W97195   0.253  43.502  13.350
24936W        W97196  37.824  22.200   3.156
24937W        W97197   2.367  24.098   5.133
24938W        W97198   4.943  22.668   1.459
24939W        W97199  12.162  15.042   1.088
24940W        W97200   9.016  18.746  14.384
24941W        W97201  30.618  21.190   0.420
24942W        W97202  41.169   5.362   4.066
24943W        W97203  26.709  14.800   1.900
24944W        W97204  24.632  37.576   0.384
24945W        W97205  34.652  23.250  12.834
24946W        W97206  17.798  35.022   4.638
24947W        W97207   5.715  26.564   4.686
24948W        W97208  22.643  14.291   0.336
24949W        W97209  19.643  12.228  14.836
24950W        W97210  15.610  13.643   4.722
24951W        W97211  37.214  28.805  14.800
24952W        W97212  12.777  21.750  11.672
24953W        W97213  33.445  38.548   1.762
24954W        W97214   2.998   9.777  11.598
24955W        W97215  11.727  13.896  14.981
24956W        W97216  28.583   4.982   4.117
24957W        W97217   1.422  20.344  14.351
24958W        W97218   5.824  33.101   3.262
24959W        W97219  19.102   8.137   2.644
24960W        W97220  14.832  10.393   4.591
24961W        W97221  44.865   1.891  10.650
24962W        W97222   8.411  21.443   3.722
24963W        W97223  14.898  18.211  13.820
24964W        W97224  20.482  17.454   4.708
24965W        W97225   6.393  38.589  10.791
24966W        W97226  32.054  41.365   4.630
24967W        W97227  41.524  11.401   3.854
24968W        W97228  24.084  36.374  11.518
24969W        W97229  35.702   3.471   3.594
24970W        W97230  28.869  19.513   3.736
24971W        W97231  22.112  19.517   4.796
24972W        W97232  15.205  14.169   5.131
24973W        W97233  16.155  17.608   1.109
24974W        W97234  35.598  19.471   0.307
24975W        W97235  39.393  41.922   0.344
24976W        W97236   4.814  23.458  13.960
24977W        W97237   8.876  20.406  12.885
24978W        W97238  34.164  31.662  11.471
24979W        W97239  22.700  35.180  13.874
24980W        W97240  26.970  17.711   2.114
24981W        W97241  22.071  25.055   4.253
24982W        W97242   9.932   8.588  13.851
24983W        W97243  44.290  21.110  13.927
24984W        W97244  31.926  44.771  13.144
24985W        W97245   7.762  18.670   4.161
24986W        W97246  34.360   4.441  13.876
24987W        W97247   3.274   0.391   1.833
24988W        W97248  19.787  24.623  12.515
24989W        W97249  22.055  17.245  13.448
24990W        W97250  14.738  22.300   1.303
24991W        W97251  39.316  20.756   2.754
24992W        W97252   8.505  21.094   0.248
24993W        W97253  24.219  38.910  14.393
24994W        W97254  33.993  17.744   2.215
24995W        W97255  33.605  31.114  13.865
24996W        W97256  28.701  28.923   4.698
24997W        W97257  13.367  22.206  11.972
24998W        W97258  40.479   1.285  10.563
24999W        W97259  31.499  14.630   2.759
25000W        W97260  27.456  29.150   0.847
25001W        W97261  36.883  42.778   2.853
25002W        W97262   1.719  13.839   3.233
25003W        W97263  12.844  16.307  14.925
25004W        W97264  36.550   5.818  10.764
25005W        W97265  28.098  17.761  14.417
25006W        W97266  20.740   3.395   4.986
25007W        W97267  43.831  15.562  11.699
25008W        W97268   3.221  23.082  12.307
25009W        W97269  26.729  11.116  12.110
25010W        W97270  16.128  24.166  11.205
25011W        W97271  35.047  32.544   3.523
25012W        W97272   7.385   2.469  11.151
25013W        W97273   3.341  12.689   3.761
25014W        W97274   1.428  41.798   1.928
25015W        W97275   0.256  21.336   2.630
25016W        W97276   9.218  37.150  12.505
25017W        W97277   9.757  23.946  13.491
25018W        W97278   9.154  10.879  12.866
25019W        W97279   1.976   8.613  11.194
25020W        W97280   9.627  40.216  13.371
25021W        W97281   2.251  22.948   1.776
25022W        W97282  14.043   0.182   0.571
25023W        W97283   2.833  40.415  14.199
25024W        W97284  15.339  19.679  13.731
25025W        W97285  26.945   5.289   0.447
25026W        W97286  24.950   0.483  12.107
25027W        W97287  38.452  23.484  14.819
25028W        W97288  28.772   9.058   2.651
25029W        W97289  18.545  13.316   4.582
25030W        W97290  18.189  27.530  14.234
25031W        W97291  43.001  23.169   3.185
25032W        W97292   7.235  17.564   3.719
25033W        W97293  17.044  34.154  14.818
25034W        W97294  41.645  34.115   0.870
25035W        W97295  18.255  27.663   2.305
25036W        W97296  10.192  38.785   1.361
25037W        W97297  44.371  13.477   2.192
25038W        W97298  32.649  41.185   0.362
25039W        W97299   6.924  21.524  14.484
25040W        W97300  44.912   3.705   4.806
25041W        W97301  30.140  37.592   0.911
25042W        W97302   6.780   1.207   3.684
25043W        W97303   2.736  25.075   0.988
25044W        W97304  24.053  17.171   4.018
25045W        W97305  38.422  17.783   3.198
25046W        W97306  35.937  20.795  11.423
25047W        W97307  22.977   6.443  12.985
25048W        W97308  19.767  35.529  13.980
25049W        W97309   4.405  43.501  11.075
25050W        W97310  44.365  39.441   2.287
25051W        W97311   0.791  39.776   0.406
25052W        W97312  35.590   2.648  11.617
25053W        W97313  24.974  33.513  13.480
25054W        W97314  25.141  10.812  11.972
25055W        W97315  41.909  14.336   0.254
25056W        W97316  24.200  22.975   4.142
25057W        W97317  10.165  32.252  13.671
25058W        W97318  18.787  32.003  14.773
25059W        W97319  19.712  26.632  13.889
25060W        W97320  10.254  38.066  11.393
25061W        W97321   0.832   2.326  10.430
25062W        W97322  14.123  38.510   0.787
25063W        W97323  30.889  10.083  12.358
25064W        W97324  28.686  25.247  14.241
25065W        W97325   5.364  12.312   2.361
25066W        W97326   4.661  34.667   2.860
25067W        W97327  17.500   3.775  11.420
25068W        W97328  29.469  36.310  12.367
25069W        W97329  27.570  11.585  13.507
25070W        W97330  35.370   3.466   5.025
25071W        W97331  13.710  24.044   3.570
25072W        W97332  23.643  41.087   0.412
25073W        W97333  30.711  17.167  14.822
25074W        W97334  13.555  31.414  10.966
25075W        W97335   8.385  13.793   4.723
25076W        W97336  18.139   3.851   1.912
25077W        W97337  12.676   9.343  13.771
25078W        W97338  15.651  44.794   3.216
25079W        W97339  41.294   2.945  10.736
25080W        W97340  20.190  13.523   4.212
25081W        W97341  44.404   1.341   1.013
25082W        W97342  13.755   3.838  13.603
25083W        W97343  34.938  42.959  10.771
25084W        W97344  25.514   4.610   2.361
25085W        W97345  14.323   6.179  13.932
25086W        W97346  18.728  33.820   0.697
25087W        W97347   8.128  26.313   1.391
25088W        W97348  34.454   3.151   3.593
25089W        W97349  10.251   3.326   3.336
25090W        W97350  19.250  12.189   2.766
25091W        W97351  18.733  38.367   2.365
25092W        W97352  29.541   6.933  13.505
25093W        W97353  39.710  19.147  11.149
25094W        W97354  29.166  41.990   1.063
25095W        W97355  20.105   8.877   0.233
25096W        W97356  12.608  22.149   1.225
25097W        W97357   5.173  30.688   4.266
25098W        W97358   9.940   3.591   0.390
25099W        W97359  23.663  40.030  10.860
25100W        W97360  31.568  12.655   2.724
25101W        W97361  10.224  37.353  13.065
25102W        W97362   8.154  15.675   1.389
25103W        W97363  20.733  41.776   3.182
25104W        W97364   6.476   6.529  11.931
25105W        W97365  20.238  22.995   1.419
25106W        W97366  39.823  12.345   1.343
25107W        W97367   9.308  39.073  14.771
25108W        W97368  19.996  35.150  10.606
25109W        W97369   1.544   7.630   0.772
25110W        W97370  21.988  23.824  13.454
25111W        W97371  37.420  38.106   1.213
25112W        W97372   1.987  25.703   3.190
25113W        W97373  42.315   0.352  11.244
25114W        W97374  30.969   3.937   1.567
25115W        W97375   5.352   3.887   4.549
25116W        W97376  26.575   0.539   4.269
25117W        W97377  43.802  22.595   1.431
25118W        W97378   6.627  28.190  10.215
25119W        W97379  30.144  32.584  11.986
25120W        W97380   6.798  20.098   0.909
25121W        W97381  20.587  26.614  14.583
25122W        W97382   4.664  19.682   4.183
25123W        W97383   8.214  11.913  14.561
25124W        W97384  28.192  42.571  14.407
25125W        W97385  32.878  36.760   1.701
25126W        W97386  22.789  15.296   1.707
25127W        W97387  42.332   8.300   1.529
25128W        W97388  44.799  25.624  10.741
25129W        W97389  41.622  30.849  13.649
25130W        W97390  18.588  42.763  13.729
25131W        W97391  16.923  24.959  11.631
25132W        W97392   0.348  42.580  11.450
25133W        W97393  21.977  39.693   0.204
25134W        W97394  24.569   2.675  10.600
25135W        W97395  15.311   9.442  14.427
25136W        W97396   9.178  40.803   0.667
25137W        W97397   7.157  25.104  14.696
25138W        W97398   6.472  43.827   2.357
25139W        W97399   6.403  12.349   0.784
25140W        W97400   7.685  24.032  10.646
25141W        W97401  23.483  15.687   2.527
25142W        W97402   9.784  29.908   3.153
25143W        W97403   9.841  43.143  11.913
25144W        W97404  36.967  17.821   1.822
25145W        W97405   1.734  33.989  13.381
25146W        W97406  36.440  32.800   1.863
25147W        W97407  31.377  31.114   1.676
25148W        W97408  24.052   8.922   1.448
25149W        W97409   4.460  18.732  14.757
25150W        W97410   2.209  26.591  10.144
25151W        W97411  12.877  39.933   1.638
25152W        W97412   0.284  21.327   0.169
25153W        W97413  39.986   6.692   1.404
25154W        W97414  10.638  19.889  10.736
25155W        W97415  20.677   0.802   4.788
25156W        W97416  43.987  31.903  11.955
25157W        W97417  22.038  22.496  13.353
25158W        W97418   0.269  33.945   2.138
25159W        W97419   2.679  42.325  11.089
25160W        W97420  30.644  38.641   1.277
25161W        W97421  32.927   5.439  13.579
25162W        W97422   4.242   3.641   2.792
25163W        W97423  40.492   1.949   2.428
25164W        W97424  36.633  43.699  14.757
25165W        W97425   6.731   3.757   0.006
25166W        W97426  13.650  11.354  12.539
25167W        W97427   6.904   8.042  13.814
25168W        W97428  34.931  19.926  12.389
25169W        W97429  13.951  28.909  12.107
25170W        W97430  41.511   2.342   1.539
25171W        W97431  31.497   0.277   3.677
25172W        W97432  37.031  12.731  10.484
25173W        W97433  24.003  15.405   3.805
25174W        W97434  24.056  12.334  12.105
25175W        W97435   5.917  12.815  10.730
25176W        W97436  19.307   2.008   4.653
25177W        W97437  16.002  14.664  12.301
25178W        W97438  39.932  20.230  13.267
25179W        W97439  14.649  26.585   3.383
25180W        W97440  22.181  38.000  13.111
25181W        W97441  32.114  17.388  11.144
25182W        W97442  22.751  13.316  14.053
25183W        W97443  15.694  27.670  10.836
25184W        W97444   2.982  21.938  14.587
25185W        W97445  24.555   0.332  14.898
25186W        W97446  28.621  32.740   4.149
25187W        W97447  17.778  35.112   2.131
25188W        W97448  19.314  35.311  14.047
25189W        W97449   9.613  18.592   0.759
25190W        W97450  21.725  18.844   3.580
25191W        W97451  42.307  42.933  12.442
25192W        W97452  15.045  16.886   4.879
25193W        W97453  17.913  33.043  10.497
25194W        W97454   2.114  27.460   4.469
25195W        W97455  41.334   1.548   0.887
25196W        W97456   7.256  10.855   3.286
25197W        W97457  43.457  22.197  11.366
25198W        W97458  16.412  13.686   4.235
25199W        W97459  26.935  22.381   2.379
25200W        W97460  24.633   7.871   4.818
25201W        W97461  12.134  35.668   0.418
25202W        W97462   8.300  33.798  14.833
25203W        W97463   0.997  13.706   0.427
25204W        W97464  21.613  43.425   1.311
25205W        W97465  31.735   2.887  12.629
25206W        W97466  25.089  39.923   5.171
25207W        W97467   1.043  24.595   0.231
25208W        W97468  15.995  34.102   3.822
25209W        W97469  26.910  43.187   3.242
25210W        W97470  30.209   9.616  11.422
25211W        W97471  40.404   9.389   1.403
25212W        W97472   6.137  41.894   3.781
25213W        W97473  29.929  37.573  12.697
25214W        W97474  33.125   4.181   2.865
25215W        W97475   7.926  11.355  13.956
25216W        W97476  40.393  33.036   4.752
25217W        W97477  43.343  18.311  12.816
25218W        W97478  23.553  41.604   1.923
25219W        W97479  31.723  13.042  13.862
25220W        W97480  14.284   6.472   1.427
25221W        W97481   1.323  35.435   4.568
25222W        W97482  16.725  24.131   2.834
25223W        W97483  34.119  19.239   2.735
25224W        W97484  31.180  32.026  12.505
25225W        W97485  37.958   8.412   4.868
25226W        W97486  16.878  16.392  13.921
25227W        W97487  21.534  26.232   2.763
25228W        W97488  22.618  25.942   0.913
25229W        W97489  27.924  15.787  14.534
25230W        W97490  39.536   9.301  14.141
25231W        W97491   5.035   0.914   4.270
25232W        W97492  43.878  38.321   4.960
25233W        W97493  43.142   2.430   2.269
25234W        W97494  12.975  21.115  10.345
25235W        W97495  18.447  24.588  13.029
25236W        W97496  41.076  22.743   1.695
25237W        W97497  40.326  28.273  11.453
25238W        W97498  11.184  23.184   1.362
25239W        W97499  28.315  32.095   0.337
25240W        W97500   6.453  41.448  10.997
25241W        W97501  14.617   1.315  12.534
25242W        W97502  14.599  19.027  13.386
25243W        W97503   7.628  42.540  12.485
25244W        W97504  10.754  32.540   0.004
25245W        W97505  13.631   5.411  13.065
25246W        W97506   4.861  41.107   1.143
25247W        W97507  33.662   6.501  11.535
25248W        W97508   6.755   1.235  12.724
25249W        W97509  26.996   5.992  12.526
25250W        W97510  27.879  40.385   0.331
25251W        W97511  32.378  23.775  12.800
25252W        W97512  38.386   7.363  13.230
25253W        W97513  17.866  11.409   1.788
25254W        W97514  36.934   3.610  11.091
25255W        W97515  37.454  29.111   1.655
25256W        W97516  15.665  11.784   2.243
25257W        W97517   7.695  33.393   0.514
25258W        W97518  20.573  10.882   4.557
25259W        W97519  10.374  35.437  11.969
25260W        W97520  40.031   8.686   4.163
25261W        W97521  20.957   1.033  14.447
25262W        W97522  31.949   6.476   4.688
25263W        W97523   8.163  11.340  12.884
25264W        W97524  19.207  12.834   4.389
25265W        W97525  35.468  16.305  12.226
25266W        W97526  24.256  43.332   2.154
25267W        W97527  41.659   5.222   4.091
25268W        W97528   6.675  37.349  11.457
25269W        W97529  10.147  15.814  12.321
25270W        W97530  18.594  44.321   3.383
25271W        W97531  13.130   0.540   4.888
25272W        W97532   5.729  31.512  12.413
25273W        W97533  44.798  20.425   2.659
25274W        W97534   5.687  34.885  11.901
25275W        W97535  11.725  38.528   0.956
25276W        W97536   4.961  25.986   1.449
25277W        W97537   0.352  36.812   2.831
25278W        W97538   1.528  14.249   1.720
25279W        W97539  37.102   4.410  14.433
25280W        W97540  31.174  40.386  10.927
25281W        W97541  27.868  11.159   1.796
25282W        W97542  36.275   2.168   2.799
25283W        W97543  44.377  38.602   3.541
25284W        W97544  16.063   8.177   0.965
25285W        W97545  34.478  12.292   4.659
25286W        W97546  21.158  44.943   2.232
25287W        W97547   5.949   3.849  12.478
25288W        W97548  25.937  14.836   1.395
25289W        W97549  14.349  30.930  12.343
25290W        W97550  25.980   2.371  13.800
25291W        W97551   8.748  42.434   1.251
25292W        W97552  24.430  27.035  12.406
25293W        W97553   4.003   7.818  12.319
25294W        W97554  33.220  33.682   4.147
25295W        W97555  14.746  37.370  11.894
25296W        W97556  20.096  33.159   4.509
25297W        W97557  40.346  36.829  12.051
25298W        W97558  22.461  37.755  12.196
25299W        W97559   4.426  38.165   4.111
25300W        W97560   2.741   5.411  12.156
25301W        W97561  11.633  39.576   3.411
25302W        W97562  22.944  32.516   0.350
25303W        W97563  22.173  23.648   2.442
25304W        W97564  31.631  37.477  11.069
25305W        W97565  33.193   4.685   3.730
25306W        W97566   8.002  37.570   2.593
25307W        W97567  18.542   7.357  13.122
25308W        W97568   3.854   6.789  10.446
25309W        W97569   0.265  17.737   2.346
25310W        W97570  44.506  29.184  14.389
25311W        W97571   5.945  14.071  14.414
25312W        W97572   4.356  14.813  12.004
25313W        W97573  32.923  34.128  12.570
25314W        W97574  16.806  11.392   3.242
25315W        W97575   3.881  18.010  13.743
25316W        W97576  27.070  36.760  14.328
25317W        W97577  25.771  37.671   1.878
25318W        W97578  13.536  16.288  11.578
25319W        W97579  11.261  16.591   0.904
25320W        W97580  25.209   9.318  11.180
25321W        W97581  14.612   5.709   0.428
25322W        W97582  24.115  15.292  12.560
25323W        W97583  44.819   1.581  13.418
25324W        W97584  14.301  42.065   0.843
25325W        W97585  25.645   3.409  13.774
25326W        W97586  22.638  31.541   3.120
25327W        W97587  31.608  30.935   5.270
25328W        W97588  10.907  14.950   0.506
25329W        W97589   7.887  30.551   1.811
25330W        W97590  13.222  33.449   3.661
25331W        W97591   0.054  10.643   1.286
25332W        W97592  29.615   8.723   1.751
25333W        W97593  27.619  31.381  11.102
25334W        W97594   2.034  12.439   4.480
25335W        W97595  34.341  18.866   0.390
25336W        W97596  16.417  24.471  12.455
25337W        W97597  22.148  32.040  11.864
25338W        W97598  31.593  38.404   1.499
25339W        W97599  14.327  12.167  13.453
25340W        W97600  44.462  17.535  11.129
25341W        W97601  38.581  37.345   3.253
25342W        W97602  28.818  35.518   1.955
25343W        W97603  18.102  33.683   0.074
25344W        W97604  17.669  34.477   3.290
25345W        W97605  16.216  38.441   2.787
25346W        W97606  39.894  31.434  12.073
25347W        W97607   8.840  10.995  13.805
25348W        W97608  42.467   1.408   4.100
25349W        W97609   5.039  34.519  13.480
25350W        W97610  11.988  36.188   3.861
25351W        W97611  36.582  33.186  12.376
25352W        W97612   8.713  29.396  13.033
25353W        W97613  18.622  29.432  11.550
25354W        W97614  33.559  20.621  11.486
25355W        W97615   9.433  20.383  11.177
25356W        W97616  21.038  23.733   2.801
25357W        W97617  38.094  18.163  10.885
25358W        W97618  38.428   0.836  10.383
25359W        W97619  19.915   5.674  12.283
25360W        W97620  19.447  13.750  13.482
25361W        W97621  32.452  25.471  12.975
25362W        W97622  10.455  18.017   5.086
25363W        W97623  42.845   9.273   0.899
25364W        W97624  13.323  28.022  14.710
25365W        W97625  17.595   8.768  10.729
25366W        W97626  31.822  29.162   3.101
25367W        W97627   9.645   7.089  14.488
25368W        W97628   5.046  38.960  11.869
25369W        W97629  42.778   8.832  13.785
25370W        W97630  24.642  33.467  14.856
25371W        W97631   8.466  21.627   2.797
25372W        W97632   8.678  42.008  10.670
25373W        W97633   9.861  42.330  12.028
25374W        W97634  18.691  22.470  14.275
25375W        W97635  37.076  29.534   0.351
25376W        W97636   9.347  44.940  11.407
25377W        W97637  41.366  39.141  10.655
25378W        W97638  35.979   9.027  14.800
25379W        W97639  32.868  37.868  12.494
25380W        W97640  29.552  12.626   2.157
25381W        W97641   9.924   1.393  14.770
25382W        W97642  31.624  35.538   1.619
25383W        W97643   3.675  26.377   1.811
25384W        W97644  22.571  13.291  13.569
25385W        W97645  26.659   1.805   4.900
25386W        W97646  28.903  25.247  13.375
25387W        W97647  30.963  29.975  14.997
25388W        W97648  41.129  34.857   1.885
25389W        W97649  26.570  43.964   4.682
25390W        W97650  32.826  40.364   4.233
25391W        W97651  34.861  11.167   1.190
25392W        W97652   8.964  33.534  12.953
25393W        W97653  26.106  42.152   3.238
25394W        W97654  28.102  31.428   4.121
25395W        W97655  35.850  20.824   5.501
25396W        W97656  23.052  18.296   1.777
25397W        W97657  37.968   4.565  13.037
25398W        W97658  36.812  33.194   1.808
25399W        W97659   0.645  18.026   0.751
25400W        W97660  43.553   9.209   3.258
25401W        W97661   7.977  25.753  13.452
25402W        W97662  35.015  14.303  11.417
25403W        W97663   2.690  29.109   3.259
25404W        W97664  23.771   5.317   0.742
25405W        W97665  31.965  17.582   1.153
25406W        W97666  38.441  36.310  12.864
25407W        W97667  13.972   3.414  13.420
25408W        W97668   2.231   4.490   0.307
25409W        W97669  26.212   3.208   2.179
25410W        W97670  26.548  14.097   5.008
25411W        W97671  33.476  36.833  13.529
25412W        W97672  15.624  27.611  14.953
25413W        W97673  26.402  21.834  12.434
25414W        W97674  41.846  22.906   2.409
25415W        W97675  27.886  13.638   2.882
25416W        W97676  37.937   5.240  11.689
25417W        W97677  25.656   6.216  13.472
25418W        W97678   0.749  43.813  10.720
25419W        W97679  10.442  38.903  13.242
25420W        W97680   3.936  38.485  10.649
25421W        W97681   5.287  40.644  11.520
25422W        W97682  37.643   7.321  10.333
25423W        W97683  12.675  19.520  11.976
25424W        W97684   4.312  41.528  13.163
25425W        W97685  20.713  34.093  12.571
25426W        W97686   0.121   4.965  11.230
25427W        W97687  41.928  39.062  10.924
25428W        W97688  40.811  13.148   4.270
25429W        W97689   9.797  37.587  11.726
25430W        W97690  35.082  26.669  12.961
25431W        W97691   9.640   3.704   3.506
25432W        W97692  11.674  15.106   4.154
25433W        W97693   2.986  15.364  12.059
25434W        W97694   2.292  29.899   4.572
25435W        W97695  44.871  12.216  14.735
25436W        W97696  32.443  41.483   2.812
25437W        W97697  39.110  21.856  11.101
25438W        W97698  43.875  11.846   1.673
25439W        W97699  12.183  44.423   1.333
25440W        W97700  31.108  16.261   4.070
25441W        W97701  23.077  33.012  10.629
25442W        W97702  32.867  41.822   1.142
25443W        W97703   9.064  19.732  10.686
25444W        W97704   8.932  39.403  12.691
25445W        W97705  34.879   4.517  12.606
25446W        W97706  25.312  44.325  11.182
25447W        W97707  40.812  31.462   2.220
25448W        W97708  43.751   1.673  12.415
25449W        W97709  30.570  21.735  12.842
25450W        W97710  17.125  43.521   2.126
25451W        W97711  26.473  11.864   0.970
25452W        W97712  21.086  40.764   3.653
25453W        W97713  30.890   6.349   1.768
25454W        W97714  14.284  17.468  11.407
25455W        W97715  35.260  11.826   0.569
25456W        W97716   0.728  17.389   5.052
25457W        W97717  17.953   5.906  10.590
25458W        W97718   8.427  27.526   2.211
25459W        W97719  10.780  36.003   3.110
25460W        W97720  11.533  22.448  10.642
25461W        W97721   0.095  31.170   3.126
25462W        W97722  20.001  44.733   2.226
25463W        W97723  24.903  42.861   3.583
25464W        W97724   9.106  38.835   0.200
25465W        W97725  38.940  18.750  12.377
25466W        W97726  11.945  18.195  13.958
25467W        W97727   7.241  37.376  11.497
25468W        W97728  22.486  15.845  13.499
25469W        W97729  13.821  30.425  11.999
25470W        W97730  15.282  16.010  14.775
25471W        W97731  18.041  16.610   4.757
25472W        W97732   5.627  27.565   1.628
25473W        W97733   1.980  36.131   4.546
25474W        W97734  33.067  19.541  14.239
25475W        W97735  37.173  14.316  11.924
25476W        W97736  43.946   7.346  14.456
25477W        W97737  36.847  44.864   1.181
25478W        W97738  13.554  11.210   2.674
25479W        W97739  31.163  15.612   4.547
25480W        W97740  33.439  29.129  10.483
25481W        W97741  43.998  42.044   1.105
25482W        W97742  40.817  37.104  12.095
25483W        W97743  35.133  31.398   3.271
25484W        W97744  17.726  25.687   3.462
25485W        W97745  14.145  32.045   0.794
25486W        W97746   2.225  11.156   3.283
25487W        W97747  42.659  36.844  11.664
25488W        W97748  43.184   8.971   2.204
25489W        W97749  22.565  32.680   4.556
25490W        W97750  15.783  11.940   3.172
25491W        W97751   0.992  14.263  12.513
25492W        W97752   3.312   7.316  12.059
25493W        W97753  27.634  40.087   3.815
25494W        W97754  34.046  13.745  12.715
25495W        W97755  34.218  40.080   3.635
25496W        W97756  11.043  25.898   1.773
25497W        W97757  43.897  37.500   0.490
25498W        W97758   2.400  30.441  13.875
25499W        W97759   5.717   1.027   1.765
25500W        W97760  16.230   9.152   0.321
25501W        W97761  36.807  39.082  11.554
25502W        W97762  19.825   1.767   0.355
25503W        W97763   3.320  25.439   2.449
25504W        W97764   7.968   6.450   0.836
25505W        W97765  38.518  29.496  10.536
25506W        W97766  30.267   5.349   1.038
25507W        W97767  44.695  37.540  14.273
25508W        W97768  15.961  14.493  14.505
25509W        W97769   4.012  26.908   4.536
25510W        W97770  18.131  17.587  11.573
25511W        W97771  40.991  31.563  13.503
25512W        W97772  21.037  18.764   4.284
25513W        W97773  26.541  13.363   2.677
25514W        W97774  16.797  42.327  11.948
25515W        W97775  30.886   5.941  11.635
25516W        W97776   0.282  37.338  13.774
25517W        W97777  36.500   7.829   4.129
25518W        W97778  14.726   6.979  11.234
25519W        W97779  37.777   3.650  10.710
25520W        W97780  10.430  39.876   4.549
25521W        W97781  16.362  34.431  13.371
25522W        W97782  32.921   8.804   0.065
25523W        W97783  37.063  29.684   2.814
25524W        W97784   1.625  24.397   3.751
25525W        W97785  29.387  17.690  14.943
25526W        W97786  30.539   9.747  12.166
25527W        W97787  29.979   9.132   3.079
25528W        W97788  26.982  30.448  12.417
25529W        W97789  27.092  36.995  12.965
25530W        W97790  20.963  41.970   4.085
25531W        W97791   2.059  32.132   4.144
25532W        W97792   4.333   0.981   3.229
25533W        W97793   7.918  14.679  14.476
25534W        W97794   2.538   7.637   4.087
25535W        W97795   2.875  32.705  13.865
25536W        W97796  13.603  42.001  13.367
25537W        W97797  13.731  11.778   3.196
25538W        W97798  21.583  30.510   4.964
25539W        W97799   2.700   8.240   1.335
25540W        W97800  44.882  21.136  14.555
25541W        W97801  17.288  24.894   1.268
25542W        W97802  34.549  20.547   1.838
25543W        W97803  40.936  23.681  12.045
25544W        W97804  11.005   5.899   4.830
25545W        W97805  29.617  28.939   3.235
25546W        W97806  34.200  39.805  14.466
25547W        W97807  19.194  28.041  13.047
25548W        W97808  44.263  14.275   0.012
25549W        W97809  29.275  18.373   3.212
25550W        W97810  22.690  17.626   2.784
25551W        W97811  25.933   2.717   0.262
25552W        W97812   4.868  28.964  11.258
25553W        W97813  36.949  23.248  13.503
25554W        W97814  41.930  31.681  11.482
25555W        W97815  39.579   6.241  10.957
25556W        W97816  21.719  39.087   2.279
25557W        W97817  20.229  21.049   2.755
25558W        W97818  19.989   0.344   4.889
25559W        W97819  17.656  24.810  11.216
25560W        W97820  11.138   4.368  13.378
25561W        W97821  16.635  40.992   2.237
25562W        W97822  44.801   6.400   1.058
25563W        W97823  41.090  28.068   0.735
25564W        W97824  16.010  37.330   2.363
25565W        W97825  34.429  28.303   3.738
25566W        W97826  39.243  19.669   3.216
25567W        W97827  30.665   8.347   0.954
25568W        W97828  43.858   8.254  11.621
25569W        W97829  39.444  28.553   2.354
25570W        W97830  30.061  13.802  13.111
25571W        W97831  40.337   8.277  14.908
25572W        W97832  31.348   9.811   1.318
25573W        W97833   7.968  25.647   3.080
25574W        W97834  31.914  43.366   4.688
25575W        W97835  16.072  24.971   3.747
25576W        W97836  13.027  37.428  10.306
25577W        W97837  15.605  14.017   9.826
25578W        W97838   9.869  20.055   1.403
25579W        W97839  27.494  27.906   1.035
25580W        W97840  21.903  32.629   0.415
25581W        W97841  28.991  24.268   2.785
25582W        W97842  31.453  43.058   0.584
25583W        W97843  17.154  11.161   2.949
25584W        W97844  43.059   0.549   1.835
25585W        W97845  10.276  21.297   0.398
25586W        W97846  34.996   7.282   2.188
25587W        W97847   2.314  31.600  11.074
25588W        W97848  20.791  17.838   0.634
25589W        W97849  29.269  18.128  11.462
25590W        W97850  37.807  16.131  14.831
25591W        W97851  10.318   2.525  11.975
25592W        W97852  44.078  19.747   4.169
25593W        W97853  10.146  11.941   2.332
25594W        W97854  20.023  44.686   0.010
25595W        W97855  18.719  25.572   1.344
25596W        W97856  40.668   5.223  11.415
25597W        W97857   1.812   1.692   3.728
25598W        W97858  17.024  18.264  12.662
25599W        W97859  42.009  12.347   2.520
25600W        W97860   5.428  15.116   2.440
25601W        W97861  43.841  28.694   2.231
25602W        W97862  15.826  23.944   0.708
25603W        W97863  11.257  20.232   0.572
25604W        W97864  40.427  14.928  14.511
25605W        W97865  26.093  17.052   1.208
25606W        W97866  16.293   0.898  11.522
25607W        W97867  15.167  13.878   1.932
25608W        W97868   7.903  25.438  10.933
25609W        W97869   5.805  33.683  14.380
25610W        W97870  29.743  18.027  13.991
25611W        W97871   3.503   9.865  11.608
25612W        W97872  20.517  11.369  10.710
25613W        W97873  34.924  39.496   0.887
25614W        W97874  42.921  10.936   2.512
25615W        W97875  13.866   3.140   1.219
25616W        W97876  23.126  21.057  12.925
25617W        W97877  12.065   6.421   2.863
25618W        W97878  31.592  10.309  13.434
25619W        W97879  17.349  32.119   2.313
25620W        W97880  38.617  29.359   3.811
25621W        W97881  30.428  14.237  13.475
25622W        W97882  10.656   3.999  12.025
25623W        W97883  12.464  11.598  12.894
25624W        W97884  29.032  32.576   3.850
25625W        W97885  13.223  41.637   1.924
25626W        W97886  41.197   7.394   3.793
25627W        W97887  26.472  19.505   4.214
25628W        W97888  12.929  10.173  12.912
25629W        W97889  12.372   1.100  12.632
25630W        W97890  41.525  13.076  13.036
25631W        W97891   0.673   9.578  14.083
25632W        W97892  39.134   0.250   0.601
25633W        W97893  20.598  43.215   0.975
25634W        W97894   2.357   4.646   2.728
25635W        W97895  33.621  42.440   4.194
25636W        W97896   1.913  43.294  12.067
25637W        W97897   9.420  20.273   0.437
25638W        W97898  39.306  15.254   4.200
25639W        W97899  43.694  42.725  11.129
25640W        W97900  12.029  24.995  12.397
25641W        W97901  35.791   6.407   4.915
25642W        W97902  17.127  42.522  12.415
25643W        W97903  28.964   2.428   3.444
25644W        W97904  34.936  17.610  13.960
25645W        W97905  38.994  17.755  14.418
25646W        W97906   7.476  32.322  13.875
25647W        W97907  17.645  14.334   4.404
25648W        W97908   8.673  26.025  10.994
25649W        W97909  19.342  28.549  13.025
25650W        W97910  29.892  25.675   0.886
25651W        W97911  44.181  14.539   4.383
25652W        W97912  44.317   4.380   3.296
25653W        W97913  31.708  32.077  14.860
25654W        W97914  25.789  16.911   2.362
25655W        W97915  32.614  14.016   4.911
25656W        W97916  26.237   1.741  10.698
25657W        W97917   3.511  10.504   0.984
25658W        W97918  25.652  44.390   2.373
25659W        W97919  12.816  35.412  14.054
25660W        W97920  27.597   3.937  14.349
25661W        W97921  39.903  13.196   3.345
25662W        W97922  37.346  15.975   0.014
25663W        W97923  31.707   0.019   1.926
25664W        W97924  15.117  44.551  11.223
25665W        W97925  37.297  26.002  14.979
25666W        W97926  10.182  43.792  12.931
25667W        W97927  23.791  20.669   1.085
25668W        W97928  23.648  42.436   0.229
25669W        W97929   3.302  25.883   4.100
25670W        W97930  30.468  23.910  12.507
25671W        W97931  20.661  42.943   4.203
25672W        W97932  29.478  12.406  11.181
25673W        W97933  28.026  10.271  10.393
25674W        W97934   1.737  10.649   3.808
25675W        W97935   1.335  42.331   1.977
25676W        W97936  44.253  43.836   0.225
25677W        W97937   3.666  16.839  10.772
25678W        W97938   6.377  16.237  13.972
25679W        W97939  39.364  39.636  14.962
25680W        W97940   3.899  33.331  13.808
25681W        W97941  15.585  42.809  10.737
25682W        W97942  11.359  33.599  13.013
25683W        W97943  30.931  27.402   4.174
25684W        W97944  43.941   6.851   1.855
25685W        W97945   3.845  42.091   0.208
25686W        W97946  11.562  31.160  14.433
25687W        W97947  17.570  13.725  12.200
25688W        W97948  19.297   2.320  12.240
25689W        W97949  19.243  21.535  13.589
25690W        W97950  43.880  25.129  13.943
25691W        W97951  15.118  31.587   2.702
25692W        W97952  13.298  20.301   4.425
25693W        W97953  17.115  37.964   4.694
25694W        W97954  24.210  16.179   2.178
25695W        W97955  11.645  20.101  12.864
25696W        W97956  43.560  17.682   1.373
25697W        W97957  23.491  30.650  11.074
25698W        W97958  28.262  25.511  14.988
25699W        W97959   2.754   4.301   1.999
25700W        W97960   8.269  28.581  12.868
25701W        W97961   5.761   2.300   0.455
25702W        W97962  21.418  15.519  12.417
25703W        W97963  17.094  23.188  13.386
25704W        W97964   5.338  20.061  14.517
25705W        W97965  16.154  38.233   1.295
25706W        W97966  24.559  27.614   4.291
25707W        W97967  39.302  17.322  10.740
25708W        W97968   6.105   8.896   4.168
25709W        W97969  26.965  23.123  13.373
25710W        W97970   8.522  26.341   2.772
25711W        W97971  44.902   2.661   1.862
25712W        W97972  17.220  12.414  13.543
25713W        W97973   9.633   9.621   3.718
25714W        W97974   7.454  25.143   3.736
25715W        W97975   7.057   3.381  11.548
25716W        W97976  31.559  35.779   0.343
25717W        W97977  33.607  25.199   2.181
25718W        W97978  20.600  19.562   9.966
25719W        W97979  19.144  23.241  14.447
25720W        W97980   5.200  11.840  14.741
25721W        W97981  20.353  32.662   3.600
25722W        W97982  15.810  38.792  12.348
25723W        W97983  18.223  17.527   4.941
25724W        W97984  34.591  10.868  12.900
25725W        W97985  13.035  26.076   3.576
25726W        W97986  24.170  15.904  14.585
25727W        W97987  22.277  29.030  13.778
25728W        W97988  42.313  38.458   3.476
25729W        W97989  29.354  27.023   3.835
25730W        W97990  28.198  33.444   2.444
25731W        W97991   5.422  30.619   0.380
25732W        W97992  32.342  12.091   2.576
25733W        W97993  27.494  10.865   4.882
25734W        W97994  27.875  30.453   1.769
25735W        W97995   7.296   6.303  13.187
25736W        W97996  30.329   8.379   1.349
25737W        W97997  26.427  13.733   0.527
25738W        W97998  42.280  10.270  11.927
25739W        W97999   5.900  19.649  11.638
25740W        W98000   1.489  42.380   3.793
25741W        W98001   8.031  38.460  12.007
25742W        W98002  33.699  19.692   0.341
25743W        W98003  21.205  16.084   4.617
25744W        W98004  20.470  37.569  11.151
25745W        W98005  37.211  29.656   4.973
25746W        W98006  29.483   3.894   1.957
25747W        W98007  42.099  42.661   4.819
25748W        W98008  28.373  34.560  10.962
25749W        W98009  18.802  24.039   4.151
25750W        W98010   6.152  36.789   2.723
25751W        W98011  17.611  15.325  14.550
25752W        W98012   7.616  23.243   2.624
25753W        W98013  35.376   9.359   4.703
25754W        W98014   9.198  30.069   1.381
25755W        W98015  35.929  40.915  13.926
25756W        W98016  17.125  25.912  14.583
25757W        W98017  16.067  28.884   4.350
25758W        W98018  15.551   7.167  11.963
25759W        W98019  30.544  10.289  10.883
25760W        W98020  19.988  22.475   4.037
25761W        W98021   0.799  41.281  10.313
25762W        W98022  26.723   6.477   3.277
25763W        W98023  19.465  33.462   0.051
25764W        W98024  24.514  24.497   0.758
25765W        W98025  25.744  37.961  14.480
25766W        W98026  10.259  15.053   1.158
25767W        W98027   5.665  17.198   0.779
25768W        W98028   7.408  16.724   0.717
25769W        W98029   3.419  24.327  14.669
25770W        W98030  26.565  16.557  14.645
25771W        W98031  12.129  28.697  11.870
25772W        W98032  34.052  11.199   3.307
25773W        W98033   4.759   3.225   4.107
25774W        W98034  18.216  36.048   0.784
25775W        W98035  30.504   0.755   4.463
25776W        W98036  16.225  23.988   2.733
25777W        W98037  38.001   1.576  11.216
25778W        W98038  43.393   3.862  14.711
25779W        W98039   4.769  26.650   0.376
25780W        W98040  41.465  22.091   0.477
25781W        W98041  13.959   0.263  11.525
25782W        W98042  23.635  36.128  11.501
25783W        W98043  44.834  15.727  14.224
25784W        W98044  24.066   2.478  12.612
25785W        W98045  13.537  43.879   1.521
25786W        W98046   9.234  19.013  13.945
25787W        W98047   7.311   4.974  14.643
25788W        W98048  40.993  10.398  14.841
25789W        W98049  30.141  41.643  11.137
25790W        W98050  42.018  24.273  11.666
25791W        W98051  15.716  30.892   0.444
25792W        W98052  28.696   8.260  11.954
25793W        W98053  44.355  26.089   1.793
25794W        W98054   7.804   7.973   4.084
25795W        W98055   7.269  25.202   1.179
25796W        W98056  19.548  34.863  13.346
25797W        W98057  19.133  16.661   2.009
25798W        W98058  14.651  14.161  12.457
25799W        W98059  29.761  11.381   0.761
25800W        W98060  44.203  21.123  12.390
25801W        W98061  27.652  35.847  12.573
25802W        W98062   1.083  25.325   0.873
25803W        W98063   1.891  33.149  14.264
25804W        W98064  11.678   2.213  12.293
25805W        W98065  23.965  34.287   2.069
25806W        W98066  10.088  32.870  11.127
25807W        W98067  28.629  42.601  14.122
25808W        W98068  19.458   6.841  11.500
25809W        W98069  19.207  32.677  10.787
25810W        W98070  24.412  28.505  13.498
25811W        W98071  41.236  15.588  14.426
25812W        W98072  42.521   0.460   4.515
25813W        W98073   8.257   4.764  11.556
25814W        W98074  12.598   4.510  11.015
25815W        W98075   6.792  16.093  11.440
25816W        W98076  16.040  28.658  12.605
25817W        W98077  11.536  44.397  13.023
25818W        W98078  30.461  44.985  14.431
25819W        W98079  13.116  13.258   2.336
25820W        W98080   3.719  23.543  10.473
25821W        W98081  13.982   4.682   3.660
25822W        W98082   2.410  24.110   4.128
25823W        W98083  22.982  24.752  10.854
25824W        W98084   8.164  31.589   3.171
25825W        W98085   2.211  34.164   3.733
25826W        W98086  18.172  33.504  11.223
25827W        W98087  33.823   8.222   4.055
25828W        W98088  13.249   9.184   3.243
25829W        W98089  30.937  40.707  11.260
25830W        W98090  21.409  11.090   0.939
25831W        W98091   4.402  38.217  10.571
25832W        W98092  26.519  15.209  13.019
25833W        W98093  18.192   1.909   4.770
25834W        W98094  24.120  33.030  13.482
25835W        W98095  43.845  43.960  12.522
25836W        W98096  42.100  43.949   2.863
25837W        W98097  27.243  37.531  14.719
25838W        W98098   1.882  31.691   0.042
25839W        W98099   3.706  17.718  14.286
25840W        W98100   5.200  21.313   1.949
25841W        W98101  30.917   4.776  14.740
25842W        W98102  22.133  13.654   2.265
25843W        W98103  12.201  39.533  11.992
25844W        W98104  25.846  38.237   0.232
25845W        W98105  23.686  21.816  10.823
25846W        W98106   6.156  24.957  13.445
25847W        W98107  16.056  37.959   3.586
25848W        W98108  26.205  14.285   0.421
25849W        W98109  23.351  16.820  13.305
25850W        W98110  43.910  40.903  13.430
25851W        W98111  20.545  25.016   3.643
25852W        W98112   4.882  39.425  10.658
25853W        W98113  40.994  38.758  12.478
25854W        W98114  37.340  13.785  13.913
25855W        W98115  31.663  38.633   4.833
25856W        W98116  39.317  17.823   3.129
25857W        W98117   3.950  32.227  14.753
25858W        W98118   5.691  38.787   1.464
25859W        W98119  24.796  17.035  14.398
25860W        W98120  15.786   5.244  11.896
25861W        W98121  41.072  13.675   3.292
25862W        W98122  23.812  27.946  12.266
25863W        W98123  27.024  20.095  13.735
25864W        W98124  36.819  38.000   2.300
25865W        W98125  12.173   1.735  14.828
25866W        W98126  20.625   6.900   1.218
25867W        W98127   6.040  27.879   0.782
25868W        W98128  25.490  15.319  11.046
25869W        W98129  10.190   2.796   4.525
25870W        W98130  36.512  44.270   4.902
25871W        W98131  44.249   7.432  12.785
25872W        W98132  33.472  14.560  10.622
25873W        W98133   8.623  28.433  12.483
25874W        W98134  36.044  31.193  13.935
25875W        W98135  30.579  37.084  13.040
25876W        W98136  19.646  37.130   2.758
25877W        W98137  33.385  41.544  10.329
25878W        W98138  44.950  18.680   3.289
25879W        W98139  23.099  31.679   2.837
25880W        W98140  35.816  40.478   3.288
25881W        W98141  37.546  42.828   0.792
25882W        W98142  23.664   9.643  11.593
25883W        W98143  16.273  43.493   1.014
25884W        W98144  14.095  26.434  13.862
25885W        W98145  37.960  34.895   0.252
25886W        W98146   5.881   6.326  13.540
25887W        W98147   8.738   6.166   2.354
25888W        W98148  34.634  25.111  13.409
25889W        W98149  24.016  19.059  13.521
25890W        W98150  28.451  27.066   2.418
25891W        W98151  23.650  39.302  12.640
25892W        W98152  25.143  16.163  10.655
25893W        W98153  19.620  11.525   1.399
25894W        W98154  27.415   2.532   1.529
25895W        W98155  38.046  32.595  14.317
25896W        W98156  22.771  40.294   4.487
25897W        W98157   7.395  43.495   2.627
25898W        W98158  28.704  22.778   4.619
25899W        W98159  19.068  23.581   4.345
25900W        W98160   6.238   3.807   0.996
25901W        W98161  40.305  35.595   3.838
25902W        W98162  18.840  28.123   4.649
25903W        W98163  16.318  12.788  12.892
25904W        W98164  13.311  43.869   3.671
25905W        W98165  23.036  16.001  11.052
25906W        W98166  21.155  25.560   4.125
25907W        W98167  35.628   2.737   2.335
25908W        W98168   8.493  24.714  13.031
25909W        W98169  13.307  35.761   1.614
25910W        W98170   7.279  22.587   2.986
25911W        W98171  36.157  35.102  13.375
25912W        W98172  35.356  14.690  11.495
25913W        W98173   0.286  41.130   1.731
25914W        W98174  38.009  19.098  12.180
25915W        W98175  43.431   4.535  12.091
25916W        W98176  39.527  18.529   2.129
25917W        W98177  26.740   0.838  11.923
25918W        W98178  15.225   8.530  13.937
25919W        W98179  17.118  13.845  12.432
25920W        W98180  25.041   5.498   0.360
25921W        W98181  30.192  41.050  12.444
25922W        W98182   1.739  34.366   3.663
25923W        W98183  33.493  12.708  10.304
25924W        W98184   1.971  21.634  12.512
25925W        W98185  33.077  41.014   2.183
25926W        W98186  41.395  43.743   0.190
25927W        W98187  33.398  32.819  13.850
25928W        W98188   2.799   6.148  10.649
25929W        W98189  27.215  35.837   3.548
25930W        W98190  19.146  33.089   4.554
25931W        W98191  11.170  32.643   4.672
25932W        W98192  42.443  33.953   4.574
25933W        W98193   3.855   3.355  12.810
25934W        W98194  44.255   7.854   4.011
25935W        W98195   8.320  10.271   0.434
25936W        W98196  39.539  33.408  11.085
25937W        W98197  12.836  10.203   2.679
25938W        W98198  31.404  33.617   3.208
25939W        W98199  10.264  33.060   1.010
25940W        W98200   9.980   4.809   0.414
25941W        W98201  21.101  35.887   2.220
25942W        W98202   2.040  21.312   1.711
25943W        W98203  14.434  37.777  13.894
25944W        W98204  31.146   3.672   0.666
25945W        W98205  22.143  16.732  11.465
25946W        W98206  25.074  35.956  10.431
25947W        W98207  26.555  10.695  11.902
25948W        W98208  36.007  15.178  12.095
25949W        W98209   4.344  24.165   2.291
25950W        W98210  35.601  41.396   1.331
25951W        W98211  27.628  17.588   4.344
25952W        W98212  32.658   6.360   1.146
25953W        W98213  18.736  20.805   3.715
25954W        W98214  35.048  26.716   4.580
25955W        W98215  20.035  11.811  10.989
25956W        W98216   9.099  15.223  14.128
25957W        W98217  27.406  38.195  12.126
25958W        W98218  20.244   0.725   4.510
25959W        W98219  18.656   2.679  11.534
25960W        W98220  14.490  12.699  13.413
25961W        W98221  42.671  22.580   4.855
25962W        W98222  37.350  17.508   2.579
25963W        W98223   9.167  42.569  11.495
25964W        W98224  28.169  24.129   4.740
25965W        W98225   0.226   7.276   0.792
25966W        W98226  24.426   8.085  12.954
25967W        W98227  17.515  40.821   3.618
25968W        W98228  37.967  27.690  10.812
25969W        W98229  41.037   3.788  12.387
25970W        W98230  22.259   0.848   3.285
25971W        W98231  10.287  20.782   0.403
25972W        W98232  10.234  35.880   2.245
25973W        W98233  12.732  17.076  11.918
25974W        W98234  32.752  30.882   0.576
25975W        W98235  14.379  33.538  13.929
25976W        W98236  42.731  31.559  12.133
25977W        W98237  32.093   0.185  14.048
25978W        W98238  11.655  41.617  13.857
25979W        W98239   8.230   9.120  12.973
25980W        W98240  10.350  22.973   2.852
25981W        W98241  27.187   8.728   4.555
25982W        W98242  19.487  40.171  12.335
25983W        W98243  21.652  38.113  11.636
25984W        W98244  31.403  32.082  11.065
25985W        W98245   6.320  10.439   4.153
25986W        W98246  19.594  11.789  14.066
25987W        W98247  35.625  26.735   0.419
25988W        W98248  14.000  41.836  11.120
25989W        W98249  44.279  21.740   4.598
25990W        W98250   4.667  16.721  12.045
25991W        W98251  34.649  21.885   4.594
25992W        W98252   6.693   5.713  13.594
25993W        W98253   3.881  10.635  13.081
25994W        W98254   7.417  18.812   0.089
25995W        W98255  11.261   5.281  11.661
25996W        W98256   8.645   5.317   0.516
25997W        W98257   4.200   0.364  13.935
25998W        W98258  23.378  40.424   3.725
25999W        W98259   7.792   2.460   1.609
26000W        W98260  10.884  21.002   1.112
26001W        W98261  39.896  21.791   2.751
26002W        W98262   6.752  25.785   2.866
26003W        W98263  27.436  25.630   2.297
26004W        W98264   7.380  17.231   4.618
26005W        W98265  20.037  20.549  10.555
26006W        W98266  14.818  28.824  12.599
26007W        W98267  25.775  17.308   3.226
26008W        W98268  43.442   7.155  13.250
26009W        W98269  24.914  20.811   1.816
26010W        W98270  11.655  32.119  14.285
26011W        W98271  28.457  38.726  14.951
26012W        W98272  40.949  23.916  13.633
26013W        W98273   1.863  12.634   4.017
26014W        W98274  22.152   4.349   0.850
26015W        W98275  16.764  37.680  13.665
26016W        W98276  33.919  20.597  14.850
26017W        W98277   2.217  16.739   3.158
26018W        W98278  25.936   6.451  12.648
26019W        W98279   0.320  13.908  14.936
26020W        W98280  22.344  34.674  12.651
26021W        W98281  27.426  42.983   2.428
26022W        W98282  11.930  23.385  14.964
26023W        W98283  12.321  17.734   0.332
26024W        W98284  38.942  42.787  12.737
26025W        W98285  35.579  17.216  14.291
26026W        W98286  25.709  16.543   3.897
26027W        W98287  30.242  30.108   3.461
26028W        W98288   7.286  14.002  10.619
26029W        W98289   4.489  22.317   2.700
26030W        W98290   7.685  20.628  11.436
26031W        W98291  19.534  11.698   3.693
26032W        W98292   0.884  18.620  13.799
26033W        W98293   0.411  27.233   4.543
26034W        W98294  17.867  13.267   1.756
26035W        W98295  31.543  18.640   3.590
26036W        W98296  19.137  30.441   3.615
26037W        W98297  30.475  41.911   4.502
26038W        W98298  38.319   3.098  10.701
26039W        W98299  40.897  32.966   4.644
26040W        W98300  32.964  43.496   4.772
26041W        W98301  23.848  33.051   1.450
26042W        W98302  40.459  41.823  10.682
26043W        W98303  20.010  42.606   1.515
26044W        W98304  34.187  24.962  13.652
26045W        W98305  27.278  11.707  12.662
26046W        W98306  22.269  12.757   0.290
26047W        W98307   4.682  27.347   2.818
26048W        W98308  21.749  26.184   0.411
26049W        W98309  15.557   1.212   1.713
26050W        W98310  13.632  34.538  11.576
26051W        W98311  33.966  12.379  11.176
26052W        W98312  44.669   1.550   3.229
26053W        W98313   7.178  39.121   2.698
26054W        W98314  33.987  19.484  12.724
26055W        W98315  36.261  29.153   2.263
26056W        W98316  14.602  29.966  13.352
26057W        W98317   5.970  26.633  10.913
26058W        W98318  40.489  38.919  10.758
26059W        W98319   0.695  13.170  13.095
26060W        W98320  38.536  30.085  14.398
26061W        W98321  44.425   3.927  11.202
26062W        W98322  26.527  22.282   1.189
26063W        W98323   2.294  21.994  14.001
26064W        W98324  23.612  35.869  13.403
26065W        W98325  16.564  11.873   2.278
26066W        W98326   4.668  26.066  11.170
26067W        W98327  21.063  40.992   3.185
26068W        W98328   0.288  39.076   2.348
26069W        W98329  29.083  19.715  13.811
26070W        W98330  20.087  33.644  13.816
26071W        W98331  19.623  24.071  13.442
26072W        W98332  34.556  22.812   2.293
26073W        W98333  22.335   8.307   3.457
26074W        W98334  11.421  41.549  13.205
26075W        W98335  44.052  31.644   2.645
26076W        W98336  22.526   4.000   3.210
26077W        W98337  38.379  43.672  11.979
26078W        W98338  35.589  36.742   4.415
26079W        W98339  38.852  30.734  13.399
26080W        W98340  40.598   0.629   3.853
26081W        W98341  28.511  24.312  10.599
26082W        W98342  35.132  41.069   3.665
26083W        W98343  12.508  12.359  12.555
26084W        W98344  29.563  29.749   1.204
26085W        W98345  39.512  16.158   4.694
26086W        W98346   5.821  12.010  12.038
26087W        W98347   9.784  32.303   0.420
26088W        W98348   4.877   5.728   0.397
26089W        W98349  33.950  37.117  14.797
26090W        W98350  43.527  41.840   3.357
26091W        W98351  12.075  22.192  13.298
26092W        W98352  17.262  33.442  13.490
26093W        W98353  42.103  39.385   4.134
26094W        W98354   1.032  10.782   1.681
26095W        W98355  43.757  44.381  11.773
26096W        W98356  25.721  39.119   5.213
26097W        W98357  27.678  21.241   2.836
26098W        W98358  23.638  33.209   3.191
26099W        W98359   4.117  30.612   1.347
26100W        W98360   1.677  37.362  10.622
26101W        W98361  33.618  38.691   3.535
26102W        W98362   2.461  33.265  13.293
26103W        W98363  40.527   2.744  14.322
26104W        W98364  17.570  38.259   4.688
26105W        W98365   5.264  31.872  11.079
26106W        W98366   3.256  43.953  11.954
26107W        W98367   4.196   8.454   0.420
26108W        W98368   7.244   9.726  13.188
26109W        W98369  28.399  40.593   2.273
26110W        W98370  28.018  32.482  13.978
26111W        W98371  15.242   3.363   1.593
26112W        W98372  35.429  15.629  11.226
26113W        W98373  44.577   2.237  13.979
26114W        W98374  19.513   6.262   2.831
26115W        W98375  12.251  21.260  12.914
26116W        W98376   3.428  40.067  12.489
26117W        W98377  22.624  10.441  11.935
26118W        W98378   1.766  19.403   0.216
26119W        W98379  30.020  32.025   5.217
26120W        W98380  25.037  39.769   1.321
26121W        W98381  32.112  15.196  11.303
26122W        W98382   8.833  44.260  14.406
26123W        W98383   3.325  30.394   1.148
26124W        W98384  14.300  27.420   5.577
26125W        W98385  43.877  33.939  13.336
26126W        W98386   0.038   3.827   0.033
26127W        W98387   7.770  17.174   2.485
26128W        W98388  37.496   8.718  10.961
26129W        W98389  11.451  25.233   0.326
26130W        W98390   0.115  20.777  13.787
26131W        W98391  41.832  11.819   2.229
26132W        W98392  42.221  31.830  10.360
26133W        W98393   4.763  38.955  12.309
26134W        W98394  11.884  43.535   0.410
26135W        W98395   0.241  27.716  12.420
26136W        W98396   2.402  43.029  12.184
26137W        W98397   8.593  18.593   0.744
26138W        W98398  34.707  12.563  14.940
26139W        W98399  17.006   7.116  10.655
26140W        W98400  44.024   5.271  13.924
26141W        W98401  28.461  23.231   4.677
26142W        W98402  24.952  44.539  12.577
26143W        W98403  39.487  12.724  13.959
26144W        W98404  43.381  29.213   4.733
26145W        W98405  18.718   6.256  10.676
26146W        W98406   7.328  38.384   1.423
26147W        W98407  12.810  40.273  14.351
26148W        W98408  34.011  17.605   0.383
26149W        W98409  16.608  40.475  12.461
26150W        W98410   2.018  11.803   2.769
26151W        W98411  33.293  13.832  10.245
26152W        W98412   6.427  38.866   1.050
26153W        W98413  24.934  22.731  10.773
26154W        W98414   3.785  12.052   3.117
26155W        W98415  43.887   5.903  10.723
26156W        W98416  35.898  32.932  10.705
26157W        W98417  19.197   4.932  14.040
26158W        W98418   2.973  15.311   1.274
26159W        W98419  31.372  42.980   2.342
26160W        W98420   6.933   4.667   1.827
26161W        W98421  30.507  19.177   3.255
26162W        W98422  33.612   4.648  12.654
26163W        W98423  13.832  23.054  11.467
26164W        W98424  27.737  17.721  12.468
26165W        W98425   1.189  12.825   4.519
26166W        W98426   8.714  32.141   1.487
26167W        W98427  34.413   1.667  13.979
26168W        W98428  29.141  33.662  11.583
26169W        W98429  22.650  34.884   0.952
26170W        W98430   6.615  24.708  13.951
26171W        W98431  44.347  21.482   4.135
26172W        W98432  12.745  29.986   3.362
26173W        W98433  18.712  15.809  10.440
26174W        W98434  37.752   5.332  13.378
26175W        W98435   9.600  26.484  11.142
26176W        W98436  32.036  13.686   1.002
26177W        W98437  25.510   5.534   4.214
26178W        W98438   0.179  25.220  12.446
26179W        W98439  27.450  42.223   0.302
26180W        W98440  34.216  21.009  14.950
26181W        W98441  34.446   1.867   3.761
26182W        W98442  30.282   0.477  14.377
26183W        W98443  14.311  15.426   4.165
26184W        W98444   9.051  42.573   1.942
26185W        W98445  21.562  20.728  10.614
26186W        W98446  42.315   8.891  10.562
26187W        W98447   8.633  10.374  14.852
26188W        W98448  19.150  10.590  11.734
26189W        W98449   8.321   6.289   4.689
26190W        W98450   5.004  31.083  11.474
26191W        W98451  41.563  11.856  13.697
26192W        W98452   4.737  15.649  14.938
26193W        W98453  19.605  27.439  14.389
26194W        W98454   9.268  39.024   4.114
26195W        W98455  38.561  11.414   2.702
26196W        W98456   8.881  38.899  11.067
26197W        W98457   1.919   2.112  14.059
26198W        W98458  25.071  21.549   4.142
26199W        W98459  28.382  25.179  12.490
26200W        W98460   5.871   3.406  10.744
26201W        W98461  33.982  15.710  13.544
26202W        W98462  10.788  33.476   1.159
26203W        W98463  39.750   4.777   3.181
26204W        W98464  31.620   2.420  13.401
26205W        W98465  15.977  44.437   3.402
26206W        W98466  34.880   4.241   3.226
26207W        W98467  40.197  28.758  11.484
26208W        W98468  37.648  36.002   2.334
26209W        W98469   1.027   7.587  14.819
26210W        W98470  44.637  15.110   4.019
26211W        W98471   4.673  26.585  12.042
26212W        W98472   6.405  37.385  14.926
26213W        W98473  26.419  11.405   1.913
26214W        W98474  40.735  27.462  12.079
26215W        W98475   3.185   9.756   4.828
26216W        W98476  36.950  11.186  12.065
26217W        W98477  13.460  43.523   2.433
26218W        W98478  34.558  30.374   0.904
26219W        W98479   9.365  38.460  12.939
26220W        W98480  43.278  23.680  13.034
26221W        W98481  11.187  28.720   2.728
26222W        W98482  31.423   0.936   1.496
26223W        W98483  41.600  12.923   2.458
26224W        W98484  28.745   2.503  14.109
26225W        W98485   2.830   1.984  13.973
26226W        W98486  41.859  19.728   4.722
26227W        W98487  24.023   8.491   1.135
26228W        W98488   3.225  32.559   1.865
26229W        W98489   7.408  30.889  11.913
26230W        W98490  28.599   6.982  11.104
26231W        W98491   0.230  35.367  10.943
26232W        W98492   1.347  24.992   3.229
26233W        W98493  38.532  20.313  12.271
26234W        W98494  29.247  29.206   2.323
26235W        W98495   2.111   8.130  11.049
26236W        W98496  24.159  20.693   3.775
26237W        W98497  44.990   1.350  14.366
26238W        W98498  14.848   0.748  14.904
26239W        W98499  31.946  44.594  10.547
26240W        W98500  36.844   3.953  11.607
26241W        W98501  40.680   1.007   0.259
26242W        W98502  38.784  42.724  11.845
26243W        W98503   0.241  13.226   2.772
26244W        W98504  34.806  36.424  13.449
26245W        W98505  24.729  24.540  11.149
26246W        W98506  24.140  17.593  11.235
26247W        W98507   2.945  44.072  14.874
26248W        W98508  20.127  27.612  12.998
26249W        W98509  42.967   0.008  13.735
26250W        W98510   4.305  17.268  12.804
26251W        W98511  26.174   5.509  11.522
26252W        W98512  18.152  36.348  11.508
26253W        W98513  11.654  21.063   4.243
26254W        W98514  44.946  21.745   3.935
26255W        W98515  24.470  15.359  11.059
26256W        W98516  34.162   3.663   0.525
26257W        W98517  21.446   3.826   0.710
26258W        W98518  15.753  22.574  11.073
26259W        W98519  19.707  18.711   1.223
26260W        W98520  31.804  15.980   4.857
26261W        W98521   2.437  18.676   1.933
26262W        W98522  21.780  12.221  13.869
26263W        W98523   9.396   6.310  10.773
26264W        W98524   9.184   1.684   0.787
26265W        W98525  44.351   1.856   4.705
26266W        W98526  32.366  16.070  10.547
26267W        W98527  21.675  23.615   0.691
26268W        W98528  22.614  24.003  10.383
26269W        W98529  13.567  10.038   4.102
26270W        W98530  36.076  24.429  14.480
26271W        W98531  28.594  30.381   3.575
26272W        W98532  28.207  14.305   2.502
26273W        W98533  38.510  12.751   2.340
26274W        W98534  10.938  31.250   1.129
26275W        W98535  15.524  11.669  14.762
26276W        W98536  44.232   0.329   3.172
26277W        W98537   0.180  39.395  12.207
26278W        W98538  42.036  19.277   4.955
26279W        W98539   3.860  40.456  12.816
26280W        W98540   2.476  31.372  11.521
26281W        W98541  33.443   0.667  13.050
26282W        W98542  33.618  19.571   1.855
26283W        W98543   1.643   9.760   3.341
26284W        W98544  10.282  44.362   1.550
26285W        W98545  37.398   5.354   2.379
26286W        W98546   4.693   9.765   2.872
26287W        W98547  33.874   2.052  12.064
26288W        W98548  16.412  21.585  13.545
26289W        W98549   6.153  17.668   2.768
26290W        W98550  28.029  29.055   4.585
26291W        W98551  25.777  13.354   0.744
26292W        W98552  41.274  26.982  11.432
26293W        W98553   6.390  44.809  11.993
26294W        W98554  36.543   5.984  13.864
26295W        W98555  28.472   9.114  14.004
26296W        W98556  21.610   1.341  14.953
26297W        W98557  36.129   8.524  10.593
26298W        W98558   2.228  30.487  14.886
26299W        W98559  26.327   5.002   1.217
26300W        W98560  31.152  15.599   2.858
26301W        W98561  29.017  16.244  10.700
26302W        W98562  27.232  14.675  12.679
26303W        W98563  15.345  40.844  12.983
26304W        W98564  13.309  29.723  12.208
26305W        W98565  34.499  31.874  14.386
26306W        W98566  17.283  26.210   1.787
26307W        W98567   8.482  23.246  13.384
26308W        W98568  20.045   0.219  10.674
26309W        W98569  35.713   9.181  14.353
26310W        W98570   0.527  19.418   4.892
26311W        W98571   1.294  16.385   2.683
26312W        W98572   5.781  12.557   1.828
26313W        W98573  26.788  22.174   1.658
26314W        W98574   7.872  32.177  10.727
26315W        W98575  37.368  41.989   4.641
26316W        W98576  39.577  17.634  12.205
26317W        W98577  35.410  13.113  13.403
26318W        W98578   7.284  25.059  12.345
26319W        W98579  34.889   1.273  13.073
26320W        W98580  32.862  23.743   1.468
26321W        W98581   4.048  22.759   4.604
26322W        W98582   5.224  36.062  11.575
26323W        W98583  44.602   4.007   2.237
26324W        W98584  11.653  28.082  13.747
26325W        W98585  39.416  33.049  10.732
26326W        W98586  10.284   3.946   1.346
26327W        W98587  33.951  31.260  14.640
26328W        W98588  41.877  32.003  11.077
26329W        W98589  24.312   6.915   4.138
26330W        W98590  38.825  18.944   1.723
26331W        W98591  23.211  15.147   1.989
26332W        W98592  19.476  18.239   2.428
26333W        W98593   6.863  34.952   0.652
26334W        W98594  28.690  30.653  11.086
26335W        W98595  16.232  43.714  11.966
26336W        W98596  16.252  12.649  11.960
26337W        W98597   1.447  10.725   2.895
26338W        W98598  33.092  38.798  13.800
26339W        W98599   0.774  31.999   2.471
26340W        W98600   6.119  38.764   1.952
26341W        W98601  24.334  26.592   5.059
26342W        W98602  26.617  10.848   4.519
26343W        W98603   0.076  23.864   2.750
26344W        W98604   3.707  40.474  13.952
26345W        W98605   7.580  10.591   3.905
26346W        W98606   9.440  23.513   3.495
26347W        W98607  41.525  40.439   0.394
26348W        W98608   3.197  28.012   1.410
26349W        W98609   0.416   3.466  12.183
26350W        W98610  34.568   2.386  10.342
26351W        W98611  44.892  44.773   1.938
26352W        W98612  33.027  26.899  12.613
26353W        W98613  22.431  28.066  10.674
26354W        W98614  12.410   9.364  10.688
26355W        W98615  23.642   0.417  11.500
26356W        W98616  16.910  31.741   3.192
26357W        W98617   8.539  32.146   3.817
26358W        W98618  24.532  35.136   0.910
26359W        W98619  18.786   3.798   2.716
26360W        W98620  33.393  14.481  13.554
26361W        W98621  12.374  23.260   1.895
26362W        W98622   7.210  15.830  12.526
26363W        W98623  21.706  36.635  11.218
26364W        W98624   2.376  11.428   2.819
26365W        W98625   6.981  16.167  12.867
26366W        W98626   6.684  26.157   3.220
26367W        W98627  16.275  28.436   4.105
26368W        W98628  24.392  35.134   4.213
26369W        W98629  44.437  27.240   0.995
26370W        W98630  29.717  27.127   2.616
26371W        W98631  16.134  38.827   1.794
26372W        W98632  13.341  19.192  12.847
26373W        W98633  24.049   8.159  14.911
26374W        W98634  42.892  22.189   0.868
26375W        W98635   0.083  43.927  10.939
26376W        W98636  18.722   7.922  14.874
26377W        W98637  12.200  40.384   3.808
26378W        W98638   2.063  39.360  11.390
26379W        W98639  29.821  15.242   1.916
26380W        W98640  32.604  31.520  11.851
26381W        W98641  18.028  11.126   2.227
26382W        W98642  27.540   0.846   2.762
26383W        W98643  40.533  33.014   0.262
26384W        W98644  14.770  13.747   1.136
26385W        W98645  37.037  42.463   2.476
26386W        W98646  41.293  27.077  10.683
26387W        W98647   3.351  32.528  13.748
26388W        W98648  15.117  27.030  10.687
26389W        W98649   0.078  23.210  10.787
26390W        W98650  41.757   7.811  12.592
26391W        W98651  44.454  27.891  14.929
26392W        W98652  17.272  27.633   1.712
26393W        W98653  12.078  28.145   0.998
26394W        W98654   5.091  21.059  14.925
26395W        W98655   9.895  21.654   4.827
26396W        W98656  14.813  27.475   3.301
26397W        W98657  29.308  28.110  10.611
26398W        W98658  25.675  22.657   3.299
26399W        W98659  36.512   7.308   5.311
26400W        W98660  25.159   0.042   0.494
26401W        W98661  11.405  35.387   2.939
26402W        W98662  14.900   2.864   4.476
26403W        W98663  33.484  15.862  13.672
26404W        W98664  11.796  40.365   0.320
26405W        W98665  11.336  29.811  10.781
26406W        W98666  27.069  19.427   1.429
26407W        W98667  36.326  37.977   4.112
26408W        W98668   5.794  35.583   3.208
26409W        W98669  28.076  11.773   2.311
26410W        W98670  34.463   5.884   0.286
26411W        W98671   3.149   0.259  11.689
26412W        W98672   9.834  19.336  14.592
26413W        W98673  39.600  22.837  11.170
26414W        W98674  28.964  10.417  11.111
26415W        W98675  41.244  36.813  13.812
26416W        W98676  24.771   6.816  12.835
26417W        W98677  22.661   8.222   1.660
26418W        W98678  15.103  36.511  11.153
26419W        W98679  31.989  25.238   0.733
26420W        W98680  19.486   2.718  11.582
26421W        W98681   4.351   7.203   1.109
26422W        W98682  23.716  42.062   0.553
26423W        W98683   2.087  35.969   0.456
26424W        W98684  26.191  11.118  13.283
26425W        W98685  44.924  13.153   0.543
26426W        W98686  12.073   2.959   1.391
26427W        W98687  17.719  13.085  12.563
26428W        W98688  22.775  19.620  14.493
26429W        W98689  18.683  32.418   3.087
26430W        W98690  23.435  32.035   1.966
26431W        W98691  37.002  27.277  10.510
26432W        W98692  13.096  31.095  12.055
26433W        W98693  38.857  39.051   3.856
26434W        W98694  30.084  13.627  12.168
26435W        W98695  32.032  44.860   0.451
26436W        W98696  17.562  31.233  13.913
26437W        W98697  17.380  13.451   1.896
26438W        W98698  11.015  25.769  12.368
26439W        W98699  37.926   6.649  11.929
26440W        W98700  14.672   6.564   1.757
26441W        W98701  26.479   5.365  13.967
26442W        W98702   6.251  29.251  13.518
26443W        W98703   3.831  34.573  14.411
26444W        W98704   7.617   0.994  12.465
26445W        W98705  18.097  35.145  13.409
26446W        W98706  18.289  15.400   1.111
26447W        W98707  41.520  14.084  13.201
26448W        W98708  38.587  14.722   4.213
26449W        W98709  44.389  29.621   2.910
26450W        W98710  22.366  11.158   1.870
26451W        W98711  37.524   0.242   1.438
26452W        W98712  34.437  31.370  14.500
26453W        W98713   6.312   3.546   4.549
26454W        W98714  41.504  21.683  10.758
26455W        W98715  42.667  15.583   0.300
26456W        W98716   9.832   2.419   4.638
26457W        W98717  12.631  31.978   1.159
26458W        W98718  38.993  34.383  10.649
26459W        W98719  26.489  44.235  14.033
26460W        W98720   2.872   8.353   3.104
26461W        W98721  40.382  39.557   0.269
26462W        W98722  37.287  41.436   0.874
26463W        W98723  32.007  15.805   0.864
26464W        W98724   1.282  25.557  11.525
26465W        W98725  32.346  10.105   2.152
26466W        W98726  10.667  29.930   0.203
26467W        W98727  40.285  20.564  10.719
26468W        W98728  39.278  17.615   3.717
26469W        W98729  14.578  38.534  10.589
26470W        W98730  43.746  10.257   3.838
26471W        W98731  13.857  32.877  12.428
26472W        W98732  14.932  14.152   1.545
26473W        W98733  30.921  43.250  11.632
26474W        W98734  36.547  27.847  11.036
26475W        W98735   0.926   2.574   0.926
26476W        W98736  42.607  24.726   0.423
26477W        W98737  40.922  29.358   1.424
26478W        W98738  16.592  25.386   4.730
26479W        W98739  22.110   6.509  11.677
26480W        W98740  38.042  24.152  12.657
26481W        W98741  13.343  44.363  14.525
26482W        W98742  27.466  13.760  14.590
26483W        W98743  30.383  32.514  13.918
26484W        W98744   3.240  27.132   2.823
26485W        W98745  37.425  31.755   9.987
26486W        W98746  37.494  31.693  13.101
26487W        W98747  12.754  42.496  12.615
26488W        W98748   5.677  27.547   4.615
26489W        W98749  16.568  12.975   0.045
26490W        W98750  27.459  11.143  11.595
26491W        W98751  36.836  38.859  11.073
26492W        W98752  18.082  34.735  13.089
26493W        W98753  13.172  29.433   1.402
26494W        W98754   7.377  27.388   1.894
26495W        W98755   7.022  17.684   0.833
26496W        W98756  23.135   8.630  13.299
26497W        W98757  29.862  29.738   3.392
26498W        W98758  12.132  42.345  10.677
26499W        W98759  21.507  35.039  11.910
26500W        W98760  29.495  42.490   3.230
26501W        W98761   7.956  11.876   3.623
26502W        W98762   8.182  25.557  13.021
26503W        W98763  17.347   4.168  13.405
26504W        W98764  23.148  18.043   0.421
26505W        W98765  26.924   9.358   0.497
26506W        W98766  14.086  33.987  13.950
26507W        W98767  33.589  39.535  13.787
26508W        W98768  42.841  29.720  13.889
26509W        W98769   2.287   2.239  12.122
26510W        W98770   7.228  36.091   2.295
26511W        W98771  15.777   8.242  13.266
26512W        W98772  28.574  40.415  12.606
26513W        W98773  11.221   8.233   2.449
26514W        W98774  22.698  22.410   1.595
26515W        W98775  17.316   0.427  10.272
26516W        W98776  43.490  44.835   2.314
26517W        W98777   8.292  24.749   2.247
26518W        W98778  11.058  18.673   4.650
26519W        W98779  18.568  44.643  12.550
26520W        W98780   0.585  28.604   4.102
26521W        W98781  22.154  17.540  13.893
26522W        W98782  42.510  19.529  13.580
26523W        W98783  20.255  11.751   9.966
26524W        W98784  34.473  37.875  13.138
26525W        W98785  16.102  13.253  14.875
26526W        W98786   6.601  21.870   1.009
26527W        W98787  17.484  12.931   1.883
26528W        W98788  12.632  20.666  10.781
26529W        W98789  42.824  24.566  10.719
26530W        W98790  29.519  43.002   3.191
26531W        W98791  29.538  20.715  12.454
26532W        W98792   3.362  33.428  14.425
26533W        W98793  32.094  31.611  14.033
26534W        W98794  19.140  24.982  12.010
26535W        W98795  26.514  37.929  13.909
26536W        W98796  28.414  44.908   4.062
26537W        W98797  44.040  19.795  11.665
26538W        W98798   4.859  29.487   0.295
26539W        W98799  44.545  39.536  13.942
26540W        W98800  27.514  28.909  12.953
26541W        W98801   1.870  14.360  12.981
26542W        W98802  38.850   9.820   0.372
26543W        W98803  13.231  32.849   2.787
26544W        W98804  37.474   1.425   0.938
26545W        W98805  38.990   7.004   9.758
26546W        W98806  19.649  39.771   1.213
26547W        W98807  17.172  24.557  11.847
26548W        W98808  23.094   6.397   4.190
26549W        W98809  30.151  23.362  13.348
26550W        W98810  21.980  32.912  14.339
26551W        W98811  28.735  36.003   0.004
26552W        W98812   8.664   8.978   1.715
26553W        W98813  41.557   4.425  10.442
26554W        W98814   4.832  21.998  10.244
26555W        W98815  15.626  40.988   3.656
26556W        W98816   8.987  30.345  11.163
26557W        W98817  26.188  22.991   4.589
26558W        W98818  32.541  26.944  12.829
26559W        W98819  40.279  27.281  11.668
26560W        W98820  44.778  21.685   4.418
26561W        W98821  15.444  27.266  13.191
26562W        W98822  25.758  12.797  10.736
26563W        W98823  20.511  27.464  11.985
26564W        W98824   2.368  14.031  13.949
26565W        W98825  28.077  30.669   5.506
26566W        W98826  39.907   8.743   1.793
26567W        W98827  30.858  39.919  13.019
26568W        W98828  22.125  10.261  14.524
26569W        W98829   4.201  26.269  14.772
26570W        W98830  30.192   0.524   3.276
26571W        W98831   9.767  37.345  14.504
26572W        W98832  42.171  28.590  13.936
26573W        W98833  23.006  28.105   3.735
26574W        W98834  34.852  15.635   3.263
26575W        W98835  18.149  37.481   1.215
26576W        W98836   3.179  44.266   3.678
26577W        W98837  20.615   8.330  11.986
26578W        W98838  42.754  28.252  11.325
26579W        W98839   0.280  20.250  11.947
26580W        W98840  22.654  32.113  14.363
26581W        W98841  34.208  37.518  12.538
26582W        W98842   2.869  35.015   1.226
26583W        W98843  12.687   1.788   3.621
26584W        W98844   3.346  15.750  10.038
26585W        W98845   7.771  22.656   1.930
26586W        W98846  33.355   1.563  11.603
26587W        W98847  14.667  23.162  10.753
26588W        W98848  11.650  29.707   4.092
26589W        W98849  23.532  12.298   1.930
26590W        W98850   3.352  16.466  12.394
26591W        W98851  22.108  22.565  10.057
26592W        W98852  44.260  18.806  11.621
26593W        W98853  15.757  13.843   1.299
26594W        W98854   0.958  28.358   3.163
26595W        W98855  20.691  43.686  12.569
26596W        W98856  26.349  25.198   4.340
26597W        W98857  15.196  41.431   3.423
26598W        W98858  30.119   6.168   0.574
26599W        W98859  41.779  16.002   3.553
26600W        W98860  16.095  28.080   0.814
26601W        W98861  21.750   6.411   2.278
26602W        W98862  38.445  21.227  11.713
26603W        W98863  34.630  14.020  14.420
26604W        W98864  35.136  23.429  11.743
26605W        W98865  11.699  44.544   1.148
26606W        W98866   3.865  24.887  13.468
26607W        W98867   5.766  28.299   0.399
26608W        W98868  29.611  36.320  14.321
26609W        W98869  10.739  38.056  11.193
26610W        W98870  26.964  38.871  14.468
26611W        W98871  43.917  20.401   2.399
26612W        W98872  30.656  33.965  13.443
26613W        W98873  25.617  12.926   2.679
26614W        W98874  10.620   9.327  10.598
26615W        W98875  38.604   0.020  12.585
26616W        W98876   0.383  23.496  12.774
26617W        W98877  26.447  27.418   0.028
26618W        W98878  17.273  42.854  11.094
26619W        W98879  32.937   3.887  14.011
26620W        W98880   7.310   6.859  14.866
26621W        W98881   8.207  30.228   2.308
26622W        W98882  41.853   0.299   3.196
26623W        W98883   5.240  14.539  13.001
26624W        W98884   7.399  41.880   2.914
26625W        W98885  10.795  15.463   1.858
26626W        W98886  44.556   5.301  12.857
26627W        W98887  42.614  44.067  13.544
26628W        W98888  13.863   3.674  14.985
26629W        W98889  30.484  41.539   2.899
26630W        W98890   7.939  39.891   3.259
26631W        W98891  26.143  27.483  14.493
26632W        W98892  17.350  37.843   0.898
26633W        W98893  16.631  21.651  12.503
26634W        W98894  18.113  32.655   4.679
26635W        W98895  29.998  40.999   3.689
26636W        W98896  16.330  33.953  10.642
26637W        W98897   1.799   1.491   2.355
26638W        W98898  43.303  35.523  11.893
26639W        W98899  17.172  23.847   4.657
26640W        W98900   9.204   2.712   1.777
26641W        W98901  12.596  31.896   4.628
26642W        W98902   8.314  43.216  10.358
26643W        W98903  22.463  39.874   1.402
26644W        W98904  19.846  11.859  11.490
26645W        W98905   0.202   7.790  10.860
26646W        W98906   0.882   0.722  10.782
26647W        W98907  25.634  17.888  12.926
26648W        W98908  31.855  44.822  12.619
26649W        W98909  30.958  18.027   2.445
26650W        W98910  35.955  24.970  12.153
26651W        W98911  17.821  27.437   4.108
26652W        W98912   8.194  21.594   3.267
26653W        W98913  29.245  44.518   0.491
26654W        W98914  23.995  41.600  14.727
26655W        W98915  16.246   3.747   1.342
26656W        W98916  32.424  12.032  14.901
26657W        W98917  21.632  32.094   2.312
26658W        W98918  10.006  32.843   4.877
26659W        W98919  14.134  43.965   4.084
26660W        W98920  25.716   6.868  12.951
26661W        W98921  13.341  27.164   4.599
26662W        W98922   4.362  31.645  12.036
26663W        W98923  19.657  42.422  14.198
26664W        W98924  29.579   7.265  13.928
26665W        W98925  21.511  12.637  14.818
26666W        W98926  34.005   4.165  14.838
26667W        W98927   6.167   2.052   0.001
26668W        W98928  28.451  25.781   0.785
26669W        W98929  22.149  34.506  12.208
26670W        W98930  41.923  21.487  12.883
26671W        W98931  13.771  33.108  13.462
26672W        W98932   9.167  31.338   0.182
26673W        W98933   6.491  22.668   2.108
26674W        W98934  27.154  40.462   1.686
26675W        W98935  40.100  37.041   4.099
26676W        W98936  43.866   8.803  14.711
26677W        W98937  21.061  28.634   0.787
26678W        W98938  17.819  14.169   1.440
26679W        W98939  42.828  31.826   4.849
26680W        W98940  18.500   9.117  10.701
26681W        W98941  13.109   6.142  13.825
26682W        W98942  33.112  10.322  14.876
26683W        W98943  35.362  39.094  12.360
26684W        W98944   8.197  44.288   3.172
26685W        W98945  42.891  14.125  14.337
26686W        W98946   7.130  22.075   2.396
26687W        W98947  26.595  40.790  10.562
26688W        W98948   1.799  16.263  12.341
26689W        W98949   1.068  30.625   2.262
26690W        W98950   6.391  17.993  12.559
26691W        W98951  11.070   5.667  10.582
26692W        W98952  27.027  13.280  10.641
26693W        W98953  30.845  17.105   1.385
26694W        W98954   0.704  36.956   3.245
26695W        W98955   7.433  37.566  12.351
26696W        W98956   3.459   9.781  13.376
26697W        W98957  23.014  39.847  14.533
26698W        W98958  10.552   7.809  13.990
26699W        W98959  35.579  40.571   2.325
26700W        W98960  43.717  12.636   4.490
26701W        W98961  23.195  34.891  11.012
26702W        W98962   4.407  10.343  12.963
26703W        W98963  34.609  13.376  11.604
26704W        W98964   0.894   1.758   0.196
26705W        W98965  36.064  24.199   3.583
26706W        W98966  44.346  29.040  12.552
26707W        W98967  35.173  12.211  14.003
26708W        W98968  39.986  23.460  11.459
26709W        W98969  29.557  12.106  12.432
26710W        W98970  32.023  36.039  10.653
26711W        W98971  10.674  25.304  14.942
26712W        W98972  17.831  41.861  14.862
26713W        W98973  37.958  15.058   1.444
26714W        W98974   2.243  33.661  10.724
26715W        W98975  20.262   7.268   1.054
26716W        W98976  37.749  26.698   3.210
26717W        W98977  40.881  40.897  10.835
26718W        W98978  21.971  25.896   9.701
26719W        W98979   0.899  12.689   1.720
26720W        W98980  42.053  13.786  13.107
26721W        W98981  30.058  36.869   1.321
26722W        W98982   7.475   6.376   4.223
26723W        W98983  12.322  18.490  14.935
26724W        W98984  42.928   9.776  13.931
26725W        W98985  37.097  34.333  11.605
26726W        W98986  22.666  38.258  12.959
26727W        W98987  28.103  23.055  13.163
26728W        W98988  10.117   0.359  11.465
26729W        W98989   6.354  35.416   2.587
26730W        W98990  40.481  10.747  13.112
26731W        W98991  21.152   3.744  12.231
26732W        W98992  37.031  21.548  14.300
26733W        W98993  31.567  26.575  13.855
26734W        W98994  43.445   0.824  12.566
26735W        W98995  42.861  30.820   2.372
26736W        W98996  25.644   5.344  11.581
26737W        W98997  33.526  14.581  11.526
26738W        W98998  26.052  26.550   0.803
26739W        W98999   1.389   3.724   1.849
26740W        W99000   6.944  28.480  14.416
26741W        W99001   4.369  12.393   2.959
26742W        W99002  12.080   4.488  10.650
26743W        W99003  39.315  24.845  14.238
26744W        W99004   8.148  25.067  12.888
26745W        W99005  33.039  14.333   4.801
26746W        W99006  38.807  28.065   3.753
26747W        W99007  43.048  26.862  12.158
26748W        W99008  37.521   8.254  10.711
26749W        W99009  34.780   1.282   0.539
26750W        W99010  33.955  36.904  13.796
26751W        W99011  31.486  16.553  12.515
26752W        W99012  17.159  44.033   4.125
26753W        W99013  38.596  13.630   0.916
26754W        W99014  23.474  26.148  12.098
26755W        W99015  11.149  23.704   1.242
26756W        W99016  25.089  40.245  14.384
26757W        W99017  19.566  11.272  13.308
26758W        W99018  27.471  24.291   4.138
26759W        W99019  26.343  44.465   4.582
26760W        W99020  22.339  39.017  13.879
26761W        W99021  39.423  11.463   2.438
26762W        W99022  41.449   0.003  14.467
26763W        W99023   6.928   9.121   2.692
26764W        W99024  24.224  40.106   3.639
26765W        W99025  42.244   3.285   9.905
26766W        W99026  30.480  42.783   0.684
26767W        W99027  11.421  34.140   4.890
26768W        W99028  40.559  29.043  11.213
26769W        W99029  17.544   0.351  10.729
26770W        W99030  15.231  21.044   0.517
26771W        W99031   6.121  27.596   4.896
26772W        W99032  13.672   6.868  13.126
26773W        W99033  18.728  11.799   3.269
26774W        W99034  12.755  24.731   2.430
26775W        W99035  11.088  11.438  13.794
26776W        W99036  33.618  42.358  11.681
26777W        W99037  22.102  10.168  12.921
26778W        W99038  38.925   1.900   0.319
26779W        W99039  29.261  41.495   2.245
26780W        W99040   8.285   3.324   2.840
26781W        W99041  36.937  37.327   1.405
26782W        W99042   6.918  28.467  11.461
26783W        W99043  20.533  24.410   2.462
26784W        W99044  21.083   8.481   0.524
26785W        W99045   7.361  26.593  10.517
26786W        W99046   8.648  38.285  10.820
26787W        W99047   4.217  13.773   2.162
26788W        W99048  37.320  20.150  12.938
26789W        W99049  10.576  29.164   2.415
26790W        W99050  29.079  27.433   0.315
26791W        W99051  42.429  33.552  11.617
26792W        W99052   3.013  14.736  10.717
26793W        W99053   7.164  40.737  14.989
26794W        W99054  20.702  14.759   3.675
26795W        W99055  16.802  30.508   2.703
26796W        W99056  29.943  18.878   0.192
26797W        W99057   2.924  41.779  14.456
26798W        W99058  35.488  44.065  13.273
26799W        W99059   0.836  42.469  13.365
26800W        W99060  42.296  14.496   5.016
26801W        W99061  43.415  24.171   1.642
26802W        W99062   3.336  41.218  10.673
26803W        W99063   1.769  41.444  12.328
26804W        W99064  19.537  29.670   2.846
26805W        W99065  28.688  26.477   4.199
26806W        W99066  26.388  18.084   0.704
26807W        W99067  38.359  35.097   4.139
26808W        W99068  30.325  18.534  14.760
26809W        W99069   3.268   9.145  13.954
26810W        W99070  43.920  12.248   3.301
26811W        W99071  27.494   8.372  11.964
26812W        W99072  36.172  34.447   0.539
26813W        W99073  23.218   5.218   1.398
26814W        W99074  16.770  43.408  11.096
26815W        W99075  11.340  10.306   3.688
26816W        W99076  15.171  25.484  10.736
26817W        W99077  37.347  10.727   2.866
26818W        W99078   2.914  40.106   1.219
26819W        W99079   2.071  42.433  13.823
26820W        W99080   0.371  16.475   0.250
26821W        W99081  15.750  38.105  11.089
26822W        W99082  20.097   6.044  10.234
26823W        W99083  23.567  44.349  12.792
26824W        W99084   9.099  22.261   0.411
26825W        W99085   3.107  17.829  13.413
26826W        W99086  10.326  43.027  14.926
26827W        W99087  10.510  20.387  14.455
26828W        W99088  44.753  21.273   3.785
26829W        W99089  27.872  29.436   1.938
26830W        W99090  31.097  40.317  13.262
26831W        W99091  23.555   8.277  13.959
26832W        W99092   7.072  10.370  14.899
26833W        W99093  32.365  31.931  11.105
26834W        W99094   6.695  40.813  11.982
26835W        W99095  23.278  30.922  11.515
26836W        W99096  20.287  32.500   2.220
26837W        W99097  13.637  41.425   3.716
26838W        W99098   9.689  18.280  14.489
26839W        W99099   8.350  33.519  13.845
26840W        W99100   4.191  12.752  10.748
26841W        W99101   9.900  24.090  14.032
26842W        W99102  16.293  22.722   2.270
26843W        W99103  35.852   2.837  11.200
26844W        W99104   5.268  28.589   0.845
26845W        W99105  30.779  33.544   2.703
26846W        W99106  36.112   9.866   3.742
26847W        W99107  17.374  27.063   3.351
26848W        W99108  22.241  13.260  14.055
26849W        W99109  26.922  28.450  11.956
26850W        W99110   4.406   9.204  12.592
26851W        W99111  40.107   9.800   4.025
26852W        W99112  42.761   0.249   3.233
26853W        W99113  28.535  17.337   3.333
26854W        W99114  13.131  18.755   1.672
26855W        W99115   9.691  23.031  14.888
26856W        W99116  37.889  12.905   2.868
26857W        W99117   2.512  37.467   3.084
26858W        W99118  18.271  10.690  14.321
26859W        W99119  20.618  20.914  14.204
26860W        W99120  19.280  14.720  14.366
26861W        W99121  13.972  29.969  11.480
26862W        W99122  23.064   0.047  12.508
26863W        W99123   0.430  10.240  14.694
26864W        W99124  30.481   5.404   1.934
26865W        W99125   1.467  42.944  11.632
26866W        W99126  15.591  15.442   0.445
26867W        W99127  20.608  29.902  14.429
26868W        W99128  34.394   1.059   0.817
26869W        W99129  27.933  26.307   0.255
26870W        W99130   4.815  38.376  13.748
26871W        W99131  43.910   3.923   0.993
26872W        W99132  19.771  12.165   2.758
26873W        W99133  21.086   9.335   2.836
26874W        W99134  40.886  27.305  14.311
26875W        W99135  17.514  44.480   0.301
26876W        W99136  39.811  34.853   1.416
26877W        W99137  29.196  20.286   3.369
26878W        W99138  29.601   8.909  11.199
26879W        W99139  30.575  22.996   4.655
26880W        W99140  28.459   2.233  10.776
26881W        W99141  31.360  29.095   1.886
26882W        W99142  24.454  44.423  13.976
26883W        W99143  24.461  25.637  10.444
26884W        W99144  15.705  41.440  13.940
26885W        W99145  42.026   6.264   1.863
26886W        W99146  26.472  40.041   2.583
26887W        W99147  34.102   9.719  10.678
26888W        W99148  16.177  31.512   3.717
26889W        W99149   9.270  12.274   2.714
26890W        W99150  26.133  42.696   2.207
26891W        W99151  28.926  16.031   1.266
26892W        W99152  25.536  23.956  11.988
26893W        W99153  40.191  10.333   4.198
26894W        W99154  12.213   0.999   0.281
26895W        W99155  12.149  24.434  11.847
26896W        W99156  44.440  22.006   4.187
26897W        W99157   0.354  42.579  14.341
26898W        W99158   3.526  19.794  13.138
26899W        W99159  12.528  18.063  12.904
26900W        W99160  11.125  22.214   2.376
26901W        W99161   1.471  34.076   4.903
26902W        W99162  21.561   7.247   0.672
26903W        W99163  41.524  30.140  13.608
26904W        W99164   0.000  35.766  10.667
26905W        W99165  28.649  43.977   1.764
26906W        W99166   9.020  26.719  13.407
26907W        W99167  30.334   0.816  10.975
26908W        W99168  19.212  28.624   3.530
26909W        W99169  10.192   7.826  13.617
26910W        W99170  39.750  28.689   0.299
26911W        W99171  24.302   8.875  14.761
26912W        W99172  19.931  44.555   3.805
26913W        W99173  40.409  37.330  11.859
26914W        W99174  19.696  24.091   3.245
26915W        W99175  23.712  26.190  10.363
26916W        W99176  30.029  39.562   3.095
26917W        W99177  14.031   8.928  11.441
26918W        W99178   3.880  40.940  14.449
26919W        W99179  39.430  19.615   1.725
26920W        W99180   1.817   7.244  13.853
26921W        W99181  10.265  36.405   2.227
26922W        W99182  35.265  37.390   2.691
26923W        W99183  37.965  29.785  11.838
26924W        W99184  23.240  43.795   0.330
26925W        W99185  43.875   3.297  13.035
26926W        W99186  44.396   5.868  13.500
26927W        W99187   0.827   3.176  13.872
26928W        W99188  15.289  17.473  14.801
26929W        W99189  24.128  16.603   0.370
26930W        W99190  37.591  39.103  12.658
26931W        W99191   5.722  17.715  13.599
26932W        W99192  44.100  11.178   0.226
26933W        W99193  20.333   8.418   0.375
26934W        W99194  18.597  34.639  11.408
26935W        W99195  12.290   2.816  13.471
26936W        W99196  22.580  26.097  14.424
26937W        W99197  32.653  17.532  10.603
26938W        W99198  27.147   6.841   1.770
26939W        W99199  29.885  20.663  14.273
26940W        W99200  41.306  11.717   4.763
26941W        W99201  34.942  12.344  13.509
26942W        W99202  24.750  28.262  10.763
26943W        W99203   7.408   5.365  14.290
26944W        W99204  43.770  25.820  11.122
26945W        W99205  13.976  21.241  11.682
26946W        W99206  13.651  19.602   4.139
26947W        W99207  44.464  26.032   4.568
26948W        W99208  36.251   9.432  13.384
26949W        W99209  26.692  39.789  12.856
26950W        W99210  37.021  32.039  10.705
26951W        W99211  40.044  25.687  11.093
26952W        W99212  13.723   7.634   4.670
26953W        W99213  14.176   0.705  12.075
26954W        W99214   0.352   5.889  11.931
26955W        W99215  18.509  15.076  14.614
26956W        W99216   9.208  40.140  13.761
26957W        W99217  25.876   2.689  11.074
26958W        W99218  30.171  12.795  12.543
26959W        W99219   5.844  28.357   5.070
26960W        W99220  28.609  26.277   0.721
26961W        W99221  22.513   2.976  10.067
26962W        W99222  27.265  17.832   3.745
26963W        W99223   0.079   6.435  10.674
26964W        W99224   8.687  37.724   0.918
26965W        W99225  13.536  20.521  13.483
26966W        W99226  12.105   4.581  11.169
26967W        W99227   2.903   2.417   2.173
26968W        W99228  12.726  28.175  14.041
26969W        W99229  18.739  29.597  10.640
26970W        W99230  22.843  28.923  10.638
26971W        W99231  26.129  31.448   4.693
26972W        W99232  41.233   4.337  10.850
26973W        W99233   2.299  14.094   1.330
26974W        W99234  23.998  18.821   2.630
26975W        W99235   4.238  19.207  14.851
26976W        W99236  44.880  32.999   3.610
26977W        W99237   9.363  41.090   1.065
26978W        W99238  24.976  23.023   2.907
26979W        W99239  29.668  17.787  13.538
26980W        W99240  27.597   3.623  14.881
26981W        W99241  18.646  38.040  14.372
26982W        W99242   8.314  42.910  12.382
26983W        W99243  34.566  21.578   3.071
26984W        W99244  36.033  14.315   1.329
26985W        W99245  28.614  35.935   1.712
26986W        W99246  41.896  22.638   2.861
26987W        W99247  37.801   8.686  12.092
26988W        W99248   1.788  38.429   3.119
26989W        W99249  38.415  18.243   3.454
26990W        W99250   2.170  44.479  11.923
26991W        W99251  43.905   3.450   2.108
26992W        W99252  10.752   5.396  13.910
26993W        W99253  44.018  18.253   0.790
26994W        W99254  37.675  13.237   3.205
26995W        W99255  39.552  31.111   4.502
26996W        W99256  21.509  30.901   2.689
26997W        W99257  18.031  14.998   0.459
26998W        W99258  24.653   4.403   0.987
26999W        W99259   6.665  23.122   1.724
27000W        W99260  29.147   4.683  11.091
27001W        W99261   6.917  24.600   3.077
27002W        W99262   7.032  23.771   0.025
27003W        W99263  31.557  12.953  12.464
27004W        W99264  29.201  25.824   4.121
27005W        W99265  25.636  35.155  11.948
27006W        W99266   4.864  22.557  10.061
27007W        W99267  34.627  10.143  14.171
27008W        W99268  29.179  33.373   2.228
27009W        W99269  38.022  32.407   2.401
27010W        W99270   4.595  44.932   2.767
27011W        W99271  37.877  15.818  12.501
27012W        W99272   2.271  42.052  10.680
27013W        W99273  37.990  15.434  14.053
27014W        W99274  10.720   3.092  13.514
27015W        W99275  22.604  25.037  10.621
27016W        W99276  13.124  18.697   4.461
27017W        W99277  18.686   2.098  13.514
27018W        W99278  37.956   4.640   0.449
27019W        W99279  40.659  37.326  13.355
27020W        W99280  19.291   7.238  12.800
27021W        W99281  33.132  15.351   4.693
27022W        W99282   0.342  21.652   4.278
27023W        W99283  25.022  35.729  14.093
27024W        W99284   2.282  40.636  11.840
27025W        W99285  34.200   2.526   2.028
27026W        W99286  31.471  30.148  10.910
27027W        W99287  43.336   4.311   2.949
27028W        W99288  21.535  17.807  11.671
27029W        W99289   5.423  38.424  14.868
27030W        W99290  19.676  40.244   4.377
27031W        W99291  14.025   4.734   0.816
27032W        W99292   2.598  38.541  11.111
27033W        W99293   8.359  32.358   0.745
27034W        W99294  40.774  28.047  12.707
27035W        W99295  41.565  12.058  12.511
27036W        W99296  26.713   4.873  10.406
27037W        W99297  42.977   9.320  13.071
27038W        W99298  41.970   5.888  14.726
27039W        W99299  38.544  17.241  12.549
27040W        W99300  42.646  20.184   3.315
27041W        W99301  13.111   8.068   3.796
27042W        W99302  30.695  28.024  11.100
27043W        W99303  22.088  29.536   3.750
27044W        W99304  31.147  16.411   1.848
27045W        W99305  11.570  21.059  11.526
27046W        W99306   4.095  18.825   1.045
27047W        W99307  40.462   0.319   4.238
27048W        W99308  30.617   5.920  11.166
27049W        W99309  34.538   0.459  10.738
27050W        W99310  17.533  28.682   2.398
27051W        W99311  38.082  38.225   3.323
27052W        W99312  13.111  42.949  13.560
27053W        W99313  41.732  32.744  14.329
27054W        W99314  25.004  24.268   2.365
27055W        W99315   8.617  10.204   1.774
27056W        W99316   7.211   7.255   4.696
27057W        W99317  37.060  24.243   2.709
27058W        W99318   0.798  20.572  10.305
27059W        W99319  42.049  12.140  12.329
27060W        W99320  41.904  29.781  14.649
27061W        W99321  22.993  23.114  13.943
27062W        W99322  32.572  11.793   1.261
27063W        W99323   5.957  22.806   0.413
27064W        W99324   3.916   8.772  11.987
27065W        W99325  26.621   0.332   2.907
27066W        W99326  11.859  31.212  11.524
27067W        W99327  38.728  44.488  11.874
27068W        W99328  24.565  35.092   1.813
27069W        W99329  17.286  25.680   3.109
27070W        W99330  17.532  33.849   4.001
27071W        W99331  19.723  26.024   1.414
27072W        W99332  33.137  33.915  12.150
27073W        W99333  39.356   5.989   3.354
27074W        W99334   9.362  30.958   3.356
27075W        W99335   9.791  24.852  12.703
27076W        W99336  12.255  27.989   3.709
27077W        W99337   3.140  37.902   4.682
27078W        W99338  15.803  34.484  10.182
27079W        W99339  35.842  38.106  12.447
27080W        W99340  19.077   7.614   4.249
27081W        W99341  16.115  42.504   2.824
27082W        W99342   7.377  37.541   2.216
27083W        W99343  11.830   4.704  14.840
27084W        W99344   6.936  26.583  13.533
27085W        W99345  24.622  31.930  11.964
27086W        W99346  12.427  33.558   1.061
27087W        W99347   9.694  38.475  12.165
27088W        W99348  25.031  34.998  10.747
27089W        W99349  22.775  25.507  12.418
27090W        W99350   4.098  44.852  10.872
27091W        W99351   7.748  17.504   4.878
27092W        W99352  41.893   5.609  11.096
27093W        W99353  32.641   8.779   1.029
27094W        W99354  34.083  32.928  13.814
27095W        W99355  15.240   7.354  13.259
27096W        W99356   5.866  30.081   4.433
27097W        W99357  42.431   5.397  14.334
27098W        W99358  16.505  13.865   2.471
27099W        W99359  40.575  13.365  14.423
27100W        W99360  13.748   9.324  11.615
27101W        W99361  39.764  20.013   4.409
27102W        W99362  32.036  39.039   9.811
27103W        W99363  28.700  41.185   4.931
27104W        W99364  19.305  15.666   3.700
27105W        W99365   9.184   1.923   3.340
27106W        W99366  44.328  10.731   3.892
27107W        W99367  35.536  43.543  12.377
27108W        W99368   6.899   5.997  11.954
27109W        W99369  10.136  32.547  10.724
27110W        W99370  15.286  10.465  14.467
27111W        W99371  38.840  37.588  12.570
27112W        W99372  23.290  17.292   1.809
27113W        W99373  27.312  12.848   2.359
27114W        W99374  20.626   9.157   2.635
27115W        W99375  32.052  13.698  14.497
27116W        W99376  44.475   5.169   0.198
27117W        W99377  27.701   7.234  13.969
27118W        W99378   7.974  29.595  13.000
27119W        W99379   0.476  18.266   1.462
27120W        W99380  11.862  36.460   4.649
27121W        W99381   8.211  34.593   4.649
27122W        W99382  10.475  30.361   2.928
27123W        W99383  38.053  40.364  14.605
27124W        W99384  39.511  33.568  13.500
27125W        W99385  41.494  22.762   0.019
27126W        W99386  17.634  36.114   1.815
27127W        W99387  41.701  13.729  11.767
27128W        W99388   0.930  22.105   1.030
27129W        W99389  22.215  25.425   2.724
27130W        W99390  26.596  36.926  13.104
27131W        W99391  26.734   5.775  10.208
27132W        W99392   6.724  20.040   1.791
27133W        W99393  32.801  18.694  13.231
27134W        W99394  30.848   1.179  13.833
27135W        W99395  29.059  13.256   4.417
27136W        W99396  21.941  12.718  10.683
27137W        W99397  30.552  34.167  14.509
27138W        W99398   1.795  34.776   2.309
27139W        W99399  22.638  21.701   3.553
27140W        W99400  39.538  37.170  12.449
27141W        W99401   0.169  42.974   3.673
27142W        W99402  26.554   3.340  14.956
27143W        W99403  30.022   0.444  13.917
27144W        W99404   4.328  39.742  12.902
27145W        W99405  11.331  44.342   1.770
27146W        W99406  32.137  36.356   2.760
27147W        W99407   2.912  18.834  11.609
27148W        W99408   7.999   4.362   4.088
27149W        W99409  36.411   8.187  12.420
27150W        W99410  42.372  20.164  14.235
27151W        W99411  39.739  20.251  14.528
27152W        W99412  24.294  16.141  13.393
27153W        W99413   5.332  38.470  13.500
27154W        W99414   6.268  42.605  14.245
27155W        W99415  38.049  23.268   3.281
27156W        W99416  17.806  17.830  10.733
27157W        W99417  25.048   5.659  13.945
27158W        W99418  20.048  32.118   0.743
27159W        W99419  28.678  31.350   0.124
27160W        W99420  35.900   0.698   0.004
27161W        W99421   4.224   4.819   0.343
27162W        W99422  20.257  32.946   4.052
27163W        W99423  16.795  44.095   3.155
27164W        W99424  40.832  32.057   1.487
27165W        W99425  11.913  16.275   3.133
27166W        W99426  44.505   6.578   0.232
27167W        W99427  38.277  10.618   3.205
27168W        W99428   3.296  29.101   2.420
27169W        W99429  33.568   4.686   4.675
27170W        W99430   0.249  13.142   0.978
27171W        W99431  11.128  21.613   2.848
27172W        W99432  34.055  29.551   1.557
27173W        W99433  37.636  16.378  10.652
27174W        W99434  23.113  16.239  10.604
27175W        W99435  37.924  33.033  10.646
27176W        W99436  17.251  15.060  12.794
27177W        W99437  35.965  23.422   0.835
27178W        W99438   8.863   4.757  13.568
27179W        W99439   1.807  35.295   4.736
27180W        W99440   9.292  24.223  11.506
27181W        W99441  35.953  10.637  14.267
27182W        W99442  33.879   1.795   1.704
27183W        W99443   9.892  27.716   1.292
27184W        W99444  17.278  15.615   4.996
27185W        W99445   9.741  22.912  10.449
27186W        W99446  10.475  29.249  13.042
27187W        W99447  34.121  24.588  10.477
27188W        W99448  26.607   7.711  13.112
27189W        W99449  40.308   3.631  10.390
27190W        W99450  43.322  34.550  14.347
27191W        W99451   8.097   5.211   4.526
27192W        W99452   0.358  26.697  13.674
27193W        W99453  33.061  40.022   0.869
27194W        W99454   7.299  15.599   3.640
27195W        W99455  41.903  38.548  11.710
27196W        W99456  23.060   7.828  11.051
27197W        W99457  41.528   9.706   4.566
27198W        W99458  39.445  42.536   3.367
27199W        W99459  24.914   1.022  13.261
27200W        W99460  13.260   7.552   2.626
27201W        W99461   9.095  14.668  10.426
27202W        W99462   5.782  33.192   4.938
27203W        W99463  29.757  27.209  12.461
27204W        W99464   9.794  31.976   1.878
27205W        W99465  43.526  19.102  14.932
27206W        W99466   4.323  27.235  13.776
27207W        W99467  33.249   6.443   2.369
27208W        W99468  14.697  43.237   2.651
27209W        W99469   5.391  27.881   2.534
27210W        W99470  32.535   1.892   4.690
27211W        W99471  20.335  16.533  13.047
27212W        W99472   8.171  22.465   2.899
27213W        W99473  40.609  37.561   0.275
27214W        W99474  42.362  37.805   0.669
27215W        W99475  19.504  21.558  12.707
27216W        W99476   8.599  22.390   0.444
27217W        W99477  38.966  32.456  13.525
27218W        W99478  29.906  14.160   1.795
27219W        W99479  26.731  24.630   3.435
27220W        W99480  37.254  27.197  13.533
27221W        W99481   2.623  12.256   3.181
27222W        W99482  31.563  40.035   1.170
27223W        W99483  44.026  10.805  11.649
27224W        W99484  35.336   0.260   2.172
27225W        W99485  21.556  16.698  14.046
27226W        W99486  44.004  38.106  12.966
27227W        W99487  14.361  25.495   0.920
27228W        W99488  30.421  13.915   4.533
27229W        W99489  36.484  32.887  12.895
27230W        W99490  38.885  23.750  13.925
27231W        W99491  22.200  31.222  14.956
27232W        W99492  15.602  21.718  12.528
27233W        W99493   8.698   1.241  10.830
27234W        W99494  32.236  18.557   3.098
27235W        W99495  44.252  35.491  10.692
27236W        W99496   9.818  11.230   2.841
27237W        W99497  44.208  16.214  11.556
27238W        W99498  22.843   0.904   4.134
27239W        W99499  22.552  18.532  13.179
27240W        W99500  43.811   4.334   1.870
27241W        W99501  31.311  15.244  12.539
27242W        W99502  27.065  29.569  13.012
27243W        W99503  34.622  17.801  10.019
27244W        W99504   6.475  35.276   0.831
27245W        W99505  15.565  14.417   2.266
27246W        W99506   4.979  19.014   0.512
27247W        W99507  25.884  25.245  11.285
27248W        W99508  41.018  33.619   3.262
27249W        W99509  29.886  35.146   1.650
27250W        W99510  10.250  18.442   4.863
27251W        W99511  39.850   5.350  13.864
27252W        W99512  34.572   7.362  13.604
27253W        W99513  41.779  33.387  14.339
27254W        W99514  33.886  40.223  12.877
27255W        W99515  29.219  40.047  12.027
27256W        W99516   5.132  25.555  14.522
27257W        W99517   8.902  42.287  11.077
27258W        W99518   2.058  35.676  11.045
27259W        W99519  13.859   3.974   1.046
27260W        W99520  33.506  14.420  12.449
27261W        W99521  18.881  40.304  10.709
27262W        W99522  25.477  27.520  12.190
27263W        W99523  31.941  27.960  14.936
27264W        W99524   8.084  13.667   0.751
27265W        W99525   5.271  21.158  14.455
27266W        W99526  40.973   6.594  12.455
27267W        W99527  24.113   7.878  13.825
27268W        W99528  16.683  38.410   3.092
27269W        W99529  16.318  39.518  14.822
27270W        W99530  38.291  26.662   4.510
27271W        W99531  24.568   6.679   4.518
27272W        W99532  14.308  12.488  12.014
27273W        W99533   8.889  34.460   1.430
27274W        W99534   4.340   8.902  13.036
27275W        W99535   2.457  38.835  14.844
27276W        W99536  14.312  10.801  11.063
27277W        W99537   2.607  40.505   1.360
27278W        W99538  40.555  28.060   0.796
27279W        W99539   3.800   3.928  14.959
27280W        W99540  40.323  24.764  14.997
27281W        W99541  16.535  43.354   0.273
27282W        W99542  34.787  35.283   0.957
27283W        W99543  44.970  18.849  11.248
27284W        W99544   1.782   0.132   2.530
27285W        W99545   9.919  27.432  14.897
27286W        W99546  13.158  39.936  11.703
27287W        W99547  43.237  16.215  14.966
27288W        W99548  21.378  14.831  10.652
27289W        W99549  38.201  15.566   1.241
27290W        W99550   7.160   1.634  13.386
27291W        W99551   2.342  18.897   3.348
27292W        W99552   7.319  18.336  13.837
27293W        W99553   0.965   0.944   4.542
27294W        W99554  17.969   6.274  14.786
27295W        W99555  28.497  30.131   4.949
27296W        W99556  30.658  15.862  10.222
27297W        W99557  38.980  42.748   2.875
27298W        W99558   8.731  33.640  12.500
27299W        W99559  33.004  43.992   1.381
27300W        W99560  29.635   7.058   4.114
27301W        W99561  27.582   9.359   3.344
27302W        W99562  34.803  15.743  14.881
27303W        W99563  35.007   4.817   1.913
27304W        W99564  38.612  43.555   1.186
27305W        W99565   5.143   8.067  13.062
27306W        W99566  17.139   5.182   1.773
27307W        W99567   6.686  31.619  12.033
27308W        W99568   6.825  24.000  11.241
27309W        W99569   5.056   7.795   3.026
27310W        W99570  41.234  18.488   0.009
27311W        W99571  27.044  18.272  14.442
27312W        W99572  25.605   3.387  11.093
27313W        W99573  23.499   3.427   1.658
27314W        W99574   1.889  19.546  14.746
27315W        W99575  23.822  11.735   2.222
27316W        W99576   8.257  27.686   3.667
27317W        W99577  27.041  22.053   1.198
27318W        W99578   6.420   9.352  11.658
27319W        W99579   9.139  20.656  10.673
27320W        W99580  15.852   7.991   3.718
27321W        W99581   1.469   6.199   2.785
27322W        W99582  19.727   7.631   0.260
27323W        W99583  22.646  33.111  11.152
27324W        W99584  17.798  38.384   1.897
27325W        W99585  22.003  16.257  12.475
27326W        W99586  43.038  26.160   1.604
27327W        W99587   8.710  33.420  13.385
27328W        W99588  38.416  19.495   3.753
27329W        W99589   0.540  18.636   2.219
27330W        W99590  19.503  36.707  11.909
27331W        W99591   3.563  13.764   1.502
27332W        W99592  15.163  33.792  13.568
27333W        W99593  14.260  14.005  14.037
27334W        W99594  34.066  31.156  14.144
27335W        W99595  30.334  40.847   1.328
27336W        W99596  17.206  44.960  10.787
27337W        W99597  36.347  12.391  11.112
27338W        W99598   1.472  17.619   1.844
27339W        W99599  44.565  29.010   1.878
27340W        W99600  41.498   3.766  11.171
27341W        W99601  18.101  26.597  14.078
27342W        W99602  41.302   1.348  12.046
27343W        W99603  34.971  28.144  14.797
27344W        W99604   6.236  39.843   0.005
27345W        W99605  44.418  26.500   5.029
27346W        W99606  38.513  26.453  11.704
27347W        W99607  42.558  38.538  13.351
27348W        W99608  14.291  10.699   0.789
27349W        W99609  41.350  35.685  10.635
27350W        W99610   4.775  23.423  13.022
27351W        W99611   7.183  20.177   4.720
27352W        W99612  31.494  39.915  10.725
27353W        W99613  41.262  25.459   0.855
27354W        W99614   7.679  35.423   4.233
27355W        W99615  25.258   6.916   4.127
27356W        W99616  37.018  39.575  10.654
27357W        W99617  14.833   9.865   2.968
27358W        W99618  23.088  24.101  13.112
27359W        W99619  25.172  42.323  11.217
27360W        W99620  38.589  35.135   4.594
27361W        W99621  37.136  19.504   4.102
27362W        W99622  35.886   6.709   4.494
27363W        W99623   6.095  28.871   3.769
27364W        W99624  15.652   1.272  14.317
27365W        W99625  32.377  34.160  12.601
27366W        W99626  32.261   3.679   0.789
27367W        W99627   6.008   1.234  12.059
27368W        W99628  32.046  13.793  13.987
27369W        W99629  22.319  18.778  11.757
27370W        W99630  26.187  28.628  12.998
27371W        W99631  19.648  18.633   2.132
27372W        W99632  25.695  40.570  13.288
27373W        W99633  23.166   5.966   4.630
27374W        W99634  43.322   6.833  14.106
27375W        W99635  43.000  37.364   0.462
27376W        W99636  37.949  11.407  11.111
27377W        W99637  40.865  39.093  10.454
27378W        W99638  10.641  21.632  13.119
27379W        W99639   7.374   4.223  10.700
27380W        W99640   9.349  25.094  13.358
27381W        W99641  24.682   2.309  12.094
27382W        W99642   9.129  13.394   4.155
27383W        W99643  23.095  11.172   2.267
27384W        W99644   6.356  12.693  13.385
27385W        W99645  16.597  21.140  13.751
27386W        W99646  32.102  16.314   2.208
27387W        W99647  21.651  44.060   2.415
27388W        W99648  26.700  34.680   4.593
27389W        W99649  40.538  11.115   3.711
27390W        W99650  15.953  25.647  11.170
27391W        W99651   4.302  16.707   0.013
27392W        W99652  28.550  29.766   2.201
27393W        W99653  34.586   5.189   1.877
27394W        W99654  40.357  12.340   1.430
27395W        W99655   4.070  22.291  10.532
27396W        W99656  20.093  37.672   4.129
27397W        W99657  19.579  30.129   4.674
27398W        W99658  44.682  12.268   0.209
27399W        W99659   9.802  23.478   4.188
27400W        W99660  30.972  38.623  13.451
27401W        W99661  37.826   9.327   0.508
27402W        W99662   5.269  28.092   1.799
27403W        W99663  27.734   5.334   1.374
27404W        W99664   3.099  43.763  14.443
27405W        W99665   5.887  34.996   0.473
27406W        W99666  28.621  30.014   2.644
27407W        W99667  39.960  27.050   4.426
27408W        W99668  22.797  39.699  11.100
27409W        W99669  30.524  19.010  10.627
27410W        W99670  29.436  32.049   2.906
27411W        W99671  19.633  24.120  12.493
27412W        W99672  31.719  15.218  10.489
27413W        W99673  23.430   1.024   3.770
27414W        W99674  34.406  31.636  13.088
27415W        W99675  29.100  11.829  11.524
27416W        W99676  42.204  11.622  13.618
27417W        W99677  17.646  26.651   3.183
27418W        W99678  30.103  39.301   4.659
27419W        W99679   7.378  23.524  12.423
27420W        W99680  36.105  24.581  13.017
27421W        W99681  42.480   9.533   1.217
27422W        W99682  40.687  29.237   0.905
27423W        W99683  13.603   8.706  14.378
27424W        W99684  35.045   2.517  12.526
27425W        W99685  11.779  27.563   3.480
27426W        W99686  12.311  36.325   4.896
27427W        W99687   4.171   1.271   1.349
27428W        W99688   1.794  34.644  12.834
27429W        W99689  38.680  11.980   3.422
27430W        W99690  32.320   3.556   3.292
27431W        W99691  19.628  14.866  11.152
27432W        W99692  25.588  16.882  12.939
27433W        W99693  18.921  39.236  13.397
27434W        W99694   9.758  25.276   1.882
27435W        W99695   5.806  36.019  10.950
27436W        W99696  14.382  20.086   0.747
27437W        W99697  12.252  28.185  11.033
27438W        W99698  29.044  14.131   0.696
27439W        W99699  35.782  17.287  14.798
27440W        W99700  32.871  40.386  14.733
27441W        W99701  31.221  38.332  11.253
27442W        W99702  24.241  23.105   0.691
27443W        W99703  42.856  38.145  13.563
27444W        W99704  21.460  26.097   5.019
27445W        W99705  22.662  36.514  12.768
27446W        W99706  21.754  12.820  14.390
27447W        W99707  22.107  20.114  12.426
27448W        W99708  21.986  12.837   4.350
27449W        W99709   9.061  18.333   4.491
27450W        W99710  43.955  11.935  12.625
27451W        W99711  15.331  29.571  13.087
27452W        W99712  12.426  27.766   0.873
27453W        W99713  14.948  19.571  12.499
27454W        W99714  22.330  21.213   3.493
27455W        W99715   8.203   1.463   4.124
27456W        W99716  24.058  20.005  11.073
27457W        W99717  16.325  29.567  13.804
27458W        W99718  22.141  22.649  10.570
27459W        W99719   8.392  34.259   1.965
27460W        W99720  43.546  21.493  13.462
27461W        W99721   8.042  18.931  14.676
27462W        W99722   5.965   0.556  12.565
27463W        W99723  21.009  35.487   2.664
27464W        W99724   4.168  32.288   4.329
27465W        W99725   5.442  20.952  12.867
27466W        W99726  33.594   3.852   3.151
27467W        W99727   1.975  41.994  14.089
27468W        W99728   4.754   3.263   3.089
27469W        W99729   3.459  31.121  11.611
27470W        W99730   6.668  14.568  11.543
27471W        W99731  21.978  36.477  14.485
27472W        W99732   9.308  29.003   4.532
27473W        W99733  15.399  38.523  12.169
27474W        W99734  22.279  11.940  13.407
27475W        W99735  10.910  27.908  11.512
27476W        W99736  25.509  27.035  11.218
27477W        W99737  23.451  42.088  13.543
27478W        W99738   6.310   0.061  13.487
27479W        W99739  25.445  15.631  14.321
27480W        W99740   9.364   2.234   4.797
27481W        W99741  23.643  15.644  11.944
27482W        W99742  32.834  10.730   3.744
27483W        W99743  14.065  36.481  14.916
27484W        W99744  17.766   5.189  13.143
27485W        W99745  32.428  39.030   1.813
27486W        W99746  39.304  29.537  11.680
27487W        W99747   2.660  10.332   4.621
27488W        W99748  26.028  34.955  10.487
27489W        W99749   0.274  24.199  10.982
27490W        W99750   8.933  28.173   2.635
27491W        W99751  35.204  39.816   2.723
27492W        W99752  18.929  37.989  12.478
27493W        W99753  26.433   2.389  14.046
27494W        W99754  39.250  13.521   1.759
27495W        W99755  10.500  14.633  11.957
27496W        W99756  10.042  10.051   3.820
27497W        W99757  37.516  25.198  14.424
27498W        W99758  21.706  42.630  13.084
27499W        W99759  40.766  32.483   1.817
27500W        W99760  22.239  38.491  13.159
27501W        W99761   9.426  42.852   3.180
27502W        W99762   3.912  25.562  13.388
27503W        W99763  43.887  18.711  12.953
27504W        W99764  37.207  16.873   2.721
27505W        W99765  17.702  36.982  12.636
27506W        W99766  40.588  33.390  11.266
27507W        W99767   0.648  39.479   4.787
27508W        W99768   5.010   8.001  10.385
27509W        W99769  20.726  32.771   3.926
27510W        W99770   8.864  43.861  12.560
27511W        W99771  32.108   0.463   0.350
27512W        W99772   4.707   1.206  10.573
27513W        W99773  38.658  21.082  12.673
27514W        W99774   5.241  44.352   3.272
27515W        W99775  23.485  36.507   2.954
27516W        W99776  38.843  40.268  12.014
27517W        W99777  19.581  22.591   0.923
27518W        W99778   3.227  41.951   0.919
27519W        W99779  41.008   5.934  13.455
27520W        W99780  42.596  13.059  13.262
27521W        W99781  39.802  23.047  10.721
27522W        W99782   6.536  34.634  12.918
27523W        W99783  40.452  43.482  14.221
27524W        W99784  29.283   8.674   5.059
27525W        W99785  17.729  27.074   0.778
27526W        W99786   3.983  41.964  13.782
27527W        W99787  31.477   8.121   0.711
27528W        W99788  40.103  17.577  14.451
27529W        W99789   2.945  35.623   1.863
27530W        W99790  32.429  22.237  12.343
27531W        W99791  26.500  41.389   1.864
27532W        W99792  16.595  25.044   3.248
27533W        W99793  40.798  30.458  10.260
27534W        W99794  32.278  44.142   0.160
27535W        W99795  41.227  21.065   4.591
27536W        W99796  13.108  21.783   4.231
27537W        W99797  30.388  34.978  12.378
27538W        W99798  39.392  31.723   3.730
27539W        W99799  43.675   5.667   2.584
27540W        W99800  24.166  41.360  11.580
27541W        W99801  15.531  29.045  12.750
27542W        W99802  42.940   0.098  13.228
27543W        W99803  25.212  24.401   3.640
27544W        W99804   8.303   2.856   1.246
27545W        W99805  26.154  11.917   0.367
27546W        W99806  43.781  41.513  14.913
27547W        W99807  29.498   1.897  11.639
27548W        W99808   9.126  12.220  13.761
27549W        W99809  22.417  19.687  14.104
27550W        W99810  36.105  30.029  13.450
27551W        W99811  26.639   2.006  12.362
27552W        W99812  35.490   2.898   0.384
27553W        W99813  28.354  26.154  12.999
27554W        W99814  10.235  21.101  13.305
27555W        W99815  37.408  36.348   4.670
27556W        W99816  35.484   5.206   0.038
27557W        W99817   1.692  19.394  10.678
27558W        W99818   1.728  43.727  10.619
27559W        W99819  40.580   7.348   2.048
27560W        W99820  20.694  33.238   0.299
27561W        W99821  32.868   5.477   3.342
27562W        W99822   5.009  38.396   0.170
27563W        W99823   0.753  17.192  14.918
27564W        W99824  17.545  30.512   4.592
27565W        W99825  37.840  24.647   4.585
27566W        W99826  23.106   6.764   3.668
27567W        W99827   7.805  42.099   2.661
27568W        W99828   1.758  10.588   0.221
27569W        W99829   5.307  30.855   2.707
27570W        W99830  36.323  15.148   2.215
27571W        W99831  37.119  21.053   2.746
27572W        W99832  31.898  19.069   2.498
27573W        W99833  31.370  17.072  10.791
27574W        W99834  31.177   1.900   4.007
27575W        W99835  24.164   1.677  10.541
27576W        W99836   7.120  30.902   1.759
27577W        W99837   7.975  27.508  13.324
27578W        W99838   8.724  30.646   0.776
27579W        W99839  10.110  16.690  12.286
27580W        W99840   0.408  17.542   3.625
27581W        W99841  21.770   9.089   4.713
27582W        W99842  41.217  32.143  14.768
27583W        W99843  42.200   8.194   1.014
27584W        W99844   6.534  33.770   4.159
27585W        W99845   5.924  26.022  14.469
27586W        W99846  31.002  34.711  12.933
27587W        W99847  26.809  10.736  10.526
27588W        W99848   0.220  29.648  10.644
27589W        W99849  23.582  23.099   3.232
27590W        W99850  37.793  12.412  11.156
27591W        W99851  25.557  34.107  14.350
27592W        W99852  27.423  30.705   1.900
27593W        W99853  26.586  25.920   4.855
27594W        W99854   7.652  33.632  12.454
27595W        W99855  19.468  23.983   2.756
27596W        W99856  27.459  27.404  14.823
27597W        W99857  29.622  16.654  10.317
27598W        W99858  17.580  26.290  10.465
27599W        W99859   4.213   2.790   3.717
27600W        W99860   0.572  17.184  11.618
27601W        W99861  23.544  14.877   3.286
27602W        W99862  22.104  19.375  11.176
27603W        W99863  14.213   4.350   1.118
27604W        W99864  31.989  42.119  12.978
27605W        W99865  24.516  16.252  12.395
27606W        W99866  21.074   4.199   1.729
27607W        W99867  43.218  40.212  10.597
27608W        W99868  30.870   8.838  11.647
27609W        W99869  29.634  38.766   9.868
27610W        W99870  35.630  36.590  11.725
27611W        W99871   9.300  35.768   3.229
27612W        W99872  32.145   6.716  14.424
27613W        W99873  12.187  15.425   1.461
27614W        W99874  12.747  11.402  14.227
27615W        W99875  40.520  24.044  10.640
27616W        W99876   9.922  13.111   3.562
27617W        W99877  37.857   5.239   3.207
27618W        W99878  36.971  33.346  14.520
27619W        W99879  41.684   0.515   1.274
27620W        W99880   9.445  39.825  14.452
27621W        W99881  10.553  26.255  11.114
27622W        W99882   3.662  19.771   4.055
27623W        W99883  22.723  18.796   3.698
27624W        W99884   9.152  39.378  14.345
27625W        W99885   3.690   7.951   5.019
27626W        W99886  42.309   2.719   2.436
27627W        W99887  36.214  31.424   0.736
27628W        W99888  37.523  41.447   3.927
27629W        W99889   5.444  34.139  12.038
27630W        W99890  39.906  31.945  14.430
27631W        W99891  20.175  14.155  13.441
27632W        W99892   8.784  14.690   2.237
27633W        W99893  28.459  18.195   2.188
27634W        W99894  15.143  23.976  14.223
27635W        W99895  32.611  23.307  12.667
27636W        W99896  13.289  38.786   4.207
27637W        W99897  44.003  32.102   3.435
27638W        W99898   4.286  43.296  13.728
27639W        W99899   3.264   3.807  11.567
27640W        W99900   6.134   7.746  12.482
27641W        W99901   4.980  11.010   0.818
27642W        W99902  39.934  12.888  12.053
27643W        W99903  43.482   2.096  12.870
27644W        W99904  14.410  18.701  14.379
27645W        W99905  43.354   3.788  10.928
27646W        W99906  21.308   2.044  10.702
27647W        W99907  20.405   9.576  14.470
27648W        W99908  30.998   5.601   0.347
27649W        W99909  26.419  31.118  12.908
27650W        W99910   6.974  33.219  13.848
27651W        W99911  35.385   6.735  10.950
27652W        W99912  13.391  18.187   4.297
27653W        W99913   9.678  32.337  12.082
27654W        W99914  38.990  24.056  11.604
27655W        W99915  23.136  33.609   4.724
27656W        W99916  44.012  11.003   4.464
27657W        W99917  20.561   0.710  14.552
27658W        W99918  25.930  20.707   3.152
27659W        W99919   6.346   8.599   3.676
27660W        W99920  36.941   6.340  13.842
27661W        W99921  16.190  21.752   3.144
27662W        W99922  16.313  36.092  13.206
27663W        W99923  32.969   9.272  11.591
27664W        W99924  11.982  36.852   1.810
27665W        W99925  17.602  12.419  11.051
27666W        W99926  42.886  25.500   2.767
27667W        W99927  13.874  11.192   1.393
27668W        W99928  29.177  39.349  13.170
27669W        W99929  42.150   0.411  12.527
27670W        W99930  39.117  21.210  12.476
27671W        W99931  12.735  22.961   4.692
27672W        W99932  24.996   3.904  13.532
27673W        W99933  11.326  13.258  14.886
27674W        W99934   3.357  34.816   3.232
27675W        W99935   4.106   8.188  14.109
27676W        W99936   9.335  25.034  11.955
27677W        W99937  10.052  29.598  12.302
27678W        W99938  10.905   0.444   1.425
27679W        W99939   0.305  40.633   1.627
27680W        W99940   2.228   4.842   3.314
27681W        W99941  29.241  38.057   4.022
27682W        W99942  41.343   9.094   3.704
27683W        W99943  15.720  20.371   4.577
27684W        W99944  10.294  37.481  10.500
27685W        W99945  24.192  38.952  12.524
27686W        W99946  28.162  29.607   2.757
27687W        W99947  36.359  25.837   1.406
27688W        W99948  20.079  19.114   4.060
27689W        W99949  19.313   4.456  12.388
27690W        W99950   9.754  33.338   2.297
27691W        W99951   8.271  12.163   1.774
27692W        W99952  37.132  18.048   1.334
27693W        W99953  33.647  35.761  11.636
27694W        W99954  30.938  18.990   1.520
27695W        W99955  22.411   1.340   0.307
27696W        W99956  22.116  10.379  14.002
27697W        W99957  36.189  29.654   2.352
27698W        W99958  12.086  20.782   4.118
27699W        W99959   1.622  15.921  14.907
27700W        W99960  10.664  26.778  13.966
27701W        W99961  34.518  38.540   4.313
27702W        W99962   3.899  39.402  11.408
27703W        W99963  30.397   9.342   3.811
27704W        W99964  24.083  29.443  13.290
27705W        W99965  38.464  26.819   0.898
27706W        W99966  19.612  21.667   2.528
27707W        W99967  25.716  37.448   3.743
27708W        W99968  31.624  11.171   0.719
27709W        W99969  33.611  20.731  14.159
27710W        W99970   8.673  36.132   0.083
27711W        W99971  13.219  34.922  14.705
27712W        W99972   5.464   6.489   4.396
27713W        W99973   5.386   2.679  12.882
27714W        W99974  22.173  17.188  10.578
27715W        W99975   8.277  23.570   0.250
27716W        W99976  16.582  39.321   0.522
27717W        W99977   1.455  22.527   3.123
27718W        W99978   8.752  33.431   4.400
27719W        W99979  12.760  43.336  14.861
27720W        W99980   1.302  15.099   4.252
27721W        W99981  16.749  21.439  12.048
27722W        W99982  38.615  11.783   2.364
27723W        W99983  41.116  15.719  13.896
27724W        W99984  39.657  15.648  14.825
27725W        W99985  12.411  19.056   3.866
27726W        W99986   7.114  21.163  10.568
27727W        W99987  34.973  10.115   0.354
27728W        W99988   5.354   2.293  14.006
27729W        W99989  26.111  24.221   4.518
27730W        W99990  26.120   3.711  13.327
27731W        W99991  26.419  39.846  11.547
27732W        W99992  17.726  28.410  10.728
27733W        W99993  42.090  36.561   2.739
27734W        W99994  34.449  27.364   0.187
27735W        W99995  37.390  44.077  13.360
27736W        W99996  37.040  13.697  13.350
27737W        W99997  28.791  14.504  12.526
27738W        W99998  12.654  15.731   3.609
27739W        W99999  41.389  25.933  11.162
27740W        W    0  13.435   8.309  13.521
27741W        W    1   6.930  27.878   3.663
27742W        W    2  41.502  12.623   0.075
27743W        W    3  12.786  21.570   2.592
27744W        W    4  27.245  36.983   1.964
27745W        W    5  27.061  30.906  13.942
27746W        W    6  19.683  36.560  14.074
27747W        W    7  19.789   6.724   1.718
27748W        W    8  41.080  30.940   4.411
27749W        W    9   0.049  39.449   2.707
27750W        W   10  26.689   2.868  14.329
27751W        W   11   3.276   9.073   2.244
27752W        W   12  22.739  29.034   1.904
27753W        W   13  11.747   2.538   2.309
27754W        W   14  27.520  25.722  13.735
27755W        W   15  44.771  16.746  12.975
27756W        W   16   4.501   4.414   3.178
27757W        W   17  44.182  31.118   4.496
27758W        W   18  11.209  40.834  13.909
27759W        W   19   2.761  40.339   1.848
27760W        W   20  27.969  37.283  13.956
27761W        W   21   8.204  37.071   3.690
27762W        W   22  31.769  42.727   3.715
27763W        W   23   5.653  33.963   0.942
27764W        W   24  33.573   0.889  10.513
27765W        W   25   2.772  10.234  11.638
27766W        W   26  33.645  40.929  11.911
27767W        W   27  29.531   6.836   1.339
27768W        W   28  35.375   9.893   2.210
27769W        W   29  27.986   2.484  12.849
27770W        W   30  21.653  16.112  10.898
27771W        W   31  28.685  33.391   2.361
27772W        W   32  25.254  18.456  14.954
27773W        W   33  25.736  25.709  11.089
27774W        W   34  29.899  35.914   4.184
27775W        W   35  13.547  17.807   4.622
27776W        W   36   1.751   3.011  14.405
27777W        W   37  19.239  25.992  12.115
27778W        W   38  39.680   2.465   4.282
27779W        W   39   6.384  16.360   1.630
27780W        W   40  41.590  32.341  13.526
27781W        W   41   0.681  39.157   2.704
27782W        W   42  43.369  17.084   4.849
27783W        W   43  39.880  17.278   1.866
27784W        W   44  12.865  34.474   3.801
27785W        W   45  36.523  21.800  13.102
27786W        W   46  38.982  27.092   2.841
27787W        W   47   6.524  29.046   9.911
27788W        W   48  37.507  36.048   3.761
27789W        W   49  40.317  18.868  14.010
27790W        W   50  35.956  37.450  12.972
27791W        W   51  42.011  30.844   1.834
27792W        W   52   0.056   3.917  13.040
27793W        W   53  36.042  38.931  12.960
27794W        W   54  36.909  24.354   4.516
27795W        W   55  30.354  20.631  13.387
27796W        W   56  35.167  10.254   3.662
27797W        W   57  10.415  11.372   4.500
27798W        W   58  37.880  33.439  10.296
27799W        W   59  14.569  12.569   3.730
27800W        W   60  35.860   4.667   4.577
27801W        W   61  30.548  31.360   3.582
27802W        W   62   8.468  44.863   3.136
27803W        W   63  35.199   5.656  10.885
27804W        W   64  26.472  24.559   1.793
27805W        W   65  18.684  35.851   4.455
27806W        W   66   3.923   0.817   1.444
27807W        W   67  33.440  30.318   5.299
27808W        W   68  34.376   0.289  12.077
27809W        W   69  11.698   6.409  14.778
27810W        W   70  34.861  28.505  12.526
27811W        W   71   3.884  42.823   5.243
27812W        W   72  38.331  13.641  14.032
27813W        W   73  24.992  18.814   2.692
27814W        W   74  37.262  37.957  11.115
27815W        W   75  30.918  36.429   0.543
27816W        W   76  38.411   4.196  12.333
27817W        W   77   2.330  38.781  11.577
27818W        W   78  37.031   5.177   2.721
27819W        W   79   7.794  39.279  13.025
27820W        W   80  36.857   4.122  10.640
27821W        W   81   4.279  17.676   4.606
27822W        W   82  12.037  29.167   4.999
27823W        W   83   8.412  24.568  12.535
27824W        W   84  19.184  34.074   2.751
27825W        W   85  33.161   6.787  11.896
27826W        W   86  19.085  29.726  11.584
27827W        W   87   1.377  11.003   4.708
27828W        W   88  22.515  10.661   2.074
27829W        W   89  35.051  22.447  11.385
27830W        W   90  14.667  26.664   2.346
27831W        W   91  29.154  15.656   0.330
27832W        W   92  34.608  16.246  12.663
27833W        W   93  44.312  13.471   4.673
27834W        W   94  21.501  35.027   4.743
27835W        W   95  20.626  40.459  13.693
27836W        W   96  29.643  41.484  12.832
27837W        W   97  41.465  20.048   2.958
27838W        W   98  20.567  43.860   4.739
27839W        W   99   2.054  24.667  13.754
27840W        W  100  35.471  21.654  11.621
27841W        W  101   1.318  29.220   2.994
27842W        W  102  10.164  23.734   0.318
27843W        W  103  36.089  11.809   0.273
27844W        W  104  31.742  38.307  12.092
27845W        W  105  37.796  23.653  12.773
27846W        W  106  16.241  41.419  13.961
27847W        W  107  27.973  17.224   0.930
27848W        W  108   9.370  36.796   4.164
27849W        W  109  24.678  30.902  10.532
27850W        W  110  18.999   5.352  13.828
27851W        W  111  21.024  26.718  13.832
27852W        W  112  44.736  38.904   3.805
27853W        W  113   2.785   5.747   3.122
27854W        W  114  30.655  17.769  12.001
27855W        W  115  41.951  30.866   3.860
27856W        W  116  30.115   9.915   0.382
27857W        W  117  35.501  13.377   3.165
27858W        W  118  25.761  35.079  11.047
27859W        W  119  17.570  36.208   5.089
27860W        W  120  44.972  34.214   1.738
27861W        W  121  41.722  15.566   3.849
27862W        W  122  28.084  41.010  10.692
27863W        W  123  10.937  34.471  10.552
27864W        W  124  20.269   9.899   2.383
27865W        W  125  32.179  33.507  11.380
27866W        W  126  28.015   8.402   2.734
27867W        W  127  37.737  11.766   2.762
27868W        W  128  20.178  38.541   2.175
27869W        W  129  28.353  16.497   2.179
27870W        W  130   1.608   5.294  11.972
27871W        W  131  22.901  28.954  14.517
27872W        W  132  22.180   5.337  10.961
27873W        W  133  11.302  23.170  13.126
27874W        W  134  39.312  38.325  14.345
27875W        W  135  33.590  36.945  12.869
27876W        W  136   7.845  44.358   4.575
27877W        W  137  30.015  38.653  13.494
27878W        W  138  29.989  30.927  11.040
27879W        W  139  44.988  26.595  12.797
27880W        W  140   0.306  25.688   0.342
27881W        W  141  31.677  33.932  10.768
27882W        W  142   3.367  20.713   4.503
27883W        W  143   2.633   7.475  11.998
27884W        W  144  31.672  16.344  12.948
27885W        W  145  43.688  33.567   3.712
27886W        W  146   7.123  33.426   0.070
27887W        W  147  20.145  16.005   2.720
27888W        W  148  43.864  28.318   3.067
27889W        W  149   4.791  19.891  14.758
27890W        W  150  12.197  41.034   1.269
27891W        W  151  33.579  23.614  11.100
27892W        W  152  24.027  39.992  12.470
27893W        W  153  40.491  33.704   3.132
27894W        W  154  43.585   6.937  14.530
27895W        W  155  15.163  34.422   4.439
27896W        W  156  14.044  13.585   2.921
27897W        W  157   6.254  35.584  12.113
27898W        W  158  40.222  17.548   0.078
27899W        W  159  33.915  20.029   4.596
27900W        W  160   0.005  25.456   4.017
27901W        W  161   7.762   2.054   1.299
27902W        W  162  12.972   3.764   0.425
27903W        W  163   7.888  37.474   2.107
27904W        W  164  29.616  11.885  13.890
27905W        W  165  33.298  41.895   4.677
27906W        W  166   5.742  34.849  12.418
27907W        W  167  36.870  32.982  10.682
27908W        W  168   3.369  21.204   2.327
27909W        W  169  20.316  17.077  13.052
27910W        W  170  22.137  30.127  11.611
27911W        W  171  19.687  39.791   4.658
27912W        W  172   1.693  17.641  11.209
27913W        W  173  11.231  37.288  10.134
27914W        W  174   9.827  36.454  14.536
27915W        W  175   9.131  21.351   3.292
27916W        W  176  41.390  39.433   2.366
27917W        W  177  18.366  21.610  11.641
27918W        W  178  32.921   0.006   2.204
27919W        W  179   5.987  37.988  12.100
27920W        W  180  32.215  33.156   3.437
27921W        W  181  38.850  18.091   3.195
27922W        W  182  31.110  35.664   1.798
27923W        W  183  16.090  33.705  14.424
27924W        W  184   8.896  14.629  12.888
27925W        W  185  12.387  36.500  11.113
27926W        W  186  26.202  14.272   2.272
27927W        W  187  35.940   1.630  13.756
27928W        W  188   4.802  40.701   4.183
27929W        W  189   4.140   6.070   3.460
27930W        W  190  20.527   5.741   4.763
27931W        W  191  21.197   3.238   3.300
27932W        W  192  24.663  12.795  13.584
27933W        W  193  27.484  43.730   1.986
27934W        W  194   3.294   4.242  13.395
27935W        W  195  44.866  42.254   4.703
27936W        W  196  35.553   9.706   1.760
27937W        W  197  39.533  38.622   0.040
27938W        W  198  19.163  30.961   3.627
27939W        W  199   3.681   8.516   0.349
27940W        W  200  20.433   9.180   1.785
27941W        W  201  35.313   7.197  10.732
27942W        W  202  33.528  16.745  10.044
27943W        W  203  39.732   3.736  14.803
27944W        W  204   7.824  12.604   2.294
27945W        W  205  10.394   6.163   4.543
27946W        W  206  34.815  11.858  14.246
27947W        W  207  11.389  44.306  12.537
27948W        W  208   3.198   5.889   4.864
27949W        W  209  23.377  43.096  13.153
27950W        W  210  15.617  15.408  11.425
27951W        W  211   9.522  31.450   2.498
27952W        W  212  32.534   2.397   1.541
27953W        W  213  10.204   6.225  10.155
27954W        W  214  19.773  42.087   0.429
27955W        W  215  27.148  16.210   4.138
27956W        W  216  39.857  29.542  14.401
27957W        W  217   6.638  25.843  11.093
27958W        W  218  14.817  27.491  12.385
27959W        W  219  12.370  30.681   0.208
27960W        W  220  41.480  25.302   4.050
27961W        W  221   1.768  11.598   4.217
27962W        W  222   8.225   3.910   4.212
27963W        W  223  34.005   6.430  11.149
27964W        W  224   2.703  25.501  11.923
27965W        W  225   2.283   8.977   4.479
27966W        W  226   6.627  34.944  12.026
27967W        W  227   3.939  16.602   0.814
27968W        W  228  41.433  21.513   2.748
27969W        W  229  39.274  30.103   1.670
27970W        W  230  36.467  20.141  13.986
27971W        W  231  16.695   4.811  12.655
27972W        W  232  11.375  17.275  12.571
27973W        W  233   2.031  42.816   2.360
27974W        W  234  16.525  22.563   1.730
27975W        W  235  28.673  36.429   4.032
27976W        W  236  42.531  21.055  11.122
27977W        W  237  30.523  15.513  12.599
27978W        W  238  14.558  23.451   3.683
27979W        W  239  40.243   0.291  13.501
27980W        W  240   4.233   8.333   1.868
27981W        W  241  39.881  16.736  12.611
27982W        W  242   1.348  42.526   2.442
27983W        W  243  23.526   6.340  12.084
27984W        W  244  41.524  15.243   1.259
27985W        W  245  25.090  28.576  10.977
27986W        W  246  11.347  13.404  10.411
27987W        W  247  42.815  26.998   0.278
27988W        W  248  15.788  28.410  11.489
27989W        W  249  35.062  27.420  11.430
27990W        W  250  29.057   4.171  11.085
27991W        W  251  44.057  36.621  13.859
27992W        W  252  32.542  36.165  13.014
27993W        W  253  41.277   1.241  12.921
27994W        W  254  44.699   0.488  11.115
27995W        W  255  23.868   5.360  12.164
27996W        W  256  42.939  32.554  14.538
27997W        W  257  25.583  27.538   4.831
27998W        W  258  30.225  37.948   2.689
27999W        W  259  36.430  24.588   4.607
28000W        W  260  43.680   8.966  10.730
28001W        W  261  31.615  22.910   4.683
28002W        W  262  26.826  44.798   3.786
28003W        W  263   6.414  44.968   3.834
28004W        W  264   8.183  14.501  12.339
28005W        W  265  18.204  40.610  14.197
28006W        W  266  42.986  43.862  13.257
28007W        W  267  43.391   7.448  11.129
28008W        W  268  19.723  34.516  11.152
28009W        W  269  43.562  22.846  12.530
28010W        W  270  33.181   6.828   1.110
28011W        W  271   5.878  28.663   5.502
28012W        W  272  15.654  31.137   2.365
28013W        W  273  31.041  13.892   1.893
28014W        W  274   4.955  34.401   4.632
28015W        W  275   0.915  31.435  10.578
28016W        W  276  39.606  26.642  13.337
28017W        W  277  31.683  26.002  13.997
28018W        W  278  22.703   8.945  14.487
28019W        W  279  39.938  33.848  11.521
28020W        W  280   0.995  23.043   4.732
28021W        W  281   6.181   2.808   3.424
28022W        W  282   9.205  20.087  11.592
28023W        W  283   9.562  40.459  11.625
28024W        W  284  40.812  42.731   3.308
28025W        W  285   9.289  40.422   2.889
28026W        W  286  19.887  42.856   4.674
28027W        W  287  32.329  12.739   3.073
28028W        W  288  38.005   3.381  12.466
28029W        W  289  10.951   7.348   3.876
28030W        W  290  37.491  22.544   0.970
28031W        W  291  34.618   1.959  14.958
28032W        W  292  25.237  15.770  11.080
28033W        W  293  18.609  15.214   1.600
28034W        W  294   0.360  43.022  13.039
28035W        W  295  19.912  37.704  12.480
28036W        W  296  23.119  38.397   1.863
28037W        W  297   2.209  24.566   3.257
28038W        W  298  38.960  32.493  14.901
28039W        W  299  35.066  21.323   4.195
28040W        W  300  44.912  25.667  13.275
28041W        W  301  38.559  11.785  11.612
28042W        W  302  21.583   6.272  12.079
28043W        W  303  20.745  44.806  14.285
28044W        W  304  36.197  13.445  11.610
28045W        W  305  40.101  30.042   2.760
28046W        W  306  17.375  34.676  13.887
28047W        W  307  34.026  27.182   4.103
28048W        W  308  17.117  21.773   3.348
28049W        W  309  43.821   8.712   1.909
28050W        W  310  21.403  22.172  10.477
28051W        W  311  12.338   3.402   2.270
28052W        W  312  40.438   6.554  14.736
28053W        W  313  42.315  15.624   2.344
28054W        W  314   8.380   2.436  12.100
28055W        W  315  19.522   4.883   1.246
28056W        W  316  44.956  13.666   2.817
28057W        W  317  29.585   1.066   2.879
28058W        W  318  40.865   1.335  14.420
28059W        W  319  21.758  32.112  12.875
28060W        W  320  44.042  40.412  10.930
28061W        W  321  12.120   4.903  11.958
28062W        W  322  22.726  38.549   0.064
28063W        W  323  13.181  14.251   3.591
28064W        W  324   7.844  21.096   2.608
28065W        W  325  29.605  22.633   2.852
28066W        W  326  38.056   6.789   9.580
28067W        W  327  33.944  11.531   2.384
28068W        W  328  44.693   4.719  13.553
28069W        W  329  36.333  16.050  13.005
28070W        W  330   7.247  38.090  13.533
28071W        W  331   3.768   8.937  13.924
28072W        W  332  21.247  40.871   1.477
28073W        W  333  33.512  19.171   4.318
28074W        W  334  24.066  38.740  13.926
28075W        W  335  12.593  10.397  10.633
28076W        W  336   0.374   0.399   0.250
28077W        W  337   2.378   1.283  13.740
28078W        W  338  22.878  18.145   5.567
28079W        W  339  36.795   9.690  14.809
28080W        W  340  40.319  26.398   3.646
28081W        W  341  39.406   0.178  14.612
28082W        W  342  33.057  40.559   3.099
28083W        W  343  15.111  26.641   0.706
28084W        W  344  23.969   4.760   0.887
28085W        W  345   9.810   0.379  11.898
28086W        W  346  15.543   1.235   4.102
28087W        W  347  18.240   4.271   0.274
28088W        W  348   2.743  38.248   4.568
28089W        W  349  19.671  17.840  13.803
28090W        W  350  23.044  27.473   2.852
28091W        W  351  31.867  22.021   0.870
28092W        W  352  30.627   0.940   1.372
28093W        W  353  24.736   9.632   4.745
28094W        W  354  29.892   4.226   0.815
28095W        W  355  34.071   4.505  11.456
28096W        W  356  11.428  10.776  14.447
28097W        W  357  12.951  42.247   1.936
28098W        W  358   2.797  37.472  11.517
28099W        W  359  37.930  12.397  11.991
28100W        W  360   4.737   3.435  12.935
28101W        W  361  37.476  15.224  11.566
28102W        W  362  34.297  36.433  13.482
28103W        W  363  34.836  34.343   1.762
28104W        W  364   1.349  22.192   4.556
28105W        W  365  28.606  39.439  11.671
28106W        W  366   0.969  25.267  11.142
28107W        W  367  40.554  43.005   0.283
28108W        W  368   1.285  40.802   3.079
28109W        W  369  22.078  38.718   4.166
28110W        W  370  25.902  38.161   1.977
28111W        W  371  16.628  40.113   0.947
28112W        W  372  15.525   6.733   3.664
28113W        W  373  29.775   0.920   1.076
28114W        W  374  34.947  38.673  11.084
28115W        W  375   0.478  31.474   0.838
28116W        W  376  17.178  27.361   3.776
28117W        W  377  20.839   8.552  12.401
28118W        W  378   6.894  10.211   0.368
28119W        W  379  38.302  31.906   3.649
28120W        W  380  32.617  12.323   2.169
28121W        W  381  38.034  10.945   5.469
28122W        W  382  10.846  43.259   2.254
28123W        W  383  20.728  25.203   0.969
28124W        W  384  41.031  11.631   1.042
28125W        W  385  17.289  24.197  12.516
28126W        W  386  15.207  11.064   4.438
28127W        W  387  19.211   2.309   3.774
28128W        W  388  11.925   2.299   0.544
28129W        W  389   7.866  27.291  10.960
28130W        W  390  15.120  15.471   4.592
28131W        W  391  23.531   9.158  14.331
28132W        W  392   8.192   1.748  11.704
28133W        W  393  40.987  37.069  14.222
28134W        W  394  40.963  28.416  11.969
28135W        W  395  44.780   2.291  12.698
28136W        W  396  42.383  11.779   1.466
28137W        W  397  44.277  39.688   1.805
28138W        W  398  22.851  43.362   3.395
28139W        W  399  32.996  20.976   3.671
28140W        W  400  40.726   4.962   4.149
28141W        W  401  14.793  35.603  13.618
28142W        W  402  28.587   7.770  12.877
28143W        W  403  35.022  29.038  13.926
28144W        W  404  30.860  41.326   0.737
28145W        W  405  32.433  43.274  13.420
28146W        W  406   9.266  40.825  12.931
28147W        W  407  43.979  32.456   1.020
28148W        W  408   9.149   1.755  14.585
28149W        W  409  15.800  29.035   1.469
28150W        W  410  33.471  38.413   4.510
28151W        W  411  27.530  15.650   0.357
28152W        W  412  27.681   2.164   1.297
28153W        W  413  32.669  29.068   0.416
28154W        W  414  18.664  24.078  11.512
28155W        W  415  40.332   0.036  11.148
28156W        W  416   4.247  29.704  14.093
28157W        W  417  43.008  29.772  11.507
28158W        W  418   3.153  19.267   3.599
28159W        W  419  12.182  15.181  11.583
28160W        W  420  37.846  10.694  12.274
28161W        W  421  18.043  21.218  13.905
28162W        W  422   2.792   9.286   3.643
28163W        W  423  34.094  13.805  13.222
28164W        W  424  37.323   5.334  12.838
28165W        W  425  18.757  32.258  12.293
28166W        W  426   1.494  41.514   4.968
28167W        W  427  27.685   7.891   3.362
28168W        W  428  10.123  44.550  12.425
28169W        W  429  43.039   3.153   0.707
28170W        W  430  36.108  20.177   4.674
28171W        W  431   9.563   8.391  11.132
28172W        W  432   5.521  11.342  14.387
28173W        W  433  24.018   3.736  11.605
28174W        W  434   7.676   0.922   3.623
28175W        W  435  40.232   8.072   4.613
28176W        W  436  41.867  11.454   0.116
28177W        W  437   1.893  11.799  12.804
28178W        W  438   0.493   1.609  12.876
28179W        W  439  34.547  32.059   2.263
28180W        W  440  26.526  38.667  10.397
28181W        W  441  34.331  21.544   2.612
28182W        W  442  44.875  22.652   3.273
28183W        W  443  44.708   0.333  13.933
28184W        W  444   1.041   7.694   0.790
28185W        W  445  39.536  10.445   1.342
28186W        W  446  21.119  10.301  13.132
28187W        W  447  20.855  19.231   4.314
28188W        W  448  36.279  16.688   0.211
28189W        W  449   2.953  37.850   4.218
28190W        W  450   5.193  10.365   5.056
28191W        W  451  28.189  39.799  12.396
28192W        W  452  34.661  33.597   2.344
28193W        W  453  41.435  16.804   3.907
28194W        W  454  13.408  31.724   1.782
28195W        W  455  37.311  37.054   2.239
28196W        W  456  10.376  42.505  12.389
28197W        W  457  12.628  15.198  10.737
28198W        W  458  43.424   7.095   2.717
28199W        W  459   3.318  12.413  13.393
28200W        W  460  13.192  42.552   1.542
28201W        W  461  18.306  13.100   2.001
28202W        W  462  29.857  42.531   4.226
28203W        W  463  28.379   6.801  14.422
28204W        W  464   7.278   3.615  13.998
28205W        W  465  38.912  40.249   2.949
28206W        W  466  23.107  27.468  14.184
28207W        W  467   6.414  42.055  10.742
28208W        W  468   9.213   6.971   0.350
28209W        W  469  38.452  24.471   3.667
28210W        W  470   8.479  22.763   3.759
28211W        W  471  21.452  21.244  10.651
28212W        W  472  44.054  25.359   4.232
28213W        W  473  37.847  20.418  14.047
28214W        W  474  18.707   3.740  14.814
28215W        W  475  41.754  34.686  13.330
28216W        W  476  14.956  39.803  14.891
28217W        W  477  15.753  22.956   1.702
28218W        W  478   0.171   2.710  11.690
28219W        W  479  38.968  19.553  14.596
28220W        W  480  27.612  29.850   4.739
28221W        W  481  29.327  33.685   1.848
28222W        W  482  10.763   2.817   1.833
28223W        W  483  27.707   4.634  11.979
28224W        W  484   1.413  35.937   0.873
28225W        W  485   4.406  10.352  11.472
28226W        W  486  11.683  21.726  11.014
28227W        W  487  33.381  31.516   3.574
28228W        W  488  23.530  12.199  13.126
28229W        W  489  15.325  38.776   1.276
28230W        W  490  42.061  35.484   0.909
28231W        W  491  14.566  27.664  14.047
28232W        W  492   5.404  26.829   3.150
28233W        W  493   9.758  22.592  13.943
28234W        W  494   0.813  35.216   1.233
28235W        W  495   6.017  19.064   4.027
28236W        W  496  32.502   4.862   2.159
28237W        W  497  12.072   7.363   0.634
28238W        W  498  23.377  10.404  10.791
28239W        W  499  17.367  34.424  13.450
28240W        W  500  10.653  27.497  10.627
28241W        W  501  28.962  42.398   4.280
28242W        W  502   3.446  24.284  10.878
28243W        W  503  18.251   6.163   2.184
28244W        W  504  12.677   1.467  13.986
28245W        W  505   5.775  33.381   2.827
28246W        W  506  39.560  38.346  11.459
28247W        W  507  20.584   7.743  12.901
28248W        W  508  25.704  35.392  11.502
28249W        W  509   4.922   6.890   2.769
28250W        W  510   1.659   6.930   0.254
28251W        W  511  25.984  44.376  14.129
28252W        W  512  22.552  25.912  10.159
28253W        W  513  10.563  31.523   2.207
28254W        W  514  26.955  29.210   0.909
28255W        W  515  19.976  14.539   2.703
28256W        W  516  22.269  29.098  12.459
28257W        W  517  42.985   8.863  13.319
28258W        W  518  43.953   0.129  11.061
28259W        W  519  34.609   8.745  13.107
28260W        W  520  38.048  33.412   2.163
28261W        W  521  28.432   9.782  11.545
28262W        W  522   8.627  17.757   3.301
28263W        W  523  14.047  14.190   5.086
28264W        W  524  28.036   3.998  12.468
28265W        W  525  18.598  22.986   2.323
28266W        W  526  40.228  38.904   1.515
28267W        W  527  44.676  27.597   1.282
28268W        W  528   9.191  32.158   4.518
28269W        W  529   7.508  12.433  11.602
28270W        W  530  20.258  42.925  14.332
28271W        W  531  16.055  34.410   3.304
28272W        W  532  30.220  22.042   4.074
28273W        W  533  12.262  33.685   2.428
28274W        W  534  15.781  33.108  10.412
28275W        W  535   7.453  32.819   1.905
28276W        W  536  19.618   5.268   0.003
28277W        W  537  17.963  17.995  12.388
28278W        W  538  33.578  38.441  10.829
28279W        W  539   4.968  41.866  12.042
28280W        W  540  11.712  39.473  10.562
28281W        W  541  16.757  16.177   4.505
28282W        W  542  17.778  34.290   2.765
28283W        W  543   4.685  20.692   3.906
28284W        W  544  23.547  35.433   4.801
28285W        W  545  23.163  19.073   0.322
28286W        W  546  10.946  19.737   3.355
28287W        W  547  24.776  16.795  14.879
28288W        W  548  44.918  12.033  13.782
28289W        W  549  15.188  24.950   0.963
28290W        W  550   0.521  38.331  14.975
28291W        W  551  40.569  17.337  13.571
28292W        W  552  39.427  29.853  14.358
28293W        W  553  35.473  13.222   0.659
28294W        W  554  24.151  44.696  10.956
28295W        W  555   2.090  21.293  12.887
28296W        W  556   3.878   0.177   0.707
28297W        W  557  12.392  28.047  13.037
28298W        W  558  18.048  26.616  11.664
28299W        W  559  10.606  30.853  11.399
28300W        W  560  40.284  12.391  14.444
28301W        W  561   5.582  29.513  11.758
28302W        W  562   4.975  29.605   2.589
28303W        W  563   4.553   7.149  12.509
28304W        W  564  32.387  28.902  11.371
28305W        W  565  14.515  23.571   4.184
28306W        W  566  10.855   0.754  12.430
28307W        W  567   7.891  34.331   2.789
28308W        W  568  18.801   5.705   3.855
28309W        W  569  18.465  25.021  10.318
28310W        W  570   4.431   0.054  12.123
28311W        W  571  28.678  23.640   1.951
28312W        W  572  41.931  31.855   0.985
28313W        W  573   4.188  27.139  11.052
28314W        W  574  35.580  31.811  13.013
28315W        W  575  17.325   1.824   0.421
28316W        W  576   9.887   1.062   3.734
28317W        W  577  21.527  11.331  11.543
28318W        W  578   6.209   3.460  14.272
28319W        W  579  11.457   7.309   3.963
28320W        W  580   8.205  36.140  13.791
28321W        W  581  14.474   3.822   3.108
28322W        W  582   8.281  10.741  11.247
28323W        W  583   5.454   4.805   4.143
28324W        W  584  30.135  25.174   2.279
28325W        W  585   2.372  42.907   2.770
28326W        W  586  21.549  13.132  13.084
28327W        W  587  11.549   3.015   2.362
28328W        W  588  22.560   5.944  12.141
28329W        W  589  15.118  22.995  14.083
28330W        W  590  36.990  13.531   1.234
28331W        W  591  10.399   3.257   4.314
28332W        W  592  39.546   3.860  10.405
28333W        W  593   9.752  40.754  12.776
28334W        W  594  24.067  33.625   4.640
28335W        W  595   6.455  33.145   1.829
28336W        W  596  13.857  29.249   1.461
28337W        W  597  16.819  41.263  12.109
28338W        W  598  21.717  23.932  10.640
28339W        W  599  38.317  28.053  14.401
28340W        W  600   1.308  28.192   2.770
28341W        W  601  31.355  23.502  10.416
28342W        W  602  23.931  36.860  13.582
28343W        W  603  35.352  25.576   1.296
28344W        W  604  22.514  34.617  10.941
28345W        W  605  31.130  21.642   3.773
28346W        W  606  21.014  15.843  12.110
28347W        W  607   6.192  40.919   1.724
28348W        W  608  33.006  44.250   3.630
28349W        W  609   6.233  24.536   2.365
28350W        W  610  15.282   9.772   2.296
28351W        W  611  38.416   0.530   4.055
28352W        W  612  30.044  20.142   0.899
28353W        W  613  23.741  22.651   0.919
28354W        W  614  11.079  37.018   1.272
28355W        W  615  33.201   6.712   1.952
28356W        W  616  36.119  25.207   1.250
28357W        W  617  33.050  14.159   3.382
28358W        W  618  36.369  25.931  11.598
28359W        W  619   4.988  12.559   1.942
28360W        W  620  28.414  15.690  14.325
28361W        W  621  12.072  42.036   3.328
28362W        W  622  24.241  22.701   1.030
28363W        W  623  10.269  34.835   4.463
28364W        W  624  39.143   6.873  10.635
28365W        W  625  16.073  26.974  12.538
28366W        W  626   1.905  44.527  14.541
28367W        W  627  28.512  34.102   0.744
28368W        W  628  24.652  13.327  13.548
28369W        W  629  18.784  27.992   3.367
28370W        W  630  31.721  12.102  11.421
28371W        W  631  18.563   4.881   4.140
28372W        W  632  16.291   1.858  11.650
28373W        W  633  21.576   4.901  10.494
28374W        W  634  13.562  15.253  11.137
28375W        W  635  14.079  33.529   2.420
28376W        W  636  23.612  15.852  13.028
28377W        W  637  43.603  35.654  13.848
28378W        W  638   2.058   2.967   4.124
28379W        W  639  20.510  21.578   4.731
28380W        W  640  29.385  27.002   1.104
28381W        W  641  10.113  15.221  10.705
28382W        W  642  12.101  40.887  10.679
28383W        W  643   6.258   0.794  12.161
28384W        W  644  17.706   9.623  13.454
28385W        W  645  16.673  12.111   3.633
28386W        W  646  42.002  16.174  14.012
28387W        W  647  42.942   9.783   1.045
28388W        W  648   0.896  37.457   4.562
28389W        W  649  14.035  17.069  11.221
28390W        W  650  20.839  22.516   5.133
28391W        W  651  20.106   2.516  14.870
28392W        W  652  38.290  42.511  12.512
28393W        W  653  35.757   4.629  14.294
28394W        W  654  13.248  43.885   2.719
28395W        W  655   4.870  22.401  14.372
28396W        W  656  40.985  15.861   0.930
28397W        W  657   5.844  31.600   0.376
28398W        W  658   9.236  43.036  14.813
28399W        W  659  24.745   3.799  13.972
28400W        W  660   4.825  36.063   3.224
28401W        W  661   2.369  28.662   2.373
28402W        W  662  17.132   6.388   2.932
28403W        W  663   2.239  13.296   4.266
28404W        W  664  40.444   8.776  10.767
28405W        W  665   0.781  15.335  10.982
28406W        W  666  33.526  25.011   4.538
28407W        W  667  40.432  35.876  14.752
28408W        W  668  26.502  43.066  10.980
28409W        W  669   1.491   2.447  12.758
28410W        W  670  34.145  17.787  11.601
28411W        W  671   1.169  37.912   4.565
28412W        W  672   5.878  20.935  12.146
28413W        W  673  23.340   3.135   4.177
28414W        W  674  13.619  33.377   0.242
28415W        W  675  38.335  34.220   2.231
28416W        W  676  11.943  37.641   3.350
28417W        W  677  43.431  16.503   2.135
28418W        W  678   5.160  37.714   1.673
28419W        W  679   0.969  31.851  14.623
28420W        W  680  24.273  17.608   0.225
28421W        W  681  22.111   6.202   1.420
28422W        W  682  26.063  29.647   2.380
28423W        W  683   9.872  30.680   4.074
28424W        W  684  44.336   0.795   2.481
28425W        W  685  28.540  25.271  11.574
28426W        W  686  36.536  39.111  13.976
28427W        W  687  35.077   7.678  12.367
28428W        W  688  14.851  27.896   3.597
28429W        W  689  26.907  27.567   3.624
28430W        W  690  37.697  32.091   4.168
28431W        W  691  12.879  37.951   0.336
28432W        W  692  19.672  27.595   4.764
28433W        W  693   3.052  25.479   2.884
28434W        W  694  14.337   4.427  11.210
28435W        W  695  44.575  22.014  10.775
28436W        W  696   6.129   9.834   3.288
28437W        W  697  41.956  39.783  12.548
28438W        W  698  24.683  16.170  10.900
28439W        W  699  14.739  34.001  12.979
28440W        W  700   2.411   7.846   1.689
28441W        W  701   1.987  10.133   3.190
28442W        W  702  22.986  10.225   3.111
28443W        W  703  24.050  39.315   4.734
28444W        W  704  39.759  12.315   0.370
28445W        W  705  37.982  33.714   4.172
28446W        W  706  39.788   1.504   2.586
28447W        W  707  16.863  44.534   5.127
28448W        W  708  25.288   5.693  14.925
28449W        W  709   9.407  28.101   2.405
28450W        W  710  22.751  14.364  11.092
28451W        W  711  41.015  34.385   2.599
28452W        W  712  38.630  17.569  13.447
28453W        W  713   6.044  29.507  13.083
28454W        W  714  15.018  36.232  14.323
28455W        W  715  12.237  33.597  12.191
28456W        W  716   7.326  17.737  13.419
28457W        W  717  28.190   6.721  10.715
28458W        W  718  31.411  37.579  12.965
28459W        W  719  42.858  34.437  14.113
28460W        W  720  41.346  38.811   4.104
28461W        W  721  30.822   4.956  13.297
28462W        W  722  18.091   8.689   9.769
28463W        W  723  30.664  35.143   2.940
28464W        W  724  33.997  24.810   4.687
28465W        W  725   4.526  29.076  10.532
28466W        W  726  13.096  15.073  14.957
28467W        W  727  37.078   9.388  11.520
28468W        W  728  38.885  30.066   2.390
28469W        W  729  26.655  18.528  13.333
28470W        W  730  24.595   3.071   0.723
28471W        W  731  29.115   7.083  10.522
28472W        W  732  17.105  11.315   2.469
28473W        W  733  37.998  18.124  12.798
28474W        W  734   7.738  13.377  14.059
28475W        W  735  35.127  36.627  14.852
28476W        W  736   7.862  26.138   0.492
28477W        W  737  39.160   3.423   5.120
28478W        W  738  26.092  17.421  12.530
28479W        W  739  30.975   0.254   1.504
28480W        W  740  37.799  19.672  11.015
28481W        W  741  40.385   1.444  13.468
28482W        W  742   0.032  25.557   3.479
28483W        W  743  43.330  10.295   0.515
28484W        W  744  44.864   2.514   0.355
28485W        W  745  40.902  19.055  10.552
28486W        W  746  39.535  37.541  10.794
28487W        W  747  18.226  12.326   0.908
28488W        W  748  14.214  16.016   4.838
28489W        W  749  20.017  13.508  12.105
28490W        W  750  24.782  27.344   3.909
28491W        W  751  26.110  17.802  14.575
28492W        W  752  36.769  26.002   0.413
28493W        W  753  27.954  15.596  11.961
28494W        W  754  16.799  30.589  11.550
28495W        W  755  10.585  35.530   2.393
28496W        W  756  22.480  32.048  13.853
28497W        W  757  17.937  10.845   2.662
28498W        W  758  16.314   5.852   1.290
28499W        W  759  19.720   8.433   0.933
28500W        W  760   9.394   0.348  12.205
28501W        W  761   4.327   3.091   0.749
28502W        W  762  11.350  12.474  14.395
28503W        W  763  44.410  27.978   4.551
28504W        W  764   6.418  26.667   0.844
28505W        W  765   6.262  35.578   3.979
28506W        W  766  17.551  20.189   2.806
28507W        W  767   1.304   5.166  13.393
28508W        W  768  21.740  21.006  11.010
28509W        W  769  13.380  34.825   4.592
28510W        W  770  11.624  38.079  12.658
28511W        W  771  44.258   1.254   4.682
28512W        W  772   6.832  19.732  12.477
28513W        W  773  16.613  10.906   0.482
28514W        W  774  26.667  14.216   4.550
28515W        W  775  33.334  20.911   1.717
28516W        W  776   2.188  23.544  10.636
28517W        W  777  32.466  37.602  14.887
28518W        W  778  37.298  37.613   0.335
28519W        W  779  18.361  11.813   0.788
28520W        W  780   4.208  31.572   2.229
28521W        W  781  17.549  24.142  14.907
28522W        W  782   0.411   8.885  14.882
28523W        W  783  32.464  16.178   1.862
28524W        W  784  34.184  24.748   3.250
28525W        W  785  28.603   2.869  14.810
28526W        W  786   8.691  11.640   3.195
28527W        W  787  15.418  18.668  14.300
28528W        W  788  35.376  39.488   3.342
28529W        W  789   6.862  38.982  13.876
28530W        W  790   6.867  10.290  12.105
28531W        W  791  34.879  41.885   1.915
28532W        W  792   7.744  25.249  12.142
28533W        W  793  37.135  30.918  13.402
28534W        W  794   6.312  13.397  11.028
28535W        W  795  44.717  12.425   1.627
28536W        W  796  35.361  41.569  13.549
28537W        W  797  42.025  44.351   0.682
28538W        W  798  36.896  20.806   0.474
28539W        W  799  12.874  22.011  10.481
28540W        W  800  16.590  35.156   1.799
28541W        W  801  30.651  11.271  11.742
28542W        W  802  23.899   1.023  14.459
28543W        W  803  11.111  19.375  11.079
28544W        W  804  22.834   6.765  10.210
28545W        W  805   6.735  27.998  14.505
28546W        W  806  22.200  17.248   3.005
28547W        W  807  44.089   7.795  11.578
28548W        W  808   4.432  19.699   0.716
28549W        W  809  42.011  36.923   3.633
28550W        W  810   8.852  38.589   2.862
28551W        W  811   3.806  17.596   3.340
28552W        W  812  16.177  38.471   4.830
28553W        W  813  28.343  29.075  13.599
28554W        W  814  40.858  38.059   2.177
28555W        W  815   1.769  35.659  13.028
28556W        W  816  32.382  13.718   2.391
28557W        W  817  43.760  38.453  14.012
28558W        W  818  19.675   8.777  10.366
28559W        W  819  16.613   5.434   1.305
28560W        W  820  43.884  24.407   0.372
28561W        W  821  38.625  33.853   2.936
28562W        W  822   2.875   0.623  13.397
28563W        W  823  35.658  38.808  14.690
28564W        W  824  36.428  20.568  11.412
28565W        W  825  24.626  18.827  10.768
28566W        W  826  29.491  40.950  14.793
28567W        W  827  19.536  44.695  12.734
28568W        W  828  32.585  13.791  12.756
28569W        W  829  15.140  31.846  11.456
28570W        W  830  25.296   1.038   3.762
28571W        W  831  22.016   8.774   2.199
28572W        W  832   2.529  21.292   5.116
28573W        W  833  24.086   9.396   2.553
28574W        W  834  28.137  14.054   0.220
28575W        W  835  23.059  22.191  12.406
28576W        W  836  15.891   1.461  13.891
28577W        W  837   2.652  35.049   3.711
28578W        W  838   6.445  38.011  11.894
28579W        W  839  13.606   6.410   0.938
28580W        W  840  32.087   1.285   0.187
28581W        W  841  40.316  43.452  14.737
28582W        W  842  28.129  24.639  13.244
28583W        W  843  28.310   1.011   0.619
28584W        W  844  38.879   3.396   4.661
28585W        W  845  31.352  26.910  13.109
28586W        W  846  38.678  19.446   0.159
28587W        W  847  35.990   0.793   5.190
28588W        W  848  28.563  31.541   1.885
28589W        W  849   8.273  23.984  11.650
28590W        W  850  41.949   2.268  12.873
28591W        W  851   4.940  37.942  12.114
28592W        W  852  11.086  25.053   3.558
28593W        W  853  22.149  36.320  13.111
28594W        W  854  15.857   7.266  10.709
28595W        W  855   6.286  30.695  12.538
28596W        W  856  25.243  17.266   3.239
28597W        W  857  43.883  42.926  11.577
28598W        W  858   0.925  19.144  13.697
28599W        W  859  34.146  40.535   0.316
28600W        W  860  22.744   6.824  14.977
28601W        W  861  35.649  35.116  13.471
28602W        W  862  35.959  31.564  11.722
28603W        W  863  18.048   0.241  11.575
28604W        W  864  36.491  18.185   0.669
28605W        W  865   2.510  17.718   1.773
28606W        W  866  19.754  22.146   1.784
28607W        W  867   9.855  16.367  14.077
28608W        W  868  40.648  34.021   0.883
28609W        W  869  29.657   4.986   2.151
28610W        W  870  27.240  21.238  12.879
28611W        W  871  11.289  22.081   4.567
28612W        W  872  21.961  19.609   3.226
28613W        W  873  29.129   0.273  12.036
28614W        W  874   9.739   6.782  10.766
28615W        W  875  23.982  35.547  14.877
28616W        W  876  26.844  36.898   4.249
28617W        W  877   5.341  27.419   0.229
28618W        W  878  30.064  26.864   1.892
28619W        W  879  14.372   7.832   3.182
28620W        W  880  22.400   5.876   1.702
28621W        W  881   2.480  26.766   2.421
28622W        W  882  36.310  37.388   2.829
28623W        W  883  14.211  37.701   4.973
28624W        W  884  26.295  21.650   0.846
28625W        W  885  18.335  20.318  10.744
28626W        W  886  10.989  18.630   1.315
28627W        W  887  30.879  24.087  11.563
28628W        W  888   7.200  35.999  14.908
28629W        W  889  38.461  33.256   0.509
28630W        W  890  14.404   2.158   0.337
28631W        W  891   7.265   1.106   2.827
28632W        W  892  20.798   0.899   3.732
28633W        W  893  25.445  35.538  11.092
28634W        W  894  15.738   7.416   2.409
28635W        W  895  18.147  30.219  11.590
28636W        W  896  23.316  15.050  12.798
28637W        W  897  16.612  10.857  11.689
28638W        W  898  12.820   1.295   1.898
28639W        W  899  21.692  25.533  13.970
28640W        W  900  11.761  39.589  12.480
28641W        W  901   0.680  20.230   1.038
28642W        W  902   9.701  28.235  12.338
28643W        W  903  19.252   2.717  13.907
28644W        W  904  18.228  32.301  13.439
28645W        W  905  25.711  29.057   0.177
28646W        W  906  13.774  37.054   0.366
28647W        W  907  12.738  38.480   2.799
28648W        W  908   5.644  21.055   0.787
28649W        W  909  33.020  21.504   5.000
28650W        W  910  36.369  21.758  12.583
28651W        W  911  34.151  29.010  14.364
28652W        W  912  41.783  26.903   4.287
28653W        W  913  35.891  31.501  14.448
28654W        W  914  10.843  26.248  12.442
28655W        W  915  14.016  37.364  12.998
28656W        W  916  18.388   4.524  13.893
28657W        W  917  16.062   6.722  11.502
28658W        W  918  35.801  15.602   2.883
28659W        W  919  35.526  17.863  10.150
28660W        W  920  27.732  22.397  14.400
28661W        W  921  44.785   1.385  12.191
28662W        W  922  39.465  22.479   3.397
28663W        W  923  16.664  21.778  13.015
28664W        W  924  23.024  17.123   0.299
28665W        W  925  13.888  32.333  12.344
28666W        W  926  17.210  21.497  10.196
28667W        W  927  19.189  24.521   0.768
28668W        W  928  31.631  25.443   3.128
28669W        W  929  31.564  10.213   4.688
28670W        W  930   4.533   5.852   0.843
28671W        W  931  15.266  27.454  12.694
28672W        W  932  10.730  36.777  13.500
28673W        W  933  17.220  27.734  13.688
28674W        W  934  36.139  20.056   0.494
28675W        W  935  22.672  17.558   1.756
28676W        W  936  26.439  37.315  10.704
28677W        W  937  28.252   2.990   2.663
28678W        W  938  24.881  37.838  11.198
28679W        W  939  21.716  15.102   3.837
28680W        W  940  13.408   9.121  10.724
28681W        W  941   6.312  41.589  10.536
28682W        W  942   6.178  28.473   2.439
28683W        W  943   1.669  27.704   1.452
28684W        W  944  30.090  38.258   0.555
28685W        W  945  13.650   9.791   4.556
28686W        W  946  23.088  22.262   1.312
28687W        W  947  33.526  24.467  11.692
28688W        W  948  17.387  34.908   2.396
28689W        W  949  26.697  25.485  12.955
28690W        W  950  42.279   6.264  14.291
28691W        W  951  41.400  22.188   3.505
28692W        W  952  15.564  39.407  11.606
28693W        W  953  34.677  17.014  14.225
28694W        W  954  32.332  14.513   0.943
28695W        W  955  10.384   4.632  14.744
28696W        W  956  22.717  37.477  10.704
28697W        W  957   2.174  19.428   1.361
28698W        W  958  28.442  30.278   2.234
28699W        W  959  24.841   6.186   3.413
28700W        W  960  33.648  31.079  13.318
28701W        W  961  36.376  13.545  13.393
28702W        W  962  39.469  15.317  14.430
28703W        W  963   9.366  40.115  10.318
28704W        W  964  39.391  31.672  13.674
28705W        W  965  34.542  13.629   4.079
28706W        W  966  17.393  44.613  11.108
28707W        W  967  26.523   9.206   3.361
28708W        W  968   0.620  15.309   3.767
28709W        W  969   1.829  38.856   2.252
28710W        W  970  14.222  23.022  12.550
28711W        W  971   8.495  17.796   4.168
28712W        W  972  14.688  37.509   0.250
28713W        W  973  35.879  12.816  13.430
28714W        W  974  27.005  30.589  10.742
28715W        W  975  15.510  30.611   2.259
28716W        W  976  37.582   5.978  13.366
28717W        W  977  23.030  43.314   0.029
28718W        W  978  40.701   8.802  11.194
28719W        W  979  17.360   7.662  11.987
28720W        W  980  38.149   3.671   1.771
28721W        W  981  11.349  10.876  11.394
28722W        W  982  33.721  12.858   2.267
28723W        W  983  20.039  11.122  13.477
28724W        W  984  22.310  17.832  12.138
28725W        W  985  44.349  36.082  13.944
28726W        W  986  23.461  28.652   9.680
28727W        W  987  20.611  20.042   0.866
28728W        W  988   3.878  26.603   2.228
28729W        W  989  11.919  14.342  12.598
28730W        W  990  17.866  13.683  14.958
28731W        W  991   7.668  33.533   3.218
28732W        W  992  17.704  12.375   3.722
28733W        W  993  19.200  19.204  13.918
28734W        W  994  22.244  22.226   2.892
28735W        W  995  21.812  43.930   4.164
28736W        W  996   0.332  15.103  11.127
28737W        W  997  26.572  13.030  12.569
28738W        W  998  20.972  15.802   2.720
28739W        W  999  44.461  43.569  14.283
28740W        W 1000  18.097  44.984  14.008
28741W        W 1001  31.022  19.235  10.663
28742W        W 1002   3.463   0.787   1.153
28743W        W 1003  41.781  34.133  11.501
28744W        W 1004  13.270  30.147   3.173
28745W        W 1005  35.287  15.143  12.939
28746W        W 1006  18.583   4.742  11.631
28747W        W 1007  42.925  21.762   2.782
28748W        W 1008  29.043   6.814  11.862
28749W        W 1009  17.269  32.425  12.595
28750W        W 1010  44.757   3.216  10.929
28751W        W 1011  37.593  32.038   1.263
28752W        W 1012  37.507  10.988   0.052
28753W        W 1013  39.931   5.939  13.914
28754W        W 1014  25.383  43.797  11.133
28755W        W 1015  42.445  32.880  12.410
28756W        W 1016  21.550  40.344  11.539
28757W        W 1017  36.448   8.458   3.173
28758W        W 1018  37.805   3.979   2.392
28759W        W 1019  37.012  23.688   2.745
28760W        W 1020  32.136  21.472   4.946
28761W        W 1021  36.148  12.904  12.121
28762W        W 1022  39.895   4.775   2.171
28763W        W 1023   4.032  28.400  13.069
28764W        W 1024  28.152  23.919   0.399
28765W        W 1025  39.498   7.414   3.417
28766W        W 1026   2.575   5.150   1.750
28767W        W 1027  17.266  13.122  10.571
28768W        W 1028  24.977  41.417  10.715
28769W        W 1029  37.368   5.764  11.413
28770W        W 1030  11.725  37.263  12.936
28771W        W 1031  12.205  39.378  10.695
28772W        W 1032  13.574  32.202   2.100
28773W        W 1033  36.651  10.681  14.962
28774W        W 1034  14.181  33.974   0.280
28775W        W 1035  16.160  13.236   0.394
28776W        W 1036   4.246  26.694  12.996
28777W        W 1037  12.246  27.678   3.290
28778W        W 1038  14.815   1.583  10.310
28779W        W 1039   1.887  41.439  14.947
28780W        W 1040  43.954  43.506  11.255
28781W        W 1041   4.460  11.338  12.859
28782W        W 1042  26.117  27.835  11.487
28783W        W 1043  19.846  15.567  13.350
28784W        W 1044  11.128   1.971   2.700
28785W        W 1045   1.064  17.607  12.325
28786W        W 1046   5.591  27.234   2.882
28787W        W 1047  12.153   8.835   2.735
28788W        W 1048  27.705  31.618  11.931
28789W        W 1049  37.400  34.484  11.118
28790W        W 1050  19.998  28.093   2.863
28791W        W 1051  25.004   3.950  14.388
28792W        W 1052  23.787  16.192  11.233
28793W        W 1053  11.831  31.532   3.150
28794W        W 1054  39.971   2.290  12.863
28795W        W 1055  22.003  13.720   0.677
28796W        W 1056  33.845  44.045  11.084
28797W        W 1057  21.480  34.609  11.545
28798W        W 1058  22.553  33.594   2.862
28799W        W 1059  14.680  20.524  10.737
28800W        W 1060  37.272   3.697  13.884
28801W        W 1061   6.645  40.901  14.007
28802W        W 1062  24.959  16.169  12.827
28803W        W 1063  24.996  44.400  10.751
28804W        W 1064  11.808   6.127   3.692
28805W        W 1065  39.398  24.886  10.591
28806W        W 1066  29.394  22.885  12.603
28807W        W 1067  33.406  38.560   0.957
28808W        W 1068  12.580  19.918   0.878
28809W        W 1069  29.418  10.445   3.298
28810W        W 1070  31.905  27.809  12.918
28811W        W 1071  26.025  27.275   1.366
28812W        W 1072  15.573   5.652  11.127
28813W        W 1073  21.622  22.360   3.233
28814W        W 1074  38.549  26.934   3.687
28815W        W 1075  27.451  40.603   0.137
28816W        W 1076   8.699  31.411  11.050
28817W        W 1077  23.693  34.463   4.646
28818W        W 1078  38.314  42.760  12.038
28819W        W 1079  19.995  34.195   2.307
28820W        W 1080  20.985  16.682   3.810
28821W        W 1081  24.420  23.236  12.941
28822W        W 1082  11.868  20.322   3.876
28823W        W 1083  26.915  25.623  12.337
28824W        W 1084  39.911  37.806  14.928
28825W        W 1085  36.631   6.977   3.404
28826W        W 1086  31.007  16.899  12.946
28827W        W 1087  33.711  25.607  10.627
28828W        W 1088  22.691   9.195  12.649
28829W        W 1089  30.123  12.059   1.401
28830W        W 1090  21.014   2.474  13.521
28831W        W 1091  41.104   7.678   2.205
28832W        W 1092   3.431   1.836  13.327
28833W        W 1093  14.702  33.899  11.076
28834W        W 1094  36.627  44.208   0.325
28835W        W 1095  11.095  44.018   1.297
28836W        W 1096  36.397  25.577   0.975
28837W        W 1097  39.985  24.735   4.104
28838W        W 1098  17.631  21.546   2.404
28839W        W 1099   8.793  12.018  14.082
28840W        W 1100  38.515  19.484   4.547
28841W        W 1101  32.833  30.470  12.583
28842W        W 1102   2.948  24.087   4.035
28843W        W 1103  11.129  26.526   1.286
28844W        W 1104  13.044  26.312  11.139
28845W        W 1105  21.143  24.173  12.538
28846W        W 1106  29.141  41.485  12.972
28847W        W 1107  20.143  33.528   4.169
28848W        W 1108  26.831  35.191   4.225
28849W        W 1109  31.443  13.041  11.621
28850W        W 1110  28.609   4.266   2.368
28851W        W 1111  19.754  37.908   3.712
28852W        W 1112  26.489  37.669   0.235
28853W        W 1113  43.197  22.692  13.984
28854W        W 1114  38.298   0.441  14.807
28855W        W 1115  39.824  44.979  11.196
28856W        W 1116  21.991  28.133   3.893
28857W        W 1117  13.692  39.054  10.321
28858W        W 1118  30.196  23.012   2.658
28859W        W 1119   1.630  12.742   2.304
28860W        W 1120  28.628  35.370  12.391
28861W        W 1121  31.525  36.617  13.995
28862W        W 1122  26.402  41.368   4.216
28863W        W 1123  19.000  10.737  13.916
28864W        W 1124  31.504   4.386  13.477
28865W        W 1125  30.944   9.448   2.110
28866W        W 1126  28.129  28.757  13.974
28867W        W 1127  30.529  19.851   0.438
28868W        W 1128  27.490   6.779  10.964
28869W        W 1129  12.374   0.782  14.822
28870W        W 1130  44.473  29.325  11.672
28871W        W 1131  18.539  19.091  12.528
28872W        W 1132  22.939  15.133   0.393
28873W        W 1133  37.814  24.984   4.179
28874W        W 1134  10.622  21.650   3.677
28875W        W 1135  33.317  41.921   1.359
28876W        W 1136  40.858   1.535  12.990
28877W        W 1137  30.013   5.191   1.829
28878W        W 1138  22.789  11.720  10.468
28879W        W 1139  44.902  21.228  11.754
28880W        W 1140  29.580  11.138  12.589
28881W        W 1141  12.675   2.281  12.870
28882W        W 1142  39.272   8.913   2.299
28883W        W 1143  38.798  25.923   4.344
28884W        W 1144  38.225  28.606   4.168
28885W        W 1145  30.221  29.534  11.246
28886W        W 1146  22.329  35.981  14.579
28887W        W 1147  44.471  22.839   0.917
28888W        W 1148  14.206  11.109  13.026
28889W        W 1149   8.654   1.284   2.720
28890W        W 1150  20.760  16.220   3.868
28891W        W 1151  24.741  40.301   4.987
28892W        W 1152   2.794  35.264  12.085
28893W        W 1153   7.273  25.076   0.194
28894W        W 1154  24.699  42.418   3.809
28895W        W 1155  25.677  37.136   1.815
28896W        W 1156  40.296  26.572   0.085
28897W        W 1157  22.211  22.008  13.396
28898W        W 1158  10.157   4.969   2.256
28899W        W 1159  36.579   6.890   4.644
28900W        W 1160  23.321  39.680  11.156
28901W        W 1161  20.069  11.635   1.695
28902W        W 1162  30.925   3.521   2.392
28903W        W 1163  18.021  15.099  14.804
28904W        W 1164  37.925   2.813   2.742
28905W        W 1165  24.711  36.437  13.338
28906W        W 1166   5.945  38.062   4.217
28907W        W 1167   6.723  34.007   0.754
28908W        W 1168   2.945  14.490   4.237
28909W        W 1169   2.506  39.811  13.435
28910W        W 1170  25.480  22.082  12.165
28911W        W 1171   9.624   2.268   4.195
28912W        W 1172  11.447  10.315   2.764
28913W        W 1173  14.659  16.700  14.888
28914W        W 1174  20.256   3.109  13.534
28915W        W 1175  11.549  17.160   3.806
28916W        W 1176  35.775  13.384  12.823
28917W        W 1177  43.244  29.492  10.678
28918W        W 1178   8.770  12.701   4.242
28919W        W 1179  32.460  18.686   0.526
28920W        W 1180  40.135   9.981   2.006
28921W        W 1181  22.666   8.434  14.475
28922W        W 1182  39.304   4.845  11.776
28923W        W 1183  27.674  20.762   2.079
28924W        W 1184   6.714   9.502  12.380
28925W        W 1185  43.279  32.400   2.280
28926W        W 1186  33.284  25.010   1.761
28927W        W 1187  15.179  18.189  10.570
28928W        W 1188   5.016  31.123   1.767
28929W        W 1189  28.262  17.575  11.420
28930W        W 1190  34.064  19.699  14.049
28931W        W 1191  44.778  14.526  12.083
28932W        W 1192  19.437  19.101  13.469
28933W        W 1193  43.884  21.518  12.486
28934W        W 1194  31.919   2.167  14.721
28935W        W 1195   7.256  36.673  13.004
28936W        W 1196  18.537  35.697   3.183
28937W        W 1197   2.020  31.379   0.811
28938W        W 1198  39.348   7.639   0.720
28939W        W 1199  37.541   8.157  13.230
28940W        W 1200   5.156  23.966   4.478
28941W        W 1201  21.585  34.896   1.539
28942W        W 1202  12.643  13.293  10.678
28943W        W 1203  24.214  19.118  10.895
28944W        W 1204  23.884  25.268   0.505
28945W        W 1205   9.277  17.264   2.826
28946W        W 1206  26.939  28.541   3.577
28947W        W 1207  27.428  37.903   2.896
28948W        W 1208  19.279  33.705  14.120
28949W        W 1209  26.944  42.379   2.844
28950W        W 1210  37.058  17.803   2.879
28951W        W 1211   9.073  28.713  14.980
28952W        W 1212  17.261  34.669  12.769
28953W        W 1213  15.311  42.110  12.273
28954W        W 1214  43.364  37.890  10.679
28955W        W 1215   7.841  37.631   4.108
28956W        W 1216  39.446  43.989   3.280
28957W        W 1217  34.500  22.179  13.795
28958W        W 1218  26.474  12.613  10.240
28959W        W 1219  20.764  10.756  13.267
28960W        W 1220  34.017  30.691   4.734
28961W        W 1221  22.301  11.362   3.721
28962W        W 1222  17.347  41.409   2.916
28963W        W 1223  17.320  26.647  12.458
28964W        W 1224   4.923  23.663  13.450
28965W        W 1225  44.380  34.391   2.197
28966W        W 1226  28.235   2.626  14.031
28967W        W 1227  18.713   3.506  11.150
28968W        W 1228  36.469  11.834  10.113
28969W        W 1229   5.911  35.099  14.357
28970W        W 1230  11.411  35.257  13.806
28971W        W 1231  21.455  42.937  11.560
28972W        W 1232  14.775  44.864   2.276
28973W        W 1233  30.120  14.400  14.765
28974W        W 1234  21.123  29.983  12.998
28975W        W 1235  21.176  10.710  10.983
28976W        W 1236  16.849  19.783  14.039
28977W        W 1237  38.149   7.926  11.403
28978W        W 1238  16.237  15.569   0.902
28979W        W 1239   8.752   7.869   3.914
28980W        W 1240  39.101   4.822  12.475
28981W        W 1241  16.223  13.130   3.146
28982W        W 1242  34.460   0.540  13.569
28983W        W 1243   9.235   8.422   2.156
28984W        W 1244  32.228  13.815   3.396
28985W        W 1245   6.594  28.622  14.800
28986W        W 1246  25.546   7.222  11.967
28987W        W 1247  11.776  24.557   3.346
28988W        W 1248   3.885  43.444  10.743
28989W        W 1249  19.744  33.238  11.087
28990W        W 1250  17.133  40.907   0.564
28991W        W 1251  43.863  26.649   0.388
28992W        W 1252   0.913   8.620  14.921
28993W        W 1253  27.131  27.420  12.482
28994W        W 1254   7.901  34.519   1.253
28995W        W 1255  23.056  41.440  11.536
28996W        W 1256  35.643  21.223  13.019
28997W        W 1257  13.842   6.517  12.790
28998W        W 1258  25.951  10.280  13.959
28999W        W 1259  36.175  20.063   5.169
29000W        W 1260   6.274  34.162  12.878
29001W        W 1261  24.262  29.729   2.574
29002W        W 1262  29.550  33.303   5.527
29003W        W 1263   0.701  44.070   4.048
29004W        W 1264  28.021  39.851  10.145
29005W        W 1265   4.326  28.200   0.542
29006W        W 1266  35.025  13.178   3.140
29007W        W 1267  34.899  28.142   4.603
29008W        W 1268  31.890  15.530  14.474
29009W        W 1269   7.232   8.053  10.689
29010W        W 1270  43.896  25.893   1.963
29011W        W 1271  10.538   2.748   2.358
29012W        W 1272   8.857  44.902  14.946
29013W        W 1273  17.114   9.508   4.034
29014W        W 1274  42.858  21.053  14.076
29015W        W 1275  43.447   0.805  11.532
29016W        W 1276  40.601  43.255   2.887
29017W        W 1277  10.072  31.406   2.327
29018W        W 1278  40.792  34.538  12.836
29019W        W 1279   1.701  33.461  12.098
29020W        W 1280   7.305  32.345   4.629
29021W        W 1281  22.344   7.084   4.507
29022W        W 1282  11.872   8.399   0.798
29023W        W 1283  29.665  36.920   0.383
29024W        W 1284  42.814  11.788  12.961
29025W        W 1285   8.307  14.868  13.827
29026W        W 1286  36.245  10.848  13.441
29027W        W 1287  17.162   2.723   1.197
29028W        W 1288  38.472   3.756   0.267
29029W        W 1289  15.836  41.486  10.278
29030W        W 1290  20.639  31.171  14.475
29031W        W 1291  36.347  11.829   4.064
29032W        W 1292   0.351   1.490   3.550
29033W        W 1293  26.455   4.933  14.256
29034W        W 1294  44.831   6.886  13.794
29035W        W 1295  31.923  24.075  14.740
29036W        W 1296  27.620  16.074   0.856
29037W        W 1297  32.544   9.679  14.775
29038W        W 1298  36.332  35.609  12.352
29039W        W 1299  21.861  42.866   0.695
29040W        W 1300  31.140  30.887  12.119
29041W        W 1301   9.674   5.637   0.349
29042W        W 1302  42.105  34.489   1.914
29043W        W 1303  35.214  20.639   2.902
29044W        W 1304  16.682   3.031  13.265
29045W        W 1305  39.114  28.178   0.998
29046W        W 1306  32.047  42.129   3.357
29047W        W 1307  25.503   0.243   3.733
29048W        W 1308  44.335  43.568   3.546
29049W        W 1309  19.582  42.047  10.644
29050W        W 1310   1.043  38.045  10.622
29051W        W 1311   4.721   3.174  12.460
29052W        W 1312  20.778   3.754  11.412
29053W        W 1313  17.788  25.544   2.146
29054W        W 1314  28.320  39.397   2.278
29055W        W 1315  36.432  41.082   3.303
29056W        W 1316   3.360  31.128  12.493
29057W        W 1317  31.597  31.620  10.905
29058W        W 1318   0.833  11.821   0.744
29059W        W 1319  22.654  43.746  10.691
29060W        W 1320  24.507  20.923   2.151
29061W        W 1321  29.187   7.464   1.852
29062W        W 1322   4.976  17.036   1.384
29063W        W 1323  26.666  15.022  12.144
29064W        W 1324  33.457  37.802   3.131
29065W        W 1325  33.398   0.958  14.051
29066W        W 1326  40.538  22.357  13.701
29067W        W 1327   1.474  34.323   0.102
29068W        W 1328  14.602  35.900  14.448
29069W        W 1329   6.466   1.339   1.029
29070W        W 1330  17.202   0.944   5.093
29071W        W 1331   6.622  36.428   1.771
29072W        W 1332   2.554  25.156  11.582
29073W        W 1333  21.753  26.713   0.391
29074W        W 1334  10.125  25.586  14.268
29075W        W 1335   5.792  12.858  12.442
29076W        W 1336  19.823   6.605  11.785
29077W        W 1337  37.884  39.392   0.851
29078W        W 1338  38.148  38.073  12.553
29079W        W 1339  32.915  20.021  12.098
29080W        W 1340  13.897  28.289   2.796
29081W        W 1341  33.580   7.189   3.300
29082W        W 1342  36.865   8.843   3.675
29083W        W 1343  42.429  42.881  12.989
29084W        W 1344   0.473  39.335  14.103
29085W        W 1345  17.558  34.653   1.946
29086W        W 1346  16.521  28.524  12.591
29087W        W 1347  14.909  16.598  12.511
29088W        W 1348  35.555   6.339  11.239
29089W        W 1349  44.493  28.991   2.787
29090W        W 1350   8.591   0.982   0.756
29091W        W 1351  20.253  11.844  14.716
29092W        W 1352  31.632  20.736  12.828
29093W        W 1353  32.495   5.831   3.728
29094W        W 1354  44.551  30.105  14.355
29095W        W 1355   9.321  40.857  11.918
29096W        W 1356  35.963  25.442  11.934
29097W        W 1357  24.986   0.610   0.097
29098W        W 1358  16.078  32.653  13.462
29099W        W 1359  41.985  42.364  14.450
29100W        W 1360   4.421   3.849   2.359
29101W        W 1361  35.123  11.013  12.810
29102W        W 1362  27.235   9.911   2.012
29103W        W 1363  15.095   6.771   2.268
29104W        W 1364  17.215  27.993  12.898
29105W        W 1365   1.899  16.751   0.949
29106W        W 1366  35.352  32.956  11.586
29107W        W 1367  16.400  28.594  14.428
29108W        W 1368   0.387  37.802   3.799
29109W        W 1369  32.904  38.951   0.902
29110W        W 1370  43.799  24.578   4.620
29111W        W 1371   9.698  35.989  11.142
29112W        W 1372  40.798   8.725   0.754
29113W        W 1373  37.394  38.878   2.875
29114W        W 1374  27.365  19.799   1.693
29115W        W 1375   5.782   8.855  12.390
29116W        W 1376  11.759   7.873   2.894
29117W        W 1377  34.937  37.847   1.849
29118W        W 1378  26.972  13.705   0.449
29119W        W 1379  12.603  27.880  11.875
29120W        W 1380  26.684   1.872   2.924
29121W        W 1381   5.808  18.708   0.292
29122W        W 1382  25.388   7.838   0.754
29123W        W 1383  42.808  36.995   0.763
29124W        W 1384  41.601  28.962  14.950
29125W        W 1385  28.608  28.052  14.498
29126W        W 1386  21.754  26.043  13.986
29127W        W 1387  33.038  32.235   2.469
29128W        W 1388  40.453   9.584   1.908
29129W        W 1389   2.430  35.668   1.230
29130W        W 1390   8.276  23.481  11.747
29131W        W 1391  35.564   9.696   0.857
29132W        W 1392  28.969  19.213  13.915
29133W        W 1393  25.116  22.775  12.572
29134W        W 1394  21.258  37.257   4.117
29135W        W 1395  31.562   6.784   3.311
29136W        W 1396  36.958  30.693   2.693
29137W        W 1397  42.488  17.160   3.307
29138W        W 1398  42.373  10.290  14.507
29139W        W 1399  40.237   6.141  14.279
29140W        W 1400  22.199  18.287   2.847
29141W        W 1401  20.166  16.793   4.155
29142W        W 1402  16.867   7.527  12.552
29143W        W 1403  15.943   4.167   2.689
29144W        W 1404  44.420  42.270  10.738
29145W        W 1405  29.460  35.439   2.622
29146W        W 1406  18.489   3.374   3.621
29147W        W 1407   3.940  41.325   1.960
29148W        W 1408   9.817   4.138   3.265
29149W        W 1409  33.692  25.214   3.265
29150W        W 1410  25.556  44.433  10.736
29151W        W 1411   8.266  11.592   0.906
29152W        W 1412  25.187  15.996   0.658
29153W        W 1413  16.309  26.606  11.163
29154W        W 1414  25.455  15.679   4.949
29155W        W 1415  37.433  38.551  12.186
29156W        W 1416  21.167  28.634   2.589
29157W        W 1417  24.138  30.402  12.347
29158W        W 1418  36.607   5.265  14.484
29159W        W 1419  34.057  42.571   2.512
29160W        W 1420  32.551  20.833  12.450
29161W        W 1421  40.316  24.514   4.472
29162W        W 1422  22.345  42.450   4.269
29163W        W 1423  27.872  44.350   0.817
29164W        W 1424  28.791   2.728   3.852
29165W        W 1425   3.919  32.086   3.675
29166W        W 1426   4.336  16.009   3.283
29167W        W 1427  35.853   6.444  14.483
29168W        W 1428  35.281  29.465  11.146
29169W        W 1429   3.862  36.657  14.281
29170W        W 1430   4.960  42.782  14.798
29171W        W 1431  11.854  38.944  10.672
29172W        W 1432  10.148   3.310  14.186
29173W        W 1433  23.611  12.642  11.479
29174W        W 1434  31.799  23.705  10.629
29175W        W 1435  29.445  35.310  10.452
29176W        W 1436  33.895  34.548   3.676
29177W        W 1437  26.738  41.881   5.392
29178W        W 1438  10.744  30.661   3.682
29179W        W 1439  31.496  23.226   2.415
29180W        W 1440  24.479  29.521  13.999
29181W        W 1441   8.813  44.213   0.346
29182W        W 1442   8.159  10.390   1.929
29183W        W 1443  22.345  18.737  13.613
29184W        W 1444   7.402  41.016   0.414
29185W        W 1445  44.914  29.404  10.987
29186W        W 1446  31.904  35.972  11.877
29187W        W 1447  42.144   2.866  11.093
29188W        W 1448  32.220   2.136  12.961
29189W        W 1449   0.734   5.484   1.742
29190W        W 1450  21.527  38.546   3.587
29191W        W 1451  35.463  38.354   1.313
29192W        W 1452  28.067  13.855   0.686
29193W        W 1453  42.843  40.217   5.034
29194W        W 1454  33.440  37.228   2.247
29195W        W 1455  13.652  32.976   1.513
29196W        W 1456  15.303  22.302  11.737
29197W        W 1457  34.395  11.847  13.895
29198W        W 1458   7.841  34.033  14.721
29199W        W 1459   4.934  26.531  11.122
29200W        W 1460   4.426  27.290   3.668
29201W        W 1461  34.964  43.498  13.927
29202W        W 1462  29.002  31.611   1.259
29203W        W 1463  14.565  24.647  11.619
29204W        W 1464  43.782  12.179   0.305
29205W        W 1465  21.594  32.127  11.395
29206W        W 1466  20.087  39.485   4.106
29207W        W 1467  16.774  37.186   4.537
29208W        W 1468  34.462  12.136  13.483
29209W        W 1469  38.232  39.417  13.114
29210W        W 1470  32.501  18.266  13.862
29211W        W 1471   8.032  15.571  10.514
29212W        W 1472  35.194   1.852   4.262
29213W        W 1473  41.794  22.109  10.637
29214W        W 1474  37.927  18.544  14.120
29215W        W 1475  39.394  44.933  12.197
29216W        W 1476  39.822   9.954  14.057
29217W        W 1477  33.519  30.686   1.686
29218W        W 1478  10.088  20.190  12.081
29219W        W 1479  20.274  27.460  10.254
29220W        W 1480  34.368  19.164  12.600
29221W        W 1481   2.204  15.876   0.832
29222W        W 1482   3.759  32.676   2.833
29223W        W 1483  14.285  37.012   9.847
29224W        W 1484   1.023  38.407  14.950
29225W        W 1485  13.286  31.469   3.725
29226W        W 1486  31.944  27.789  10.753
29227W        W 1487  18.739  12.217  11.089
29228W        W 1488   9.782   3.814  11.036
29229W        W 1489  28.002  17.174   4.157
29230W        W 1490   8.852  29.978  12.161
29231W        W 1491  29.125  20.562  13.250
29232W        W 1492  13.793  37.495   2.564
29233W        W 1493   4.915  16.248   2.269
29234W        W 1494  36.398  34.374  13.740
29235W        W 1495   2.376  37.065   0.460
29236W        W 1496   8.733  23.186  10.687
29237W        W 1497  38.558   8.365   2.124
29238W        W 1498  41.354  44.500   4.524
29239W        W 1499  40.666   5.422  14.317
29240W        W 1500  27.410  35.671  12.079
29241W        W 1501  43.619  14.291   3.405
29242W        W 1502  16.220  32.486  11.514
29243W        W 1503   2.750  17.044  14.078
29244W        W 1504  35.602  33.945  14.370
29245W        W 1505  38.439  30.195   1.986
29246W        W 1506  28.205   5.370   1.002
29247W        W 1507  11.333  42.114   1.357
29248W        W 1508  27.232  24.193  10.938
29249W        W 1509  34.950   1.629  13.805
29250W        W 1510   1.317  42.319  14.760
29251W        W 1511  17.160  44.277   2.816
29252W        W 1512  21.417  22.706   5.043
29253W        W 1513   7.455  20.136   2.698
29254W        W 1514  19.329  43.118  11.702
29255W        W 1515   4.964  22.578   2.728
29256W        W 1516   3.887  23.641  12.972
29257W        W 1517  19.912  27.993  11.367
29258W        W 1518  26.653   6.128  12.143
29259W        W 1519  29.049  41.874  12.604
29260W        W 1520   4.811  44.404  11.412
29261W        W 1521  26.133  14.284  11.644
29262W        W 1522  26.517  13.226  10.577
29263W        W 1523  19.073  41.775   4.335
29264W        W 1524  28.494  40.015  14.402
29265W        W 1525   6.359  23.483  14.426
29266W        W 1526  25.677  13.746  14.975
29267W        W 1527  28.631  40.919   3.949
29268W        W 1528  40.304  19.203  11.729
29269W        W 1529  33.843  37.984   3.415
29270W        W 1530  27.994  30.656  12.486
29271W        W 1531  39.379  43.947  12.185
29272W        W 1532  26.113  35.353  12.112
29273W        W 1533  23.226  21.353  10.704
29274W        W 1534  22.999  38.959   4.083
29275W        W 1535  12.089  44.876  10.653
29276W        W 1536  38.882  40.752  11.132
29277W        W 1537  28.743  21.361   0.849
29278W        W 1538  29.484  37.893   3.588
29279W        W 1539   7.291  28.087  14.440
29280W        W 1540  36.033  29.283   1.761
29281W        W 1541  24.777  28.915   3.198
29282W        W 1542  31.427  28.950  10.730
29283W        W 1543  35.965  44.701  13.146
29284W        W 1544   9.020   6.296  11.117
29285W        W 1545   4.442  33.319   0.443
29286W        W 1546  29.411  16.247   2.732
29287W        W 1547  13.850  29.342   4.702
29288W        W 1548  39.071  41.013   3.614
29289W        W 1549  23.865  17.946  10.255
29290W        W 1550  12.319  44.069   1.867
29291W        W 1551  39.253  12.070  12.003
29292W        W 1552  12.108   7.643   3.271
29293W        W 1553  12.151  15.607  13.360
29294W        W 1554   7.749  35.500  12.508
29295W        W 1555  16.069  31.382  10.562
29296W        W 1556  40.100  26.231  12.428
29297W        W 1557  20.265   0.870  12.073
29298W        W 1558   8.661  33.119  11.598
29299W        W 1559  16.216  22.098   4.952
29300W        W 1560  30.183  38.519   4.369
29301W        W 1561  36.815   0.852  13.768
29302W        W 1562  38.753  38.728   4.245
29303W        W 1563   8.692   1.449   0.975
29304W        W 1564  31.698  42.635   2.078
29305W        W 1565  27.580  24.108  12.140
29306W        W 1566  31.149  34.581  14.770
29307W        W 1567  30.397  20.153   2.793
29308W        W 1568  29.096  28.502  13.612
29309W        W 1569  28.514   3.692  12.425
29310W        W 1570  17.610  14.997   0.080
29311W        W 1571  13.310  16.038   1.311
29312W        W 1572   8.190   9.321  13.569
29313W        W 1573  11.588  38.588  12.631
29314W        W 1574  40.748   2.785   3.463
29315W        W 1575  24.295  43.555   3.152
29316W        W 1576  37.494  29.200   4.499
29317W        W 1577  43.858  24.747   3.339
29318W        W 1578  32.384  36.236  10.989
29319W        W 1579  34.537  33.345   1.891
29320W        W 1580  31.035  40.550   3.790
29321W        W 1581  25.457   6.603  14.460
29322W        W 1582   3.990  43.665   2.729
29323W        W 1583  43.170  22.209   2.667
29324W        W 1584  31.245  41.966  12.597
29325W        W 1585  21.237  38.973   4.058
29326W        W 1586  26.585   1.195   0.587
29327W        W 1587  19.291   3.954  12.494
29328W        W 1588  29.228   5.714  10.992
29329W        W 1589  26.175  38.019   0.957
29330W        W 1590  34.961   2.188  10.610
29331W        W 1591  26.522  40.361   0.875
29332W        W 1592  42.478  10.647   2.891
29333W        W 1593  39.925  43.069  11.478
29334W        W 1594  15.756  25.670   0.487
29335W        W 1595  24.206  27.189   4.564
29336W        W 1596  27.898   7.660  11.463
29337W        W 1597   5.485  30.127  11.119
29338W        W 1598  32.124   8.928  11.139
29339W        W 1599  33.138  43.023   3.770
29340W        W 1600  33.877  36.924   2.375
29341W        W 1601  24.570  29.622  12.525
29342W        W 1602  35.799   4.194  14.007
29343W        W 1603  20.160  33.882  12.492
29344W        W 1604  42.108   9.147   1.340
29345W        W 1605   7.250  33.126   0.535
29346W        W 1606  28.653   0.875  11.457
29347W        W 1607  32.040  24.296  12.339
29348W        W 1608  28.420  24.310  14.795
29349W        W 1609  39.933  36.958   3.583
29350W        W 1610  34.528  36.922   1.726
29351W        W 1611  13.219   5.248  14.156
29352W        W 1612  38.958  34.133  11.549
29353W        W 1613   8.824  25.939   3.646
29354W        W 1614  40.715   2.959   4.979
29355W        W 1615  23.978   8.679  13.542
29356W        W 1616  13.651  23.973  11.089
29357W        W 1617  28.426  20.955  10.721
29358W        W 1618  21.448  36.524   1.908
29359W        W 1619  30.904  32.029   5.057
29360W        W 1620  40.519  14.746   1.363
29361W        W 1621  37.983  23.422  11.989
29362W        W 1622  44.279  28.401  13.969
29363W        W 1623  32.459  33.372  12.285
29364W        W 1624  24.588  41.569   4.579
29365W        W 1625  17.613   8.745  12.678
29366W        W 1626  18.191  19.107   4.057
29367W        W 1627  30.882  16.149  14.780
29368W        W 1628  16.655  35.809  14.941
29369W        W 1629  16.334  14.629   4.092
29370W        W 1630  36.582  34.610   0.246
29371W        W 1631  17.936  17.075   1.840
29372W        W 1632  42.299  11.365  14.061
29373W        W 1633  15.134  34.119   4.004
29374W        W 1634  38.832  18.799  10.160
29375W        W 1635  27.480   2.551  11.601
29376W        W 1636  17.614  31.901   1.168
29377W        W 1637  14.865  20.174  11.088
29378W        W 1638   3.328  12.007   0.460
29379W        W 1639  22.226  30.722  14.805
29380W        W 1640  35.804  23.824   3.311
29381W        W 1641  36.240  18.499   9.743
29382W        W 1642   8.894  40.556  13.919
29383W        W 1643  17.254  12.520  13.042
29384W        W 1644   4.946  39.949   3.131
29385W        W 1645  37.577  30.931  12.583
29386W        W 1646  34.155  36.112  14.824
29387W        W 1647  28.054   1.505   0.773
29388W        W 1648  14.733  20.925   2.790
29389W        W 1649   1.224  39.520   0.267
29390W        W 1650   8.851  37.277   2.193
29391W        W 1651  31.573  37.991   2.673
29392W        W 1652  41.385  38.079   4.807
29393W        W 1653  30.504  22.964  13.497
29394W        W 1654  24.135  10.552  11.524
29395W        W 1655  12.357  43.581  11.973
29396W        W 1656  20.104  28.164  14.105
29397W        W 1657  19.584  24.958  11.132
29398W        W 1658  38.606   2.917  11.161
29399W        W 1659  21.513   2.845   3.189
29400W        W 1660  38.380  44.890   0.709
29401W        W 1661   4.610  25.903  13.856
29402W        W 1662  26.945  16.276  13.507
29403W        W 1663   6.199  44.960  14.000
29404W        W 1664   6.834  43.338   3.846
29405W        W 1665  34.242  34.141  14.359
29406W        W 1666  31.434  25.309  13.056
29407W        W 1667  28.082  15.266   4.677
29408W        W 1668   5.941  19.679  14.102
29409W        W 1669  32.803  16.712   3.227
29410W        W 1670  12.183  36.864  13.393
29411W        W 1671   3.977   5.948  13.507
29412W        W 1672  23.550   8.998  10.528
29413W        W 1673  40.837  31.230  13.135
29414W        W 1674  42.284  19.391  10.656
29415W        W 1675  26.515  25.683  13.494
29416W        W 1676  23.075  30.041   4.627
29417W        W 1677  24.207  22.003  12.478
29418W        W 1678   8.111  35.778  11.840
29419W        W 1679   3.928  25.236   0.381
29420W        W 1680  44.283  28.928  13.979
29421W        W 1681  43.209   9.316  13.569
29422W        W 1682   9.969  24.540  13.088
29423W        W 1683  36.578  27.186   1.921
29424W        W 1684  22.974  20.673   1.472
29425W        W 1685  10.158  28.991   0.721
29426W        W 1686  24.578   3.452   4.187
29427W        W 1687   5.261  23.238   2.668
29428W        W 1688   6.230   2.239   1.402
29429W        W 1689  41.740  35.192   1.418
29430W        W 1690   6.283  43.026   2.710
29431W        W 1691   9.751  40.266   2.692
29432W        W 1692   8.626   8.246  12.985
29433W        W 1693  29.337  24.581   1.256
29434W        W 1694  32.168  29.436  14.263
29435W        W 1695  22.478  11.254   0.904
29436W        W 1696  37.476  38.838  10.420
29437W        W 1697  25.098   0.559  13.110
29438W        W 1698  24.511  17.276  11.401
29439W        W 1699  42.490  20.583  11.405
29440W        W 1700   3.796  27.366   4.702
29441W        W 1701  44.233   0.802   3.787
29442W        W 1702  35.912  13.687   3.079
29443W        W 1703   5.334  37.860  10.686
29444W        W 1704  24.082  34.370  10.527
29445W        W 1705  21.616   8.462  13.565
29446W        W 1706  30.659  35.078  11.978
29447W        W 1707   8.678  24.998   1.412
29448W        W 1708   4.770  14.371  10.913
29449W        W 1709  36.510   7.928   3.230
29450W        W 1710   8.231  43.867  14.025
29451W        W 1711  30.276  42.861   4.217
29452W        W 1712  27.811   2.010  11.646
29453W        W 1713   9.041  32.559  10.534
29454W        W 1714  17.654  20.989   3.203
29455W        W 1715  17.345   5.411   0.865
29456W        W 1716   6.256  39.979   1.441
29457W        W 1717   9.718  35.816  10.591
29458W        W 1718   6.927  26.713  11.473
29459W        W 1719   8.202  42.184  11.483
29460W        W 1720  37.725  24.851   3.129
29461W        W 1721  32.964  17.792  12.583
29462W        W 1722   8.264   5.231  10.625
29463W        W 1723  22.736  21.976   0.343
29464W        W 1724  44.387  20.957   9.987
29465W        W 1725  12.643  39.139   3.635
29466W        W 1726  13.737  19.961   4.526
29467W        W 1727  19.926  30.948   4.172
29468W        W 1728  24.117  22.179  14.266
29469W        W 1729  23.519  16.700   1.050
29470W        W 1730  12.382  16.774   0.478
29471W        W 1731  44.372  42.790  10.737
29472W        W 1732   5.931  10.296  13.327
29473W        W 1733   9.348  15.724   0.350
29474W        W 1734   8.722   2.497   2.767
29475W        W 1735  11.836  26.415  14.735
29476W        W 1736  10.272   5.489  14.038
29477W        W 1737  39.247   9.897   2.341
29478W        W 1738  16.648  31.814  13.814
29479W        W 1739  41.107  20.597  11.101
29480W        W 1740  19.250   4.486   2.330
29481W        W 1741  34.815  20.363  13.802
29482W        W 1742  17.237  32.595   1.700
29483W        W 1743  20.727  37.684  13.603
29484W        W 1744  28.226  32.123   1.156
29485W        W 1745   7.991  39.611  10.727
29486W        W 1746  19.089  30.698   4.064
29487W        W 1747  21.734  39.473  14.795
29488W        W 1748  12.633   3.284  10.331
29489W        W 1749  24.454  35.600   2.156
29490W        W 1750  44.156  12.072  12.164
29491W        W 1751  40.812  16.866  13.038
29492W        W 1752  44.311  35.352   0.769
29493W        W 1753   6.957  15.796   0.189
29494W        W 1754  33.843   4.222  11.829
29495W        W 1755  27.612  22.161   3.944
29496W        W 1756  10.720   9.191  13.441
29497W        W 1757  31.232  17.957   2.876
29498W        W 1758  27.162   2.017   0.842
29499W        W 1759  42.034  14.277   0.744
29500W        W 1760  38.270  14.653   0.414
29501W        W 1761  36.564  34.589   4.081
29502W        W 1762  20.253  21.898  12.440
29503W        W 1763   9.308  39.175  12.435
29504W        W 1764  32.872  32.920  12.993
29505W        W 1765  13.607   2.933  12.113
29506W        W 1766  16.692  13.860   1.223
29507W        W 1767   3.368  41.589   2.894
29508W        W 1768   4.341  21.027   4.097
29509W        W 1769  13.432   1.680  13.503
29510W        W 1770  41.967  23.937   5.006
29511W        W 1771  19.611  11.890   1.759
29512W        W 1772   3.834  24.008  10.692
29513W        W 1773   2.297   7.354   3.661
29514W        W 1774  34.509   4.409   4.811
29515W        W 1775  41.774  33.285   3.780
29516W        W 1776  42.947  14.244   4.714
29517W        W 1777  18.516  34.559   1.291
29518W        W 1778  24.486   9.634   2.764
29519W        W 1779  19.299   4.428   1.267
29520W        W 1780   0.776  36.632  14.373
29521W        W 1781  20.758  13.313  12.417
29522W        W 1782  36.712   4.603   0.787
29523W        W 1783   5.680  36.936  10.596
29524W        W 1784   2.654   0.496  14.671
29525W        W 1785  18.443  32.416   1.253
29526W        W 1786  20.714  43.753  14.243
29527W        W 1787  15.360  20.097  11.113
29528W        W 1788  39.741  38.497  14.574
29529W        W 1789  24.990  38.941  13.898
29530W        W 1790  25.945  23.114  14.816
29531W        W 1791  17.697   5.789   2.629
29532W        W 1792  37.049  35.424   4.280
29533W        W 1793  32.979  18.989  11.951
29534W        W 1794  35.893  43.849   0.465
29535W        W 1795  34.326  21.275   3.423
29536W        W 1796  43.452  37.443  14.703
29537W        W 1797  16.316  37.142  14.870
29538W        W 1798  16.845  37.382  14.074
29539W        W 1799   7.425   8.066  11.526
29540W        W 1800  44.106   3.902   3.366
29541W        W 1801  35.537   1.932  14.006
29542W        W 1802  18.683  20.713   2.880
29543W        W 1803  20.958  25.003   1.390
29544W        W 1804  13.293  32.865  10.626
29545W        W 1805  38.435  13.961  11.128
29546W        W 1806  22.394  44.716   3.865
29547W        W 1807  10.627  25.574   4.624
29548W        W 1808   9.732   4.204   2.357
29549W        W 1809  26.147  24.966   0.110
29550W        W 1810  25.224  10.818   4.150
29551W        W 1811   2.781  43.123   0.841
29552W        W 1812  26.168  34.983   1.841
29553W        W 1813   5.977  32.372  11.388
29554W        W 1814   6.790   9.681  11.861
29555W        W 1815  11.219   2.792  10.447
29556W        W 1816  19.690  42.328  12.759
29557W        W 1817  26.189  27.736   0.353
29558W        W 1818  26.746  35.992   3.172
29559W        W 1819  14.788  34.656   4.744
29560W        W 1820  23.362  15.704   0.931
29561W        W 1821  42.369  11.573  11.696
29562W        W 1822  27.543  37.681   2.416
29563W        W 1823  26.560   1.287   2.092
29564W        W 1824  25.652  43.884  10.669
29565W        W 1825   5.800  36.115   3.278
29566W        W 1826  11.185  22.559  13.034
29567W        W 1827  30.676  34.395  14.973
29568W        W 1828   2.028   0.362  14.512
29569W        W 1829  23.525   7.610  11.162
29570W        W 1830  15.519   8.340   4.064
29571W        W 1831  19.074  19.463   2.201
29572W        W 1832  42.440  34.317  13.836
29573W        W 1833  14.780  41.875   1.811
29574W        W 1834  24.221  42.182  14.452
29575W        W 1835  10.548  31.861  11.187
29576W        W 1836  30.431  44.836   0.035
29577W        W 1837   4.879  29.088  14.086
29578W        W 1838  25.285  17.548  11.389
29579W        W 1839  16.869  43.548  14.920
29580W        W 1840  41.463  41.476   1.913
29581W        W 1841  11.916  13.392  13.024
29582W        W 1842  38.566  43.408  12.875
29583W        W 1843  12.138  27.529  10.281
29584W        W 1844  21.025  44.792  14.753
29585W        W 1845  16.282  35.407   4.498
29586W        W 1846  10.744  30.066   1.377
29587W        W 1847  31.652  21.510   5.128
29588W        W 1848   4.767  33.583  10.695
29589W        W 1849   8.843   4.246  10.444
29590W        W 1850  24.656  29.182  12.166
29591W        W 1851   6.174   4.291   1.851
29592W        W 1852  35.042  40.538   3.660
29593W        W 1853   1.729  10.343  11.502
29594W        W 1854  26.606  32.473   1.523
29595W        W 1855   8.746  40.457   3.232
29596W        W 1856  33.399  31.941  11.004
29597W        W 1857  32.239   8.002   2.158
29598W        W 1858  31.003   5.333   3.638
29599W        W 1859   0.619  24.343  12.161
29600W        W 1860  44.168  27.895  13.403
29601W        W 1861   4.742  37.562   1.957
29602W        W 1862   1.149  40.261  12.555
29603W        W 1863  21.293  20.696  11.034
29604W        W 1864  27.081  39.312  13.494
29605W        W 1865  31.598   1.335  10.651
29606W        W 1866  13.357  19.986  14.977
29607W        W 1867   4.369  40.403   4.873
29608W        W 1868  31.802  17.585   0.661
29609W        W 1869   6.044  24.259   4.633
29610W        W 1870  33.571  11.329  13.055
29611W        W 1871  37.447  14.309  11.471
29612W        W 1872  32.974  19.518  14.814
29613W        W 1873  16.783  32.544  11.151
29614W        W 1874   3.461  11.912   1.782
29615W        W 1875  43.838   1.440  10.653
29616W        W 1876  28.032   9.388  13.495
29617W        W 1877  32.418   0.351  12.793
29618W        W 1878  16.274   3.270   2.832
29619W        W 1879  11.606  27.549   0.608
29620W        W 1880  32.181  23.066  12.835
29621W        W 1881  13.648  21.584   0.954
29622W        W 1882   5.445  13.409   1.749
29623W        W 1883  24.551  12.479   2.461
29624W        W 1884  35.859   7.149  14.037
29625W        W 1885  21.138  12.053   4.148
29626W        W 1886  41.828  32.099  10.580
29627W        W 1887  20.206   4.235   2.348
29628W        W 1888  21.778  21.039   5.491
29629W        W 1889   8.704  17.846   1.251
29630W        W 1890  41.296  41.361  13.408
29631W        W 1891  44.668  17.065   2.072
29632W        W 1892  18.761   4.050   3.171
29633W        W 1893  22.814   8.655   1.901
29634W        W 1894  25.222   6.663  12.619
29635W        W 1895  27.978   8.266   5.074
29636W        W 1896  36.456  42.644  12.950
29637W        W 1897  12.568  26.972   2.664
29638W        W 1898   1.709  28.405  11.596
29639W        W 1899  31.499  27.522  13.823
29640W        W 1900  11.149   0.911  13.394
29641W        W 1901  32.852   1.265  12.455
29642W        W 1902  34.523   6.123   1.611
29643W        W 1903  27.990  33.854  12.587
29644W        W 1904  19.620  38.300   4.667
29645W        W 1905   5.406   5.430  14.327
29646W        W 1906  37.544  40.560  11.401
29647W        W 1907   9.831   8.855  12.977
29648W        W 1908  10.946  28.528  14.431
29649W        W 1909  27.663  43.345   4.106
29650W        W 1910  36.142   3.240   3.503
29651W        W 1911   2.335  40.435   2.141
29652W        W 1912  22.532  13.899  11.170
29653W        W 1913  26.469  30.381  12.421
29654W        W 1914  26.386  19.112   0.481
29655W        W 1915  33.199   2.170  11.655
29656W        W 1916  27.069  31.682   1.076
29657W        W 1917  30.601  16.280  11.054
29658W        W 1918  10.406   3.023  11.995
29659W        W 1919  30.764   8.814  14.286
29660W        W 1920   9.384  43.429   2.936
29661W        W 1921   5.667   7.404   0.739
29662W        W 1922  32.102  40.944   3.945
29663W        W 1923  41.177  37.548  14.304
29664W        W 1924  24.082   8.620  12.429
29665W        W 1925  43.484   7.912  13.821
29666W        W 1926  16.014   6.910   1.661
29667W        W 1927  13.399  30.458  11.145
29668W        W 1928  40.566  29.863  13.420
29669W        W 1929   6.444  41.718  14.481
29670W        W 1930  35.823   9.248   4.975
29671W        W 1931  12.102  16.998  14.529
29672W        W 1932   5.846  11.256   1.807
29673W        W 1933  19.325  15.728  14.450
29674W        W 1934  32.068  26.525  12.252
29675W        W 1935   7.987  18.818  11.858
29676W        W 1936  34.927  19.099  13.897
29677W        W 1937  23.583  31.497   2.772
29678W        W 1938  32.400   0.916   0.353
29679W        W 1939   7.912   5.617  14.989
29680W        W 1940  34.442   2.338   2.486
29681W        W 1941  11.214  13.828  11.665
29682W        W 1942  25.967  34.090   3.241
29683W        W 1943  11.832  26.180  13.439
29684W        W 1944  37.696  13.872  14.316
29685W        W 1945  25.175  18.843   4.160
29686W        W 1946   8.987  43.101   2.823
29687W        W 1947  15.961  18.805   0.157
29688W        W 1948  41.068  17.681  14.110
29689W        W 1949  34.402   2.427  10.829
29690W        W 1950   1.332  11.599  13.955
29691W        W 1951   0.681  39.816  10.664
29692W        W 1952  13.438   9.323  12.021
29693W        W 1953   4.986  28.475  13.883
29694W        W 1954  34.765  26.966  10.073
29695W        W 1955   8.734  34.579  14.955
29696W        W 1956  31.927  18.544  13.408
29697W        W 1957  28.494  19.110   3.615
29698W        W 1958  14.358  11.611  13.468
29699W        W 1959  28.075   2.199   4.721
29700W        W 1960  18.091  34.906  14.351
29701W        W 1961  30.025   2.535  13.247
29702W        W 1962  21.072  35.097  14.117
29703W        W 1963  12.748  39.052   2.765
29704W        W 1964  13.170  15.742   5.258
29705W        W 1965  12.262  37.341   4.544
29706W        W 1966  16.715  22.029   0.855
29707W        W 1967   0.862   1.094   5.303
29708W        W 1968  33.451  29.372  13.963
29709W        W 1969  10.866  23.995  13.906
29710W        W 1970  16.185   1.311   3.514
29711W        W 1971  25.902   0.970   3.070
29712W        W 1972  23.791   4.964   0.365
29713W        W 1973  31.392  22.274   0.721
29714W        W 1974  36.550  36.691  11.684
29715W        W 1975   3.054  42.373   2.472
29716W        W 1976  18.822  44.705   3.653
29717W        W 1977  18.733   7.797  10.006
29718W        W 1978  11.886  13.073   2.777
29719W        W 1979  15.604  34.949  14.269
29720W        W 1980  20.265  13.320   0.593
29721W        W 1981  28.183   1.306   4.742
29722W        W 1982  39.069   3.056  13.266
29723W        W 1983  34.878  14.700   2.211
29724W        W 1984  14.201  29.663   4.042
29725W        W 1985  16.571  41.788   1.210
29726W        W 1986  37.436   5.400   2.945
29727W        W 1987  31.867   4.874  10.547
29728W        W 1988  27.428   7.814   1.856
29729W        W 1989  31.980  19.634   0.261
29730W        W 1990  12.255  34.486  10.326
29731W        W 1991  15.678  36.605  14.958
29732W        W 1992  34.102  42.628   4.144
29733W        W 1993   5.142  25.933   3.446
29734W        W 1994  32.845  34.081  14.856
29735W        W 1995  11.184  27.464  13.026
29736W        W 1996  24.138  43.471  14.297
29737W        W 1997  24.473  33.677   0.314
29738W        W 1998  35.967   4.390   1.799
29739W        W 1999  16.827   2.978  11.828
29740W        W 2000  41.952  35.464  13.401
29741W        W 2001   8.821  38.472  12.538
29742W        W 2002  33.074  11.705  10.572
29743W        W 2003  23.679  41.880  12.090
29744W        W 2004  17.224  25.690   1.776
29745W        W 2005   0.109   0.045   3.228
29746W        W 2006   0.230   0.590   4.067
29747W        W 2007  15.693  30.308  13.806
29748W        W 2008  27.617  17.486   1.756
29749W        W 2009  20.289  27.395  14.743
29750W        W 2010   2.086   4.308   3.295
29751W        W 2011  32.615  26.613  12.435
29752W        W 2012  43.542  32.855   2.272
29753W        W 2013  17.325  29.108   1.204
29754W        W 2014  37.107  26.912   0.903
29755W        W 2015  31.397  17.564  11.654
29756W        W 2016  16.536  31.524   2.759
29757W        W 2017  15.058  25.492  14.227
29758W        W 2018   7.944  35.974  13.337
29759W        W 2019  14.556   7.565  12.642
29760W        W 2020  39.507  43.446   0.282
29761W        W 2021  30.649  16.300  13.778
29762W        W 2022   6.220  12.090  10.689
29763W        W 2023  14.825  11.817  13.362
29764W        W 2024  39.298  19.120   0.947
29765W        W 2025  11.673   4.232   3.191
29766W        W 2026  21.661  22.877   3.203
29767W        W 2027  18.547  16.762  14.910
29768W        W 2028  10.150  12.707  11.599
29769W        W 2029  15.653  19.011   2.348
29770W        W 2030  38.426  24.928  14.943
29771W        W 2031  27.050  41.340  10.835
29772W        W 2032  13.307  11.680   2.788
29773W        W 2033  34.581  37.795  11.261
29774W        W 2034  43.525  11.680  13.799
29775W        W 2035  31.964  27.496  14.733
29776W        W 2036   3.428  34.853   2.335
29777W        W 2037  25.572  38.918  12.838
29778W        W 2038  21.528  20.572   2.920
29779W        W 2039   1.772  32.618  11.030
29780W        W 2040   1.226   0.431   0.932
29781W        W 2041   7.183  41.281   1.720
29782W        W 2042  29.083  24.827   4.065
29783W        W 2043  39.571  29.421  13.149
29784W        W 2044  14.193  19.036   0.823
29785W        W 2045  40.950  29.587   2.454
29786W        W 2046   9.407  10.437   5.062
29787W        W 2047   3.910  19.067  11.273
29788W        W 2048  25.001   1.410   2.211
29789W        W 2049  24.235  14.622  11.935
29790W        W 2050  40.773  20.668  13.344
29791W        W 2051  34.967   0.346  13.513
29792W        W 2052  24.544  39.789   4.145
29793W        W 2053  26.004  37.217  12.618
29794W        W 2054   4.145  18.254  12.527
29795W        W 2055  29.165  13.759  11.980
29796W        W 2056  33.502   8.254   1.329
29797W        W 2057  37.924  16.704   3.861
29798W        W 2058   9.230  11.393   2.218
29799W        W 2059   8.993  21.224   0.210
29800W        W 2060  26.401   4.425  14.390
29801W        W 2061  37.482  32.235  10.929
29802W        W 2062  37.427   2.782   4.840
29803W        W 2063  13.350  16.256   4.505
29804W        W 2064  40.640  38.382  14.630
29805W        W 2065  32.567  27.506   2.761
29806W        W 2066  31.361   2.820   1.700
29807W        W 2067  35.694  14.535   1.008
29808W        W 2068  19.921  24.230   0.973
29809W        W 2069  43.171  30.052   1.961
29810W        W 2070  35.715  10.373  10.834
29811W        W 2071  16.884  32.626   4.065
29812W        W 2072  33.215  24.581  10.577
29813W        W 2073  11.948  43.014   1.248
29814W        W 2074  24.539  13.948   1.397
29815W        W 2075  13.735  34.017   4.888
29816W        W 2076   7.845  37.303  11.464
29817W        W 2077  33.522  43.060  14.102
29818W        W 2078  34.041   5.332   3.957
29819W        W 2079  43.884  37.939   4.578
29820W        W 2080   5.213  26.098  11.159
29821W        W 2081  27.145  31.043  12.480
29822W        W 2082  34.760  13.410  14.534
29823W        W 2083  24.475   4.211   1.441
29824W        W 2084  17.295  33.056  10.393
29825W        W 2085  29.860   3.357  12.593
29826W        W 2086  28.128  25.697  10.570
29827W        W 2087  10.741  25.000  13.093
29828W        W 2088  14.313  10.373  14.879
29829W        W 2089  35.904  44.937   1.081
29830W        W 2090  39.476  36.287   4.093
29831W        W 2091  30.031  22.997   3.963
29832W        W 2092  29.708  42.409  13.053
29833W        W 2093  11.224  18.056  14.422
29834W        W 2094  36.428   6.326  10.719
29835W        W 2095  19.633  32.898   4.525
29836W        W 2096   9.160   4.228   0.710
29837W        W 2097  26.704  19.040   1.357
29838W        W 2098  24.478  40.792  14.755
29839W        W 2099  44.180  20.081  12.080
29840W        W 2100  17.715  26.559   1.912
29841W        W 2101   8.385  40.891   4.479
29842W        W 2102  44.397   4.674   0.481
29843W        W 2103  19.541  17.033   0.858
29844W        W 2104  27.777  42.650  14.074
29845W        W 2105  25.739   6.376  14.929
29846W        W 2106  20.717  26.751   2.263
29847W        W 2107  38.962  32.599  14.376
29848W        W 2108  20.367  14.798  14.287
29849W        W 2109   3.858  14.760  12.080
29850W        W 2110  28.707  18.287  13.833
29851W        W 2111   1.934  24.540  11.443
29852W        W 2112  40.230  10.305  12.000
29853W        W 2113  36.497  12.252  14.547
29854W        W 2114   0.644  33.022  14.103
29855W        W 2115  44.338  36.766   4.203
29856W        W 2116  43.502   3.278   1.830
29857W        W 2117  22.464  13.599   0.863
29858W        W 2118  12.251  33.057   0.331
29859W        W 2119  23.617  43.482   2.766
29860W        W 2120  13.858  12.726   1.952
29861W        W 2121  43.819  17.320   0.643
29862W        W 2122  10.850   8.711  12.585
29863W        W 2123  19.473   2.420   0.518
29864W        W 2124  44.914  32.477   4.519
29865W        W 2125  18.330   0.688  11.584
29866W        W 2126  12.373  28.630   0.281
29867W        W 2127  35.960  16.789   4.689
29868W        W 2128   3.213  15.614   1.682
29869W        W 2129  13.343  36.916   1.806
29870W        W 2130   7.863   1.956   1.808
29871W        W 2131  22.833  38.996  11.552
29872W        W 2132  24.996  40.906  10.630
29873W        W 2133  20.537  30.894   1.935
29874W        W 2134   6.327   2.009   2.228
29875W        W 2135  24.281   4.738   9.990
29876W        W 2136  25.027  24.055  11.982
29877W        W 2137   9.324  29.351  13.798
29878W        W 2138  41.812  17.468  12.383
29879W        W 2139  15.349  18.822   3.577
29880W        W 2140  35.922  19.466  14.918
29881W        W 2141   1.897  10.678  10.628
29882W        W 2142   0.343  33.991  11.242
29883W        W 2143   4.614  43.860  10.728
29884W        W 2144  43.895  41.365  10.783
29885W        W 2145  20.137  11.309  12.954
29886W        W 2146  35.438  41.317   2.779
29887W        W 2147  13.224  22.729  13.798
29888W        W 2148   0.858  14.763   0.242
29889W        W 2149  20.332  14.867   1.342
29890W        W 2150  31.446  15.791  11.907
29891W        W 2151  25.458   9.450  14.637
29892W        W 2152  41.129  22.924  14.294
29893W        W 2153  29.115  12.094   3.275
29894W        W 2154   1.398  12.628   2.754
29895W        W 2155  19.213  41.850   2.347
29896W        W 2156   7.248  11.129   4.547
29897W        W 2157  34.387  38.006  12.621
29898W        W 2158  37.767  44.160  12.130
29899W        W 2159  21.236  34.033  12.407
29900W        W 2160  14.114  24.512   2.241
29901W        W 2161  43.402  29.634  12.425
29902W        W 2162  37.959  25.888   1.147
29903W        W 2163   5.503  31.109  11.604
29904W        W 2164   9.583  40.667   4.179
29905W        W 2165  38.408  32.109  13.563
29906W        W 2166   4.075   8.777   1.666
29907W        W 2167  16.615  12.382   4.602
29908W        W 2168   0.654  10.369   2.846
29909W        W 2169   0.364  43.134  11.506
29910W        W 2170  35.988  22.493  12.387
29911W        W 2171   4.031  22.239   3.551
29912W        W 2172  32.680  11.424   2.137
29913W        W 2173   3.718  22.419  14.976
29914W        W 2174  12.234  19.775   0.545
29915W        W 2175  37.385  31.179  13.015
29916W        W 2176   6.787   3.026  11.883
29917W        W 2177  14.235  44.031   2.697
29918W        W 2178  23.052   0.945   0.854
29919W        W 2179  14.385  27.625   5.114
29920W        W 2180  41.370  37.305  13.869
29921W        W 2181  11.861  40.445   2.360
29922W        W 2182  40.333   2.749   2.202
29923W        W 2183  41.248   3.294   2.726
29924W        W 2184  29.292   4.392   1.766
29925W        W 2185   0.756  31.935   0.973
29926W        W 2186  19.807  31.811   0.339
29927W        W 2187  19.958   4.610  11.613
29928W        W 2188   5.976  18.296  14.404
29929W        W 2189  30.130  22.144  13.688
29930W        W 2190  26.490  16.609  12.481
29931W        W 2191  35.411  20.656  12.661
29932W        W 2192  17.633   7.876  14.024
29933W        W 2193  40.432  11.944  14.225
29934W        W 2194   1.751   0.541   3.320
29935W        W 2195   5.275  44.544  14.794
29936W        W 2196  23.388  32.551   2.787
29937W        W 2197  16.140  10.497   4.969
29938W        W 2198  29.451  30.380  10.673
29939W        W 2199  21.291  20.949  10.251
29940W        W 2200  43.921  27.928   1.603
29941W        W 2201  28.205  33.445   0.784
29942W        W 2202  16.255  13.513   2.768
29943W        W 2203   4.315  22.266   1.402
29944W        W 2204  28.233  39.943   5.042
29945W        W 2205  18.839   0.614  14.470
29946W        W 2206   9.766  44.702   4.741
29947W        W 2207  23.966   7.426  13.574
29948W        W 2208  35.083  13.946  11.038
29949W        W 2209  40.950  24.470   3.147
29950W        W 2210  10.784  44.389   4.293
29951W        W 2211   6.187   9.177   1.211
29952W        W 2212   2.451  13.459   2.843
29953W        W 2213  44.671  38.888   4.302
29954W        W 2214  32.361   0.724   4.497
29955W        W 2215   6.726  20.767   0.380
29956W        W 2216  34.432  11.654  14.562
29957W        W 2217  11.786   9.219  14.905
29958W        W 2218  44.128  39.742   2.727
29959W        W 2219  26.446  40.956   3.636
29960W        W 2220  14.751  10.421  13.957
29961W        W 2221  42.011  43.216   4.491
29962W        W 2222  26.003   0.076  12.938
29963W        W 2223  13.760   5.162  11.533
29964W        W 2224  37.535  15.727   4.386
29965W        W 2225  17.364  25.293  12.513
29966W        W 2226   7.226   8.687   2.706
29967W        W 2227  22.935   5.334  13.870
29968W        W 2228  24.112  15.405  14.946
29969W        W 2229  11.813  22.024  10.594
29970W        W 2230  22.291  20.409  12.009
29971W        W 2231   7.318  22.573  10.728
29972W        W 2232   5.410   0.040   3.847
29973W        W 2233  41.690  24.483  14.600
29974W        W 2234  26.503  16.562  13.603
29975W        W 2235  27.015  41.029  11.635
29976W        W 2236  12.305  35.896  10.721
29977W        W 2237  35.171  13.610   2.329
29978W        W 2238  42.294  29.685   3.699
29979W        W 2239  38.029  38.039   0.864
29980W        W 2240  42.490  43.935  13.037
29981W        W 2241   0.780  22.556  11.147
29982W        W 2242  33.422  11.578   2.708
29983W        W 2243   0.258  32.180   1.270
29984W        W 2244  22.269  26.395   4.389
29985W        W 2245  43.122  20.523  12.783
29986W        W 2246  28.021  42.724  14.895
29987W        W 2247  44.835   8.910   2.773
29988W        W 2248   8.969  19.394  10.285
29989W        W 2249  37.898  25.694  10.504
29990W        W 2250  11.931   6.906   0.408
29991W        W 2251   3.892   7.216   5.332
29992W        W 2252   7.929  39.928  14.404
29993W        W 2253  24.670  16.748  11.577
29994W        W 2254  33.665   6.289  13.958
29995W        W 2255  21.763  29.461   3.268
29996W        W 2256  42.383  10.206  13.194
29997W        W 2257   6.340  20.800  13.140
29998W        W 2258  41.504  21.815  14.578
29999W        W 2259  25.574  12.500  11.142
30000W        W 2260  33.609  37.622   0.396
30001W        W 2261   2.086   3.990   0.334
30002W        W 2262  31.422  19.613  12.498
30003W        W 2263  26.501  12.722   0.345
30004W        W 2264  42.971  43.868   2.589
30005W        W 2265  33.546  31.683  14.496
30006W        W 2266   5.635  26.553  10.485
30007W        W 2267  33.116   8.121   3.237
30008W        W 2268   9.101   9.053  13.492
30009W        W 2269  24.738  14.931  10.948
30010W        W 2270   4.523   9.458  11.897
30011W        W 2271  31.604  28.679   1.751
30012W        W 2272  43.004  41.247  10.995
30013W        W 2273  27.235  42.070  14.573
30014W        W 2274  14.596  32.040  13.076
30015W        W 2275   1.317  16.864  10.642
30016W        W 2276  39.225  37.631  10.399
30017W        W 2277  26.535  35.384   1.327
30018W        W 2278  13.918  34.614   1.362
30019W        W 2279   0.653  21.293  12.396
30020W        W 2280  32.469  38.666  10.736
30021W        W 2281  25.109  24.481   4.686
30022W        W 2282   4.259   9.987  11.132
30023W        W 2283  42.993  11.804   4.151
30024W        W 2284  24.580  37.311   1.361
30025W        W 2285  30.451  14.339  11.117
30026W        W 2286  36.741  31.185  10.659
30027W        W 2287  13.154  38.010   4.570
30028W        W 2288  40.997   6.253   1.937
30029W        W 2289   7.886  37.356  12.449
30030W        W 2290   4.687  18.308   4.526
30031W        W 2291  36.181  17.602   4.131
30032W        W 2292  19.062  26.969   4.104
30033W        W 2293  42.388  41.370   3.773
30034W        W 2294  36.153   2.525   5.061
30035W        W 2295  43.511  43.723   3.217
30036W        W 2296   1.708   4.363   4.845
30037W        W 2297   0.481  34.041  10.758
30038W        W 2298   3.759  15.559  12.678
30039W        W 2299  11.652  37.892  12.169
30040W        W 2300   7.650  29.667   4.162
30041W        W 2301  25.666  13.674  12.345
30042W        W 2302  19.025  14.388  11.550
30043W        W 2303  34.989  44.382   1.137
30044W        W 2304   6.854  37.095  14.416
30045W        W 2305   8.312   8.321  13.406
30046W        W 2306   5.941   5.322   3.430
30047W        W 2307   2.029  18.701  13.009
30048W        W 2308  14.408   4.312   2.886
30049W        W 2309  42.716  20.075   2.394
30050W        W 2310   0.917  44.763  14.928
30051W        W 2311  11.863   2.713   4.331
30052W        W 2312  36.997  11.743  10.829
30053W        W 2313   3.772   1.469  13.550
30054W        W 2314   5.514  25.966   2.268
30055W        W 2315   0.954  29.932  10.390
30056W        W 2316  34.700   4.445  10.749
30057W        W 2317   7.885   8.886   0.440
30058W        W 2318  21.535  24.197   5.070
30059W        W 2319   3.180   0.433  13.776
30060W        W 2320  37.264   8.247  10.228
30061W        W 2321  34.468   6.631   3.193
30062W        W 2322   8.839  36.359   1.344
30063W        W 2323  27.004   3.697   3.046
30064W        W 2324   7.624  31.652   0.828
30065W        W 2325  20.525  11.399   1.014
30066W        W 2326  17.617  26.423  13.963
30067W        W 2327  10.686  36.051   2.114
30068W        W 2328  41.920  44.802   4.622
30069W        W 2329  21.335   7.991   2.829
30070W        W 2330   2.373  32.181   3.129
30071W        W 2331  22.182  38.395   2.693
30072W        W 2332  25.645   8.851   5.023
30073W        W 2333  41.013  42.878   3.771
30074W        W 2334  30.713  13.524   2.097
30075W        W 2335   6.712  19.631  14.314
30076W        W 2336  20.606   4.142   0.474
30077W        W 2337  28.024  43.262  14.905
30078W        W 2338  30.935  19.085  12.792
30079W        W 2339   8.038   6.314  13.765
30080W        W 2340  13.864  44.233   0.723
30081W        W 2341  18.186  33.482  14.403
30082W        W 2342  33.704  22.701   4.437
30083W        W 2343  29.982  36.015   3.624
30084W        W 2344  15.647  19.256   3.261
30085W        W 2345   8.778  15.354   2.164
30086W        W 2346  24.839  10.563   5.181
30087W        W 2347  12.387  31.245   0.054
30088W        W 2348   5.819  31.573  10.542
30089W        W 2349  34.210  43.317  10.755
30090W        W 2350  24.043  27.392  14.964
30091W        W 2351  43.403   0.410   4.295
30092W        W 2352  11.843  10.883  14.124
30093W        W 2353  24.506  24.195   0.340
30094W        W 2354  14.698  30.346  11.619
30095W        W 2355  44.894  15.876   1.547
30096W        W 2356  25.023  33.614   1.184
30097W        W 2357   5.952  13.425  12.453
30098W        W 2358  40.941  37.335   2.758
30099W        W 2359  17.188   1.407   0.703
30100W        W 2360  24.607  38.998   1.158
30101W        W 2361  11.762  23.686  11.189
30102W        W 2362   9.611  21.173  11.948
30103W        W 2363  41.523  13.187  11.655
30104W        W 2364  41.458  26.888   0.517
30105W        W 2365  21.133   7.330   0.959
30106W        W 2366  36.781  31.201   3.085
30107W        W 2367   7.032  33.921   4.229
30108W        W 2368  27.660   5.246   2.412
30109W        W 2369  29.893   4.517   2.148
30110W        W 2370  32.343  12.159  10.804
30111W        W 2371  35.334   9.902   3.328
30112W        W 2372  39.336  28.641   1.818
30113W        W 2373  21.401  31.526  13.928
30114W        W 2374  22.477  37.500   3.789
30115W        W 2375   8.888   5.982  12.850
30116W        W 2376  41.866  21.043  13.162
30117W        W 2377  22.285  34.079   2.824
30118W        W 2378  22.370  14.438  12.038
30119W        W 2379  15.710  11.047  11.272
30120W        W 2380  18.299  13.085   3.301
30121W        W 2381  35.922  35.429  14.307
30122W        W 2382  35.880  33.542   0.038
30123W        W 2383  16.335  39.899  14.404
30124W        W 2384  22.021  35.956  13.802
30125W        W 2385  22.581   4.148  11.059
30126W        W 2386  32.836  28.500  12.445
30127W        W 2387  18.747   7.293  10.637
30128W        W 2388  21.601  10.428  11.042
30129W        W 2389  10.687   5.480   0.273
30130W        W 2390  15.485   9.222   0.280
30131W        W 2391  16.244  24.689  13.454
30132W        W 2392  42.128  43.559  11.314
30133W        W 2393   2.912   1.650  11.071
30134W        W 2394   3.603  10.110   0.671
30135W        W 2395  19.833  10.634  13.450
30136W        W 2396   6.852  16.599  13.095
30137W        W 2397  10.709  23.508   1.015
30138W        W 2398   4.830   5.642  10.769
30139W        W 2399   6.777  36.265  10.588
30140W        W 2400  33.210   2.839   2.163
30141W        W 2401  13.106   2.519  12.958
30142W        W 2402  34.441   8.395  12.300
30143W        W 2403  16.440  14.507  12.101
30144W        W 2404  17.119  21.531  12.911
30145W        W 2405  21.828  19.950   4.820
30146W        W 2406  37.408   7.878   0.367
30147W        W 2407  30.484  14.418  14.401
30148W        W 2408  33.506  15.226   2.515
30149W        W 2409  26.351  41.269   0.401
30150W        W 2410   7.664  22.242   2.843
30151W        W 2411  11.174  29.870   3.175
30152W        W 2412   7.771  19.748  14.255
30153W        W 2413  19.633  31.599   1.730
30154W        W 2414  41.093   4.007  10.424
30155W        W 2415  21.664  11.516  12.843
30156W        W 2416   0.739  17.643  12.904
30157W        W 2417  42.012  27.589  11.653
30158W        W 2418  31.730   3.954  14.381
30159W        W 2419  22.537  15.432   0.249
30160W        W 2420  19.821  13.052  14.225
30161W        W 2421  41.121  25.721   4.120
30162W        W 2422   2.514  14.839   4.010
30163W        W 2423  20.251  40.003  12.050
30164W        W 2424   5.258  18.634   3.671
30165W        W 2425  17.660  20.039   1.750
30166W        W 2426  38.070  14.430  14.959
30167W        W 2427   4.926  30.166   4.224
30168W        W 2428  29.420  26.924  14.310
30169W        W 2429  10.287  10.179  13.045
30170W        W 2430   0.402  22.578   3.176
30171W        W 2431   1.165  28.811   3.292
30172W        W 2432  15.287  29.231   4.915
30173W        W 2433  43.151  11.642   2.396
30174W        W 2434  16.756   0.965   4.617
30175W        W 2435  23.230  41.002   2.165
30176W        W 2436  41.981  39.882   4.109
30177W        W 2437  42.390  41.088  13.367
30178W        W 2438  31.522  10.216  10.990
30179W        W 2439  41.031   7.692   3.408
30180W        W 2440   7.275  12.917   3.147
30181W        W 2441  33.407  15.786  12.106
30182W        W 2442  23.208  20.979   2.398
30183W        W 2443  12.136  37.103   2.236
30184W        W 2444  40.590   7.843   4.304
30185W        W 2445  15.562   8.436   2.269
30186W        W 2446  31.385   7.199   4.684
30187W        W 2447  22.137  18.280  14.035
30188W        W 2448  43.511  22.583   1.866
30189W        W 2449  39.616  37.398   3.349
30190W        W 2450   5.408  37.993  11.578
30191W        W 2451  16.019   2.790  14.502
30192W        W 2452   5.989  27.578  13.016
30193W        W 2453   4.173  25.720   1.761
30194W        W 2454  36.910   8.786  14.826
30195W        W 2455  29.930  24.101  10.693
30196W        W 2456  30.377   4.218   1.033
30197W        W 2457   7.106   5.817  13.317
30198W        W 2458  21.840  39.989   3.803
30199W        W 2459  10.175  27.519   1.702
30200W        W 2460  15.749  39.478   3.784
30201W        W 2461  13.928  13.199  13.947
30202W        W 2462  40.506   0.228   0.924
30203W        W 2463  42.399  15.757  10.596
30204W        W 2464  30.858  39.701  11.405
30205W        W 2465  43.364  24.484  14.796
30206W        W 2466  23.565  41.601   0.398
30207W        W 2467  43.545  28.961  14.223
30208W        W 2468  34.396   9.732   2.625
30209W        W 2469  19.752  10.914  12.965
30210W        W 2470  18.108  19.859  12.448
30211W        W 2471  32.497  33.465   3.729
30212W        W 2472  39.330  10.811  13.292
30213W        W 2473   6.265  31.938  11.376
30214W        W 2474   2.365  32.394  11.677
30215W        W 2475   5.476  17.276   0.225
30216W        W 2476  13.006  39.520   3.643
30217W        W 2477  42.571  17.026  13.565
30218W        W 2478  41.350   8.121  13.351
30219W        W 2479  22.478  29.386  12.825
30220W        W 2480  32.177  31.985  11.610
30221W        W 2481  13.483   1.994  10.305
30222W        W 2482  43.690  33.678  11.419
30223W        W 2483  36.185  23.796  11.590
30224W        W 2484  33.669  44.972  12.486
30225W        W 2485  29.282  25.571  11.176
30226W        W 2486  27.197  22.017  12.831
30227W        W 2487  28.690  29.455  12.339
30228W        W 2488  33.904  34.067   3.852
30229W        W 2489   2.722   9.831  13.020
30230W        W 2490  10.789  20.368  13.354
30231W        W 2491  39.388  35.168   1.441
30232W        W 2492  44.765  41.052   1.778
30233W        W 2493  43.777  11.091  13.018
30234W        W 2494  33.912   4.700   3.280
30235W        W 2495  31.557  37.664  13.964
30236W        W 2496  32.910   9.138  13.069
30237W        W 2497  16.344  10.678   0.959
30238W        W 2498  39.198  34.381   0.762
30239W        W 2499  34.858  39.283   4.596
30240W        W 2500  28.431  42.862   3.301
30241W        W 2501  31.108  17.623   3.665
30242W        W 2502  13.324  34.297   4.720
30243W        W 2503  11.427  43.015   1.215
30244W        W 2504  41.103  38.116  13.095
30245W        W 2505   9.103  36.854  12.925
30246W        W 2506  37.428  27.232  14.416
30247W        W 2507  32.077   5.415  12.693
30248W        W 2508  10.199   4.364   1.652
30249W        W 2509  35.868   3.895   3.284
30250W        W 2510   6.836  16.110  11.978
30251W        W 2511  40.642  44.545   5.008
30252W        W 2512  37.964  19.808   0.488
30253W        W 2513  40.998  39.287  12.504
30254W        W 2514  30.336  25.648  11.196
30255W        W 2515  44.770  23.764  13.662
30256W        W 2516  42.980  16.574  14.277
30257W        W 2517  37.195  31.599   0.938
30258W        W 2518  39.587   1.976  14.447
30259W        W 2519  41.588  12.682  11.599
30260W        W 2520  36.486  40.266  12.760
30261W        W 2521  25.029  17.197   4.314
30262W        W 2522  37.434  21.508   4.705
30263W        W 2523   9.764  21.621   1.266
30264W        W 2524  13.907  14.098   2.969
30265W        W 2525  43.599  40.555   4.205
30266W        W 2526   3.774  30.084  11.369
30267W        W 2527  14.194  13.126  14.450
30268W        W 2528  41.326   9.670   1.318
30269W        W 2529  14.108   9.211  13.955
30270W        W 2530   5.580  12.582   4.905
30271W        W 2531   8.278  10.581   2.791
30272W        W 2532  25.450  35.907  12.456
30273W        W 2533  36.975  40.800   4.338
30274W        W 2534  15.710  42.692   3.156
30275W        W 2535  31.189  24.440   0.365
30276W        W 2536  39.014  21.361  11.155
30277W        W 2537  29.155  43.496   0.383
30278W        W 2538   5.506  18.635  14.856
30279W        W 2539   5.509   1.376  12.054
30280W        W 2540   3.677  40.140   4.267
30281W        W 2541  36.498  36.310   0.938
30282W        W 2542  37.854  43.765  12.920
30283W        W 2543  43.779  14.887  14.008
30284W        W 2544   2.320  31.694   3.670
30285W        W 2545  23.604  38.413   4.538
30286W        W 2546  30.170  35.098   3.089
30287W        W 2547  10.286  34.788   1.803
30288W        W 2548  43.528  32.574  10.502
30289W        W 2549   0.455  40.288  12.025
30290W        W 2550  29.925  23.053   1.871
30291W        W 2551  24.265  22.622   2.840
30292W        W 2552   4.235  21.265  12.472
30293W        W 2553   6.174   6.369  10.623
30294W        W 2554  33.015  36.536   0.171
30295W        W 2555  14.378  10.276   3.752
30296W        W 2556  27.468  22.842  10.673
30297W        W 2557  12.654  33.637   4.555
30298W        W 2558  30.237   4.805   0.887
30299W        W 2559  34.409  43.273  13.781
30300W        W 2560  21.406  29.121   4.608
30301W        W 2561  41.484  15.765  12.463
30302W        W 2562  37.965  30.999  11.280
30303W        W 2563  22.497  34.965  14.310
30304W        W 2564  25.005  30.880   2.250
30305W        W 2565  20.949  11.358   1.800
30306W        W 2566  36.846  37.783  12.499
30307W        W 2567  16.808  32.609  12.385
30308W        W 2568   2.235  39.637   3.283
30309W        W 2569  27.106  16.134  13.985
30310W        W 2570  27.427  16.075  13.534
30311W        W 2571  39.772  34.953   2.818
30312W        W 2572   1.541  14.665   4.180
30313W        W 2573  26.582  24.523  14.176
30314W        W 2574  39.355  29.463  14.706
30315W        W 2575  17.619  34.483   0.276
30316W        W 2576  20.021  28.418  13.660
30317W        W 2577  22.710  27.989  12.569
30318W        W 2578   7.946  35.077   2.265
30319W        W 2579  22.458  10.360  11.052
30320W        W 2580  36.835  23.975   3.154
30321W        W 2581   3.711   2.526  10.712
30322W        W 2582   3.840  10.115  13.312
30323W        W 2583  26.944  13.298  14.041
30324W        W 2584  13.628  19.731  14.604
30325W        W 2585   7.290  31.101  12.423
30326W        W 2586  24.510   3.883  11.584
30327W        W 2587  30.615   1.882  13.103
30328W        W 2588   2.674  23.183  12.758
30329W        W 2589  25.677  24.967  14.365
30330W        W 2590   1.149  34.453  14.337
30331W        W 2591  44.486  44.079  14.277
30332W        W 2592  25.743  30.380   0.700
30333W        W 2593  37.448  40.944   0.696
30334W        W 2594   6.206  14.070  13.588
30335W        W 2595  22.147  35.021  12.074
30336W        W 2596  22.571  16.706   1.886
30337W        W 2597  13.146  40.524  13.988
30338W        W 2598   0.974  40.124   1.288
30339W        W 2599   0.130  36.450   4.610
30340W        W 2600  15.374  43.975   0.907
30341W        W 2601  25.687   4.211  13.119
30342W        W 2602  37.334   3.181  14.019
30343W        W 2603  11.098   7.776   0.784
30344W        W 2604  37.104   2.346  10.753
30345W        W 2605  27.806  32.411  10.134
30346W        W 2606  26.601  34.375  12.531
30347W        W 2607   4.613  12.285  14.521
30348W        W 2608  20.322  18.105   2.449
30349W        W 2609  17.592  28.923  10.745
30350W        W 2610  36.846  11.355  14.480
30351W        W 2611   7.882   4.281   3.065
30352W        W 2612  38.004   8.355   4.355
30353W        W 2613  23.273   2.323  14.235
30354W        W 2614  12.376  24.702   0.886
30355W        W 2615   8.451   8.834  10.673
30356W        W 2616   4.315  20.657  13.383
30357W        W 2617  43.698   2.725   4.645
30358W        W 2618  17.133  40.883   2.060
30359W        W 2619   4.788  37.090   1.738
30360W        W 2620   6.554   0.322  10.767
30361W        W 2621   9.331  34.506   1.156
30362W        W 2622  31.923   3.100   0.187
30363W        W 2623  39.376  10.984   0.320
30364W        W 2624  35.348  11.756  14.231
30365W        W 2625  41.674   1.315  14.731
30366W        W 2626   1.006  34.463   3.221
30367W        W 2627   6.010  25.146  10.200
30368W        W 2628  15.519  40.142  12.867
30369W        W 2629   7.654   6.405   0.381
30370W        W 2630  28.110   2.864  14.555
30371W        W 2631  19.276  39.967   3.623
30372W        W 2632  41.879  13.428  13.931
30373W        W 2633  31.532  27.769   2.051
30374W        W 2634  30.844  36.446  13.548
30375W        W 2635  13.468  18.058   9.967
30376W        W 2636  40.848  37.058  14.753
30377W        W 2637   8.219  25.943  10.749
30378W        W 2638  13.385   2.899  10.817
30379W        W 2639  16.217   5.380  12.157
30380W        W 2640  29.135  33.914   3.779
30381W        W 2641   7.293  22.670   1.737
30382W        W 2642  27.031  18.818  13.533
30383W        W 2643  43.541  23.440   2.154
30384W        W 2644  24.905  26.943  14.222
30385W        W 2645  10.351  24.567  10.613
30386W        W 2646   2.177  25.136  14.009
30387W        W 2647   4.879  42.626  13.044
30388W        W 2648   0.227   7.861   1.378
30389W        W 2649  35.488  13.882   3.329
30390W        W 2650   6.333  11.120  13.490
30391W        W 2651  30.204  40.848   2.533
30392W        W 2652   1.703   5.381  11.177
30393W        W 2653   7.876   8.175  11.752
30394W        W 2654   4.017  33.530   0.660
30395W        W 2655  12.662  43.792  13.113
30396W        W 2656   6.786  42.850   0.307
30397W        W 2657  41.348  28.878   3.172
30398W        W 2658  14.073  27.739   1.618
30399W        W 2659   0.752  24.892   2.595
30400W        W 2660   4.271  21.085  14.371
30401W        W 2661   3.905  28.676  11.178
30402W        W 2662   0.183  16.981   2.228
30403W        W 2663  37.362  13.575   4.220
30404W        W 2664  42.376  43.225   0.302
30405W        W 2665  26.571   1.366   1.070
30406W        W 2666  33.539  24.238  10.341
30407W        W 2667  15.727   2.763  10.813
30408W        W 2668  37.593   9.820  13.713
30409W        W 2669  29.022   2.211  12.501
30410W        W 2670  42.014  31.896   0.375
30411W        W 2671   3.173  35.121  10.706
30412W        W 2672  41.608  23.161  13.392
30413W        W 2673  30.117  41.858   0.737
30414W        W 2674  30.231  24.123   0.328
30415W        W 2675  24.132  14.154   4.532
30416W        W 2676  43.694  27.739   0.309
30417W        W 2677   6.485  27.655  11.374
30418W        W 2678  26.993  28.408   2.609
30419W        W 2679  40.310  30.596   3.076
30420W        W 2680  34.190  18.011   3.229
30421W        W 2681  41.572  30.368  10.778
30422W        W 2682  44.480   7.199  13.559
30423W        W 2683  19.643   5.775  14.823
30424W        W 2684  35.543  23.193   4.067
30425W        W 2685  35.644   8.948   4.548
30426W        W 2686   3.442   8.385   3.482
30427W        W 2687  32.997  41.122  12.608
30428W        W 2688   8.194   7.661   4.096
30429W        W 2689  18.583  40.408  12.867
30430W        W 2690  35.388   6.546   4.582
30431W        W 2691   4.047  20.279  11.573
30432W        W 2692   0.008  39.538  10.873
30433W        W 2693  27.727  20.326   0.986
30434W        W 2694   0.761   3.337   4.488
30435W        W 2695   8.819  33.650  10.714
30436W        W 2696  18.132  30.515  13.057
30437W        W 2697  11.644  23.646   1.000
30438W        W 2698  17.178  28.176   2.753
30439W        W 2699  30.048   1.573   1.870
30440W        W 2700  44.063   1.973   1.777
30441W        W 2701  16.685  39.029   2.352
30442W        W 2702  33.089  36.291   3.575
30443W        W 2703   3.787  27.083  11.378
30444W        W 2704  40.249  32.379  14.383
30445W        W 2705  43.316   0.354   0.437
30446W        W 2706   3.969  13.762   3.601
30447W        W 2707  27.363  11.567  14.481
30448W        W 2708  29.190  39.840   3.619
30449W        W 2709  16.303  15.219  14.927
30450W        W 2710  29.531   5.009  11.139
30451W        W 2711   4.513  30.907  11.821
30452W        W 2712  24.031   8.134  12.593
30453W        W 2713  13.564   8.402   1.894
30454W        W 2714  28.037  14.492  13.114
30455W        W 2715  12.657  34.974   3.878
30456W        W 2716  36.800  29.045   0.377
30457W        W 2717  34.342  24.225   3.180
30458W        W 2718  31.972   1.622   9.862
30459W        W 2719   9.414   5.012  13.608
30460W        W 2720  31.048  35.152   3.286
30461W        W 2721  30.499   6.691  13.006
30462W        W 2722  31.955   3.208   3.117
30463W        W 2723  15.707   0.022  12.740
30464W        W 2724  32.175   5.206  11.833
30465W        W 2725  38.933  43.554   2.532
30466W        W 2726   1.897  10.646   2.654
30467W        W 2727   8.179  12.403  12.912
30468W        W 2728  14.223   4.176   2.337
30469W        W 2729  24.552  34.642  10.721
30470W        W 2730  36.036  10.338  13.288
30471W        W 2731  41.335  38.168  14.275
30472W        W 2732   5.331   4.106   0.502
30473W        W 2733  27.098   0.040   1.772
30474W        W 2734  32.575  40.600   4.631
30475W        W 2735  34.867  16.623   2.299
30476W        W 2736  29.891  13.647  10.671
30477W        W 2737   6.382  10.241  14.339
30478W        W 2738   7.665  12.004   2.255
30479W        W 2739  17.737  20.717  11.682
30480W        W 2740  19.769  33.138   4.072
30481W        W 2741  42.424  35.672  13.456
30482W        W 2742  16.961  43.225   2.858
30483W        W 2743  16.170   4.052   3.974
30484W        W 2744  39.248  14.324  12.044
30485W        W 2745  10.187  10.120   4.334
30486W        W 2746   3.739   1.775   0.948
30487W        W 2747   5.990  12.280  14.934
30488W        W 2748  18.212  24.528   3.863
30489W        W 2749  15.277  24.517   4.451
30490W        W 2750  41.497  41.428   1.396
30491W        W 2751  13.362  43.346   3.769
30492W        W 2752  31.986  30.411   1.865
30493W        W 2753  36.445   1.941  13.776
30494W        W 2754  12.845   7.246   2.458
30495W        W 2755  28.126  21.635  10.255
30496W        W 2756  16.679  23.136  14.899
30497W        W 2757   0.762  30.580   3.077
30498W        W 2758  42.025   2.403  13.895
30499W        W 2759  44.217  21.582  10.625
30500W        W 2760  42.930   8.942   2.648
30501W        W 2761   9.902  40.068  14.328
30502W        W 2762  21.066  28.208  10.411
30503W        W 2763  14.303  11.347  12.066
30504W        W 2764   7.175   9.809   3.216
30505W        W 2765  29.880  40.058  13.266
30506W        W 2766   4.533  28.928  14.494
30507W        W 2767  23.951   6.643   1.317
30508W        W 2768  39.947   1.973   4.166
30509W        W 2769   0.496  13.730  11.167
30510W        W 2770  30.492  20.015  10.615
30511W        W 2771   1.871  30.785   0.101
30512W        W 2772  43.238  37.072  12.917
30513W        W 2773  38.524  28.975  10.630
30514W        W 2774  29.672  30.292  14.925
30515W        W 2775  35.278   1.315  11.884
30516W        W 2776  22.817  31.586   1.290
30517W        W 2777  33.723  37.272  13.501
30518W        W 2778   1.799  44.486  13.995
30519W        W 2779  27.465   1.849  10.752
30520W        W 2780   3.491  14.450  11.273
30521W        W 2781   9.791   3.059   0.534
30522W        W 2782  20.172  22.195   3.635
30523W        W 2783  18.520  25.929  13.904
30524W        W 2784   8.825  42.481   4.258
30525W        W 2785  25.675  30.964   1.394
30526W        W 2786   4.425  22.931  10.587
30527W        W 2787  33.896  40.879   2.792
30528W        W 2788  36.517  26.778   4.117
30529W        W 2789  14.574  38.918  14.569
30530W        W 2790  13.128  12.334  14.385
30531W        W 2791  23.273  27.937  10.560
30532W        W 2792   8.668  25.195  12.167
30533W        W 2793   3.785  29.042   1.738
30534W        W 2794   6.923  19.734   4.517
30535W        W 2795  37.752  32.542   0.320
30536W        W 2796  14.423  16.101  11.684
30537W        W 2797   0.068   4.548   2.776
30538W        W 2798   1.824  44.487  11.530
30539W        W 2799  12.646  22.058   1.985
30540W        W 2800  14.832  15.126  13.488
30541W        W 2801  44.329   0.727  14.797
30542W        W 2802  41.501  27.415   4.123
30543W        W 2803   4.644  35.384   4.583
30544W        W 2804  28.954  40.359  13.827
30545W        W 2805  11.489  23.754   3.259
30546W        W 2806  16.959  25.104   5.000
30547W        W 2807  19.973   1.498  11.862
30548W        W 2808  29.956  33.886  10.742
30549W        W 2809  39.281  21.633   3.705
30550W        W 2810  20.509  12.314   0.471
30551W        W 2811  30.022   4.836  14.864
30552W        W 2812  22.874  21.261  13.435
30553W        W 2813  19.212  26.708  11.588
30554W        W 2814   5.598   9.059  12.847
30555W        W 2815  20.186  26.761   4.830
30556W        W 2816   0.672  30.144   0.346
30557W        W 2817   0.324  37.777  11.396
30558W        W 2818  29.739   0.200   4.075
30559W        W 2819  24.731  16.859   1.063
30560W        W 2820  40.042  43.367  11.999
30561W        W 2821  28.473  17.629  10.536
30562W        W 2822  10.920  22.535  14.942
30563W        W 2823  44.710  26.896   4.725
30564W        W 2824   9.330  32.975   1.387
30565W        W 2825   2.299  37.507  13.413
30566W        W 2826  11.764  14.811   0.456
30567W        W 2827   6.388  39.413  12.946
30568W        W 2828  35.107  43.397   3.193
30569W        W 2829   0.368  44.531   1.167
30570W        W 2830   1.584  32.363   0.599
30571W        W 2831   0.450  37.499  14.326
30572W        W 2832  43.772  22.378   0.494
30573W        W 2833  38.562  35.633   3.425
30574W        W 2834  18.558  29.593   1.416
30575W        W 2835  26.019  43.008   3.801
30576W        W 2836  27.186  16.335  14.520
30577W        W 2837  39.568  17.988   2.284
30578W        W 2838  29.193  23.377   2.276
30579W        W 2839  32.047   9.999  10.246
30580W        W 2840  10.021  24.697  14.478
30581W        W 2841  17.146   7.769   3.876
30582W        W 2842  36.734   2.727   1.731
30583W        W 2843   3.377  14.521   2.041
30584W        W 2844  10.648   8.887  13.022
30585W        W 2845   3.708  14.349  14.396
30586W        W 2846  21.066   2.806  11.177
30587W        W 2847  39.916   0.450  10.951
30588W        W 2848  43.001  13.181   3.907
30589W        W 2849  44.248  16.286  14.775
30590W        W 2850  25.261  30.018  10.456
30591W        W 2851  24.474   0.399   1.571
30592W        W 2852  31.659  43.826   4.606
30593W        W 2853  25.598  18.583   3.999
30594W        W 2854  22.894  42.985   3.770
30595W        W 2855  13.346  17.833   0.363
30596W        W 2856   9.203  30.359  13.962
30597W        W 2857   5.263  35.910  12.581
30598W        W 2858  19.657   1.811  13.232
30599W        W 2859  32.961   7.255   2.631
30600W        W 2860  36.561  25.035  12.484
30601W        W 2861  27.195  12.212   4.728
30602W        W 2862  12.393  26.386   0.461
30603W        W 2863  18.740  10.864   4.142
30604W        W 2864   0.962  34.583  13.485
30605W        W 2865  38.471   9.915  10.190
30606W        W 2866  40.356  40.353  11.230
30607W        W 2867  43.034  28.912  13.365
30608W        W 2868   3.924  44.370   0.063
30609W        W 2869  19.206   9.429   1.528
30610W        W 2870  19.936  38.089   2.240
30611W        W 2871  29.477  40.317   1.463
30612W        W 2872  10.929  35.154   2.237
30613W        W 2873  32.087  21.058  13.576
30614W        W 2874  32.921  40.930  13.384
30615W        W 2875   6.100  16.161   2.884
30616W        W 2876   2.957  17.322  14.992
30617W        W 2877  17.828  18.314   4.614
30618W        W 2878  36.611   8.125   2.748
30619W        W 2879  31.251   1.717  14.347
30620W        W 2880  24.206   1.801   3.741
30621W        W 2881  23.592   9.482  12.471
30622W        W 2882  44.194  27.597   3.699
30623W        W 2883  31.848   5.982   4.474
30624W        W 2884  13.895   2.330  14.044
30625W        W 2885  14.542  37.239  13.092
30626W        W 2886  44.815  32.013  12.945
30627W        W 2887  34.693  16.079   4.126
30628W        W 2888   8.668  15.248  13.828
30629W        W 2889  34.658  12.290  13.941
30630W        W 2890   4.193  38.613  14.308
30631W        W 2891   7.653  18.801   2.408
30632W        W 2892  15.351   8.180  14.817
30633W        W 2893  28.433  42.235   0.252
30634W        W 2894  36.799  17.289  11.217
30635W        W 2895  16.730  27.112  14.270
30636W        W 2896  28.961  40.415   4.664
30637W        W 2897  19.983  11.397  12.442
30638W        W 2898  39.233  25.705   1.022
30639W        W 2899  37.826  28.961   4.141
30640W        W 2900   6.876  24.751   0.314
30641W        W 2901  26.967  10.882  11.686
30642W        W 2902  38.956  40.994   4.523
30643W        W 2903   0.910   3.736  11.049
30644W        W 2904  19.153   6.781  12.513
30645W        W 2905  33.042  27.930   4.248
30646W        W 2906  19.646   5.438  10.713
30647W        W 2907   8.458  33.423   2.082
30648W        W 2908   8.504  33.165  12.429
30649W        W 2909   0.915  22.891  13.799
30650W        W 2910  20.029  20.112   1.349
30651W        W 2911  11.083  15.639  11.963
30652W        W 2912  14.052  30.526  12.540
30653W        W 2913  42.361   6.942   2.840
30654W        W 2914  35.553  43.447   0.533
30655W        W 2915  25.462  20.526  11.987
30656W        W 2916  43.133  24.787   0.933
30657W        W 2917  34.991  40.876  13.847
30658W        W 2918  23.137   3.533  14.921
30659W        W 2919  38.757  38.680   1.314
30660W        W 2920  26.384  26.234  12.392
30661W        W 2921  39.453  44.348   0.235
30662W        W 2922  38.968  28.851  12.410
30663W        W 2923  29.754  42.525   2.207
30664W        W 2924  34.096   1.243  13.844
30665W        W 2925  38.725  25.251  13.892
30666W        W 2926   5.561  13.148   3.127
30667W        W 2927  27.721  24.040  11.215
30668W        W 2928  41.461  18.499   1.292
30669W        W 2929  28.641  15.686   2.787
30670W        W 2930  31.708  41.009   4.341
30671W        W 2931   0.136  28.602  13.590
30672W        W 2932  17.510  22.404  10.638
30673W        W 2933  28.749   6.167  10.774
30674W        W 2934  41.863  20.390   1.382
30675W        W 2935  42.634  23.768  14.046
30676W        W 2936   8.265  22.406   3.418
30677W        W 2937  13.676  34.130   3.903
30678W        W 2938  43.983  19.282  12.389
30679W        W 2939  33.467  36.347   0.867
30680W        W 2940  26.229  22.496  12.006
30681W        W 2941  44.035  29.001   1.858
30682W        W 2942  13.274   6.944  13.450
30683W        W 2943  38.442   6.515  11.315
30684W        W 2944  25.533  13.144   4.516
30685W        W 2945  43.375  13.284   2.179
30686W        W 2946  29.468  33.494  14.944
30687W        W 2947   2.615  18.676  14.481
30688W        W 2948  12.636  32.201  12.911
30689W        W 2949  21.657  13.693   3.788
30690W        W 2950  17.355   6.246   2.487
30691W        W 2951  13.305   7.789  14.391
30692W        W 2952  39.055  15.848   2.157
30693W        W 2953  33.055   1.259  10.655
30694W        W 2954  23.755  34.258   2.818
30695W        W 2955  40.354   1.393   3.128
30696W        W 2956  23.142   3.870  11.583
30697W        W 2957   7.115   4.759   0.552
30698W        W 2958  20.457  30.013   3.529
30699W        W 2959   1.850   6.911   4.121
30700W        W 2960   3.341   3.294  12.927
30701W        W 2961  38.904  34.927   3.309
30702W        W 2962  41.939  34.594   3.754
30703W        W 2963  29.394  31.380  12.582
30704W        W 2964   2.044  38.339   4.054
30705W        W 2965   1.957  31.207  13.417
30706W        W 2966  12.380  37.277   5.041
30707W        W 2967  44.664  29.939   9.855
30708W        W 2968  43.839  36.943   4.078
30709W        W 2969   7.435  14.207   2.168
30710W        W 2970   5.360   8.760   3.808
30711W        W 2971  21.146  13.870  13.028
30712W        W 2972  32.109  28.556   3.901
30713W        W 2973  38.489  17.055   3.915
30714W        W 2974  10.736  44.426   2.197
30715W        W 2975  13.790   1.950   3.256
30716W        W 2976  14.743  28.387  11.513
30717W        W 2977  28.006  17.813  14.918
30718W        W 2978   1.340   6.853  11.239
30719W        W 2979  25.221  37.935  13.752
30720W        W 2980  27.559  31.920  13.408
30721W        W 2981  26.221  27.109   2.656
30722W        W 2982   8.294  39.843   0.257
30723W        W 2983   6.794  30.086  12.870
30724W        W 2984  10.221  31.179  10.663
30725W        W 2985  15.352  12.559  14.706
30726W        W 2986   6.695  25.697   0.586
30727W        W 2987  43.478  33.885   2.329
30728W        W 2988  40.822  28.049  11.644
30729W        W 2989  30.665  28.085   0.360
30730W        W 2990  19.712   6.289  12.388
30731W        W 2991  22.304  12.200  13.891
30732W        W 2992  11.265  17.784  12.408
30733W        W 2993  15.515  11.845  12.995
30734W        W 2994  22.022  15.152  11.026
30735W        W 2995  14.752  17.062   3.801
30736W        W 2996  19.777   2.966  13.233
30737W        W 2997  36.976  42.890  12.616
30738W        W 2998   7.434  35.065  12.532
30739W        W 2999  35.823  35.179   2.791
30740W        W 3000  40.310  27.874   2.605
30741W        W 3001   3.895  33.951   1.650
30742W        W 3002  26.993  43.273  14.848
30743W        W 3003  26.502  16.481  14.110
30744W        W 3004  17.191  10.812  12.316
30745W        W 3005  20.711  22.338  10.485
30746W        W 3006   4.347   6.388   3.832
30747W        W 3007  27.952  23.003   1.736
30748W        W 3008  25.522  19.544   0.652
30749W        W 3009  41.042  25.157  14.499
30750W        W 3010   2.690  41.742  12.456
30751W        W 3011  19.269  44.791   1.336
30752W        W 3012   3.391  28.176  11.458
30753W        W 3013  26.700  17.076   4.135
30754W        W 3014  41.665  13.879  10.530
30755W        W 3015   9.717  39.007   3.379
30756W        W 3016  11.937   8.445  13.095
30757W        W 3017  31.075  17.149   3.430
30758W        W 3018  30.486  43.981   2.400
30759W        W 3019  38.581  16.671  11.842
30760W        W 3020   4.465  31.467   2.659
30761W        W 3021   4.852  44.286  10.898
30762W        W 3022  44.710   2.467   2.931
30763W        W 3023  32.247  13.880  12.363
30764W        W 3024  44.479  41.795  12.544
30765W        W 3025   6.147  33.200  10.909
30766W        W 3026  35.607  25.217   1.599
30767W        W 3027  39.989  34.655  13.088
30768W        W 3028  41.363  14.231   2.190
30769W        W 3029  30.660  32.405  10.577
30770W        W 3030   4.695  15.075   4.225
30771W        W 3031  29.241  38.425  11.831
30772W        W 3032  22.642  21.977  12.624
30773W        W 3033   4.704  10.360  12.523
30774W        W 3034  31.987   9.924  11.089
30775W        W 3035  43.705  14.724  14.504
30776W        W 3036   7.288  30.841   0.790
30777W        W 3037  11.874   5.205  13.994
30778W        W 3038  33.040  43.790   3.386
30779W        W 3039  25.509   7.748   3.315
30780W        W 3040  28.467  10.604  13.962
30781W        W 3041  32.659  38.854   3.199
30782W        W 3042   0.935  12.647   1.205
30783W        W 3043  23.070   7.488   3.864
30784W        W 3044   0.288  23.498  11.441
30785W        W 3045  17.261  35.841   4.422
30786W        W 3046  21.397   1.168  11.097
30787W        W 3047  24.013  24.658   2.421
30788W        W 3048  35.817  41.295  13.573
30789W        W 3049   9.405  14.845   3.644
30790W        W 3050  27.621  36.645   2.387
30791W        W 3051  41.798  15.317   1.704
30792W        W 3052   2.849  22.343  12.142
30793W        W 3053  31.465  44.083  11.161
30794W        W 3054   5.329  12.758  13.595
30795W        W 3055  30.099  38.488  14.070
30796W        W 3056  15.260  33.975   4.942
30797W        W 3057  15.851  31.571   1.409
30798W        W 3058  32.961  28.251  14.464
30799W        W 3059   7.267   7.316  14.640
30800W        W 3060  41.355  35.362  11.473
30801W        W 3061  19.673  25.198  12.034
30802W        W 3062  18.818   6.521   4.737
30803W        W 3063  25.909  41.454   4.171
30804W        W 3064  33.996  14.676   2.818
30805W        W 3065   1.057   6.884  11.680
30806W        W 3066  17.825  40.430   2.337
30807W        W 3067  11.768   6.898  10.612
30808W        W 3068  39.862  29.698   0.425
30809W        W 3069  16.704  23.793  13.660
30810W        W 3070  25.914  35.613  14.496
30811W        W 3071  29.996  37.836   3.154
30812W        W 3072  26.632  40.371   4.661
30813W        W 3073  32.903  30.663  11.693
30814W        W 3074  38.101  44.489   2.226
30815W        W 3075  16.225  19.374  12.680
30816W        W 3076   1.744  20.212   2.949
30817W        W 3077  21.664  43.211  13.114
30818W        W 3078   9.349  27.955   1.362
30819W        W 3079   9.936  36.935  14.755
30820W        W 3080  12.671  28.376   3.335
30821W        W 3081  25.721  23.481  11.704
30822W        W 3082   9.458  23.303  11.059
30823W        W 3083  12.785  32.689   1.846
30824W        W 3084  36.062  23.438   1.919
30825W        W 3085  33.458   3.767  12.998
30826W        W 3086  27.187  41.507   4.636
30827W        W 3087  17.802  40.254  14.039
30828W        W 3088  43.263  22.143   1.741
30829W        W 3089   6.814  34.943  11.056
30830W        W 3090  23.958   4.436   4.341
30831W        W 3091   2.834  31.447   1.865
30832W        W 3092   8.774  11.909   3.851
30833W        W 3093  19.787  43.874  14.378
30834W        W 3094  17.253  39.143   0.225
30835W        W 3095  17.570   2.574   3.258
30836W        W 3096  20.946  38.864   2.160
30837W        W 3097  38.061  32.877   4.265
30838W        W 3098  23.483  14.572   4.136
30839W        W 3099  29.594  29.139   5.026
30840W        W 3100  44.777  29.444   1.155
30841W        W 3101  12.655   7.588   1.420
30842W        W 3102  17.756  42.403  13.422
30843W        W 3103  43.776   3.627  13.445
30844W        W 3104  11.811  20.725  14.760
30845W        W 3105   1.838  38.005   0.741
30846W        W 3106  38.879  28.564   2.309
30847W        W 3107  33.653   4.789   1.772
30848W        W 3108   1.858  36.839  10.445
30849W        W 3109  35.686  10.664  14.738
30850W        W 3110  28.869  42.887  11.076
30851W        W 3111  27.082  32.877   2.706
30852W        W 3112   6.183  37.130   3.115
30853W        W 3113  36.029   1.221   4.784
30854W        W 3114  25.667   0.575  12.487
30855W        W 3115   3.255   6.775   0.718
30856W        W 3116  23.529  18.066  14.842
30857W        W 3117  30.926  26.114  13.543
30858W        W 3118  13.849   5.233   1.364
30859W        W 3119  39.235  36.039  13.417
30860W        W 3120  22.284   4.308  14.415
30861W        W 3121  39.492   6.296   3.838
30862W        W 3122   6.918  34.484   3.542
30863W        W 3123  10.683  19.726   2.885
30864W        W 3124  40.969   1.021  12.569
30865W        W 3125   6.326  36.987  12.356
30866W        W 3126  29.424  41.946  12.947
30867W        W 3127   4.737  15.418   2.727
30868W        W 3128   6.723  20.125  13.080
30869W        W 3129  27.421  10.406   2.068
30870W        W 3130  14.337  31.432  13.462
30871W        W 3131  14.327  39.540   3.899
30872W        W 3132   8.860  23.697  10.604
30873W        W 3133  44.479  12.271  14.172
30874W        W 3134  26.698   9.790  14.308
30875W        W 3135  38.960  12.432  11.759
30876W        W 3136  35.123  12.292  12.969
30877W        W 3137  31.503  14.780   0.696
30878W        W 3138  35.307  30.562   0.860
30879W        W 3139   8.261  27.434   1.726
30880W        W 3140   2.857  38.513  10.671
30881W        W 3141   6.268   2.544  14.345
30882W        W 3142  27.620  42.344  12.700
30883W        W 3143  33.679  35.467  13.910
30884W        W 3144   5.282   4.354  14.091
30885W        W 3145  19.089  26.210   3.373
30886W        W 3146  23.053   8.224   0.701
30887W        W 3147  37.309  12.623   3.679
30888W        W 3148   7.335  27.994  13.047
30889W        W 3149  29.142   7.109  12.311
30890W        W 3150  37.407  18.044  11.562
30891W        W 3151  30.924  16.095   4.559
30892W        W 3152   4.454   4.746   4.515
30893W        W 3153  35.149  35.118  12.596
30894W        W 3154   3.883  14.386  13.082
30895W        W 3155   6.545  40.132   4.224
30896W        W 3156  25.472  41.445   1.031
30897W        W 3157  34.076   4.833  11.045
30898W        W 3158  43.391  32.841  11.123
30899W        W 3159  11.541   6.864   4.209
30900W        W 3160  43.347  24.526  10.763
30901W        W 3161  11.648  17.023  14.283
30902W        W 3162   8.203  32.622   0.325
30903W        W 3163  40.006  41.822   0.962
30904W        W 3164  41.487  36.212  12.992
30905W        W 3165  25.896  38.908  11.024
30906W        W 3166  28.286  35.960   4.509
30907W        W 3167  19.310  38.921   3.764
30908W        W 3168  14.233  22.984  13.855
30909W        W 3169  44.259  29.352   1.497
30910W        W 3170  22.060  29.082   3.433
30911W        W 3171  12.440  35.096  11.119
30912W        W 3172  32.379   2.212  11.219
30913W        W 3173  10.275  17.032  14.065
30914W        W 3174   3.007   0.225   2.236
30915W        W 3175  29.456  30.558   3.524
30916W        W 3176  35.079  17.851  11.709
30917W        W 3177  31.920  19.972   2.706
30918W        W 3178   3.675   5.644   4.069
30919W        W 3179  25.130  14.709   4.509
30920W        W 3180  43.415  44.552   1.897
30921W        W 3181  15.695  33.148   2.796
30922W        W 3182  39.879  36.415  11.575
30923W        W 3183  26.671  28.421   0.173
30924W        W 3184  39.047  36.689  11.574
30925W        W 3185  32.946  25.485   4.247
30926W        W 3186  10.746  33.119  14.078
30927W        W 3187  34.571  29.092   1.670
30928W        W 3188  20.213   8.094  11.105
30929W        W 3189  36.061   3.492  11.735
30930W        W 3190  16.532  35.038  12.472
30931W        W 3191   9.004  26.985  12.944
30932W        W 3192  23.119  40.845  10.459
30933W        W 3193  25.666  44.361   2.890
30934W        W 3194  42.308  15.217   4.103
30935W        W 3195  28.194  26.625   0.768
30936W        W 3196  39.983  38.553  13.493
30937W        W 3197  26.855  26.084  12.534
30938W        W 3198  22.697  37.768   1.201
30939W        W 3199  14.429  22.903   3.643
30940W        W 3200   6.396  13.295  13.704
30941W        W 3201  33.100   1.458  11.145
30942W        W 3202   5.767  20.166  12.816
30943W        W 3203  24.927  34.403   4.077
30944W        W 3204  10.368  33.232   3.408
30945W        W 3205  42.406  39.480  13.420
30946W        W 3206  14.069  29.878  10.979
30947W        W 3207  23.130  17.226  13.561
30948W        W 3208  31.308  39.685  11.683
30949W        W 3209  16.055   1.233   4.022
30950W        W 3210   2.105   3.752   0.906
30951W        W 3211  43.314   5.696   1.667
30952W        W 3212  28.113  26.372  13.894
30953W        W 3213  37.746  19.453   3.395
30954W        W 3214  41.369  44.197  13.470
30955W        W 3215  11.699  36.458  13.572
30956W        W 3216  39.283  44.740   2.803
30957W        W 3217  31.382  33.907  11.601
30958W        W 3218   8.390  12.773   3.886
30959W        W 3219  19.352  32.450   3.779
30960W        W 3220  40.250  22.938   4.494
30961W        W 3221  26.114  33.903   2.162
30962W        W 3222   6.668  32.518   3.185
30963W        W 3223  44.065  10.197  14.774
30964W        W 3224  33.896  28.383  12.542
30965W        W 3225  40.082  17.304  11.151
30966W        W 3226  12.728  11.921  11.668
30967W        W 3227  36.417  16.048   0.868
30968W        W 3228   1.305  27.165   2.749
30969W        W 3229  19.620  35.991  12.930
30970W        W 3230  18.044  18.844   0.306
30971W        W 3231  14.297  10.282  11.160
30972W        W 3232  24.257   0.611   4.420
30973W        W 3233  36.778  42.792  12.132
30974W        W 3234  17.313  42.106  11.603
30975W        W 3235  30.503   0.470   2.272
30976W        W 3236  16.540  35.811   3.224
30977W        W 3237  22.535   6.413   0.288
30978W        W 3238  21.294  16.209   1.839
30979W        W 3239  15.802  30.557  13.329
30980W        W 3240  37.347   4.800  12.080
30981W        W 3241  36.029  19.277   3.635
30982W        W 3242  26.610   5.780   1.907
30983W        W 3243  21.131  22.687   3.707
30984W        W 3244  14.584  29.082   1.066
30985W        W 3245  43.454  37.656   4.165
30986W        W 3246   5.205  19.633   4.367
30987W        W 3247  32.112  37.061   3.340
30988W        W 3248   1.263  39.705  11.164
30989W        W 3249  43.283  33.369   0.383
30990W        W 3250  38.470  33.975   0.705
30991W        W 3251  20.336  17.636   0.768
30992W        W 3252   6.449  39.085   4.417
30993W        W 3253  27.455  40.988  14.787
30994W        W 3254  42.970   5.649   1.256
30995W        W 3255  32.444  37.218   0.860
30996W        W 3256  29.587  44.720  11.270
30997W        W 3257   7.311  43.595  13.124
30998W        W 3258  21.511   5.882  14.041
30999W        W 3259  44.863  14.939   3.173
31000W        W 3260  44.359  35.034   5.566
31001W        W 3261  27.371  12.192   0.682
31002W        W 3262   4.229  11.392   3.152
31003W        W 3263  17.022   0.436  10.700
31004W        W 3264  37.533   2.930  14.860
31005W        W 3265  43.502   5.676  12.529
31006W        W 3266  41.902  36.022   3.101
31007W        W 3267   4.920  23.969  11.678
31008W        W 3268  16.879  29.544  13.327
31009W        W 3269  38.061  30.614   3.724
31010W        W 3270   3.665   4.657  13.599
31011W        W 3271  18.260   5.838  14.319
31012W        W 3272   9.934  29.385   1.674
31013W        W 3273  42.581  32.895   0.511
31014W        W 3274  39.262  16.817   1.253
31015W        W 3275  14.738  41.476   3.161
31016W        W 3276   4.975  12.059   1.748
31017W        W 3277  17.001  19.627  14.513
31018W        W 3278  29.698  29.454   2.194
31019W        W 3279  23.190  31.676  13.751
31020W        W 3280  43.473  41.459  12.895
31021W        W 3281   3.360   3.321   0.396
31022W        W 3282  14.273  37.409  12.152
31023W        W 3283  27.692  41.249   1.805
31024W        W 3284   7.380  22.186   1.540
31025W        W 3285  40.425  15.088  12.905
31026W        W 3286   6.906  33.425   4.337
31027W        W 3287   7.741  42.429  14.330
31028W        W 3288  35.258  15.311  10.419
31029W        W 3289  14.289  10.681  13.824
31030W        W 3290  10.781  41.223   2.424
31031W        W 3291  23.592  12.971   1.773
31032W        W 3292  35.943  29.600   3.241
31033W        W 3293   8.965  16.731   2.215
31034W        W 3294  34.063  26.535  11.515
31035W        W 3295   3.801   7.991   2.730
31036W        W 3296   2.004  11.637   3.267
31037W        W 3297  26.533  27.883   1.962
31038W        W 3298  34.189  29.040   0.343
31039W        W 3299  35.013  28.205  13.770
31040W        W 3300   1.058   4.770  14.493
31041W        W 3301   5.420  16.142   4.632
31042W        W 3302  14.487   1.477   0.493
31043W        W 3303  34.146  40.957  14.944
31044W        W 3304   8.252  36.781  10.679
31045W        W 3305  33.800  22.553   1.869
31046W        W 3306   8.286  44.383   1.327
31047W        W 3307  16.774  12.362   1.461
31048W        W 3308  33.341  22.599  12.499
31049W        W 3309   2.496  16.309   3.210
31050W        W 3310  33.097  15.078   2.839
31051W        W 3311  31.048  15.405   0.499
31052W        W 3312   8.442  27.533   5.069
31053W        W 3313  10.601  28.173  14.281
31054W        W 3314  24.411  15.150   0.304
31055W        W 3315  21.037   2.432   3.930
31056W        W 3316  23.064  39.538  10.702
31057W        W 3317  33.957  27.092  10.828
31058W        W 3318  42.353  13.673   4.306
31059W        W 3319  19.794  26.554   1.540
31060W        W 3320  38.832  16.702   4.227
31061W        W 3321   2.236  13.738  12.656
31062W        W 3322  18.337  35.586  14.155
31063W        W 3323  35.987  40.115  14.433
31064W        W 3324  26.040  12.093   0.841
31065W        W 3325  10.169  10.135  12.511
31066W        W 3326  29.888   1.211  13.068
31067W        W 3327  25.968  16.833   0.686
31068W        W 3328  35.939  26.537   3.404
31069W        W 3329  31.087  27.363  11.556
31070W        W 3330  29.209   0.245   3.200
31071W        W 3331  29.198   8.185  13.709
31072W        W 3332  37.075   7.656   0.719
31073W        W 3333  28.627  25.630  12.483
31074W        W 3334  21.516  23.966  11.535
31075W        W 3335  30.947  33.875  11.278
31076W        W 3336  15.119  19.667  13.239
31077W        W 3337  20.288  39.805   0.872
31078W        W 3338  29.623  32.091  14.816
31079W        W 3339  18.563  17.710   1.332
31080W        W 3340  29.502  27.422   3.153
31081W        W 3341   8.872   1.724  10.837
31082W        W 3342  24.007  42.508  13.063
31083W        W 3343  39.032   9.778   2.811
31084W        W 3344   7.391  24.008   0.450
31085W        W 3345  21.799   1.923   4.191
31086W        W 3346   2.807  10.777   0.392
31087W        W 3347  13.745  18.716  11.322
31088W        W 3348  37.741   1.535  10.622
31089W        W 3349  19.069  30.943   0.684
31090W        W 3350  29.019  31.385   1.723
31091W        W 3351  29.560   6.614   1.807
31092W        W 3352   2.491   1.926  14.557
31093W        W 3353  19.520  35.956  12.422
31094W        W 3354  43.425  36.035   0.002
31095W        W 3355  44.473  37.441   2.152
31096W        W 3356  41.361  33.916  12.995
31097W        W 3357  35.295  15.744   2.899
31098W        W 3358  38.430   3.146  13.926
31099W        W 3359  21.839  14.205  14.171
31100W        W 3360   4.409  27.958   4.521
31101W        W 3361  39.363  21.044   4.520
31102W        W 3362  35.460   9.513   0.058
31103W        W 3363  14.351  36.505  10.564
31104W        W 3364   9.154  30.382   0.520
31105W        W 3365  10.043  12.690   0.404
31106W        W 3366  40.348  28.163  12.464
31107W        W 3367  23.456  25.969   4.268
31108W        W 3368  19.676  24.280   2.325
31109W        W 3369   0.538  32.396   2.672
31110W        W 3370  15.892  25.639  12.128
31111W        W 3371   1.434  34.786   0.286
31112W        W 3372  20.972  19.685  12.358
31113W        W 3373  16.627   4.323  10.948
31114W        W 3374  20.267   8.600  11.098
31115W        W 3375  26.502  33.589  12.010
31116W        W 3376  30.362  15.106  12.251
31117W        W 3377   2.356   6.386  14.939
31118W        W 3378  44.721  11.788   3.379
31119W        W 3379  24.693  38.077  13.724
31120W        W 3380  22.703   5.938  11.085
31121W        W 3381  11.230   1.948  10.755
31122W        W 3382  16.767  12.343  12.877
31123W        W 3383   6.932   6.412   3.196
31124W        W 3384  34.442  27.136   1.149
31125W        W 3385  15.082  29.344  10.584
31126W        W 3386  41.149  14.763  12.391
31127W        W 3387  32.357  30.218  11.441
31128W        W 3388  33.383  13.202  12.114
31129W        W 3389   5.718  13.177  12.861
31130W        W 3390  12.309  14.695  10.696
31131W        W 3391  37.126   6.872  14.433
31132W        W 3392  12.826   4.305  11.842
31133W        W 3393  35.806   8.258  12.145
31134W        W 3394  29.170  41.507   1.705
31135W        W 3395  11.916  37.848   2.870
31136W        W 3396  18.760   0.905  12.978
31137W        W 3397  37.032  36.483   3.402
31138W        W 3398   2.267  20.240   3.032
31139W        W 3399  27.244   6.840   0.136
31140W        W 3400  10.729  36.298  12.596
31141W        W 3401  16.816  24.710  14.898
31142W        W 3402  19.452   1.392  10.663
31143W        W 3403  32.982  21.470  12.559
31144W        W 3404   8.341  34.567   0.991
31145W        W 3405  23.616  37.017   3.848
31146W        W 3406  25.945  41.024  12.939
31147W        W 3407  25.999  12.582   1.000
31148W        W 3408  19.795  14.124   4.706
31149W        W 3409  17.282  44.487   3.860
31150W        W 3410  33.372  41.386   2.379
31151W        W 3411  39.906  36.609  13.135
31152W        W 3412  42.216  33.868  13.818
31153W        W 3413  44.271  35.423   3.826
31154W        W 3414  30.919  22.579   3.471
31155W        W 3415   5.186  37.496   0.788
31156W        W 3416  21.053  31.624  11.088
31157W        W 3417  37.820   1.394   1.818
31158W        W 3418  43.597   2.889  10.546
31159W        W 3419  29.954   1.967  13.898
31160W        W 3420  44.560  35.322   3.423
31161W        W 3421  40.095  23.639   0.137
31162W        W 3422  40.524  21.316   0.688
31163W        W 3423  31.218  15.221  10.683
31164W        W 3424  12.158  43.329  14.106
31165W        W 3425   8.379   4.994  13.551
31166W        W 3426  42.816  36.711  10.943
31167W        W 3427   7.775  22.939  12.919
31168W        W 3428  26.516   0.843  10.972
31169W        W 3429  40.755  26.252  13.527
31170W        W 3430  38.248  10.462  12.016
31171W        W 3431  39.837   4.377   4.805
31172W        W 3432  29.212  36.468  10.649
31173W        W 3433  34.499   4.231  11.569
31174W        W 3434  27.180  37.939  10.395
31175W        W 3435  21.463   5.000  14.048
31176W        W 3436  28.288  17.031   2.257
31177W        W 3437   2.497   9.762  11.688
31178W        W 3438  40.594   6.585   4.996
31179W        W 3439  43.668  44.026  10.335
31180W        W 3440   2.531  31.338   0.897
31181W        W 3441  25.689  11.260   0.809
31182W        W 3442  14.652  21.711  13.871
31183W        W 3443  21.093   6.472  10.652
31184W        W 3444   3.831  15.749   2.356
31185W        W 3445   6.353  11.801  10.269
31186W        W 3446  32.134  32.466  13.298
31187W        W 3447   7.412   9.219   0.929
31188W        W 3448  37.825   6.593  10.390
31189W        W 3449   9.494  16.647  10.761
31190W        W 3450  35.878  11.246  13.498
31191W        W 3451  26.099   6.175   2.861
31192W        W 3452   3.819   5.782   0.235
31193W        W 3453   4.793  13.247  11.351
31194W        W 3454   1.725   4.689  12.277
31195W        W 3455  16.674  30.132   3.240
31196W        W 3456   4.402   8.976  11.102
31197W        W 3457   4.377  33.375   2.671
31198W        W 3458  41.355  40.444   1.391
31199W        W 3459   4.501  36.478   1.405
31200W        W 3460  30.096  20.207  11.278
31201W        W 3461   6.648  32.627   1.724
31202W        W 3462  37.284  34.801  11.644
31203W        W 3463  14.084  20.725  11.135
31204W        W 3464   6.883  15.933  14.287
31205W        W 3465  25.678  40.406  12.368
31206W        W 3466   5.912  31.188   3.217
31207W        W 3467  26.041  32.130   3.673
31208W        W 3468   2.214  38.650  12.074
31209W        W 3469  19.208  39.019  14.998
31210W        W 3470  23.800  28.107  13.003
31211W        W 3471   0.863  38.912  11.697
31212W        W 3472  23.541  12.325  14.472
31213W        W 3473  39.743  27.425  14.967
31214W        W 3474  42.026  17.525   0.540
31215W        W 3475  28.579  13.346   2.103
31216W        W 3476   7.239  16.247  11.205
31217W        W 3477   4.462  21.579  14.369
31218W        W 3478  39.372  12.210  13.823
31219W        W 3479  19.101  39.046   1.015
31220W        W 3480  20.999  12.717  14.859
31221W        W 3481  19.508   7.597  12.019
31222W        W 3482  11.371  34.045   0.189
31223W        W 3483  36.959  33.999   3.343
31224W        W 3484  24.072  11.272   1.199
31225W        W 3485  19.210   4.854  13.545
31226W        W 3486  32.498   6.813  10.625
31227W        W 3487   2.458  28.047  10.738
31228W        W 3488  37.590   6.183   5.045
31229W        W 3489   1.704  27.435  11.141
31230W        W 3490   0.398  22.808  12.072
31231W        W 3491  10.281  32.856   4.447
31232W        W 3492   1.874  10.679   1.109
31233W        W 3493  19.090  25.921  13.921
31234W        W 3494   6.959   8.206  14.327
31235W        W 3495  11.444  27.182   3.653
31236W        W 3496  30.151  28.971  11.987
31237W        W 3497  42.026  28.515   1.464
31238W        W 3498   5.611  11.078   2.693
31239W        W 3499  38.996  26.155   1.233
31240W        W 3500  26.972  20.586   0.633
31241W        W 3501  15.519  18.575  10.732
31242W        W 3502  25.198  36.002  11.109
31243W        W 3503  33.070  22.886   2.127
31244W        W 3504  25.046  30.121  13.116
31245W        W 3505  20.134   5.271  12.039
31246W        W 3506   7.650  39.868  10.390
31247W        W 3507  34.500   0.815  12.058
31248W        W 3508   3.908  40.398  10.449
31249W        W 3509  19.747  11.197   2.823
31250W        W 3510  38.241   4.458  11.037
31251W        W 3511   4.992  27.206  13.430
31252W        W 3512   1.054  21.064   2.694
31253W        W 3513   3.495  27.092  14.348
31254W        W 3514  12.736  44.962  11.891
31255W        W 3515  32.031  38.263  12.521
31256W        W 3516   0.752   8.642   5.115
31257W        W 3517  41.287  38.030   2.457
31258W        W 3518  12.761  16.705   1.373
31259W        W 3519  15.361  35.068   0.473
31260W        W 3520  23.761  32.924   2.774
31261W        W 3521  44.280  18.562  10.740
31262W        W 3522   2.953   0.777   1.964
31263W        W 3523  40.219  27.640   1.676
31264W        W 3524  18.062  32.055  10.853
31265W        W 3525  24.507  34.153  13.197
31266W        W 3526  27.518  29.423  12.831
31267W        W 3527   9.328  16.682   0.875
31268W        W 3528  32.076  24.464   1.320
31269W        W 3529  34.370  21.114   4.249
31270W        W 3530  33.282   9.529   2.000
31271W        W 3531  23.558  10.805  14.798
31272W        W 3532  35.461  27.230   0.485
31273W        W 3533  40.099  39.981   0.388
31274W        W 3534  38.365  34.691   1.907
31275W        W 3535  22.207  15.536   2.240
31276W        W 3536  31.427  16.041   4.462
31277W        W 3537  18.540  44.515  10.930
31278W        W 3538  30.607  43.415  12.925
31279W        W 3539   8.373  12.108   2.713
31280W        W 3540  39.232  17.692  14.859
31281W        W 3541  19.959   9.751   2.824
31282W        W 3542   6.266   1.642  12.248
31283W        W 3543   4.988   8.745   2.259
31284W        W 3544  16.778  25.199   4.158
31285W        W 3545  41.574  23.715   3.287
31286W        W 3546  39.606  11.705  12.442
31287W        W 3547  26.597   0.386  10.155
31288W        W 3548  42.337   3.632   4.662
31289W        W 3549  30.453  30.929   1.305
31290W        W 3550  24.143  31.084  11.800
31291W        W 3551  30.683   4.532   0.743
31292W        W 3552  32.491   5.820  14.488
31293W        W 3553  29.073   4.690  13.481
31294W        W 3554  12.866  36.558  12.677
31295W        W 3555  30.185  39.162  13.467
31296W        W 3556  35.773   8.403   0.815
31297W        W 3557  36.546  11.968  12.003
31298W        W 3558  15.787  26.055   3.335
31299W        W 3559  35.593  37.619  14.277
31300W        W 3560  41.590  24.580   0.400
31301W        W 3561  28.546  19.173  14.328
31302W        W 3562  34.103  25.981   3.671
31303W        W 3563  14.993  18.132  14.830
31304W        W 3564  27.961  36.124   0.320
31305W        W 3565  27.857   6.284  13.447
31306W        W 3566  24.791   0.139   2.383
31307W        W 3567   3.945  32.925   3.261
31308W        W 3568  23.503   1.397  13.087
31309W        W 3569   4.375   5.199   2.916
31310W        W 3570  25.700  10.936   4.380
31311W        W 3571  27.279  38.121   4.506
31312W        W 3572  27.600  11.647  11.514
31313W        W 3573  30.551  41.253  12.069
31314W        W 3574  25.937  29.114  12.455
31315W        W 3575  21.201   2.705  12.085
31316W        W 3576   1.397  13.852   0.100
31317W        W 3577   5.734  18.746  11.170
31318W        W 3578  24.129  29.126   1.971
31319W        W 3579   3.969  32.726  14.934
31320W        W 3580  40.749  42.567  14.531
31321W        W 3581  30.734   6.762   1.395
31322W        W 3582  34.930  41.832   0.701
31323W        W 3583  24.333   0.778  10.739
31324W        W 3584  18.309  25.686   1.007
31325W        W 3585  24.256  21.753   0.789
31326W        W 3586   4.849   2.246  11.443
31327W        W 3587   6.554  42.456   2.021
31328W        W 3588  44.354   9.570   1.624
31329W        W 3589  40.039   5.666   2.302
31330W        W 3590  22.141  15.052  14.957
31331W        W 3591  40.431  36.114  10.504
31332W        W 3592  29.783  12.767   1.709
31333W        W 3593  23.660  37.537  13.369
31334W        W 3594  36.261  10.240  11.933
31335W        W 3595   8.176  19.755  14.591
31336W        W 3596  18.208  25.558   1.876
31337W        W 3597  38.363  27.252  12.916
31338W        W 3598  42.459  12.143   4.839
31339W        W 3599  39.128  23.317   1.709
31340W        W 3600  24.156  35.217  13.020
31341W        W 3601  20.324   4.278  14.469
31342W        W 3602  41.569  35.138   1.903
31343W        W 3603  33.201  34.963   0.020
31344W        W 3604   2.851  10.853  12.574
31345W        W 3605  10.847   9.161   0.299
31346W        W 3606  34.065  32.093   0.905
31347W        W 3607  26.550  11.787   0.043
31348W        W 3608  29.110  22.469  13.871
31349W        W 3609  24.908  35.384  11.098
31350W        W 3610  30.147  32.111  14.896
31351W        W 3611  30.896  42.970   0.956
31352W        W 3612   7.912  25.929   9.762
31353W        W 3613  29.981  31.666  10.023
31354W        W 3614  27.022  37.151   4.653
31355W        W 3615   5.373  15.288   1.904
31356W        W 3616  27.657  40.538   1.442
31357W        W 3617   6.272  22.889   3.076
31358W        W 3618  13.313  30.587   4.192
31359W        W 3619  23.097   9.478   1.404
31360W        W 3620  42.949  13.220   0.399
31361W        W 3621  11.854   5.241  12.259
31362W        W 3622  41.216  30.539  13.787
31363W        W 3623   8.895  40.895   0.225
31364W        W 3624  22.213  39.932  12.875
31365W        W 3625  38.836  37.511   2.833
31366W        W 3626   7.227  38.463   4.257
31367W        W 3627   4.365  21.034  12.023
31368W        W 3628   7.961   7.602  13.082
31369W        W 3629  18.496  38.453  11.892
31370W        W 3630  36.497  16.255   0.394
31371W        W 3631  32.894  41.187  10.798
31372W        W 3632   1.927  24.127   0.359
31373W        W 3633  13.687   1.450   1.626
31374W        W 3634  23.686  26.020  10.851
31375W        W 3635   4.908   3.192  11.932
31376W        W 3636  44.698  31.470   4.120
31377W        W 3637   8.773  25.497   4.577
31378W        W 3638  44.784  24.981  13.786
31379W        W 3639  11.408  25.848  14.376
31380W        W 3640  19.603  32.420   4.767
31381W        W 3641  35.282  43.173  14.195
31382W        W 3642  11.326   1.604   0.442
31383W        W 3643  41.358  37.468   3.698
31384W        W 3644   5.128  14.543   3.105
31385W        W 3645  36.575  19.775   0.680
31386W        W 3646  39.450  27.564  11.475
31387W        W 3647  18.597  17.088  13.723
31388W        W 3648  19.082  23.084  11.504
31389W        W 3649  34.734  26.232  13.844
31390W        W 3650  14.620  15.190   0.805
31391W        W 3651   0.820   9.877  11.943
31392W        W 3652  13.656  25.961  13.030
31393W        W 3653  43.261  26.017   4.681
31394W        W 3654  28.824  12.401  12.016
31395W        W 3655  18.421  10.435   4.136
31396W        W 3656  36.219  41.137  14.394
31397W        W 3657  36.804  14.812  11.112
31398W        W 3658   0.355  24.571   4.911
31399W        W 3659  42.880   1.984   0.486
31400W        W 3660  39.409  44.274  10.899
31401W        W 3661  16.514  31.126  10.721
31402W        W 3662  22.742  38.175  12.046
31403W        W 3663  10.436  35.089   3.628
31404W        W 3664  33.050  41.908   0.675
31405W        W 3665   8.821   8.805   4.370
31406W        W 3666  39.765  19.133   4.144
31407W        W 3667   3.330  11.129  11.109
31408W        W 3668  21.995  13.520  11.981
31409W        W 3669  10.831  26.577   2.549
31410W        W 3670  21.641  37.530  14.100
31411W        W 3671  39.772  21.301  13.126
31412W        W 3672  13.887  17.331   5.442
31413W        W 3673  13.323  31.060   0.463
31414W        W 3674   7.479   9.820  12.564
31415W        W 3675  24.902   5.236  13.385
31416W        W 3676   4.517   6.483  14.398
31417W        W 3677   5.627  38.611   2.112
31418W        W 3678   1.144  42.415   1.150
31419W        W 3679  25.528  32.875   4.479
31420W        W 3680   5.607   9.885  13.330
31421W        W 3681  23.498   9.839  13.450
31422W        W 3682  13.759  40.193  12.966
31423W        W 3683   8.759   2.218   1.417
31424W        W 3684  25.251  12.816   1.218
31425W        W 3685  27.725  28.136  14.082
31426W        W 3686  10.156  34.492   2.941
31427W        W 3687   3.299  18.652   0.281
31428W        W 3688  29.352  13.680   3.158
31429W        W 3689  44.715  29.388   3.631
31430W        W 3690  43.266   2.481   4.419
31431W        W 3691  27.650  22.568   3.304
31432W        W 3692  17.062  10.383   2.437
31433W        W 3693  30.362  29.427  11.803
31434W        W 3694   1.698  38.473  11.348
31435W        W 3695  11.887  11.543  11.758
31436W        W 3696  41.767   4.842   3.265
31437W        W 3697  44.654  14.458   3.156
31438W        W 3698  41.960   4.196   3.894
31439W        W 3699   3.380   2.317   0.502
31440W        W 3700  38.944  33.986   0.984
31441W        W 3701  10.407  22.741   0.465
31442W        W 3702  40.711  44.937   3.388
31443W        W 3703  16.057  42.477  10.673
31444W        W 3704   2.450  15.886  13.386
31445W        W 3705  14.599  31.650  13.892
31446W        W 3706  44.858  22.572   1.358
31447W        W 3707  38.455  20.563   0.456
31448W        W 3708  35.139  40.812  12.964
31449W        W 3709  29.357  38.574   4.055
31450W        W 3710   4.820  32.308  14.486
31451W        W 3711   3.777  18.061  10.742
31452W        W 3712  36.850  44.007   4.472
31453W        W 3713  41.803  23.706  12.504
31454W        W 3714  37.606  27.082   4.650
31455W        W 3715  21.499  30.117  14.560
31456W        W 3716  20.628   6.504   2.869
31457W        W 3717  25.426  22.845  11.018
31458W        W 3718  16.815  10.234  14.325
31459W        W 3719  39.642   2.546   3.323
31460W        W 3720  25.360  34.005  14.827
31461W        W 3721  30.039  23.197  12.198
31462W        W 3722  23.629  12.565  14.021
31463W        W 3723   2.902  17.642   3.092
31464W        W 3724  22.446   6.791  13.880
31465W        W 3725  20.056  30.526   2.743
31466W        W 3726   3.728   2.571   3.112
31467W        W 3727  29.648  15.029  14.115
31468W        W 3728  17.677  35.170   0.656
31469W        W 3729  20.569  19.253  14.957
31470W        W 3730   4.687  27.213  14.692
31471W        W 3731  16.811  30.098   4.324
31472W        W 3732   6.673  26.290  14.968
31473W        W 3733   0.174  12.906   2.278
31474W        W 3734  18.126   7.794   5.392
31475W        W 3735  21.725   1.789  13.697
31476W        W 3736   8.934  40.949   3.214
31477W        W 3737  23.320  28.753   0.919
31478W        W 3738  15.084  17.799   4.734
31479W        W 3739  15.328  24.465  12.056
31480W        W 3740   8.433  15.868   2.190
31481W        W 3741  15.756  10.454  11.897
31482W        W 3742  23.264  44.965  10.516
31483W        W 3743  25.925  44.826  12.493
31484W        W 3744  34.625  32.058  12.033
31485W        W 3745   0.413  41.407  14.051
31486W        W 3746  24.446  44.792  14.596
31487W        W 3747  25.346   4.811  12.566
31488W        W 3748   8.114  29.384   1.899
31489W        W 3749  28.171  42.074   3.658
31490W        W 3750  43.319  43.299   0.742
31491W        W 3751  36.081   0.414   2.776
31492W        W 3752  38.256   6.264  12.156
31493W        W 3753   9.348   9.049   0.423
31494W        W 3754   6.868  21.185   2.591
31495W        W 3755  26.648  34.683   1.902
31496W        W 3756   7.136  10.584  13.954
31497W        W 3757  13.089  28.590   2.735
31498W        W 3758  34.516  11.129   0.779
31499W        W 3759  30.615  39.527   4.886
31500W        W 3760  39.930   6.680   3.213
31501W        W 3761  19.549  41.988   2.765
31502W        W 3762  33.074   9.280  13.549
31503W        W 3763  21.504   6.192  10.568
31504W        W 3764  21.187  35.503  10.670
31505W        W 3765  32.715  43.966   4.720
31506W        W 3766  37.997  26.468   0.178
31507W        W 3767  25.479  21.063   4.518
31508W        W 3768  20.139  44.367  11.953
31509W        W 3769  15.653  40.545   4.615
31510W        W 3770  38.920   2.498  14.499
31511W        W 3771  27.179   2.040  11.131
31512W        W 3772  12.363  40.616   1.596
31513W        W 3773  31.460  31.421  13.528
31514W        W 3774  17.614  19.695   2.607
31515W        W 3775  40.019  16.068  13.381
31516W        W 3776  18.841  14.814   0.809
31517W        W 3777  41.877  39.294   4.602
31518W        W 3778   1.020  15.690   0.810
31519W        W 3779   8.712  32.190  12.604
31520W        W 3780  23.539   6.164   1.061
31521W        W 3781   7.249  33.572  14.570
31522W        W 3782  14.550  34.410  14.757
31523W        W 3783  32.375  31.075   1.888
31524W        W 3784   4.279  24.461  14.548
31525W        W 3785   4.928  44.189   1.764
31526W        W 3786  26.447  10.682  13.291
31527W        W 3787  26.539  37.611  13.391
31528W        W 3788  24.350  20.722  10.601
31529W        W 3789  21.111   0.067   1.753
31530W        W 3790  36.502   7.827  12.009
31531W        W 3791   2.915   4.943   0.901
31532W        W 3792  11.398  39.677   1.835
31533W        W 3793  42.250   2.369  14.815
31534W        W 3794   0.716  40.405   5.060
31535W        W 3795  14.480  35.784  12.552
31536W        W 3796  12.826  28.022  14.543
31537W        W 3797  18.749   3.560  13.252
31538W        W 3798   9.823  21.803  14.436
31539W        W 3799   1.656  43.581  13.495
31540W        W 3800   8.223   9.304   1.396
31541W        W 3801  39.247  34.546  13.806
31542W        W 3802   0.281   6.667  13.926
31543W        W 3803  29.791  21.511  11.392
31544W        W 3804  25.176  33.421   2.594
31545W        W 3805  42.035  33.517  14.917
31546W        W 3806  44.544  22.759  11.543
31547W        W 3807   1.484  10.799  11.500
31548W        W 3808   0.998  35.393   1.709
31549W        W 3809  28.713   5.781   3.720
31550W        W 3810  32.712  36.142   3.211
31551W        W 3811  21.600  22.676  14.213
31552W        W 3812   0.850  15.787   3.728
31553W        W 3813  18.263  35.011   4.882
31554W        W 3814   7.507  21.792  12.068
31555W        W 3815  40.114   8.393  10.582
31556W        W 3816  20.295  18.582   3.837
31557W        W 3817  12.265  32.133   3.391
31558W        W 3818  16.719  35.783  13.305
31559W        W 3819  38.150  22.625   1.925
31560W        W 3820  18.411  41.699  12.412
31561W        W 3821   2.922  16.368  12.901
31562W        W 3822   5.210  37.321   3.482
31563W        W 3823  41.511   8.802   1.832
31564W        W 3824  28.904  32.890  11.674
31565W        W 3825  21.290  15.137  13.318
31566W        W 3826  42.021  17.143   4.549
31567W        W 3827  32.116  11.326  12.162
31568W        W 3828  13.377  15.837  11.761
31569W        W 3829  43.490  14.892  13.182
31570W        W 3830  11.211  36.496  14.847
31571W        W 3831  22.208   1.470  11.244
31572W        W 3832  20.733  44.221  14.894
31573W        W 3833  16.838   6.171  10.739
31574W        W 3834  34.434  44.199   4.112
31575W        W 3835  20.460  19.819   2.220
31576W        W 3836  21.674  42.096  13.124
31577W        W 3837  31.852  30.948   1.935
31578W        W 3838  36.314  37.049   2.438
31579W        W 3839  32.876  29.991  14.732
31580W        W 3840   0.153   3.481  13.394
31581W        W 3841  43.410  17.130   3.281
31582W        W 3842  36.992  20.524   4.245
31583W        W 3843  32.371  19.986   1.843
31584W        W 3844  37.178   0.454   2.833
31585W        W 3845  26.412   8.557   2.749
31586W        W 3846  10.903  33.462   4.148
31587W        W 3847  12.148  11.125   1.516
31588W        W 3848   5.469   1.479   3.702
31589W        W 3849  25.980  35.011   2.365
31590W        W 3850   6.692  42.727  11.113
31591W        W 3851   1.936  39.287   0.507
31592W        W 3852  34.478  23.666   4.107
31593W        W 3853  33.380   1.120  14.988
31594W        W 3854  18.364  14.665  11.714
31595W        W 3855   1.711  41.081   3.845
31596W        W 3856   6.527  39.101  10.995
31597W        W 3857  30.359  31.167   1.748
31598W        W 3858   8.267   4.696   3.801
31599W        W 3859   6.265  21.092   2.966
31600W        W 3860  40.971  23.945   3.911
31601W        W 3861  10.269  17.695   0.822
31602W        W 3862  26.476  28.959   0.929
31603W        W 3863   0.691   3.490   0.649
31604W        W 3864  10.707  36.272  13.481
31605W        W 3865  30.687  34.127   1.627
31606W        W 3866  22.695   9.097  12.148
31607W        W 3867  17.085  12.690  10.780
31608W        W 3868  24.241  37.981   2.465
31609W        W 3869  25.015   9.312   2.343
31610W        W 3870   7.464   9.814   1.405
31611W        W 3871   8.246  18.157   3.298
31612W        W 3872  19.276   2.770  12.543
31613W        W 3873  12.949  31.098   3.882
31614W        W 3874  21.840   8.379   3.253
31615W        W 3875  12.290  39.270  11.541
31616W        W 3876  16.266   4.288   1.279
31617W        W 3877  39.629  34.925  11.596
31618W        W 3878   9.867  38.411  14.047
31619W        W 3879  42.495  44.099  14.817
31620W        W 3880  18.515   5.913   1.400
31621W        W 3881   0.558  20.283   3.673
31622W        W 3882  39.578  31.360  14.358
31623W        W 3883  28.398   7.289  12.850
31624W        W 3884  10.807   2.991  11.144
31625W        W 3885  18.301  39.226   3.287
31626W        W 3886   5.863   4.472   4.177
31627W        W 3887   2.285  35.788   0.005
31628W        W 3888  12.647   4.369  12.828
31629W        W 3889  40.336  10.838   3.237
31630W        W 3890  17.013  15.891  12.452
31631W        W 3891  20.468  10.800   0.330
31632W        W 3892  23.239  12.207   1.509
31633W        W 3893  33.856  30.931  11.937
31634W        W 3894   7.678   2.363  12.482
31635W        W 3895  30.608  26.113   4.375
31636W        W 3896  37.415  38.581   1.397
31637W        W 3897  40.936  20.109  12.120
31638W        W 3898   9.981  15.822  10.143
31639W        W 3899  20.241  37.670   3.238
31640W        W 3900  14.547  19.191   3.282
31641W        W 3901  24.073  32.941  10.775
31642W        W 3902  26.379  26.117   2.770
31643W        W 3903   1.274  35.406  10.923
31644W        W 3904   0.655  17.776   1.447
31645W        W 3905  40.935   4.835  13.449
31646W        W 3906   4.420  12.764   1.374
31647W        W 3907   0.312  24.023   1.248
31648W        W 3908   7.370  35.918   4.385
31649W        W 3909  34.415   7.144   3.242
31650W        W 3910  11.423  42.886   0.664
31651W        W 3911  32.304   4.639  12.904
31652W        W 3912   8.335  12.138  13.343
31653W        W 3913  33.030  19.797   4.140
31654W        W 3914  19.125   0.773   0.794
31655W        W 3915  11.074  12.925  14.546
31656W        W 3916  20.250   6.141  11.534
31657W        W 3917   0.846   2.060   1.092
31658W        W 3918   3.245   8.946  13.082
31659W        W 3919  15.142  29.513   3.895
31660W        W 3920  17.325  27.502   4.257
31661W        W 3921   7.054  18.784  14.720
31662W        W 3922  10.801  22.987  10.356
31663W        W 3923  37.347  18.058  13.648
31664W        W 3924   5.205  17.590  13.779
31665W        W 3925  22.430   3.978   4.638
31666W        W 3926  23.886  18.699  10.920
31667W        W 3927  15.647  33.690   1.791
31668W        W 3928  35.989   5.163   4.600
31669W        W 3929  31.380  20.009   3.785
31670W        W 3930   9.861   3.697  14.028
31671W        W 3931  32.921  39.897  14.947
31672W        W 3932   1.547   7.333   4.094
31673W        W 3933  21.990  41.908   1.610
31674W        W 3934  23.929  35.923  10.539
31675W        W 3935  26.470  26.565  13.611
31676W        W 3936  22.068  16.778  10.930
31677W        W 3937  24.362  36.387   3.240
31678W        W 3938   4.267  25.972   0.186
31679W        W 3939  27.354  29.245   2.191
31680W        W 3940  15.380  32.013   2.814
31681W        W 3941  30.342  25.002  11.583
31682W        W 3942  43.437   8.558   2.635
31683W        W 3943  20.069   1.991   1.598
31684W        W 3944   8.380  25.136  14.257
31685W        W 3945  31.770  41.033  12.505
31686W        W 3946  12.976  32.421  13.324
31687W        W 3947   5.445  19.518   2.303
31688W        W 3948  10.690   8.264  12.345
31689W        W 3949  23.970  13.685   3.353
31690W        W 3950  31.270  37.106   0.289
31691W        W 3951  43.579  41.456  11.613
31692W        W 3952  44.199  18.090  11.955
31693W        W 3953  33.792  16.862  10.505
31694W        W 3954   0.405  33.732   2.984
31695W        W 3955   0.427  26.936  11.657
31696W        W 3956  28.031  16.153  11.685
31697W        W 3957  15.202   6.448   0.609
31698W        W 3958   3.230  18.394  11.720
31699W        W 3959  32.857  18.306   3.818
31700W        W 3960  30.288   3.980   3.705
31701W        W 3961  44.752  41.058  13.154
31702W        W 3962  34.106  10.753  11.565
31703W        W 3963  40.960  13.249  14.765
31704W        W 3964   2.209  42.055  12.444
31705W        W 3965  37.557  36.668   4.298
31706W        W 3966  11.127  43.514  14.049
31707W        W 3967  42.950  44.777  12.840
31708W        W 3968  21.963  13.785  12.805
31709W        W 3969   5.400   1.339   2.737
31710W        W 3970  22.197  12.734   2.282
31711W        W 3971  36.533  20.216   4.352
31712W        W 3972  19.294  43.488   0.864
31713W        W 3973  12.302   8.160   3.325
31714W        W 3974   6.653  11.687  11.553
31715W        W 3975   7.420   5.158   3.635
31716W        W 3976  39.328   8.286   4.563
31717W        W 3977   5.971   1.047  14.946
31718W        W 3978  32.509  34.416  13.016
31719W        W 3979  37.762   2.001  12.015
31720W        W 3980  14.686  39.993  12.992
31721W        W 3981  25.252  43.942  12.043
31722W        W 3982   4.115  37.379  11.085
31723W        W 3983  28.149  31.780   1.668
31724W        W 3984  11.101   5.443   3.260
31725W        W 3985  18.590  16.161   1.154
31726W        W 3986  32.495  12.612  10.586
31727W        W 3987  12.817  12.262   4.806
31728W        W 3988  26.753  30.121  10.750
31729W        W 3989  23.558   2.535   1.903
31730W        W 3990  33.706  25.193  13.327
31731W        W 3991  26.060  17.323   2.222
31732W        W 3992  43.334  15.543   4.657
31733W        W 3993   1.790  21.546   4.176
31734W        W 3994  10.309  20.512   0.874
31735W        W 3995   0.707  36.430  11.178
31736W        W 3996   4.881  16.502  14.730
31737W        W 3997  16.012  16.147   4.036
31738W        W 3998  43.385   3.331  11.213
31739W        W 3999  24.581  40.307  10.958
31740W        W 4000   4.442  20.082  13.395
31741W        W 4001  18.180  30.925   2.684
31742W        W 4002  42.350  42.765   0.944
31743W        W 4003  23.568  11.643  14.064
31744W        W 4004  27.784  34.666   4.395
31745W        W 4005  38.356   7.606  11.050
31746W        W 4006  22.529  10.779  12.306
31747W        W 4007  28.365  33.833   2.100
31748W        W 4008  12.371   1.277  12.133
31749W        W 4009  28.493  40.088   2.210
31750W        W 4010  41.276  44.031   0.609
31751W        W 4011  12.395   0.194   4.439
31752W        W 4012   7.115  22.675  11.189
31753W        W 4013   3.489   6.289  10.948
31754W        W 4014  11.281  10.725  11.886
31755W        W 4015  20.706  19.550  10.461
31756W        W 4016  27.489  33.127   3.303
31757W        W 4017  27.392  16.200   1.293
31758W        W 4018  44.281  11.877   4.621
31759W        W 4019  28.900  24.050   1.735
31760W        W 4020  36.848   3.729   3.149
31761W        W 4021  21.223   6.357   4.977
31762W        W 4022  41.939  23.731   3.656
31763W        W 4023  43.831   0.963   4.574
31764W        W 4024  28.191  43.085   3.724
31765W        W 4025  21.732  36.123   2.031
31766W        W 4026   2.267  34.449   0.769
31767W        W 4027  34.678   1.020  10.065
31768W        W 4028   7.014  38.399  13.942
31769W        W 4029  24.076  38.019  10.721
31770W        W 4030  29.003   2.962  11.792
31771W        W 4031   0.178  32.860  11.482
31772W        W 4032  15.525  14.223   0.821
31773W        W 4033   5.821   0.496   4.711
31774W        W 4034  19.770  40.976  12.552
31775W        W 4035  27.691  21.162   0.788
31776W        W 4036   7.334  40.002   2.218
31777W        W 4037   3.872   2.843  11.128
31778W        W 4038  10.846   3.899   0.332
31779W        W 4039   2.769  34.932  13.840
31780W        W 4040  36.577   0.448  13.977
31781W        W 4041  16.157  16.113  13.516
31782W        W 4042  32.525  35.880   4.082
31783W        W 4043   7.680  11.604  11.601
31784W        W 4044  37.047  24.438  14.166
31785W        W 4045  11.783  23.575   3.658
31786W        W 4046  31.754  13.826   4.324
31787W        W 4047  36.583  22.294   0.727
31788W        W 4048   8.343  25.174   3.585
31789W        W 4049  41.074  39.808  13.417
31790W        W 4050  15.636  12.772  10.701
31791W        W 4051  11.637  38.889   3.679
31792W        W 4052   2.767  44.196  11.063
31793W        W 4053  10.111  10.548  14.898
31794W        W 4054   2.869  22.234   1.834
31795W        W 4055  43.777  35.407  11.094
31796W        W 4056   6.451  31.490  13.853
31797W        W 4057  27.419  13.017   1.297
31798W        W 4058   7.317  24.113   3.049
31799W        W 4059   9.814  21.152  14.191
31800W        W 4060  16.043  37.040  13.840
31801W        W 4061  17.141  11.385   0.062
31802W        W 4062  11.872   9.271  12.054
31803W        W 4063  36.405   3.853   4.335
31804W        W 4064   2.447  31.736   4.181
31805W        W 4065  19.196  30.964   0.196
31806W        W 4066  12.578  28.951  11.643
31807W        W 4067  30.704  40.582   2.610
31808W        W 4068  41.634  37.258   3.105
31809W        W 4069  27.787  18.517   4.272
31810W        W 4070  12.097  13.889  11.079
31811W        W 4071   5.378  14.134  14.878
31812W        W 4072   0.722  33.528   0.487
31813W        W 4073  27.783  15.703   4.644
31814W        W 4074   8.786   7.830   0.447
31815W        W 4075  38.312  15.238   3.280
31816W        W 4076  30.161  30.353  14.037
31817W        W 4077  24.059  10.868  11.951
31818W        W 4078  36.852  41.984   2.575
31819W        W 4079   5.843  30.434   4.808
31820W        W 4080  19.965  38.542  12.125
31821W        W 4081   7.574   4.694   4.866
31822W        W 4082  35.982  36.480  10.948
31823W        W 4083   3.991  30.882   4.931
31824W        W 4084  13.873  42.769   0.940
31825W        W 4085  42.328  32.464  12.105
31826W        W 4086  23.721  16.038  14.362
31827W        W 4087  27.150  34.722  14.082
31828W        W 4088  32.682  17.609  11.945
31829W        W 4089   8.402   7.420  12.410
31830W        W 4090  10.738  18.255  14.563
31831W        W 4091  22.125  13.495  13.256
31832W        W 4092   3.513  34.157   1.334
31833W        W 4093  19.649   5.413   1.603
31834W        W 4094  19.808  23.224   0.687
31835W        W 4095  29.316  16.064  13.835
31836W        W 4096  31.426  40.931  11.177
31837W        W 4097  23.349  27.125  10.297
31838W        W 4098  34.982  41.786   4.114
31839W        W 4099  26.915   9.307  12.837
31840W        W 4100  24.601   3.326   4.688
31841W        W 4101   4.718  42.398   0.934
31842W        W 4102  14.323  20.094  14.404
31843W        W 4103  36.620   0.362   1.339
31844W        W 4104   7.615  27.693  14.298
31845W        W 4105   9.248  35.561   0.395
31846W        W 4106  14.309  13.863   2.261
31847W        W 4107  39.088   3.995  10.676
31848W        W 4108  36.934  27.481  14.486
31849W        W 4109  20.718  21.657   4.254
31850W        W 4110   9.764   0.480  10.606
31851W        W 4111   8.276  35.356  12.617
31852W        W 4112  40.404  20.321  13.940
31853W        W 4113  44.771  14.720   0.668
31854W        W 4114  17.366  19.616   3.056
31855W        W 4115  27.524   9.637   4.321
31856W        W 4116  16.834   7.276   4.630
31857W        W 4117   6.866  30.047   3.626
31858W        W 4118   9.689  33.865   2.253
31859W        W 4119  35.809  35.492   2.371
31860W        W 4120  23.409  10.225  13.798
31861W        W 4121  21.775  32.038   3.821
31862W        W 4122  11.230   7.205  14.994
31863W        W 4123  14.590   2.845  13.579
31864W        W 4124   9.752   9.170  14.357
31865W        W 4125  41.800  31.384  14.846
31866W        W 4126   5.780  36.599  11.379
31867W        W 4127  12.724  14.789   4.085
31868W        W 4128  28.164   2.008   0.768
31869W        W 4129  40.735  28.130   0.324
31870W        W 4130   7.921   2.322   4.874
31871W        W 4131  15.538  29.074   1.924
31872W        W 4132  16.684  15.635   3.561
31873W        W 4133  35.865  20.252   0.924
31874W        W 4134  34.943  39.951  13.649
31875W        W 4135  40.895  39.069  12.039
31876W        W 4136  24.786  39.965  14.032
31877W        W 4137  40.849   5.199   3.699
31878W        W 4138  19.657  16.035  13.487
31879W        W 4139  20.829   3.408   0.656
31880W        W 4140   5.949  32.074  10.616
31881W        W 4141  32.981  18.222  13.349
31882W        W 4142  10.547   0.411  13.900
31883W        W 4143   4.621   4.636  13.057
31884W        W 4144   1.176  26.799   1.286
31885W        W 4145  11.918  36.737   1.269
31886W        W 4146   6.301  36.035   1.943
31887W        W 4147  43.696   4.857   4.175
31888W        W 4148  27.556  17.249  13.999
31889W        W 4149  40.971  32.240   4.204
31890W        W 4150  29.693  37.296  10.798
31891W        W 4151  19.748   2.374  14.536
31892W        W 4152  24.450   0.862   2.821
31893W        W 4153  37.459   5.233  11.363
31894W        W 4154  21.963   7.970  11.369
31895W        W 4155  37.819   7.101   4.139
31896W        W 4156   2.022  20.012  14.578
31897W        W 4157   4.650  44.881   0.292
31898W        W 4158  30.646   3.386   1.639
31899W        W 4159  43.900  16.275   4.598
31900W        W 4160  20.365  19.279  11.632
31901W        W 4161  37.282  11.782  13.506
31902W        W 4162  38.016   3.807  12.149
31903W        W 4163  30.061   0.457   1.877
31904W        W 4164  14.036  26.080  10.914
31905W        W 4165   8.816  37.508   0.407
31906W        W 4166   6.710  15.970  12.469
31907W        W 4167  33.814  44.808   2.221
31908W        W 4168  43.424  13.178   1.672
31909W        W 4169  12.373  35.543   2.922
31910W        W 4170  31.356   3.183   2.362
31911W        W 4171  26.876  21.533  13.993
31912W        W 4172  41.437  31.074   3.145
31913W        W 4173  23.200   6.470   2.254
31914W        W 4174  32.141   1.970   4.372
31915W        W 4175  19.053  38.941  14.293
31916W        W 4176   7.411  44.937  11.882
31917W        W 4177  38.121  30.464   2.338
31918W        W 4178  42.716  39.026  11.974
31919W        W 4179   6.157  25.523  11.547
31920W        W 4180  13.990  11.592  13.823
31921W        W 4181  11.156  36.979  12.981
31922W        W 4182  13.253  24.683  12.055
31923W        W 4183  19.220  40.995   4.614
31924W        W 4184   4.845  38.919   2.148
31925W        W 4185  43.891  23.478  10.244
31926W        W 4186  16.154  34.688  14.248
31927W        W 4187  41.070  34.997  10.691
31928W        W 4188  39.094  18.781   2.318
31929W        W 4189   7.926  32.090   3.153
31930W        W 4190  22.270  31.028   1.920
31931W        W 4191  14.202   8.150   3.554
31932W        W 4192  42.902  37.038   4.152
31933W        W 4193  11.304   2.418  14.838
31934W        W 4194  21.840  44.184  14.835
31935W        W 4195   0.549  24.554   0.446
31936W        W 4196  16.952  31.626  10.959
31937W        W 4197  10.656  39.775   2.272
31938W        W 4198   2.653  14.358  14.408
31939W        W 4199  43.187  44.453   1.439
31940W        W 4200  29.256  13.417  14.611
31941W        W 4201  27.063  42.783  14.783
31942W        W 4202  29.398  17.223  14.177
31943W        W 4203  18.218   8.797  13.371
31944W        W 4204  25.050   0.192   3.978
31945W        W 4205  25.990   3.738   3.283
31946W        W 4206   5.699  26.543   3.855
31947W        W 4207   2.216  19.679  13.413
31948W        W 4208  40.043  36.954  13.519
31949W        W 4209  21.086  42.330   1.334
31950W        W 4210   8.410  32.971   1.789
31951W        W 4211  35.521   9.733  11.994
31952W        W 4212  28.511  12.571  11.086
31953W        W 4213  44.059  15.071   2.165
31954W        W 4214  11.927  19.073   0.680
31955W        W 4215  10.434  12.361   2.437
31956W        W 4216  27.048   8.827   4.060
31957W        W 4217  27.188  19.862  14.446
31958W        W 4218   0.590  14.227  11.198
31959W        W 4219  30.072  31.130   2.461
31960W        W 4220  23.099  14.401   0.046
31961W        W 4221  34.220  43.802  12.328
31962W        W 4222  13.320  37.706   2.597
31963W        W 4223  34.073   7.436   3.481
31964W        W 4224  10.286   9.792  12.136
31965W        W 4225  44.729  15.385  13.412
31966W        W 4226  22.650   3.001   3.161
31967W        W 4227  20.025  28.119   3.630
31968W        W 4228   1.727  10.033  12.424
31969W        W 4229  20.206  36.477  12.959
31970W        W 4230  16.053   8.922   4.553
31971W        W 4231  32.152   8.813   3.695
31972W        W 4232  11.352  13.168  13.897
31973W        W 4233  12.482  13.589  14.361
31974W        W 4234  28.379  36.647  12.449
31975W        W 4235  16.258   9.006  11.060
31976W        W 4236  25.886  42.400   2.841
31977W        W 4237  35.633  22.113   2.743
31978W        W 4238  23.246  19.211  10.629
31979W        W 4239  20.291  18.137  13.850
31980W        W 4240  27.446  16.699   1.253
31981W        W 4241  11.437  17.469  10.558
31982W        W 4242  17.737  44.753   1.718
31983W        W 4243  12.551   8.436  13.722
31984W        W 4244  27.664   3.951   2.556
31985W        W 4245  43.828  40.538  12.972
31986W        W 4246  44.537  19.208  14.764
31987W        W 4247  25.195  17.639  11.921
31988W        W 4248  11.805  25.768   4.689
31989W        W 4249  21.240  12.810  14.399
31990W        W 4250  21.468  15.109   1.268
31991W        W 4251  17.904  40.956  12.643
31992W        W 4252  39.534  34.292   4.152
31993W        W 4253   9.887  31.490  12.557
31994W        W 4254  39.366  15.357  11.132
31995W        W 4255   3.937   1.777  10.341
31996W        W 4256   4.973  41.302  12.582
31997W        W 4257   9.786  41.876  10.370
31998W        W 4258  19.018   6.790   3.119
31999W        W 4259  14.100  25.215  12.846
32000W        W 4260   7.861  33.989  13.378
32001W        W 4261  20.671  28.389  12.029
32002W        W 4262  22.089  35.229   4.084
32003W        W 4263  44.850  12.287  11.653
32004W        W 4264   6.839  12.972  11.663
32005W        W 4265   2.230  36.515   2.712
32006W        W 4266  35.225  23.495   2.063
32007W        W 4267  38.802  25.419   0.876
32008W        W 4268  36.595  17.216  14.478
32009W        W 4269  16.722  34.848   3.763
32010W        W 4270   9.129   9.394  11.971
32011W        W 4271  30.701  16.539   4.710
32012W        W 4272  28.148  26.586  11.096
32013W        W 4273  37.289   7.772  11.009
32014W        W 4274   0.373  36.538   2.337
32015W        W 4275  21.126   5.771  12.794
32016W        W 4276   2.273  24.538   1.371
32017W        W 4277  11.001  14.807   1.794
32018W        W 4278  20.557  22.679  13.034
32019W        W 4279  40.248  42.352  12.825
32020W        W 4280  33.610   9.868  13.040
32021W        W 4281  24.436  27.052   0.122
32022W        W 4282  35.561  34.801  14.941
32023W        W 4283  36.070  17.856   5.011
32024W        W 4284  24.530  18.180   4.346
32025W        W 4285  35.090  43.632  12.966
32026W        W 4286  35.253  20.685   1.342
32027W        W 4287   6.940  38.085  11.935
32028W        W 4288  35.119  14.229  14.986
32029W        W 4289  11.061  36.938   2.297
32030W        W 4290  25.284  23.249  12.503
32031W        W 4291  24.180  33.913   1.329
32032W        W 4292  15.293   4.453   0.201
32033W        W 4293  34.358  39.939  14.960
32034W        W 4294  14.645   2.198   4.153
32035W        W 4295  19.301  10.483   2.326
32036W        W 4296  24.236  24.455  14.394
32037W        W 4297  36.535  19.116  10.309
32038W        W 4298  36.187  18.659  13.721
32039W        W 4299  35.002  42.904  14.949
32040W        W 4300  40.340  22.615   3.163
32041W        W 4301  26.158   0.013  12.060
32042W        W 4302   1.847  17.676   3.933
32043W        W 4303  44.433  17.704  13.621
32044W        W 4304  19.413  29.699   1.549
32045W        W 4305   0.531  39.830   1.293
32046W        W 4306  15.549  24.866   3.879
32047W        W 4307  24.636  44.677   4.959
32048W        W 4308  20.507  12.703  13.812
32049W        W 4309   4.654  10.409   3.801
32050W        W 4310  15.099  18.667   1.622
32051W        W 4311  30.543  41.574  14.419
32052W        W 4312  41.226  38.541  13.917
32053W        W 4313  13.617  31.052  13.549
32054W        W 4314   7.975  43.890  11.508
32055W        W 4315  28.233  29.209   1.273
32056W        W 4316  12.830  23.181  14.481
32057W        W 4317   2.000   5.987  11.554
32058W        W 4318  20.388  34.491   0.683
32059W        W 4319   3.792   0.624  11.057
32060W        W 4320  14.846  28.661  13.080
32061W        W 4321  14.049  13.668  11.442
32062W        W 4322   4.894   6.262  11.053
32063W        W 4323  14.070  27.644   4.705
32064W        W 4324  33.944  40.002   0.307
32065W        W 4325  40.312   0.722  10.550
32066W        W 4326  16.483   4.745   1.055
32067W        W 4327  33.392  22.205  12.930
32068W        W 4328  16.584  12.616   1.031
32069W        W 4329  21.623   4.811   4.618
32070W        W 4330   7.088  30.133  10.508
32071W        W 4331   8.903  21.939   0.817
32072W        W 4332  36.922   0.061  13.992
32073W        W 4333  42.428  14.167   2.201
32074W        W 4334   7.494  11.766  11.160
32075W        W 4335  31.986  35.553   1.246
32076W        W 4336  19.577  30.176   3.769
32077W        W 4337   5.448  22.632   1.536
32078W        W 4338  42.506  42.001  13.375
32079W        W 4339  31.892  15.203   3.424
32080W        W 4340  31.056  12.350  13.998
32081W        W 4341  43.056  33.497   1.723
32082W        W 4342   9.310  14.215   1.809
32083W        W 4343  27.214  40.297  11.085
32084W        W 4344  18.225  31.787   3.151
32085W        W 4345  16.158  28.367   3.573
32086W        W 4346  12.554   4.179  13.759
32087W        W 4347  26.187  15.787  11.849
32088W        W 4348   6.790  24.604  13.437
32089W        W 4349  42.340  16.278   1.865
32090W        W 4350  39.233  19.205   0.432
32091W        W 4351  40.111  41.338  13.816
32092W        W 4352  32.437  28.581   1.300
32093W        W 4353  24.181  26.919  14.691
32094W        W 4354  17.325   5.193  13.394
32095W        W 4355   4.694  25.522   4.763
32096W        W 4356   3.261  15.728   2.215
32097W        W 4357  42.429  37.488  14.743
32098W        W 4358  21.757   9.725   3.176
32099W        W 4359  42.395  25.596   3.697
32100W        W 4360  26.078   4.453   4.734
32101W        W 4361  29.357  16.182  13.320
32102W        W 4362   4.692   6.654  12.591
32103W        W 4363   1.371   3.748  12.553
32104W        W 4364  31.594  33.864   2.784
32105W        W 4365  14.159  38.594   3.293
32106W        W 4366  43.570  32.819   4.209
32107W        W 4367  25.109   2.172   4.143
32108W        W 4368  30.004  20.263   3.759
32109W        W 4369  37.316   7.260   0.425
32110W        W 4370  22.709  38.375   2.756
32111W        W 4371  36.521  31.610   3.265
32112W        W 4372  24.252  40.026  14.000
32113W        W 4373   9.164  10.958  14.673
32114W        W 4374  23.612  36.685  12.765
32115W        W 4375  28.144   6.309  12.032
32116W        W 4376   4.233   3.602   0.802
32117W        W 4377  25.501  17.294   4.544
32118W        W 4378  11.130  30.723   4.945
32119W        W 4379  19.067  14.206  14.359
32120W        W 4380   2.162  26.254   0.968
32121W        W 4381  34.822  26.465   2.170
32122W        W 4382  39.432   3.166  12.916
32123W        W 4383  26.623  18.015  13.319
32124W        W 4384   9.177  22.628   3.063
32125W        W 4385   4.796   4.369   2.712
32126W        W 4386  35.661   0.960   0.928
32127W        W 4387  28.704   8.326   0.792
32128W        W 4388  25.436  26.103   0.216
32129W        W 4389  33.585  17.616  14.845
32130W        W 4390  26.516  11.253  11.636
32131W        W 4391  19.003  25.021   3.183
32132W        W 4392  42.238  37.628  13.419
32133W        W 4393  16.037  37.449  14.502
32134W        W 4394  13.662  32.019   0.187
32135W        W 4395  17.345  41.964   2.196
32136W        W 4396   2.994  12.545  13.003
32137W        W 4397  17.279   8.646   4.165
32138W        W 4398  32.319   7.380   3.289
32139W        W 4399   7.844  37.472  14.499
32140W        W 4400  43.190  15.647  14.416
32141W        W 4401  25.676  10.233  10.181
32142W        W 4402  33.639  32.051   1.161
32143W        W 4403  28.486  16.916   1.780
32144W        W 4404  26.017  42.699  13.434
32145W        W 4405   4.169  36.266   1.826
32146W        W 4406  35.394   4.507  11.241
32147W        W 4407  20.441  14.495   3.345
32148W        W 4408  27.007  21.231   2.326
32149W        W 4409  19.263  26.665  10.704
32150W        W 4410  30.187   6.212  12.092
32151W        W 4411  28.469  31.438   4.468
32152W        W 4412  15.768   9.666   0.332
32153W        W 4413   9.154  29.557  12.296
32154W        W 4414  23.047   8.280   4.892
32155W        W 4415  35.649  18.258   2.285
32156W        W 4416  31.495  34.469   1.923
32157W        W 4417  28.469  17.262  14.730
32158W        W 4418  27.972  25.595   0.947
32159W        W 4419  31.156  13.368   1.868
32160W        W 4420  23.147  40.120  10.986
32161W        W 4421   4.706  17.501   4.874
32162W        W 4422  44.969   9.504  12.023
32163W        W 4423  40.982  11.654   3.081
32164W        W 4424  33.664  30.537   3.834
32165W        W 4425  26.063  22.685   0.722
32166W        W 4426  41.243  19.776   3.822
32167W        W 4427   2.909   9.914   2.390
32168W        W 4428  22.637  27.487  12.948
32169W        W 4429  19.259   8.799  13.418
32170W        W 4430  15.848  44.687   1.740
32171W        W 4431  44.232  12.966   4.828
32172W        W 4432  39.539  15.818   1.983
32173W        W 4433  29.251   3.345   4.118
32174W        W 4434  39.667   8.254   3.240
32175W        W 4435  30.576  31.181   4.584
32176W        W 4436  16.058  28.788  10.533
32177W        W 4437   4.243  28.118   4.067
32178W        W 4438  20.964  43.200  14.737
32179W        W 4439  21.950  22.215   2.003
32180W        W 4440  28.237  31.959  14.829
32181W        W 4441  30.518  42.394   4.285
32182W        W 4442  38.448   7.200  12.439
32183W        W 4443  23.601  24.749   2.092
32184W        W 4444   9.659  44.940  10.612
32185W        W 4445  36.316  33.375   2.858
32186W        W 4446  12.778  29.975   4.692
32187W        W 4447  39.140  32.170   1.348
32188W        W 4448   7.687  29.216   0.789
32189W        W 4449  35.848  34.491   1.556
32190W        W 4450  12.127  28.918  10.523
32191W        W 4451   9.723  25.584   0.933
32192W        W 4452  42.547  16.743   0.936
32193W        W 4453  31.132   9.945   0.873
32194W        W 4454  34.943  22.307  13.562
32195W        W 4455   3.711   0.942   4.416
32196W        W 4456  21.540  14.421   2.399
32197W        W 4457  34.943  22.436   5.017
32198W        W 4458  24.734  33.918   4.212
32199W        W 4459  32.653  22.683  12.064
32200W        W 4460  12.377  17.939   1.547
32201W        W 4461  28.334  10.568  10.066
32202W        W 4462   1.882   6.489  11.627
32203W        W 4463  37.575  27.552  10.475
32204W        W 4464  33.955  20.675  10.562
32205W        W 4465  42.288  11.166   4.153
32206W        W 4466  36.489  31.342  13.041
32207W        W 4467  29.925  39.873   4.070
32208W        W 4468   9.979  37.430  12.197
32209W        W 4469  24.426   9.660  13.455
32210W        W 4470  28.426  30.104  13.958
32211W        W 4471  17.774   4.665  14.456
32212W        W 4472   5.391  12.132  10.418
32213W        W 4473  14.390   2.950   4.609
32214W        W 4474  11.649  19.586   1.794
32215W        W 4475   5.337  37.491  11.723
32216W        W 4476  36.261  39.914   1.286
32217W        W 4477  11.324  27.679   3.702
32218W        W 4478  27.445  21.677  13.108
32219W        W 4479  23.521  12.240   2.873
32220W        W 4480  19.105  21.543   3.745
32221W        W 4481  16.803  20.307   1.617
32222W        W 4482  27.081  30.557   0.464
32223W        W 4483  20.265  11.410   0.232
32224W        W 4484  39.977  38.800   0.790
32225W        W 4485  28.806  21.108   4.182
32226W        W 4486   1.230  26.221  11.090
32227W        W 4487  11.264  32.272  12.189
32228W        W 4488  44.848   9.422   2.817
32229W        W 4489  19.047  20.298  13.048
32230W        W 4490  35.630  18.602  11.588
32231W        W 4491  28.384   0.370  13.003
32232W        W 4492  28.401  43.968   2.325
32233W        W 4493  16.632   5.706  10.567
32234W        W 4494  31.856  32.395  12.858
32235W        W 4495  18.290  40.758  10.953
32236W        W 4496  17.569   5.141   1.518
32237W        W 4497  15.686  31.656  11.582
32238W        W 4498  26.948  25.676   2.459
32239W        W 4499  35.047  12.237   0.210
32240W        W 4500  10.249  12.691  12.480
32241W        W 4501  21.518  43.734   3.328
32242W        W 4502  16.749  24.048  12.073
32243W        W 4503  44.261  41.373   2.212
32244W        W 4504   5.088  44.656   3.721
32245W        W 4505  29.909   6.515   1.439
32246W        W 4506  34.123  37.565  13.402
32247W        W 4507   3.476  36.465   4.470
32248W        W 4508   3.900  37.214   2.314
32249W        W 4509   4.136  33.122   4.051
32250W        W 4510  36.780  13.299   4.170
32251W        W 4511  41.765   5.145  12.908
32252W        W 4512  32.142  37.107   0.441
32253W        W 4513  28.728  13.701   1.742
32254W        W 4514  21.659  27.304   2.417
32255W        W 4515  41.251  10.221  13.980
32256W        W 4516   5.915  44.992   3.724
32257W        W 4517  17.798  24.541   1.962
32258W        W 4518  35.092  36.898   4.773
32259W        W 4519  12.605   7.946  14.790
32260W        W 4520  11.386  15.733  13.882
32261W        W 4521  26.066  26.288  13.953
32262W        W 4522  26.520  15.146   2.721
32263W        W 4523  34.609  37.799   1.140
32264W        W 4524  14.411  41.664  10.248
32265W        W 4525  20.988  27.747  11.955
32266W        W 4526   3.192  35.416   4.188
32267W        W 4527  25.540  23.528   2.265
32268W        W 4528  29.206  44.714  12.854
32269W        W 4529  13.279  41.035  13.791
32270W        W 4530  10.915  11.313   4.619
32271W        W 4531  12.891  12.866  10.764
32272W        W 4532  28.197  41.273   1.788
32273W        W 4533  20.544  28.909  12.027
32274W        W 4534  24.625  32.930   3.553
32275W        W 4535  41.994   2.709  12.068
32276W        W 4536  18.320   8.407  11.565
32277W        W 4537  16.120   4.433  12.004
32278W        W 4538  39.842  26.499  11.506
32279W        W 4539  21.071  11.128  12.469
32280W        W 4540  42.172  14.919  12.459
32281W        W 4541  38.745  29.113   1.353
32282W        W 4542   9.385   7.126   4.502
32283W        W 4543  20.753  20.794   5.439
32284W        W 4544  20.752  36.903  13.983
32285W        W 4545  16.279  28.623  11.383
32286W        W 4546  20.143  39.260   1.745
32287W        W 4547   5.498  26.423  14.855
32288W        W 4548  19.997  25.920   1.887
32289W        W 4549  11.228  43.983  13.027
32290W        W 4550   6.122  24.379  14.963
32291W        W 4551  12.683  16.670   3.555
32292W        W 4552  20.843  26.407   0.472
32293W        W 4553  37.482  34.483   2.860
32294W        W 4554  34.655   3.692  13.432
32295W        W 4555  24.908  29.216   3.846
32296W        W 4556  41.523  22.436   0.893
32297W        W 4557   0.861  19.070   3.226
32298W        W 4558  13.306   5.911  11.983
32299W        W 4559   6.574   8.652   4.137
32300W        W 4560  34.656  22.978   2.770
32301W        W 4561  36.838  11.904   3.857
32302W        W 4562  41.029  19.641   4.278
32303W        W 4563  13.194  26.572   1.790
32304W        W 4564  42.550  16.820  14.453
32305W        W 4565  13.788  14.686  13.031
32306W        W 4566  39.270  19.648  12.292
32307W        W 4567   7.630  37.407   4.544
32308W        W 4568  25.330  29.623   1.220
32309W        W 4569  14.710  29.192   2.365
32310W        W 4570  41.778  38.018   4.418
32311W        W 4571  39.239  29.039   1.468
32312W        W 4572   7.183  27.124   1.487
32313W        W 4573  16.710   9.781  14.736
32314W        W 4574  37.113  23.463   1.286
32315W        W 4575  34.472  39.906   2.325
32316W        W 4576   3.382   7.058  12.524
32317W        W 4577  21.294  23.433  11.874
32318W        W 4578  18.308  43.764  13.344
32319W        W 4579   0.586  20.570  14.036
32320W        W 4580  25.990  44.981   0.885
32321W        W 4581   7.117   2.877  11.504
32322W        W 4582  37.561  40.847   2.658
32323W        W 4583  42.424  29.607   0.112
32324W        W 4584  33.528  36.977   2.741
32325W        W 4585  29.055  43.311   3.775
32326W        W 4586  34.919  31.064  11.042
32327W        W 4587  15.053   9.182  14.899
32328W        W 4588  42.120  22.528  11.994
32329W        W 4589  43.751   7.550  14.029
32330W        W 4590  16.334  17.115   3.706
32331W        W 4591  34.317  13.298  12.634
32332W        W 4592  42.972  41.824  12.580
32333W        W 4593  23.226  26.986   1.375
32334W        W 4594   8.647  43.549  12.989
32335W        W 4595  11.628  14.819  12.468
32336W        W 4596   9.294   0.794   0.015
32337W        W 4597  22.936  43.007  13.394
32338W        W 4598  42.526  21.086   1.381
32339W        W 4599  28.899  25.095   2.741
32340W        W 4600  22.932  16.728  10.485
32341W        W 4601  11.319  16.707  11.271
32342W        W 4602  40.933   5.646  13.890
32343W        W 4603  13.190   4.655   9.928
32344W        W 4604  15.002   5.878   3.477
32345W        W 4605   5.397  28.685   3.404
32346W        W 4606   4.253  24.931   3.294
32347W        W 4607  38.511  25.237  12.052
32348W        W 4608   3.259  28.686  12.418
32349W        W 4609  43.975  33.474   1.353
32350W        W 4610   4.375  44.318  14.271
32351W        W 4611   4.925  19.563   1.657
32352W        W 4612  42.656  32.599  11.152
32353W        W 4613  43.043  38.662  10.112
32354W        W 4614  37.720   0.489  10.016
32355W        W 4615  28.238  16.087   0.334
32356W        W 4616  15.332   6.560   1.089
32357W        W 4617   6.055  15.773   1.749
32358W        W 4618   0.075  14.273   1.776
32359W        W 4619  36.033  12.848   3.840
32360W        W 4620  32.029  12.327  10.442
32361W        W 4621   4.152  38.351  14.756
32362W        W 4622   0.102  26.613  10.671
32363W        W 4623  22.726  43.811  13.840
32364W        W 4624  16.980   3.850  11.410
32365W        W 4625   3.660  37.011  11.472
32366W        W 4626  41.611  43.496  14.770
32367W        W 4627  25.514  35.895  10.714
32368W        W 4628  11.424  23.546  14.962
32369W        W 4629  12.891  35.372  11.974
32370W        W 4630  15.531   2.436  11.592
32371W        W 4631  32.951  21.563   3.020
32372W        W 4632  13.149  24.515  10.804
32373W        W 4633   0.450  37.430   1.331
32374W        W 4634  14.285  25.412   1.630
32375W        W 4635  17.246   6.874   3.052
32376W        W 4636  15.644  44.782   2.207
32377W        W 4637   5.765  25.182  11.495
32378W        W 4638  43.298  22.594   0.478
32379W        W 4639  28.278   7.721  10.052
32380W        W 4640  29.731  22.781  12.238
32381W        W 4641  34.306  24.079  13.100
32382W        W 4642  10.677  29.249  13.902
32383W        W 4643  40.392  19.688  11.624
32384W        W 4644  22.324  34.406   0.473
32385W        W 4645  18.264  38.611  13.746
32386W        W 4646  12.664  11.846   2.421
32387W        W 4647  35.910  30.349   2.740
32388W        W 4648   7.592  21.211  13.445
32389W        W 4649   5.941  24.781  11.172
32390W        W 4650  35.474  33.423   0.842
32391W        W 4651  29.487  34.482  14.060
32392W        W 4652  44.542  31.496   3.612
32393W        W 4653   2.432  29.529  11.976
32394W        W 4654  24.162  16.259  11.589
32395W        W 4655  39.495  28.627  10.697
32396W        W 4656  27.657  35.628  14.487
32397W        W 4657  42.867  41.051   2.729
32398W        W 4658  10.160  41.800   0.342
32399W        W 4659  42.364  41.118   3.291
32400W        W 4660   3.297   5.422   4.651
32401W        W 4661  27.805  26.632   3.600
32402W        W 4662  12.790  41.978  12.561
32403W        W 4663   7.289  40.435  13.174
32404W        W 4664   3.876  43.609  11.226
32405W        W 4665  41.459  33.437   3.071
32406W        W 4666  43.940   5.674  13.620
32407W        W 4667  16.659  28.242   2.659
32408W        W 4668  32.199   0.796   2.103
32409W        W 4669   6.774  23.147  12.829
32410W        W 4670  17.472  26.636   0.916
32411W        W 4671  34.589  31.394  11.230
32412W        W 4672  11.335  39.788  10.762
32413W        W 4673  16.737  40.346  13.950
32414W        W 4674  18.554   0.161  11.514
32415W        W 4675  22.692   0.706  13.942
32416W        W 4676  13.739  42.394  14.005
32417W        W 4677  34.862   3.377   1.309
32418W        W 4678  26.934  19.591   1.893
32419W        W 4679   0.974  29.426  12.179
32420W        W 4680  20.256  20.577   0.431
32421W        W 4681  18.564   8.852   2.713
32422W        W 4682   6.351  36.571  10.701
32423W        W 4683   4.209   4.231  10.689
32424W        W 4684  27.349   0.657   3.860
32425W        W 4685   8.952   6.635  13.491
32426W        W 4686  14.749  39.904   3.833
32427W        W 4687   0.783  39.428  12.938
32428W        W 4688  27.461  27.644  10.536
32429W        W 4689  10.651   2.273   2.604
32430W        W 4690  24.645  25.720  12.959
32431W        W 4691   1.305  30.056  13.484
32432W        W 4692   8.639  32.105   4.344
32433W        W 4693  18.299  43.225  12.489
32434W        W 4694  38.979  44.248  12.317
32435W        W 4695   6.840  28.618   9.967
32436W        W 4696  36.139  16.753   1.962
32437W        W 4697  41.483  23.331   2.446
32438W        W 4698   3.276  41.114   3.043
32439W        W 4699  37.915  37.914  10.216
32440W        W 4700  23.623  40.568   0.404
32441W        W 4701   0.736   3.655  11.516
32442W        W 4702   1.216   6.957  12.752
32443W        W 4703  10.369  34.004   2.795
32444W        W 4704  35.078   2.161   0.185
32445W        W 4705  36.781  32.543   3.279
32446W        W 4706  34.335  21.105  10.218
32447W        W 4707  18.519  27.104  10.581
32448W        W 4708  11.812  20.776   1.519
32449W        W 4709  14.231  15.800   3.804
32450W        W 4710  28.635   6.224   0.240
32451W        W 4711  31.785  42.552   3.216
32452W        W 4712  35.480   4.729  13.309
32453W        W 4713  31.913  42.943   1.022
32454W        W 4714  21.903  39.899   3.083
32455W        W 4715  21.933  42.414  12.044
32456W        W 4716   3.818   8.130  13.291
32457W        W 4717  24.526   1.951   1.589
32458W        W 4718  42.916  21.320   4.201
32459W        W 4719  44.332  28.464   3.718
32460W        W 4720  19.036   7.249  13.254
32461W        W 4721  32.044  40.082   4.144
32462W        W 4722   2.353   3.471   0.044
32463W        W 4723  11.508  32.921  14.825
32464W        W 4724  35.943   8.743   1.396
32465W        W 4725  33.874  11.787   3.687
32466W        W 4726   3.342   5.802  11.040
32467W        W 4727  15.911  13.637   4.311
32468W        W 4728   5.228  36.794   3.552
32469W        W 4729  19.132  31.229   3.196
32470W        W 4730   0.270   8.231  12.869
32471W        W 4731  13.854  10.285  13.019
32472W        W 4732  32.126  42.922   1.551
32473W        W 4733   5.446  28.700  13.965
32474W        W 4734   1.678  30.032   2.706
32475W        W 4735  38.822  33.596  11.834
32476W        W 4736  19.060   2.591  11.874
32477W        W 4737  35.835  35.019  13.951
32478W        W 4738  20.239   9.612  11.087
32479W        W 4739  38.971   5.772   5.035
32480W        W 4740  37.136  41.859  10.683
32481W        W 4741  22.879  29.125   4.554
32482W        W 4742  29.065  18.625  13.644
32483W        W 4743  37.417  39.133  14.526
32484W        W 4744  25.879  39.741  11.617
32485W        W 4745  41.496  40.964   0.482
32486W        W 4746  26.037  25.603   4.297
32487W        W 4747  18.133   9.337   0.225
32488W        W 4748  10.657  22.530   2.839
32489W        W 4749  13.672  43.855   4.603
32490W        W 4750  11.163   8.726   3.157
32491W        W 4751  20.659  37.253   1.351
32492W        W 4752  11.926  27.283   1.959
32493W        W 4753   9.908  23.769   2.822
32494W        W 4754  37.350  24.700   2.798
32495W        W 4755  44.522  17.997  12.322
32496W        W 4756  27.601  22.086  13.988
32497W        W 4757  38.087  12.016   0.515
32498W        W 4758  22.932   1.727   3.723
32499W        W 4759  41.567  24.689   1.299
32500W        W 4760  28.725  44.379  11.553
32501W        W 4761  40.412  14.093  14.977
32502W        W 4762   3.137  28.412   2.254
32503W        W 4763   7.735  33.204   5.066
32504W        W 4764  44.730  29.196   0.686
32505W        W 4765  12.619   7.310  10.696
32506W        W 4766  27.515  41.252  14.333
32507W        W 4767  25.423  40.785  12.925
32508W        W 4768  36.994  24.040  10.669
32509W        W 4769   9.708   9.635   2.522
32510W        W 4770  14.929  16.228   5.269
32511W        W 4771  15.679  27.491   3.134
32512W        W 4772  44.879  34.028  12.928
32513W        W 4773  17.326  42.729   0.836
32514W        W 4774  42.742  33.881  13.948
32515W        W 4775  37.079   6.977  12.432
32516W        W 4776   5.640  34.881  12.966
32517W        W 4777  31.364  39.957   0.736
32518W        W 4778  14.105  10.073   4.171
32519W        W 4779   9.378  12.150   1.277
32520W        W 4780   2.366  30.000  14.969
32521W        W 4781  38.202  13.107   1.358
32522W        W 4782   8.631   6.192  12.437
32523W        W 4783  22.367  43.249  11.537
32524W        W 4784  44.725   7.288   1.694
32525W        W 4785  31.421  38.688  13.756
32526W        W 4786  12.795   6.997  13.865
32527W        W 4787  21.805  16.576   1.368
32528W        W 4788  39.502  30.157   4.522
32529W        W 4789   6.651  12.702   2.460
32530W        W 4790  33.199  40.041  11.699
32531W        W 4791  39.140   8.467   3.164
32532W        W 4792  17.400  18.850   0.934
32533W        W 4793   4.751   9.290   1.644
32534W        W 4794  18.184  32.152   4.835
32535W        W 4795  25.355   4.744   1.327
32536W        W 4796  40.089  30.568  13.422
32537W        W 4797   9.872  20.158  10.737
32538W        W 4798   5.351  23.740   2.766
32539W        W 4799   8.259  32.548  13.383
32540W        W 4800  15.419  27.123   2.833
32541W        W 4801   4.711  35.529  12.438
32542W        W 4802  18.595  25.276   3.694
32543W        W 4803  22.462   2.179   0.814
32544W        W 4804  38.070  19.056  10.685
32545W        W 4805  44.810   1.815  12.484
32546W        W 4806  11.213  43.456   4.140
32547W        W 4807   8.896  12.220  14.539
32548W        W 4808  13.102  35.378   0.527
32549W        W 4809  25.520  44.904   4.114
32550W        W 4810   0.990  36.926   4.664
32551W        W 4811  36.875   7.407  13.508
32552W        W 4812  19.335   4.815   3.056
32553W        W 4813  27.750   7.256  10.950
32554W        W 4814  27.572  25.675  11.560
32555W        W 4815  36.327   5.353   0.445
32556W        W 4816  14.396  19.226  11.087
32557W        W 4817  43.439  22.090   2.232
32558W        W 4818  18.552  36.067  10.964
32559W        W 4819   0.309  11.068   4.859
32560W        W 4820  28.621   0.019   1.766
32561W        W 4821  19.315  27.458  13.920
32562W        W 4822  20.855  11.858  11.443
32563W        W 4823  43.006  12.289   3.950
32564W        W 4824   5.140  39.102   2.905
32565W        W 4825  20.639  30.582  12.312
32566W        W 4826  13.775  37.564   0.420
32567W        W 4827  26.322  18.240   1.668
32568W        W 4828  39.744   8.810  12.020
32569W        W 4829  43.758   5.023  11.318
32570W        W 4830  34.183  44.395   2.604
32571W        W 4831  30.944  11.474   1.440
32572W        W 4832  17.499  35.751  11.650
32573W        W 4833  12.462  41.657  12.785
32574W        W 4834  20.597  42.202  13.660
32575W        W 4835   0.557  29.147  14.398
32576W        W 4836  26.872  41.216  12.960
32577W        W 4837  40.599  17.455  14.262
32578W        W 4838  17.775   0.076  12.515
32579W        W 4839  12.878  35.981  11.571
32580W        W 4840  16.322   6.173   4.240
32581W        W 4841  32.695  31.947  11.566
32582W        W 4842  22.494  36.533   3.114
32583W        W 4843  37.466  26.476  14.912
32584W        W 4844  38.389  36.924   4.314
32585W        W 4845  39.193  11.222   1.813
32586W        W 4846  32.226  12.188  11.311
32587W        W 4847  34.549   0.318  13.111
32588W        W 4848  43.985  31.000  11.910
32589W        W 4849  23.516  41.782  14.876
32590W        W 4850  14.443  42.943   0.423
32591W        W 4851  43.434   1.581  12.842
32592W        W 4852  23.500  22.528   2.270
32593W        W 4853   1.634   1.235   1.937
32594W        W 4854  27.502  40.771   1.934
32595W        W 4855  36.355  22.753  13.377
32596W        W 4856  32.486  23.802  13.300
32597W        W 4857  35.663  14.724  13.324
32598W        W 4858  10.861  29.950  10.668
32599W        W 4859  37.769   6.503   4.669
32600W        W 4860   2.805  29.167  11.921
32601W        W 4861  28.177  31.169  11.554
32602W        W 4862  35.271   7.868  13.612
32603W        W 4863  31.563  11.681   0.202
32604W        W 4864  22.098  10.342   2.107
32605W        W 4865   5.927  19.231  12.436
32606W        W 4866  39.958  26.153  10.865
32607W        W 4867  32.392  43.023   0.831
32608W        W 4868  12.682  35.194   2.624
32609W        W 4869  16.518   6.541   0.806
32610W        W 4870  24.162  16.043  12.057
32611W        W 4871  16.860   6.646   5.044
32612W        W 4872  10.337  24.147  12.469
32613W        W 4873  16.981  43.263   1.690
32614W        W 4874  36.326  31.882   2.669
32615W        W 4875  26.071  18.159   3.551
32616W        W 4876  17.294  28.153   1.425
32617W        W 4877  18.282   9.315  14.249
32618W        W 4878  36.992   8.695  10.164
32619W        W 4879  26.444  13.824  13.468
32620W        W 4880   2.822  22.245  12.730
32621W        W 4881  23.134  21.323  12.035
32622W        W 4882  19.316  17.801  14.179
32623W        W 4883  13.195  28.460  14.978
32624W        W 4884  34.037  13.441  11.101
32625W        W 4885   9.733  36.417   4.043
32626W        W 4886  35.581  39.315  10.694
32627W        W 4887  23.052  31.962   4.150
32628W        W 4888  13.891  36.954   3.914
32629W        W 4889  13.767  29.610  14.618
32630W        W 4890  23.970  13.160   1.236
32631W        W 4891  13.591  16.508   2.456
32632W        W 4892  21.028  34.501  12.431
32633W        W 4893   1.904  28.979  12.463
32634W        W 4894  30.699  22.123  13.950
32635W        W 4895  40.714  42.268   3.581
32636W        W 4896  24.754  35.014   3.358
32637W        W 4897  41.003  31.725   4.137
32638W        W 4898   6.274  35.670   1.114
32639W        W 4899  40.139   6.237  11.083
32640W        W 4900  34.955  22.034  10.450
32641W        W 4901  18.780  38.523   1.845
32642W        W 4902  20.518  12.135   1.395
32643W        W 4903  19.980  24.597  11.162
32644W        W 4904  34.945  18.836   2.696
32645W        W 4905  43.671  18.481  13.342
32646W        W 4906  42.850  41.319   3.206
32647W        W 4907  22.661  14.699  12.881
32648W        W 4908  24.794   9.800   2.334
32649W        W 4909  26.942  44.317  10.239
32650W        W 4910   3.950  23.171   2.219
32651W        W 4911  14.301  27.861  13.508
32652W        W 4912   6.635   1.788  11.168
32653W        W 4913  34.661  40.911   2.271
32654W        W 4914  36.741  27.540   3.713
32655W        W 4915  28.091  43.860   0.842
32656W        W 4916   8.489   9.704   0.253
32657W        W 4917   1.278  20.899   4.790
32658W        W 4918   8.131   5.576   1.162
32659W        W 4919  41.344  15.173  10.423
32660W        W 4920  30.948  28.197  12.897
32661W        W 4921   2.943  38.854   3.188
32662W        W 4922   8.231  41.999   4.778
32663W        W 4923   3.011  24.377   3.580
32664W        W 4924  28.596  27.457   2.088
32665W        W 4925  19.647  15.620  10.647
32666W        W 4926  37.581  11.051  11.051
32667W        W 4927  26.683   6.339   0.700
32668W        W 4928   5.372  20.227   1.752
32669W        W 4929  29.375   1.743  13.373
32670W        W 4930  21.552  27.650   3.898
32671W        W 4931  20.333  29.271   0.597
32672W        W 4932  36.987   6.621   1.786
32673W        W 4933  43.844  27.785   3.086
32674W        W 4934  20.999  24.757   3.738
32675W        W 4935  36.015  44.083  10.710
32676W        W 4936  15.252  39.844   0.299
32677W        W 4937  19.711  15.542   0.346
32678W        W 4938  34.536  37.413  12.894
32679W        W 4939   6.226  11.620  12.563
32680W        W 4940  42.809   4.929   2.440
32681W        W 4941  11.038  16.278  14.052
32682W        W 4942   2.536  42.447   2.942
32683W        W 4943  30.035  17.704   4.824
32684W        W 4944  41.457  35.568  12.303
32685W        W 4945  22.529  20.979   4.843
32686W        W 4946  18.597   6.225  12.526
32687W        W 4947  10.985  11.698   4.962
32688W        W 4948  10.422  30.595  11.915
32689W        W 4949  31.535   1.973   1.674
32690W        W 4950  22.529  40.422  14.024
32691W        W 4951  10.376  14.733   4.073
32692W        W 4952  11.171   6.352  14.514
32693W        W 4953   0.821  40.305   0.414
32694W        W 4954   4.215  34.201   4.548
32695W        W 4955   9.815  14.879  11.055
32696W        W 4956   5.813  17.351  12.437
32697W        W 4957  44.495  19.612  10.971
32698W        W 4958  38.595  26.156   4.773
32699W        W 4959   5.359  31.485   2.483
32700W        W 4960  35.859   2.215  12.937
32701W        W 4961  41.409   9.846  10.458
32702W        W 4962  24.117  17.772  12.547
32703W        W 4963  19.807   0.333   3.970
32704W        W 4964  22.471  12.632  12.402
32705W        W 4965   1.457  24.140   1.879
32706W        W 4966  34.543  43.363   3.882
32707W        W 4967  13.171  13.278   0.407
32708W        W 4968  12.110  19.179  13.082
32709W        W 4969  21.296  11.859  12.959
32710W        W 4970  36.242  23.548  10.453
32711W        W 4971   8.908   9.938  12.059
32712W        W 4972   1.716  27.471  12.570
32713W        W 4973  21.413   5.728  10.383
32714W        W 4974   6.398  24.919   0.344
32715W        W 4975  44.766   9.860   4.224
32716W        W 4976   2.976  17.335  13.297
32717W        W 4977  27.451  30.204   1.940
32718W        W 4978  32.932  37.115   4.601
32719W        W 4979  27.522  26.953   4.641
32720W        W 4980  24.761  11.636  10.820
32721W        W 4981  20.999  32.594  13.194
32722W        W 4982  42.717  36.219  10.145
32723W        W 4983  30.882  25.096  12.487
32724W        W 4984   9.800  26.095   1.479
32725W        W 4985  42.734   0.551   2.229
32726W        W 4986  22.276  37.969   3.560
32727W        W 4987  16.690  13.716  14.312
32728W        W 4988  36.317  40.076  14.010
32729W        W 4989   9.391  23.608  13.341
32730W        W 4990  43.949  37.907   1.429
32731W        W 4991  23.414  28.358  13.268
32732W        W 4992  30.525  21.349   0.916
32733W        W 4993   4.059  22.607  11.855
32734W        W 4994   8.220  21.197   2.928
32735W        W 4995  24.143  40.287  13.476
32736W        W 4996  21.151   4.652   1.494
32737W        W 4997  18.684  25.048   1.356
32738W        W 4998   4.201  12.782   2.268
32739W        W 4999   6.772  41.318  10.523
32740W        W 5000   1.714  27.116   0.028
32741W        W 5001  37.655   1.196   1.360
32742W        W 5002  20.148  31.904  14.364
32743W        W 5003  27.969  13.477   4.233
32744W        W 5004  35.421   1.297   3.162
32745W        W 5005  23.164   4.352   3.650
32746W        W 5006   9.368  43.308   2.431
32747W        W 5007  33.740  43.328   0.769
32748W        W 5008  33.002  10.208   2.997
32749W        W 5009   4.670  31.673   0.256
32750W        W 5010   1.983   2.238  10.540
32751W        W 5011   2.845  19.305  13.269
32752W        W 5012  13.586  17.139  11.484
32753W        W 5013  15.700   0.968  13.858
32754W        W 5014   6.264   1.154   0.412
32755W        W 5015   4.250  43.132   5.079
32756W        W 5016   6.312  43.291   0.946
32757W        W 5017  11.963  44.662  14.805
32758W        W 5018  34.096  18.785  11.831
32759W        W 5019  16.887  30.070  13.309
32760W        W 5020  18.667  42.668   4.343
32761W        W 5021  27.884  21.751   4.108
32762W        W 5022  14.684  40.530  12.975
32763W        W 5023  38.375  28.310   0.205
32764W        W 5024  35.978  32.189   3.310
32765W        W 5025  28.515  39.838  10.315
32766W        W 5026  35.818  17.886  13.963
32767W        W 5027  16.343  34.635   2.754
32768W        W 5028  31.883  29.671  11.975
32769W        W 5029  31.885   8.791   0.229
32770W        W 5030  33.908  17.578  11.200
32771W        W 5031  20.293  15.560  11.050
32772W        W 5032  19.367  33.436  12.404
32773W        W 5033   2.745  19.531   3.889
32774W        W 5034   1.853  21.766  11.041
32775W        W 5035  12.727  28.515   4.282
32776W        W 5036  15.204  10.254   2.401
32777W        W 5037   7.301   4.251   0.946
32778W        W 5038  40.048  34.596  11.684
32779W        W 5039  36.034   3.739   5.233
32780W        W 5040  29.457  23.889  10.824
32781W        W 5041  12.633  44.040  14.093
32782W        W 5042  26.840   4.878   1.220
32783W        W 5043  31.402  40.020  13.547
32784W        W 5044  40.918  43.066  13.805
32785W        W 5045  40.989   2.389  12.427
32786W        W 5046   7.629  42.009   4.152
32787W        W 5047  31.510  17.805   1.226
32788W        W 5048  27.135  22.045   0.307
32789W        W 5049  31.376  15.664  12.834
32790W        W 5050   8.094  38.540  11.470
32791W        W 5051  30.888   1.293  11.587
32792W        W 5052   3.223   4.910  14.981
32793W        W 5053  26.937  11.794  13.516
32794W        W 5054  14.262  36.273   1.814
32795W        W 5055  35.035  18.250   2.275
32796W        W 5056   9.752  16.567  13.087
32797W        W 5057  32.111  41.262   0.412
32798W        W 5058   3.210  41.527   0.121
32799W        W 5059  20.310  43.721   0.110
32800W        W 5060  32.012  11.624  14.509
32801W        W 5061  21.434   5.275   4.807
32802W        W 5062  16.190  19.340  12.159
32803W        W 5063  14.793  23.255  11.641
32804W        W 5064  29.074   9.644   4.272
32805W        W 5065  31.139   8.036  14.899
32806W        W 5066   4.970   0.828   3.750
32807W        W 5067  18.668  13.340   0.681
32808W        W 5068  14.660  43.762   3.969
32809W        W 5069   7.313  25.694   0.969
32810W        W 5070  28.253  35.521   4.134
32811W        W 5071  33.567  39.343   1.340
32812W        W 5072   5.352  38.883  14.234
32813W        W 5073  30.405   2.277  14.781
32814W        W 5074  25.659  28.242   2.934
32815W        W 5075   3.722  37.490   4.947
32816W        W 5076   3.641  18.676   2.347
32817W        W 5077   2.352   8.331  11.600
32818W        W 5078  32.180  44.354  13.026
32819W        W 5079  27.416  19.352   2.624
32820W        W 5080  26.938  23.707  11.069
32821W        W 5081  30.074   3.784  11.439
32822W        W 5082  36.053   0.078   3.208
32823W        W 5083  12.847  42.485   4.109
32824W        W 5084  43.413  35.000  11.709
32825W        W 5085  11.145   7.281  14.491
32826W        W 5086  24.445   9.395  13.909
32827W        W 5087  40.967   7.059   3.428
32828W        W 5088  43.031  39.451  13.815
32829W        W 5089  12.123  32.388  12.163
32830W        W 5090   6.448  25.974   2.338
32831W        W 5091   1.479   1.891   3.311
32832W        W 5092  37.276  14.403   3.803
32833W        W 5093  39.414   0.277  11.024
32834W        W 5094  23.120   7.288   2.913
32835W        W 5095  14.346  44.027   1.752
32836W        W 5096  37.964  11.560   0.693
32837W        W 5097  36.050  31.226   3.307
32838W        W 5098  14.596   2.369  13.374
32839W        W 5099  28.636  14.109   0.337
32840W        W 5100  35.124  26.175  12.067
32841W        W 5101  39.638  43.963   4.610
32842W        W 5102   0.956  34.342  12.962
32843W        W 5103   7.802  38.908   5.286
32844W        W 5104  33.415  20.753  14.678
32845W        W 5105  41.409  21.510   4.339
32846W        W 5106   2.601  27.543  11.446
32847W        W 5107  18.511  10.436   1.346
32848W        W 5108   3.662  29.206   0.728
32849W        W 5109  41.036  17.756   0.526
32850W        W 5110   1.277   5.017  12.283
32851W        W 5111   9.891  22.051  10.464
32852W        W 5112   5.623  37.971  11.106
32853W        W 5113  42.549  13.448   3.844
32854W        W 5114  34.173  43.040  11.177
32855W        W 5115   2.315  38.084  11.021
32856W        W 5116  30.690  44.826  13.983
32857W        W 5117   5.866  13.102  11.157
32858W        W 5118  39.033  33.987  11.044
32859W        W 5119  18.522  42.377  12.744
32860W        W 5120  23.687  35.113   0.792
32861W        W 5121  13.308  26.426   2.291
32862W        W 5122   7.128  38.397   0.931
32863W        W 5123   4.300  20.727  12.435
32864W        W 5124  24.430  14.612   3.212
32865W        W 5125  12.805  29.689  14.751
32866W        W 5126  33.552  16.983   4.149
32867W        W 5127   0.971  15.204   1.646
32868W        W 5128  32.881  16.525  11.983
32869W        W 5129  10.188   4.824  10.864
32870W        W 5130  21.833  35.292   2.288
32871W        W 5131  29.694   5.692   3.959
32872W        W 5132  11.752  12.241  14.102
32873W        W 5133   6.369  37.956   2.824
32874W        W 5134  33.021  43.037  11.806
32875W        W 5135  15.192  31.320  14.924
32876W        W 5136  17.270  28.457  10.446
32877W        W 5137  43.825  37.483   3.857
32878W        W 5138  31.824  31.974   1.597
32879W        W 5139   0.920   7.609  11.688
32880W        W 5140  43.340   2.043  14.320
32881W        W 5141   9.737  18.289   4.572
32882W        W 5142  36.462  28.756  14.358
32883W        W 5143  44.494   3.334  14.781
32884W        W 5144  26.614   3.013   1.432
32885W        W 5145  18.540  20.681   1.244
32886W        W 5146  24.648  39.046  10.806
32887W        W 5147  38.579  17.148   2.425
32888W        W 5148  22.724  28.109   2.810
32889W        W 5149  18.644  31.493  14.892
32890W        W 5150  20.613   9.522  12.398
32891W        W 5151  19.718  31.420  10.711
32892W        W 5152   5.499  16.016   3.754
32893W        W 5153   6.391  28.210   9.769
32894W        W 5154  24.183  15.820   2.738
32895W        W 5155  35.392  21.230  14.398
32896W        W 5156   9.313   5.876  13.132
32897W        W 5157  42.372  34.573  10.889
32898W        W 5158  40.150  17.084  14.323
32899W        W 5159   4.791   7.372  12.079
32900W        W 5160   3.791  26.527   4.800
32901W        W 5161  18.606  42.629  11.153
32902W        W 5162  40.799  10.314  14.370
32903W        W 5163   7.631   4.579  13.822
32904W        W 5164   3.968  13.556  11.868
32905W        W 5165  10.684  21.110   3.760
32906W        W 5166   8.621  34.914  11.413
32907W        W 5167  15.924  41.001  11.182
32908W        W 5168  33.475   0.627   2.193
32909W        W 5169  33.370  32.991   0.175
32910W        W 5170  38.499  19.909  12.599
32911W        W 5171  14.172   1.200  14.514
32912W        W 5172  31.354   2.342  12.006
32913W        W 5173  44.518  14.068  11.312
32914W        W 5174  16.152  44.913   4.093
32915W        W 5175  29.594  20.138   4.347
32916W        W 5176  35.873  24.498   3.991
32917W        W 5177  40.573  13.874  14.355
32918W        W 5178  18.161   6.231  13.444
32919W        W 5179   1.649  40.961  10.721
32920W        W 5180  16.752   1.818  11.926
32921W        W 5181   6.801  20.335   1.373
32922W        W 5182  19.591  15.098  10.681
32923W        W 5183  18.113   1.998  10.521
32924W        W 5184  34.567   6.923  13.311
32925W        W 5185  44.583  40.600   4.110
32926W        W 5186  31.510   2.410   0.898
32927W        W 5187  18.790  22.675  13.796
32928W        W 5188  13.622  24.096  13.129
32929W        W 5189  32.899   0.836  13.961
32930W        W 5190  20.753  30.943  11.536
32931W        W 5191  26.119  19.038  11.571
32932W        W 5192  16.106  31.168  11.056
32933W        W 5193  13.082  24.028   3.614
32934W        W 5194   8.506   6.370  11.041
32935W        W 5195   5.237   9.926  14.005
32936W        W 5196  17.748   1.504   0.910
32937W        W 5197   1.442  26.182   2.442
32938W        W 5198   1.881  13.826  13.894
32939W        W 5199  44.592  26.902  14.696
32940W        W 5200  43.514  42.270   2.297
32941W        W 5201  31.058  36.398   1.033
32942W        W 5202  44.709  14.820  11.626
32943W        W 5203   4.492  10.829   0.775
32944W        W 5204  17.722   6.405  13.962
32945W        W 5205  33.814   7.357   0.467
32946W        W 5206  43.754   3.668  11.237
32947W        W 5207  26.117  33.836  14.840
32948W        W 5208  34.929   5.701   3.271
32949W        W 5209  28.557  32.866   5.509
32950W        W 5210   3.644  38.787  13.494
32951W        W 5211  15.989   3.491   0.943
32952W        W 5212  21.627  39.474  10.374
32953W        W 5213  44.198  41.970  11.124
32954W        W 5214  30.901   7.492   1.116
32955W        W 5215  13.607  44.952   1.427
32956W        W 5216   5.888  28.872   5.031
32957W        W 5217  27.893  17.284   4.669
32958W        W 5218  36.402  44.371   3.927
32959W        W 5219  20.345  11.832  13.296
32960W        W 5220   3.115   4.179  11.919
32961W        W 5221  23.743  34.564   1.680
32962W        W 5222  20.545  12.721  11.099
32963W        W 5223  27.899   1.858   0.354
32964W        W 5224  25.770   1.475  10.748
32965W        W 5225  37.990   0.406  14.015
32966W        W 5226   7.150  30.621  14.376
32967W        W 5227  22.910  42.954   2.315
32968W        W 5228   8.819  31.519  14.792
32969W        W 5229  34.899  40.146   1.408
32970W        W 5230  11.668  27.506   4.489
32971W        W 5231  39.759  25.960   1.741
32972W        W 5232  34.321  28.794  12.547
32973W        W 5233  17.605  33.805   2.637
32974W        W 5234   4.718  16.436   2.698
32975W        W 5235  33.189  26.092   3.768
32976W        W 5236  19.696   2.826  14.817
32977W        W 5237  16.350  40.659   2.553
32978W        W 5238  40.978  44.518  10.759
32979W        W 5239  20.181  25.112  14.884
32980W        W 5240  29.505  38.399  13.318
32981W        W 5241   3.094   1.014   3.841
32982W        W 5242  10.640  19.470   4.283
32983W        W 5243  15.879  30.477   2.688
32984W        W 5244  23.701  17.744   2.437
32985W        W 5245   1.861  33.872   4.597
32986W        W 5246   9.816   4.133   0.453
32987W        W 5247  15.288  26.556   1.194
32988W        W 5248  17.038   0.479  11.550
32989W        W 5249  30.485   5.425   0.193
32990W        W 5250  32.149  27.048  14.547
32991W        W 5251  16.090  42.256   0.497
32992W        W 5252  22.086   7.895   2.672
32993W        W 5253  12.845  31.529   1.017
32994W        W 5254  32.553   7.117  11.484
32995W        W 5255   7.770  44.528  12.550
32996W        W 5256  25.032  20.264   3.812
32997W        W 5257  20.247  19.983   4.514
32998W        W 5258   9.799  24.270   2.798
32999W        W 5259  37.183  31.004  10.838
33000W        W 5260  41.292  34.944  13.386
33001W        W 5261  12.845  26.124  12.467
33002W        W 5262  25.675   9.223   0.883
33003W        W 5263  41.195  42.480  14.808
33004W        W 5264  43.608   1.654   1.097
33005W        W 5265   8.279  19.642   3.667
33006W        W 5266  17.353  28.580  14.624
33007W        W 5267   4.320  36.438  12.545
33008W        W 5268  42.079  41.277  12.974
33009W        W 5269  30.795  43.258  13.392
33010W        W 5270  12.185  27.650  11.079
33011W        W 5271  24.981   0.918  14.583
33012W        W 5272   4.742  21.064  10.688
33013W        W 5273   2.514  27.222   2.213
33014W        W 5274  18.595  32.995   2.378
33015W        W 5275  25.459  32.869   1.334
33016W        W 5276  20.621  44.207  11.195
33017W        W 5277   7.374  28.439   0.285
33018W        W 5278   5.433  13.885   3.762
33019W        W 5279  32.910   3.346  10.737
33020W        W 5280  32.540   3.479   2.827
33021W        W 5281   1.687  21.795  13.440
33022W        W 5282  14.119  33.469   0.398
33023W        W 5283   1.732  25.460  14.107
33024W        W 5284   8.072  33.067   3.714
33025W        W 5285  40.456  38.753  13.270
33026W        W 5286  24.153  28.239   0.304
33027W        W 5287  32.665  37.379  12.509
33028W        W 5288  23.077  33.910   3.940
33029W        W 5289  26.578  22.326  10.639
33030W        W 5290   8.112  14.309   0.339
33031W        W 5291  15.297  31.068   1.920
33032W        W 5292  27.960  43.465   2.751
33033W        W 5293  28.708  16.837  13.805
33034W        W 5294  38.504  12.983  11.062
33035W        W 5295  20.229   8.328  12.950
33036W        W 5296  22.170  27.774  12.368
33037W        W 5297  34.534  25.691  12.543
33038W        W 5298   3.777  38.546   0.067
33039W        W 5299  32.601   7.299  12.591
33040W        W 5300  16.243  16.963   5.633
33041W        W 5301  17.583  36.071   3.209
33042W        W 5302  27.035   4.439   1.409
33043W        W 5303   4.863  11.096  11.029
33044W        W 5304  26.971  17.483  11.461
33045W        W 5305  30.720   3.700   2.833
33046W        W 5306  15.667  16.059  13.353
33047W        W 5307  24.483   8.522  10.670
33048W        W 5308  10.861  32.766  12.621
33049W        W 5309  30.771  38.025   3.919
33050W        W 5310  41.033  18.482  14.524
33051W        W 5311  38.383  42.265  12.023
33052W        W 5312  16.925  15.701   5.382
33053W        W 5313  37.520  17.887   4.094
33054W        W 5314  40.865   5.747   2.804
33055W        W 5315   1.372  30.850  13.927
33056W        W 5316  11.212  19.168  13.158
33057W        W 5317  38.371   3.183   1.793
33058W        W 5318  24.712  12.474   0.447
33059W        W 5319  24.640  19.928   3.824
33060W        W 5320  44.959  38.144   2.237
33061W        W 5321  30.637  27.017   2.482
33062W        W 5322  27.622  36.949   2.841
33063W        W 5323  38.320  14.306   0.830
33064W        W 5324   8.124  16.057  10.668
33065W        W 5325  16.156  40.197   2.654
33066W        W 5326  17.487   0.759   3.289
33067W        W 5327  14.765  11.342  10.325
33068W        W 5328  21.169  14.023  10.232
33069W        W 5329  21.596   3.505  11.590
33070W        W 5330  30.598   6.570   4.960
33071W        W 5331   0.775  42.243  12.033
33072W        W 5332  18.228  44.702  13.577
33073W        W 5333  39.201  35.604   2.819
33074W        W 5334   4.758  14.820  10.685
33075W        W 5335   0.737  12.229  11.913
33076W        W 5336  23.602   5.498  11.738
33077W        W 5337  13.968   3.224  14.290
33078W        W 5338   0.316   1.481  14.750
33079W        W 5339  12.641  23.147   2.354
33080W        W 5340   8.815  17.066   2.657
33081W        W 5341   4.600  40.086   2.193
33082W        W 5342  43.457  27.542  11.022
33083W        W 5343  39.134  34.608   4.198
33084W        W 5344  33.132  34.549  13.825
33085W        W 5345  10.100  29.554  12.809
33086W        W 5346   8.809   4.272   2.191
33087W        W 5347  36.252  34.348  11.235
33088W        W 5348  33.511  12.888   4.130
33089W        W 5349  15.746  33.513   0.935
33090W        W 5350  16.247  39.309   2.414
33091W        W 5351  30.820   4.013   3.823
33092W        W 5352  17.568  41.211  11.451
33093W        W 5353  26.600  14.900   0.948
33094W        W 5354  21.278   3.804  14.889
33095W        W 5355  43.018  28.172  13.838
33096W        W 5356   7.526  27.652  11.506
33097W        W 5357  26.164  37.821  11.442
33098W        W 5358  26.391   2.755  11.103
33099W        W 5359  16.511  22.088  13.789
33100W        W 5360   4.952  37.027  13.059
33101W        W 5361  40.843  17.436  13.117
33102W        W 5362  26.102  41.558   3.209
33103W        W 5363  37.178   0.542  11.168
33104W        W 5364  40.769  34.166  10.756
33105W        W 5365  10.342  13.406   3.690
33106W        W 5366  16.743  27.636   3.633
33107W        W 5367  13.430   9.995  13.075
33108W        W 5368   7.122  14.489  13.890
33109W        W 5369  34.091  19.221  14.286
33110W        W 5370  34.427  18.890  14.010
33111W        W 5371   7.168  17.702   4.677
33112W        W 5372  35.601  20.188   3.922
33113W        W 5373   7.711  39.505  11.152
33114W        W 5374   0.412  44.704  11.965
33115W        W 5375  16.312   7.716  12.024
33116W        W 5376  27.880  15.225  14.856
33117W        W 5377   6.205  36.894  14.973
33118W        W 5378   2.200  10.403   3.641
33119W        W 5379  44.880  42.022   3.164
33120W        W 5380  21.755  31.620   2.153
33121W        W 5381  42.973  21.175  10.912
33122W        W 5382  36.503  42.358  11.030
33123W        W 5383  36.140  27.832  12.113
33124W        W 5384  26.819  23.617   2.608
33125W        W 5385  32.675  18.111  12.028
33126W        W 5386  25.508   5.318  10.649
33127W        W 5387  27.574  12.269   4.326
33128W        W 5388   5.206  43.916   2.923
33129W        W 5389  14.472  20.393  13.369
33130W        W 5390  43.198  35.957  14.487
33131W        W 5391  42.005  44.315  14.690
33132W        W 5392  17.548  38.373   1.252
33133W        W 5393  18.660  30.435   4.203
33134W        W 5394   9.741  24.004  11.697
33135W        W 5395  13.272  19.364  13.321
33136W        W 5396  40.043   5.558  14.284
33137W        W 5397  22.018  21.265   4.072
33138W        W 5398  16.173  40.218   3.819
33139W        W 5399  37.151  20.640   4.738
33140W        W 5400   5.727  29.896  14.872
33141W        W 5401  24.010  36.478   1.362
33142W        W 5402  13.670  21.119   3.404
33143W        W 5403  27.147  35.632   4.730
33144W        W 5404  25.613  21.170   3.167
33145W        W 5405   6.286   7.939   1.042
33146W        W 5406  21.864  25.217   1.603
33147W        W 5407  34.405   1.405  10.310
33148W        W 5408  39.762  37.592  12.939
33149W        W 5409  31.444   5.880   4.165
33150W        W 5410   7.679  21.174   4.111
33151W        W 5411  38.065  13.663  14.613
33152W        W 5412  19.788   0.889  12.901
33153W        W 5413  27.953  36.118  11.514
33154W        W 5414   8.030  14.324  11.123
33155W        W 5415  13.896  41.111  14.376
33156W        W 5416   6.007   3.277   1.286
33157W        W 5417  12.950  18.550   2.103
33158W        W 5418   5.859   4.242  11.131
33159W        W 5419   3.720  15.298  13.133
33160W        W 5420  19.810   6.789   2.686
33161W        W 5421  21.747   4.778  13.100
33162W        W 5422  33.543  13.293  11.150
33163W        W 5423  42.033   9.593   4.580
33164W        W 5424  39.083  39.808  12.051
33165W        W 5425  32.037  29.448   2.238
33166W        W 5426  30.064   4.335  11.669
33167W        W 5427   6.664  23.496  12.044
33168W        W 5428  29.153   9.972   3.884
33169W        W 5429  38.612  13.362   1.796
33170W        W 5430  36.000  29.681   1.388
33171W        W 5431   4.246  33.979   3.689
33172W        W 5432   5.014  38.846  13.752
33173W        W 5433   6.718  40.067  11.068
33174W        W 5434  43.089  22.300   4.313
33175W        W 5435   2.932  16.853  13.108
33176W        W 5436   7.425  23.488  10.761
33177W        W 5437  38.544   5.665   1.494
33178W        W 5438  22.620  13.717   3.767
33179W        W 5439   9.546  37.703  14.780
33180W        W 5440   6.666  17.614  10.460
33181W        W 5441  18.234  26.049   2.776
33182W        W 5442  19.827  41.913  13.036
33183W        W 5443  44.796  41.517  10.634
33184W        W 5444  20.376   3.033   3.073
33185W        W 5445  38.774  24.603   3.253
33186W        W 5446  35.069   7.469   9.768
33187W        W 5447  23.166  18.395   0.056
33188W        W 5448  22.686   8.160  11.937
33189W        W 5449  15.865  38.399  14.604
33190W        W 5450  23.242  39.990  13.515
33191W        W 5451  15.839  19.721   1.290
33192W        W 5452  40.634  36.159   1.237
33193W        W 5453  18.518  34.111  14.373
33194W        W 5454  37.909  30.952   0.113
33195W        W 5455  28.549  42.785  12.490
33196W        W 5456  10.222  44.022  13.897
33197W        W 5457  26.005  19.376   0.739
33198W        W 5458  39.437   3.392  13.399
33199W        W 5459   1.085  24.991  11.562
33200W        W 5460  35.810  26.137  12.829
33201W        W 5461  41.023   5.180  11.804
33202W        W 5462  20.049  32.905   1.977
33203W        W 5463  38.385  37.277   0.247
33204W        W 5464   8.371  25.697   3.795
33205W        W 5465  40.740  17.110   3.839
33206W        W 5466  37.544  14.696   0.955
33207W        W 5467  12.476  33.874  10.970
33208W        W 5468   8.390  31.091   2.980
33209W        W 5469  13.735  17.525   2.186
33210W        W 5470  15.192  44.352  14.978
33211W        W 5471   6.524  24.041  14.950
33212W        W 5472  39.329  27.493   2.777
33213W        W 5473  28.484   5.727  13.811
33214W        W 5474  32.339  28.545  13.107
33215W        W 5475  28.029   8.939  13.785
33216W        W 5476  20.200  25.282   4.538
33217W        W 5477  33.594   1.002   1.880
33218W        W 5478  35.681  18.684  13.606
33219W        W 5479  11.050  16.149  11.602
33220W        W 5480   0.375   5.515  10.606
33221W        W 5481  17.584  33.651  14.774
33222W        W 5482  29.636  10.884   0.792
33223W        W 5483   5.392  44.379  13.007
33224W        W 5484  14.490  32.969  11.419
33225W        W 5485  10.080   5.383   4.104
33226W        W 5486  31.422   3.323  13.370
33227W        W 5487   9.657  30.503  14.190
33228W        W 5488   0.351  29.176   3.561
33229W        W 5489  40.264  25.024   3.780
33230W        W 5490  22.387   1.744  14.432
33231W        W 5491  36.863   0.563  12.043
33232W        W 5492  11.743  18.302  14.866
33233W        W 5493   2.278  25.750  12.884
33234W        W 5494  31.516  20.754   0.890
33235W        W 5495  27.967  21.440   1.193
33236W        W 5496  34.602  25.417   4.697
33237W        W 5497  31.435   8.995  14.755
33238W        W 5498  25.613   6.060   4.104
33239W        W 5499  30.486  14.746  13.615
33240W        W 5500  24.981  36.058   1.969
33241W        W 5501   4.685  10.087  14.976
33242W        W 5502  36.974   9.687   1.388
33243W        W 5503  34.025  21.590   3.711
33244W        W 5504  27.695   0.383  11.043
33245W        W 5505  42.391  29.907   2.400
33246W        W 5506  19.570   6.339  11.379
33247W        W 5507  15.873   7.297  14.968
33248W        W 5508  17.577  15.630   2.786
33249W        W 5509  35.805  37.332  13.887
33250W        W 5510  11.988   3.403  14.138
33251W        W 5511  28.965  18.158   0.519
33252W        W 5512  22.225  42.312   3.775
33253W        W 5513  40.145  40.083  11.606
33254W        W 5514  10.751  14.983   4.337
33255W        W 5515   5.447  38.294  12.653
33256W        W 5516  12.813  22.630  14.390
33257W        W 5517  44.729  12.256  10.694
33258W        W 5518  30.054  39.090   3.783
33259W        W 5519  42.882  33.737  13.447
33260W        W 5520  24.991  43.298   3.842
33261W        W 5521  27.932  30.954  11.163
33262W        W 5522  15.212  39.418  12.017
33263W        W 5523  14.498  32.982   4.602
33264W        W 5524   2.950  12.730  14.908
33265W        W 5525  15.118  18.473  11.570
33266W        W 5526  23.984  22.175   3.741
33267W        W 5527   9.235   5.773   1.836
33268W        W 5528   1.466  43.038   1.542
33269W        W 5529   1.508  15.582  11.941
33270W        W 5530  17.113   3.436  11.673
33271W        W 5531  25.002  16.464   0.342
33272W        W 5532  10.553  11.286  13.836
33273W        W 5533  32.291  32.877   4.283
33274W        W 5534  10.678   3.582  13.336
33275W        W 5535  39.414  34.131   5.065
33276W        W 5536   4.377  31.174  10.823
33277W        W 5537  15.277  38.653  10.181
33278W        W 5538  28.693   9.822  10.669
33279W        W 5539  33.431  35.854   2.762
33280W        W 5540  33.630   5.158  11.081
33281W        W 5541  13.792  39.367  11.692
33282W        W 5542  28.557  20.001   4.966
33283W        W 5543   6.111   9.269  13.039
33284W        W 5544  16.120  28.475  11.882
33285W        W 5545   3.231  33.440   1.758
33286W        W 5546  37.197  17.490  14.986
33287W        W 5547  14.659  26.529   3.891
33288W        W 5548  20.566  35.432  14.599
33289W        W 5549  40.807  21.145  13.123
33290W        W 5550  25.604   7.956  12.023
33291W        W 5551  42.306  21.606  14.998
33292W        W 5552  17.952   4.886  12.396
33293W        W 5553   7.244  18.642  10.791
33294W        W 5554  31.682  36.417  10.605
33295W        W 5555  16.100  16.222  11.359
33296W        W 5556  17.642  23.544  10.557
33297W        W 5557  12.222  11.668  14.236
33298W        W 5558  11.793  34.450  12.044
33299W        W 5559  25.618  14.651  12.346
33300W        W 5560  20.512  20.576   4.608
33301W        W 5561  35.114  10.854   4.566
33302W        W 5562  28.901   5.412   2.025
33303W        W 5563   5.679  16.564   1.166
33304W        W 5564  34.193   3.914  14.320
33305W        W 5565  36.447  30.450   2.811
33306W        W 5566  35.455  40.375  10.598
33307W        W 5567   3.505  29.399  11.913
33308W        W 5568   0.251  34.487   4.577
33309W        W 5569  25.333  41.822  11.170
33310W        W 5570  10.823  17.719   1.705
33311W        W 5571   3.891  13.376  12.332
33312W        W 5572  20.300  21.984   0.498
33313W        W 5573  14.712  17.796  14.547
33314W        W 5574  13.212  44.732  11.153
33315W        W 5575  24.694  30.216   1.436
33316W        W 5576  30.531  20.012  11.495
33317W        W 5577   6.168   9.772  14.323
33318W        W 5578  44.262  44.429  11.965
33319W        W 5579  32.156   0.148  11.991
33320W        W 5580  12.925  43.720   0.262
33321W        W 5581  35.573  39.285   4.237
33322W        W 5582  12.331  25.669   0.017
33323W        W 5583  36.911   6.504  10.964
33324W        W 5584  21.964  15.556   4.098
33325W        W 5585  21.525  25.506  14.843
33326W        W 5586   7.681   8.840  14.595
33327W        W 5587   7.200   3.952  11.129
33328W        W 5588   6.309  40.835  12.321
33329W        W 5589  39.079   6.330  11.876
33330W        W 5590  19.724  13.993   1.395
33331W        W 5591  14.705  12.101  10.940
33332W        W 5592  20.683  23.841  11.026
33333W        W 5593   8.561  34.599   0.518
33334W        W 5594  11.957  36.923  11.508
33335W        W 5595  17.867  32.580  11.063
33336W        W 5596  23.508  24.437  11.561
33337W        W 5597  28.377  33.466   4.753
33338W        W 5598  19.286   6.108  14.950
33339W        W 5599  25.226   9.841  13.806
33340W        W 5600   4.831  32.545  12.950
33341W        W 5601  15.745  27.889  11.507
33342W        W 5602  21.633  36.997   1.965
33343W        W 5603  12.610  13.377  11.632
33344W        W 5604  23.086  15.261  13.476
33345W        W 5605  42.769  40.446   1.903
33346W        W 5606  21.691  23.599   2.184
33347W        W 5607  41.275  16.563   0.522
33348W        W 5608  30.562  30.194   2.662
33349W        W 5609  26.635   0.972  14.279
33350W        W 5610  23.478  18.036   4.203
33351W        W 5611  14.169  16.891  13.628
33352W        W 5612  23.625  13.228   2.605
33353W        W 5613   2.482  28.560  13.758
33354W        W 5614  31.123  36.897   2.810
33355W        W 5615  27.946  19.757  14.879
33356W        W 5616  22.954  33.102  14.360
33357W        W 5617  19.502  30.075  11.687
33358W        W 5618  21.968  18.562  13.320
33359W        W 5619  18.264  23.235   2.645
33360W        W 5620   2.231  39.425  10.908
33361W        W 5621  40.535  42.880  10.719
33362W        W 5622  12.855  18.996   0.837
33363W        W 5623  36.111  35.542   1.413
33364W        W 5624  36.085  24.472  10.587
33365W        W 5625  37.343  23.163  14.611
33366W        W 5626  40.076  12.738   0.416
33367W        W 5627  17.232  33.058  12.153
33368W        W 5628  28.348  16.051   3.629
33369W        W 5629  41.430   5.653   3.141
33370W        W 5630  20.091  18.759  12.465
33371W        W 5631  24.203  41.689  13.326
33372W        W 5632  20.576  36.783  14.871
33373W        W 5633  27.912   6.926   3.703
33374W        W 5634   0.002  11.605   4.322
33375W        W 5635  10.236  40.853  13.459
33376W        W 5636  26.556   2.030   3.398
33377W        W 5637  36.867  33.704  12.608
33378W        W 5638  11.344   9.767  13.533
33379W        W 5639  34.713  32.118   3.659
33380W        W 5640  37.455  37.874   3.105
33381W        W 5641   6.719   2.868  14.530
33382W        W 5642   7.647  12.911  11.427
33383W        W 5643  30.242  11.920   2.761
33384W        W 5644   1.926  24.704  14.244
33385W        W 5645  41.402   8.789   0.194
33386W        W 5646  39.467  22.765  14.354
33387W        W 5647  29.336  24.331  13.995
33388W        W 5648  31.447  10.410  14.759
33389W        W 5649   5.652  16.686   0.171
33390W        W 5650  42.416  40.704   0.179
33391W        W 5651  13.120  37.689  12.907
33392W        W 5652   6.880  22.492   2.610
33393W        W 5653   5.865  40.295   4.574
33394W        W 5654  27.243  42.255  12.368
33395W        W 5655  14.084  28.366   3.657
33396W        W 5656  13.112   8.241  14.516
33397W        W 5657  44.270  13.263   2.703
33398W        W 5658  27.752  13.185   1.663
33399W        W 5659  26.566   4.432   3.199
33400W        W 5660  31.857   7.427   4.293
33401W        W 5661  23.797  14.154  12.968
33402W        W 5662  16.182  35.643   4.045
33403W        W 5663  32.046   1.721   0.989
33404W        W 5664  28.556   3.626   3.731
33405W        W 5665  29.483  31.004  11.678
33406W        W 5666  23.349  42.977  11.389
33407W        W 5667  30.453   9.900  13.680
33408W        W 5668  28.206   4.585   5.078
33409W        W 5669  33.503  12.323  12.520
33410W        W 5670  24.554  21.653  11.960
33411W        W 5671   4.024  38.433  13.406
33412W        W 5672  27.450  28.402   1.538
33413W        W 5673  13.375  19.306  14.362
33414W        W 5674   5.217  11.586   1.188
33415W        W 5675  25.530  10.730   3.428
33416W        W 5676  30.607  38.819   0.243
33417W        W 5677  18.279  17.232  12.901
33418W        W 5678  39.935   4.432  12.359
33419W        W 5679  22.480  20.712  14.932
33420W        W 5680  41.937  38.549   1.843
33421W        W 5681   3.024   3.275   2.160
33422W        W 5682  23.086  12.273   3.151
33423W        W 5683  39.308  26.259  12.167
33424W        W 5684  40.919  34.837  12.047
33425W        W 5685  11.386   2.147  13.133
33426W        W 5686  14.129  22.796   2.832
33427W        W 5687  16.233  25.504  10.743
33428W        W 5688  44.884  27.220  10.833
33429W        W 5689  37.992  13.942   4.059
33430W        W 5690  32.416  19.608   4.920
33431W        W 5691  10.166  32.954  14.311
33432W        W 5692  38.655  16.285   0.845
33433W        W 5693   9.603  23.568  14.976
33434W        W 5694  23.089   7.119   0.333
33435W        W 5695  42.943  33.370  13.076
33436W        W 5696  34.100  23.934  13.551
33437W        W 5697  18.494  17.746  13.089
33438W        W 5698  39.791  13.833  14.980
33439W        W 5699   7.171  18.608  12.128
33440W        W 5700  44.536  34.945   0.025
33441W        W 5701   2.355   6.680  11.015
33442W        W 5702   5.070  39.155  10.033
33443W        W 5703  38.085  44.355  13.601
33444W        W 5704  20.748  36.219   1.428
33445W        W 5705  40.917  33.936   4.459
33446W        W 5706   7.930  42.947  11.134
33447W        W 5707  15.151   6.743  13.906
33448W        W 5708   6.264  25.442   0.418
33449W        W 5709  28.579  23.019  13.451
33450W        W 5710  14.903  43.559   3.568
33451W        W 5711  25.939  28.383  13.495
33452W        W 5712  42.872   4.891  10.424
33453W        W 5713  41.401   2.968  11.573
33454W        W 5714  28.573  29.055  14.064
33455W        W 5715  36.350  29.941   3.187
33456W        W 5716  30.172   1.509   0.357
33457W        W 5717  13.382   4.008   3.085
33458W        W 5718  33.239  30.884   0.788
33459W        W 5719  18.140  16.196  11.488
33460W        W 5720  21.566   7.677  11.507
33461W        W 5721  25.803  34.949  13.917
33462W        W 5722  39.173  20.528   0.964
33463W        W 5723   6.266  12.656  11.553
33464W        W 5724   3.707  11.390  12.518
33465W        W 5725  29.170   0.720   0.443
33466W        W 5726   1.538  43.286   3.619
33467W        W 5727  35.506  26.976  14.980
33468W        W 5728  33.315   1.043  12.489
33469W        W 5729  24.174  27.616   3.767
33470W        W 5730  10.168  35.839   1.238
33471W        W 5731  41.534  34.283   3.716
33472W        W 5732  34.620   9.352  11.938
33473W        W 5733   7.660  14.463   1.735
33474W        W 5734   0.906  27.687  12.969
33475W        W 5735  20.767  36.657  11.139
33476W        W 5736  35.030   4.740  11.542
33477W        W 5737  24.154  24.947   3.292
33478W        W 5738  25.096   6.681   4.556
33479W        W 5739  14.597   8.369   2.635
33480W        W 5740   9.375  32.570  12.445
33481W        W 5741  37.990  28.139  13.966
33482W        W 5742  40.372  42.493   4.529
33483W        W 5743  36.116  17.324  12.930
33484W        W 5744  41.995  14.499   1.228
33485W        W 5745  32.061  23.662   0.048
33486W        W 5746  24.942  32.344  12.079
33487W        W 5747  25.067  19.734   4.718
33488W        W 5748  36.094  38.401  10.663
33489W        W 5749   4.048   8.934   2.863
33490W        W 5750   6.400  24.977   1.646
33491W        W 5751  11.435  41.416   0.822
33492W        W 5752  11.123  12.822   4.511
33493W        W 5753  24.222  42.590   2.327
33494W        W 5754  39.898  18.353  12.818
33495W        W 5755  34.183  16.315  14.027
33496W        W 5756  23.167  37.996   0.478
33497W        W 5757   0.817   6.445   0.682
33498W        W 5758  23.747  18.380  11.879
33499W        W 5759  31.949  42.749  11.932
33500W        W 5760  22.668  12.134   1.503
33501W        W 5761  40.450  41.534  12.070
33502W        W 5762  25.191  30.647  13.082
33503W        W 5763  17.348   7.777   0.310
33504W        W 5764   0.759  24.893  10.593
33505W        W 5765  11.824   6.732   4.626
33506W        W 5766  31.781  19.042  12.499
33507W        W 5767   8.836  30.396   3.828
33508W        W 5768   6.630  26.166  13.387
33509W        W 5769  11.287  43.793  11.372
33510W        W 5770   9.201  10.008   3.738
33511W        W 5771  44.303  29.454  13.993
33512W        W 5772   8.991   0.652   2.119
33513W        W 5773  28.442   6.466  11.090
33514W        W 5774  43.370   2.320   1.358
33515W        W 5775  23.741  19.615  12.460
33516W        W 5776  38.550  44.297   2.321
33517W        W 5777  39.824  18.251  14.427
33518W        W 5778  32.042  28.643   2.899
33519W        W 5779  16.109  36.464   1.445
33520W        W 5780   2.900  38.499   1.345
33521W        W 5781  42.219  15.547   1.431
33522W        W 5782  19.612  20.301  14.167
33523W        W 5783  15.821  37.054  14.758
33524W        W 5784  19.799   1.754  12.750
33525W        W 5785   4.047  23.060   4.140
33526W        W 5786  24.854  33.218  10.696
33527W        W 5787  22.787  16.232   2.095
33528W        W 5788   4.310  40.585  11.607
33529W        W 5789   9.372  38.567   3.851
33530W        W 5790  11.693  35.022   3.514
33531W        W 5791   6.908  18.184  12.919
33532W        W 5792  42.499  22.884   0.054
33533W        W 5793   3.580  23.615   5.157
33534W        W 5794  22.628  42.685   1.336
33535W        W 5795  14.783  11.190   4.115
33536W        W 5796  40.313   1.960   0.366
33537W        W 5797  35.633  36.295  13.037
33538W        W 5798  14.245  11.397   0.493
33539W        W 5799  24.977  32.010   1.772
33540W        W 5800  39.128  36.672   4.141
33541W        W 5801  18.803  27.453  14.829
33542W        W 5802  30.523   3.238   2.716
33543W        W 5803   5.832  32.643   2.448
33544W        W 5804  37.650  28.013   5.237
33545W        W 5805   7.224   1.387   3.867
33546W        W 5806  38.528  30.343   4.551
33547W        W 5807  30.457  33.292   0.921
33548W        W 5808   4.701  19.187  13.823
33549W        W 5809  19.614  33.449   0.955
33550W        W 5810  39.802  34.494   3.154
33551W        W 5811   1.753  17.080  12.404
33552W        W 5812  36.470  24.916   2.315
33553W        W 5813   1.832  13.768  14.822
33554W        W 5814  34.492  21.105   2.894
33555W        W 5815  42.715  19.921  10.052
33556W        W 5816  26.587  42.927  12.377
33557W        W 5817   6.198  27.187  14.929
33558W        W 5818  11.105  33.563  10.842
33559W        W 5819  27.050   3.334  10.907
33560W        W 5820   7.264  21.651  10.729
33561W        W 5821  36.321   8.890  12.197
33562W        W 5822  10.675  22.341  11.527
33563W        W 5823  34.850  35.992  13.762
33564W        W 5824  35.168   2.997  11.547
33565W        W 5825  24.671   0.332  12.936
33566W        W 5826   8.342  41.960   3.269
33567W        W 5827  42.766  14.819   0.638
33568W        W 5828   4.735   8.353  11.566
33569W        W 5829   9.898   2.139   0.115
33570W        W 5830  37.088   5.240   4.747
33571W        W 5831   3.482  39.427   0.302
33572W        W 5832   3.769  38.979   0.377
33573W        W 5833  12.216   4.258   0.531
33574W        W 5834  42.307   7.011  12.186
33575W        W 5835  24.094   4.665  12.873
33576W        W 5836  27.700  40.350  14.234
33577W        W 5837  15.456  26.383   1.748
33578W        W 5838  21.391  29.923  14.097
33579W        W 5839   4.348   8.580   1.238
33580W        W 5840  35.681  23.210  12.908
33581W        W 5841  39.347  10.362  13.027
33582W        W 5842  15.744  12.402  13.456
33583W        W 5843  33.380   6.354  12.035
33584W        W 5844   0.123  37.602   4.203
33585W        W 5845  29.203  33.960  13.847
33586W        W 5846  16.786  41.991   4.747
33587W        W 5847  34.403   1.922  10.610
33588W        W 5848  39.438  35.497   1.848
33589W        W 5849   6.306  20.235  11.110
33590W        W 5850  12.818  21.709  13.049
33591W        W 5851  34.987  33.565   1.194
33592W        W 5852  13.129   3.082  12.237
33593W        W 5853   9.297   9.645   4.118
33594W        W 5854   5.895  11.674  14.274
33595W        W 5855   1.740  22.090  14.451
33596W        W 5856   2.739  23.248   2.689
33597W        W 5857   3.490  41.472   3.375
33598W        W 5858  12.812  15.283   2.202
33599W        W 5859  37.413   4.920   3.145
33600W        W 5860  33.177   6.313  11.590
33601W        W 5861  29.289   6.812   0.420
33602W        W 5862  40.447  36.115   0.248
33603W        W 5863  31.984  27.771   3.336
33604W        W 5864  24.707  27.446   0.352
33605W        W 5865   2.929   7.837   0.437
33606W        W 5866  22.113   3.658  13.026
33607W        W 5867  16.839  28.587   0.841
33608W        W 5868  39.493  38.045   2.879
33609W        W 5869   3.906  14.331   4.661
33610W        W 5870  24.684  44.884   0.673
33611W        W 5871  14.857  38.547   1.311
33612W        W 5872  39.300  40.221  12.259
33613W        W 5873  15.292   0.904  11.613
33614W        W 5874  41.994  32.924  11.075
33615W        W 5875  28.486  17.360   4.052
33616W        W 5876  42.341  19.656  14.079
33617W        W 5877   7.392  35.994  14.222
33618W        W 5878  20.601  18.106   0.064
33619W        W 5879   9.636  24.641   0.372
33620W        W 5880  34.478  37.667   5.038
33621W        W 5881  32.630  19.460   2.742
33622W        W 5882  13.664  29.641  10.509
33623W        W 5883  31.871   5.110  12.276
33624W        W 5884  33.927  41.916   3.247
33625W        W 5885  42.250  44.318  12.383
33626W        W 5886  41.185  25.727   3.117
33627W        W 5887   8.710  31.589  12.968
33628W        W 5888   2.941  37.126   1.760
33629W        W 5889   8.371   2.803  13.761
33630W        W 5890   6.156  31.946  13.100
33631W        W 5891  38.359  27.679   2.434
33632W        W 5892  38.703  10.151   5.419
33633W        W 5893  14.253  11.642  11.610
33634W        W 5894  20.738   1.947   2.395
33635W        W 5895   0.342  15.035   4.734
33636W        W 5896   2.431  30.440  12.014
33637W        W 5897   8.935   1.229   1.385
33638W        W 5898  39.879   7.577  11.375
33639W        W 5899   4.283   1.092   4.551
33640W        W 5900   7.881  38.995   4.212
33641W        W 5901  28.020   8.760   2.318
33642W        W 5902   4.006   5.861   0.780
33643W        W 5903  27.938  44.081  10.284
33644W        W 5904  26.577  17.163   1.992
33645W        W 5905  12.209  33.306  14.479
33646W        W 5906  43.907  35.004  11.875
33647W        W 5907  24.786  35.642  12.905
33648W        W 5908  23.978  30.029   0.800
33649W        W 5909  17.069  33.949   1.677
33650W        W 5910  25.475  24.777  10.818
33651W        W 5911  17.134  29.743   1.967
33652W        W 5912  16.777  26.658  12.420
33653W        W 5913  33.574  31.068   2.676
33654W        W 5914  21.059  14.167  13.865
33655W        W 5915  22.839  30.327   2.403
33656W        W 5916  43.315  16.169  13.541
33657W        W 5917   5.458   2.449  11.188
33658W        W 5918  27.492  35.836  13.480
33659W        W 5919  36.214  40.864  10.609
33660W        W 5920  23.473  10.838  12.445
33661W        W 5921  29.908  23.702   3.357
33662W        W 5922  12.517  21.727  13.623
33663W        W 5923  32.407  44.699  13.350
33664W        W 5924  36.479  24.090   0.766
33665W        W 5925  25.529  27.154  13.123
33666W        W 5926   1.426   8.417  13.898
33667W        W 5927  14.476  27.685   0.662
33668W        W 5928  20.637   0.319   4.591
33669W        W 5929  15.218  40.223   1.205
33670W        W 5930  19.023   4.415   0.757
33671W        W 5931  33.449  17.051   1.712
33672W        W 5932  38.711   2.729  13.004
33673W        W 5933  20.264  43.027  12.949
33674W        W 5934  23.254  27.147  13.357
33675W        W 5935  23.114  40.052   0.856
33676W        W 5936  22.167  16.509  11.951
33677W        W 5937   1.911  29.411   1.039
33678W        W 5938   1.167  16.873   2.573
33679W        W 5939  43.289  43.906  10.715
33680W        W 5940  15.405  25.070  11.603
33681W        W 5941  41.325  13.697  13.593
33682W        W 5942  26.194  21.451  11.974
33683W        W 5943  14.744  28.060  14.331
33684W        W 5944   7.066  28.445   1.129
33685W        W 5945  37.841  39.806   2.215
33686W        W 5946  32.851  23.575  10.561
33687W        W 5947  16.840  10.734  11.216
33688W        W 5948  11.519  41.591  11.102
33689W        W 5949  27.469  36.466  14.011
33690W        W 5950  23.044  40.382  11.915
33691W        W 5951  23.462   0.241   2.181
33692W        W 5952  28.619   0.940  14.731
33693W        W 5953  25.489  26.125  10.883
33694W        W 5954  17.027  18.103  11.179
33695W        W 5955  21.366  22.660  14.721
33696W        W 5956  23.082  32.999  13.456
33697W        W 5957  36.523  40.080   2.380
33698W        W 5958   4.811  24.767   4.153
33699W        W 5959  41.693  31.959  13.886
33700W        W 5960  13.661  12.032  13.129
33701W        W 5961  22.992  33.365   0.366
33702W        W 5962  27.571  14.591  11.332
33703W        W 5963  34.786  32.975   4.613
33704W        W 5964  15.142  23.044  13.151
33705W        W 5965  36.830  36.364   2.930
33706W        W 5966   4.969   1.338   3.727
33707W        W 5967   0.916  10.151  14.854
33708W        W 5968   0.650  22.645   4.127
33709W        W 5969  12.154  10.093   3.323
33710W        W 5970  38.407  30.340  13.801
33711W        W 5971  27.683  18.917   3.948
33712W        W 5972  35.371  20.636   3.807
33713W        W 5973  41.388   2.094   2.687
33714W        W 5974  17.634  20.237  13.587
33715W        W 5975  38.789   4.297   0.528
33716W        W 5976  19.923  19.865  14.997
33717W        W 5977   0.548  19.449  13.924
33718W        W 5978  25.486  28.097   0.503
33719W        W 5979   0.270  25.183  14.017
33720W        W 5980   7.701  17.110  12.076
33721W        W 5981   1.920  29.674  12.852
33722W        W 5982  16.245  33.945  13.526
33723W        W 5983  15.653  19.996   0.588
33724W        W 5984  35.967   5.956   4.463
33725W        W 5985  18.202  35.325   1.903
33726W        W 5986   9.656  33.107  14.506
33727W        W 5987  36.439  39.863  14.480
33728W        W 5988  22.309  20.137  11.575
33729W        W 5989  38.508  43.903  11.538
33730W        W 5990  36.643  43.521  11.847
33731W        W 5991  31.707  36.106   2.889
33732W        W 5992  23.774  31.865   2.326
33733W        W 5993  17.202   3.859   1.355
33734W        W 5994   3.505  29.083  14.303
33735W        W 5995  17.558  19.658   2.092
33736W        W 5996  35.636   3.214   4.048
33737W        W 5997  20.150   0.951  11.157
33738W        W 5998  34.506  41.371  12.986
33739W        W 5999  26.936   6.920  11.023
33740W        W 6000  27.671   3.148  13.488
33741W        W 6001  35.531  16.030  12.655
33742W        W 6002  30.674  28.018   3.293
33743W        W 6003  22.778  27.965   3.303
33744W        W 6004  42.294  22.881  11.635
33745W        W 6005  25.770  12.344   2.407
33746W        W 6006   0.227  36.703  12.151
33747W        W 6007  12.808  22.518   2.806
33748W        W 6008  24.489  13.603   3.361
33749W        W 6009  33.534  21.069   2.716
33750W        W 6010  29.123  22.417   0.056
33751W        W 6011  34.395  13.662   2.592
33752W        W 6012   2.378  15.625   0.405
33753W        W 6013   5.439  12.096   4.853
33754W        W 6014  19.141  37.921  12.957
33755W        W 6015  29.432  42.931  14.626
33756W        W 6016  40.554   1.329   1.722
33757W        W 6017   8.675  35.481   3.239
33758W        W 6018   9.202  36.938  14.229
33759W        W 6019  14.348  12.804   2.141
33760W        W 6020  42.473  28.995  10.682
33761W        W 6021   7.376  43.329  14.023
33762W        W 6022  12.819  19.209  14.424
33763W        W 6023  10.312  35.491   1.913
33764W        W 6024   0.389   4.150   2.747
33765W        W 6025  31.396   9.414   0.034
33766W        W 6026  40.024   2.808   4.977
33767W        W 6027   6.227  19.605  14.526
33768W        W 6028  28.350   4.218  14.537
33769W        W 6029  37.665  31.045   4.998
33770W        W 6030  25.852  39.086   4.602
33771W        W 6031  44.248  18.267  14.405
33772W        W 6032   4.772  30.024   0.783
33773W        W 6033  22.577   3.477   4.600
33774W        W 6034  11.198  29.903  14.945
33775W        W 6035  35.512  43.719  10.456
33776W        W 6036   3.717  33.023   3.712
33777W        W 6037  15.560  35.284  10.586
33778W        W 6038  24.649  25.250  10.756
33779W        W 6039  23.132   6.852   2.606
33780W        W 6040  28.472  43.518  14.952
33781W        W 6041  21.785  31.886   1.417
33782W        W 6042   2.705  12.765   3.144
33783W        W 6043  18.157  44.073   0.557
33784W        W 6044  32.611  20.897   4.729
33785W        W 6045   6.265   7.724  10.633
33786W        W 6046  15.626   0.016  10.720
33787W        W 6047  12.298  38.801   2.782
33788W        W 6048   1.293  24.095  11.158
33789W        W 6049   4.910  24.126  11.171
33790W        W 6050  19.973  21.113   4.085
33791W        W 6051  23.702  10.408   4.177
33792W        W 6052   1.599  12.662  10.830
33793W        W 6053   5.946  39.932   1.007
33794W        W 6054  42.058  43.784   3.676
33795W        W 6055  10.598  30.688  14.547
33796W        W 6056   3.228  43.006   0.620
33797W        W 6057  36.066   1.359  10.727
33798W        W 6058  40.391  32.497  12.793
33799W        W 6059  14.810  26.432   0.327
33800W        W 6060  26.156  30.887  14.056
33801W        W 6061  39.809  19.669  13.996
33802W        W 6062  25.215  38.797  12.492
33803W        W 6063  27.913  13.597   2.368
33804W        W 6064  41.435   3.884   1.033
33805W        W 6065  35.577  32.101  11.697
33806W        W 6066  32.147   8.755  12.915
33807W        W 6067  10.852  34.123  14.440
33808W        W 6068  34.644  20.485  11.081
33809W        W 6069  43.802  37.217  10.887
33810W        W 6070  14.817  25.487   4.324
33811W        W 6071  39.802   5.100   4.191
33812W        W 6072  41.470   8.631  11.556
33813W        W 6073  27.779  21.238  14.919
33814W        W 6074  11.597  43.119  13.344
33815W        W 6075  25.521  16.293   0.941
33816W        W 6076   1.829  39.681  12.875
33817W        W 6077  25.522  27.732  11.712
33818W        W 6078  41.822  14.221  12.085
33819W        W 6079  30.637  40.321  11.051
33820W        W 6080  25.081  38.144   4.516
33821W        W 6081   8.119  42.486  13.390
33822W        W 6082  40.780  32.527  13.133
33823W        W 6083  15.509  20.565   4.148
33824W        W 6084  44.516  25.030   4.548
33825W        W 6085  32.410  17.653  13.931
33826W        W 6086  21.536  36.875   1.003
33827W        W 6087  15.886   7.634  11.093
33828W        W 6088  25.472  42.191  13.827
33829W        W 6089  39.699  14.677  11.850
33830W        W 6090   4.277   1.293  13.508
33831W        W 6091  38.942  20.854  11.174
33832W        W 6092   5.172  17.389  10.041
33833W        W 6093  12.292   0.833  11.872
33834W        W 6094  25.667  25.649  13.977
33835W        W 6095  20.251   3.517   5.047
33836W        W 6096   4.388  14.353  13.057
33837W        W 6097  15.879  23.322   0.419
33838W        W 6098   8.445  38.264   2.842
33839W        W 6099  29.615   0.803  10.193
33840W        W 6100  28.528   3.390  13.478
33841W        W 6101   9.700   5.781   2.358
33842W        W 6102   6.416  28.087   1.106
33843W        W 6103  30.588  17.172   2.665
33844W        W 6104   6.697  25.618   3.724
33845W        W 6105  44.340  11.630  11.975
33846W        W 6106  38.565   6.859   4.719
33847W        W 6107  15.782  15.893   0.114
33848W        W 6108   7.392  39.298  14.798
33849W        W 6109  18.692  20.491   0.776
33850W        W 6110  37.216  43.480   0.538
33851W        W 6111  41.196  33.416   4.582
33852W        W 6112  22.209  34.874   3.704
33853W        W 6113  16.993  28.134   3.536
33854W        W 6114  28.387  19.666   0.420
33855W        W 6115   1.191  18.164  14.874
33856W        W 6116   9.936   5.194  11.108
33857W        W 6117  37.001  36.587  11.387
33858W        W 6118  29.615  26.788  11.598
33859W        W 6119  27.953  13.809  14.812
33860W        W 6120  22.808  17.648  11.446
33861W        W 6121  43.460   9.636   1.759
33862W        W 6122  22.392  10.631  12.775
33863W        W 6123  19.320  37.541  11.673
33864W        W 6124  28.781  32.104   3.733
33865W        W 6125  28.084  33.589   5.135
33866W        W 6126  18.289  20.796  12.557
33867W        W 6127   8.298  17.246   0.082
33868W        W 6128  36.376  13.382   2.809
33869W        W 6129   7.838  37.572   0.535
33870W        W 6130  23.262   9.341   3.615
33871W        W 6131   3.440  14.601   4.671
33872W        W 6132  39.214  19.786   2.714
33873W        W 6133  44.053   4.699   4.568
33874W        W 6134   7.249  38.828  12.903
33875W        W 6135  18.993  14.686  13.452
33876W        W 6136  28.738  26.178  14.309
33877W        W 6137  25.521  34.866  10.647
33878W        W 6138  33.847  15.536   0.782
33879W        W 6139  37.977  21.927  13.917
33880W        W 6140  35.072  20.803   4.173
33881W        W 6141  37.966  21.913  11.921
33882W        W 6142  31.447  27.708   1.303
33883W        W 6143   0.291  17.702  10.532
33884W        W 6144  36.891  25.648   0.798
33885W        W 6145  37.724   9.714  14.268
33886W        W 6146  18.216  36.585   2.797
33887W        W 6147  33.915  23.226   2.320
33888W        W 6148   1.750   1.639  14.855
33889W        W 6149  40.614   3.463  11.642
33890W        W 6150  15.505  36.462  14.318
33891W        W 6151  35.246  27.705   2.443
33892W        W 6152  23.452  12.809  13.579
33893W        W 6153  40.011  24.887   2.901
33894W        W 6154  31.714   1.436   1.323
33895W        W 6155   9.927  22.549  14.787
33896W        W 6156   5.271  33.840   0.593
33897W        W 6157  26.514  24.959  12.047
33898W        W 6158  42.917  35.834   3.782
33899W        W 6159   3.209  36.133   2.871
33900W        W 6160  42.426  30.336  10.462
33901W        W 6161  10.481   4.999   0.335
33902W        W 6162   2.738   6.626   3.106
33903W        W 6163  10.582  42.726   1.508
33904W        W 6164  41.937  43.940   2.378
33905W        W 6165  12.075  29.926  11.442
33906W        W 6166   7.448   8.876  12.826
33907W        W 6167  41.901  18.660  14.000
33908W        W 6168   4.294  27.572   1.285
33909W        W 6169  29.635  11.988  11.466
33910W        W 6170  12.617  17.059   0.891
33911W        W 6171   8.022  21.076  11.422
33912W        W 6172  39.817  40.384  13.823
33913W        W 6173  43.203  29.304   1.572
33914W        W 6174  14.912   1.394   1.478
33915W        W 6175  20.777   3.381   2.709
33916W        W 6176  39.795  33.899  13.802
33917W        W 6177  11.592   3.116   1.222
33918W        W 6178  37.370   4.360   2.594
33919W        W 6179  27.606   7.028  12.461
33920W        W 6180   9.620  12.688   4.472
33921W        W 6181  37.624  37.915   2.618
33922W        W 6182  19.067  29.844  12.458
33923W        W 6183  29.255  28.959   1.341
33924W        W 6184  24.351  42.232   4.148
33925W        W 6185  19.567  19.597   3.468
33926W        W 6186  10.578  43.730   2.126
33927W        W 6187  21.815  43.880   0.521
33928W        W 6188  35.960  38.899  11.598
33929W        W 6189  33.364   8.832  14.139
33930W        W 6190   7.595  14.999   1.898
33931W        W 6191  10.345  29.640   4.618
33932W        W 6192  33.392  40.425  13.795
33933W        W 6193  37.822   4.884   0.009
33934W        W 6194  10.334  26.569   1.218
33935W        W 6195  40.633  32.792  13.559
33936W        W 6196   3.257   2.013   0.879
33937W        W 6197  17.023  18.216   3.215
33938W        W 6198  30.636  14.604  11.575
33939W        W 6199  40.453   9.657  13.763
33940W        W 6200  16.266  26.671  12.177
33941W        W 6201  16.375   4.513   4.116
33942W        W 6202  23.298  11.798   3.114
33943W        W 6203  20.139  23.221  11.450
33944W        W 6204  24.468  26.502  12.377
33945W        W 6205  27.795  18.814  12.535
33946W        W 6206  18.292  37.573  14.803
33947W        W 6207  41.759  14.656   2.373
33948W        W 6208   7.126  14.846  11.538
33949W        W 6209  28.135  35.803   2.394
33950W        W 6210  12.103  28.375   2.745
33951W        W 6211   3.417  22.605  14.032
33952W        W 6212  38.853  22.867   4.497
33953W        W 6213  17.813   4.590   0.384
33954W        W 6214   5.432  35.065   1.916
33955W        W 6215  37.474  17.368  12.957
33956W        W 6216  22.039  40.971   4.049
33957W        W 6217   4.958  29.219  14.572
33958W        W 6218  33.147  33.027   4.557
33959W        W 6219  16.055  18.485  10.678
33960W        W 6220  15.774  28.262  12.884
33961W        W 6221   8.830  39.017   4.391
33962W        W 6222  36.050  22.103  13.760
33963W        W 6223   8.340  35.630  13.553
33964W        W 6224  37.294  36.166  10.224
33965W        W 6225  44.483  26.329  14.057
33966W        W 6226   4.930   4.652   4.246
33967W        W 6227  42.792  44.742   4.215
33968W        W 6228  18.719  44.617  13.421
33969W        W 6229   7.432  12.874  14.890
33970W        W 6230  11.259   6.466   2.154
33971W        W 6231  35.462  19.992  13.920
33972W        W 6232  35.559  26.258   4.219
33973W        W 6233  23.581  30.585   0.650
33974W        W 6234  28.175   6.820  10.197
33975W        W 6235  24.108  20.567  12.545
33976W        W 6236  32.587   3.418   1.255
33977W        W 6237  42.461  15.990   0.528
33978W        W 6238  25.116  10.617   0.935
33979W        W 6239  34.704  26.457  11.353
33980W        W 6240  13.619   4.974   2.259
33981W        W 6241  29.588  12.335  14.131
33982W        W 6242  20.073  41.358  11.247
33983W        W 6243  21.248  37.170   3.610
33984W        W 6244  26.483   6.339  13.762
33985W        W 6245  30.607  12.134   1.807
33986W        W 6246  32.842  39.053  11.950
33987W        W 6247  38.046  42.488  13.717
33988W        W 6248  23.076  35.603   0.253
33989W        W 6249  44.048   8.813  11.054
33990W        W 6250  32.477  10.227   5.042
33991W        W 6251  26.608  26.066   1.264
33992W        W 6252  38.434  23.456  10.650
33993W        W 6253   9.764   1.751   4.280
33994W        W 6254  40.553  11.392  12.541
33995W        W 6255  40.357  37.051   1.032
33996W        W 6256  40.314  11.191  10.552
33997W        W 6257  41.009  15.322   1.176
33998W        W 6258   1.968  41.603  11.868
33999W        W 6259  35.412  38.844   3.691
34000W        W 6260  13.085  20.090   0.914
34001W        W 6261  19.162  39.389  11.998
34002W        W 6262   8.607  31.124  12.465
34003W        W 6263  39.961   4.362   2.911
34004W        W 6264   1.205  30.536   3.355
34005W        W 6265  17.194  30.255   0.009
34006W        W 6266  19.158  30.930  13.314
34007W        W 6267  15.791  44.471  13.116
34008W        W 6268   8.726  37.213  13.085
34009W        W 6269  23.535   4.984   1.051
34010W        W 6270   7.174   6.091   0.497
34011W        W 6271  21.939   6.068   1.912
34012W        W 6272  26.712  27.717  12.479
34013W        W 6273  26.248  26.633  13.168
34014W        W 6274  15.889  43.523  11.249
34015W        W 6275  21.460   2.897   4.698
34016W        W 6276   7.428  41.989   5.053
34017W        W 6277   2.440  37.177   4.395
34018W        W 6278  33.098  36.688   2.744
34019W        W 6279  22.982  18.256   4.919
34020W        W 6280  16.751   5.775   2.702
34021W        W 6281  13.741  35.481  11.513
34022W        W 6282  10.765  10.588  11.956
34023W        W 6283  21.024  30.077   3.147
34024W        W 6284  36.294  18.044   4.465
34025W        W 6285  35.536  11.575   3.646
34026W        W 6286   8.414  21.303   4.939
34027W        W 6287  21.569  19.240   2.146
34028W        W 6288  24.057   4.374  12.434
34029W        W 6289   8.776  34.327  13.559
34030W        W 6290  29.296   8.334   1.490
34031W        W 6291   9.732   4.645   3.310
34032W        W 6292   0.656  40.934  10.951
34033W        W 6293   2.714  18.141  13.323
34034W        W 6294  32.517  34.630  10.673
34035W        W 6295  31.023  19.193   3.086
34036W        W 6296  14.581  13.210   0.728
34037W        W 6297  15.399   5.298  13.009
34038W        W 6298   8.882  40.999  12.599
34039W        W 6299   9.615  31.031  14.348
34040W        W 6300  27.086   6.228   3.566
34041W        W 6301   6.961  16.839  12.620
34042W        W 6302  30.946  11.436  10.898
34043W        W 6303  18.795  37.521  10.373
34044W        W 6304  35.305  42.903   2.363
34045W        W 6305  16.498   5.865   1.795
34046W        W 6306  12.920  14.719   3.622
34047W        W 6307  21.122  36.454   2.864
34048W        W 6308  19.512  30.539   1.842
34049W        W 6309   7.425  22.567  13.870
34050W        W 6310  39.104  38.980  11.387
34051W        W 6311  39.911   4.383  11.358
34052W        W 6312   9.740  37.772   0.796
34053W        W 6313   7.040  36.887   2.977
34054W        W 6314   5.744  43.551  11.490
34055W        W 6315  40.558   3.434   2.349
34056W        W 6316  32.018  13.577  12.004
34057W        W 6317  39.310  32.659   1.256
34058W        W 6318  35.974  14.277   0.066
34059W        W 6319  20.690  10.926  14.532
34060W        W 6320  17.536  11.124  11.553
34061W        W 6321  24.803  33.117  12.494
34062W        W 6322  14.646   8.569  12.878
34063W        W 6323  38.859  10.414  13.860
34064W        W 6324   9.390  11.690   0.969
34065W        W 6325  11.577  25.706   0.415
34066W        W 6326  28.499   1.975  14.732
34067W        W 6327  28.121  14.171   2.993
34068W        W 6328   2.225  40.114   0.442
34069W        W 6329  12.943  42.826   5.251
34070W        W 6330  33.134  26.689  11.483
34071W        W 6331   4.509  37.370  13.979
34072W        W 6332  22.229  35.194   3.279
34073W        W 6333  29.345  44.337  11.017
34074W        W 6334   4.577  41.682   5.153
34075W        W 6335  21.760  33.857   3.473
34076W        W 6336  40.487  21.106   2.307
34077W        W 6337  32.111  31.485  10.923
34078W        W 6338  24.639  22.398  11.080
34079W        W 6339  35.627  33.929   0.337
34080W        W 6340   3.250  44.877  11.371
34081W        W 6341   7.681  36.125  10.701
34082W        W 6342   7.953  10.262  14.236
34083W        W 6343  40.096   2.749  13.393
34084W        W 6344  14.615  31.434  14.401
34085W        W 6345  20.495  44.695  14.753
34086W        W 6346  40.817  25.253   2.262
34087W        W 6347  44.873   8.270   4.653
34088W        W 6348  14.696   2.558   2.794
34089W        W 6349  22.794   9.687   3.097
34090W        W 6350   6.004  38.345   3.717
34091W        W 6351  18.810  22.994   0.673
34092W        W 6352  13.141  36.606   1.010
34093W        W 6353  41.295  18.490   4.606
34094W        W 6354  22.729   5.607   0.726
34095W        W 6355  30.903   2.720   3.816
34096W        W 6356   6.254   1.919   3.729
34097W        W 6357   7.661  24.064  12.462
34098W        W 6358  22.938  28.400   0.394
34099W        W 6359   9.485  11.229  10.073
34100W        W 6360  10.144  42.423   0.683
34101W        W 6361  13.193  24.089   3.110
34102W        W 6362  14.395  27.998   4.524
34103W        W 6363  41.925  44.923   3.714
34104W        W 6364   1.765  14.782   3.315
34105W        W 6365  11.835  21.404  13.285
34106W        W 6366  32.740  35.710   0.897
34107W        W 6367  32.770  18.042   2.880
34108W        W 6368   2.392  32.065   0.418
34109W        W 6369   2.816  31.419   0.404
34110W        W 6370  11.995  12.652   1.716
34111W        W 6371  39.584   2.754  12.108
34112W        W 6372  11.841  28.599  13.702
34113W        W 6373   6.639  41.230  12.292
34114W        W 6374  27.893   5.461   3.790
34115W        W 6375   3.015  12.046   2.900
34116W        W 6376  17.745  27.704   2.228
34117W        W 6377  16.608  20.288   4.849
34118W        W 6378  24.444  19.217  14.924
34119W        W 6379  34.998   0.168  14.951
34120W        W 6380  40.568   9.718  10.916
34121W        W 6381  26.628   8.086  10.879
34122W        W 6382  16.269  37.244   4.347
34123W        W 6383  17.832   2.207  13.800
34124W        W 6384  11.492  37.529   3.569
34125W        W 6385   9.414  13.465  14.237
34126W        W 6386  21.425  25.804  10.577
34127W        W 6387   6.723  31.503   0.235
34128W        W 6388  15.351  43.806   3.610
34129W        W 6389   4.055  15.850   3.694
34130W        W 6390  13.076  44.050  12.158
34131W        W 6391  37.684  39.423   1.695
34132W        W 6392  36.814  19.563  10.685
34133W        W 6393  15.828  36.447  12.143
34134W        W 6394  29.867  13.872   0.341
34135W        W 6395  11.630   4.803  10.719
34136W        W 6396  35.063  10.714   1.805
34137W        W 6397   3.217  43.784   4.051
34138W        W 6398  40.977  42.774   0.469
34139W        W 6399   9.214   9.119  11.537
34140W        W 6400  29.712  30.200   1.469
34141W        W 6401  25.443  16.552   2.248
34142W        W 6402  17.087  14.634   1.065
34143W        W 6403  14.229   9.843  11.462
34144W        W 6404  10.871  30.925  14.895
34145W        W 6405  19.774   1.873  11.561
34146W        W 6406  28.450  43.004   0.764
34147W        W 6407  40.024   4.796  11.034
34148W        W 6408  17.379  16.286   2.237
34149W        W 6409   8.857   0.763   0.343
34150W        W 6410  39.996  36.095  14.539
34151W        W 6411  26.586   8.925  12.019
34152W        W 6412  34.364  11.295  12.458
34153W        W 6413  19.009  23.666   1.982
34154W        W 6414  24.476   5.681  13.841
34155W        W 6415  43.989  41.394  14.415
34156W        W 6416  12.775  38.423  12.505
34157W        W 6417  40.406   5.748  14.636
34158W        W 6418  21.642  44.492   2.752
34159W        W 6419  16.183  11.746   0.189
34160W        W 6420   2.251   9.141  12.477
34161W        W 6421  33.634  17.529  11.613
34162W        W 6422  36.933   2.868   0.750
34163W        W 6423  37.028  37.553   0.917
34164W        W 6424   1.600  16.113  12.863
34165W        W 6425  14.280  15.638  11.501
34166W        W 6426  44.475  37.331   5.024
34167W        W 6427  23.650  41.290  14.930
34168W        W 6428   4.203  34.792   1.248
34169W        W 6429  19.807  16.371  11.932
34170W        W 6430  14.038  11.167  13.518
34171W        W 6431  18.377  32.499   2.674
34172W        W 6432   7.948  41.209  14.911
34173W        W 6433   1.220  23.506   4.744
34174W        W 6434  22.051  24.305  13.690
34175W        W 6435  23.623  43.537  14.405
34176W        W 6436  39.094   3.051  14.514
34177W        W 6437  40.346  15.784   4.447
34178W        W 6438  30.544  18.000  10.804
34179W        W 6439   1.867  30.847  12.035
34180W        W 6440  14.793  25.528   2.886
34181W        W 6441  24.840  27.833  13.072
34182W        W 6442  13.307  12.849   3.678
34183W        W 6443  28.846  42.340  12.739
34184W        W 6444  23.563   7.040   4.448
34185W        W 6445  21.059  11.536   0.977
34186W        W 6446  32.557  33.382  12.837
34187W        W 6447  39.272   6.730  11.102
34188W        W 6448  36.931  36.307  10.968
34189W        W 6449   7.739  42.969   3.179
34190W        W 6450   6.786   7.281  14.472
34191W        W 6451  28.635  18.619   0.372
34192W        W 6452  43.014  21.115   0.096
34193W        W 6453  11.652  26.609  11.121
34194W        W 6454  21.242  16.737  11.983
34195W        W 6455  33.743   9.555   1.147
34196W        W 6456  12.795  12.030  12.950
34197W        W 6457  18.180   2.962   3.576
34198W        W 6458  20.824  13.199   1.860
34199W        W 6459  36.411  14.778   1.780
34200W        W 6460  34.378  40.494  14.834
34201W        W 6461   1.154  15.630   5.028
34202W        W 6462  12.141   1.953  12.190
34203W        W 6463  28.921  43.299   4.293
34204W        W 6464  15.029   5.894  11.913
34205W        W 6465   0.372   0.330   0.756
34206W        W 6466  25.122  43.737  13.533
34207W        W 6467   9.187  34.627  13.546
34208W        W 6468  34.176  10.277   3.641
34209W        W 6469  27.399  39.062   0.765
34210W        W 6470  11.817   1.409  12.508
34211W        W 6471   2.457  14.545   2.276
34212W        W 6472  30.445  18.687  13.360
34213W        W 6473  11.515  13.689   4.720
34214W        W 6474  35.810  22.834  12.015
34215W        W 6475  28.129  10.853   4.169
34216W        W 6476  22.811  19.785   3.706
34217W        W 6477  36.621   0.355   2.839
34218W        W 6478  19.845  35.940   4.588
34219W        W 6479   3.651  37.057  14.556
34220W        W 6480  44.031  30.459  14.824
34221W        W 6481   2.344  21.652   1.494
34222W        W 6482   6.255  20.826   1.805
34223W        W 6483  41.984  39.141  13.431
34224W        W 6484   6.363   1.033  13.053
34225W        W 6485  20.623  32.609  10.472
34226W        W 6486   4.694  25.140  12.495
34227W        W 6487  14.746  31.654  11.164
34228W        W 6488  29.536  24.073  13.580
34229W        W 6489   5.303  43.171  14.436
34230W        W 6490   6.632   5.143   2.662
34231W        W 6491  24.800  19.922   2.306
34232W        W 6492  35.494  41.104   0.393
34233W        W 6493  19.358  23.515   0.783
34234W        W 6494  40.439  18.036   3.588
34235W        W 6495  42.271   6.761  14.467
34236W        W 6496  25.685  18.752   3.507
34237W        W 6497  18.024  10.366  14.019
34238W        W 6498  24.519  23.952  14.312
34239W        W 6499   4.349   9.276   4.458
34240W        W 6500  32.930  23.367   3.302
34241W        W 6501  43.536  37.133   3.104
34242W        W 6502  44.870  44.255   1.796
34243W        W 6503  41.238  23.485  10.442
34244W        W 6504  27.239  35.355   1.901
34245W        W 6505  25.082  39.883   3.193
34246W        W 6506   2.881  43.825  13.517
34247W        W 6507   8.793  34.617   2.797
34248W        W 6508  28.504  17.038   2.892
34249W        W 6509  20.004  33.884   3.129
34250W        W 6510  37.985  35.306  14.522
34251W        W 6511   8.721  25.658  13.913
34252W        W 6512   8.396  40.435   2.804
34253W        W 6513  38.821  23.638   4.533
34254W        W 6514  18.190  17.053  13.403
34255W        W 6515  40.540   9.886  11.852
34256W        W 6516   1.442  17.526  11.866
34257W        W 6517  24.816  13.349  14.850
34258W        W 6518  21.044   2.380   0.968
34259W        W 6519  41.982   9.283  13.118
34260W        W 6520  27.495  17.523  13.352
34261W        W 6521  44.917   5.786  12.228
34262W        W 6522  19.669  40.393   2.027
34263W        W 6523  13.407   0.525   2.213
34264W        W 6524   9.116  15.094  10.742
34265W        W 6525  18.755  11.345  12.012
34266W        W 6526   1.998   8.621  12.602
34267W        W 6527  34.896  32.515  14.838
34268W        W 6528  30.276  37.418   3.188
34269W        W 6529   3.792   6.645  14.615
34270W        W 6530  23.256  23.129  13.473
34271W        W 6531  42.288  31.733   1.684
34272W        W 6532  34.458  30.309   4.059
34273W        W 6533   2.866  14.162  12.359
34274W        W 6534   9.258  20.065  12.995
34275W        W 6535  23.765   2.786   1.180
34276W        W 6536  37.882   2.938   3.247
34277W        W 6537   1.838  30.742  12.678
34278W        W 6538   7.803   0.037  12.472
34279W        W 6539   8.886   9.322  14.871
34280W        W 6540   7.210  41.872   0.992
34281W        W 6541   8.721  14.260  12.541
34282W        W 6542  27.075  37.767  12.874
34283W        W 6543  36.436   7.655   1.852
34284W        W 6544   7.213  40.999  11.143
34285W        W 6545   6.160  36.985  11.525
34286W        W 6546  24.286  28.095  10.902
34287W        W 6547  32.230  16.726   4.255
34288W        W 6548   2.052  17.015  11.468
34289W        W 6549   0.878  35.133   2.602
34290W        W 6550  18.310   1.388   4.631
34291W        W 6551  42.992   2.931  14.754
34292W        W 6552   2.824  31.017  12.554
34293W        W 6553   7.296  11.879   3.234
34294W        W 6554   4.847  28.040   2.765
34295W        W 6555  44.988  32.392  11.528
34296W        W 6556  31.152   1.505  11.996
34297W        W 6557  29.697  11.059  11.152
34298W        W 6558  40.710   2.383   2.255
34299W        W 6559   8.353  41.414   4.409
34300W        W 6560   9.225  30.255  14.834
34301W        W 6561  26.970  11.108  10.841
34302W        W 6562  23.296  32.960  13.976
34303W        W 6563   1.599  35.799   0.407
34304W        W 6564  16.672  27.129   3.836
34305W        W 6565  15.805   2.370   1.340
34306W        W 6566  37.590  20.167   1.772
34307W        W 6567  25.016  38.009  12.848
34308W        W 6568  40.189  33.389   3.413
34309W        W 6569  37.516   9.426  12.151
34310W        W 6570  16.149  17.530  12.101
34311W        W 6571  23.086  27.220  12.285
34312W        W 6572   4.878  16.656   0.757
34313W        W 6573  13.837  41.002  11.205
34314W        W 6574  30.163  32.967  14.822
34315W        W 6575  44.256  28.396  13.351
34316W        W 6576   0.508  20.691   1.860
34317W        W 6577  36.533   0.869   3.291
34318W        W 6578  36.422  18.107  11.078
34319W        W 6579  32.444  29.625  13.849
34320W        W 6580  15.806   5.909   0.667
34321W        W 6581  31.563   5.901  11.090
34322W        W 6582  18.668  26.489   3.232
34323W        W 6583  37.846   4.641  12.144
34324W        W 6584   9.217  29.488   4.349
34325W        W 6585   4.030  29.015  11.537
34326W        W 6586  17.565  41.891  10.801
34327W        W 6587  22.737   0.727   2.386
34328W        W 6588  44.346   6.900  14.858
34329W        W 6589  34.435  11.112  13.325
34330W        W 6590  30.916   8.775  14.787
34331W        W 6591  24.538  16.389   0.160
34332W        W 6592  16.646  14.569   0.750
34333W        W 6593  32.101   8.960   2.231
34334W        W 6594  22.903  14.372  12.048
34335W        W 6595  36.442   5.476  13.919
34336W        W 6596  37.894  11.225   1.477
34337W        W 6597  34.599   7.672   3.281
34338W        W 6598  11.262  12.287  13.907
34339W        W 6599  41.523   9.753  13.890
34340W        W 6600  24.012  13.815  10.484
34341W        W 6601  40.593  40.241  12.528
34342W        W 6602  29.240  25.692   0.045
34343W        W 6603  33.886  33.882  13.093
34344W        W 6604   6.137   1.373   1.438
34345W        W 6605  27.158  33.779   1.724
34346W        W 6606  42.094  15.479  11.195
34347W        W 6607  17.966  36.508   0.878
34348W        W 6608  13.761  42.313   2.394
34349W        W 6609   8.402  38.986   4.114
34350W        W 6610  40.861  36.406   0.381
34351W        W 6611   9.604  13.624   1.722
34352W        W 6612  37.692  15.079  12.165
34353W        W 6613  17.971  30.213   0.530
34354W        W 6614  27.704  38.657   2.210
34355W        W 6615  17.729  18.153  12.942
34356W        W 6616  29.551  41.044   4.478
34357W        W 6617   7.739  43.332   4.312
34358W        W 6618  10.061  33.374  14.709
34359W        W 6619  42.510   7.486  12.193
34360W        W 6620  38.293  28.203   1.229
34361W        W 6621  31.159  42.480   0.196
34362W        W 6622  37.634  19.525  11.482
34363W        W 6623  27.580  13.627  10.973
34364W        W 6624  35.498  29.776   1.465
34365W        W 6625  30.032   5.850  10.684
34366W        W 6626  27.720   1.380  10.769
34367W        W 6627  40.764  22.056  12.414
34368W        W 6628  26.699  21.590   2.555
34369W        W 6629  12.719   2.500  13.335
34370W        W 6630   2.853  23.677   0.927
34371W        W 6631  15.463  25.055   5.124
34372W        W 6632  17.268   9.626   5.007
34373W        W 6633  21.887  18.577  11.993
34374W        W 6634  21.544  29.993   3.007
34375W        W 6635  42.204  35.308   3.753
34376W        W 6636   6.713   1.314  10.867
34377W        W 6637   7.510  31.903  11.004
34378W        W 6638  43.257   7.270   4.538
34379W        W 6639  13.738  11.742   4.599
34380W        W 6640  14.836   4.736   3.264
34381W        W 6641  39.751   0.868  11.683
34382W        W 6642  26.013  35.018   4.648
34383W        W 6643  34.940   2.886  14.460
34384W        W 6644   6.980   9.787  12.729
34385W        W 6645  19.267   7.077   1.319
34386W        W 6646  27.978  13.588   3.413
34387W        W 6647   1.746  33.921   1.210
34388W        W 6648  31.399  35.675  11.162
34389W        W 6649  20.703   5.480  13.544
34390W        W 6650   3.120  40.659   3.209
34391W        W 6651   0.904  14.570  11.425
34392W        W 6652  29.833  25.686  13.801
34393W        W 6653  44.400  24.288  10.908
34394W        W 6654  29.608   5.595  13.396
34395W        W 6655   1.740  39.178  12.818
34396W        W 6656   9.256   0.992  12.965
34397W        W 6657  15.866  40.554   2.400
34398W        W 6658  26.187  33.047  11.619
34399W        W 6659  39.799   2.751  13.843
34400W        W 6660  14.544  40.526   3.160
34401W        W 6661  35.120  37.544  10.221
34402W        W 6662  36.456  29.264  14.457
34403W        W 6663  18.570   5.247   3.765
34404W        W 6664  25.088  11.659   3.621
34405W        W 6665  20.057  13.800   0.516
34406W        W 6666   0.466   4.523   1.347
34407W        W 6667  10.352  17.244  13.074
34408W        W 6668   1.413   7.941  11.067
34409W        W 6669   2.296  16.888  14.337
34410W        W 6670   6.891  30.504   0.832
34411W        W 6671  14.344  34.588  12.376
34412W        W 6672  15.569  12.829   1.300
34413W        W 6673  13.678   2.182  11.519
34414W        W 6674  30.963  41.298  14.568
34415W        W 6675  31.031  42.960  10.328
34416W        W 6676  19.880  13.373   3.390
34417W        W 6677  15.080   5.524   3.861
34418W        W 6678  37.553  12.105  14.089
34419W        W 6679   0.966   8.246   2.410
34420W        W 6680   2.693  35.453  14.911
34421W        W 6681  37.605   1.483   3.917
34422W        W 6682   3.246  34.100   2.778
34423W        W 6683  23.463   7.887   0.671
34424W        W 6684  25.149  33.848   2.927
34425W        W 6685   8.220   5.943  12.240
34426W        W 6686  10.246  22.634  10.942
34427W        W 6687  21.554  37.956   2.005
34428W        W 6688  26.963  28.604   4.958
34429W        W 6689  37.927  13.782   3.148
34430W        W 6690   2.752   5.320   3.920
34431W        W 6691  38.663  18.132  14.186
34432W        W 6692  20.063  38.246  10.776
34433W        W 6693  20.745  18.524   4.727
34434W        W 6694  18.779  10.940  11.681
34435W        W 6695  22.391   1.966  13.570
34436W        W 6696  17.901   9.666   0.547
34437W        W 6697  31.839  14.146   0.785
34438W        W 6698   4.241  25.401  14.540
34439W        W 6699  24.551  25.570   2.252
34440W        W 6700  13.238  36.270   0.314
34441W        W 6701  27.014  36.550  12.466
34442W        W 6702   9.225  18.006   1.950
34443W        W 6703  12.212   3.016  10.582
34444W        W 6704  43.124  17.032  13.609
34445W        W 6705  16.104  34.017  12.034
34446W        W 6706   1.462  27.645   1.005
34447W        W 6707  42.272  32.706   3.304
34448W        W 6708   0.297   7.361   4.530
34449W        W 6709  31.022  18.786  11.009
34450W        W 6710  20.103  22.121   4.530
34451W        W 6711   3.486  18.380   3.847
34452W        W 6712  19.151  18.518   4.671
34453W        W 6713   2.713  24.497   3.145
34454W        W 6714  42.572  13.374   0.953
34455W        W 6715  20.270  32.565  11.732
34456W        W 6716  42.754  18.601   1.775
34457W        W 6717   3.892  40.395   0.904
34458W        W 6718   9.943  23.977  14.932
34459W        W 6719  30.427  25.977   2.874
34460W        W 6720   8.367  31.229   1.291
34461W        W 6721  10.916   5.142  12.446
34462W        W 6722  11.233   3.990  14.951
34463W        W 6723  43.003   4.209  14.659
34464W        W 6724   2.374  41.513  14.697
34465W        W 6725  25.983   3.667   4.144
34466W        W 6726  17.741  17.957   3.661
34467W        W 6727  26.425  15.694  14.551
34468W        W 6728  23.778  37.741   1.054
34469W        W 6729  42.949  17.116   1.986
34470W        W 6730  35.050  30.136   4.515
34471W        W 6731   1.891  32.629   1.001
34472W        W 6732  15.355  27.572   4.266
34473W        W 6733  25.762   1.988  10.697
34474W        W 6734  29.425  19.570   0.434
34475W        W 6735  33.507  13.398   4.187
34476W        W 6736  44.708  13.091   3.564
34477W        W 6737  32.110  16.221  13.944
34478W        W 6738  19.248  36.672  13.582
34479W        W 6739   5.933  34.065  13.426
34480W        W 6740  41.021  20.520  11.590
34481W        W 6741  24.536  35.155  10.750
34482W        W 6742   5.318  35.969  10.717
34483W        W 6743   6.636   8.230   4.430
34484W        W 6744  42.198  29.157   1.779
34485W        W 6745  42.041  11.006  11.725
34486W        W 6746   1.685  33.636  12.966
34487W        W 6747   8.820  33.915  13.261
34488W        W 6748  39.389  44.832   0.395
34489W        W 6749  25.023  18.150   1.893
34490W        W 6750  41.442  15.995  14.670
34491W        W 6751  12.143   7.878   2.355
34492W        W 6752   7.733  31.713   3.458
34493W        W 6753  13.364  22.747   4.091
34494W        W 6754   1.368  12.816  11.713
34495W        W 6755  33.395  36.381   4.500
34496W        W 6756  25.819   8.374  11.063
34497W        W 6757  24.199  39.094   3.337
34498W        W 6758   7.713  15.330   3.528
34499W        W 6759  26.265  28.398  14.840
34500W        W 6760  12.244  15.530  14.313
34501W        W 6761  23.022  16.788   4.654
34502W        W 6762  22.915  10.281   4.508
34503W        W 6763  24.531  41.179  10.679
34504W        W 6764  37.964  17.958   1.971
34505W        W 6765  39.948  30.954   0.040
34506W        W 6766  16.862  37.789  11.033
34507W        W 6767   0.734  43.995   1.795
34508W        W 6768   8.376   9.574   2.604
34509W        W 6769  19.933  17.622   1.727
34510W        W 6770   6.482  15.676   2.107
34511W        W 6771   4.938  35.506   5.015
34512W        W 6772  42.729  21.490  13.824
34513W        W 6773  15.148   1.576  13.217
34514W        W 6774  41.912  40.763   0.274
34515W        W 6775   8.605   7.355   0.319
34516W        W 6776  28.023  27.885  11.618
34517W        W 6777  44.770  14.262   1.375
34518W        W 6778   1.502  44.763  11.225
34519W        W 6779   8.175  34.811  10.880
34520W        W 6780  13.531   8.705  13.867
34521W        W 6781  19.870   5.262   9.870
34522W        W 6782  26.999  41.047  14.502
34523W        W 6783   6.273  22.789   1.670
34524W        W 6784   8.382  25.053   4.090
34525W        W 6785  33.965  34.146  11.136
34526W        W 6786  14.606  26.655  10.668
34527W        W 6787   1.714  39.132   3.710
34528W        W 6788  28.492  26.173  14.772
34529W        W 6789  18.121  44.293   0.097
34530W        W 6790  27.442  40.247  12.296
34531W        W 6791  21.740  44.930   3.932
34532W        W 6792   5.512   9.333  11.696
34533W        W 6793  15.210  12.617  11.516
34534W        W 6794   1.867  16.558   3.932
34535W        W 6795   0.669  44.954  14.471
34536W        W 6796   1.408  33.305   3.821
34537W        W 6797  44.329  40.539  12.827
34538W        W 6798  39.071  15.717   4.072
34539W        W 6799   3.882  30.415   4.124
34540W        W 6800  22.075  30.555  13.582
34541W        W 6801  10.825   8.917  14.834
34542W        W 6802   5.605  13.794  12.603
34543W        W 6803  14.737  23.547   1.978
34544W        W 6804  42.641  41.442  12.595
34545W        W 6805   5.966   0.909   1.300
34546W        W 6806  22.534   4.762  14.321
34547W        W 6807  38.358   5.950  11.376
34548W        W 6808  43.214  41.409   0.706
34549W        W 6809  32.371  40.768   0.600
34550W        W 6810  20.341   9.397   4.317
34551W        W 6811  33.168   4.658  10.573
34552W        W 6812  19.861   3.190   2.242
34553W        W 6813   3.630  26.724   3.971
34554W        W 6814  26.998  25.767  13.892
34555W        W 6815  10.143  14.291  13.109
34556W        W 6816   7.659  38.377  11.267
34557W        W 6817   7.954  19.616   4.563
34558W        W 6818  19.527  22.254  10.862
34559W        W 6819   6.443  44.432   2.787
34560W        W 6820  34.918  11.464   0.755
34561W        W 6821  27.516  10.224  10.632
34562W        W 6822  27.754  43.869  12.499
34563W        W 6823  44.515   4.219   0.792
34564W        W 6824  38.140   9.815   2.752
34565W        W 6825  17.219  21.825   0.808
34566W        W 6826  40.485  17.141   0.254
34567W        W 6827  32.667  32.550   1.767
34568W        W 6828  26.562  20.842  12.543
34569W        W 6829  21.235  10.223   2.523
34570W        W 6830  14.788   0.847  11.616
34571W        W 6831  21.689   7.578  12.442
34572W        W 6832  18.866  16.166   2.601
34573W        W 6833  21.026   8.384  11.502
34574W        W 6834   4.598  12.407   3.685
34575W        W 6835  24.776  19.057  14.548
34576W        W 6836  20.080   2.640  13.486
34577W        W 6837  40.966   8.499  14.161
34578W        W 6838  37.442   1.970   1.951
34579W        W 6839  44.420  33.709   1.463
34580W        W 6840  43.124   1.607   0.190
34581W        W 6841  16.334  22.244   2.457
34582W        W 6842  44.056  25.546   1.203
34583W        W 6843  28.305  36.885   1.933
34584W        W 6844  39.535  19.011  14.790
34585W        W 6845  16.814   7.608  13.058
34586W        W 6846  23.797  36.055  11.014
34587W        W 6847  43.922  23.161   1.822
34588W        W 6848  42.349   4.131   0.875
34589W        W 6849   0.903  30.952   1.792
34590W        W 6850  20.807  34.716  11.956
34591W        W 6851   5.224  23.314  11.602
34592W        W 6852  19.603   4.122   2.160
34593W        W 6853  23.746  44.007   0.922
34594W        W 6854  27.991  36.252  12.454
34595W        W 6855  22.471  18.547   3.289
34596W        W 6856  41.089   0.544   2.080
34597W        W 6857  24.948   6.221  10.783
34598W        W 6858  33.559  30.531   2.998
34599W        W 6859   8.017   6.095   2.192
34600W        W 6860  40.735  40.209   4.508
34601W        W 6861  21.960   8.892  11.671
34602W        W 6862  39.073  32.033  13.815
34603W        W 6863  10.289   7.658   3.987
34604W        W 6864  27.185  25.013  11.562
34605W        W 6865  29.459  19.024   0.432
34606W        W 6866  34.513  32.412   4.105
34607W        W 6867  23.113   5.443   2.246
34608W        W 6868   3.041  21.559  11.082
34609W        W 6869  39.926  16.266  13.914
34610W        W 6870   0.215  17.578  11.526
34611W        W 6871   3.449  33.544  13.378
34612W        W 6872   2.384  29.534   0.732
34613W        W 6873  29.345  26.959  12.002
34614W        W 6874  17.643  37.513   2.185
34615W        W 6875   6.303   4.374   0.261
34616W        W 6876  35.943  26.650  14.974
34617W        W 6877   4.983   1.885   2.231
34618W        W 6878  29.819  34.572   0.778
34619W        W 6879  22.214  21.745   4.215
34620W        W 6880  21.258   2.379   3.088
34621W        W 6881   1.675  24.054  14.901
34622W        W 6882  14.250  24.679   1.214
34623W        W 6883  12.415  16.524  14.613
34624W        W 6884   4.877  43.827  11.173
34625W        W 6885   4.647  41.773  11.120
34626W        W 6886  36.592  19.132  12.471
34627W        W 6887  10.699  27.998  13.400
34628W        W 6888   8.283  37.037  12.439
34629W        W 6889  14.363   3.966   0.348
34630W        W 6890   5.843  23.586  10.814
34631W        W 6891  11.448  14.715  11.895
34632W        W 6892   5.449   4.934  12.570
34633W        W 6893   7.190  25.023   4.193
34634W        W 6894  18.132   9.706   1.030
34635W        W 6895  26.012   3.249  14.091
34636W        W 6896  14.049  37.900  11.867
34637W        W 6897   5.170  40.089  13.169
34638W        W 6898  15.651  12.291   4.462
34639W        W 6899   2.810   2.892   0.247
34640W        W 6900  39.974  28.929  13.094
34641W        W 6901  30.663  30.582  13.522
34642W        W 6902   7.360  32.577   2.378
34643W        W 6903  11.789   7.485  10.654
34644W        W 6904  16.818   8.097   1.741
34645W        W 6905  40.813   6.204   2.443
34646W        W 6906  33.300   5.042  12.555
34647W        W 6907  30.670  34.200   1.095
34648W        W 6908  27.863  28.205   1.257
34649W        W 6909  14.771  41.346  12.086
34650W        W 6910  16.791  31.044  12.454
34651W        W 6911  43.181  29.072   0.842
34652W        W 6912  20.503  25.963  10.638
34653W        W 6913  32.414  17.099  13.156
34654W        W 6914  24.555  33.190   3.122
34655W        W 6915  29.769  33.136   5.071
34656W        W 6916  44.596  42.458   1.038
34657W        W 6917  19.806  21.710  11.138
34658W        W 6918  15.589   2.261  10.720
34659W        W 6919  10.594  24.142   5.074
34660W        W 6920  26.116  42.288   9.985
34661W        W 6921   8.254  41.489   3.465
34662W        W 6922  28.656  32.894  10.329
34663W        W 6923  32.600  13.083  10.351
34664W        W 6924  38.676   7.952  11.301
34665W        W 6925  27.142  19.963  11.539
34666W        W 6926  17.767   9.816  12.981
34667W        W 6927  11.822  10.326  14.552
34668W        W 6928  15.760  19.803  14.682
34669W        W 6929   8.405  17.099  12.717
34670W        W 6930  22.643   6.307  13.950
34671W        W 6931   6.218  17.073  12.387
34672W        W 6932  29.655  15.243  11.578
34673W        W 6933  43.549  27.600  10.512
34674W        W 6934   1.705  26.508  13.884
34675W        W 6935  41.000  25.198   3.919
34676W        W 6936   9.433   0.985   2.868
34677W        W 6937  33.413  17.551  12.433
34678W        W 6938  14.259  43.784  12.549
34679W        W 6939   6.828  26.814  14.836
34680W        W 6940  23.163  28.706  11.107
34681W        W 6941   1.322  38.019  12.732
34682W        W 6942   0.057  31.849  13.405
34683W        W 6943  30.403   2.647  11.243
34684W        W 6944  21.533  44.611  13.130
34685W        W 6945  35.884   9.754   4.187
34686W        W 6946  13.533  13.634   0.225
34687W        W 6947  37.093  28.144   2.709
34688W        W 6948  27.046  33.289   1.657
34689W        W 6949   6.078   0.903   4.520
34690W        W 6950  34.307  42.000   4.645
34691W        W 6951   8.555  25.595  14.407
34692W        W 6952   1.131  42.183  11.205
34693W        W 6953  19.566  30.445   3.307
34694W        W 6954   3.004  21.553  12.566
34695W        W 6955  37.377  11.922  12.008
34696W        W 6956  22.417  37.936   2.607
34697W        W 6957   5.882   0.251   4.171
34698W        W 6958  10.581  17.417   4.438
34699W        W 6959   6.086  25.252   4.997
34700W        W 6960  36.447  23.850   5.064
34701W        W 6961   1.407   9.612   2.256
34702W        W 6962   2.204  25.073   2.772
34703W        W 6963  39.187  43.856   3.772
34704W        W 6964  39.773  15.557  12.009
34705W        W 6965  23.052  33.529   2.668
34706W        W 6966   6.246   4.452   2.665
34707W        W 6967  32.928   3.458  12.923
34708W        W 6968  43.439  14.306   0.464
34709W        W 6969   5.879  32.447  12.439
34710W        W 6970   0.148   8.795   2.375
34711W        W 6971  20.147  18.365  13.411
34712W        W 6972  33.603   8.677   3.975
34713W        W 6973   1.701  43.694  12.907
34714W        W 6974  13.064  41.273  14.720
34715W        W 6975  43.342  42.850  11.637
34716W        W 6976  15.543  26.907   3.643
34717W        W 6977  28.699  36.011   3.736
34718W        W 6978  25.106   1.880  12.428
34719W        W 6979  36.988  20.905   1.915
34720W        W 6980  17.135   5.163   3.586
34721W        W 6981   1.383   8.929  13.849
34722W        W 6982  29.905   3.966   0.356
34723W        W 6983   0.643  18.994  11.970
34724W        W 6984  20.249   6.822  10.636
34725W        W 6985   1.312  39.179   4.162
34726W        W 6986  39.013  33.981  12.993
34727W        W 6987   3.846  16.599  12.511
34728W        W 6988   1.705  25.490   4.652
34729W        W 6989  26.288  36.061  11.175
34730W        W 6990  16.732  35.466   1.391
34731W        W 6991  37.533  25.704  14.290
34732W        W 6992  37.891   9.173   2.283
34733W        W 6993  24.805  32.833  11.965
34734W        W 6994  19.284  13.107  11.039
34735W        W 6995  42.810  40.477   0.999
34736W        W 6996  32.030  21.145  14.087
34737W        W 6997   0.734   0.468   4.069
34738W        W 6998  15.500  23.197  12.322
34739W        W 6999  17.554   8.624  12.177
34740W        W 7000  19.241  37.075   3.358
34741W        W 7001   7.695  15.135   4.579
34742W        W 7002  41.139  32.545  10.937
34743W        W 7003  21.240   7.798  12.554
34744W        W 7004  13.655  14.520   1.697
34745W        W 7005  37.495  33.972   4.110
34746W        W 7006  44.179  34.116   1.239
34747W        W 7007  11.806  23.623  12.078
34748W        W 7008  44.773  44.030   2.779
34749W        W 7009  30.079  37.881  13.065
34750W        W 7010  15.577  44.043  13.431
34751W        W 7011   8.595  30.580  10.932
34752W        W 7012   2.123  26.231   0.042
34753W        W 7013  13.055  35.323   3.917
34754W        W 7014  37.491  14.534   2.485
34755W        W 7015  42.902  28.402  13.368
34756W        W 7016  41.797   6.226  12.987
34757W        W 7017  26.265   5.414   4.611
34758W        W 7018  34.597  20.638   0.245
34759W        W 7019  10.587  42.502   3.232
34760W        W 7020  17.624  43.351  14.523
34761W        W 7021  20.524  12.713   1.767
34762W        W 7022  29.899  17.657  10.623
34763W        W 7023  41.522  29.624  14.306
34764W        W 7024  34.158  36.451   3.283
34765W        W 7025  38.783  32.033  11.090
34766W        W 7026   2.511  18.612  13.352
34767W        W 7027   0.982  23.966  12.112
34768W        W 7028  11.296  31.975   1.058
34769W        W 7029   5.967  29.446  14.868
34770W        W 7030   1.702  29.586  10.637
34771W        W 7031  31.163  12.817   4.120
34772W        W 7032  28.063   3.928  10.256
34773W        W 7033  27.543  44.478  11.488
34774W        W 7034   5.950  10.762  10.672
34775W        W 7035  44.318  17.055   2.823
34776W        W 7036  22.451  21.157  11.560
34777W        W 7037   2.424  16.013  10.055
34778W        W 7038   6.218   4.160  12.146
34779W        W 7039  33.678  36.265   2.124
34780W        W 7040  28.241  34.617   1.847
34781W        W 7041   3.802  14.555   2.863
34782W        W 7042  28.938   4.091  13.777
34783W        W 7043  23.930  23.711   4.600
34784W        W 7044   4.885  14.787   4.604
34785W        W 7045  44.935  35.332  13.870
34786W        W 7046   0.514   1.099  10.685
34787W        W 7047  21.169  26.519  13.357
34788W        W 7048  13.693   8.786   1.335
34789W        W 7049  24.769  17.536  14.528
34790W        W 7050   2.523   0.813  10.695
34791W        W 7051   9.897   8.787  11.081
34792W        W 7052  43.891  23.581  12.322
34793W        W 7053  42.579  44.274   1.748
34794W        W 7054   9.322  35.596  13.383
34795W        W 7055  18.827  15.210   4.244
34796W        W 7056  37.306  31.693   4.870
34797W        W 7057   3.130  11.256  10.612
34798W        W 7058  19.018  32.826  11.656
34799W        W 7059  35.035  35.367   3.298
34800W        W 7060  25.164   1.235  14.222
34801W        W 7061  43.617  40.992   0.051
34802W        W 7062  30.154  15.190   0.907
34803W        W 7063  25.090  10.549   1.954
34804W        W 7064  33.122  38.236   1.391
34805W        W 7065  32.269  26.135   0.743
34806W        W 7066  20.702  44.769   4.869
34807W        W 7067   6.719  30.903  14.252
34808W        W 7068   8.899   3.334   3.111
34809W        W 7069   0.922  32.927  12.904
34810W        W 7070  23.178  35.912  11.622
34811W        W 7071  22.624  18.575   1.731
34812W        W 7072  10.861  16.336  12.514
34813W        W 7073   6.229  23.764  12.053
34814W        W 7074  13.648  22.433  10.706
34815W        W 7075  42.920  10.543  12.583
34816W        W 7076  13.968  13.163   3.260
34817W        W 7077   2.710  38.000   3.642
34818W        W 7078  26.545  23.752   2.186
34819W        W 7079  43.383  16.434  13.967
34820W        W 7080  44.858  10.125  11.079
34821W        W 7081  14.227  13.111   2.829
34822W        W 7082   8.430  33.167   1.136
34823W        W 7083  36.017   3.748  14.365
34824W        W 7084  30.039   7.597   2.674
34825W        W 7085  12.301  10.138  14.399
34826W        W 7086  20.312  21.721   1.654
34827W        W 7087  35.976  36.128   2.956
34828W        W 7088  32.852  41.442  14.391
34829W        W 7089  16.361   8.515   4.656
34830W        W 7090  13.334   1.348  12.123
34831W        W 7091  30.965  44.708   2.854
34832W        W 7092  34.625  37.786   3.761
34833W        W 7093  12.578  35.444  10.755
34834W        W 7094  16.557  37.053   2.822
34835W        W 7095  44.494  41.454  12.950
34836W        W 7096  34.808  39.221   3.298
34837W        W 7097  16.513   5.635  13.562
34838W        W 7098  32.079  26.033  12.030
34839W        W 7099   5.142  26.488  10.592
34840W        W 7100   5.097   8.807   1.750
34841W        W 7101  37.085  22.269   0.854
34842W        W 7102  36.863  43.954   2.337
34843W        W 7103  33.069  40.054   3.912
34844W        W 7104  27.996  22.524  13.129
34845W        W 7105  40.085  23.065  13.579
34846W        W 7106  33.860  43.730   3.358
34847W        W 7107  33.147  14.364  14.013
34848W        W 7108   4.970  15.018   1.757
34849W        W 7109  39.319  25.905  13.446
34850W        W 7110  21.483  32.494  13.139
34851W        W 7111  12.096  10.101   0.442
34852W        W 7112  31.670  18.735   4.818
34853W        W 7113  23.028  17.917  14.899
34854W        W 7114  12.704   5.948   0.818
34855W        W 7115  31.371   2.003  13.549
34856W        W 7116  31.868   9.866   2.153
34857W        W 7117   0.370  36.318  13.134
34858W        W 7118  25.476  26.531  10.558
34859W        W 7119  26.638   9.634  12.453
34860W        W 7120   1.817  44.518   1.034
34861W        W 7121  25.052  33.606   3.949
34862W        W 7122  21.758  32.932  14.892
34863W        W 7123  25.416  39.129   4.335
34864W        W 7124  35.584  26.737   1.794
34865W        W 7125  12.325  17.473  10.426
34866W        W 7126  31.520   6.011   2.771
34867W        W 7127  18.746  25.501  14.815
34868W        W 7128  15.355  15.030  11.138
34869W        W 7129  18.243  22.122   1.329
34870W        W 7130  12.067  34.488  12.493
34871W        W 7131  18.064  23.659   2.895
34872W        W 7132  30.566  41.753   1.620
34873W        W 7133  17.248  21.091   1.295
34874W        W 7134  14.799   7.354  14.483
34875W        W 7135   7.636  21.821  11.037
34876W        W 7136  40.333  26.381   4.601
34877W        W 7137  33.716  19.291  13.133
34878W        W 7138  14.689  16.297   4.814
34879W        W 7139  16.329  42.722   2.379
34880W        W 7140  21.281   8.859  13.622
34881W        W 7141  38.979  21.838  11.991
34882W        W 7142  10.253   5.783  13.189
34883W        W 7143  15.580  34.343   4.115
34884W        W 7144  26.942  33.309  11.936
34885W        W 7145  18.507  34.955  12.197
34886W        W 7146  34.185  25.048  12.073
34887W        W 7147  17.810  13.100  14.364
34888W        W 7148  42.093  23.690   4.574
34889W        W 7149  31.771   6.376   0.894
34890W        W 7150  39.984  19.273  14.773
34891W        W 7151  39.471  14.687   4.991
34892W        W 7152  42.409   8.341   3.478
34893W        W 7153   7.744  24.033   4.343
34894W        W 7154  18.753  38.328  14.881
34895W        W 7155  43.294  38.297   0.817
34896W        W 7156  24.389  14.803   2.265
34897W        W 7157   9.581  19.665  10.815
34898W        W 7158  44.218  44.369  13.154
34899W        W 7159   4.831  26.671   1.389
34900W        W 7160  30.350  31.628  14.770
34901W        W 7161   3.686   7.191   0.130
34902W        W 7162  33.563  43.515  12.436
34903W        W 7163  17.276  20.318   0.881
34904W        W 7164   8.068   2.741  13.337
34905W        W 7165  14.339  37.861  10.423
34906W        W 7166  26.862  33.389  13.350
34907W        W 7167  10.380  38.892   4.083
34908W        W 7168   7.025  25.536  11.045
34909W        W 7169  17.652  11.407   3.791
34910W        W 7170  44.560  22.154   0.346
34911W        W 7171  23.857  43.140   1.859
34912W        W 7172  21.231  41.732   1.810
34913W        W 7173  43.589  17.065   0.229
34914W        W 7174  11.152  11.257  12.954
34915W        W 7175  36.372   1.471   3.550
34916W        W 7176  23.112  44.564   1.176
34917W        W 7177  24.190  28.317  14.364
34918W        W 7178   9.158  26.291  14.792
34919W        W 7179  18.225  39.793  10.633
34920W        W 7180  29.529  39.477  11.372
34921W        W 7181  41.899  28.523   4.913
34922W        W 7182  37.033  19.665   1.411
34923W        W 7183  12.095  17.172   4.583
34924W        W 7184   0.696  12.927   2.195
34925W        W 7185  22.961  22.764   1.272
34926W        W 7186   8.207  38.991  13.111
34927W        W 7187  21.558   4.497  13.950
34928W        W 7188  22.997  39.226  11.097
34929W        W 7189   0.428   6.669   0.375
34930W        W 7190  32.130   4.291  11.633
34931W        W 7191  28.465  37.332  10.440
34932W        W 7192  21.506  41.985   1.439
34933W        W 7193   1.449  24.301   0.317
34934W        W 7194  37.950  26.232   3.323
34935W        W 7195   6.909  29.466  12.504
34936W        W 7196  12.617  11.679   3.722
34937W        W 7197  10.106  31.901  13.274
34938W        W 7198   2.434  36.594  13.889
34939W        W 7199  42.280  21.101  10.066
34940W        W 7200  24.730   4.757  14.956
34941W        W 7201  37.304  16.529   0.735
34942W        W 7202  33.961  42.717  11.578
34943W        W 7203  40.129  23.044   1.840
34944W        W 7204  18.741  17.760  10.964
34945W        W 7205  35.034   3.199   0.284
34946W        W 7206  18.682  39.913   4.894
34947W        W 7207  44.790  22.128   4.715
34948W        W 7208  33.378  25.386   0.486
34949W        W 7209  13.865  37.442  12.472
34950W        W 7210  27.660   6.729  13.943
34951W        W 7211  12.888  10.673  14.082
34952W        W 7212   2.658  20.613  13.145
34953W        W 7213  44.945  43.090   0.972
34954W        W 7214   1.692  44.816  10.679
34955W        W 7215  31.547  10.409  12.362
34956W        W 7216  29.209  40.793  13.799
34957W        W 7217  10.586  33.060   2.889
34958W        W 7218  39.600   1.810  10.692
34959W        W 7219  19.158  44.918  11.655
34960W        W 7220  44.017   4.908  14.305
34961W        W 7221  31.057   9.872  11.931
34962W        W 7222   6.392   9.680   3.721
34963W        W 7223  26.947   7.470  14.306
34964W        W 7224  10.478  37.628   4.196
34965W        W 7225  10.412  14.108  14.959
34966W        W 7226  27.065  18.662  12.046
34967W        W 7227  15.754  32.367   1.687
34968W        W 7228   5.604  25.597  11.225
34969W        W 7229  43.232  15.709   1.185
34970W        W 7230  28.875  25.587   1.043
34971W        W 7231  16.567  16.987  14.269
34972W        W 7232  20.069  12.908  10.189
34973W        W 7233  43.376  31.463   4.034
34974W        W 7234  12.724  26.639  12.515
34975W        W 7235  14.142   1.515   4.231
34976W        W 7236   3.707  37.055   1.506
34977W        W 7237  30.704  38.368   1.730
34978W        W 7238  11.576  41.392  14.831
34979W        W 7239  30.151  14.410  12.549
34980W        W 7240   3.501  17.607  10.674
34981W        W 7241  23.205   1.994   0.757
34982W        W 7242  24.165   5.853  11.017
34983W        W 7243  40.362  27.211  14.330
34984W        W 7244   3.023  28.995   0.427
34985W        W 7245  44.403   6.813   2.076
34986W        W 7246  37.539  38.865  14.023
34987W        W 7247  44.678   1.235  12.659
34988W        W 7248  40.521  20.626   1.237
34989W        W 7249   8.762  35.762  10.331
34990W        W 7250   0.769  30.009   1.656
34991W        W 7251  31.611  26.138  11.040
34992W        W 7252   8.116   0.989   0.495
34993W        W 7253  39.967   3.740   1.395
34994W        W 7254  34.272  29.674  12.342
34995W        W 7255  10.183  38.724   2.792
34996W        W 7256   3.710  31.602   3.675
34997W        W 7257  33.534  29.321   3.193
34998W        W 7258  18.720   7.761  11.086
34999W        W 7259  12.385  10.347  12.142
35000W        W 7260  42.234  36.413   0.454
35001W        W 7261  36.662   0.437  13.450
35002W        W 7262  30.279  35.069   2.582
35003W        W 7263  42.988  26.207  11.670
35004W        W 7264   4.657  36.346   2.778
35005W        W 7265  12.531  10.355   0.316
35006W        W 7266  17.727  24.451  10.505
35007W        W 7267  44.360   8.353  12.886
35008W        W 7268  13.620  25.054   2.762
35009W        W 7269  19.832  40.361  13.524
35010W        W 7270  17.540  33.100  10.837
35011W        W 7271   7.334  23.557  13.336
35012W        W 7272  31.356  26.590  10.963
35013W        W 7273  12.116  39.035  14.330
35014W        W 7274  26.150  34.147  12.400
35015W        W 7275  43.929  26.901   1.773
35016W        W 7276  22.733  28.088   0.785
35017W        W 7277  38.950  34.014   1.514
35018W        W 7278  12.872  32.767  11.276
35019W        W 7279  27.512  12.716  12.706
35020W        W 7280  31.596  21.105  13.775
35021W        W 7281  18.827   0.461  11.180
35022W        W 7282  35.045  17.541  12.138
35023W        W 7283  40.337   5.221   3.839
35024W        W 7284  24.008  26.712  12.525
35025W        W 7285  25.688  21.779  13.605
35026W        W 7286  26.591  23.423  12.158
35027W        W 7287  22.909  28.491   3.290
35028W        W 7288  12.418  12.684  10.898
35029W        W 7289   0.802  19.789  12.585
35030W        W 7290  41.741  31.526   2.314
35031W        W 7291  15.703  11.702  14.285
35032W        W 7292   8.811  27.459  11.097
35033W        W 7293   7.440  37.424   1.167
35034W        W 7294  30.632   2.325   0.856
35035W        W 7295  18.712  39.929   4.358
35036W        W 7296  32.884  35.793  12.936
35037W        W 7297   4.251  40.525  12.497
35038W        W 7298   3.982   3.317  12.293
35039W        W 7299  33.119  16.701  13.372
35040W        W 7300  32.716  36.237   0.976
35041W        W 7301   4.142   7.735   2.431
35042W        W 7302  44.252  37.810  12.057
35043W        W 7303  16.700  19.058   2.807
35044W        W 7304  17.550  32.458   0.062
35045W        W 7305  16.495  35.038  13.906
35046W        W 7306  25.956  21.056  13.882
35047W        W 7307   8.391  24.536   4.111
35048W        W 7308  10.406  24.521   3.556
35049W        W 7309   1.559  18.582  12.781
35050W        W 7310  22.345  16.533   4.252
35051W        W 7311  26.639  13.588  10.983
35052W        W 7312   2.552  42.599  13.718
35053W        W 7313  37.479   8.159   1.289
35054W        W 7314  35.148   0.861  12.892
35055W        W 7315  37.320  33.119   1.809
35056W        W 7316   6.287   7.298  10.329
35057W        W 7317  21.069  13.578   2.106
35058W        W 7318  15.267  11.940  12.524
35059W        W 7319  35.442   8.906   4.033
35060W        W 7320  24.614   9.619  12.982
35061W        W 7321  10.416  13.173  11.588
35062W        W 7322  27.212  11.586  10.728
35063W        W 7323  34.826   1.739  11.784
35064W        W 7324   1.098  23.937  14.896
35065W        W 7325  22.523  16.574  13.810
35066W        W 7326   2.849  13.827   0.386
35067W        W 7327   0.442  32.912  14.930
35068W        W 7328   9.394  39.436  12.000
35069W        W 7329  29.945  35.994   0.687
35070W        W 7330  11.619  22.650   4.523
35071W        W 7331  30.046  14.869  13.342
35072W        W 7332  29.323  40.410  10.594
35073W        W 7333   4.245  23.189   3.674
35074W        W 7334  15.801  15.919   2.603
35075W        W 7335  38.534  20.941   3.447
35076W        W 7336   6.460  21.810  12.862
35077W        W 7337  17.933  33.247  14.837
35078W        W 7338  39.212  28.545   4.427
35079W        W 7339   1.925  29.400   0.506
35080W        W 7340  16.698   0.065  12.973
35081W        W 7341  37.748  13.777   1.839
35082W        W 7342  42.279   4.388   1.348
35083W        W 7343   7.142   2.624   4.674
35084W        W 7344  18.281  29.165   1.504
35085W        W 7345  42.403   6.247   2.316
35086W        W 7346  35.393   6.663   1.755
35087W        W 7347  13.379  37.562   4.474
35088W        W 7348  15.284  15.678   3.616
35089W        W 7349  28.866  15.681   3.824
35090W        W 7350  18.192  18.466  13.591
35091W        W 7351  18.107  35.126  11.895
35092W        W 7352  33.947  23.043  13.235
35093W        W 7353  22.303  16.031  11.570
35094W        W 7354  19.249  24.263  13.129
35095W        W 7355  16.021  18.785   1.969
35096W        W 7356  23.736  28.062  13.699
35097W        W 7357   4.698  15.279  13.541
35098W        W 7358  30.913   5.497  14.019
35099W        W 7359   0.424  27.900  12.985
35100W        W 7360  31.887   5.931   0.708
35101W        W 7361   9.199  30.630  13.447
35102W        W 7362  44.518  41.390   2.693
35103W        W 7363  31.183  34.485  12.469
35104W        W 7364  10.049  15.061  13.314
35105W        W 7365  27.732  19.239  13.353
35106W        W 7366  39.896   6.773   1.908
35107W        W 7367   4.773  18.179  13.370
35108W        W 7368  15.214  26.632   2.661
35109W        W 7369  32.004   6.978   3.490
35110W        W 7370   9.496   4.867   2.896
35111W        W 7371  20.422  39.355   3.126
35112W        W 7372  13.640  13.099   0.249
35113W        W 7373  16.113  12.834   1.784
35114W        W 7374  35.126  43.958  10.720
35115W        W 7375  29.392  24.949  11.961
35116W        W 7376  18.293  23.149  11.151
35117W        W 7377   9.077  12.761   0.732
35118W        W 7378  28.618  15.169  12.551
35119W        W 7379   4.400  28.785  11.129
35120W        W 7380  27.697   3.790   0.815
35121W        W 7381  36.058  28.898   3.075
35122W        W 7382   5.991  16.658  14.065
35123W        W 7383   5.113  36.565   1.889
35124W        W 7384  17.289  44.953   0.166
35125W        W 7385   3.339  17.867  11.574
35126W        W 7386  31.169  39.021   2.370
35127W        W 7387  22.953   0.281  13.841
35128W        W 7388  11.643  31.413   0.365
35129W        W 7389  25.559  24.192  10.535
35130W        W 7390  33.499  22.182   2.320
35131W        W 7391  12.125  31.163  14.452
35132W        W 7392  34.696  20.629   2.809
35133W        W 7393  12.599   9.802   4.105
35134W        W 7394  15.671  36.373  11.662
35135W        W 7395  40.506  18.495   1.718
35136W        W 7396  32.883  25.793  10.908
35137W        W 7397   2.673  29.988  12.114
35138W        W 7398  20.836  28.584  10.132
35139W        W 7399  43.647  26.631  11.468
35140W        W 7400   7.506  30.254  14.484
35141W        W 7401  22.630  18.258   3.695
35142W        W 7402  31.620   3.727  12.594
35143W        W 7403   4.099   8.583  14.920
35144W        W 7404  15.233  29.401   0.736
35145W        W 7405  29.681  12.254  10.325
35146W        W 7406  15.493  21.710   4.841
35147W        W 7407  28.952  37.450   0.182
35148W        W 7408   2.685   7.587   2.451
35149W        W 7409  19.705  29.962  10.759
35150W        W 7410   1.217   8.323  11.380
35151W        W 7411   6.750  37.975   3.186
35152W        W 7412  35.303  27.372  14.350
35153W        W 7413  30.860  34.534  14.294
35154W        W 7414   1.635  39.016   0.883
35155W        W 7415   0.326   2.280  10.604
35156W        W 7416  19.287  41.337  14.359
35157W        W 7417  27.794   8.781   5.054
35158W        W 7418  35.851   6.268  10.427
35159W        W 7419  22.696  35.118  10.987
35160W        W 7420  17.249  30.130  14.055
35161W        W 7421  17.781   9.906   0.103
35162W        W 7422   4.871  43.457  14.453
35163W        W 7423  45.000  41.381  12.841
35164W        W 7424  16.866  20.631   2.102
35165W        W 7425   8.729  29.410   5.043
35166W        W 7426   6.225  42.493  12.890
35167W        W 7427  43.065  36.481  11.826
35168W        W 7428  32.297  43.566  14.709
35169W        W 7429  11.101  41.313   2.927
35170W        W 7430  41.863  42.271  10.922
35171W        W 7431  14.578   4.820  11.000
35172W        W 7432  23.198   7.086  13.607
35173W        W 7433   3.850   5.938   1.315
35174W        W 7434  41.798  41.435  13.392
35175W        W 7435  10.923  35.125   1.030
35176W        W 7436  30.125  17.094  12.875
35177W        W 7437   1.913  21.719   2.642
35178W        W 7438   9.882  41.560   4.259
35179W        W 7439  36.107  24.403   0.432
35180W        W 7440  21.656   0.790  13.853
35181W        W 7441  28.532   9.581  13.541
35182W        W 7442  39.274  12.656   3.765
35183W        W 7443   1.332  42.252  12.467
35184W        W 7444   8.642  32.438   3.200
35185W        W 7445  20.146  14.769  11.516
35186W        W 7446  17.857   8.650   1.181
35187W        W 7447  39.375  31.350  13.289
35188W        W 7448  31.820  13.528  12.479
35189W        W 7449  31.665  23.263   2.911
35190W        W 7450  26.985  25.145   0.469
35191W        W 7451   9.393  19.699  13.382
35192W        W 7452  34.026  19.635   5.278
35193W        W 7453   8.301  40.241   4.858
35194W        W 7454   1.303   7.357  13.775
35195W        W 7455  38.598   6.325  12.524
35196W        W 7456   9.268  21.126  11.563
35197W        W 7457  10.212  22.962  14.995
35198W        W 7458  39.552   8.395   2.383
35199W        W 7459  27.237  14.792  10.627
35200W        W 7460  44.371   2.388  10.402
35201W        W 7461  33.233   9.994   1.735
35202W        W 7462  18.109  33.306   0.455
35203W        W 7463  42.569  13.494   2.594
35204W        W 7464   8.409   4.453  13.458
35205W        W 7465  42.029   1.966  11.676
35206W        W 7466  30.879   0.203  13.008
35207W        W 7467  30.325  32.955  13.660
35208W        W 7468  22.825  26.111  13.935
35209W        W 7469   0.947  19.945   1.480
35210W        W 7470  28.573   4.925  14.828
35211W        W 7471   0.318  39.793   3.914
35212W        W 7472  40.250  15.762   1.316
35213W        W 7473  38.147  19.560   4.194
35214W        W 7474  32.053  40.403   3.716
35215W        W 7475  40.707  13.247  13.031
35216W        W 7476  26.439  43.775   0.871
35217W        W 7477  39.432  10.387   3.715
35218W        W 7478   3.055   1.412   4.145
35219W        W 7479   1.968  27.141  14.566
35220W        W 7480  40.477  20.800   2.750
35221W        W 7481  29.714   8.414   2.363
35222W        W 7482   6.430  10.782   2.267
35223W        W 7483  29.370  37.429  11.166
35224W        W 7484  26.223   8.839   1.821
35225W        W 7485   2.310   2.498   3.925
35226W        W 7486  27.569  44.240   1.944
35227W        W 7487   3.213  22.510   0.946
35228W        W 7488  25.592  34.367  13.306
35229W        W 7489  35.610  36.578   2.201
35230W        W 7490  41.997  22.855   0.064
35231W        W 7491  15.785  20.773  10.660
35232W        W 7492  35.360  25.030  10.489
35233W        W 7493  26.001  14.565   4.127
35234W        W 7494  30.501   4.723  14.128
35235W        W 7495  12.948  15.755   4.025
35236W        W 7496  28.966  37.484   4.448
35237W        W 7497  18.706   6.876  13.315
35238W        W 7498   2.962   9.365  12.942
35239W        W 7499  13.553   1.631   0.706
35240W        W 7500   1.021  43.032   4.101
35241W        W 7501  13.406  10.544  13.010
35242W        W 7502   6.195  36.460   0.764
35243W        W 7503   3.635  43.781  10.382
35244W        W 7504  36.293  38.258   1.915
35245W        W 7505  27.306  26.562  12.973
35246W        W 7506   9.170  19.212  13.329
35247W        W 7507   7.821  13.812  11.055
35248W        W 7508  22.017   1.724   1.439
35249W        W 7509  32.978   5.470  10.550
35250W        W 7510  39.822  31.231   2.215
35251W        W 7511   3.840  39.549  12.899
35252W        W 7512  36.118  12.848   2.720
35253W        W 7513  26.591  21.675   0.345
35254W        W 7514  33.192   4.354  12.813
35255W        W 7515  31.558  34.345   4.173
35256W        W 7516   2.991  25.092  14.509
35257W        W 7517  36.787  30.557  13.325
35258W        W 7518  12.588  28.552  12.482
35259W        W 7519   6.312  40.861   3.659
35260W        W 7520  39.665  13.618   3.562
35261W        W 7521  24.912  43.612  12.481
35262W        W 7522   5.673   9.862   1.932
35263W        W 7523  10.326  26.728  11.760
35264W        W 7524  42.812  42.988   0.164
35265W        W 7525  13.681  29.856  13.735
35266W        W 7526   5.145  12.254  14.410
35267W        W 7527  12.962  15.099  12.094
35268W        W 7528  17.126  17.519   2.177
35269W        W 7529  25.746  13.476   3.750
35270W        W 7530  19.212  17.678  13.677
35271W        W 7531   1.020  12.141  12.338
35272W        W 7532  27.391  11.340  11.128
35273W        W 7533  20.780  13.065  11.961
35274W        W 7534  35.517   6.161   3.706
35275W        W 7535  31.147  15.879   1.481
35276W        W 7536  18.281  19.546   4.359
35277W        W 7537  30.558  16.762   0.453
35278W        W 7538  35.273  18.580   0.233
35279W        W 7539   9.353  44.860   2.250
35280W        W 7540  23.781  30.527   1.134
35281W        W 7541  37.501  42.939  12.529
35282W        W 7542   7.421  11.389  13.510
35283W        W 7543   8.948  15.830   2.284
35284W        W 7544  41.494  30.907   4.118
35285W        W 7545   9.329   3.540  14.144
35286W        W 7546  14.048  23.238  11.022
35287W        W 7547  26.182   8.238  10.682
35288W        W 7548  12.757  10.753   1.850
35289W        W 7549   1.761   2.279   1.901
35290W        W 7550  14.690   1.957  13.097
35291W        W 7551  18.034   8.114  12.865
35292W        W 7552  41.962  34.626  14.740
35293W        W 7553  32.926  10.190  13.814
35294W        W 7554   6.430  32.425  11.614
35295W        W 7555  15.753  32.552  12.526
35296W        W 7556  25.843  13.166  13.622
35297W        W 7557  34.498  29.522  10.691
35298W        W 7558  18.594  20.087   1.472
35299W        W 7559  11.120  16.059   4.261
35300W        W 7560  14.855  30.766  12.833
35301W        W 7561  15.180  25.199   3.161
35302W        W 7562  17.660   0.223  14.950
35303W        W 7563   2.048  10.659  10.089
35304W        W 7564  38.476  17.874  11.093
35305W        W 7565  10.576  19.996   4.175
35306W        W 7566  39.632  12.686  14.948
35307W        W 7567  14.267  41.889   1.869
35308W        W 7568  11.205  11.692  14.243
35309W        W 7569  16.838  39.639   0.845
35310W        W 7570   4.304   9.807   0.983
35311W        W 7571  35.146  26.640   4.046
35312W        W 7572  38.571  21.763  11.208
35313W        W 7573  27.713  10.670  13.608
35314W        W 7574  33.571   4.318   2.034
35315W        W 7575  41.456  38.909  11.101
35316W        W 7576  16.768  32.403  14.489
35317W        W 7577  31.614  17.095   4.157
35318W        W 7578  43.364  43.960   0.426
35319W        W 7579  38.171   0.386  11.584
35320W        W 7580  21.871  38.020   2.532
35321W        W 7581  15.607  15.251   3.792
35322W        W 7582   8.052  32.952   2.808
35323W        W 7583  30.859  27.311   1.727
35324W        W 7584  15.075  16.273  11.635
35325W        W 7585  16.578  27.405  10.569
35326W        W 7586  24.177  43.969   4.608
35327W        W 7587  39.443  43.738  13.659
35328W        W 7588  18.753   6.656  11.064
35329W        W 7589  44.973  27.600  14.799
35330W        W 7590  13.121  40.301   1.899
35331W        W 7591  18.530   2.262  10.729
35332W        W 7592  15.076  34.840  11.129
35333W        W 7593   9.110  31.670   3.898
35334W        W 7594  19.157  31.596  11.961
35335W        W 7595  35.898  37.952   4.943
35336W        W 7596   6.477  16.938  11.484
35337W        W 7597  15.861  38.161   4.550
35338W        W 7598  35.111  15.740  14.409
35339W        W 7599  19.523  14.044  10.764
35340W        W 7600  23.212   5.805  10.459
35341W        W 7601  33.549  36.985  10.273
35342W        W 7602  17.842  19.605  11.107
35343W        W 7603   2.736  10.936  14.448
35344W        W 7604   7.954  27.991   4.593
35345W        W 7605  35.959   5.693   0.602
35346W        W 7606  19.584  27.649  13.072
35347W        W 7607  25.217  40.690  13.443
35348W        W 7608   1.893   2.197   3.755
35349W        W 7609  43.763   6.386  13.429
35350W        W 7610  20.715  10.653   0.781
35351W        W 7611  35.456   0.421  14.983
35352W        W 7612  11.759  32.520  13.955
35353W        W 7613  33.378  23.504  13.590
35354W        W 7614  25.478  12.853   5.047
35355W        W 7615  15.165  44.290  12.531
35356W        W 7616  23.315   9.356   4.538
35357W        W 7617  14.167  19.655   4.571
35358W        W 7618  34.591  27.522  11.687
35359W        W 7619  33.651  38.065  11.175
35360W        W 7620  24.549  34.983  12.029
35361W        W 7621  35.518  32.624   3.943
35362W        W 7622   8.994  24.756  12.900
35363W        W 7623  43.836  13.031   0.876
35364W        W 7624  28.011   1.840  10.771
35365W        W 7625  34.415  42.919  11.625
35366W        W 7626  27.225  28.508  12.376
35367W        W 7627  26.633   2.908   0.886
35368W        W 7628   1.767  10.340  14.241
35369W        W 7629   5.183  12.281  13.760
35370W        W 7630   6.726   7.941  10.592
35371W        W 7631  35.507  32.513  11.406
35372W        W 7632  32.153  21.166   1.045
35373W        W 7633  26.208  19.563  10.676
35374W        W 7634  43.954  31.668   0.416
35375W        W 7635   0.535  21.245  11.900
35376W        W 7636   9.885  21.666   0.372
35377W        W 7637  38.347  13.232   2.228
35378W        W 7638  28.094  15.053  12.512
35379W        W 7639   5.594  42.588   4.819
35380W        W 7640  37.245   2.279  14.333
35381W        W 7641  20.538   1.358   1.198
35382W        W 7642  13.233   6.994   4.890
35383W        W 7643   4.652   9.322  11.416
35384W        W 7644  22.730  35.294  12.037
35385W        W 7645  19.319  18.714   3.700
35386W        W 7646  32.626  12.909   5.098
35387W        W 7647   6.266  16.196  11.440
35388W        W 7648  19.227  24.658   2.120
35389W        W 7649  35.961   2.615  12.030
35390W        W 7650  24.686  32.137   3.268
35391W        W 7651  36.399  13.780   3.259
35392W        W 7652  29.695  16.584   0.727
35393W        W 7653  36.374   0.885  10.567
35394W        W 7654  38.688  29.150   2.235
35395W        W 7655  30.859  30.987   1.693
35396W        W 7656  18.262  33.447   4.077
35397W        W 7657  24.255  44.057   3.720
35398W        W 7658  27.097  24.560   3.825
35399W        W 7659  25.330  19.560   2.782
35400W        W 7660  24.435  37.347  13.851
35401W        W 7661  18.658  21.559   1.868
35402W        W 7662  43.759  43.715   4.300
35403W        W 7663  27.305  10.479  13.371
35404W        W 7664  28.139  24.152   0.883
35405W        W 7665   3.158  35.721  14.947
35406W        W 7666  43.779   1.976   4.103
35407W        W 7667   1.654  15.332   3.337
35408W        W 7668   4.695  39.183  11.559
35409W        W 7669  21.022  34.996  10.689
35410W        W 7670  21.492   9.430  13.896
35411W        W 7671  22.055  29.774  13.533
35412W        W 7672   0.287   4.372  12.951
35413W        W 7673  10.810  10.810   1.205
35414W        W 7674  18.426  29.703   1.915
35415W        W 7675  44.742  15.774  12.248
35416W        W 7676  27.875  28.379  10.563
35417W        W 7677  39.596  20.550   0.676
35418W        W 7678  16.702  11.105   3.672
35419W        W 7679  27.390  39.849   2.872
35420W        W 7680  17.063  41.185   2.476
35421W        W 7681  22.658  38.465  10.766
35422W        W 7682  32.523  36.711   0.809
35423W        W 7683  31.465  12.564   0.353
35424W        W 7684  29.010   4.007  11.603
35425W        W 7685  32.990  44.240  14.062
35426W        W 7686  39.448  38.979  12.602
35427W        W 7687  26.421  39.877  14.661
35428W        W 7688   1.887  40.062  14.807
35429W        W 7689  22.688  43.478  14.254
35430W        W 7690   5.297  19.724   3.102
35431W        W 7691   2.000   1.931   3.298
35432W        W 7692   8.054  19.261  13.318
35433W        W 7693  25.137  34.350   2.762
35434W        W 7694  19.995  44.559  13.047
35435W        W 7695   9.624   6.851   3.675
35436W        W 7696   1.835  13.090  11.593
35437W        W 7697  44.463  15.270  11.675
35438W        W 7698  27.282  34.005  13.113
35439W        W 7699  33.789  24.477  14.513
35440W        W 7700  29.486  35.186  14.046
35441W        W 7701  42.532  26.092  10.617
35442W        W 7702   3.074   2.517   0.882
35443W        W 7703  34.997  37.485   3.519
35444W        W 7704  11.759  10.958   1.986
35445W        W 7705   6.594  22.990  13.659
35446W        W 7706  19.796  10.060  13.391
35447W        W 7707   7.713   7.248   1.779
35448W        W 7708  42.076  42.755  13.370
35449W        W 7709  37.158  11.620   1.817
35450W        W 7710  25.212  15.214   2.325
35451W        W 7711   1.560   8.677   4.009
35452W        W 7712  29.688  18.405  10.586
35453W        W 7713  26.563  42.191  12.028
35454W        W 7714   6.050  19.383  12.928
35455W        W 7715  35.005  36.059   4.115
35456W        W 7716  21.223  25.007   2.213
35457W        W 7717  23.206  30.042   3.723
35458W        W 7718   7.618   7.072   1.306
35459W        W 7719  42.457  11.754  10.688
35460W        W 7720  25.110  29.495  11.152
35461W        W 7721  24.078  12.499  10.016
35462W        W 7722  41.828   0.495  11.254
35463W        W 7723  18.086  32.463  10.547
35464W        W 7724  14.546  40.369  11.155
35465W        W 7725  14.090  25.248  11.119
35466W        W 7726  39.399  31.967   0.627
35467W        W 7727  44.936  35.887  11.154
35468W        W 7728  19.436  44.377   2.424
35469W        W 7729  12.052  10.319  13.939
35470W        W 7730  20.721  41.543   3.926
35471W        W 7731  21.274  40.867  13.589
35472W        W 7732  17.158  34.460  14.395
35473W        W 7733  34.753  27.168   4.709
35474W        W 7734  43.348   3.897  11.950
35475W        W 7735  42.273  22.685   0.482
35476W        W 7736   2.306   7.217   3.157
35477W        W 7737  29.087  12.130   0.285
35478W        W 7738  14.267  39.837  14.161
35479W        W 7739  34.029  21.714  13.442
35480W        W 7740  43.968  25.981   1.459
35481W        W 7741   4.800  16.033  12.751
35482W        W 7742  35.417   5.794   4.108
35483W        W 7743   5.441  19.649  14.034
35484W        W 7744  26.003   1.913  12.024
35485W        W 7745   0.721  28.250  11.651
35486W        W 7746  42.845  18.818   2.256
35487W        W 7747  42.261  44.276   2.152
35488W        W 7748   4.776   8.933   1.176
35489W        W 7749   4.745   3.929   1.961
35490W        W 7750   5.929   3.361   4.982
35491W        W 7751  41.510  19.636   2.214
35492W        W 7752  30.049  19.742  14.716
35493W        W 7753   4.842  22.199   3.376
35494W        W 7754  34.538  25.023  11.071
35495W        W 7755  33.065   4.375  13.851
35496W        W 7756  33.058   3.461   4.289
35497W        W 7757  17.320  21.529   3.772
35498W        W 7758  30.733  31.081   5.085
35499W        W 7759   3.842  31.359  10.384
35500W        W 7760   5.848   7.670   4.609
35501W        W 7761   8.963   1.269   3.129
35502W        W 7762  27.071  14.621   4.066
35503W        W 7763  41.336  26.513  11.832
35504W        W 7764  43.267  10.189  14.997
35505W        W 7765  19.522  22.213  11.375
35506W        W 7766  21.251  41.573   0.473
35507W        W 7767  19.610  13.412   2.276
35508W        W 7768   1.051  20.790  14.747
35509W        W 7769  13.753  12.738   3.456
35510W        W 7770  43.546  22.172   4.123
35511W        W 7771  18.094  44.385   1.488
35512W        W 7772   3.462  11.274  12.960
35513W        W 7773  34.937  37.864  13.415
35514W        W 7774  34.134  26.077  12.142
35515W        W 7775  35.124  13.213  13.859
35516W        W 7776  39.320  41.128   2.145
35517W        W 7777  17.980  36.031   0.308
35518W        W 7778   3.063  37.521   5.071
35519W        W 7779  28.149  36.415   4.254
35520W        W 7780   0.765  19.659  10.637
35521W        W 7781  30.630  33.172  12.208
35522W        W 7782  14.265  12.207  14.950
35523W        W 7783  24.245  12.728   1.356
35524W        W 7784   1.492  37.481   2.300
35525W        W 7785   4.687   2.756  14.898
35526W        W 7786  26.394  22.011  11.955
35527W        W 7787  21.667  32.192   2.805
35528W        W 7788  27.454  23.810   4.344
35529W        W 7789  12.044  27.859   0.542
35530W        W 7790   5.357  27.409   1.197
35531W        W 7791  29.942  30.578   4.236
35532W        W 7792  39.936  36.362   4.848
35533W        W 7793  22.462  40.998  10.836
35534W        W 7794  39.065  13.047  13.980
35535W        W 7795  18.060   6.453   2.641
35536W        W 7796  21.631  32.173  11.934
35537W        W 7797  24.141  34.163   4.667
35538W        W 7798   2.699   4.807   3.086
35539W        W 7799  10.364   5.957   2.428
35540W        W 7800  18.282  44.848  11.214
35541W        W 7801  34.302  20.657   2.333
35542W        W 7802  35.374  22.161  11.689
35543W        W 7803  23.197  28.583   3.702
35544W        W 7804  17.034   9.602  13.892
35545W        W 7805  24.230  33.221   3.734
35546W        W 7806   7.898  16.590  11.198
35547W        W 7807  33.702  36.393  12.658
35548W        W 7808   2.447   0.447  11.966
35549W        W 7809  15.754  33.868   5.082
35550W        W 7810  23.079  32.026   1.020
35551W        W 7811  11.266  37.411  10.657
35552W        W 7812  41.068  10.634  11.472
35553W        W 7813   8.273  28.006  14.071
35554W        W 7814  18.990  32.278  11.555
35555W        W 7815  29.517  33.147   0.889
35556W        W 7816  12.647  30.343   2.044
35557W        W 7817   0.881  17.183   4.140
35558W        W 7818  14.840  30.002   1.965
35559W        W 7819  30.481  33.123  11.008
35560W        W 7820  35.632  21.762  12.891
35561W        W 7821  37.277  31.081   1.325
35562W        W 7822  44.373  39.536  12.664
35563W        W 7823  21.616  17.643   3.669
35564W        W 7824  17.770  36.746   4.603
35565W        W 7825  37.942  39.981   1.717
35566W        W 7826   0.746  42.783  12.018
35567W        W 7827  40.152  37.407  13.244
35568W        W 7828  13.552  44.314   3.723
35569W        W 7829   8.087   4.524  12.024
35570W        W 7830  32.040   6.388   4.171
35571W        W 7831  41.369  12.082  12.997
35572W        W 7832  42.411  23.509   3.625
35573W        W 7833   1.877  30.083   4.289
35574W        W 7834  16.297  30.520  11.541
35575W        W 7835  29.232  38.292   0.382
35576W        W 7836  29.931  23.024  11.719
35577W        W 7837  31.452  38.869  12.700
35578W        W 7838  12.411   0.623  12.839
35579W        W 7839   5.821  11.281  10.666
35580W        W 7840   3.715  33.541   2.001
35581W        W 7841  43.308   8.584  10.642
35582W        W 7842  33.831  41.014   3.365
35583W        W 7843  44.929  27.369   2.670
35584W        W 7844   2.946  14.552  14.818
35585W        W 7845  21.206  41.489   4.073
35586W        W 7846  19.197  11.101  12.000
35587W        W 7847  25.852  14.327   1.342
35588W        W 7848   7.882  24.787   2.623
35589W        W 7849  35.367  13.274   1.153
35590W        W 7850   9.242  11.829   0.501
35591W        W 7851  36.400  32.690   0.439
35592W        W 7852  30.111  20.437   1.714
35593W        W 7853  15.784  17.695   5.873
35594W        W 7854  16.337   7.213   0.890
35595W        W 7855  23.041  34.034  12.558
35596W        W 7856  19.728  25.733  12.074
35597W        W 7857   9.053  26.930   2.246
35598W        W 7858   5.227  37.967   4.523
35599W        W 7859   1.353  43.703  14.517
35600W        W 7860   5.170   9.531   2.823
35601W        W 7861   5.807  37.518  10.905
35602W        W 7862  39.457  40.713  10.524
35603W        W 7863  28.565  38.252  14.280
35604W        W 7864  11.337  36.132  11.587
35605W        W 7865  44.510  32.861   0.353
35606W        W 7866   4.864  17.666  11.049
35607W        W 7867  13.408  30.636  13.299
35608W        W 7868   8.394  35.589   2.802
35609W        W 7869  24.891  36.899  13.443
35610W        W 7870  16.476  32.951  11.502
35611W        W 7871  34.320  30.643   3.236
35612W        W 7872  21.718  28.647   0.162
35613W        W 7873   7.392  16.075   1.774
35614W        W 7874  24.524  11.370   4.075
35615W        W 7875  10.377  36.445  12.066
35616W        W 7876   4.268  12.217   1.443
35617W        W 7877  18.674  43.757   2.638
35618W        W 7878   8.445  24.243  12.082
35619W        W 7879   7.713  34.619   3.211
35620W        W 7880  36.574  13.966  13.165
35621W        W 7881  24.182  30.432  13.316
35622W        W 7882  29.998  11.647  11.578
35623W        W 7883   3.799  22.938   0.015
35624W        W 7884  15.380   1.359  11.099
35625W        W 7885  16.638  39.126  12.331
35626W        W 7886  13.732  32.262  10.338
35627W        W 7887  27.906  39.352  12.512
35628W        W 7888  30.070  40.449  13.560
35629W        W 7889  27.110  27.701  14.527
35630W        W 7890  14.136  26.722   4.621
35631W        W 7891  24.086  25.216   3.735
35632W        W 7892  30.023  33.329  13.383
35633W        W 7893  42.357  25.170   2.111
35634W        W 7894  16.912  38.606  12.367
35635W        W 7895  41.850  39.324  14.409
35636W        W 7896  37.320  39.865  13.174
35637W        W 7897  11.295  41.361   2.334
35638W        W 7898  32.832   9.876   1.201
35639W        W 7899  38.168  13.675  13.530
35640W        W 7900  43.817  17.838   4.390
35641W        W 7901  40.307  32.899   3.133
35642W        W 7902  42.302   7.795  12.547
35643W        W 7903   3.784  43.481   4.534
35644W        W 7904  23.983  24.174   3.739
35645W        W 7905  35.469  32.788   1.741
35646W        W 7906  41.494  18.822   3.817
35647W        W 7907  40.801  10.842   1.491
35648W        W 7908  27.034  16.852   0.858
35649W        W 7909   3.313  25.011   2.767
35650W        W 7910  35.662  11.916  13.852
35651W        W 7911  19.032  17.366  11.157
35652W        W 7912  34.869  23.821   3.318
35653W        W 7913  44.313  17.300   2.357
35654W        W 7914  28.625   3.695  10.571
35655W        W 7915  24.229  12.080  12.521
35656W        W 7916  44.781  38.427   4.494
35657W        W 7917  23.506  33.262  13.353
35658W        W 7918  23.125   1.803   4.583
35659W        W 7919   0.768  12.906  12.659
35660W        W 7920   3.608  44.716   4.115
35661W        W 7921  25.605  19.772  14.753
35662W        W 7922  16.750  26.449  13.504
35663W        W 7923  12.216  16.896   2.635
35664W        W 7924   0.772  15.067  11.447
35665W        W 7925  42.797  44.830   0.213
35666W        W 7926  34.980  25.435   2.696
35667W        W 7927   6.213   5.711   1.301
35668W        W 7928  28.159   1.189  11.550
35669W        W 7929  35.248  23.484   1.542
35670W        W 7930  14.856  13.668   0.631
35671W        W 7931  36.572  44.954   4.767
35672W        W 7932  40.259  42.796  12.444
35673W        W 7933   6.253  32.252  10.978
35674W        W 7934   1.674   7.907   3.088
35675W        W 7935   3.943  27.557  11.560
35676W        W 7936  40.980  17.672   2.741
35677W        W 7937   5.927  41.347  11.038
35678W        W 7938  38.981  19.215  12.616
35679W        W 7939  23.599  44.751   3.568
35680W        W 7940  30.440   2.215   4.271
35681W        W 7941  18.977  25.664   4.023
35682W        W 7942  41.365  10.696   3.310
35683W        W 7943   9.291  33.002  10.489
35684W        W 7944  35.004  39.477  12.381
35685W        W 7945  40.688  11.709  14.629
35686W        W 7946  35.018  25.617  12.146
35687W        W 7947  32.972   2.525  12.031
35688W        W 7948  20.835  12.738  10.673
35689W        W 7949  16.660  34.371  10.653
35690W        W 7950  24.574  17.515  12.565
35691W        W 7951  31.603   2.469   0.381
35692W        W 7952  19.516   7.869   4.111
35693W        W 7953  10.799   0.668   3.223
35694W        W 7954   1.734   1.180   3.752
35695W        W 7955  43.060  31.169  11.805
35696W        W 7956  44.895  14.860  10.836
35697W        W 7957  11.249  37.352   1.787
35698W        W 7958   7.915  28.095   9.963
35699W        W 7959   7.382  18.972   2.022
35700W        W 7960  17.525  34.165  12.594
35701W        W 7961  35.872  42.098   1.728
35702W        W 7962  14.808  28.329  10.251
35703W        W 7963  29.586  34.925   3.312
35704W        W 7964  28.412  11.228  11.032
35705W        W 7965  43.332   1.194  13.833
35706W        W 7966  11.320  18.328  13.992
35707W        W 7967  25.287  25.617   2.552
35708W        W 7968  37.770  26.660  12.413
35709W        W 7969  12.234  22.474   3.498
35710W        W 7970  33.897  40.619   4.173
35711W        W 7971   0.164  33.502  12.070
35712W        W 7972  15.103  42.291   2.567
35713W        W 7973  43.062  15.100   3.350
35714W        W 7974  38.889  21.268   3.672
35715W        W 7975  39.453  35.713  10.495
35716W        W 7976  32.063  28.231  11.972
35717W        W 7977  20.273  31.547   0.508
35718W        W 7978  10.414  41.054   4.099
35719W        W 7979  22.011  38.398  14.512
35720W        W 7980  31.156   6.423   3.251
35721W        W 7981  16.308   9.519  11.139
35722W        W 7982  37.359  15.692   3.352
35723W        W 7983  22.730  26.438   4.157
35724W        W 7984  42.407  31.318  10.690
35725W        W 7985   7.762  22.114  11.421
35726W        W 7986  14.743   7.963   3.541
35727W        W 7987   5.885  25.172   2.174
35728W        W 7988  33.484   3.798  10.701
35729W        W 7989  32.250  21.693   4.514
35730W        W 7990  36.878   7.679   3.564
35731W        W 7991   3.429  35.880   4.249
35732W        W 7992   6.129  13.304  14.831
35733W        W 7993  40.864  13.052   4.788
35734W        W 7994   5.992  32.401  11.924
35735W        W 7995   5.399  28.847  13.445
35736W        W 7996  22.665  12.328   4.421
35737W        W 7997  36.450  11.246  13.712
35738W        W 7998  23.295  37.564   4.188
35739W        W 7999  40.268  10.361  14.467
35740W        W 8000  20.338  13.079  14.137
35741W        W 8001  34.958  33.653   5.096
35742W        W 8002  40.591  12.878   1.452
35743W        W 8003  25.521  32.499  14.017
35744W        W 8004  16.637  37.866  12.814
35745W        W 8005  39.894  44.265  10.659
35746W        W 8006  38.597  18.821  12.780
35747W        W 8007   2.296   0.813  11.646
35748W        W 8008  32.710   3.949   2.161
35749W        W 8009  29.067   6.575  10.388
35750W        W 8010  34.956  37.439   4.050
35751W        W 8011  18.818  34.398   4.805
35752W        W 8012  40.494  27.900  14.897
35753W        W 8013   4.498   9.217   4.962
35754W        W 8014   2.831  39.059  10.440
35755W        W 8015  43.780   5.687  11.165
35756W        W 8016  35.636   1.795   1.396
35757W        W 8017  22.147  20.687   9.797
35758W        W 8018  16.352  24.590  10.993
35759W        W 8019   1.381  38.657   4.190
35760W        W 8020  28.382  38.939   2.802
35761W        W 8021  26.984  11.140  12.613
35762W        W 8022  39.974  37.578   5.204
35763W        W 8023  17.590  13.571   2.696
35764W        W 8024  26.614  24.042  14.441
35765W        W 8025  22.538  30.682  12.581
35766W        W 8026  41.339  20.076   4.356
35767W        W 8027   9.416  35.011   3.681
35768W        W 8028  34.019   7.242  14.143
35769W        W 8029  20.231  29.021   3.503
35770W        W 8030  26.135   1.925  14.026
35771W        W 8031  15.564  14.283  10.630
35772W        W 8032  24.013  18.174   1.949
35773W        W 8033  25.357  25.013  11.464
35774W        W 8034  10.859  44.708  11.903
35775W        W 8035   4.390   3.055  12.076
35776W        W 8036  44.950  37.992   3.587
35777W        W 8037   4.789   5.127  12.971
35778W        W 8038  20.532  34.539  14.556
35779W        W 8039  21.374  12.426   1.183
35780W        W 8040  23.036   0.416   4.187
35781W        W 8041  32.540  11.482   0.860
35782W        W 8042   4.494  33.797  11.169
35783W        W 8043   9.010   5.849  11.431
35784W        W 8044  27.089  28.331  13.792
35785W        W 8045  24.287  19.239   4.715
35786W        W 8046  34.510  27.616  13.057
35787W        W 8047  21.901   6.901  14.757
35788W        W 8048  44.552  27.971   3.722
35789W        W 8049   3.259  19.335  11.411
35790W        W 8050  15.113   1.498   4.168
35791W        W 8051  12.827  24.498   1.900
35792W        W 8052  25.281  43.530  14.414
35793W        W 8053  36.871  17.587   1.358
35794W        W 8054  38.677  41.514   3.169
35795W        W 8055  42.012  31.510   3.704
35796W        W 8056  37.364  19.259  13.148
35797W        W 8057  27.010  39.616  11.628
35798W        W 8058   6.106  27.053  13.435
35799W        W 8059  34.782  12.184   3.733
35800W        W 8060   8.598  12.822   1.134
35801W        W 8061   8.758  17.352  14.301
35802W        W 8062  25.994  10.189  14.467
35803W        W 8063   5.985  43.754  14.025
35804W        W 8064   3.375   2.782  11.334
35805W        W 8065   8.446   9.453   1.865
35806W        W 8066  43.534  11.566  11.411
35807W        W 8067  12.291  26.894   0.391
35808W        W 8068  17.314   8.753   4.676
35809W        W 8069  22.177   8.362  10.440
35810W        W 8070  16.593   5.235  10.274
35811W        W 8071   1.502  36.848  12.259
35812W        W 8072   6.903  15.089  13.546
35813W        W 8073  25.862   7.622   2.680
35814W        W 8074  39.916  14.152  12.595
35815W        W 8075  12.419  11.458   1.243
35816W        W 8076   6.567   2.028  12.103
35817W        W 8077  29.364  29.056  12.767
35818W        W 8078  28.417  15.812  11.957
35819W        W 8079  29.403  12.266   0.673
35820W        W 8080  23.560   8.684   0.462
35821W        W 8081  40.077  23.096  11.142
35822W        W 8082  43.699  29.408  12.054
35823W        W 8083  40.214  10.490   1.945
35824W        W 8084  10.302   2.337   2.204
35825W        W 8085  44.415  32.977  10.242
35826W        W 8086   4.329   5.320   2.405
35827W        W 8087  39.839  11.533   1.068
35828W        W 8088   2.883  15.887  13.101
35829W        W 8089  18.824   6.353  14.921
35830W        W 8090  22.807  25.565  11.884
35831W        W 8091  10.831  30.488   2.179
35832W        W 8092  17.856  23.967  11.382
35833W        W 8093  38.969  42.271  12.816
35834W        W 8094  41.294  22.716   0.509
35835W        W 8095  29.928   0.636   2.840
35836W        W 8096  31.502  16.685   0.744
35837W        W 8097  29.083  33.506   0.298
35838W        W 8098  40.927  14.590   4.515
35839W        W 8099  15.649   3.817  13.873
35840W        W 8100  12.682   3.440  14.355
35841W        W 8101  23.504  44.367   2.096
35842W        W 8102   4.633  34.290  11.083
35843W        W 8103  23.049  30.625  13.874
35844W        W 8104  27.413   4.829  14.415
35845W        W 8105  30.776   6.530  12.476
35846W        W 8106  17.782  44.938  11.230
35847W        W 8107  25.289  27.115   1.757
35848W        W 8108   6.010   1.883  14.515
35849W        W 8109  41.582  15.448   4.949
35850W        W 8110  10.322  37.020   0.750
35851W        W 8111  32.476  28.927   2.712
35852W        W 8112  23.998  31.826   2.793
35853W        W 8113  44.423  42.495  14.097
35854W        W 8114   1.587   4.361   4.049
35855W        W 8115  18.068   1.545   1.953
35856W        W 8116  36.907   9.281  12.373
35857W        W 8117  37.433  35.079   1.883
35858W        W 8118  27.561  43.896  12.025
35859W        W 8119  37.562  14.974  13.398
35860W        W 8120  14.610  21.913  12.448
35861W        W 8121  16.793  15.302   5.684
35862W        W 8122  33.027   3.238   1.446
35863W        W 8123   6.404  41.744   3.365
35864W        W 8124  31.109  29.437   2.216
35865W        W 8125   3.853  24.570  10.711
35866W        W 8126  16.754  36.819  10.823
35867W        W 8127  17.428  43.034   2.626
35868W        W 8128  33.630  44.466   1.853
35869W        W 8129  34.455  13.131  11.172
35870W        W 8130  22.842  35.685  13.900
35871W        W 8131  22.174  11.911   2.753
35872W        W 8132  22.419  41.310  13.981
35873W        W 8133   9.222  12.137   3.676
35874W        W 8134   4.376  30.397   4.220
35875W        W 8135   4.965  24.432  12.946
35876W        W 8136   3.972  39.825   4.006
35877W        W 8137   7.262  31.737   4.590
35878W        W 8138  43.928   6.280   1.966
35879W        W 8139   9.175  11.255   1.697
35880W        W 8140  28.676  34.396  12.558
35881W        W 8141  13.533   4.518   3.168
35882W        W 8142  13.393  15.541   3.856
35883W        W 8143  20.407  27.447  13.392
35884W        W 8144   1.758  36.888  14.395
35885W        W 8145   5.256  31.627  13.956
35886W        W 8146  14.239   6.254  12.956
35887W        W 8147  28.096  28.863   3.296
35888W        W 8148  36.983  38.782   1.629
35889W        W 8149   9.690   8.163  12.566
35890W        W 8150  31.399   8.181  14.478
35891W        W 8151  20.097   8.879  11.505
35892W        W 8152  23.170   3.785  12.098
35893W        W 8153  11.784   2.438   1.020
35894W        W 8154  24.453  16.547   0.759
35895W        W 8155  10.903  15.970   1.853
35896W        W 8156  17.565  20.988   4.115
35897W        W 8157   1.207  29.427  14.863
35898W        W 8158  24.066   8.904  13.091
35899W        W 8159  26.059  13.679   3.290
35900W        W 8160  28.422   7.887  11.011
35901W        W 8161  14.294  31.452  11.335
35902W        W 8162  39.423  24.741   4.983
35903W        W 8163  40.287  36.121   3.705
35904W        W 8164   8.227  24.988   1.778
35905W        W 8165  27.219   9.420  11.047
35906W        W 8166  34.491  15.289   1.756
35907W        W 8167   7.403  14.574  14.338
35908W        W 8168  32.976  23.640   3.910
35909W        W 8169  39.456  26.488   3.380
35910W        W 8170  31.326   4.455  10.944
35911W        W 8171  10.799  32.494   1.989
35912W        W 8172  42.738  10.262  12.169
35913W        W 8173  44.518  35.320  14.200
35914W        W 8174   7.370  18.171   1.222
35915W        W 8175  17.511  32.746   3.595
35916W        W 8176  32.691  21.449  13.035
35917W        W 8177  30.930  35.438   3.721
35918W        W 8178  33.622  15.085   0.894
35919W        W 8179  14.341  24.395   5.111
35920W        W 8180  44.019   7.888  12.917
35921W        W 8181  12.806  15.354  12.504
35922W        W 8182  44.850  19.907   2.800
35923W        W 8183  17.293  41.257   1.636
35924W        W 8184  43.348  24.500  12.118
35925W        W 8185   3.330  19.344  11.984
35926W        W 8186  34.892  21.735   5.529
35927W        W 8187   4.839  11.169   4.323
35928W        W 8188  35.522   0.358   2.676
35929W        W 8189  29.723   1.373   1.471
35930W        W 8190  25.402  16.069  12.499
35931W        W 8191   7.826  38.193  10.554
35932W        W 8192  25.114  26.524   0.113
35933W        W 8193  43.028  42.977  11.243
35934W        W 8194  28.475  35.954  13.521
35935W        W 8195  43.428  15.577   2.179
35936W        W 8196   3.553  24.925   1.744
35937W        W 8197  17.863  19.483   3.136
35938W        W 8198  12.474  10.951  10.968
35939W        W 8199  36.060   4.494   0.382
35940W        W 8200  42.598  35.941  13.040
35941W        W 8201  26.440  22.775   3.737
35942W        W 8202  37.353  31.406  11.249
35943W        W 8203  27.703  32.570   2.673
35944W        W 8204   0.888  25.110   5.187
35945W        W 8205  33.980   8.274  14.513
35946W        W 8206  36.521  41.378  11.707
35947W        W 8207  27.738  14.415   2.749
35948W        W 8208  28.609  39.976   3.594
35949W        W 8209  33.052  28.637   3.491
35950W        W 8210  38.144  34.380  10.673
35951W        W 8211  19.470  37.027  10.539
35952W        W 8212  32.239  13.405   3.718
35953W        W 8213   5.648  14.700   3.173
35954W        W 8214  30.626  22.508  11.141
35955W        W 8215  17.517   3.094  10.092
35956W        W 8216   2.306  38.458  10.663
35957W        W 8217   3.166  16.620  10.679
35958W        W 8218  36.947   0.917   3.630
35959W        W 8219  32.268  10.888  13.536
35960W        W 8220   9.503   2.252  14.808
35961W        W 8221  35.286  26.039  13.975
35962W        W 8222  35.096  40.945   0.033
35963W        W 8223  35.838   6.932   1.746
35964W        W 8224  37.929  22.786   4.921
35965W        W 8225  12.227  41.833  11.546
35966W        W 8226  28.058   9.883   4.272
35967W        W 8227  15.927  18.711  14.316
35968W        W 8228  18.893  10.164   2.211
35969W        W 8229  19.328  28.375   1.247
35970W        W 8230  26.474  19.290   1.742
35971W        W 8231   2.932  18.751  12.548
35972W        W 8232   4.477  23.093  13.345
35973W        W 8233  38.959  15.868   2.652
35974W        W 8234  24.154   4.502   1.779
35975W        W 8235  41.442   3.901  13.652
35976W        W 8236  20.262  44.965   4.666
35977W        W 8237  44.995   2.544  14.002
35978W        W 8238  35.986  31.205   0.341
35979W        W 8239  21.737   8.975  14.903
35980W        W 8240  39.509  13.677   2.195
35981W        W 8241   3.379   5.886  12.937
35982W        W 8242  27.448  11.891   1.132
35983W        W 8243   0.079  31.871  14.926
35984W        W 8244  34.615  24.991   5.037
35985W        W 8245  36.006  16.492  10.785
35986W        W 8246  22.398  42.816   4.732
35987W        W 8247   0.800  27.866  14.343
35988W        W 8248   5.479  36.022  13.462
35989W        W 8249  41.627  17.526   4.592
35990W        W 8250   9.969   3.284  10.511
35991W        W 8251  36.093   5.811  13.652
35992W        W 8252  40.317  30.231  10.402
35993W        W 8253  31.010   2.322   3.235
35994W        W 8254  36.284  27.150  14.289
35995W        W 8255  39.416  43.910  11.672
35996W        W 8256  14.032  25.887   1.891
35997W        W 8257   0.802  12.614   0.312
35998W        W 8258  35.684  36.937   3.367
35999W        W 8259  34.152   9.780  11.628
36000W        W 8260  35.713   8.053   2.723
36001W        W 8261  31.478  31.576   1.408
36002W        W 8262  14.570  20.785   4.146
36003W        W 8263  39.824   0.842  13.019
36004W        W 8264  21.600  14.664   5.084
36005W        W 8265  21.620  18.852  10.231
36006W        W 8266   5.193  27.608  13.664
36007W        W 8267  42.507  38.348  12.330
36008W        W 8268  36.386  33.628  11.930
36009W        W 8269   9.867   9.313   1.687
36010W        W 8270  27.909  26.450   1.764
36011W        W 8271  40.985  34.576  11.027
36012W        W 8272  38.048  40.025  10.648
36013W        W 8273  23.268  12.809  12.103
36014W        W 8274  15.808   4.090  14.419
36015W        W 8275  43.851  38.790   4.725
36016W        W 8276   8.340  24.114   0.381
36017W        W 8277   9.823  13.638   4.567
36018W        W 8278  40.313   9.885   3.325
36019W        W 8279   8.773  32.860  13.629
36020W        W 8280  41.375  41.661  12.006
36021W        W 8281  28.723  12.155  12.879
36022W        W 8282  11.252   1.875   0.885
36023W        W 8283  29.947  35.548   3.330
36024W        W 8284   3.358  36.640   3.136
36025W        W 8285  16.227  11.117   2.432
36026W        W 8286  10.296   7.666   4.509
36027W        W 8287  13.781  24.781   0.950
36028W        W 8288  22.163   4.548  12.257
36029W        W 8289  17.850  16.866  11.151
36030W        W 8290  21.300  19.143   3.221
36031W        W 8291  39.495   3.194  13.865
36032W        W 8292  44.456   7.232  14.430
36033W        W 8293  30.662  34.515   4.114
36034W        W 8294  28.482  39.940   4.129
36035W        W 8295   5.936  22.470   4.752
36036W        W 8296  39.691   7.996  11.034
36037W        W 8297   0.047  16.209   3.807
36038W        W 8298  43.256  12.837   0.300
36039W        W 8299  13.105   6.541   3.889
36040W        W 8300  29.079   5.659   2.451
36041W        W 8301   1.677  28.174  12.069
36042W        W 8302  28.704   1.456   1.446
36043W        W 8303   2.109  12.156   3.148
36044W        W 8304  35.642  40.604   0.305
36045W        W 8305  38.647  16.211   4.909
36046W        W 8306  16.041  23.733   1.794
36047W        W 8307   9.557  12.670   0.584
36048W        W 8308  28.916  20.000  14.985
36049W        W 8309   2.169   8.845   4.947
36050W        W 8310  27.963  27.510  12.083
36051W        W 8311  36.914  13.771  12.843
36052W        W 8312  32.428  11.546   9.569
36053W        W 8313   3.172  34.998   3.671
36054W        W 8314  19.374   9.799   0.708
36055W        W 8315  41.328  42.009  11.576
36056W        W 8316  38.298  15.100  12.141
36057W        W 8317   3.316  11.655  12.190
36058W        W 8318   1.300  14.640   0.502
36059W        W 8319  18.275  26.878  12.509
36060W        W 8320  31.557  12.624  12.874
36061W        W 8321   8.355  17.437  11.359
36062W        W 8322   9.841  19.536   0.681
36063W        W 8323  30.379  35.573   3.066
36064W        W 8324  41.326  44.777  12.524
36065W        W 8325  21.216  42.460   0.306
36066W        W 8326  13.357  20.556   1.140
36067W        W 8327  21.204  28.657  12.907
36068W        W 8328  16.181  13.628   3.287
36069W        W 8329  31.552  20.239  13.824
36070W        W 8330  29.085  16.579   3.550
36071W        W 8331  11.225  20.621   2.741
36072W        W 8332   7.680  38.304   3.169
36073W        W 8333   9.772  34.662   1.772
36074W        W 8334   1.333  38.638  12.037
36075W        W 8335  26.501   7.830   2.263
36076W        W 8336  14.180  17.279  12.806
36077W        W 8337   2.396  12.948   2.783
36078W        W 8338  43.069   8.442   0.824
36079W        W 8339  10.175  29.012  14.823
36080W        W 8340  15.671  43.469   0.360
36081W        W 8341   2.413  33.859   1.886
36082W        W 8342  43.236  18.291  11.169
36083W        W 8343   6.448   5.393   4.383
36084W        W 8344   9.218  21.074   9.845
36085W        W 8345  23.726  36.528  10.622
36086W        W 8346  18.145  43.901   1.716
36087W        W 8347  14.827   4.675  10.556
36088W        W 8348  42.015   4.824   1.202
36089W        W 8349   1.267  17.667   2.309
36090W        W 8350  30.714   9.825  10.747
36091W        W 8351   5.348  34.615  12.182
36092W        W 8352  15.632  34.957   3.931
36093W        W 8353  11.688  21.580  12.334
36094W        W 8354  34.081  35.815   0.865
36095W        W 8355  20.203  30.562  13.940
36096W        W 8356  34.591  34.463   3.166
36097W        W 8357  24.200  10.772   1.029
36098W        W 8358  17.103  29.096  12.398
36099W        W 8359  35.968  16.801   1.483
36100W        W 8360   4.493   7.674  12.460
36101W        W 8361  22.566   0.246  12.473
36102W        W 8362  27.594  38.824   1.687
36103W        W 8363  22.645  29.018   4.115
36104W        W 8364  30.278   3.594  10.577
36105W        W 8365  22.624   4.804  12.294
36106W        W 8366   8.552  22.217  12.904
36107W        W 8367   1.972  35.425  13.458
36108W        W 8368  32.557   1.943   3.758
36109W        W 8369  24.403  13.164   3.062
36110W        W 8370  15.732  23.845   2.588
36111W        W 8371   4.228  39.220  13.980
36112W        W 8372  40.347  11.206  12.034
36113W        W 8373   0.963  17.674  14.792
36114W        W 8374  42.286  25.063  11.457
36115W        W 8375  31.032  36.463   1.909
36116W        W 8376  32.910  18.679  10.633
36117W        W 8377   5.551   0.334   3.160
36118W        W 8378  19.185   6.766  13.038
36119W        W 8379   7.352  30.546  11.152
36120W        W 8380  24.381   1.198  14.530
36121W        W 8381  42.633   6.288   4.124
36122W        W 8382  16.886  34.708   5.108
36123W        W 8383   0.034   6.570   2.628
36124W        W 8384   5.705  23.036  10.963
36125W        W 8385  31.737   2.399   4.646
36126W        W 8386  44.874  31.533   2.163
36127W        W 8387  11.374  40.427  12.041
36128W        W 8388  20.190   2.390  12.350
36129W        W 8389   1.927   7.936  11.748
36130W        W 8390   0.289  29.575  14.501
36131W        W 8391  16.814  18.569  11.219
36132W        W 8392  36.601   6.789   2.163
36133W        W 8393  33.072   1.007   2.245
36134W        W 8394   5.733   3.057   4.554
36135W        W 8395  35.576  23.394  13.659
36136W        W 8396  40.051  20.213  14.942
36137W        W 8397  37.002   4.532   4.829
36138W        W 8398  36.527  38.783  14.882
36139W        W 8399  12.711  21.034   3.339
36140W        W 8400  25.610  31.331   4.613
36141W        W 8401  34.439   7.174  12.218
36142W        W 8402  28.265  14.494   3.373
36143W        W 8403  14.838   7.163   3.420
36144W        W 8404   1.521  43.310  12.485
36145W        W 8405  23.108  41.531   0.685
36146W        W 8406  12.325  21.298  13.426
36147W        W 8407  42.324   5.191  14.797
36148W        W 8408  40.528  37.844  13.960
36149W        W 8409  14.407  14.654   4.997
36150W        W 8410  29.163  22.055   4.191
36151W        W 8411  31.121  16.655   1.351
36152W        W 8412  24.908  42.173  12.596
36153W        W 8413   1.260  26.952   1.784
36154W        W 8414  18.152  43.801   2.809
36155W        W 8415   6.000  33.168   0.378
36156W        W 8416   6.462  44.761  12.670
36157W        W 8417  13.116   1.780  12.362
36158W        W 8418   0.878  33.499   1.484
36159W        W 8419  40.485   3.967   4.127
36160W        W 8420  28.954   2.789   1.355
36161W        W 8421   0.164   2.984  14.234
36162W        W 8422  19.761   9.458  14.554
36163W        W 8423   4.832   7.698   3.837
36164W        W 8424  21.705  27.261  13.577
36165W        W 8425  13.291  11.668  14.780
36166W        W 8426  10.301  39.003   3.210
36167W        W 8427  15.016  41.942   0.247
36168W        W 8428   5.313  34.070  13.935
36169W        W 8429  43.507  32.085  12.070
36170W        W 8430  12.308   8.712  11.492
36171W        W 8431  21.175  18.343   2.770
36172W        W 8432  34.951  40.412   1.905
36173W        W 8433  23.770  20.469  12.939
36174W        W 8434   0.507  33.516  13.997
36175W        W 8435   9.148  28.584   3.711
36176W        W 8436  25.942  41.406  12.028
36177W        W 8437  28.287  28.012   3.209
36178W        W 8438  28.942  10.823  14.006
36179W        W 8439  17.121   3.308   3.115
36180W        W 8440  35.983  37.143  14.547
36181W        W 8441   3.442  14.276   1.412
36182W        W 8442  13.685  22.909   1.145
36183W        W 8443  11.902   6.462  12.055
36184W        W 8444  38.728  10.415   4.118
36185W        W 8445  11.630   8.456  10.398
36186W        W 8446  39.494  31.495   1.409
36187W        W 8447  18.263  10.948  10.971
36188W        W 8448  13.804   0.315   1.883
36189W        W 8449  26.514  30.328  13.306
36190W        W 8450  38.578   5.670  11.029
36191W        W 8451   8.110  34.929   3.265
36192W        W 8452  44.839  32.073  14.056
36193W        W 8453   9.776   7.263  10.578
36194W        W 8454  41.603  13.775   3.807
36195W        W 8455  34.196  25.280   3.328
36196W        W 8456   1.345  26.374   2.988
36197W        W 8457   2.389  32.904  12.938
36198W        W 8458  35.649   0.989  13.072
36199W        W 8459   1.308  34.891   2.426
36200W        W 8460  15.162  34.560   0.464
36201W        W 8461   0.553  10.724   1.437
36202W        W 8462  13.285  30.144   5.477
36203W        W 8463   4.697   8.644   3.662
36204W        W 8464  35.940  36.601  10.457
36205W        W 8465  12.677   9.885   3.112
36206W        W 8466  17.701   7.002   4.322
36207W        W 8467  13.291  34.431  13.225
36208W        W 8468  13.522  22.955  13.288
36209W        W 8469  34.550   3.121   1.788
36210W        W 8470   5.292  26.901   1.213
36211W        W 8471   0.924   5.566   4.806
36212W        W 8472  38.485  38.600   3.827
36213W        W 8473   4.612   6.804   2.367
36214W        W 8474   8.238  22.795  13.408
36215W        W 8475  25.944  20.640  14.210
36216W        W 8476  32.990  23.123  14.463
36217W        W 8477  36.486  26.014  10.827
36218W        W 8478  29.467  30.490  11.548
36219W        W 8479  26.090  35.368   3.699
36220W        W 8480  23.622   7.209  13.874
36221W        W 8481  16.701  26.736  11.922
36222W        W 8482  37.915   8.213  14.487
36223W        W 8483  15.275   5.216  11.648
36224W        W 8484  36.944  19.415   0.666
36225W        W 8485  41.757   4.436  14.282
36226W        W 8486   6.741  35.869   1.203
36227W        W 8487  35.913  41.434   0.287
36228W        W 8488  16.298  29.856   2.276
36229W        W 8489  30.460  42.363  12.494
36230W        W 8490  43.443  23.614   1.682
36231W        W 8491  22.743  25.613  14.957
36232W        W 8492  33.987  35.630  14.597
36233W        W 8493  11.122  24.441   2.836
36234W        W 8494  23.907  18.158   3.272
36235W        W 8495  13.981  38.325   2.162
36236W        W 8496   0.236  37.846   2.735
36237W        W 8497  14.358  20.116  12.953
36238W        W 8498  39.047   2.822   2.404
36239W        W 8499  20.692  28.679   3.443
36240W        W 8500  38.329  43.704  14.277
36241W        W 8501  13.659   3.911   4.825
36242W        W 8502  25.424   1.456   0.032
36243W        W 8503  18.307  20.074  14.345
36244W        W 8504  14.840   6.583  12.658
36245W        W 8505  34.699  33.996   4.120
36246W        W 8506  13.300  18.507  11.127
36247W        W 8507  11.020  44.518  14.078
36248W        W 8508  24.070  26.555  14.337
36249W        W 8509   0.260  43.076  14.424
36250W        W 8510  40.710  33.867  13.918
36251W        W 8511  16.060  18.118   0.949
36252W        W 8512  15.596  37.965  14.458
36253W        W 8513  41.338  33.143   1.769
36254W        W 8514  13.151  26.191   2.729
36255W        W 8515  22.184  29.186   2.351
36256W        W 8516   5.313  44.901   3.329
36257W        W 8517   0.577  10.614  11.516
36258W        W 8518  43.262  34.499  11.377
36259W        W 8519  40.904  18.084  14.867
36260W        W 8520   8.759   1.964   0.942
36261W        W 8521  31.303  14.665   3.868
36262W        W 8522  11.923  10.560   2.914
36263W        W 8523   6.363   5.381   0.324
36264W        W 8524  43.527   3.046  14.709
36265W        W 8525  31.393  40.422   2.240
36266W        W 8526  24.790   4.717  14.000
36267W        W 8527  36.049   3.456   4.390
36268W        W 8528  10.450   6.960   5.129
36269W        W 8529  15.223  10.623  14.980
36270W        W 8530  28.646  37.789  10.631
36271W        W 8531  32.377   9.187   2.750
36272W        W 8532  18.999  34.344  11.585
36273W        W 8533   1.459   5.904   2.159
36274W        W 8534  15.998  25.394   2.633
36275W        W 8535   7.599  21.712   1.454
36276W        W 8536  15.659  29.521   1.577
36277W        W 8537  34.874  34.619   4.200
36278W        W 8538  34.697  34.916  12.412
36279W        W 8539  20.001  33.367   1.736
36280W        W 8540  24.524  22.208   0.782
36281W        W 8541  20.255  10.830  13.099
36282W        W 8542  24.052  21.455   1.610
36283W        W 8543  12.578  14.613   2.770
36284W        W 8544   6.883  10.686   2.972
36285W        W 8545  29.488  32.635   0.827
36286W        W 8546  35.797  37.009   2.421
36287W        W 8547   9.309  20.591  13.104
36288W        W 8548  25.264  39.557  12.088
36289W        W 8549  38.104  23.986   3.767
36290W        W 8550  21.259  32.471   4.205
36291W        W 8551  32.005  25.777  10.701
36292W        W 8552  16.866   2.788   0.770
36293W        W 8553  18.610   8.761   1.721
36294W        W 8554  30.627  20.255   3.249
36295W        W 8555  18.764   2.387  13.944
36296W        W 8556  32.981   9.390  12.628
36297W        W 8557   2.447  27.822  12.145
36298W        W 8558  13.452  13.609   4.693
36299W        W 8559  31.536  31.014   2.826
36300W        W 8560  15.083  17.743   1.804
36301W        W 8561   1.847  13.346   0.188
36302W        W 8562  42.842  14.838   3.819
36303W        W 8563  23.937  40.075   1.296
36304W        W 8564  13.283  33.076   0.780
36305W        W 8565  33.979  26.505  14.447
36306W        W 8566  19.965  37.311  11.161
36307W        W 8567  15.526  38.402   4.861
36308W        W 8568   5.369  12.634   2.785
36309W        W 8569  36.869  16.595   3.179
36310W        W 8570  29.077  13.337  10.753
36311W        W 8571  14.736  34.579   4.200
36312W        W 8572  44.358  17.694  14.296
36313W        W 8573  17.368   6.158   3.351
36314W        W 8574  19.448  30.133   2.384
36315W        W 8575  30.946  14.151  14.449
36316W        W 8576  18.079   1.498  10.655
36317W        W 8577   4.355  31.967   1.919
36318W        W 8578  25.628  14.760  14.077
36319W        W 8579  15.132  29.850  10.598
36320W        W 8580  23.110  34.519   4.591
36321W        W 8581  44.883  38.927  13.531
36322W        W 8582  12.192   8.766  14.288
36323W        W 8583  16.514   3.003  10.980
36324W        W 8584  44.793  20.528   0.262
36325W        W 8585  31.821  18.074   4.649
36326W        W 8586  17.138  14.629   0.574
36327W        W 8587   8.306  23.635  13.676
36328W        W 8588  33.991  26.591  13.050
36329W        W 8589   9.654  30.016   2.272
36330W        W 8590   9.822   5.895  12.949
36331W        W 8591   2.342  18.645   3.811
36332W        W 8592  13.097  13.503  11.493
36333W        W 8593   3.454  33.016   3.064
36334W        W 8594  18.667  10.118  14.826
36335W        W 8595   7.424  23.004   2.165
36336W        W 8596  26.137  35.523   4.652
36337W        W 8597  11.150  25.209  12.892
36338W        W 8598  42.422  34.416   3.807
36339W        W 8599  29.409   5.765   1.455
36340W        W 8600  22.747  11.251  14.004
36341W        W 8601   5.490  25.078  11.046
36342W        W 8602  37.628  42.001  11.614
36343W        W 8603  36.847  37.083  11.332
36344W        W 8604  25.737  19.988   4.345
36345W        W 8605   9.210  42.917  14.025
36346W        W 8606  41.427   3.431   3.202
36347W        W 8607  41.648  25.076  10.664
36348W        W 8608  38.173  19.199  14.422
36349W        W 8609   9.390  24.481   0.833
36350W        W 8610  37.587  17.266  14.262
36351W        W 8611  35.478  28.278   0.442
36352W        W 8612   9.664  23.968   3.252
36353W        W 8613   9.286   6.572   3.389
36354W        W 8614  26.471   7.218  14.261
36355W        W 8615  13.680  42.780  11.930
36356W        W 8616  38.604   0.780   0.403
36357W        W 8617   7.241  15.020   0.529
36358W        W 8618   8.824   0.295   3.870
36359W        W 8619  42.471  35.168   0.786
36360W        W 8620   7.933  32.634  11.544
36361W        W 8621   0.169  31.349  14.958
36362W        W 8622   1.653  19.875  11.966
36363W        W 8623  38.354  25.147   0.966
36364W        W 8624  20.270  34.942   2.934
36365W        W 8625  20.679  38.086  13.281
36366W        W 8626  42.968  19.753   0.466
36367W        W 8627  28.406  30.012  10.228
36368W        W 8628  38.855  40.361   4.934
36369W        W 8629  26.828   8.401   4.809
36370W        W 8630  11.412  43.458  12.128
36371W        W 8631  36.417  10.272   3.707
36372W        W 8632  12.364   5.353  11.051
36373W        W 8633  27.111  28.175  10.039
36374W        W 8634  34.364  26.634  10.125
36375W        W 8635  39.501   2.179  11.660
36376W        W 8636  29.380   0.446  13.088
36377W        W 8637  40.933  39.414   1.532
36378W        W 8638  16.156  22.158   1.519
36379W        W 8639  44.042   1.905  12.051
36380W        W 8640  15.619   7.116   1.979
36381W        W 8641  43.283  27.675  12.125
36382W        W 8642  30.529  15.831  12.218
36383W        W 8643  35.261  27.811   4.752
36384W        W 8644  14.301   7.114  12.353
36385W        W 8645  43.666  19.225   4.260
36386W        W 8646   6.847  31.301  13.335
36387W        W 8647  27.634  38.407  10.757
36388W        W 8648  26.867   1.252   3.214
36389W        W 8649  33.417  13.674   0.005
36390W        W 8650  36.171   4.341  12.100
36391W        W 8651  18.812  25.522   4.515
36392W        W 8652  13.274  20.631   4.826
36393W        W 8653  43.069  15.725  13.547
36394W        W 8654  26.510  17.560   2.302
36395W        W 8655   6.520  23.724  13.958
36396W        W 8656  35.993  34.932   2.358
36397W        W 8657  39.278  10.673   3.256
36398W        W 8658  38.332   6.745  12.651
36399W        W 8659  29.700   2.674   0.839
36400W        W 8660  33.659   4.564   0.077
36401W        W 8661  34.096  36.145  12.445
36402W        W 8662  28.973  43.316   4.800
36403W        W 8663  24.452   2.048   5.084
36404W        W 8664  41.623  16.039  11.149
36405W        W 8665  31.154  29.410   4.621
36406W        W 8666  25.208   6.877  13.104
36407W        W 8667  41.182  11.169   3.210
36408W        W 8668   1.707   3.438  13.446
36409W        W 8669  22.562  24.016  10.891
36410W        W 8670  18.687  15.046   2.597
36411W        W 8671  41.508  36.042  12.488
36412W        W 8672  13.208  33.262  12.953
36413W        W 8673  25.281  33.979  12.404
36414W        W 8674  44.489  21.595  13.831
36415W        W 8675   7.256  31.549   4.103
36416W        W 8676  31.758  14.427  10.017
36417W        W 8677  39.055  20.465  13.403
36418W        W 8678  43.802  43.047  12.075
36419W        W 8679  14.859  34.987   0.480
36420W        W 8680  25.230  20.045  13.143
36421W        W 8681  11.915  29.407   2.308
36422W        W 8682  28.611  38.427  12.909
36423W        W 8683   2.251  31.928  13.957
36424W        W 8684   0.227  27.483   4.129
36425W        W 8685   2.672  24.103  14.616
36426W        W 8686  25.582  43.423  11.446
36427W        W 8687   3.842  13.597   2.567
36428W        W 8688  41.868  33.749   0.382
36429W        W 8689  23.054  42.406  12.068
36430W        W 8690  42.457  28.701   1.684
36431W        W 8691   5.230  28.928  14.899
36432W        W 8692  35.495  12.685   4.349
36433W        W 8693  17.911  22.924  14.523
36434W        W 8694  29.220  37.055   3.147
36435W        W 8695   3.948  30.212  14.838
36436W        W 8696   2.524  33.532   2.883
36437W        W 8697  39.512  12.313  11.131
36438W        W 8698  20.020  36.858  12.634
36439W        W 8699   3.487  34.085  13.415
36440W        W 8700  20.546   6.879  12.261
36441W        W 8701  33.247  26.019  12.207
36442W        W 8702   9.919  39.390  11.268
36443W        W 8703   1.577   8.625   2.689
36444W        W 8704  12.075  39.523   1.002
36445W        W 8705  25.522  13.625   4.233
36446W        W 8706   3.721  42.669  11.252
36447W        W 8707  28.643  32.562   0.490
36448W        W 8708  42.587   1.864  11.008
36449W        W 8709  22.675   8.698  14.953
36450W        W 8710  15.149  17.923   5.239
36451W        W 8711  10.226   4.545   4.618
36452W        W 8712  14.863   0.413   2.227
36453W        W 8713  34.535   2.411  13.303
36454W        W 8714  17.149  32.773   0.723
36455W        W 8715   0.487  30.912   3.334
36456W        W 8716  10.760  24.624   4.368
36457W        W 8717  27.338   5.049  11.105
36458W        W 8718  23.429  11.378  13.623
36459W        W 8719  35.997  29.505  14.538
36460W        W 8720   7.746  35.361   4.863
36461W        W 8721  39.321  41.749   3.827
36462W        W 8722  43.745  30.962   3.303
36463W        W 8723  27.519  19.679   3.187
36464W        W 8724  44.467   7.143  10.690
36465W        W 8725   6.875   7.447  14.962
36466W        W 8726  23.571  40.491   4.265
36467W        W 8727  25.197   2.297  12.106
36468W        W 8728  19.782  29.436   3.300
36469W        W 8729  44.198  10.467  12.534
36470W        W 8730  36.448  20.671  13.864
36471W        W 8731  33.984  13.191   3.441
36472W        W 8732  21.157   1.923   3.353
36473W        W 8733  34.786  43.277  14.370
36474W        W 8734  15.589  38.100  11.567
36475W        W 8735   5.016  31.867  14.348
36476W        W 8736  32.435  17.976   3.301
36477W        W 8737  44.264  31.069  14.408
36478W        W 8738  11.749  33.265  10.035
36479W        W 8739  41.574  17.137   4.257
36480W        W 8740  10.418  40.785   0.365
36481W        W 8741  42.905  18.092  14.707
36482W        W 8742  44.208  36.814   0.960
36483W        W 8743  34.555  42.360   4.346
36484W        W 8744   3.489  24.417   1.700
36485W        W 8745  26.128  36.475  10.915
36486W        W 8746  10.164  24.664   0.351
36487W        W 8747   3.775   0.380   3.711
36488W        W 8748   4.712   2.263  12.401
36489W        W 8749  31.304  43.074  11.276
36490W        W 8750  42.489  40.462  11.642
36491W        W 8751  41.749   4.772   2.715
36492W        W 8752  18.537  35.167  14.393
36493W        W 8753  22.990  36.071   0.458
36494W        W 8754  43.325  44.992   3.999
36495W        W 8755  39.966  31.749   1.329
36496W        W 8756  38.488  34.150  11.300
36497W        W 8757   7.229  13.440  12.510
36498W        W 8758  37.494  18.898  12.813
36499W        W 8759  37.577  31.537  13.895
36500W        W 8760  40.028  38.849  11.918
36501W        W 8761  29.563  39.067   4.639
36502W        W 8762  38.642  19.120  13.613
36503W        W 8763  20.144  36.677   4.998
36504W        W 8764   3.105  29.712   4.242
36505W        W 8765  40.232  43.316  10.738
36506W        W 8766  30.032  22.344  12.393
36507W        W 8767  18.727  38.016   1.657
36508W        W 8768  42.318  10.362   4.254
36509W        W 8769  19.366  16.691  11.824
36510W        W 8770  14.403  36.489  12.594
36511W        W 8771  34.453  29.179  12.174
36512W        W 8772  31.090  34.386   1.329
36513W        W 8773   5.923  44.371   2.758
36514W        W 8774  39.970  42.919  10.955
36515W        W 8775   7.700  30.669  13.323
36516W        W 8776   3.904   4.254   2.422
36517W        W 8777  40.810  28.151   2.138
36518W        W 8778  30.533   3.830   1.874
36519W        W 8779   4.883  11.532   1.850
36520W        W 8780  10.462  21.008   3.272
36521W        W 8781  37.125  21.526   3.328
36522W        W 8782  12.095  33.593  13.541
36523W        W 8783  39.282  17.136  13.921
36524W        W 8784  41.765  10.271  12.054
36525W        W 8785  19.003  37.307  14.309
36526W        W 8786   4.264  39.578   4.412
36527W        W 8787  35.770   3.197   1.335
36528W        W 8788   5.379   1.754  12.975
36529W        W 8789  26.754  30.182   4.302
36530W        W 8790   1.316  28.666   0.383
36531W        W 8791  34.579  19.683  11.593
36532W        W 8792  28.097  18.625   2.239
36533W        W 8793  42.313  38.881   1.036
36534W        W 8794  24.282  44.837  10.474
36535W        W 8795  25.716  15.931   0.582
36536W        W 8796  42.020   5.103  11.127
36537W        W 8797  23.334  16.153   4.947
36538W        W 8798   7.417  29.267  12.508
36539W        W 8799  44.822  41.773  14.471
36540W        W 8800  28.711   6.737   0.245
36541W        W 8801   0.144   7.306  12.622
36542W        W 8802  34.620  31.511   3.218
36543W        W 8803  14.601   3.151   4.164
36544W        W 8804  23.022  21.674  11.075
36545W        W 8805  11.802   9.556  11.581
36546W        W 8806  21.444   9.924  14.906
36547W        W 8807   3.486  14.317   4.207
36548W        W 8808  42.522   9.986  13.656
36549W        W 8809   1.468  36.474  14.857
36550W        W 8810   4.809  20.225  14.374
36551W        W 8811  13.644  43.662  10.753
36552W        W 8812  33.906   3.978  13.084
36553W        W 8813  38.529  30.084  13.328
36554W        W 8814  16.978  41.997  10.675
36555W        W 8815  36.446  13.251   1.938
36556W        W 8816   8.836  36.359  13.609
36557W        W 8817  25.023  38.720  12.023
36558W        W 8818  22.219   9.210  14.944
36559W        W 8819  43.806  12.601  11.675
36560W        W 8820   1.243   2.498  10.767
36561W        W 8821   1.990  39.618   3.764
36562W        W 8822  23.987  20.708   2.889
36563W        W 8823   3.462   2.872   0.884
36564W        W 8824  25.783   1.426  13.548
36565W        W 8825   0.916   9.312   4.467
36566W        W 8826  40.877  26.239   1.322
36567W        W 8827  36.371  16.552  13.897
36568W        W 8828   6.856  32.409   0.180
36569W        W 8829  14.747  23.535   2.849
36570W        W 8830  26.965  14.266  13.826
36571W        W 8831  20.427  31.436  13.660
36572W        W 8832  15.172  28.685  11.600
36573W        W 8833   3.379  35.385   2.378
36574W        W 8834  41.355  13.123   4.601
36575W        W 8835  29.429   5.724  14.977
36576W        W 8836  33.757   6.282   2.314
36577W        W 8837  36.630  40.349   2.921
36578W        W 8838  41.102  24.947   2.609
36579W        W 8839   7.820  27.252  14.094
36580W        W 8840  13.610  31.160   3.225
36581W        W 8841  28.097  15.857  12.989
36582W        W 8842   7.805  27.794  11.062
36583W        W 8843  33.094   7.044   1.590
36584W        W 8844  27.890   1.220  13.066
36585W        W 8845   0.013  44.026  13.494
36586W        W 8846  42.770   4.421   0.625
36587W        W 8847   2.794  20.919   3.961
36588W        W 8848  21.193  35.803  11.100
36589W        W 8849  18.565  39.019   0.276
36590W        W 8850  30.562   7.289  12.191
36591W        W 8851  38.028  30.880   3.288
36592W        W 8852   7.103   4.702  12.065
36593W        W 8853  17.519  41.947  13.465
36594W        W 8854  38.937  28.623  14.000
36595W        W 8855  26.549   6.726   3.718
36596W        W 8856   5.331  27.660   5.367
36597W        W 8857  43.518  18.104   3.184
36598W        W 8858  26.368   9.226  10.749
36599W        W 8859  25.082  25.469  11.584
36600W        W 8860  41.909  40.538  11.873
36601W        W 8861  33.383  21.171  14.371
36602W        W 8862  44.547   3.169   0.260
36603W        W 8863  44.751  21.038   2.383
36604W        W 8864   6.250  40.898   3.097
36605W        W 8865  30.847   7.324  10.407
36606W        W 8866   0.263   5.593   1.479
36607W        W 8867   1.369  13.322  11.621
36608W        W 8868  15.313  17.007   2.466
36609W        W 8869  25.434   7.623   0.008
36610W        W 8870  23.127  14.588  12.663
36611W        W 8871  15.445   4.735   1.417
36612W        W 8872   9.398  41.104   3.034
36613W        W 8873  31.511  10.744  10.877
36614W        W 8874  19.315  16.653  14.293
36615W        W 8875  27.586   1.447   1.971
36616W        W 8876  33.389  28.577   1.637
36617W        W 8877   4.430   2.725  12.509
36618W        W 8878  12.274  30.672   2.136
36619W        W 8879  33.885  41.934  11.930
36620W        W 8880  28.012  15.425   0.521
36621W        W 8881  41.869  18.450   0.313
36622W        W 8882  25.675  10.138  12.141
36623W        W 8883  19.292  21.440  10.525
36624W        W 8884   6.828  10.177  11.611
36625W        W 8885  26.353  12.921  12.129
36626W        W 8886   6.384  24.918   2.687
36627W        W 8887   4.636  33.516   3.751
36628W        W 8888  40.375  44.379  13.360
36629W        W 8889   3.618  18.704  14.305
36630W        W 8890   9.146   7.607   1.821
36631W        W 8891   1.932  43.777   1.441
36632W        W 8892  15.321  33.353  14.886
36633W        W 8893  37.560  37.204  12.529
36634W        W 8894  17.056  20.532  11.926
36635W        W 8895  23.542  27.474   5.056
36636W        W 8896  14.213  23.305  10.515
36637W        W 8897  18.073  13.625  10.940
36638W        W 8898  38.939   0.116  10.479
36639W        W 8899  16.360   7.457  12.475
36640W        W 8900   8.927  31.981   3.492
36641W        W 8901  22.710  24.427   2.673
36642W        W 8902  11.706  44.370   0.137
36643W        W 8903  23.321   6.844  12.936
36644W        W 8904  26.294  37.240  14.323
36645W        W 8905  13.588   9.574  10.946
36646W        W 8906  33.491   5.325   4.078
36647W        W 8907   7.873  28.788  11.163
36648W        W 8908   9.918  35.163   1.719
36649W        W 8909  41.919  40.498  10.885
36650W        W 8910   9.675  42.317  10.638
36651W        W 8911  14.333   6.681   4.175
36652W        W 8912  44.107  35.754   2.366
36653W        W 8913  39.387  32.887   2.600
36654W        W 8914  31.111  18.395   0.795
36655W        W 8915  32.423  10.126  11.226
36656W        W 8916  43.062  44.545   0.962
36657W        W 8917  31.671  43.841  12.477
36658W        W 8918   5.520  10.790  11.608
36659W        W 8919  38.331  15.301   2.382
36660W        W 8920  27.110  14.787  11.129
36661W        W 8921  31.587   7.769  12.929
36662W        W 8922  41.326  43.289   3.755
36663W        W 8923   1.443   8.100  14.330
36664W        W 8924   0.428  20.036   1.473
36665W        W 8925  42.934  25.633  13.075
36666W        W 8926  16.291  25.786   1.702
36667W        W 8927  13.701   1.413  13.845
36668W        W 8928  20.248  28.068   0.327
36669W        W 8929  16.656  18.629  12.644
36670W        W 8930  41.447  39.500   1.292
36671W        W 8931  14.581  32.069   1.318
36672W        W 8932   0.855  38.012  11.100
36673W        W 8933  34.345  28.559   1.943
36674W        W 8934  44.444  26.249   4.095
36675W        W 8935  22.265  29.680  11.075
36676W        W 8936  28.629   5.254  13.972
36677W        W 8937  38.460   5.638  12.343
36678W        W 8938  42.017  40.931   4.723
36679W        W 8939  30.392  35.412  13.980
36680W        W 8940  37.079  23.770  13.584
36681W        W 8941  17.200  31.843  13.428
36682W        W 8942  38.951  11.425   0.958
36683W        W 8943  14.139   8.952   9.944
36684W        W 8944   6.845  30.573  14.784
36685W        W 8945  44.396   7.629   0.352
36686W        W 8946  16.155  25.738   3.070
36687W        W 8947  32.671  11.517  14.449
36688W        W 8948  30.506  33.870  14.961
36689W        W 8949  34.429  36.426   4.105
36690W        W 8950  28.935   8.697  11.002
36691W        W 8951   5.326  20.219   2.760
36692W        W 8952  18.402  40.875   1.304
36693W        W 8953  14.294  40.003  11.509
36694W        W 8954  15.668  26.778  10.139
36695W        W 8955  19.155  16.042  12.485
36696W        W 8956   6.667  24.677   0.782
36697W        W 8957  20.681   5.476  10.638
36698W        W 8958   3.787  32.821  13.783
36699W        W 8959   5.320  12.104  13.250
36700W        W 8960  34.831  43.985  12.072
36701W        W 8961  37.847  13.514   1.387
36702W        W 8962  15.760  28.144   1.235
36703W        W 8963  27.951  17.591  13.938
36704W        W 8964  27.394  17.915  12.788
36705W        W 8965  17.779  27.499   1.741
36706W        W 8966  22.079  41.977   4.151
36707W        W 8967  38.397  34.612  11.119
36708W        W 8968  15.122  21.956  10.896
36709W        W 8969  43.230   0.403  11.182
36710W        W 8970  40.965  38.813  11.526
36711W        W 8971  36.842  20.259   0.671
36712W        W 8972  37.751  42.494  12.454
36713W        W 8973  13.228  31.653   2.263
36714W        W 8974  34.017  10.716  13.802
36715W        W 8975  19.702  39.394  12.038
36716W        W 8976   5.457  42.276  12.410
36717W        W 8977  39.207  13.507  10.831
36718W        W 8978   7.428   6.425  11.065
36719W        W 8979  19.666  41.265   1.627
36720W        W 8980  32.052  27.634   2.856
36721W        W 8981  38.415   0.129   4.436
36722W        W 8982  38.973  13.762  13.123
36723W        W 8983  20.569  28.191  13.424
36724W        W 8984  39.444  10.617   0.727
36725W        W 8985  36.613  38.509   4.079
36726W        W 8986  35.398   3.697  14.724
36727W        W 8987  23.059  40.566  14.321
36728W        W 8988  17.252  24.701  13.370
36729W        W 8989  43.328  18.608   2.313
36730W        W 8990  22.077  38.810  11.977
36731W        W 8991  28.001  41.589  11.459
36732W        W 8992  38.460  20.779  11.423
36733W        W 8993  17.634  33.717   3.503
36734W        W 8994  29.881  17.223   4.086
36735W        W 8995  43.217  32.928   4.957
36736W        W 8996  35.498  28.679  10.734
36737W        W 8997  33.621  23.230  10.328
36738W        W 8998  14.067   4.209   4.992
36739W        W 8999  29.697  40.544  13.112
36740W        W 9000  40.415  26.442   2.282
36741W        W 9001  17.787   4.411  13.264
36742W        W 9002  21.958  20.666   3.201
36743W        W 9003  40.305  28.754   1.518
36744W        W 9004   2.280   5.114   4.094
36745W        W 9005   5.786  32.473  10.913
36746W        W 9006  29.790  43.823  12.879
36747W        W 9007  44.949  20.040  13.515
36748W        W 9008  34.708  14.298  12.051
36749W        W 9009  30.654   0.285  11.495
36750W        W 9010   9.377  13.304  10.632
36751W        W 9011  19.144  31.921  11.157
36752W        W 9012  31.182   7.753   3.786
36753W        W 9013   4.259  26.391  10.696
36754W        W 9014  12.060  15.259  12.944
36755W        W 9015  14.367   4.984  10.559
36756W        W 9016  44.963  19.148   1.089
36757W        W 9017  25.907   7.927   3.654
36758W        W 9018   5.590   3.069  13.589
36759W        W 9019  13.252   9.350   1.527
36760W        W 9020  44.034  21.551  14.070
36761W        W 9021   2.501  40.356  10.619
36762W        W 9022  24.740  17.159   3.302
36763W        W 9023  10.158  20.071   3.299
36764W        W 9024   3.275  32.206   5.038
36765W        W 9025  41.730  12.232   1.173
36766W        W 9026  40.227  21.824  12.444
36767W        W 9027   4.949   0.781   1.270
36768W        W 9028  13.855  28.693  14.621
36769W        W 9029  13.867  23.702   2.502
36770W        W 9030  33.347  11.864  13.043
36771W        W 9031  14.773  16.046  10.307
36772W        W 9032  30.386   9.029   4.206
36773W        W 9033  36.376  36.177  11.059
36774W        W 9034  13.351  24.610   4.778
36775W        W 9035   1.078  34.897   1.554
36776W        W 9036  24.083  29.645   1.765
36777W        W 9037  25.143  21.709   0.196
36778W        W 9038  26.620  38.723   2.086
36779W        W 9039  15.526  34.885  10.905
36780W        W 9040   6.205  25.246   3.293
36781W        W 9041  21.860  31.889  14.799
36782W        W 9042   9.116  18.735  13.506
36783W        W 9043  20.778   3.874  14.893
36784W        W 9044  42.962  43.224  11.703
36785W        W 9045  25.149  27.436  12.920
36786W        W 9046   2.480  15.751  12.771
36787W        W 9047   1.176  38.488  12.516
36788W        W 9048  34.312   1.258   0.311
36789W        W 9049  34.128  33.945   1.468
36790W        W 9050  27.955  40.561   3.706
36791W        W 9051  41.348  24.258   1.415
36792W        W 9052  32.992  27.699  13.015
36793W        W 9053  33.363  38.811  10.525
36794W        W 9054  18.157   2.071  11.996
36795W        W 9055  19.252   0.784  14.769
36796W        W 9056  11.395  44.467  10.594
36797W        W 9057  41.584  15.517  11.183
36798W        W 9058   2.787  32.527  11.969
36799W        W 9059  12.223  11.405   3.948
36800W        W 9060  14.842   9.231  14.426
36801W        W 9061  40.982  36.935   1.673
36802W        W 9062  13.224  25.663  13.182
36803W        W 9063   3.766  42.488  14.563
36804W        W 9064  10.143   2.398   1.713
36805W        W 9065   7.623   2.326  14.012
36806W        W 9066  15.119  27.010  11.489
36807W        W 9067  42.219  40.419  10.483
36808W        W 9068   0.564  31.746  13.471
36809W        W 9069  25.687  23.160   3.467
36810W        W 9070  29.552  32.923   2.901
36811W        W 9071  16.318  41.828  11.448
36812W        W 9072  33.206  37.882  11.375
36813W        W 9073  36.939   7.403   3.123
36814W        W 9074  30.296  25.452  13.834
36815W        W 9075   8.360  16.145  14.207
36816W        W 9076  15.534   3.508   4.241
36817W        W 9077   7.622  36.754   4.278
36818W        W 9078  25.012  41.656   1.160
36819W        W 9079  24.939  19.385  14.952
36820W        W 9080   0.100   9.077   3.768
36821W        W 9081   5.671  23.766   1.348
36822W        W 9082  40.072  14.205  11.714
36823W        W 9083   4.632  39.828   0.763
36824W        W 9084  31.908   8.022  10.773
36825W        W 9085  11.734  39.071   2.374
36826W        W 9086  21.194  24.793   4.656
36827W        W 9087  25.953  42.154   3.968
36828W        W 9088  14.669  21.599   0.774
36829W        W 9089  41.916  27.173   0.279
36830W        W 9090   8.935  30.225   2.793
36831W        W 9091  39.816   1.795   0.323
36832W        W 9092  10.862  25.419  13.477
36833W        W 9093   4.287   5.418   0.707
36834W        W 9094  44.978  37.071  13.393
36835W        W 9095  30.584  13.254   3.055
36836W        W 9096  11.825  22.267  13.738
36837W        W 9097  32.452  15.071  13.880
36838W        W 9098  28.074  36.896  12.057
36839W        W 9099  42.776  16.564  11.072
36840W        W 9100  40.786   1.524   0.377
36841W        W 9101  10.711   3.199   2.563
36842W        W 9102   5.925  17.838  12.427
36843W        W 9103  27.470  25.638   4.279
36844W        W 9104  34.932  11.854  11.238
36845W        W 9105   2.024   4.319  14.407
36846W        W 9106   4.216  19.075  12.018
36847W        W 9107  42.312  31.573   0.702
36848W        W 9108  17.270  17.244   3.579
36849W        W 9109  31.662  33.477   4.095
36850W        W 9110  42.815  43.567   3.887
36851W        W 9111  11.300   6.154  14.998
36852W        W 9112  40.458   6.172   3.704
36853W        W 9113  37.472  11.282  10.094
36854W        W 9114  44.627   3.357  11.410
36855W        W 9115  40.264  24.552   3.516
36856W        W 9116  43.643   5.420   1.968
36857W        W 9117  41.840   0.983   3.618
36858W        W 9118  11.137  22.570  10.329
36859W        W 9119  13.143  25.807  11.244
36860W        W 9120   5.257  25.307  11.489
36861W        W 9121  28.990  23.698   0.766
36862W        W 9122  31.397  26.712   3.625
36863W        W 9123  32.156  34.346   2.124
36864W        W 9124  30.561  20.270  11.064
36865W        W 9125  35.894   0.237  12.055
36866W        W 9126  27.699  42.892   4.946
36867W        W 9127  21.252  36.870   2.284
36868W        W 9128  31.519  14.855  14.819
36869W        W 9129  43.254   6.209   0.778
36870W        W 9130   7.403  11.268  11.029
36871W        W 9131   0.283  44.574  10.588
36872W        W 9132   0.306  11.614   4.775
36873W        W 9133  41.504  42.885  13.000
36874W        W 9134  37.560  44.932   1.830
36875W        W 9135  34.614  17.398   3.562
36876W        W 9136  11.328  23.422  11.277
36877W        W 9137   2.944  39.802   3.642
36878W        W 9138   3.663  19.781  12.620
36879W        W 9139   5.437  22.563   1.022
36880W        W 9140  43.899  37.328  12.530
36881W        W 9141  23.960  32.498   0.280
36882W        W 9142   3.942   3.983   1.336
36883W        W 9143  36.428  24.461  13.406
36884W        W 9144   0.705  19.473   4.065
36885W        W 9145   8.306  42.948  14.531
36886W        W 9146  36.486  32.537  14.928
36887W        W 9147  26.631   5.845   2.409
36888W        W 9148  10.324  11.911  14.923
36889W        W 9149  37.306  32.919   4.118
36890W        W 9150   1.988   0.061   1.744
36891W        W 9151  21.202  10.244   3.048
36892W        W 9152  43.293  19.574   5.077
36893W        W 9153  10.764  25.424   1.781
36894W        W 9154  25.602   9.749   3.094
36895W        W 9155  31.134  24.537  11.561
36896W        W 9156  11.736  39.668   9.984
36897W        W 9157  44.722  43.483   1.321
36898W        W 9158  32.530  27.788   4.101
36899W        W 9159   1.755   7.920   2.104
36900W        W 9160  17.549  21.138  13.796
36901W        W 9161  33.524  29.137   2.707
36902W        W 9162  38.653  41.052   9.708
36903W        W 9163  35.135  15.131  12.451
36904W        W 9164  20.434   1.360  12.062
36905W        W 9165  20.593  26.268   1.079
36906W        W 9166  39.817  30.364   1.311
36907W        W 9167  13.624  28.357   4.784
36908W        W 9168  31.616  26.266   2.721
36909W        W 9169  30.177   4.591   2.976
36910W        W 9170  33.594  37.783  12.030
36911W        W 9171  41.946  24.551  14.172
36912W        W 9172  28.722   7.220  11.989
36913W        W 9173  33.914  18.036   4.602
36914W        W 9174  27.444  23.657   0.509
36915W        W 9175  19.920  21.762   3.506
36916W        W 9176  11.336  26.062  13.469
36917W        W 9177   6.243  18.140  14.872
36918W        W 9178  22.226  22.231   1.524
36919W        W 9179   3.467  21.632  11.910
36920W        W 9180   8.631  16.169  10.780
36921W        W 9181   9.741   5.659   1.239
36922W        W 9182   5.867  20.758  13.924
36923W        W 9183  22.903   1.296   0.445
36924W        W 9184  23.508  10.447  12.810
36925W        W 9185  25.925   0.836  14.362
36926W        W 9186  44.971  44.457  10.999
36927W        W 9187  43.762  18.598  11.573
36928W        W 9188  33.962  27.043  12.827
36929W        W 9189  43.759  31.154  10.721
36930W        W 9190   2.094  41.151   4.238
36931W        W 9191  34.409   8.424  14.266
36932W        W 9192  16.457  38.873   4.132
36933W        W 9193   8.104  23.445   2.604
36934W        W 9194  40.757   4.941   3.262
36935W        W 9195  13.574  12.556  14.484
36936W        W 9196  31.436  18.835   2.413
36937W        W 9197  42.342  23.892  11.812
36938W        W 9198  44.028  43.493   3.931
36939W        W 9199  37.714  27.618   9.879
36940W        W 9200   5.799  20.759   0.394
36941W        W 9201   2.497  10.439   4.107
36942W        W 9202  28.572   0.025  11.215
36943W        W 9203  40.942  39.405   0.062
36944W        W 9204  22.089  39.083  11.069
36945W        W 9205  35.115  23.574   0.771
36946W        W 9206   7.307  29.636  12.182
36947W        W 9207  44.438  13.075   1.862
36948W        W 9208  10.329  21.754   2.389
36949W        W 9209  17.598  27.471  13.425
36950W        W 9210  32.376  14.266  14.356
36951W        W 9211  17.045  28.608   1.350
36952W        W 9212  10.140  18.772   3.902
36953W        W 9213  36.926  26.630   4.964
36954W        W 9214  43.217  15.525  10.262
36955W        W 9215  33.351   1.038   0.511
36956W        W 9216  17.549  37.824  13.394
36957W        W 9217   7.936   9.291  14.532
36958W        W 9218  21.506  22.228  13.977
36959W        W 9219   6.004  33.897   4.171
36960W        W 9220  34.489  24.200  12.623
36961W        W 9221   8.587  32.026  14.524
36962W        W 9222   7.476  27.240   0.992
36963W        W 9223  24.934   4.189  11.963
36964W        W 9224  24.679   8.004  10.725
36965W        W 9225  43.884   9.722  14.579
36966W        W 9226  29.967  36.613   3.784
36967W        W 9227   9.761  44.210  11.166
36968W        W 9228  26.544  33.343   5.025
36969W        W 9229  32.837  24.194  13.049
36970W        W 9230  30.516  42.879  11.612
36971W        W 9231  25.186   7.928   1.236
36972W        W 9232   4.363  15.559   2.295
36973W        W 9233   6.641  31.665  11.155
36974W        W 9234  11.366  29.705  13.385
36975W        W 9235  44.122   9.764   0.038
36976W        W 9236  20.211  36.709  13.969
36977W        W 9237  12.936  21.236   0.896
36978W        W 9238   0.424  35.564  10.481
36979W        W 9239  21.707   2.885   2.719
36980W        W 9240  40.367  40.978   4.599
36981W        W 9241  42.553  42.360   2.173
36982W        W 9242  12.696  19.007   2.218
36983W        W 9243  22.258  40.340   3.080
36984W        W 9244  36.724   0.942  12.357
36985W        W 9245  36.399   8.693  14.855
36986W        W 9246   1.467   9.116   0.807
36987W        W 9247   7.844  42.521   3.400
36988W        W 9248  12.211  19.539   3.631
36989W        W 9249  26.716  13.374   1.789
36990W        W 9250  14.001   6.097  12.508
36991W        W 9251  26.671  10.596   3.556
36992W        W 9252  25.457   7.885   1.664
36993W        W 9253  28.610  42.575   2.845
36994W        W 9254  31.644  29.526   4.869
36995W        W 9255  33.593   4.405   3.568
36996W        W 9256   1.725  40.053  10.926
36997W        W 9257  26.141  17.767  13.593
36998W        W 9258  44.712  40.849  12.146
36999W        W 9259  20.645   9.314  10.449
37000W        W 9260  17.122  32.427   3.659
37001W        W 9261  44.538  12.544  13.483
37002W        W 9262   3.811  26.084  14.122
37003W        W 9263  29.509  13.069   4.602
37004W        W 9264  33.159  39.722  12.518
37005W        W 9265  40.123   8.170   3.467
37006W        W 9266  21.534  23.558   3.672
37007W        W 9267  31.932  29.057   1.877
37008W        W 9268   9.353  27.083  14.466
37009W        W 9269  40.017  26.475  13.074
37010W        W 9270  29.539  14.195  13.178
37011W        W 9271  44.026  22.731  11.638
37012W        W 9272  38.048  37.403  13.354
37013W        W 9273  43.563  40.261  11.867
37014W        W 9274   9.855  30.653  12.743
37015W        W 9275   2.464  26.594  14.901
37016W        W 9276  14.408  30.512  11.168
37017W        W 9277  13.660  43.890   1.032
37018W        W 9278   9.392  43.949   2.895
37019W        W 9279  25.028  29.534   2.346
37020W        W 9280   5.486  28.451  11.636
37021W        W 9281  24.034   1.426  13.943
37022W        W 9282   6.750  11.377   1.534
37023W        W 9283  42.930  10.473   2.700
37024W        W 9284   0.526  11.368   0.583
37025W        W 9285  43.422  23.750   0.306
37026W        W 9286  30.258   2.895  12.339
37027W        W 9287  16.794  15.272  10.672
37028W        W 9288  42.976  27.702   4.276
37029W        W 9289  31.216  38.080  12.099
37030W        W 9290  27.598  33.448  13.862
37031W        W 9291  36.783  36.390   3.855
37032W        W 9292  29.618  35.960  12.006
37033W        W 9293   7.673  24.277   2.665
37034W        W 9294  33.562  44.115   4.620
37035W        W 9295  29.129  35.887   1.720
37036W        W 9296  25.423   1.034  13.423
37037W        W 9297  27.287   4.486   1.872
37038W        W 9298  21.950  32.943   0.831
37039W        W 9299   1.791  18.676   5.087
37040W        W 9300  20.546  31.862   1.649
37041W        W 9301   9.438  15.893   2.512
37042W        W 9302  43.317  11.929   3.743
37043W        W 9303  21.246  17.995  12.948
37044W        W 9304  11.143   9.801  10.839
37045W        W 9305  28.422   2.148  13.868
37046W        W 9306  29.627  15.508  13.954
37047W        W 9307  15.026  39.658   2.169
37048W        W 9308  19.494  28.551  13.553
37049W        W 9309  40.359  17.303   2.146
37050W        W 9310  42.460  26.573  13.046
37051W        W 9311  21.164   8.603   1.672
37052W        W 9312  20.652   2.588  12.191
37053W        W 9313  28.768  28.534  11.785
37054W        W 9314  40.861   1.410   3.642
37055W        W 9315  39.759   3.370  12.080
37056W        W 9316  33.459  39.065   1.765
37057W        W 9317  36.588   7.332   9.977
37058W        W 9318  24.436  17.548   3.517
37059W        W 9319  33.336  20.178   2.949
37060W        W 9320  11.283  13.387  11.919
37061W        W 9321   3.909  42.573   4.360
37062W        W 9322  21.615  27.594  13.952
37063W        W 9323  33.835   5.577   0.795
37064W        W 9324  33.010   1.517  12.014
37065W        W 9325   0.259   1.020   3.791
37066W        W 9326  44.767  19.387   2.826
37067W        W 9327   8.155  10.260   3.192
37068W        W 9328  14.884  19.145  12.935
37069W        W 9329  19.624   5.253   3.027
37070W        W 9330  31.844  36.474  13.616
37071W        W 9331  33.873  41.404   1.852
37072W        W 9332  12.246   1.106   3.497
37073W        W 9333   5.529   0.376  10.662
37074W        W 9334  21.982  32.516  13.131
37075W        W 9335   3.412  37.673   3.209
37076W        W 9336   6.878  36.469   2.264
37077W        W 9337   5.233   6.472   3.806
37078W        W 9338  36.826  27.954   3.125
37079W        W 9339  39.533  18.803   0.256
37080W        W 9340  42.937  35.419  14.553
37081W        W 9341   5.209  25.153   4.036
37082W        W 9342  38.086  22.016   2.737
37083W        W 9343   0.321  12.643  12.531
37084W        W 9344  28.575  13.995   2.821
37085W        W 9345  15.602  19.487  13.304
37086W        W 9346  13.155  32.665   3.341
37087W        W 9347  29.109  13.360   1.858
37088W        W 9348  19.060  33.756   2.091
37089W        W 9349  39.798  28.557  14.338
37090W        W 9350  39.168   3.410   4.162
37091W        W 9351  25.043  34.403  14.872
37092W        W 9352  24.089  37.015  14.056
37093W        W 9353  28.032  14.252   3.775
37094W        W 9354  26.831   3.201   5.041
37095W        W 9355   7.821  31.349  14.470
37096W        W 9356  34.146  40.932   3.771
37097W        W 9357  28.697  31.663  10.983
37098W        W 9358  16.339  35.341   3.113
37099W        W 9359   3.689  44.684  14.221
37100W        W 9360   0.853   4.829  12.026
37101W        W 9361  28.684  17.302   2.472
37102W        W 9362  12.366  26.975   3.807
37103W        W 9363   3.461   5.192   2.743
37104W        W 9364  23.949  23.341   2.936
37105W        W 9365  41.517   9.881  10.974
37106W        W 9366  38.992  20.748   3.682
37107W        W 9367   5.982   3.172   0.419
37108W        W 9368  24.925  14.719   1.450
37109W        W 9369   5.169  21.266  11.649
37110W        W 9370   7.613   0.279  11.553
37111W        W 9371   7.295  41.852  13.812
37112W        W 9372  43.656  23.209  11.584
37113W        W 9373  11.642  22.201   2.379
37114W        W 9374  33.066  36.833   3.642
37115W        W 9375  17.127   0.330   1.349
37116W        W 9376  30.488  12.784  11.962
37117W        W 9377  21.466  25.207  11.955
37118W        W 9378  15.118  39.390  12.527
37119W        W 9379   8.909  34.908   2.327
37120W        W 9380  27.514   7.442   3.205
37121W        W 9381  36.051  24.966   1.714
37122W        W 9382  24.576  31.716  13.355
37123W        W 9383  10.834  40.245  13.963
37124W        W 9384  40.782  43.432  14.976
37125W        W 9385  32.747  37.434   2.986
37126W        W 9386   0.468   4.864  11.616
37127W        W 9387   0.997  25.210   4.311
37128W        W 9388  28.015   3.089  14.117
37129W        W 9389  12.384  32.827  11.070
37130W        W 9390  34.172  17.265  10.503
37131W        W 9391  10.360  24.699  13.376
37132W        W 9392  12.667   9.630   3.621
37133W        W 9393   3.515  40.739  12.094
37134W        W 9394  18.011  32.359   0.287
37135W        W 9395  25.214  11.732   1.220
37136W        W 9396  33.897  42.713  14.401
37137W        W 9397  38.564  33.795  13.178
37138W        W 9398   2.054   0.782  14.830
37139W        W 9399  37.383  16.654   4.588
37140W        W 9400   7.000  24.329   4.959
37141W        W 9401   6.901  28.310  13.018
37142W        W 9402  36.542  40.538  12.309
37143W        W 9403  19.737   6.904   4.462
37144W        W 9404   9.154  21.585  14.858
37145W        W 9405  41.723  28.579  11.565
37146W        W 9406   4.987  13.855   1.279
37147W        W 9407  44.663  10.400   0.542
37148W        W 9408   3.449  19.638   1.786
37149W        W 9409  14.300  16.666  11.439
37150W        W 9410   1.330   6.363   0.919
37151W        W 9411   0.881  15.812  14.766
37152W        W 9412  17.426  43.391   3.015
37153W        W 9413  13.932  33.987  12.088
37154W        W 9414   8.665  10.746  10.922
37155W        W 9415   3.785  32.598  11.107
37156W        W 9416  22.319  11.717   2.232
37157W        W 9417   5.819  26.716   1.746
37158W        W 9418  13.694  26.729   0.747
37159W        W 9419  19.996   5.656  13.993
37160W        W 9420  33.552   4.942   2.790
37161W        W 9421  30.436  39.848   3.231
37162W        W 9422  38.608  36.919  10.637
37163W        W 9423  17.318   1.249   3.149
37164W        W 9424  25.025  18.264  13.119
37165W        W 9425   7.044   1.821   4.180
37166W        W 9426   4.200  30.574  14.546
37167W        W 9427  16.321  24.513  14.392
37168W        W 9428  17.209   9.332  10.663
37169W        W 9429  22.178  12.121  10.946
37170W        W 9430  37.668  22.501   3.919
37171W        W 9431  31.062  36.802   3.329
37172W        W 9432   8.869  12.830  10.714
37173W        W 9433  13.300   6.831   1.197
37174W        W 9434   6.342  14.122   4.500
37175W        W 9435  13.904  31.539   4.783
37176W        W 9436   6.788  24.920  11.534
37177W        W 9437  29.003   1.642  10.282
37178W        W 9438  39.321  14.864   1.791
37179W        W 9439  33.890  41.346  11.731
37180W        W 9440  22.681   9.011   4.603
37181W        W 9441  14.843   2.449  13.829
37182W        W 9442  18.083   9.494  11.422
37183W        W 9443  16.799  37.905   3.198
37184W        W 9444  41.809   8.851   0.965
37185W        W 9445  15.508  26.899   1.871
37186W        W 9446   3.150   0.961  13.706
37187W        W 9447  21.751  15.235   0.825
37188W        W 9448  33.505   7.123   0.814
37189W        W 9449  27.626  30.126   9.778
37190W        W 9450  26.615  26.037   2.283
37191W        W 9451  10.086   7.330   2.722
37192W        W 9452  20.751  29.483  10.532
37193W        W 9453  19.771  37.313  11.633
37194W        W 9454  36.446  13.714   3.783
37195W        W 9455  10.814  12.734   2.451
37196W        W 9456  40.054  20.615   0.927
37197W        W 9457  14.175  32.882  10.589
37198W        W 9458   6.305  34.804   1.493
37199W        W 9459  24.101  15.058   3.342
37200W        W 9460  44.890  30.886   4.861
37201W        W 9461  10.621  16.767  12.387
37202W        W 9462  16.653  11.896   0.384
37203W        W 9463   4.881   7.174   1.031
37204W        W 9464  24.168  21.684   4.672
37205W        W 9465  10.832  18.355  13.539
37206W        W 9466  10.683  40.922   3.610
37207W        W 9467  14.743  40.273   2.743
37208W        W 9468   7.533  33.915   2.674
37209W        W 9469  42.512   3.774   0.069
37210W        W 9470  31.608  34.838   2.718
37211W        W 9471  35.667   5.528   3.758
37212W        W 9472  31.582  23.625   0.267
37213W        W 9473  32.300  14.127   1.720
37214W        W 9474  16.185  13.103  10.665
37215W        W 9475  24.591  28.854   3.673
37216W        W 9476  44.969  21.164  13.187
37217W        W 9477  30.782  40.568   1.244
37218W        W 9478  33.893   2.869  13.358
37219W        W 9479  28.591   6.320   1.834
37220W        W 9480  36.851  27.035   3.198
37221W        W 9481  34.834  18.879  10.821
37222W        W 9482  33.118  17.265  14.727
37223W        W 9483  43.099  38.617  11.167
37224W        W 9484  24.944  37.948   1.691
37225W        W 9485  40.537   4.777  11.059
37226W        W 9486  12.364  29.150   0.325
37227W        W 9487  12.142   2.519   0.109
37228W        W 9488  44.956  15.003   0.240
37229W        W 9489  33.596   9.381   2.408
37230W        W 9490  28.041  34.065   4.744
37231W        W 9491  22.795  27.002   4.236
37232W        W 9492   8.367  24.756  12.030
37233W        W 9493  20.295  19.331   3.069
37234W        W 9494  22.610  36.570  10.648
37235W        W 9495  14.650  39.539  13.291
37236W        W 9496  21.636  11.246  14.947
37237W        W 9497   1.561   7.267  10.526
37238W        W 9498  26.434  17.399   0.015
37239W        W 9499  43.592   9.459  10.769
37240W        W 9500   6.218  26.940   0.419
37241W        W 9501  19.455  28.306   4.177
37242W        W 9502  38.780  19.602   3.427
37243W        W 9503  18.859   8.768  10.923
37244W        W 9504  25.263   1.251   0.808
37245W        W 9505  27.923  27.699   1.276
37246W        W 9506  34.056   4.345  13.419
37247W        W 9507   5.337  33.972   1.378
37248W        W 9508  34.506  21.394   4.658
37249W        W 9509  32.180  13.617  11.110
37250W        W 9510   6.811  23.596  13.085
37251W        W 9511  20.386  17.888   3.363
37252W        W 9512   7.347   0.914  14.798
37253W        W 9513  35.954  34.906   0.399
37254W        W 9514  10.768  28.158  12.060
37255W        W 9515  25.344   3.671   0.792
37256W        W 9516  44.304   2.985  12.147
37257W        W 9517  31.654   3.621   3.250
37258W        W 9518   6.913  25.703   2.381
37259W        W 9519   6.292   5.412   1.721
37260W        W 9520  19.974  42.491   2.508
37261W        W 9521   9.367  25.270   2.301
37262W        W 9522  10.721  16.781  10.743
37263W        W 9523   3.964  35.098  11.157
37264W        W 9524  32.136  15.082  10.179
37265W        W 9525  29.178  35.904   0.228
37266W        W 9526  33.551   1.051   4.327
37267W        W 9527  20.447  44.555   3.729
37268W        W 9528  37.563  11.123   3.630
37269W        W 9529   2.493  43.503  12.699
37270W        W 9530  44.347  22.658  12.831
37271W        W 9531  15.060  43.336  11.512
37272W        W 9532  29.854   7.851  13.126
37273W        W 9533  12.820  44.375   4.285
37274W        W 9534  12.874  29.455   4.686
37275W        W 9535  24.109   4.220  11.441
37276W        W 9536   3.481  11.363   1.148
37277W        W 9537  33.531  15.357   3.003
37278W        W 9538  43.994  16.748  13.399
37279W        W 9539  36.888  23.237   4.511
37280W        W 9540  12.360  19.492  12.778
37281W        W 9541  27.536  18.509   4.771
37282W        W 9542  44.854  43.018   3.240
37283W        W 9543  20.971  21.732  13.020
37284W        W 9544  38.372  18.613  12.353
37285W        W 9545  38.378  11.807   4.618
37286W        W 9546  17.522  28.416  12.454
37287W        W 9547   5.413  43.300   0.886
37288W        W 9548  44.176  35.389  11.680
37289W        W 9549  24.320   2.273   4.312
37290W        W 9550  14.714  28.862   3.317
37291W        W 9551  34.124  19.358   1.262
37292W        W 9552   8.927  21.766   2.993
37293W        W 9553  13.185  38.736   2.731
37294W        W 9554  30.678  23.248   2.600
37295W        W 9555  30.988  17.565   3.131
37296W        W 9556  27.505  29.913   5.626
37297W        W 9557  21.289   7.249   3.815
37298W        W 9558  31.889   9.277  14.988
37299W        W 9559  32.370   0.890  11.105
37300W        W 9560  13.290  13.618  10.631
37301W        W 9561   0.253  22.649  11.090
37302W        W 9562  36.003  31.700   3.084
37303W        W 9563   9.272  23.013   0.849
37304W        W 9564   1.667  16.246   4.794
37305W        W 9565  25.084  12.873  14.895
37306W        W 9566  36.354  43.063  12.016
37307W        W 9567  26.549  34.636  13.531
37308W        W 9568  11.704  36.842  13.229
37309W        W 9569  32.853  11.773   1.705
37310W        W 9570  42.220  36.979  14.909
37311W        W 9571   4.225  36.511   0.508
37312W        W 9572  17.695  40.548  12.882
37313W        W 9573  24.005  28.030   4.542
37314W        W 9574  39.435  32.941   3.128
37315W        W 9575  22.595  31.432   4.724
37316W        W 9576  25.016  18.554  14.122
37317W        W 9577  35.608  44.801   0.466
37318W        W 9578  44.442   8.226  14.390
37319W        W 9579  39.375  11.260  14.436
37320W        W 9580   4.692  21.083   2.762
37321W        W 9581  28.621  36.892  10.749
37322W        W 9582   7.197  40.562  11.395
37323W        W 9583   8.425   5.957  13.147
37324W        W 9584  28.340  21.601  14.233
37325W        W 9585  18.523   2.378  14.782
37326W        W 9586  42.478  14.654   1.359
37327W        W 9587  22.436   2.684  10.522
37328W        W 9588  37.862  33.934  10.508
37329W        W 9589  23.798   7.747  13.016
37330W        W 9590  18.506  24.057   4.604
37331W        W 9591  20.275  43.277  10.280
37332W        W 9592   8.821  25.161  14.544
37333W        W 9593   7.251  28.962   4.898
37334W        W 9594   5.671   3.882   0.922
37335W        W 9595   4.886  36.089   0.319
37336W        W 9596  30.493  10.146   2.362
37337W        W 9597  36.786  40.764   0.182
37338W        W 9598  19.704   8.243  13.031
37339W        W 9599  41.901  43.688  10.819
37340W        W 9600  39.104  24.533   4.290
37341W        W 9601  15.134   5.895   1.815
37342W        W 9602   2.798   9.444   0.214
37343W        W 9603   8.433  36.343  12.496
37344W        W 9604   6.933  37.530   3.937
37345W        W 9605   4.266  33.028  12.543
37346W        W 9606   1.404  31.683  14.331
37347W        W 9607  20.281  23.288  13.475
37348W        W 9608  41.370  24.093   4.599
37349W        W 9609  16.810  14.902  13.555
37350W        W 9610  28.591  42.428   1.689
37351W        W 9611   6.324   3.230  10.575
37352W        W 9612  35.477  24.727   0.911
37353W        W 9613  33.324  21.561   2.637
37354W        W 9614   2.355   0.756  14.349
37355W        W 9615   0.151  27.454  10.408
37356W        W 9616   3.727  43.550   2.296
37357W        W 9617  25.391  39.386  10.724
37358W        W 9618   3.745  23.586   3.380
37359W        W 9619   2.851   4.720  10.713
37360W        W 9620   3.425   4.031   2.221
37361W        W 9621  33.050  37.420   5.052
37362W        W 9622  18.408  25.265  11.633
37363W        W 9623  21.932   6.044  14.282
37364W        W 9624  33.990  24.674  11.734
37365W        W 9625  21.307  33.647  12.734
37366W        W 9626  32.023  34.879  12.951
37367W        W 9627   8.878  14.226  10.631
37368W        W 9628  13.417  34.878  13.468
37369W        W 9629  27.305   2.469   3.779
37370W        W 9630  17.310   5.416   2.587
37371W        W 9631  26.774  35.220  14.951
37372W        W 9632  10.536  32.302   2.677
37373W        W 9633  13.407  40.528  13.436
37374W        W 9634  41.245  38.498   2.236
37375W        W 9635  42.534   9.162  13.341
37376W        W 9636  39.998  32.994   1.949
37377W        W 9637  14.227  23.322   4.571
37378W        W 9638  17.356  42.337  11.138
37379W        W 9639  33.555  24.949  11.464
37380W        W 9640  14.254  41.251  12.502
37381W        W 9641  17.849  39.768   0.801
37382W        W 9642  38.948  40.854   0.889
37383W        W 9643   1.047   4.377  14.137
37384W        W 9644  31.972  29.015  12.435
37385W        W 9645  17.168  19.035  12.036
37386W        W 9646  36.815  14.835  13.256
37387W        W 9647   5.135  22.563  14.801
37388W        W 9648  11.927  26.637   4.164
37389W        W 9649  43.809  27.092   4.603
37390W        W 9650   5.635  35.558  14.358
37391W        W 9651  14.767  34.541   0.802
37392W        W 9652   4.752  40.921  10.713
37393W        W 9653  37.599  34.038  14.302
37394W        W 9654  23.593   5.736   2.223
37395W        W 9655  39.307  17.067   3.755
37396W        W 9656  44.980  10.839   3.278
37397W        W 9657  39.377  14.524   2.205
37398W        W 9658  21.114  10.828  12.910
37399W        W 9659  16.267  13.883  13.929
37400W        W 9660  12.366  11.126   4.937
37401W        W 9661  16.111   8.854  10.593
37402W        W 9662  31.571  30.446  14.033
37403W        W 9663  20.543  18.057  13.363
37404W        W 9664  38.816  36.469  14.895
37405W        W 9665  10.843  38.890   0.771
37406W        W 9666   1.266  22.670  10.965
37407W        W 9667  37.714  32.062  13.900
37408W        W 9668  37.350  36.526   2.997
37409W        W 9669  30.162   1.751   2.412
37410W        W 9670  13.575  11.117  11.608
37411W        W 9671   8.407  14.116   1.897
37412W        W 9672   4.207  27.144   1.862
37413W        W 9673   6.402  19.769  13.906
37414W        W 9674  37.281  20.767  12.030
37415W        W 9675  40.539  36.007  12.351
37416W        W 9676  11.337  31.759   4.935
37417W        W 9677  40.117  25.172   0.911
37418W        W 9678  40.421  44.734   1.022
37419W        W 9679  21.698  15.683  12.816
37420W        W 9680  33.369  23.626  10.619
37421W        W 9681  44.287  12.763   4.370
37422W        W 9682  22.604  38.914   1.418
37423W        W 9683  10.417  17.786   3.752
37424W        W 9684  13.739  31.143   5.083
37425W        W 9685  12.118  14.667  13.406
37426W        W 9686  43.305  35.356   1.388
37427W        W 9687   9.869  34.081   0.259
37428W        W 9688   1.121  43.750  14.982
37429W        W 9689  19.074  32.034   3.739
37430W        W 9690  21.272   1.435   1.977
37431W        W 9691  44.974  35.134   4.510
37432W        W 9692  12.670  32.464  14.297
37433W        W 9693   4.299  37.135  11.862
37434W        W 9694   6.200   1.790   0.832
37435W        W 9695  12.096  25.148   0.865
37436W        W 9696  41.409  12.965  12.543
37437W        W 9697  30.681  43.412   1.279
37438W        W 9698   9.082  16.208   2.694
37439W        W 9699  15.384  18.341  13.866
37440W        W 9700  36.356  43.510  13.418
37441W        W 9701  36.791  13.556  10.628
37442W        W 9702  43.604  44.048   1.918
37443W        W 9703  44.536  12.137  11.201
37444W        W 9704  11.100   2.118   3.932
37445W        W 9705  38.482   7.799   1.378
37446W        W 9706  28.546  15.206   3.038
37447W        W 9707   3.388  19.019  12.482
37448W        W 9708   2.682   3.459   3.115
37449W        W 9709  16.736  32.126   4.055
37450W        W 9710  17.142  30.065   1.369
37451W        W 9711   1.510  16.857   0.587
37452W        W 9712   7.663   9.376   0.502
37453W        W 9713  14.931  17.998   3.408
37454W        W 9714  37.137  11.747   0.407
37455W        W 9715   9.322   6.712  13.871
37456W        W 9716  30.033  16.093  11.590
37457W        W 9717  40.952   7.612  10.719
37458W        W 9718  19.101  11.394  10.568
37459W        W 9719   0.337   1.009   2.336
37460W        W 9720  11.402  26.438   0.022
37461W        W 9721  14.045  34.330   4.183
37462W        W 9722  18.333   3.774   3.287
37463W        W 9723  25.054  12.267   4.249
37464W        W 9724  21.646  17.120   3.712
37465W        W 9725  34.080  22.972   1.891
37466W        W 9726  35.396   2.919   1.898
37467W        W 9727  33.602   4.820  12.160
37468W        W 9728  38.438  39.886  13.255
37469W        W 9729  36.807  39.828  13.379
37470W        W 9730  19.500  14.140  11.634
37471W        W 9731  13.417  35.974   1.105
37472W        W 9732  10.650   4.639  11.692
37473W        W 9733  31.889  27.480   4.316
37474W        W 9734  24.886  32.093   0.449
37475W        W 9735   5.736   7.248   2.882
37476W        W 9736  10.784   1.853  12.493
37477W        W 9737  38.119  30.943   1.875
37478W        W 9738  40.220  34.525   1.685
37479W        W 9739   4.397  43.471  14.679
37480W        W 9740  34.387   2.544   4.145
37481W        W 9741  34.865  10.345  11.240
37482W        W 9742  41.520   9.217  12.469
37483W        W 9743   6.431  39.393  14.790
37484W        W 9744  28.749  17.554  11.632
37485W        W 9745  40.151  14.727   3.280
37486W        W 9746  36.875  42.023  11.101
37487W        W 9747  27.768  43.907  13.409
37488W        W 9748  38.450   4.361   4.507
37489W        W 9749  27.149  13.348   0.021
37490W        W 9750  20.823  33.010  13.423
37491W        W 9751  21.442  36.886  10.467
37492W        W 9752  12.408  33.683  13.126
37493W        W 9753   2.218  28.226  14.336
37494W        W 9754  42.964  21.935   1.332
37495W        W 9755  29.631  31.374   2.346
37496W        W 9756  10.183  38.109   1.949
37497W        W 9757  29.196  29.933  10.602
37498W        W 9758  21.822  21.760   5.066
37499W        W 9759  36.027   8.871   5.370
37500W        W 9760  33.541  24.932   0.253
37501W        W 9761   5.372   6.820  11.754
37502W        W 9762  11.138  32.089   2.003
37503W        W 9763   1.953  14.665  10.741
37504W        W 9764  13.732  17.730  12.152
37505W        W 9765  20.155  21.097  12.986
37506W        W 9766  19.780  44.891   1.730
37507W        W 9767  28.343   8.084   1.216
37508W        W 9768  14.712  33.763  12.525
37509W        W 9769  39.285  28.518  11.671
37510W        W 9770  30.132   6.151  11.141
37511W        W 9771  21.646  41.087  11.936
37512W        W 9772   1.966  23.103  14.964
37513W        W 9773   1.940  15.815  12.107
37514W        W 9774  12.252  13.644  10.662
37515W        W 9775  12.813   5.443  14.425
37516W        W 9776   3.859  14.171   3.194
37517W        W 9777  13.812  44.497   3.300
37518W        W 9778  26.833  30.391  10.305
37519W        W 9779   8.267  23.919  14.366
37520W        W 9780  36.599  17.475  12.931
37521W        W 9781  11.455  12.811   0.821
37522W        W 9782   9.342  26.011   1.727
37523W        W 9783   0.935  30.952  14.335
37524W        W 9784  22.062  41.023   4.553
37525W        W 9785  11.808  28.074  14.752
37526W        W 9786   2.521  30.021  14.483
37527W        W 9787  20.040  31.248   1.275
37528W        W 9788  43.881  26.604   4.787
37529W        W 9789  36.811  11.268  11.540
37530W        W 9790  44.345  29.172   1.023
37531W        W 9791  42.157  17.696  10.537
37532W        W 9792  21.459  10.785   0.010
37533W        W 9793  32.502  36.082  13.571
37534W        W 9794  21.933  27.603  11.884
37535W        W 9795   6.190  19.171  14.872
37536W        W 9796  31.145  17.001   0.952
37537W        W 9797   9.126  12.065  11.150
37538W        W 9798  10.849  30.598   3.194
37539W        W 9799   4.919  28.895  12.140
37540W        W 9800  18.921  10.750   1.418
37541W        W 9801   4.845  35.735   0.731
37542W        W 9802   6.939   1.679   1.413
37543W        W 9803  16.217  42.853  12.037
37544W        W 9804  42.380  30.045  13.889
37545W        W 9805  13.361  41.412  11.645
37546W        W 9806  19.238  25.205   0.262
37547W        W 9807  16.093   4.949   1.939
37548W        W 9808   5.439  30.762  13.108
37549W        W 9809  29.410  41.376   0.430
37550W        W 9810  30.066  30.123   5.127
37551W        W 9811  14.718  13.100   1.898
37552W        W 9812  35.808  31.885   0.848
37553W        W 9813  19.588   9.174  10.687
37554W        W 9814  24.338   8.782   1.879
37555W        W 9815  16.038  11.720  14.705
37556W        W 9816  42.123   6.680   2.401
37557W        W 9817  22.939  36.400   4.520
37558W        W 9818  31.403  18.839   1.329
37559W        W 9819  25.960  27.499  11.904
37560W        W 9820  17.735  21.618   1.733
37561W        W 9821   2.708   7.193   2.770
37562W        W 9822  22.703  14.738   1.707
37563W        W 9823  15.495  29.582   5.580
37564W        W 9824   9.618   7.783   1.881
37565W        W 9825  34.362  34.487  13.068
37566W        W 9826   8.850   9.235   2.623
37567W        W 9827   0.887  17.163  14.394
37568W        W 9828  36.115  36.408  11.892
37569W        W 9829  43.054  23.586   4.564
37570W        W 9830  38.138  21.010   2.531
37571W        W 9831  28.953  13.752  14.382
37572W        W 9832  39.407   6.793   5.087
37573W        W 9833  10.889  40.636  10.822
37574W        W 9834  11.738  29.728   1.844
37575W        W 9835  40.087  15.578  11.166
37576W        W 9836  12.073  43.616   2.734
37577W        W 9837  15.201  31.741   0.245
37578W        W 9838  12.728  33.626   2.738
37579W        W 9839   4.995  20.473  11.333
37580W        W 9840  17.600  39.575  10.473
37581W        W 9841  36.054  31.367  11.254
37582W        W 9842  39.044  32.094   4.094
37583W        W 9843  44.730   9.126   2.310
37584W        W 9844  23.188  39.814   0.391
37585W        W 9845  22.053  30.589   3.741
37586W        W 9846  34.785  38.273   3.761
37587W        W 9847  26.488  27.949  11.139
37588W        W 9848  39.391  28.892   2.749
37589W        W 9849  33.865   5.441   2.629
37590W        W 9850  11.903  23.106   0.405
37591W        W 9851  37.160  35.114  11.246
37592W        W 9852  38.427  16.274  12.138
37593W        W 9853  43.956  41.145   3.696
37594W        W 9854  25.042   4.856  13.055
37595W        W 9855  15.587  29.003   0.791
37596W        W 9856  31.061  43.421   0.767
37597W        W 9857   4.731  29.997   0.208
37598W        W 9858  37.450   6.403   2.000
37599W        W 9859  20.149  36.515  14.723
37600W        W 9860  22.734  19.042  11.877
37601W        W 9861   0.007  10.684   4.275
37602W        W 9862  26.797  11.868   1.725
37603W        W 9863  38.937  13.398  11.896
37604W        W 9864  33.628  14.587  14.072
37605W        W 9865   3.483  19.974  10.786
37606W        W 9866  30.648  21.366   1.850
37607W        W 9867  24.699   1.489   1.815
37608W        W 9868   9.342   0.330  14.297
37609W        W 9869  32.487   0.196  13.268
37610W        W 9870  18.997   0.447  12.926
37611W        W 9871  18.231  25.711   2.383
37612W        W 9872  11.219  11.913  11.563
37613W        W 9873  34.554  38.842   1.372
37614W        W 9874  29.963  32.998  10.483
37615W        W 9875  22.611  38.860  11.105
37616W        W 9876  35.454  19.026  13.957
37617W        W 9877  28.163  12.060  12.489
37618W        W 9878   6.854  12.836   1.999
37619W        W 9879   2.354  11.028   0.433
37620W        W 9880  38.615   2.941   2.182
37621W        W 9881   5.194  24.460   3.149
37622W        W 9882  44.822  13.339  10.729
37623W        W 9883  40.022  38.076  12.222
37624W        W 9884   7.325  27.105  10.627
37625W        W 9885   8.512  31.899  11.207
37626W        W 9886  37.959  17.638   3.372
37627W        W 9887  29.576  42.775  11.568
37628W        W 9888  36.915  38.849   2.647
37629W        W 9889  17.363  35.570   3.015
37630W        W 9890  34.730  16.166  13.842
37631W        W 9891   8.673  24.736   1.894
37632W        W 9892  42.509   7.491  11.112
37633W        W 9893  39.899  36.414   2.780
37634W        W 9894  20.671  37.351  12.633
37635W        W 9895  40.144  12.151   2.755
37636W        W 9896  21.683   0.208  12.509
37637W        W 9897   8.164  30.084   0.530
37638W        W 9898  23.076  10.079  12.097
37639W        W 9899  13.694  40.989   1.430
37640W        W 9900   0.036  31.368   3.746
37641W        W 9901   5.408  36.262  14.784
37642W        W 9902   4.979  40.030   3.665
37643W        W 9903  12.049  19.816  11.143
37644W        W 9904  18.054  37.238  10.775
37645W        W 9905  24.576  33.419  11.107
37646W        W 9906  35.157  25.934  11.600
37647W        W 9907   0.733  27.113  11.056
37648W        W 9908  37.970  34.017  11.603
37649W        W 9909  43.512  10.601   3.256
37650W        W 9910   6.322   7.188  14.937
37651W        W 9911   2.303  42.382   2.449
37652W        W 9912  18.569  27.858   4.300
37653W        W 9913  41.986  38.212   3.143
37654W        W 9914  12.578   5.760   2.402
37655W        W 9915  29.654  29.662   5.068
37656W        W 9916  44.315  44.368   3.138
37657W        W 9917   8.814  19.237   4.583
37658W        W 9918   8.870  13.672   2.407
37659W        W 9919   4.940  20.716  14.480
37660W        W 9920   7.371   8.939   0.452
37661W        W 9921  43.472  26.310   0.241
37662W        W 9922  35.766  39.771   1.200
37663W        W 9923  14.455  35.146  12.265
37664W        W 9924  34.043  30.489   1.017
37665W        W 9925  40.690  26.139  12.372
37666W        W 9926   7.710  28.121  11.478
37667W        W 9927  43.520  18.594  14.795
37668W        W 9928  10.296   2.405  13.816
37669W        W 9929  34.882   2.281   3.147
37670W        W 9930  32.725  42.259   1.415
37671W        W 9931  36.384  17.721   1.274
37672W        W 9932   1.287   7.804   0.315
37673W        W 9933  44.978  33.637  11.248
37674W        W 9934  12.905  40.527  13.451
37675W        W 9935  24.059  39.554   5.185
37676W        W 9936   9.607  23.431  12.605
37677W        W 9937  41.491   2.257  13.875
37678W        W 9938  31.387  21.657  10.668
37679W        W 9939  34.040  15.651  11.207
37680W        W 9940  24.245   6.171  13.868
37681W        W 9941  13.673  14.464  10.658
37682W        W 9942  33.011   3.678   2.878
37683W        W 9943   2.356  35.439   2.157
37684W        W 9944  22.463  35.628   4.761
37685W        W 9945   7.699  43.561   0.348
37686W        W 9946  36.133  32.907  12.481
37687W        W 9947   5.686  33.143   2.376
37688W        W 9948  24.561  40.063   0.480
37689W        W 9949  23.073  10.719   4.719
37690W        W 9950  26.197  16.241   0.650
37691W        W 9951  10.207  17.159  10.590
37692W        W 9952   2.775  27.266   3.629
37693W        W 9953  41.540  15.168   2.149
37694W        W 9954  17.656  28.415   0.606
37695W        W 9955  25.252  14.869  11.031
37696W        W 9956  34.159  16.645  13.390
37697W        W 9957  21.039   6.221   0.495
37698W        W 9958  19.180  10.853  14.397
37699W        W 9959  19.038  27.127  10.627
37700W        W 9960   4.110  42.934  10.567
37701W        W 9961  19.187  39.996   4.150
37702W        W 9962  24.929   2.660   2.265
37703W        W 9963  10.260  39.400  13.437
37704W        W 9964   9.263  19.524  12.897
37705W        W 9965  28.548  34.061  11.097
37706W        W 9966  18.301  14.210   0.357
37707W        W 9967   8.863  26.007   4.573
37708W        W 9968  42.098  30.098  12.575
37709W        W 9969  42.898  19.140  14.350
37710W        W 9970  36.976  41.266   0.049
37711W        W 9971  38.861  39.250  14.312
37712W        W 9972  19.320   1.620   0.803
37713W        W 9973  37.439   6.080  14.769
37714W        W 9974  33.316  19.669   3.180
37715W        W 9975   7.872  37.860   1.755
37716W        W 9976  17.212  15.535   3.375
37717W        W 9977   8.802  17.878  14.330
37718W        W 9978  27.229  26.225  10.838
37719W        W 9979  41.057  33.347   1.266
37720W        W 9980  41.390  11.888   2.886
37721W        W 9981  26.821  37.803   3.694
37722W        W 9982  42.342  22.575   2.589
37723W        W 9983  13.143  24.805  11.228
37724W        W 9984   9.125  31.138   4.600
37725W        W 9985  18.990  34.118   3.232
37726W        W 9986  35.832  20.704   2.238
37727W        W 9987  20.119   7.569   5.518
37728W        W 9988  18.190  17.667  12.070
37729W        W 9989  35.792  25.409  12.786
37730W        W 9990  18.554  10.765  12.581
37731W        W 9991   4.680  41.820  13.427
37732W        W 9992  33.852  21.594   1.756
37733W        W 9993  42.070  11.202   4.611
37734W        W 9994  35.426  40.082  13.373
37735W        W 9995   6.904  38.126  14.375
37736W        W 9996  40.283  28.476  14.100
37737W        W 9997  42.291   0.749   3.703
37738W        W 9998  36.990  18.802  11.143
37739W        W 9999   3.526   3.673   1.336
37740W        W10000  30.693   5.148  12.807
37741W        W10001   2.824   1.232   4.580
37742W        W10002  42.078  32.386   3.655
37743W        W10003  43.330   8.907   4.155
37744W        W10004  28.457  30.045  12.958
37745W        W10005  14.226  31.157   0.173
37746W        W10006  35.540   3.410  12.360
37747W        W10007  35.499   9.388   3.299
37748W        W10008  28.329  17.386  11.903
37749W        W10009  27.515  28.827   4.413
37750W        W10010  35.026  31.769   0.974
37751W        W10011   8.224  17.129   1.020
37752W        W10012  16.997  43.783  13.436
37753W        W10013  11.131  13.127   2.380
37754W        W10014  35.272  37.449   5.053
37755W        W10015   1.949  25.727   1.408
37756W        W10016  12.482   7.741  12.858
37757W        W10017   7.393  10.029   1.959
37758W        W10018  29.782  16.853  14.846
37759W        W10019  20.754  31.426   0.665
37760W        W10020  34.533   5.850  12.253
37761W        W10021  19.301  16.301  13.896
37762W        W10022  23.129  34.300  12.999
37763W        W10023  11.858  17.793   1.585
37764W        W10024  24.504  18.944  13.437
37765W        W10025  38.238  23.070  14.999
37766W        W10026   0.802  41.827   3.170
37767W        W10027  15.135  22.599   1.442
37768W        W10028  15.346  40.946   1.756
37769W        W10029  26.454  14.752   2.369
37770W        W10030  32.889   1.746   0.502
37771W        W10031  21.830  34.011  11.468
37772W        W10032  10.342  43.256  12.044
37773W        W10033   4.068  44.479   4.112
37774W        W10034  16.562  11.170  13.412
37775W        W10035   4.759  27.455  13.944
37776W        W10036  16.550  34.458   3.204
37777W        W10037  29.934  35.849   2.353
37778W        W10038   9.319  23.605   3.984
37779W        W10039  15.339   9.789   3.869
37780W        W10040  12.263  23.700   4.400
37781W        W10041  25.661  41.678  12.890
37782W        W10042   8.897  22.941   4.755
37783W        W10043  11.559  25.840  13.880
37784W        W10044  44.093  22.153   1.364
37785W        W10045  42.275  16.706  13.819
37786W        W10046  29.485  24.114   4.917
37787W        W10047  12.172  35.541   3.382
37788W        W10048  26.475  34.635   4.113
37789W        W10049  15.248  30.612  11.004
37790W        W10050  31.223  19.901  11.015
37791W        W10051  42.333  28.515   4.104
37792W        W10052  40.311  33.557  14.069
37793W        W10053  36.629   2.640  12.475
37794W        W10054   0.466   7.331   2.248
37795W        W10055  20.608  36.069  14.280
37796W        W10056  28.538  37.415   2.665
37797W        W10057  24.003   8.298  11.538
37798W        W10058   5.947  25.696   3.206
37799W        W10059  33.920  24.426   0.876
37800W        W10060  42.903  23.741  13.386
37801W        W10061  40.765   7.606  12.458
37802W        W10062  29.333   6.731  14.916
37803W        W10063  33.141  22.177   0.358
37804W        W10064  15.619  11.514   3.803
37805W        W10065  37.391   5.319   3.467
37806W        W10066  15.652   7.912  11.462
37807W        W10067  14.645  28.412  12.239
37808W        W10068   1.800  15.729   4.698
37809W        W10069  34.675   6.740  12.391
37810W        W10070   5.402  23.793   1.823
37811W        W10071   0.854  18.732  11.573
37812W        W10072  21.311  35.698   3.569
37813W        W10073  10.393  10.829  11.637
37814W        W10074  17.582  16.119   0.829
37815W        W10075  24.119   2.935   0.263
37816W        W10076   7.823  29.583   0.033
37817W        W10077  18.294   3.371   1.795
37818W        W10078  22.057  37.871  14.024
37819W        W10079  18.160  19.428   0.216
37820W        W10080   6.778  19.584  11.564
37821W        W10081  17.417  17.481   2.592
37822W        W10082  44.837  21.233  14.057
37823W        W10083  34.956  41.403  14.777
37824W        W10084  32.345  26.799   0.377
37825W        W10085  11.213  18.290  14.891
37826W        W10086  40.424  26.467  12.069
37827W        W10087  21.961  27.813  10.635
37828W        W10088   8.307  10.758  14.559
37829W        W10089   0.499   0.837  11.131
37830W        W10090  10.373  13.636   0.743
37831W        W10091  12.570  40.132  13.415
37832W        W10092  32.586  33.411  14.407
37833W        W10093  42.510  16.985   4.800
37834W        W10094  16.944  24.154  11.592
37835W        W10095  23.698  31.461  11.185
37836W        W10096  43.243   4.348   1.304
37837W        W10097   9.321  22.240   3.851
37838W        W10098  16.213  44.282  12.115
37839W        W10099   9.895  23.255   0.318
37840W        W10100  17.624  32.499   4.587
37841W        W10101  36.337  26.492   0.891
37842W        W10102   8.793  34.091   3.672
37843W        W10103  39.852  18.352  13.339
37844W        W10104   8.935  11.590  11.081
37845W        W10105  43.035   8.774   0.393
37846W        W10106  34.893  16.238   3.680
37847W        W10107  32.365  11.759  11.834
37848W        W10108  37.608  34.285   0.926
37849W        W10109  31.880  31.892  10.226
37850W        W10110  20.743  33.512  13.564
37851W        W10111  24.445  25.694  14.939
37852W        W10112  44.180  37.730  11.551
37853W        W10113  13.805  30.949  10.103
37854W        W10114  30.406  38.577   2.187
37855W        W10115  27.951  33.172   1.591
37856W        W10116  12.277   8.227   1.053
37857W        W10117  10.101  32.079  14.531
37858W        W10118  26.736  14.344   2.240
37859W        W10119  32.981  40.954  14.345
37860W        W10120  29.319   6.539   3.421
37861W        W10121  34.784  23.712   2.282
37862W        W10122  14.058   9.149   0.580
37863W        W10123  44.574   8.687   4.644
37864W        W10124  36.081  40.205  13.546
37865W        W10125  12.540  39.610   3.419
37866W        W10126  17.160  12.654   2.238
37867W        W10127   6.577   7.231  11.681
37868W        W10128  28.126  11.868  13.937
37869W        W10129   0.380  43.942  13.130
37870W        W10130  44.046  14.910  10.998
37871W        W10131   1.804  30.477  10.601
37872W        W10132  23.225  13.333  13.462
37873W        W10133  33.255  20.169  12.450
37874W        W10134  10.900  34.900   3.633
37875W        W10135  27.050   9.900   0.567
37876W        W10136  10.739   2.143  10.783
37877W        W10137  14.097  27.517  14.258
37878W        W10138  42.400  30.970   4.092
37879W        W10139  37.071  25.656  13.014
37880W        W10140  38.562  28.433  10.681
37881W        W10141  28.719  22.022   1.937
37882W        W10142  18.623  12.391  14.672
37883W        W10143  13.761  13.892  12.392
37884W        W10144  15.413  43.545   3.164
37885W        W10145  22.050  19.051  10.017
37886W        W10146  41.950  38.829   1.410
37887W        W10147  29.901   2.056  10.264
37888W        W10148   6.153   4.922   0.221
37889W        W10149  17.038  42.542  11.484
37890W        W10150   8.590  34.936   1.284
37891W        W10151  18.904  39.900   0.475
37892W        W10152  42.346   2.373  11.012
37893W        W10153  31.402  20.992  12.381
37894W        W10154  15.617  18.780  12.711
37895W        W10155  13.034  41.911   0.341
37896W        W10156  18.907  13.731  14.840
37897W        W10157  14.240   4.295  11.676
37898W        W10158  38.307  27.835  13.033
37899W        W10159   6.641   9.788   3.238
37900W        W10160   4.681  28.681   4.845
37901W        W10161  17.864  17.660   2.686
37902W        W10162   8.297  40.375   4.332
37903W        W10163  30.114  32.567   2.592
37904W        W10164  13.662  38.824   1.891
37905W        W10165  13.832  20.144  14.368
37906W        W10166  10.467  12.835  11.987
37907W        W10167  25.836  22.569  11.090
37908W        W10168  24.125  12.500   4.952
37909W        W10169  17.111  33.352   0.249
37910W        W10170  44.952  10.483  10.699
37911W        W10171   8.517   4.055  11.213
37912W        W10172  15.685  31.335  13.770
37913W        W10173  17.298  14.919  14.669
37914W        W10174  40.610  35.238   4.651
37915W        W10175  14.651   3.823  11.048
37916W        W10176  21.220  40.336   0.761
37917W        W10177  15.761   7.162   4.584
37918W        W10178   0.360  17.587   4.756
37919W        W10179  23.163  21.045  10.282
37920W        W10180  22.232  13.823   4.648
37921W        W10181  24.511  44.986   4.006
37922W        W10182   9.777   0.804   4.709
37923W        W10183  26.802  18.087   1.684
37924W        W10184  15.586   5.159  13.541
37925W        W10185  16.797  15.913   4.024
37926W        W10186  43.940  40.256   3.931
37927W        W10187   7.367  32.997  11.074
37928W        W10188  21.680   3.435   1.216
37929W        W10189  28.570  16.370   0.016
37930W        W10190  17.267  18.439  13.113
37931W        W10191   8.249   2.930  12.068
37932W        W10192  21.775  22.756   4.189
37933W        W10193  33.704  33.580   2.305
37934W        W10194  33.778  10.219   4.548
37935W        W10195  35.141  44.590  10.600
37936W        W10196   2.764  27.662  13.503
37937W        W10197  26.174   2.401  11.970
37938W        W10198  13.357  12.624   1.192
37939W        W10199   2.117  12.513  10.674
37940W        W10200  44.971  27.224  14.349
37941W        W10201  33.295  24.536   3.757
37942W        W10202   0.941  11.370  14.214
37943W        W10203  27.076  11.964   0.304
37944W        W10204  29.923  26.127  13.350
37945W        W10205  12.854   1.166  11.362
37946W        W10206  19.064   9.155  10.621
37947W        W10207   8.314  29.660   0.261
37948W        W10208  12.777  12.663  14.570
37949W        W10209  33.998   6.737  14.030
37950W        W10210   9.281  19.683   5.232
37951W        W10211   9.384  30.691  11.086
37952W        W10212   2.562  15.530  14.920
37953W        W10213  34.688  31.200  12.942
37954W        W10214   1.714  38.535  12.385
37955W        W10215  24.612  29.588  11.165
37956W        W10216  22.776  36.654   4.060
37957W        W10217   4.376  28.691  12.472
37958W        W10218  18.145  28.538  11.155
37959W        W10219  19.027   8.674  13.865
37960W        W10220   7.206  21.293   1.225
37961W        W10221  15.111  13.861   9.787
37962W        W10222  17.529  36.060  13.041
37963W        W10223  34.360  20.831   4.687
37964W        W10224  34.912  31.661  13.027
37965W        W10225  26.679  19.845   4.565
37966W        W10226  41.470  42.684  12.163
37967W        W10227  37.323  41.920   3.187
37968W        W10228  14.137  37.823   2.189
37969W        W10229  38.488  25.662   2.394
37970W        W10230   0.547   4.822  14.476
37971W        W10231  24.706  24.927   2.037
37972W        W10232   7.454   0.336   0.568
37973W        W10233  11.258  32.192   0.587
37974W        W10234  27.146  22.636  13.438
37975W        W10235  23.539  28.219   4.545
37976W        W10236  26.192  41.850  12.090
37977W        W10237  15.644  14.720   0.857
37978W        W10238   5.486   7.753  13.843
37979W        W10239  42.130  14.389   1.738
37980W        W10240  14.682  14.683  12.378
37981W        W10241   8.707  38.965  12.583
37982W        W10242  42.014   3.794   0.281
37983W        W10243  12.005  40.883   0.225
37984W        W10244  32.985   4.967   2.354
37985W        W10245  28.285  17.134   1.336
37986W        W10246  37.349  24.699  12.427
37987W        W10247  39.486  18.161  11.053
37988W        W10248   6.602  35.770   0.725
37989W        W10249  18.562  30.104  11.279
37990W        W10250   6.971  43.047  14.848
37991W        W10251  23.258  44.814  11.526
37992W        W10252  43.786  37.627  11.981
37993W        W10253   7.609  35.400   1.973
37994W        W10254  27.703   2.621  14.810
37995W        W10255  44.224  41.328  12.549
37996W        W10256  40.301  13.329   2.285
37997W        W10257  20.042   2.877  14.454
37998W        W10258  11.368  11.901   2.637
37999W        W10259   2.938  27.543  12.995
38000W        W10260   3.688  11.890  12.469
38001W        W10261  43.280   7.489   3.654
38002W        W10262  10.608   1.758  13.220
38003W        W10263  37.605  35.163  13.461
38004W        W10264  32.637   2.745   4.579
38005W        W10265  24.501  29.788  14.492
38006W        W10266  37.628  30.876   3.646
38007W        W10267  15.652  27.167   5.136
38008W        W10268  41.504  18.051  13.047
38009W        W10269   7.953  29.180   4.189
38010W        W10270  32.645  36.447   2.779
38011W        W10271  41.357  15.586  10.732
38012W        W10272  36.058   4.771  10.655
38013W        W10273  20.964  20.697   1.761
38014W        W10274  41.806  19.152  10.637
38015W        W10275  10.131  20.751  14.454
38016W        W10276   0.110   7.971   3.680
38017W        W10277   7.841  42.045   3.175
38018W        W10278  25.902  19.266  11.987
38019W        W10279  43.208  29.160  12.802
38020W        W10280  10.297   1.130   4.044
38021W        W10281  18.545  37.374   3.218
38022W        W10282  23.934  27.181  12.351
38023W        W10283  12.773  24.443  11.193
38024W        W10284  40.076   2.569  12.385
38025W        W10285   5.905  32.140   0.414
38026W        W10286  26.190  19.032  14.892
38027W        W10287  29.078   2.340   1.835
38028W        W10288   8.837  40.774  12.124
38029W        W10289  16.900   3.254   5.136
38030W        W10290  17.317  20.145  14.993
38031W        W10291  39.941  44.256   0.348
38032W        W10292  18.450  20.603   2.200
38033W        W10293  23.592  27.477  14.399
38034W        W10294  34.174  21.788   2.169
38035W        W10295  20.963  35.943   4.219
38036W        W10296  16.143  16.627  13.589
38037W        W10297  18.555  22.111  14.833
38038W        W10298  29.572  32.072   4.977
38039W        W10299   9.025  33.220  12.547
38040W        W10300   9.655  17.619  12.358
38041W        W10301  30.120  36.954   3.367
38042W        W10302   7.623  15.849  10.659
38043W        W10303  42.827  36.336  11.381
38044W        W10304  32.890  36.277   1.474
38045W        W10305  31.537  23.745   0.793
38046W        W10306  32.654  23.184  10.860
38047W        W10307  25.208  17.751  14.316
38048W        W10308  35.861  36.888  12.996
38049W        W10309  20.108  24.947  10.302
38050W        W10310   8.742  33.417  12.025
38051W        W10311  14.402  38.991  12.251
38052W        W10312  17.367   2.751   4.103
38053W        W10313  27.168  10.120   2.891
38054W        W10314  20.154   7.342   0.547
38055W        W10315  34.385   4.358   2.292
38056W        W10316  39.435  12.388   4.207
38057W        W10317  39.952  19.941  11.533
38058W        W10318  38.398  29.513   0.838
38059W        W10319  17.126   1.917   4.686
38060W        W10320  31.754  44.588  11.055
38061W        W10321   4.795  14.868  13.867
38062W        W10322  19.312   9.384  11.944
38063W        W10323  21.194  32.980   5.069
38064W        W10324  35.939  24.154  10.996
38065W        W10325  12.741  43.704  10.754
38066W        W10326  31.884  41.321  14.189
38067W        W10327  34.347   3.835   2.328
38068W        W10328  28.455  36.446   1.718
38069W        W10329   4.298  41.722   1.949
38070W        W10330   7.386  14.802  12.289
38071W        W10331  42.053  42.724   4.324
38072W        W10332  22.171  12.906   4.836
38073W        W10333  18.702  40.114  13.283
38074W        W10334  35.615   8.689  14.490
38075W        W10335  26.300   6.640   0.483
38076W        W10336  38.367   9.004  13.034
38077W        W10337  24.548  39.545  11.597
38078W        W10338   2.879   6.370   4.398
38079W        W10339  35.776  29.317   2.255
38080W        W10340  40.019  29.389  12.874
38081W        W10341  24.292  19.993   2.321
38082W        W10342  21.784  20.122   3.197
38083W        W10343  37.370  27.737  14.433
38084W        W10344  15.454  16.985   4.140
38085W        W10345  28.321  13.726   4.523
38086W        W10346  10.701  28.716   1.570
38087W        W10347  22.822  25.945   2.199
38088W        W10348  34.964   3.434  11.148
38089W        W10349  22.124  24.508   0.418
38090W        W10350   3.924  44.938  13.834
38091W        W10351   2.003   2.878  11.172
38092W        W10352  26.616  39.560   1.859
38093W        W10353  27.089  26.060   3.195
38094W        W10354   2.699  26.880  12.457
38095W        W10355  31.962  36.379  14.124
38096W        W10356  27.420  31.690   2.688
38097W        W10357   7.947  19.283  11.067
38098W        W10358   9.334  36.786   3.265
38099W        W10359  43.262  15.347  14.888
38100W        W10360  26.017   6.219  10.788
38101W        W10361   0.935  10.312   1.860
38102W        W10362   8.964  41.883  13.395
38103W        W10363  11.780  30.766  12.858
38104W        W10364  22.234  44.379  13.496
38105W        W10365  15.557  32.928   2.330
38106W        W10366  32.530   6.438   0.303
38107W        W10367  22.160  23.172  10.408
38108W        W10368  27.193   7.884  14.492
38109W        W10369  35.529  13.696   1.417
38110W        W10370  26.045   6.287   2.016
38111W        W10371  34.554  44.378  12.940
38112W        W10372  17.800  21.353   2.854
38113W        W10373  14.568  35.816   3.324
38114W        W10374  21.246  28.968   1.761
38115W        W10375  13.794  22.981   2.026
38116W        W10376  40.507  22.646   4.137
38117W        W10377  24.443  27.858  14.434
38118W        W10378  30.644  32.110   4.630
38119W        W10379   3.171  11.379  13.382
38120W        W10380  21.018  25.047  12.145
38121W        W10381  23.121  42.862  14.701
38122W        W10382  35.012   2.524   1.266
38123W        W10383  12.176  40.741   2.071
38124W        W10384  16.528  29.557  10.748
38125W        W10385   1.642  33.229  11.650
38126W        W10386  31.338   0.892   2.044
38127W        W10387   4.093  26.194   5.100
38128W        W10388   3.360  23.591  13.042
38129W        W10389  34.425  23.721   3.050
38130W        W10390   1.754  39.509  14.734
38131W        W10391  37.883  11.066   2.231
38132W        W10392   8.727  18.750   4.344
38133W        W10393  38.475   9.423   4.203
38134W        W10394  40.014  26.552   4.220
38135W        W10395  34.949  38.778   2.602
38136W        W10396  21.352  17.831  14.318
38137W        W10397  11.114  16.791  12.580
38138W        W10398   5.672   4.768  13.921
38139W        W10399  23.538  16.206  14.825
38140W        W10400  15.214  30.114   1.602
38141W        W10401  28.275   2.660   3.949
38142W        W10402  33.406  37.515   0.886
38143W        W10403  29.647  21.218  12.591
38144W        W10404   0.573  18.619  13.389
38145W        W10405   9.163  18.245  14.429
38146W        W10406  37.557  36.285   0.995
38147W        W10407  40.056  40.350  14.694
38148W        W10408   8.223  33.366   2.537
38149W        W10409  22.055  14.727  11.746
38150W        W10410   5.816   6.461   0.915
38151W        W10411  35.483  24.602  13.635
38152W        W10412  21.121   1.984  12.386
38153W        W10413  30.829  25.133   0.252
38154W        W10414  22.652  36.996  14.075
38155W        W10415  41.830  10.261  11.145
38156W        W10416   2.972   2.005   3.373
38157W        W10417   9.401   0.978   1.345
38158W        W10418  26.282  32.528   4.010
38159W        W10419  27.265  24.053   3.706
38160W        W10420   9.721  42.798  14.863
38161W        W10421  16.192   9.381   2.847
38162W        W10422  13.614  26.297  10.619
38163W        W10423  38.364  40.621   4.711
38164W        W10424  18.108  11.626   0.380
38165W        W10425  23.201  37.505  12.462
38166W        W10426  39.009  31.985  14.824
38167W        W10427  11.741  31.591  11.871
38168W        W10428  20.559  31.934   0.776
38169W        W10429  40.490   6.101   2.836
38170W        W10430  39.943  23.963  11.433
38171W        W10431   8.690  33.447  11.161
38172W        W10432  42.680  40.229  10.651
38173W        W10433  36.358  14.320  10.678
38174W        W10434  20.289  14.477  13.871
38175W        W10435  30.561   6.022  12.434
38176W        W10436  10.155  24.766   1.152
38177W        W10437   9.607   3.541  12.264
38178W        W10438  29.600  10.862  14.959
38179W        W10439  41.722  19.734  12.226
38180W        W10440  28.036  26.074   3.318
38181W        W10441   9.226  32.246   0.672
38182W        W10442  30.053  16.797   3.860
38183W        W10443  22.796  18.654   0.375
38184W        W10444  20.373  30.050  13.970
38185W        W10445  37.010   4.945  12.550
38186W        W10446   7.820  23.612  10.312
38187W        W10447  30.246  28.376  14.521
38188W        W10448  31.724  27.125   0.047
38189W        W10449  24.059   1.674   2.320
38190W        W10450  44.954  22.566  14.627
38191W        W10451  11.791  25.763   2.237
38192W        W10452  33.067   9.356   2.436
38193W        W10453  26.385  22.722   0.294
38194W        W10454  17.264  12.765   3.203
38195W        W10455  21.736  13.629   3.282
38196W        W10456   6.932   7.048   3.582
38197W        W10457  19.697  23.291  13.917
38198W        W10458   4.778  20.443   4.735
38199W        W10459  17.143  15.087   0.341
38200W        W10460  34.634  12.836  10.798
38201W        W10461  39.499  11.101   2.824
38202W        W10462   4.756  41.279   2.861
38203W        W10463  20.769  15.391  12.918
38204W        W10464   3.885  27.120   2.284
38205W        W10465  27.995  19.711  13.388
38206W        W10466  18.268  13.793  14.035
38207W        W10467   9.805   7.296  12.991
38208W        W10468  43.787  22.002  12.267
38209W        W10469  18.556  21.406   4.419
38210W        W10470  44.341  34.167  13.596
38211W        W10471  24.772  14.115   3.291
38212W        W10472  43.030  41.782   4.228
38213W        W10473  39.283  23.297   3.681
38214W        W10474  43.411  19.425   0.524
38215W        W10475  44.918  20.113   1.424
38216W        W10476  42.383  34.809  13.946
38217W        W10477  28.613  18.244  12.889
38218W        W10478  24.225  30.701   0.246
38219W        W10479  37.986  10.160   5.402
38220W        W10480  24.726  33.152   4.022
38221W        W10481   8.380   6.992  12.080
38222W        W10482   8.133  14.786   3.145
38223W        W10483  39.834  27.086   3.416
38224W        W10484  16.159  33.667   4.122
38225W        W10485  24.222  26.734   4.345
38226W        W10486  24.279  16.526  11.136
38227W        W10487  41.933  16.098   4.053
38228W        W10488   2.352  39.052   0.326
38229W        W10489  30.463  44.339  13.967
38230W        W10490  16.083  40.691   3.636
38231W        W10491  24.688  11.795  12.629
38232W        W10492  43.481  42.245   1.786
38233W        W10493  40.847  21.693   0.823
38234W        W10494  11.861  25.980  12.554
38235W        W10495  20.778   5.846   1.431
38236W        W10496  17.177  25.492  11.525
38237W        W10497  41.869  18.977  14.459
38238W        W10498  38.296  25.529   1.308
38239W        W10499  10.730  28.399   0.268
38240W        W10500  14.002  35.980  12.578
38241W        W10501   8.251   3.906  13.006
38242W        W10502  20.189  36.898   1.531
38243W        W10503  16.446  18.648  11.583
38244W        W10504  34.325   7.356   0.424
38245W        W10505  12.560  34.687   1.742
38246W        W10506  44.024  10.130  14.273
38247W        W10507  31.437  19.150  14.764
38248W        W10508  36.504   0.978  14.213
38249W        W10509  43.253  30.914  12.694
38250W        W10510  16.112   2.434   3.760
38251W        W10511  26.654  18.983   2.180
38252W        W10512  12.241   9.825  13.947
38253W        W10513  35.845   4.414   2.339
38254W        W10514  27.612  24.295  11.656
38255W        W10515  22.198  31.576  13.585
38256W        W10516  38.468  27.567  14.522
38257W        W10517  41.946  13.040  12.549
38258W        W10518   5.375  16.329  14.931
38259W        W10519   5.914  24.630  14.531
38260W        W10520  20.576   3.302  11.548
38261W        W10521  39.555  29.877  11.079
38262W        W10522  13.361  35.801  10.677
38263W        W10523  40.003   2.371   4.711
38264W        W10524  28.294  35.556   1.938
38265W        W10525  13.655  34.040   4.394
38266W        W10526  16.241   7.794   2.341
38267W        W10527  44.643  13.528   3.845
38268W        W10528  28.044  19.078  14.154
38269W        W10529  44.089   5.489   4.133
38270W        W10530  25.782   2.952   1.329
38271W        W10531  22.609  34.738  12.206
38272W        W10532  15.762  13.331   3.936
38273W        W10533   0.070  42.312   0.303
38274W        W10534  29.192   2.830  12.409
38275W        W10535  30.222   5.577   1.510
38276W        W10536  23.753   1.265   4.620
38277W        W10537  22.699  41.582   2.701
38278W        W10538  44.315   3.419   3.364
38279W        W10539  42.525  21.559  12.397
38280W        W10540  34.404  14.824   3.399
38281W        W10541  23.513  22.093  14.702
38282W        W10542   2.366  25.070   4.236
38283W        W10543   0.913  23.471  12.016
38284W        W10544  15.379  37.301   4.412
38285W        W10545  38.377  10.918   5.095
38286W        W10546   6.255  13.979  14.860
38287W        W10547  11.348   9.956  14.027
38288W        W10548   0.946   1.157  13.419
38289W        W10549  18.019  34.329   1.361
38290W        W10550  30.631  12.599  10.800
38291W        W10551   0.811   0.108   0.960
38292W        W10552   7.326  22.679  13.025
38293W        W10553  32.703  23.480   0.865
38294W        W10554   5.318  36.608   0.229
38295W        W10555  27.060  38.570   0.856
38296W        W10556  26.938  40.796   1.327
38297W        W10557  13.651  35.378  10.594
38298W        W10558   0.944  18.607   3.513
38299W        W10559  39.065  39.849   0.870
38300W        W10560  31.604  34.408   0.972
38301W        W10561  35.945  21.758  11.455
38302W        W10562  12.641  12.237  14.322
38303W        W10563  26.521   1.023  11.461
38304W        W10564  25.047   1.438  11.682
38305W        W10565   4.874   8.114  14.383
38306W        W10566  20.679  15.309   4.845
38307W        W10567   3.130  23.941  14.451
38308W        W10568  14.790  26.987   4.085
38309W        W10569  10.693  24.175  14.386
38310W        W10570   0.706  32.530  12.050
38311W        W10571   6.435  19.447   3.264
38312W        W10572  17.633  27.920   4.102
38313W        W10573   5.479   6.317   3.320
38314W        W10574  17.579  22.533  14.395
38315W        W10575  22.008  24.956   2.825
38316W        W10576  44.224  37.791   1.006
38317W        W10577  23.215  24.696  14.389
38318W        W10578  31.898   2.329   2.887
38319W        W10579  40.394  37.133   0.027
38320W        W10580   1.031  14.271  10.092
38321W        W10581  18.864   6.156   4.280
38322W        W10582  25.293  20.092   3.412
38323W        W10583  16.652  35.397   3.589
38324W        W10584   2.738  19.313   2.653
38325W        W10585   5.235  30.428  13.510
38326W        W10586  13.812  11.868  12.672
38327W        W10587  14.042  35.509   3.598
38328W        W10588   2.775  10.642   2.865
38329W        W10589   5.330  21.613   3.925
38330W        W10590  39.926  12.706   3.178
38331W        W10591  35.804  24.330   3.126
38332W        W10592  12.347  12.662  14.249
38333W        W10593  10.693  40.220  14.907
38334W        W10594   5.794  20.085  10.936
38335W        W10595  39.967  30.988  14.520
38336W        W10596  25.325  17.538   3.665
38337W        W10597  37.955   4.521   4.767
38338W        W10598  18.707   5.271   0.038
38339W        W10599   2.548  12.029  14.497
38340W        W10600  39.282  34.130   3.716
38341W        W10601  16.707  25.431  10.467
38342W        W10602  11.783  44.356   2.161
38343W        W10603  15.143   2.318   1.981
38344W        W10604  19.988   3.254   3.856
38345W        W10605  19.284   6.301   3.314
38346W        W10606  42.187  33.101  13.323
38347W        W10607  12.725  36.592   2.713
38348W        W10608  36.011   9.528  14.839
38349W        W10609  24.201  21.441   4.200
38350W        W10610  24.196  38.277  13.746
38351W        W10611  17.415   2.629  11.808
38352W        W10612  19.319  29.405  12.449
38353W        W10613  31.684  24.059   1.182
38354W        W10614  12.202  21.058  12.023
38355W        W10615  44.698  35.598   0.515
38356W        W10616  17.235  24.859   4.629
38357W        W10617   9.187   7.864  14.359
38358W        W10618  15.585  22.294  13.883
38359W        W10619  31.989  43.849  14.395
38360W        W10620  40.019  39.111   1.972
38361W        W10621   2.376   4.707   3.795
38362W        W10622  23.716  32.396   3.623
38363W        W10623  17.946  30.688   0.748
38364W        W10624  43.374  38.047   1.954
38365W        W10625   1.594   6.365  10.698
38366W        W10626  16.335  42.097   3.056
38367W        W10627  20.561  13.353   1.025
38368W        W10628   3.868  15.730  11.696
38369W        W10629  16.313  33.611  13.095
38370W        W10630  28.133  33.504  14.814
38371W        W10631  38.181  35.978   2.164
38372W        W10632   4.273  26.669   4.968
38373W        W10633  10.235  24.639   4.452
38374W        W10634   5.975  41.712  14.272
38375W        W10635  36.105  37.570  14.247
38376W        W10636  39.502  28.089  11.928
38377W        W10637  31.190   3.874  10.950
38378W        W10638  16.393  42.263   1.302
38379W        W10639   8.417  37.030   4.619
38380W        W10640  19.659  37.321   0.884
38381W        W10641   1.930  41.008   4.733
38382W        W10642   7.914  18.478  12.234
38383W        W10643  27.961  27.043   2.457
38384W        W10644  20.205  43.731   4.157
38385W        W10645   8.262  31.971  13.385
38386W        W10646  21.346  44.248   1.278
38387W        W10647   4.352  35.481  10.708
38388W        W10648   8.257   3.709   1.716
38389W        W10649  26.853  41.600  10.434
38390W        W10650  13.475  36.015   2.475
38391W        W10651  29.100  15.805   4.276
38392W        W10652  42.230  21.442   0.992
38393W        W10653  24.223  33.160   4.797
38394W        W10654  28.421  24.833  10.653
38395W        W10655  38.279  22.450  13.275
38396W        W10656  31.079   1.143   4.584
38397W        W10657  26.178  20.070  14.862
38398W        W10658  13.101  26.107  12.003
38399W        W10659  25.745   2.463   4.885
38400W        W10660   6.867  31.636   1.239
38401W        W10661  34.922  19.576   4.354
38402W        W10662   6.046  32.858   3.681
38403W        W10663   1.732   4.435   0.425
38404W        W10664  32.011  32.159   4.586
38405W        W10665  17.749   9.640   3.535
38406W        W10666  29.105  10.806   3.532
38407W        W10667   6.256  36.597  11.198
38408W        W10668  40.278  40.967  12.938
38409W        W10669   2.279  17.090   0.167
38410W        W10670  44.391  31.602   3.089
38411W        W10671  21.553  14.255  13.750
38412W        W10672  25.527  29.927  14.431
38413W        W10673  17.604  30.483  10.821
38414W        W10674  22.557  36.296   0.234
38415W        W10675  32.822  25.705   3.818
38416W        W10676  33.471  41.315  13.507
38417W        W10677   1.000  41.612  11.240
38418W        W10678  28.625  30.623  12.059
38419W        W10679  42.270   6.715  13.526
38420W        W10680  37.776   1.949  10.976
38421W        W10681  26.689  13.613  12.067
38422W        W10682   8.487  38.528   1.966
38423W        W10683  38.717  15.485  12.862
38424W        W10684  26.614  38.496  10.884
38425W        W10685   6.434  27.643  14.971
38426W        W10686   2.781  31.353  11.126
38427W        W10687  30.520  30.867   2.411
38428W        W10688  31.013  12.101  13.555
38429W        W10689  23.513  36.883   3.335
38430W        W10690  21.596   1.881   2.501
38431W        W10691  21.284  21.969   3.184
38432W        W10692  11.590  40.435   3.172
38433W        W10693  14.257  27.403   2.399
38434W        W10694  13.603  25.081  12.044
38435W        W10695  33.474  18.701   0.771
38436W        W10696  13.201  37.454   1.398
38437W        W10697   2.148  44.929  12.432
38438W        W10698  42.741  12.380  12.851
38439W        W10699   0.742  12.639  11.172
38440W        W10700   9.678  26.919   4.140
38441W        W10701  14.361  25.180   5.077
38442W        W10702  20.257   7.752   1.914
38443W        W10703  28.186  26.924  10.708
38444W        W10704  10.203  19.988   0.842
38445W        W10705  44.951  43.538   2.762
38446W        W10706  44.029  21.102  12.877
38447W        W10707  29.130  44.735   3.710
38448W        W10708   5.957   0.926  10.519
38449W        W10709  26.099  31.522   3.735
38450W        W10710  28.650  13.006   2.524
38451W        W10711  35.401  40.003   1.470
38452W        W10712  21.158  19.194  14.782
38453W        W10713  36.589  23.464  11.337
38454W        W10714  32.162  41.281   1.293
38455W        W10715  43.396   6.361  13.894
38456W        W10716  25.824  43.314   0.341
38457W        W10717  15.191   0.924  13.912
38458W        W10718  22.698  14.290  12.545
38459W        W10719  30.048  23.042  10.709
38460W        W10720  37.621  12.492   1.248
38461W        W10721  17.562  10.369  11.008
38462W        W10722  12.413  24.452  14.610
38463W        W10723   2.296  33.973  14.812
38464W        W10724  21.947  40.221   0.201
38465W        W10725   8.765   2.449   1.881
38466W        W10726  18.352  24.044  12.952
38467W        W10727   4.022  19.185   1.420
38468W        W10728   3.391  12.579   4.767
38469W        W10729  39.829  36.121   2.344
38470W        W10730   4.256  43.871   0.444
38471W        W10731  41.063   6.673   2.439
38472W        W10732  24.298  21.659  11.480
38473W        W10733  28.468   4.488  13.588
38474W        W10734  12.528  20.563   3.537
38475W        W10735  27.535   5.744   2.373
38476W        W10736  29.392  42.912   3.675
38477W        W10737  12.556   3.280  10.842
38478W        W10738   8.346  16.266   4.430
38479W        W10739  14.667  44.831  14.491
38480W        W10740   0.285  35.163   1.211
38481W        W10741  17.826  42.646   3.341
38482W        W10742  33.888   8.760   0.396
38483W        W10743   8.770  42.215   3.805
38484W        W10744  21.969  31.028   1.455
38485W        W10745  27.841  12.176   0.884
38486W        W10746  11.181  18.828   1.792
38487W        W10747  11.707  27.163  13.284
38488W        W10748  18.122  40.808   2.144
38489W        W10749  32.443  12.807   0.378
38490W        W10750  40.856  41.013  14.360
38491W        W10751  39.773  27.573  11.902
38492W        W10752  16.579  36.999   1.946
38493W        W10753  29.223  20.289  11.936
38494W        W10754  20.864   2.418  14.401
38495W        W10755  44.387  30.656   2.667
38496W        W10756  17.156   7.196  14.014
38497W        W10757  40.627  27.644  13.035
38498W        W10758  39.553  36.014   1.928
38499W        W10759  21.780  18.602   4.543
38500W        W10760   0.331   8.164   0.353
38501W        W10761  10.717  24.068   0.897
38502W        W10762  39.088   2.638  12.019
38503W        W10763  26.037  43.683  14.946
38504W        W10764  27.088  41.089   2.338
38505W        W10765  39.379   9.705   0.913
38506W        W10766  41.240  32.043   3.750
38507W        W10767  12.308  43.391  14.610
38508W        W10768  23.851  18.281   2.437
38509W        W10769  11.638  10.372   0.490
38510W        W10770   2.463  27.320   4.869
38511W        W10771   5.156  44.931   0.157
38512W        W10772  29.169  36.630  14.258
38513W        W10773  27.425  40.437   0.643
38514W        W10774   4.898  41.151   3.463
38515W        W10775   4.302  14.080   4.954
38516W        W10776  44.979  32.988   4.507
38517W        W10777  28.540  39.905   1.732
38518W        W10778  28.242  28.428   4.084
38519W        W10779  12.860  15.035   2.653
38520W        W10780  26.150  18.225  14.253
38521W        W10781  16.821  36.585   2.845
38522W        W10782   9.867  32.838  12.100
38523W        W10783   2.377  29.525   3.255
38524W        W10784  10.142  21.654  10.723
38525W        W10785  10.715  11.819   1.235
38526W        W10786  27.277  28.520  14.814
38527W        W10787  13.349  29.521   3.882
38528W        W10788   8.880  32.597  13.214
38529W        W10789   0.969  41.860   4.240
38530W        W10790  43.865  14.790   3.731
38531W        W10791   5.399   6.288   2.333
38532W        W10792  36.915  18.345   1.730
38533W        W10793   3.276   2.686  14.536
38534W        W10794   7.398  37.435  14.750
38535W        W10795  26.563  38.789   0.697
38536W        W10796   7.151  44.524   0.935
38537W        W10797  39.297  32.608  12.545
38538W        W10798  38.052   6.502   1.484
38539W        W10799  30.911  11.612  13.592
38540W        W10800   7.744  22.775   2.797
38541W        W10801   2.722  21.249   0.849
38542W        W10802  43.010  44.482  13.805
38543W        W10803   7.694  43.320   1.724
38544W        W10804  26.066  44.010   0.533
38545W        W10805  14.552  28.198   0.826
38546W        W10806   9.542  22.618  12.231
38547W        W10807  15.600  21.702   0.426
38548W        W10808  37.545  10.205  11.400
38549W        W10809  41.688  42.995  12.514
38550W        W10810  28.513   3.844  11.568
38551W        W10811  19.193  21.815  10.866
38552W        W10812  44.360  39.968   2.290
38553W        W10813   9.626  17.607   4.162
38554W        W10814  27.914   1.792   3.502
38555W        W10815  22.596  31.961   4.611
38556W        W10816  14.398  38.608   2.353
38557W        W10817  25.717   6.752   9.877
38558W        W10818   9.574   3.988   0.896
38559W        W10819   3.417  30.525   3.050
38560W        W10820   0.930  28.936   1.692
38561W        W10821  38.072  23.811   1.233
38562W        W10822   9.448  28.611   3.292
38563W        W10823  42.068  44.959  13.434
38564W        W10824  30.812  35.184  10.708
38565W        W10825  43.293  18.009   0.504
38566W        W10826  27.490  28.543   3.384
38567W        W10827  15.828   3.648  12.313
38568W        W10828   6.775  27.401   3.779
38569W        W10829  29.632  14.855  10.788
38570W        W10830  15.277   1.692   1.250
38571W        W10831  33.929   7.868   0.304
38572W        W10832   1.748   1.167   0.054
38573W        W10833   5.175  35.370   4.561
38574W        W10834  44.109  30.750  12.345
38575W        W10835  14.833  14.250   3.751
38576W        W10836   1.713  25.970  12.681
38577W        W10837  44.244  22.088  14.842
38578W        W10838  17.728  43.233  13.740
38579W        W10839   1.713  24.247  14.424
38580W        W10840  40.518  44.255   0.845
38581W        W10841  42.827   8.831   4.060
38582W        W10842  33.099  20.479   3.761
38583W        W10843  27.650  44.508   3.272
38584W        W10844  25.256   4.419  12.886
38585W        W10845  39.967  40.759  11.220
38586W        W10846   4.768  22.334   4.242
38587W        W10847   1.474  29.909  12.993
38588W        W10848  42.349  34.856   3.550
38589W        W10849  16.328  16.591  14.532
38590W        W10850  17.817  11.738  14.975
38591W        W10851   7.854  23.573   4.098
38592W        W10852  16.890  33.120   4.240
38593W        W10853   4.923  28.069  11.941
38594W        W10854  29.429  23.921   3.125
38595W        W10855  40.484  13.491   4.584
38596W        W10856  40.457  42.960   1.223
38597W        W10857  29.432  25.371   4.672
38598W        W10858  36.478  11.125   3.655
38599W        W10859   7.378  14.870   2.874
38600W        W10860   9.133  31.407   2.140
38601W        W10861   7.658   5.893   4.080
38602W        W10862   5.643  27.927  12.457
38603W        W10863  32.818  40.857  11.186
38604W        W10864  37.007  30.727  12.008
38605W        W10865  23.904   2.794  12.129
38606W        W10866   4.812   5.314   0.714
38607W        W10867  18.187  41.463   1.872
38608W        W10868  30.952  24.254  13.699
38609W        W10869  18.282   7.830   2.565
38610W        W10870   1.843  15.564   3.754
38611W        W10871  30.668  21.105  14.280
38612W        W10872  32.725  44.284   0.542
38613W        W10873  35.963  12.002   4.379
38614W        W10874   3.377  11.160  13.793
38615W        W10875  15.711   4.259  10.899
38616W        W10876  29.023  21.768   2.283
38617W        W10877   9.696   5.193   1.502
38618W        W10878   2.027  19.515  12.022
38619W        W10879  39.873  24.270   4.343
38620W        W10880  28.907  20.767   1.231
38621W        W10881  24.928   7.217  13.372
38622W        W10882  39.477  36.615  11.273
38623W        W10883  15.810  37.499   4.621
38624W        W10884  23.649   6.706  14.582
38625W        W10885   7.838   9.206   3.276
38626W        W10886  13.293   4.404  12.050
38627W        W10887  44.850  24.478  11.083
38628W        W10888  44.890   8.570   3.342
38629W        W10889  19.268  27.731  13.479
38630W        W10890  14.199  14.130   0.393
38631W        W10891  43.821   0.315   1.435
38632W        W10892  17.332  43.781  13.029
38633W        W10893  30.274  14.762   4.154
38634W        W10894  39.657  17.671   0.891
38635W        W10895  33.629  29.930   0.841
38636W        W10896  31.643  28.831   4.048
38637W        W10897  25.014   3.269  12.487
38638W        W10898  18.168  42.843  12.178
38639W        W10899   4.501  34.644   4.596
38640W        W10900  34.406  15.323   1.223
38641W        W10901  16.264  21.709   2.274
38642W        W10902  29.061   2.964  14.560
38643W        W10903  43.311  10.645   0.932
38644W        W10904  26.878  41.440  13.807
38645W        W10905  37.493  33.479  14.268
38646W        W10906   9.288   7.567  13.379
38647W        W10907   1.944  14.293   3.139
38648W        W10908  28.575  42.794   1.216
38649W        W10909   5.807  36.415  13.848
38650W        W10910   4.454  36.473  10.706
38651W        W10911  19.568  34.301  12.503
38652W        W10912  37.139  31.875  14.701
38653W        W10913  11.346  43.679  13.581
38654W        W10914  17.251   7.461  11.520
38655W        W10915   8.253   8.592  12.957
38656W        W10916  11.306  17.007  13.549
38657W        W10917  26.491  21.286   4.688
38658W        W10918   6.530   2.405   3.627
38659W        W10919  44.944  43.410  10.973
38660W        W10920   2.055  40.521   3.139
38661W        W10921  18.972   1.928   1.744
38662W        W10922  20.045   2.288   3.800
38663W        W10923  31.657  44.013   4.110
38664W        W10924  32.168  12.865   0.812
38665W        W10925  12.281  39.036   0.890
38666W        W10926  34.706   9.677  12.488
38667W        W10927  29.497  16.123   0.836
38668W        W10928  23.772  32.680   4.070
38669W        W10929  21.553  22.954   4.612
38670W        W10930  30.100  31.879   3.324
38671W        W10931  21.768  28.258   2.011
38672W        W10932  11.085  30.915  14.389
38673W        W10933  22.112  17.015  14.885
38674W        W10934  29.576  26.060   0.652
38675W        W10935  22.708  43.419   4.155
38676W        W10936  19.773  12.242  11.144
38677W        W10937  11.418  44.929  12.758
38678W        W10938  44.850  25.081   2.268
38679W        W10939  44.801  22.526   0.680
38680W        W10940  21.146   7.915   0.350
38681W        W10941  44.691  22.195   3.727
38682W        W10942  33.729  11.271   4.479
38683W        W10943  34.953  19.162   3.640
38684W        W10944   2.948  43.326   1.919
38685W        W10945   5.188  38.768  10.779
38686W        W10946  28.316   7.798   4.197
38687W        W10947  34.520   3.520   0.914
38688W        W10948  44.150   4.276   2.279
38689W        W10949  26.742  38.039  10.677
38690W        W10950  13.192  33.933   1.152
38691W        W10951  23.136   8.950   1.426
38692W        W10952  43.267  27.932  10.206
38693W        W10953  12.608  43.939   2.428
38694W        W10954  37.908  22.225  11.529
38695W        W10955  20.593   8.125  13.273
38696W        W10956   8.634   1.006  13.406
38697W        W10957   0.580   4.006  14.893
38698W        W10958  19.110  29.025  12.174
38699W        W10959  19.778  34.034   3.599
38700W        W10960  27.949   3.513  13.813
38701W        W10961   8.011  18.650   2.743
38702W        W10962  22.262   0.258  13.269
38703W        W10963   2.756  18.565   2.359
38704W        W10964  20.753  33.934  14.998
38705W        W10965  40.604  22.518  11.881
38706W        W10966  23.838  42.933  13.331
38707W        W10967  15.323   0.516   4.152
38708W        W10968  34.114  42.252  12.531
38709W        W10969  26.155  22.275  14.433
38710W        W10970  23.530  21.681  11.979
38711W        W10971  16.594  20.949  12.031
38712W        W10972  17.326  15.054   0.850
38713W        W10973  32.488   5.719  11.606
38714W        W10974  13.766  22.209   2.641
38715W        W10975  33.041  36.268  13.121
38716W        W10976  23.704  33.950   4.466
38717W        W10977  20.653  15.559  14.223
38718W        W10978  23.638  30.519  11.561
38719W        W10979  20.139   0.430   0.634
38720W        W10980   6.135  32.495   1.319
38721W        W10981  24.391  39.967   2.803
38722W        W10982  25.617  27.677  14.541
38723W        W10983  24.384  32.996  12.221
38724W        W10984  29.439  11.868  11.965
38725W        W10985   3.568  21.076   4.811
38726W        W10986   0.737  17.690  10.827
38727W        W10987  37.622   4.838  11.663
38728W        W10988   7.154  23.062  10.587
38729W        W10989  27.507  14.385   0.822
38730W        W10990  17.196   0.063   0.654
38731W        W10991  20.106  35.106   1.927
38732W        W10992  39.985  18.704   0.477
38733W        W10993  10.145  22.700  12.875
38734W        W10994  20.639  41.499  11.148
38735W        W10995  41.463   3.975   1.544
38736W        W10996  29.878  20.695   0.286
38737W        W10997  33.642   4.272  10.515
38738W        W10998   2.145  36.525  13.464
38739W        W10999   5.833  28.522  13.581
38740W        W11000  27.953  11.721   3.211
38741W        W11001  19.232   5.831  10.075
38742W        W11002   6.817   6.963  10.479
38743W        W11003  32.090  14.697   4.514
38744W        W11004  11.442  36.463   0.512
38745W        W11005   1.962  41.102   0.339
38746W        W11006  22.462  26.624  14.378
38747W        W11007  28.891   2.752   4.707
38748W        W11008   0.850   5.450   4.305
38749W        W11009  31.428  16.334   3.604
38750W        W11010  29.777  30.230   3.287
38751W        W11011  12.156  37.957  12.883
38752W        W11012  44.583  26.829   9.999
38753W        W11013  43.806  12.378   1.826
38754W        W11014  44.698  37.168   3.263
38755W        W11015   4.132   6.670   2.210
38756W        W11016  12.522   7.813   0.809
38757W        W11017  23.560  27.540   3.059
38758W        W11018   1.458  25.220  13.474
38759W        W11019  35.931  16.143   3.662
38760W        W11020  15.753  38.919  12.852
38761W        W11021   9.385  18.647   0.265
38762W        W11022   2.016  21.778  13.028
38763W        W11023  22.095  23.809  12.492
38764W        W11024  41.472   9.966  14.369
38765W        W11025   1.764  13.255   4.023
38766W        W11026  25.796  28.570   2.291
38767W        W11027   7.836  11.827   1.724
38768W        W11028  35.502   9.061  11.146
38769W        W11029   7.187  31.623  13.158
38770W        W11030  22.667  14.854   3.690
38771W        W11031  22.413  27.942  12.987
38772W        W11032   5.656  39.811   4.481
38773W        W11033   7.171  22.960   2.608
38774W        W11034  37.064   1.032  11.913
38775W        W11035  14.344  12.032   3.813
38776W        W11036   0.434  42.395   2.290
38777W        W11037  22.060  23.667   4.405
38778W        W11038  13.618  10.245   3.228
38779W        W11039  23.565  12.209  10.723
38780W        W11040  35.757  27.084  12.385
38781W        W11041  38.229  34.995  13.693
38782W        W11042  28.199  13.775   3.874
38783W        W11043  23.465   3.129  11.918
38784W        W11044  33.103   1.370  12.895
38785W        W11045  37.088  27.900   3.589
38786W        W11046  25.007  41.546   2.891
38787W        W11047   2.829  24.993  11.159
38788W        W11048  21.212  12.889   3.654
38789W        W11049  32.661  15.153  10.729
38790W        W11050  21.003  19.224  14.279
38791W        W11051  37.513  17.882  12.874
38792W        W11052  32.619  28.736   0.828
38793W        W11053  21.772  31.835  11.005
38794W        W11054  35.553  29.692  10.749
38795W        W11055   0.191   3.211  12.556
38796W        W11056  37.052  21.842  13.878
38797W        W11057  20.195  26.672   4.331
38798W        W11058   9.820  31.489  10.748
38799W        W11059  29.074  32.961   4.206
38800W        W11060  40.489  40.101   2.924
38801W        W11061   1.821  18.940   0.369
38802W        W11062  11.800   2.028   2.288
38803W        W11063  13.242  15.088  14.387
38804W        W11064  30.966   0.698  13.719
38805W        W11065  22.692   7.563  10.689
38806W        W11066  24.368  32.183   2.874
38807W        W11067  44.296  41.287  13.497
38808W        W11068   3.821  21.246  11.927
38809W        W11069  33.146  31.135  10.592
38810W        W11070  43.841  16.313  12.887
38811W        W11071  22.695  26.766   0.290
38812W        W11072  38.092  35.911  12.829
38813W        W11073  36.333  35.178  10.752
38814W        W11074  31.510  20.281  11.861
38815W        W11075  44.217   7.377  13.967
38816W        W11076  22.217  42.835   2.767
38817W        W11077   6.905   0.358  13.391
38818W        W11078  34.110  35.399   0.052
38819W        W11079  36.765  14.033  14.560
38820W        W11080  35.370   8.853  11.603
38821W        W11081   1.281  43.789  13.171
38822W        W11082  18.740  18.164  12.668
38823W        W11083   7.379  15.527  12.914
38824W        W11084  24.038   0.830   1.058
38825W        W11085  31.387  12.258  14.395
38826W        W11086  37.029  33.348   0.543
38827W        W11087   5.020  43.847  13.664
38828W        W11088  37.915  19.346   2.025
38829W        W11089   2.312  31.135   2.290
38830W        W11090   4.225  42.031  13.306
38831W        W11091  30.251  44.768   1.762
38832W        W11092   2.525  25.930  14.427
38833W        W11093  20.206  10.428  12.761
38834W        W11094  10.109   5.334  12.899
38835W        W11095  10.785  32.353   0.486
38836W        W11096  32.971  14.615   0.440
38837W        W11097  20.073  20.130   4.036
38838W        W11098  19.831  41.323   4.024
38839W        W11099   5.441   5.400  12.345
38840W        W11100  13.748   1.800   2.357
38841W        W11101  16.684   4.528   3.244
38842W        W11102   9.378  16.234  12.046
38843W        W11103  20.073  21.555  13.215
38844W        W11104  29.920  26.421   0.470
38845W        W11105  16.292  28.130   1.327
38846W        W11106  14.817   5.602  11.040
38847W        W11107   5.431  13.281  14.390
38848W        W11108  16.860   0.952  10.852
38849W        W11109  24.636  10.706   0.715
38850W        W11110   0.250  30.539   2.979
38851W        W11111  16.473  27.529   4.565
38852W        W11112  44.737  24.298   3.561
38853W        W11113  41.875  36.730   1.289
38854W        W11114  26.193  20.911  11.805
38855W        W11115   0.341  21.396  14.467
38856W        W11116  31.384   6.427   3.740
38857W        W11117  34.022   8.266  10.684
38858W        W11118  26.619   4.032  11.481
38859W        W11119  25.405  36.848   2.402
38860W        W11120  33.527  28.105   1.896
38861W        W11121  37.373   7.169   1.298
38862W        W11122  15.170  44.543   2.316
38863W        W11123  41.377  10.770   4.581
38864W        W11124  38.142  11.532   2.375
38865W        W11125  43.327  34.522  10.877
38866W        W11126  32.182  21.304   4.171
38867W        W11127   1.904  30.282  11.239
38868W        W11128  40.604   7.369  13.893
38869W        W11129   1.296  40.204   1.705
38870W        W11130  24.642  43.512  13.536
38871W        W11131  14.755  25.301  14.673
38872W        W11132  13.226  33.742   0.224
38873W        W11133  33.322  36.522   1.337
38874W        W11134  13.331  20.156   3.390
38875W        W11135   5.180  42.344  14.949
38876W        W11136  38.522  20.191  10.721
38877W        W11137  14.860   9.646   0.065
38878W        W11138  38.905  44.115   1.477
38879W        W11139  13.693  33.449   1.708
38880W        W11140   2.150   7.485  11.825
38881W        W11141  40.489  42.876   3.720
38882W        W11142  26.478  13.651   1.399
38883W        W11143   6.888   5.783   2.768
38884W        W11144   2.457  26.038  13.516
38885W        W11145  24.565  28.386  13.010
38886W        W11146   1.475  34.049   1.915
38887W        W11147  38.859  25.154  10.856
38888W        W11148  36.783  41.462   0.932
38889W        W11149  25.188  14.653  11.893
38890W        W11150   1.761  12.143  10.578
38891W        W11151   1.702  43.953   4.105
38892W        W11152  30.059  25.106   3.220
38893W        W11153  34.579  22.980   0.252
38894W        W11154  24.641  43.037  13.287
38895W        W11155  20.463  13.618  11.069
38896W        W11156   8.759  33.051  12.984
38897W        W11157  27.222   4.741  11.860
38898W        W11158  17.022  42.905   4.168
38899W        W11159   5.650  26.162  12.496
38900W        W11160  17.984  31.972  12.459
38901W        W11161  25.685  39.581   4.487
38902W        W11162  29.245  14.282  14.721
38903W        W11163   4.543  35.041   4.193
38904W        W11164  18.593  25.076  11.160
38905W        W11165  38.075  43.265  12.864
38906W        W11166  38.408  37.340  14.723
38907W        W11167  31.992  15.661  10.681
38908W        W11168  27.704  32.911   4.418
38909W        W11169  19.739  10.363  12.979
38910W        W11170  42.335  30.084   0.800
38911W        W11171  29.372  24.225  12.531
38912W        W11172  16.540   9.561   0.961
38913W        W11173  34.410  26.418  11.878
38914W        W11174  23.516  41.517  14.433
38915W        W11175  27.166   8.956  13.736
38916W        W11176   3.841   6.233   2.303
38917W        W11177  17.211  16.214   4.183
38918W        W11178  10.576  15.630  12.071
38919W        W11179  14.594   2.657   0.417
38920W        W11180   1.232  27.610   0.560
38921W        W11181  35.333  37.515  10.698
38922W        W11182  15.194  31.400  10.540
38923W        W11183   6.172  23.097   3.556
38924W        W11184   7.627   1.436  11.070
38925W        W11185  27.807  34.855  12.217
38926W        W11186  43.747  40.981   1.881
38927W        W11187  13.229  13.004  11.403
38928W        W11188  14.598  39.828   2.387
38929W        W11189  18.109  35.209  12.861
38930W        W11190   0.698   6.159  11.234
38931W        W11191   2.079   8.668   4.121
38932W        W11192   3.284   0.480   3.025
38933W        W11193  17.294  44.503   1.904
38934W        W11194  36.865  30.068   4.085
38935W        W11195  14.565  38.687  11.861
38936W        W11196  29.223  16.731  12.925
38937W        W11197  18.790  39.912   2.818
38938W        W11198  38.473  10.679   1.986
38939W        W11199  13.085   2.950   4.120
38940W        W11200  25.173   5.489   3.813
38941W        W11201  14.792  27.916   4.960
38942W        W11202  20.437   0.486  11.105
38943W        W11203  16.791  28.876  14.295
38944W        W11204   0.380  33.623   1.358
38945W        W11205  32.160  14.081   2.679
38946W        W11206  39.956  12.237   4.982
38947W        W11207  21.539   0.340   2.309
38948W        W11208  23.299  11.671   0.780
38949W        W11209   2.168   4.985  13.617
38950W        W11210  12.883  34.267  13.557
38951W        W11211  43.381  31.063  13.962
38952W        W11212  11.715  16.599   2.677
38953W        W11213  13.151   8.361   1.537
38954W        W11214   6.428  44.748   4.929
38955W        W11215  26.106  11.683   2.223
38956W        W11216  36.944  20.365  13.962
38957W        W11217   1.333  24.617   0.948
38958W        W11218  15.196  18.250   1.928
38959W        W11219   2.254   7.645   2.161
38960W        W11220   0.639   6.674  11.364
38961W        W11221  20.515  42.710   0.801
38962W        W11222  43.819  22.525   3.780
38963W        W11223  40.646  23.656   3.605
38964W        W11224   6.576   2.972   2.074
38965W        W11225  44.315  35.173  13.336
38966W        W11226  29.970  42.875   1.425
38967W        W11227   6.336   4.066   2.308
38968W        W11228   0.988  40.301  11.956
38969W        W11229  33.516   6.672   3.386
38970W        W11230  37.577  19.287   3.847
38971W        W11231  37.769  11.271  11.596
38972W        W11232  39.489  22.162   1.914
38973W        W11233   0.707   6.170  14.281
38974W        W11234  40.360  25.954   3.365
38975W        W11235  37.069  10.987   3.646
38976W        W11236  44.852  18.029   2.475
38977W        W11237  22.547   5.626  13.177
38978W        W11238   9.638  12.996  11.131
38979W        W11239  40.720   0.926  10.849
38980W        W11240  20.876  28.895  14.505
38981W        W11241  26.046   3.293   3.019
38982W        W11242  35.857  32.863  11.578
38983W        W11243   8.648   3.113  14.088
38984W        W11244  33.378   8.507   2.200
38985W        W11245  40.112  37.339   4.757
38986W        W11246  36.568  36.384  12.125
38987W        W11247   0.847  15.921   1.352
38988W        W11248  27.173  34.473   4.762
38989W        W11249  20.193  24.750  11.643
38990W        W11250  21.477  36.261   3.674
38991W        W11251  28.734  38.596   3.223
38992W        W11252  39.277   6.475  12.865
38993W        W11253  24.943  29.396   3.304
38994W        W11254  20.646   2.810   2.118
38995W        W11255  32.673   9.230  14.516
38996W        W11256   4.665  29.055   0.839
38997W        W11257   7.177  44.820  11.438
38998W        W11258  42.944  39.960  13.750
38999W        W11259  34.434  33.436  12.522
39000W        W11260  33.472  13.595   0.845
39001W        W11261   7.377  24.546  13.599
39002W        W11262   1.163  36.144   4.192
39003W        W11263  35.394  10.422  14.003
39004W        W11264   9.646  42.993   0.779
39005W        W11265  34.843  10.201   1.251
39006W        W11266  38.270  22.945   1.491
39007W        W11267   1.686  23.561   4.953
39008W        W11268   0.914   8.684   1.062
39009W        W11269  15.207   9.178  11.096
39010W        W11270  18.059  23.718   0.842
39011W        W11271  34.590  19.400   0.020
39012W        W11272  34.883   2.934  11.102
39013W        W11273   4.387  15.016   3.437
39014W        W11274  44.305  39.531   3.222
39015W        W11275  10.397  21.781   0.247
39016W        W11276  11.368  31.524   2.891
39017W        W11277  10.570  26.637   2.085
39018W        W11278  12.297   5.397  13.071
39019W        W11279  17.968   0.443   4.620
39020W        W11280   5.479  12.779  11.062
39021W        W11281   0.243   4.604   1.807
39022W        W11282  40.445  10.309  11.517
39023W        W11283   5.743   1.929   3.633
39024W        W11284  37.196   2.791   0.288
39025W        W11285  24.517  38.234   1.861
39026W        W11286  12.792  10.816   0.884
39027W        W11287   3.819   0.254  10.671
39028W        W11288  42.810  19.283  10.740
39029W        W11289   4.953  44.682   1.941
39030W        W11290   8.667  21.416  14.877
39031W        W11291  37.448  25.624  10.752
39032W        W11292  33.583   7.045  11.528
39033W        W11293  29.015  22.996  12.264
39034W        W11294  15.531   4.638  13.505
39035W        W11295  20.089  21.344   3.190
39036W        W11296  34.040  23.841  11.103
39037W        W11297  24.081   1.528  11.043
39038W        W11298  38.927  22.051   1.001
39039W        W11299  24.496   0.875   0.840
39040W        W11300  39.896  26.051  14.915
39041W        W11301  36.452  40.447   2.002
39042W        W11302   8.181   7.824  13.546
39043W        W11303  43.836  16.788   0.575
39044W        W11304  43.947  12.742  10.746
39045W        W11305  18.999   9.989  14.355
39046W        W11306  33.426  28.341   3.312
39047W        W11307  38.940  21.479   0.253
39048W        W11308  44.465  43.523  11.168
39049W        W11309  41.351   6.894   4.627
39050W        W11310  12.882   7.132   1.386
39051W        W11311   5.862  15.278   3.133
39052W        W11312   9.203   0.891  12.105
39053W        W11313   7.373  19.363  12.534
39054W        W11314  29.688  29.746   1.730
39055W        W11315  11.516  16.116   0.920
39056W        W11316  38.130  32.959  13.368
39057W        W11317  25.226  39.214  13.506
39058W        W11318  37.917  15.611   0.788
39059W        W11319  14.400  41.457   1.176
39060W        W11320  22.939  17.996   2.186
39061W        W11321  21.892  19.243  12.522
39062W        W11322   8.136   1.352   2.749
39063W        W11323  18.440  18.680   2.473
39064W        W11324  23.034  12.695  14.850
39065W        W11325  34.865  36.880  12.147
39066W        W11326  32.918  41.888   3.384
39067W        W11327   9.774  17.392   2.803
39068W        W11328  19.021  26.486  12.997
39069W        W11329  28.081  34.476   4.037
39070W        W11330  43.072  19.019   1.820
39071W        W11331  16.700   8.498  14.770
39072W        W11332  33.561  40.027   0.998
39073W        W11333   5.399  25.132  14.349
39074W        W11334  31.385   1.478   2.709
39075W        W11335  22.623  21.750  14.879
39076W        W11336   8.804  38.602  13.052
39077W        W11337   8.458  29.867   0.902
39078W        W11338  11.278  10.955  10.540
39079W        W11339  27.540  11.420  13.012
39080W        W11340  18.038  36.979   0.472
39081W        W11341  22.973  10.645   2.315
39082W        W11342   3.418   5.393   3.194
39083W        W11343  11.368   6.383   3.129
39084W        W11344  31.109  17.498  14.795
39085W        W11345  18.280  31.614  12.137
39086W        W11346  23.163  42.239  13.012
39087W        W11347   8.581  14.520  10.319
39088W        W11348  42.720  29.709  14.703
39089W        W11349  26.579  30.042   3.461
39090W        W11350  41.571  20.633  13.044
39091W        W11351  18.345  13.156  11.570
39092W        W11352   0.743  19.685  14.349
39093W        W11353  35.519  18.043   3.732
39094W        W11354  27.715  23.804   1.417
39095W        W11355  41.246   6.204  14.447
39096W        W11356  41.818  26.679   2.755
39097W        W11357   8.281  40.020   2.144
39098W        W11358  18.659  36.437   3.054
39099W        W11359   7.683  17.617  12.601
39100W        W11360  43.027   0.724   4.105
39101W        W11361  21.715  16.069   1.452
39102W        W11362   0.007   0.871  10.943
39103W        W11363  26.890  12.541   2.849
39104W        W11364   4.360  23.235  14.146
39105W        W11365  42.510  18.394  14.551
39106W        W11366  38.412  26.511   0.468
39107W        W11367  21.316  26.168  12.769
39108W        W11368  31.420  36.324  14.427
39109W        W11369  11.692  31.101   0.792
39110W        W11370   4.003  30.669   1.895
39111W        W11371  42.568  42.871   1.937
39112W        W11372  36.982   5.419   4.248
39113W        W11373  44.191  14.579  14.304
39114W        W11374  36.390  34.462  12.919
39115W        W11375  40.346  40.274   1.485
39116W        W11376  39.470  24.185   3.592
39117W        W11377  20.916  42.892   4.810
39118W        W11378  17.628  12.575  12.390
39119W        W11379  10.299  15.967   3.435
39120W        W11380  38.006   5.241   4.233
39121W        W11381  33.286   8.973   4.213
39122W        W11382  10.159  39.025   5.010
39123W        W11383  37.667  12.172  10.736
39124W        W11384  43.390  11.818   4.718
39125W        W11385  38.370   3.287   4.543
39126W        W11386  44.269  25.301   2.117
39127W        W11387  16.862   9.314  14.289
39128W        W11388  38.640  13.784   3.411
39129W        W11389  36.930   3.171   4.902
39130W        W11390  43.233   8.351   5.135
39131W        W11391  14.139   9.245   1.819
39132W        W11392  24.646  28.026  13.547
39133W        W11393  22.688  23.695   2.244
39134W        W11394   2.296   5.435   3.691
39135W        W11395  20.060  25.204   1.300
39136W        W11396  13.051  31.276  11.049
39137W        W11397   8.257  21.771  10.695
39138W        W11398  15.354  19.099   0.073
39139W        W11399  26.500  11.048  10.256
39140W        W11400  34.937  27.149  11.842
39141W        W11401  30.099   9.063   0.927
39142W        W11402  39.898  21.774  12.971
39143W        W11403  41.215  20.575   0.755
39144W        W11404  34.934   9.227   1.818
39145W        W11405  36.458  16.573   4.809
39146W        W11406  38.163  34.414   5.073
39147W        W11407  36.149  25.627  11.227
39148W        W11408  36.132  20.717   1.786
39149W        W11409   4.835  41.956  11.558
39150W        W11410  26.739  27.841  12.980
39151W        W11411   6.713  14.371  10.662
39152W        W11412  16.105   0.558   0.990
39153W        W11413   2.030  22.487   0.421
39154W        W11414  38.836  37.772   3.522
39155W        W11415  36.366  20.801   1.300
39156W        W11416   7.761  39.955  11.397
39157W        W11417  20.688  28.094  10.737
39158W        W11418   9.244   4.520  12.790
39159W        W11419   3.287  38.577  14.836
39160W        W11420   4.569  13.351   2.872
39161W        W11421  16.112   8.904   5.070
39162W        W11422  34.268  18.519   1.529
39163W        W11423  12.459  27.723  14.829
39164W        W11424   5.652  15.038  11.057
39165W        W11425   1.998  37.929  14.383
39166W        W11426   4.265   2.148  10.605
39167W        W11427  20.573  37.997   0.873
39168W        W11428  36.854  33.917  14.893
39169W        W11429   2.513   9.391   1.857
39170W        W11430  32.985  20.474   5.139
39171W        W11431   8.133  27.767   4.161
39172W        W11432  41.980  21.989  14.738
39173W        W11433  20.730  41.321   3.445
39174W        W11434  38.554  21.426   4.081
39175W        W11435  18.972  43.698   4.552
39176W        W11436  17.247  38.744  10.643
39177W        W11437   6.975   5.823  12.535
39178W        W11438  29.435  32.928  10.594
39179W        W11439   3.427  31.654  11.689
39180W        W11440  25.303  18.148  13.980
39181W        W11441  41.346  40.605   0.852
39182W        W11442  26.615  26.158  14.752
39183W        W11443  32.140  41.057  12.920
39184W        W11444  20.248   2.245  12.864
39185W        W11445  36.015  41.204  11.944
39186W        W11446   8.282  42.922   0.067
39187W        W11447  11.108  31.113   1.604
39188W        W11448  39.712  20.150   4.930
39189W        W11449  25.663  32.160  10.291
39190W        W11450  10.299  44.905   3.264
39191W        W11451  33.819  17.197  10.094
39192W        W11452   2.957  41.952  14.973
39193W        W11453   9.206  35.926  14.939
39194W        W11454   4.214  16.625   1.458
39195W        W11455  26.447   7.432  13.533
39196W        W11456   7.760   4.792   3.782
39197W        W11457  22.725  22.090  13.431
39198W        W11458  12.745   1.731   0.260
39199W        W11459  11.899  42.407  11.131
39200W        W11460  10.349  15.634   4.415
39201W        W11461  15.635  43.066  12.478
39202W        W11462  29.874  16.473   1.407
39203W        W11463  18.233  28.570   4.155
39204W        W11464  42.573  30.250  12.591
39205W        W11465   1.220  39.583   3.417
39206W        W11466  15.238   8.259   0.743
39207W        W11467  13.308  36.075   3.366
39208W        W11468  43.305  37.823   1.067
39209W        W11469  39.934  24.049   1.703
39210W        W11470  16.518  36.404   2.415
39211W        W11471  32.754  28.409  11.041
39212W        W11472  30.617  15.798  13.573
39213W        W11473  43.734  18.663  13.832
39214W        W11474  21.245  16.546   3.409
39215W        W11475   8.893   3.823  14.894
39216W        W11476  11.709  34.476  10.258
39217W        W11477   8.367   2.983   2.148
39218W        W11478  30.024  29.008  11.104
39219W        W11479  30.759  24.267   0.912
39220W        W11480  16.449  42.894   3.706
39221W        W11481  25.178  28.435   0.754
39222W        W11482   4.733  30.366  13.568
39223W        W11483  37.167  15.335  14.570
39224W        W11484  35.359  16.833  12.995
39225W        W11485  40.494   8.692   1.954
39226W        W11486  18.608  14.664  12.795
39227W        W11487  20.073  42.086   2.841
39228W        W11488  13.426  30.705  12.186
39229W        W11489  14.103  27.113   9.849
39230W        W11490  13.337  10.781  10.775
39231W        W11491  22.347  33.810  12.557
39232W        W11492  28.170   5.488  10.192
39233W        W11493  10.880  39.863  13.173
39234W        W11494  20.924  29.258  12.104
39235W        W11495  44.529   6.292   2.852
39236W        W11496   8.773  19.632   0.802
39237W        W11497   2.558  13.189   2.357
39238W        W11498  16.782   8.819   3.970
39239W        W11499  20.737  21.467   1.856
39240W        W11500  30.420  16.536  14.592
39241W        W11501  39.792  16.859   3.606
39242W        W11502   1.949   4.851  12.856
39243W        W11503  12.558  38.072  13.855
39244W        W11504  44.553  25.714   0.317
39245W        W11505  26.465  17.001  14.050
39246W        W11506  26.125  23.032   2.193
39247W        W11507  28.887  31.351  12.412
39248W        W11508  10.679  19.095  12.445
39249W        W11509   6.928  42.896  13.484
39250W        W11510  12.902  26.102   4.797
39251W        W11511  37.472  43.367   0.997
39252W        W11512   0.883  37.689  13.498
39253W        W11513  30.977   5.949  14.942
39254W        W11514  33.892  16.640  14.341
39255W        W11515  39.955  35.802   0.534
39256W        W11516  40.078  15.260   0.600
39257W        W11517  31.424  35.931   3.779
39258W        W11518  35.777  24.561  14.913
39259W        W11519  24.807  43.647   3.236
39260W        W11520  37.964  37.034   0.441
39261W        W11521   3.469  43.028  13.454
39262W        W11522  31.909  33.482   0.810
39263W        W11523  29.536   9.407   3.230
39264W        W11524  17.707  40.430  12.348
39265W        W11525  29.695  42.761  10.713
39266W        W11526  40.391   9.452  14.255
39267W        W11527  23.945  41.133   3.393
39268W        W11528  34.524  44.345   2.972
39269W        W11529  37.646  29.451  11.601
39270W        W11530   3.646  35.287  13.204
39271W        W11531  17.782  43.705   3.189
39272W        W11532   8.647  40.096   1.204
39273W        W11533  38.106  14.886   4.092
39274W        W11534  20.522  19.122   9.725
39275W        W11535   8.721   6.088   2.890
39276W        W11536  10.123  10.349  13.972
39277W        W11537  21.088  40.394  13.467
39278W        W11538  23.527   5.224  10.782
39279W        W11539  21.806   3.360  14.343
39280W        W11540  20.970  22.093   3.996
39281W        W11541  14.048  13.606   0.238
39282W        W11542  24.087  35.538   1.185
39283W        W11543  44.166  12.894  14.914
39284W        W11544  27.776  39.541   3.883
39285W        W11545  11.665  32.532   3.280
39286W        W11546  26.310   4.875  12.639
39287W        W11547  12.329  33.468  14.003
39288W        W11548  31.834  11.243  10.775
39289W        W11549   8.313   7.050  14.756
39290W        W11550  15.790   5.111   1.552
39291W        W11551  38.843   5.976  10.630
39292W        W11552  21.051  31.712   0.971
39293W        W11553  14.741  24.784  14.598
39294W        W11554  22.227  22.616   1.869
39295W        W11555   3.223  23.961   4.931
39296W        W11556   2.909   2.137  10.925
39297W        W11557  39.515  20.695  14.340
39298W        W11558  44.046  20.614  13.091
39299W        W11559  24.711  27.674   2.941
39300W        W11560  34.978  16.324  11.506
39301W        W11561   9.233  24.575  14.069
39302W        W11562  44.442   4.436   4.826
39303W        W11563  30.082  21.604   1.899
39304W        W11564  18.192  43.822   4.203
39305W        W11565  28.382   3.808   3.275
39306W        W11566  37.948  10.322   3.821
39307W        W11567  10.210  34.577   3.442
39308W        W11568  26.704  21.213  12.904
39309W        W11569  38.395  25.347  14.662
39310W        W11570  32.487   4.858   2.684
39311W        W11571  29.493  43.572   4.935
39312W        W11572   8.024  13.684  13.371
39313W        W11573  30.165   2.780   3.069
39314W        W11574  22.189  34.640   0.924
39315W        W11575   2.423  36.827  12.674
39316W        W11576  40.047  10.909  14.019
39317W        W11577  13.231  36.610  13.526
39318W        W11578  25.194  43.790   3.805
39319W        W11579  36.994   4.235  13.940
39320W        W11580  21.629  27.400   3.458
39321W        W11581  16.620  25.079  13.608
39322W        W11582  42.516   2.163   1.808
39323W        W11583   1.442   3.464  14.498
39324W        W11584  18.325  40.038   4.020
39325W        W11585  11.763   9.243   3.358
39326W        W11586  10.317  35.829  13.804
39327W        W11587  29.056  12.111  14.779
39328W        W11588   2.839   0.121  12.072
39329W        W11589   5.287  30.211  10.602
39330W        W11590   2.365  44.338   4.586
39331W        W11591  12.374  25.969   4.628
39332W        W11592  13.885  30.471  10.313
39333W        W11593   4.214  32.118  12.571
39334W        W11594   9.228  19.054  11.507
39335W        W11595  34.118  42.033   2.368
39336W        W11596  36.252  23.451  10.951
39337W        W11597  43.731  12.700   0.192
39338W        W11598  43.019  25.253  14.992
39339W        W11599   6.983  13.886  12.596
39340W        W11600  39.531  18.341  10.582
39341W        W11601  12.634   2.573  12.461
39342W        W11602   1.312   6.620  13.152
39343W        W11603  29.786   5.443   1.263
39344W        W11604  11.521  31.884   3.681
39345W        W11605   1.789  31.190  12.405
39346W        W11606  42.979  27.866  12.530
39347W        W11607   0.462   8.360   1.193
39348W        W11608   1.787  13.102  12.484
39349W        W11609  12.136  42.982  13.304
39350W        W11610   6.394  12.870   0.724
39351W        W11611   5.180  14.590   1.602
39352W        W11612   0.991   1.924   3.046
39353W        W11613   6.443  12.167  14.700
39354W        W11614  17.926  25.635  11.029
39355W        W11615  39.334  31.999   2.084
39356W        W11616  16.646  15.298   0.323
39357W        W11617  17.020  39.706   3.223
39358W        W11618   2.960  31.523  12.428
39359W        W11619  23.418   0.722  11.154
39360W        W11620   5.818  42.832   3.880
39361W        W11621  11.131  28.969   1.816
39362W        W11622  22.715  15.136   3.250
39363W        W11623  42.411   3.495   3.383
39364W        W11624  18.250  20.586  14.873
39365W        W11625  41.112  18.694   4.149
39366W        W11626  41.853  23.949  12.035
39367W        W11627  19.836  42.915   4.162
39368W        W11628   8.166  35.429   3.256
39369W        W11629   3.281  14.951  14.848
39370W        W11630  10.939   1.854  11.194
39371W        W11631  12.730  37.992  13.327
39372W        W11632  29.272  15.160  13.755
39373W        W11633   0.876  31.690  13.875
39374W        W11634  40.244  19.630  10.682
39375W        W11635  28.561  29.021  12.076
39376W        W11636  18.183   5.467   2.759
39377W        W11637  28.734   5.829  11.162
39378W        W11638  19.542  24.236  14.841
39379W        W11639  37.467   9.143  10.661
39380W        W11640  36.054  35.938  13.035
39381W        W11641  12.051  43.438   4.532
39382W        W11642  14.834  18.190  12.412
39383W        W11643  26.304  10.783  11.476
39384W        W11644  35.364  33.707  12.518
39385W        W11645   7.750  39.536   1.796
39386W        W11646  37.407  12.225  12.628
39387W        W11647   4.256  15.558  10.425
39388W        W11648   3.734  22.034   2.286
39389W        W11649  12.360  35.965  11.578
39390W        W11650  37.852  25.733   1.978
39391W        W11651   9.119  10.677  11.854
39392W        W11652  31.601  30.977   4.696
39393W        W11653  21.545  20.592  12.447
39394W        W11654  34.508  15.758  12.829
39395W        W11655  15.179  37.597   0.347
39396W        W11656  31.059  30.853  12.976
39397W        W11657  25.126  42.460   5.124
39398W        W11658  22.889  23.226   1.061
39399W        W11659  29.033  27.266  14.405
39400W        W11660  17.774  26.144   0.507
39401W        W11661  31.115  11.730  12.546
39402W        W11662  11.666  29.712  11.692
39403W        W11663  23.026  22.590   2.982
39404W        W11664   5.099  34.363   3.253
39405W        W11665  37.869  34.457   0.509
39406W        W11666  17.236  15.555  10.666
39407W        W11667  27.448  41.971   4.665
39408W        W11668  13.165  43.706   4.143
39409W        W11669  24.396  20.187   4.648
39410W        W11670  17.337   5.660   0.153
39411W        W11671  21.572  27.941  11.115
39412W        W11672  33.094  16.259   3.255
39413W        W11673  34.532  22.142   4.151
39414W        W11674  29.649  41.326  14.480
39415W        W11675  17.145  35.149   1.387
39416W        W11676   6.235  11.370   4.326
39417W        W11677  10.131  23.926  12.050
39418W        W11678   0.013  30.188   2.217
39419W        W11679  40.603  22.546   0.001
39420W        W11680  28.648  34.558  13.456
39421W        W11681  42.690  27.699   1.283
39422W        W11682  34.963   6.666   3.303
39423W        W11683  44.262  17.077  14.944
39424W        W11684  13.160  26.048  10.713
39425W        W11685  22.764  27.909   4.150
39426W        W11686  27.506  11.197   0.474
39427W        W11687  16.601  29.768  12.876
39428W        W11688   2.890  40.291   3.865
39429W        W11689  42.991  41.127   1.354
39430W        W11690  21.026   3.747   4.081
39431W        W11691  32.529   2.399   0.482
39432W        W11692  10.275  19.380   4.807
39433W        W11693  41.292  36.963  11.941
39434W        W11694  32.619  42.286  12.541
39435W        W11695  10.272  16.772   1.875
39436W        W11696  23.160  20.236  13.362
39437W        W11697   3.290  26.031   3.605
39438W        W11698  24.842  25.006  11.594
39439W        W11699  37.126  18.016   3.336
39440W        W11700  40.334  41.972   3.335
39441W        W11701  40.520  11.872   2.307
39442W        W11702  32.957   9.861  12.428
39443W        W11703  11.176  32.681  11.880
39444W        W11704  31.550  18.432   0.397
39445W        W11705  36.359  17.600  11.216
39446W        W11706  36.180  25.352  12.406
39447W        W11707  24.302  39.231   0.743
39448W        W11708  11.248  12.701   4.013
39449W        W11709   5.753  42.824   0.483
39450W        W11710  31.987  32.364  10.429
39451W        W11711  25.434   4.210   3.663
39452W        W11712  44.936   4.667   4.772
39453W        W11713  33.958  35.396  11.423
39454W        W11714  29.971  29.191  11.567
39455W        W11715   4.158   1.108  14.086
39456W        W11716  44.735  41.139   0.887
39457W        W11717   0.922  41.350   4.160
39458W        W11718  12.856  30.658   3.593
39459W        W11719   0.306  13.356  14.012
39460W        W11720  20.810   9.869  14.291
39461W        W11721   4.161   1.374   5.061
39462W        W11722  23.506  11.821   1.226
39463W        W11723  15.779  39.063   1.302
39464W        W11724  23.462   3.878   2.460
39465W        W11725   9.703  20.959  13.256
39466W        W11726  20.742   4.067  12.401
39467W        W11727  12.390  29.880   3.753
39468W        W11728  30.938  27.765  13.808
39469W        W11729  36.449   1.512  14.075
39470W        W11730  25.632  43.295  13.847
39471W        W11731  26.223  27.762  12.301
39472W        W11732  40.413  26.293  11.580
39473W        W11733  33.358  18.093  14.854
39474W        W11734  23.536  30.557  12.565
39475W        W11735  16.656  36.514   1.567
39476W        W11736   0.089  43.413   3.958
39477W        W11737  16.622  40.257   4.697
39478W        W11738  17.278   1.172  12.016
39479W        W11739  32.917  39.025   4.112
39480W        W11740  37.879  33.273  13.744
39481W        W11741  41.879  36.005   3.619
39482W        W11742  20.221  22.441  12.578
39483W        W11743  39.055  27.937   3.322
39484W        W11744  41.223  34.422   3.282
39485W        W11745   5.300  42.597  13.343
39486W        W11746  32.156  12.337   0.824
39487W        W11747   3.955  18.631   3.657
39488W        W11748  16.711  12.388   3.201
39489W        W11749   4.151  36.505   2.735
39490W        W11750  17.614  18.600  12.727
39491W        W11751  12.787  25.127  11.450
39492W        W11752  44.225  16.746   3.688
39493W        W11753  31.814  35.361  11.144
39494W        W11754  36.504   8.395  14.397
39495W        W11755  14.234  39.407  13.582
39496W        W11756  40.191   1.350   2.119
39497W        W11757  32.349   8.603   1.961
39498W        W11758   8.848   1.897  10.354
39499W        W11759  31.073   5.389  10.751
39500W        W11760  38.166  12.937   3.947
39501W        W11761   3.847  44.912   1.447
39502W        W11762  10.385  17.035  11.082
39503W        W11763  43.213  23.591   4.067
39504W        W11764   6.621  39.923   0.428
39505W        W11765  10.161  38.623  14.417
39506W        W11766  23.941  22.252   4.638
39507W        W11767   8.756  35.394   4.772
39508W        W11768  15.255  26.136   4.913
39509W        W11769  31.821  30.626  12.546
39510W        W11770   5.301  44.562  12.013
39511W        W11771  21.835   5.671  11.572
39512W        W11772  44.484   4.643   3.922
39513W        W11773  43.047  21.545  13.350
39514W        W11774  24.030  11.644   4.666
39515W        W11775  12.339   6.787  12.070
39516W        W11776   4.912   3.970  11.338
39517W        W11777   3.737   5.249   4.412
39518W        W11778  44.344  14.805   2.919
39519W        W11779   7.145  16.722  14.456
39520W        W11780  17.499  33.997   4.498
39521W        W11781  29.514  18.777  13.411
39522W        W11782  26.057  21.045   1.547
39523W        W11783  15.558  14.848  14.585
39524W        W11784  27.801  25.607  12.055
39525W        W11785  26.132   8.237  14.443
39526W        W11786  25.056  32.259  12.578
39527W        W11787   0.274  25.069   0.406
39528W        W11788  21.513  12.356  14.364
39529W        W11789   4.919  29.390   3.053
39530W        W11790  23.999  28.904  10.945
39531W        W11791  37.607  33.121  12.011
39532W        W11792  12.023  29.886  12.543
39533W        W11793  30.167  11.749  10.644
39534W        W11794  39.841   3.888   3.193
39535W        W11795  32.105  14.482   0.491
39536W        W11796   3.724   0.336  14.805
39537W        W11797  16.835   4.243   1.868
39538W        W11798  29.014   4.259   1.157
39539W        W11799  24.546   9.378  12.546
39540W        W11800  34.911   5.977   2.848
39541W        W11801  33.825  44.918  14.072
39542W        W11802   2.276  24.760  10.835
39543W        W11803  26.364   0.894   2.744
39544W        W11804  35.356  10.304  14.986
39545W        W11805  25.267  25.395   4.925
39546W        W11806  27.498  36.380  12.614
39547W        W11807  19.803  23.520  13.060
39548W        W11808  16.260  38.428   4.324
39549W        W11809  18.617  34.499   3.796
39550W        W11810  31.085  16.175   2.296
39551W        W11811  26.570  36.037   4.137
39552W        W11812  38.295  39.122   2.392
39553W        W11813  19.243  37.906   3.760
39554W        W11814  42.348  26.999   0.008
39555W        W11815   8.274   8.742   2.617
39556W        W11816  36.915  15.334   2.274
39557W        W11817  31.584  23.702  14.751
39558W        W11818  34.169  36.374  11.956
39559W        W11819  44.321  11.420   4.265
39560W        W11820  20.653   4.458   2.792
39561W        W11821   5.864  37.105  14.626
39562W        W11822  28.770  39.674   2.396
39563W        W11823  18.149  18.242   3.900
39564W        W11824  11.622  15.581  13.398
39565W        W11825  10.810  27.209  14.874
39566W        W11826  13.705  23.178  14.364
39567W        W11827  24.829  13.131   0.945
39568W        W11828   1.879   2.426   1.136
39569W        W11829  20.470  20.090   5.442
39570W        W11830  35.577  36.502   3.108
39571W        W11831  10.561  27.497   4.588
39572W        W11832  23.986   8.662   0.126
39573W        W11833  43.770  38.886  12.528
39574W        W11834  12.822  10.371   1.134
39575W        W11835   8.915  18.794   2.813
39576W        W11836  42.811  36.665   2.162
39577W        W11837  41.357  16.857  11.119
39578W        W11838  41.022   5.554  12.485
39579W        W11839  28.080   8.229   2.249
39580W        W11840  27.336  37.882   1.967
39581W        W11841  22.672  17.266   4.653
39582W        W11842  42.339  21.210  13.051
39583W        W11843  31.343   8.720  11.480
39584W        W11844  18.184   2.212  13.400
39585W        W11845  11.751  23.114  11.429
39586W        W11846  42.756   3.081  12.177
39587W        W11847   3.568  38.809  12.174
39588W        W11848  40.395  37.593   1.918
39589W        W11849  10.772  11.042   3.650
39590W        W11850  37.013  42.054   0.760
39591W        W11851   6.278   6.841  11.543
39592W        W11852  11.288   6.889   1.716
39593W        W11853  30.560  36.676   3.372
39594W        W11854   7.599  38.877  14.487
39595W        W11855  11.274  38.672   5.044
39596W        W11856  33.860   7.898   3.659
39597W        W11857  25.692  15.512   4.161
39598W        W11858  15.937  17.236  12.848
39599W        W11859  37.814  40.219  14.012
39600W        W11860  37.609  40.838  12.040
39601W        W11861   9.677  17.625   0.281
39602W        W11862  29.545   4.631  14.906
39603W        W11863   9.193  42.014   3.470
39604W        W11864  24.759   0.913   3.725
39605W        W11865   4.010  16.377   3.764
39606W        W11866  12.461  12.711   0.807
39607W        W11867   9.301  36.534   3.713
39608W        W11868  20.269   4.750   2.587
39609W        W11869  44.983   6.251  12.038
39610W        W11870  34.189  38.916   2.190
39611W        W11871   2.741  34.364  12.230
39612W        W11872  18.512  39.465   4.529
39613W        W11873  16.529   0.454  11.589
39614W        W11874  30.697  32.360   2.153
39615W        W11875  26.406   7.239  13.062
39616W        W11876   4.199  25.117  12.634
39617W        W11877  25.282   5.417   0.792
39618W        W11878  23.332  16.095  13.684
39619W        W11879  33.046  37.953   4.603
39620W        W11880  19.665  13.204  10.392
39621W        W11881   9.353  13.721  11.889
39622W        W11882  25.549  31.025   2.939
39623W        W11883   6.442  17.536   2.374
39624W        W11884  32.805  39.435  12.929
39625W        W11885  11.846  29.503   4.533
39626W        W11886  15.279  37.822   1.311
39627W        W11887   2.378  12.628  11.106
39628W        W11888  38.662  32.776   0.665
39629W        W11889  38.765  29.007  11.093
39630W        W11890  23.225  32.185  12.055
39631W        W11891  33.608  19.788  12.930
39632W        W11892  41.684  43.065   2.935
39633W        W11893  18.679  12.631   1.336
39634W        W11894  35.021  20.149   1.204
39635W        W11895  16.790  37.499  13.130
39636W        W11896  33.988  21.624   3.188
39637W        W11897   8.267  26.603   0.540
39638W        W11898  10.622   4.702  14.261
39639W        W11899  39.959  14.715  14.437
39640W        W11900  41.422  32.411  10.547
39641W        W11901  44.017  40.860  12.571
39642W        W11902  26.140   0.247   2.165
39643W        W11903  22.981  30.563   1.531
39644W        W11904  28.454  21.528   3.337
39645W        W11905   4.965  36.352   3.655
39646W        W11906  34.008  13.275   2.930
39647W        W11907   8.218  43.245   4.182
39648W        W11908  36.041  38.490  14.539
39649W        W11909  36.027  42.470   3.275
39650W        W11910  31.903   6.521   3.684
39651W        W11911  12.220   4.097  10.958
39652W        W11912  42.897  41.616   2.249
39653W        W11913  41.825  35.147   4.089
39654W        W11914  14.803  34.245   5.068
39655W        W11915   4.300  26.653   1.264
39656W        W11916  32.401  11.208  13.939
39657W        W11917  20.198  19.118   3.552
39658W        W11918  37.640  35.099   3.723
39659W        W11919  38.532  14.755  14.939
39660W        W11920  40.336   6.374   3.249
39661W        W11921  26.527  35.384  12.457
39662W        W11922   6.309  35.942   5.304
39663W        W11923   7.941  23.049   1.266
39664W        W11924  27.659  19.741  10.650
39665W        W11925   1.860   6.806  11.229
39666W        W11926   3.244  10.153  13.914
39667W        W11927  13.251  16.539  14.675
39668W        W11928  27.170   3.737   1.303
39669W        W11929  22.074   3.737   3.231
39670W        W11930  11.276   7.342  13.062
39671W        W11931  17.307  26.188  12.690
39672W        W11932   5.350   3.965  14.576
39673W        W11933  28.495  33.916  12.648
39674W        W11934  14.314   8.531   4.613
39675W        W11935  21.231  18.477   0.293
39676W        W11936   6.263  11.356   3.278
39677W        W11937  36.155  34.574  10.775
39678W        W11938  25.021  27.051  11.394
39679W        W11939  33.918  25.764   0.054
39680W        W11940  39.852   5.750  12.979
39681W        W11941  13.026  40.578   3.194
39682W        W11942  31.020  34.574   0.796
39683W        W11943  11.321  33.086   0.357
39684W        W11944  35.981  28.645   0.467
39685W        W11945   8.289  36.054   4.690
39686W        W11946  18.414   1.927   0.210
39687W        W11947  18.219  16.138  14.797
39688W        W11948  21.191  32.472  12.175
39689W        W11949   3.313  37.461   1.618
39690W        W11950   9.603  14.413  13.921
39691W        W11951  31.120  26.580   4.427
39692W        W11952  39.773  13.759  11.640
39693W        W11953  14.758  12.571   0.857
39694W        W11954  27.937  30.279  13.831
39695W        W11955  39.985  14.425   0.783
39696W        W11956  43.970   0.355  11.534
39697W        W11957  24.078  30.575  11.857
39698W        W11958   9.341   1.379  13.301
39699W        W11959  16.661   6.098  13.335
39700W        W11960  40.588   5.960  11.996
39701W        W11961  11.240  13.237   4.803
39702W        W11962  29.428  33.898   0.373
39703W        W11963  43.012  39.414   2.884
39704W        W11964  13.041  34.999  12.517
39705W        W11965   5.691  30.652   4.298
39706W        W11966  27.450  17.652   2.607
39707W        W11967  16.754  24.711  13.273
39708W        W11968   7.292  15.379   2.742
39709W        W11969  32.593  19.601   0.705
39710W        W11970  16.758  12.620  13.463
39711W        W11971   3.137  38.790  13.630
39712W        W11972  37.518  29.673  12.591
39713W        W11973  31.509  12.150  13.797
39714W        W11974  35.336  36.744  12.993
39715W        W11975  34.394  38.111   2.053
39716W        W11976  18.999  15.727   2.873
39717W        W11977  40.810  10.781  13.536
39718W        W11978   4.883  23.835   1.744
39719W        W11979   4.929  26.346   1.880
39720W        W11980   8.087  24.959   0.044
39721W        W11981   9.726   1.778   0.908
39722W        W11982   5.874   8.428   3.345
39723W        W11983  37.873  14.557   1.334
39724W        W11984  33.644  21.688   1.037
39725W        W11985   9.410  35.584  10.963
39726W        W11986   0.538   2.822   3.437
39727W        W11987  37.677  18.549  14.983
39728W        W11988  33.109   7.169  13.603
39729W        W11989  32.644   7.879  10.611
39730W        W11990   1.435  27.507   1.906
39731W        W11991  43.881  29.751   0.743
39732W        W11992  40.819  42.169   2.046
39733W        W11993  14.305  14.781  14.555
39734W        W11994  22.693  43.064  12.951
39735W        W11995  28.438   8.529   1.444
39736W        W11996  12.358  19.724   4.617
39737W        W11997   4.358  38.906   4.737
39738W        W11998  25.239  40.977   2.323
39739W        W11999  14.812  15.875  14.043
39740W        W12000   1.465   7.395   0.067
39741W        W12001  44.186  29.693  10.738
39742W        W12002  41.545  15.842   4.280
39743W        W12003  10.397  35.411   2.864
39744W        W12004   9.357  18.141  12.489
39745W        W12005  40.855  25.435  11.717
39746W        W12006  16.825  10.858   2.302
39747W        W12007   9.297  21.733   3.626
39748W        W12008  19.506  29.630   0.949
39749W        W12009   1.179  28.153  11.915
39750W        W12010   2.976   7.367  10.869
39751W        W12011  28.972  24.144  12.872
39752W        W12012   5.781  43.522   3.668
39753W        W12013   5.369  11.714   1.657
39754W        W12014  43.519   6.146  13.029
39755W        W12015   2.851   7.730  13.078
39756W        W12016  11.716   1.965  11.458
39757W        W12017  29.576  16.596  11.209
39758W        W12018  42.824   0.044  12.412
39759W        W12019  35.562  20.202  11.932
39760W        W12020  20.667   1.992   0.906
39761W        W12021  40.897  35.287   1.156
39762W        W12022  40.926  16.213   0.430
39763W        W12023  38.416  17.110  11.552
39764W        W12024  21.306  33.452   4.153
39765W        W12025  41.847   5.348   3.127
39766W        W12026   5.191   8.421   0.407
39767W        W12027   1.495  38.623  13.854
39768W        W12028  10.312  26.470  10.718
39769W        W12029  30.545   3.582  11.484
39770W        W12030  14.851  19.975   4.549
39771W        W12031  37.519   6.629  14.044
39772W        W12032  35.893  19.312   0.728
39773W        W12033  11.317  32.130  10.561
39774W        W12034  39.369  32.392   4.517
39775W        W12035   4.231  20.766  11.588
39776W        W12036   4.928  17.692  12.442
39777W        W12037   1.817  27.565   4.874
39778W        W12038  20.765   8.357   4.786
39779W        W12039  25.813   6.754  12.001
39780W        W12040  25.976  28.899  13.365
39781W        W12041  13.933  23.229  13.449
39782W        W12042   3.908   4.902  13.070
39783W        W12043  42.390   9.416   3.166
39784W        W12044   1.543  34.086  14.284
39785W        W12045  24.873  12.785   2.187
39786W        W12046  36.128  18.080   2.182
39787W        W12047  22.814  17.456  10.003
39788W        W12048  20.462   6.654  14.467
39789W        W12049  36.159   9.393   3.565
39790W        W12050   9.707  15.551  11.584
39791W        W12051  38.849  40.825   4.038
39792W        W12052   8.702  23.591   3.144
39793W        W12053  15.324   2.392  14.987
39794W        W12054  31.752  41.164  10.268
39795W        W12055   6.445   7.831  12.892
39796W        W12056  37.922  15.686  10.936
39797W        W12057  24.846  13.190   2.826
39798W        W12058  24.586  23.974   2.222
39799W        W12059  40.068   9.151   3.127
39800W        W12060  27.016  41.911  11.401
39801W        W12061  20.015   6.497   9.784
39802W        W12062  42.677  22.523  14.742
39803W        W12063   6.149  27.990   5.251
39804W        W12064  12.613   1.468  14.842
39805W        W12065   8.251  11.141  10.915
39806W        W12066  21.757  12.856   0.301
39807W        W12067   4.885  32.690  10.409
39808W        W12068  13.099  32.948  13.872
39809W        W12069  33.367   3.322  10.436
39810W        W12070  12.966   6.158   4.238
39811W        W12071  24.010   8.814   3.486
39812W        W12072  39.434  28.601   1.269
39813W        W12073  22.487  22.802  13.063
39814W        W12074   7.729  14.737   4.252
39815W        W12075   7.324  35.012   4.393
39816W        W12076  25.225  36.989  13.074
39817W        W12077   4.010  19.125   0.602
39818W        W12078  43.307  15.391  11.554
39819W        W12079  17.320  29.147   2.579
39820W        W12080  27.548   0.716  12.110
39821W        W12081  35.050  40.019   4.122
39822W        W12082  22.601  28.577  14.049
39823W        W12083  29.171  26.559  11.704
39824W        W12084  29.563   2.913   2.314
39825W        W12085  23.228  38.571  10.596
39826W        W12086   5.953   1.664   5.071
39827W        W12087  41.857  21.444   0.223
39828W        W12088   9.066  29.437   3.305
39829W        W12089  31.480  32.549  11.292
39830W        W12090  37.306  12.199   0.923
39831W        W12091  26.968  13.408   1.332
39832W        W12092  31.782  29.691  11.011
39833W        W12093   7.373  24.122   4.675
39834W        W12094  14.174  40.452  12.854
39835W        W12095  17.369  41.022  14.558
39836W        W12096  26.167  42.195   2.422
39837W        W12097  16.617  40.319   2.823
39838W        W12098  30.944  27.557   1.278
39839W        W12099   9.917   8.369   0.953
39840W        W12100  40.983  44.074   2.458
39841W        W12101  23.602  25.637  13.765
39842W        W12102  26.467  11.069   3.418
39843W        W12103  19.698  37.867  14.724
39844W        W12104  36.367  24.158  11.916
39845W        W12105  11.098  18.010  11.138
39846W        W12106   3.448  43.361   0.250
39847W        W12107  17.750  18.585  12.227
39848W        W12108   3.162  10.219   3.721
39849W        W12109   5.156  23.693   2.269
39850W        W12110  32.556  12.303  13.125
39851W        W12111  13.058  28.840  12.518
39852W        W12112   4.458   8.651  13.508
39853W        W12113  17.611  18.711  14.950
39854W        W12114  22.533  28.644   5.429
39855W        W12115  14.110  43.531   1.835
39856W        W12116  27.038   7.732   4.144
39857W        W12117  34.024  44.267   1.580
39858W        W12118  38.578  38.349   3.192
39859W        W12119   7.157  40.451   1.409
39860W        W12120  22.555  44.169  11.486
39861W        W12121  19.258  33.176   3.289
39862W        W12122   9.634  41.260  12.999
39863W        W12123  41.151   3.477  11.660
39864W        W12124   8.230  29.089  13.058
39865W        W12125  39.040  24.191  14.834
39866W        W12126  23.583  35.694  12.496
39867W        W12127  31.561  42.075  11.229
39868W        W12128  28.868  19.433   4.417
39869W        W12129  41.872  23.514  14.372
39870W        W12130   4.550  36.242   4.740
39871W        W12131  28.123   1.416  12.042
39872W        W12132  10.422  13.633  14.729
39873W        W12133   2.367  19.539  14.952
39874W        W12134  29.592   1.717   4.240
39875W        W12135  22.500   4.652  10.851
39876W        W12136  29.940  35.634   1.802
39877W        W12137  40.071  41.706   0.444
39878W        W12138  24.217  43.039  14.882
39879W        W12139  38.344  25.892  10.695
39880W        W12140   6.591  22.059   2.735
39881W        W12141  31.220   4.383   4.609
39882W        W12142  23.918  26.913   0.114
39883W        W12143   6.740  10.724   0.248
39884W        W12144  28.464  30.854   0.207
39885W        W12145  22.641  29.298   1.480
39886W        W12146   3.825  40.308   2.785
39887W        W12147  21.006  39.803   2.030
39888W        W12148  26.592  27.717  14.604
39889W        W12149  43.417   4.647   1.696
39890W        W12150  24.453  24.651  14.847
39891W        W12151   3.210  27.677   0.390
39892W        W12152  37.829  22.270   5.033
39893W        W12153   3.900  43.788  11.704
39894W        W12154  27.158  36.017  12.839
39895W        W12155  40.410  41.898  13.016
39896W        W12156   3.703  18.277   2.030
39897W        W12157  39.338  42.005   2.390
39898W        W12158  18.267   5.303   4.179
39899W        W12159  33.138  35.020  13.554
39900W        W12160   4.974  14.556   4.145
39901W        W12161  27.211  25.624  12.897
39902W        W12162  10.007  20.229  14.469
39903W        W12163  18.297  16.884   1.378
39904W        W12164  28.340   1.015  11.076
39905W        W12165  16.178   6.820   3.172
39906W        W12166  22.490  38.540  13.618
39907W        W12167  21.942   3.189  11.065
39908W        W12168  15.266   6.133  12.418
39909W        W12169  23.024   6.970  12.529
39910W        W12170  30.936  29.164  10.066
39911W        W12171  30.940  42.476   3.356
39912W        W12172  26.097   2.922   2.655
39913W        W12173  11.765  30.087  13.391
39914W        W12174  17.337  31.895  11.855
39915W        W12175  25.868   0.270   3.385
39916W        W12176  40.932  43.130   1.365
39917W        W12177   5.418  29.705  13.847
39918W        W12178   9.607  39.770   4.516
39919W        W12179  35.039  20.223   2.644
39920W        W12180  43.939  41.472   1.781
39921W        W12181  14.605  16.214   0.715
39922W        W12182  23.706   3.348  14.317
39923W        W12183  35.355  28.944   2.753
39924W        W12184  12.961  42.383   3.188
39925W        W12185   8.294   5.357   2.138
39926W        W12186  37.908  10.811   0.779
39927W        W12187  28.527   9.615  14.064
39928W        W12188  21.072   8.863   3.156
39929W        W12189   1.992  38.122  12.192
39930W        W12190  41.920  13.260  14.409
39931W        W12191  13.308  17.292   2.745
39932W        W12192   4.164  30.653  12.273
39933W        W12193  35.996  35.173   1.880
39934W        W12194  34.911  23.686  12.902
39935W        W12195   1.237  36.338   0.602
39936W        W12196  36.052   8.220  11.675
39937W        W12197  20.024  14.806  10.631
39938W        W12198  22.638  40.183  11.081
39939W        W12199  32.536  32.420   1.288
39940W        W12200   0.508  26.005   4.205
39941W        W12201  41.026  36.072   3.216
39942W        W12202   3.149  16.799   1.164
39943W        W12203  44.373  13.851  12.371
39944W        W12204  14.852  40.527  10.755
39945W        W12205  14.087  26.113   2.866
39946W        W12206  43.886  17.150   3.668
39947W        W12207   2.944   3.861  14.492
39948W        W12208  42.488  10.659  11.383
39949W        W12209   0.738   6.114  12.472
39950W        W12210   2.330   1.271   0.735
39951W        W12211   7.625  39.031  12.585
39952W        W12212   4.146  21.296  14.841
39953W        W12213  16.283  39.970   1.921
39954W        W12214  15.697  39.653   4.301
39955W        W12215  26.595   9.465   2.217
39956W        W12216  34.345  40.484   3.937
39957W        W12217  28.963  13.895   3.669
39958W        W12218   4.908  31.108   4.096
39959W        W12219  22.657  12.158  12.581
39960W        W12220   0.683  26.464   0.415
39961W        W12221  30.890  34.917   3.710
39962W        W12222  40.517  15.833  10.229
39963W        W12223  15.529  40.035  11.114
39964W        W12224   7.363  41.989   2.409
39965W        W12225   6.015  19.089   3.313
39966W        W12226   8.832  37.457  10.335
39967W        W12227  13.200  28.609  13.981
39968W        W12228  16.103  10.282   2.899
39969W        W12229   8.498  17.646   2.387
39970W        W12230  39.369   9.755  14.772
39971W        W12231   0.530   1.942   1.967
39972W        W12232  42.541   7.769   0.371
39973W        W12233   0.997  40.558  11.004
39974W        W12234  40.480  25.453   0.439
39975W        W12235  28.890   1.085   3.092
39976W        W12236   9.524  27.777  14.955
39977W        W12237  38.773  10.111   1.550
39978W        W12238  23.759  19.757   2.765
39979W        W12239  34.220  34.566  14.689
39980W        W12240  21.553   5.645  13.072
39981W        W12241  31.173  29.646   5.082
39982W        W12242  23.511  31.482   0.544
39983W        W12243   9.356  43.046  12.178
39984W        W12244   7.898  26.037  13.879
39985W        W12245   6.138  20.312  14.023
39986W        W12246  44.810  43.311  14.549
39987W        W12247  30.916  33.798   3.147
39988W        W12248  14.076  32.854   4.296
39989W        W12249  26.127  10.436   0.348
39990W        W12250  43.844  18.563   2.264
39991W        W12251  39.391  34.382  11.060
39992W        W12252  33.343  13.270  12.959
39993W        W12253  27.493  31.930   0.439
39994W        W12254  43.939  26.371   4.248
39995W        W12255  32.494  25.607   2.011
39996W        W12256   1.435  26.482   1.601
39997W        W12257   3.837  16.370  12.972
39998W        W12258  10.470  37.893  10.215
39999W        W12259   2.422  28.805  11.884
40000W        W12260   3.080  17.251  12.729
40001W        W12261  41.774  10.867   4.903
40002W        W12262   6.391  11.696   0.479
40003W        W12263  15.212  11.218  13.982
40004W        W12264  14.823  44.729   0.010
40005W        W12265  31.666  35.257   0.278
40006W        W12266  34.426  25.746   3.343
40007W        W12267   5.207  26.636   4.746
40008W        W12268   6.587  24.704  11.960
40009W        W12269  23.127  24.726  12.413
40010W        W12270   8.435  14.287  14.935
40011W        W12271  31.497  33.085   1.395
40012W        W12272  33.750  35.831   2.376
40013W        W12273  33.956   3.337  14.399
40014W        W12274  28.875   0.323   0.299
40015W        W12275  18.112  14.654   0.093
40016W        W12276  15.625   9.619  12.351
40017W        W12277   1.001  41.289   3.188
40018W        W12278  35.696  20.419   2.674
40019W        W12279  11.322  43.707  12.581
40020W        W12280  11.713  42.092  11.489
40021W        W12281   8.927  43.844  11.652
40022W        W12282   6.728  18.404  11.966
40023W        W12283  21.438  27.130   0.340
40024W        W12284  12.017  19.759   0.086
40025W        W12285  26.832  34.279   3.220
40026W        W12286  22.238  43.768  11.575
40027W        W12287  43.475   3.752  13.859
40028W        W12288  35.151  22.122   9.938
40029W        W12289   8.399   0.749  12.567
40030W        W12290  39.384  21.729   2.848
40031W        W12291  25.974  24.510   1.574
40032W        W12292  38.081  26.154   0.673
40033W        W12293  16.275  32.581  12.438
40034W        W12294  29.464  11.706   3.306
40035W        W12295   6.465  15.801  11.706
40036W        W12296  27.027  11.377  11.756
40037W        W12297  30.958   3.286  11.522
40038W        W12298  10.621  41.007   0.779
40039W        W12299   0.568   2.721  12.518
40040W        W12300  28.063   7.323  12.433
40041W        W12301  30.501  33.909  11.606
40042W        W12302   3.195  26.201   1.779
40043W        W12303  16.879  33.091  13.411
40044W        W12304  23.981   6.630  13.850
40045W        W12305   2.656  11.623   4.833
40046W        W12306   2.407  34.508  13.960
40047W        W12307   4.329   0.446  12.452
40048W        W12308  13.899  15.168  10.163
40049W        W12309  12.284  13.338   2.615
40050W        W12310   7.367  24.484   1.405
40051W        W12311  12.839  33.095   3.422
40052W        W12312  15.719   3.070   0.830
40053W        W12313   1.408  26.387  12.813
40054W        W12314  16.108  29.444   1.321
40055W        W12315  20.822  41.087  14.365
40056W        W12316   4.270  35.358  11.544
40057W        W12317  12.774  18.433   0.887
40058W        W12318  11.144  27.199   0.470
40059W        W12319  26.876  12.142   0.789
40060W        W12320   9.667  43.991   2.290
40061W        W12321  32.951  33.240   4.115
40062W        W12322   3.019  40.293  12.730
40063W        W12323  31.909  16.272  14.900
40064W        W12324  40.899  24.218  14.063
40065W        W12325  19.089  14.341  10.676
40066W        W12326  20.280  20.106  12.063
40067W        W12327  28.311   8.210   4.535
40068W        W12328   2.689  31.161  13.056
40069W        W12329  28.497  22.330  10.314
40070W        W12330  31.173  36.627   4.135
40071W        W12331  18.238  17.066  11.450
40072W        W12332   8.233  40.543   2.318
40073W        W12333  29.136  30.627  12.170
40074W        W12334  18.489  26.744   4.536
40075W        W12335  28.367  21.092   4.946
40076W        W12336  23.069   8.353  14.783
40077W        W12337  22.949  20.331   0.790
40078W        W12338  34.859  10.527  13.695
40079W        W12339  38.795  17.638   1.363
40080W        W12340   6.990   9.834   2.312
40081W        W12341  29.295  15.664  14.812
40082W        W12342  44.246  40.519  13.885
40083W        W12343  38.470  22.517  14.196
40084W        W12344  15.664  20.241  10.710
40085W        W12345   2.791  23.330  12.196
40086W        W12346  32.381  33.770  11.789
40087W        W12347  18.230  38.072  11.073
40088W        W12348   7.604  15.317  14.055
40089W        W12349  38.380  44.911  10.747
40090W        W12350  43.837  38.370  14.555
40091W        W12351  41.330  16.898   0.145
40092W        W12352  33.408  42.229  12.880
40093W        W12353  15.421  39.524   1.896
40094W        W12354  12.745  42.145   0.761
40095W        W12355  41.355  23.002   3.791
40096W        W12356   6.758  35.399   0.412
40097W        W12357   6.302  25.274  13.052
40098W        W12358  41.620   2.849  11.137
40099W        W12359  39.325  17.345  14.421
40100W        W12360  17.292   4.075  12.486
40101W        W12361   8.351  27.681  13.021
40102W        W12362  14.041   7.248  14.225
40103W        W12363  42.820  20.699   3.240
40104W        W12364  22.115  32.040  13.276
40105W        W12365  12.199   2.219  14.677
40106W        W12366  39.331   2.954   3.315
40107W        W12367   7.179  25.035   3.238
40108W        W12368  36.379  17.238   2.913
40109W        W12369  24.573  39.300  12.567
40110W        W12370  31.729  38.490   2.821
40111W        W12371  42.364  23.725  12.673
40112W        W12372  28.530  10.324   0.934
40113W        W12373  33.142  29.186  11.871
40114W        W12374  44.253  37.314  14.091
40115W        W12375  19.307  17.244  12.960
40116W        W12376  11.316   8.496   4.628
40117W        W12377  16.270  12.130   3.322
40118W        W12378  23.499  11.674   4.682
40119W        W12379  14.060  19.616  10.996
40120W        W12380  34.390  38.580   1.805
40121W        W12381   8.934  41.350   9.985
40122W        W12382  15.280  29.782   0.363
40123W        W12383  27.928  19.907   2.245
40124W        W12384  29.894   3.852   4.683
40125W        W12385  28.460  36.494  11.094
40126W        W12386  35.060  13.442   4.561
40127W        W12387  40.825  13.903   0.372
40128W        W12388  20.271  44.214   2.901
40129W        W12389  40.314  33.011  12.621
40130W        W12390   8.957  16.622  14.909
40131W        W12391  17.053   4.605  11.041
40132W        W12392   7.417  42.007   1.886
40133W        W12393  34.657  12.066  14.804
40134W        W12394  36.686  44.575   2.320
40135W        W12395  41.293  31.252   2.283
40136W        W12396  26.062  30.904   3.116
40137W        W12397  23.766   4.810  13.861
40138W        W12398  22.320   2.170   1.488
40139W        W12399  28.638  23.270  12.470
40140W        W12400  26.037  38.125  13.883
40141W        W12401  34.855   7.853   2.855
40142W        W12402   1.901  33.123  10.871
40143W        W12403  16.548  37.581  11.476
40144W        W12404  33.310  10.807   2.320
40145W        W12405  28.053   6.372   2.736
40146W        W12406  21.471  30.592   1.785
40147W        W12407  29.399  20.038   2.974
40148W        W12408  19.016   5.339  10.198
40149W        W12409  44.408   8.883  14.933
40150W        W12410  41.441  24.835  12.537
40151W        W12411  36.426  44.008  13.432
40152W        W12412  32.073  30.416   0.250
40153W        W12413  23.497  21.453  12.847
40154W        W12414   8.738   3.017   2.711
40155W        W12415  16.209  13.730  12.929
40156W        W12416   2.708  33.939  11.584
40157W        W12417  24.105  40.386   2.758
40158W        W12418  34.865   2.749  13.514
40159W        W12419   2.355  13.243   4.775
40160W        W12420  22.565  30.638   3.605
40161W        W12421  40.314  31.629  14.836
40162W        W12422  37.099  34.494   4.662
40163W        W12423  35.090  25.619  11.148
40164W        W12424  16.544  31.076   0.847
40165W        W12425  29.077  38.560  14.778
40166W        W12426  22.180   9.117  11.246
40167W        W12427   8.364  26.717   4.466
40168W        W12428   2.697  18.264   3.686
40169W        W12429  42.143  23.663  13.966
40170W        W12430  42.873  39.206  13.362
40171W        W12431  39.223  14.072   1.336
40172W        W12432   3.717  41.586   0.269
40173W        W12433  21.106  22.177   4.476
40174W        W12434  38.401  14.072   1.297
40175W        W12435  13.677  14.165   2.138
40176W        W12436  32.538  33.935   3.922
40177W        W12437  38.391  11.114   3.835
40178W        W12438   7.201  39.655  11.177
40179W        W12439  33.020  18.109  13.862
40180W        W12440   8.787  32.924  14.140
40181W        W12441  27.926  25.410  12.530
40182W        W12442  42.515  32.725   2.572
40183W        W12443  42.245  15.980  11.029
40184W        W12444  18.697  28.591   1.209
40185W        W12445  33.877  16.952  12.945
40186W        W12446  31.286  16.226   0.490
40187W        W12447  21.107  28.604  13.846
40188W        W12448   2.536   1.862  11.850
40189W        W12449  22.379  38.175  14.942
40190W        W12450  11.334   7.545  12.026
40191W        W12451  31.994  19.719   1.335
40192W        W12452  32.984   7.667  13.540
40193W        W12453  23.224  28.246   0.930
40194W        W12454  36.803   3.814   0.343
40195W        W12455   8.371   0.372   2.442
40196W        W12456  35.553  33.309  14.237
40197W        W12457  38.950  10.706   1.763
40198W        W12458  22.664  32.893  14.740
40199W        W12459  41.095  17.653   1.283
40200W        W12460   9.247  12.149   1.777
40201W        W12461  14.588  27.676  10.974
40202W        W12462  37.786  29.258  11.148
40203W        W12463  11.919   5.392   4.413
40204W        W12464  33.338   2.494   1.778
40205W        W12465  26.482  10.285   2.635
40206W        W12466   6.644  40.525   1.284
40207W        W12467  38.207  29.263  13.036
40208W        W12468  34.083  36.431  13.970
40209W        W12469  19.301  38.008  11.957
40210W        W12470  25.294  22.767   5.212
40211W        W12471  30.967  38.277  11.699
40212W        W12472  16.664  18.231  12.285
40213W        W12473  41.797  26.230   3.777
40214W        W12474  28.220  17.634  12.326
40215W        W12475  43.438   0.682  13.935
40216W        W12476   9.929  20.244   2.866
40217W        W12477  16.852  28.228  10.194
40218W        W12478   0.444   9.976   3.717
40219W        W12479  28.870  11.647  14.689
40220W        W12480   8.836  44.972  13.572
40221W        W12481  36.679  16.832   2.760
40222W        W12482  40.530   7.423   1.014
40223W        W12483  20.293  24.522  12.502
40224W        W12484  28.500  15.550  10.674
40225W        W12485  44.943  20.174  12.535
40226W        W12486   5.186  37.283   4.023
40227W        W12487  30.847  35.989   0.786
40228W        W12488  22.789  39.867   4.139
40229W        W12489  11.246   8.129   4.244
40230W        W12490  34.555  39.965  12.945
40231W        W12491   0.743  20.222  12.942
40232W        W12492  35.371  44.527  10.131
40233W        W12493  11.381  44.225   0.888
40234W        W12494  10.722  39.322  12.373
40235W        W12495  42.963  11.779   3.264
40236W        W12496  40.199  34.500  14.310
40237W        W12497  20.817  21.985   4.849
40238W        W12498  34.107  29.788  12.812
40239W        W12499  44.959  30.184   4.144
40240W        W12500  29.194  23.647   1.801
40241W        W12501   0.851   5.852  13.608
40242W        W12502  16.549  20.983  14.849
40243W        W12503   3.362  38.946  11.366
40244W        W12504  22.669  31.658  10.992
40245W        W12505  16.532  31.097   2.378
40246W        W12506  43.344  32.381  14.261
40247W        W12507  19.916  41.575  13.501
40248W        W12508   6.593  30.850   1.864
40249W        W12509  19.042  31.002   4.488
40250W        W12510  25.048  12.543   0.840
40251W        W12511  24.022  35.051  12.063
40252W        W12512  33.634  34.429   2.242
40253W        W12513   5.675  31.924  14.091
40254W        W12514   1.944   5.355   0.880
40255W        W12515   5.769  15.745   4.665
40256W        W12516  38.669  41.957   4.222
40257W        W12517  43.289  39.043   1.736
40258W        W12518  12.689  31.440   0.531
40259W        W12519  11.457  37.040  14.966
40260W        W12520  11.417   9.418   1.259
40261W        W12521  42.261  27.537   3.150
40262W        W12522  15.540  42.725  11.504
40263W        W12523  21.642  15.145   4.834
40264W        W12524  38.372  10.337   1.330
40265W        W12525  41.821  37.919  14.883
40266W        W12526  16.228  38.096   0.769
40267W        W12527   6.377  20.533   2.240
40268W        W12528  20.793  19.939   3.843
40269W        W12529  22.909  38.752  12.005
40270W        W12530  14.094   6.605   0.960
40271W        W12531  44.412  18.547  12.069
40272W        W12532  21.072  23.469  11.023
40273W        W12533   9.902  16.760   3.305
40274W        W12534  41.424  24.788   4.102
40275W        W12535  31.092   3.374   4.404
40276W        W12536  22.322  14.497  13.234
40277W        W12537  34.687  28.594   4.758
40278W        W12538  37.186  21.435   2.004
40279W        W12539  15.234  31.057   0.401
40280W        W12540  34.439  15.616   2.310
40281W        W12541   9.503   6.131  11.252
40282W        W12542  14.747  13.334   3.790
40283W        W12543  25.659  37.343   4.639
40284W        W12544   4.015  21.298  13.971
40285W        W12545  41.824   0.698  12.076
40286W        W12546   6.936  27.017  11.886
40287W        W12547   6.408  13.136   1.646
40288W        W12548  28.233  12.718   2.556
40289W        W12549  24.489  37.537  12.939
40290W        W12550  14.536   1.011  11.176
40291W        W12551   9.138  23.032  14.017
40292W        W12552  37.702  10.092   2.780
40293W        W12553  11.375  43.967   3.116
40294W        W12554  40.495  18.647   0.343
40295W        W12555   7.984  41.372  11.268
40296W        W12556  23.667  19.075   3.029
40297W        W12557   9.696  19.491  12.503
40298W        W12558  30.021  12.566   1.258
40299W        W12559  24.084  16.801  10.734
40300W        W12560  12.679   1.263   3.768
40301W        W12561   0.531  18.667   2.729
40302W        W12562  13.694  39.529   2.693
40303W        W12563   8.167  31.633  12.982
40304W        W12564  22.646  18.628  12.677
40305W        W12565   0.906  40.051  14.960
40306W        W12566  34.398  18.230   3.694
40307W        W12567  35.290  41.343   4.135
40308W        W12568  30.982   5.775  12.129
40309W        W12569   1.416  25.625  12.398
40310W        W12570   4.855  10.586  14.873
40311W        W12571  18.658  22.285  11.506
40312W        W12572   3.201  42.649   0.259
40313W        W12573  40.461  30.159   4.764
40314W        W12574  11.303  10.769   4.021
40315W        W12575  31.384  23.002  11.045
40316W        W12576  42.406  44.738   1.918
40317W        W12577  27.183  31.080  13.420
40318W        W12578   3.832  31.645   0.890
40319W        W12579  38.034  36.392   1.218
40320W        W12580  13.556  17.901  13.006
40321W        W12581  40.056   6.149  13.283
40322W        W12582  18.328  36.103   2.211
40323W        W12583  41.613   1.343  13.922
40324W        W12584  20.084  44.281   3.387
40325W        W12585   8.705  36.283   2.115
40326W        W12586  21.990   4.972   2.779
40327W        W12587  21.005  10.242   1.497
40328W        W12588  19.127   5.943   1.658
40329W        W12589   9.923  19.611   3.323
40330W        W12590  15.590   5.308   2.001
40331W        W12591  18.722   2.882  13.818
40332W        W12592   9.936  27.068  11.926
40333W        W12593  35.653  17.101   2.299
40334W        W12594  16.593  42.955  13.542
40335W        W12595  38.935  40.727   1.402
40336W        W12596  39.397  15.474   3.703
40337W        W12597   7.011   2.115  11.186
40338W        W12598  33.942   7.225  12.047
40339W        W12599  13.198  11.992   3.660
40340W        W12600   9.369  18.629  14.729
40341W        W12601   7.262  37.443  12.815
40342W        W12602  22.468  27.070  13.893
40343W        W12603  17.173  14.862   3.701
40344W        W12604   2.428  21.614   2.404
40345W        W12605  33.400  13.524  10.688
40346W        W12606  35.725  15.538  10.448
40347W        W12607  18.769  13.799  13.964
40348W        W12608  41.892   1.841   1.959
40349W        W12609  24.071   8.436   4.982
40350W        W12610   7.847  24.391   1.261
40351W        W12611  29.919   6.781  13.835
40352W        W12612  18.024  20.507   0.367
40353W        W12613  25.469   2.296  14.581
40354W        W12614  42.066  25.443  11.182
40355W        W12615  43.915   6.643   2.327
40356W        W12616   1.850  15.859  10.619
40357W        W12617   7.677  34.804   2.686
40358W        W12618  38.267  25.450   1.825
40359W        W12619   5.568   5.837   4.254
40360W        W12620  41.869  30.232   2.939
40361W        W12621  36.875  17.479  10.754
40362W        W12622  15.841  16.243  10.468
40363W        W12623  44.450  10.823   2.398
40364W        W12624  28.356   0.907   3.180
40365W        W12625  22.054  11.627  12.025
40366W        W12626  25.416  32.061   0.404
40367W        W12627   5.064  28.157   0.977
40368W        W12628  43.849  30.007  14.941
40369W        W12629  13.779   6.674   1.364
40370W        W12630   7.750  31.271   3.202
40371W        W12631  10.125   3.337  11.015
40372W        W12632  23.409  21.243   3.700
40373W        W12633  23.805   3.592   4.984
40374W        W12634  30.057  40.942  13.420
40375W        W12635  30.968  33.154   3.943
40376W        W12636  42.338   0.201  12.108
40377W        W12637  29.369  32.507   3.138
40378W        W12638   6.726  18.938   1.006
40379W        W12639  22.961  22.742  10.335
40380W        W12640   3.580   1.164   3.674
40381W        W12641  33.501  18.204   0.648
40382W        W12642  26.258  44.730   1.254
40383W        W12643  33.071  43.824  11.581
40384W        W12644   7.386  37.673   3.696
40385W        W12645   7.149  33.698  12.539
40386W        W12646  15.907  32.336  14.825
40387W        W12647  10.307   4.829  10.348
40388W        W12648  14.282  30.944  11.420
40389W        W12649   4.030  30.476  12.749
40390W        W12650  29.477  11.754   0.426
40391W        W12651   1.932  17.496  11.645
40392W        W12652  15.885  14.388  11.020
40393W        W12653  20.438   2.272   1.317
40394W        W12654  17.064  21.136   4.035
40395W        W12655  40.133  39.858  11.130
40396W        W12656  38.131  14.318   1.700
40397W        W12657   8.031  37.172   4.196
40398W        W12658  26.444  11.577  11.192
40399W        W12659  41.896  42.955   0.281
40400W        W12660  27.408  31.477   0.686
40401W        W12661  17.189  33.584   4.292
40402W        W12662  24.083   6.776   2.749
40403W        W12663  15.988   8.465   4.271
40404W        W12664   0.288  42.137   4.003
40405W        W12665  26.018  19.139   1.333
40406W        W12666  23.329   6.122  10.867
40407W        W12667   2.174   7.575   1.314
40408W        W12668  24.847  32.526   0.020
40409W        W12669  22.225  32.884  10.478
40410W        W12670  42.043  38.050   1.844
40411W        W12671  17.768  20.802  13.009
40412W        W12672  30.363  20.444  12.388
40413W        W12673  12.847  21.248  13.334
40414W        W12674  25.809   9.647  11.377
40415W        W12675  35.751   0.968   1.810
40416W        W12676   2.492  38.068   4.133
40417W        W12677  44.995  35.427  11.397
40418W        W12678  41.501  44.517  14.701
40419W        W12679  39.906  16.954   4.136
40420W        W12680  20.521  34.564   4.282
40421W        W12681   8.984   3.742  12.925
40422W        W12682  31.887  24.130  14.224
40423W        W12683  17.595  36.623   4.135
40424W        W12684  36.967  11.887  12.308
40425W        W12685  23.314  35.853  13.827
40426W        W12686  43.462  26.934   4.264
40427W        W12687  27.736  17.004  13.100
40428W        W12688  36.987  32.512   0.863
40429W        W12689  11.166  38.606  14.391
40430W        W12690  11.251  16.090  14.500
40431W        W12691  23.652  24.507   0.272
40432W        W12692  39.415  36.958  11.975
40433W        W12693  15.784   6.253   4.304
40434W        W12694  22.586  44.222  12.442
40435W        W12695  21.340  39.165  12.488
40436W        W12696   1.836  29.595  11.936
40437W        W12697  38.487  23.996  11.476
40438W        W12698   0.742  14.738   1.704
40439W        W12699  27.053  34.854   2.764
40440W        W12700  42.964  17.607   0.614
40441W        W12701   1.639   3.953  12.961
40442W        W12702  14.328  36.770  13.767
40443W        W12703  12.734  29.698   1.245
40444W        W12704  38.777  19.890  10.295
40445W        W12705   5.239   6.198  13.866
40446W        W12706  42.008  17.087  13.573
40447W        W12707  35.420  30.956   1.189
40448W        W12708   4.239  21.298  11.612
40449W        W12709   8.151  41.026   4.040
40450W        W12710  10.064  18.038  10.366
40451W        W12711  36.586  35.900   1.262
40452W        W12712   1.221  44.546   2.166
40453W        W12713  24.050  32.125  12.648
40454W        W12714  20.853   4.415  14.589
40455W        W12715  23.552  35.137   4.106
40456W        W12716   3.227  18.350   2.349
40457W        W12717  25.025  28.589   2.860
40458W        W12718   3.751  37.133  12.528
40459W        W12719  43.674  42.963  13.907
40460W        W12720  14.032   9.382   0.131
40461W        W12721  20.130  13.102  14.617
40462W        W12722   7.826   1.847  14.354
40463W        W12723  12.948  36.670   1.617
40464W        W12724  26.933  41.966   4.674
40465W        W12725  33.019  23.682   0.505
40466W        W12726  40.247   8.095  10.162
40467W        W12727  29.451  23.120  11.966
40468W        W12728  17.763  32.405   3.272
40469W        W12729  22.808  30.177  14.019
40470W        W12730  34.832  42.960   0.455
40471W        W12731  36.421  37.312   0.699
40472W        W12732   6.169  16.068   3.385
40473W        W12733   2.950   6.090   1.806
40474W        W12734  22.117  44.289   2.636
40475W        W12735  44.896  11.183   4.586
40476W        W12736   3.457  16.142   2.447
40477W        W12737  39.574  42.933  13.556
40478W        W12738  27.603   1.237  12.121
40479W        W12739  29.543  16.747   3.697
40480W        W12740  11.220  25.480   0.725
40481W        W12741  32.037  28.475  11.492
40482W        W12742   9.061  15.276  12.169
40483W        W12743  24.413  13.377   2.584
40484W        W12744  36.356  39.875  13.093
40485W        W12745  27.274  27.912   3.318
40486W        W12746  21.692  34.938   3.579
40487W        W12747   0.458  22.167   1.883
40488W        W12748  26.539   4.932   3.197
40489W        W12749  25.519  29.526   4.338
40490W        W12750  13.332  29.477  11.755
40491W        W12751  40.130  10.284   5.017
40492W        W12752   8.269  17.388  10.866
40493W        W12753  25.981  30.838  12.038
40494W        W12754  30.870  37.629   2.186
40495W        W12755  31.306  35.353  10.777
40496W        W12756  14.142   7.765  13.330
40497W        W12757  30.375  42.934   3.684
40498W        W12758  35.071  13.664   3.601
40499W        W12759  14.154  14.696  13.384
40500W        W12760  13.204   4.859   1.933
40501W        W12761   3.009  44.020  14.012
40502W        W12762  21.120   5.751   4.124
40503W        W12763  34.930  22.579   3.725
40504W        W12764  30.067  25.430   0.466
40505W        W12765  23.148  12.380  13.501
40506W        W12766  10.143  44.955  11.148
40507W        W12767   2.234  13.916  11.581
40508W        W12768  22.832  39.999  10.599
40509W        W12769  31.415  11.346  12.382
40510W        W12770  25.798  11.908  13.785
40511W        W12771   9.814  25.521   2.336
40512W        W12772   8.879  19.767   0.314
40513W        W12773  10.950   4.911   2.718
40514W        W12774   5.851  20.648  12.978
40515W        W12775  42.867  18.072  12.219
40516W        W12776  24.631  11.272  11.208
40517W        W12777  24.163  42.000   3.281
40518W        W12778  36.513   5.466  11.722
40519W        W12779   6.127  15.896   5.011
40520W        W12780  15.838  43.621  13.583
40521W        W12781   3.831  14.334   1.745
40522W        W12782  20.560   6.861   2.204
40523W        W12783  23.888   1.512  13.446
40524W        W12784  25.780  44.729  13.759
40525W        W12785  29.591  17.248   2.782
40526W        W12786  40.143  28.379   0.772
40527W        W12787  23.942   9.368  14.039
40528W        W12788  36.437  24.052   0.235
40529W        W12789   0.742  16.371  11.168
40530W        W12790  37.072  21.534   4.312
40531W        W12791  36.238  12.724   1.120
40532W        W12792  27.492   0.865  10.928
40533W        W12793   6.278  18.167  14.007
40534W        W12794  33.606  26.479   2.633
40535W        W12795  44.451  40.286  14.828
40536W        W12796  16.287   6.794  11.039
40537W        W12797  33.437  28.615   0.347
40538W        W12798   4.528   9.841   0.477
40539W        W12799   5.605  39.258   2.715
40540W        W12800  30.508   9.847   2.805
40541W        W12801   3.371  23.421  10.860
40542W        W12802  27.597  40.421  11.449
40543W        W12803  32.961  41.232   2.846
40544W        W12804  16.117  39.268   4.131
40545W        W12805  21.576  38.991  11.117
40546W        W12806  41.471   0.518  10.866
40547W        W12807   2.972  43.997   0.726
40548W        W12808  10.073  39.752  10.964
40549W        W12809  31.657   7.379  11.519
40550W        W12810  18.178  13.728  11.430
40551W        W12811  10.938  33.553  10.346
40552W        W12812   3.885  32.958  10.759
40553W        W12813  37.651  38.549   3.275
40554W        W12814   1.103   3.921  12.976
40555W        W12815  30.366  14.391   4.760
40556W        W12816  19.497  43.938   2.102
40557W        W12817  35.090  15.991  11.897
40558W        W12818   6.434  22.634   3.502
40559W        W12819  42.969  41.109   2.237
40560W        W12820   9.089  43.364  10.392
40561W        W12821  41.953  18.606  11.468
40562W        W12822   7.821  29.266   2.881
40563W        W12823   0.497  27.693   3.727
40564W        W12824  27.901   1.236   4.277
40565W        W12825  25.001  27.208   1.345
40566W        W12826  26.982  12.791   3.870
40567W        W12827  32.599  35.638   3.163
40568W        W12828   1.944  44.886   0.068
40569W        W12829   2.436  42.956  12.687
40570W        W12830  32.656   9.252   0.436
40571W        W12831  12.081  33.474  11.714
40572W        W12832  33.454   2.087   4.130
40573W        W12833  31.893  20.641  13.809
40574W        W12834   0.357   5.620   4.224
40575W        W12835  23.274  39.781  13.005
40576W        W12836  43.510  12.323  13.468
40577W        W12837   9.590   0.160  13.802
40578W        W12838   3.557   5.320   1.872
40579W        W12839  40.503  38.594   0.641
40580W        W12840   3.017  36.586  11.440
40581W        W12841   5.469  14.321  14.404
40582W        W12842  13.868   3.014   4.656
40583W        W12843  30.234  35.434   1.381
40584W        W12844  20.740  44.672  13.541
40585W        W12845  20.948  14.073   1.963
40586W        W12846   8.787  21.797  14.561
40587W        W12847   7.182  22.965   0.322
40588W        W12848  12.911  27.940   0.068
40589W        W12849   9.698  36.886  14.278
40590W        W12850  12.574  39.967   2.609
40591W        W12851  35.228  24.993   1.314
40592W        W12852   8.476  41.025   3.558
40593W        W12853  34.922  10.133   2.261
40594W        W12854  34.588  27.927   3.425
40595W        W12855  30.155  36.814   2.329
40596W        W12856  15.841  41.948   4.545
40597W        W12857  25.726  31.994   2.249
40598W        W12858  12.703  20.329   1.160
40599W        W12859  21.784  19.388   4.087
40600W        W12860  33.174   9.482   1.286
40601W        W12861  34.209  19.115   0.829
40602W        W12862  43.245  25.168  12.578
40603W        W12863  14.753  35.185   0.011
40604W        W12864  42.574  36.468   2.587
40605W        W12865  16.260  29.076   2.884
40606W        W12866  42.571  22.558  11.013
40607W        W12867   0.022  43.601   0.892
40608W        W12868  15.581  43.979   4.610
40609W        W12869  18.170   8.613  12.887
40610W        W12870  28.894   5.772   0.097
40611W        W12871  34.016  25.454   1.821
40612W        W12872  28.969  29.071  11.008
40613W        W12873  23.264  36.418   3.399
40614W        W12874  18.405  23.350   0.707
40615W        W12875  24.168  14.677   4.464
40616W        W12876  22.695  24.104   0.852
40617W        W12877  21.698  26.526   2.164
40618W        W12878  16.164  44.422   2.553
40619W        W12879  14.391  21.124  12.646
40620W        W12880  21.977  33.614  11.181
40621W        W12881  30.648   2.966   0.669
40622W        W12882  31.816  19.684  12.848
40623W        W12883  19.251  43.558  12.911
40624W        W12884  44.038  40.753   4.050
40625W        W12885  39.360   6.001   1.547
40626W        W12886   7.930  38.602  12.523
40627W        W12887  35.326  30.100  13.020
40628W        W12888  33.159  35.916   4.682
40629W        W12889  15.503   1.700   1.904
40630W        W12890  19.787  25.999  12.860
40631W        W12891  42.733   5.456   0.743
40632W        W12892  10.356  22.546  11.924
40633W        W12893  38.139  19.979  14.002
40634W        W12894   2.441   2.934  11.953
40635W        W12895  10.802   2.447  11.186
40636W        W12896  24.450  35.441   3.223
40637W        W12897   9.555  23.477  11.666
40638W        W12898   3.794  23.094  14.508
40639W        W12899  10.549  13.683   4.452
40640W        W12900  38.967  16.734  13.539
40641W        W12901  22.503  36.028   0.679
40642W        W12902   7.353  13.177   3.598
40643W        W12903  41.940  32.090   1.504
40644W        W12904  28.249  34.176  13.513
40645W        W12905  26.968  26.608   0.327
40646W        W12906  32.992   7.140  10.667
40647W        W12907   0.367  33.057   4.128
40648W        W12908  40.056  27.247   0.354
40649W        W12909  30.582  36.089  11.628
40650W        W12910   0.321  12.238  12.845
40651W        W12911  14.885  34.543  13.802
40652W        W12912  11.119  33.980   2.259
40653W        W12913  28.408  19.151   4.548
40654W        W12914  20.029  34.515  14.718
40655W        W12915  34.595   2.603   1.713
40656W        W12916  24.390  38.050   0.314
40657W        W12917  44.817  14.652   2.709
40658W        W12918   6.645  43.313  13.435
40659W        W12919  14.154   3.335  10.705
40660W        W12920  23.526  16.647   4.700
40661W        W12921  28.269   4.733  11.155
40662W        W12922  24.275  14.093   3.214
40663W        W12923  42.101  40.938  10.528
40664W        W12924  32.505  16.930   3.584
40665W        W12925  23.609  27.517  10.512
40666W        W12926  43.851  18.095  11.544
40667W        W12927   1.665   4.893   0.895
40668W        W12928  37.298   2.845  10.791
40669W        W12929  38.814   9.438   5.040
40670W        W12930   6.830  22.562  11.726
40671W        W12931  20.027  16.576  12.596
40672W        W12932  19.001  21.277   3.286
40673W        W12933  13.892  39.785  13.805
40674W        W12934  25.685  37.849  10.554
40675W        W12935  25.768  11.426  13.986
40676W        W12936  21.562  34.421  14.702
40677W        W12937  16.666  27.012   2.807
40678W        W12938  14.239  12.017   1.362
40679W        W12939  44.718  14.889  14.267
40680W        W12940   6.925  35.381  10.765
40681W        W12941  41.977   8.187   2.422
40682W        W12942  22.008  19.709  13.764
40683W        W12943   6.754  19.321   4.208
40684W        W12944   7.208  19.779   0.219
40685W        W12945  35.971   4.834   1.505
40686W        W12946  34.052  26.511   1.760
40687W        W12947   7.803  41.050   1.790
40688W        W12948   3.955   0.761  12.029
40689W        W12949  18.509   5.715  12.576
40690W        W12950  26.021  15.536  12.301
40691W        W12951  19.757  33.608  11.428
40692W        W12952  40.608  31.442  14.472
40693W        W12953  28.410  31.501  13.774
40694W        W12954  15.710   6.415  13.303
40695W        W12955  28.908  27.632  14.737
40696W        W12956   8.241   8.453  11.971
40697W        W12957   4.317  34.392  14.827
40698W        W12958  14.472  36.075   4.823
40699W        W12959   6.890  13.148   2.412
40700W        W12960   7.311  33.910   3.136
40701W        W12961  11.630  39.825   1.059
40702W        W12962  10.522  32.383  11.153
40703W        W12963   6.176   7.860  13.333
40704W        W12964   1.225   3.242  12.570
40705W        W12965  30.169   5.283   4.245
40706W        W12966  33.164  19.066  14.992
40707W        W12967   1.154  15.975   4.124
40708W        W12968   4.868  39.576   0.161
40709W        W12969  20.245  34.633  12.894
40710W        W12970  14.324  15.951  10.039
40711W        W12971   5.891  16.311   2.432
40712W        W12972  26.883  44.732  12.567
40713W        W12973   2.381  36.768   0.058
40714W        W12974   4.142  44.875  11.728
40715W        W12975  24.035  35.444   2.933
40716W        W12976  42.502  36.718   3.015
40717W        W12977  26.035   8.853  10.988
40718W        W12978  10.566  26.146   3.136
40719W        W12979  15.652  34.026  12.413
40720W        W12980  24.623  31.130   1.381
40721W        W12981  34.961   6.782  11.578
40722W        W12982  30.997  21.194  12.625
40723W        W12983  13.619  43.774  14.284
40724W        W12984  40.528  23.652   0.433
40725W        W12985   9.186  14.716   1.903
40726W        W12986  15.542  29.155   0.255
40727W        W12987  17.248   5.156   4.287
40728W        W12988  38.871  42.350  14.702
40729W        W12989  30.201  18.074   1.826
40730W        W12990  35.338  19.655  10.648
40731W        W12991  27.759  29.593   0.808
40732W        W12992  42.602  20.024   1.865
40733W        W12993  36.412  13.856  10.862
40734W        W12994  30.966   8.804   1.389
40735W        W12995  21.075  11.228   3.244
40736W        W12996  31.942  41.214  12.038
40737W        W12997  21.706  24.739  14.458
40738W        W12998  10.450   9.724  14.527
40739W        W12999  15.727   7.331   1.502
40740W        W13000  25.548  18.250   3.587
40741W        W13001  23.682  27.742  14.854
40742W        W13002   8.251   1.220   4.608
40743W        W13003  27.092  27.208   4.456
40744W        W13004  25.151  37.740   0.820
40745W        W13005   6.232  26.536  14.090
40746W        W13006   1.174  36.268  14.360
40747W        W13007  37.114  40.126   0.750
40748W        W13008  22.200   8.752   3.214
40749W        W13009  23.030  17.019   1.132
40750W        W13010  36.385   0.245  12.154
40751W        W13011  25.368   8.153  13.120
40752W        W13012  32.557  39.919   4.122
40753W        W13013  25.970  16.130   1.126
40754W        W13014  37.560  25.492   4.155
40755W        W13015  33.853  29.015  11.102
40756W        W13016  41.902  40.427  13.072
40757W        W13017  24.239  22.953   2.011
40758W        W13018  23.278  34.850   3.787
40759W        W13019  44.839  41.523  13.336
40760W        W13020  32.019  33.548   0.288
40761W        W13021  44.906  27.019   3.735
40762W        W13022   5.295  23.447  13.787
40763W        W13023  39.373  31.460  12.798
40764W        W13024  27.701  20.709  10.976
40765W        W13025  28.223  39.406   4.165
40766W        W13026  37.122   5.711   2.661
40767W        W13027   5.255  32.647   3.262
40768W        W13028  10.676  21.712  10.705
40769W        W13029  25.998  16.257   1.721
40770W        W13030   8.688  10.324   1.225
40771W        W13031  26.254   9.187  13.654
40772W        W13032  10.667   4.418   4.894
40773W        W13033   2.244  11.910   0.531
40774W        W13034  40.666  40.614   4.846
40775W        W13035  38.734  32.361  13.973
40776W        W13036  25.664   9.698  11.862
40777W        W13037  10.994  24.227   4.689
40778W        W13038  30.491  28.037  13.973
40779W        W13039  30.562  44.924   1.337
40780W        W13040  29.438  11.567   2.488
40781W        W13041  38.527  19.104  12.350
40782W        W13042  36.286  30.540  13.504
40783W        W13043  31.440  40.286  14.910
40784W        W13044  13.936  38.840  12.457
40785W        W13045  24.419  13.012   2.225
40786W        W13046  31.370  29.120  14.531
40787W        W13047  28.666   1.994  11.583
40788W        W13048  21.606  26.253  14.485
40789W        W13049  29.107  36.586   3.790
40790W        W13050   8.185   1.009  12.062
40791W        W13051  19.710  32.824  12.168
40792W        W13052  44.145  41.628   4.182
40793W        W13053  23.413  26.713  13.012
40794W        W13054  11.352  24.530  14.143
40795W        W13055  11.664  36.424  14.580
40796W        W13056  10.383  36.354   4.694
40797W        W13057  41.753  42.381   3.598
40798W        W13058   9.859   9.628  12.398
40799W        W13059  10.290   9.405   1.981
40800W        W13060  18.195   7.628   4.105
40801W        W13061  42.514  29.211  13.375
40802W        W13062  20.135   9.425   0.396
40803W        W13063  39.345   3.948  11.435
40804W        W13064  44.076   6.782  14.433
40805W        W13065  26.191  18.099   3.044
40806W        W13066  34.632   4.739  13.514
40807W        W13067   0.089  34.954  11.607
40808W        W13068   8.717  29.506  14.057
40809W        W13069  40.912  14.961  12.796
40810W        W13070  28.937  32.574   1.293
40811W        W13071  29.146   8.803   4.583
40812W        W13072  42.897   7.931   2.653
40813W        W13073  28.895  25.702  13.599
40814W        W13074  39.776  11.324  12.884
40815W        W13075  43.176  30.682  14.963
40816W        W13076   3.337  40.302  11.134
40817W        W13077  43.365  25.654  11.357
40818W        W13078  36.515  13.896   2.752
40819W        W13079   7.427  22.133   3.312
40820W        W13080  19.594  36.393   2.234
40821W        W13081  37.391  42.499   4.836
40822W        W13082  10.394  10.835   3.107
40823W        W13083  38.852  34.845  14.915
40824W        W13084  13.378  39.308   1.858
40825W        W13085  22.705  25.470  10.948
40826W        W13086   8.524  36.754   2.801
40827W        W13087  10.770  23.013   1.147
40828W        W13088  24.669  14.986   1.849
40829W        W13089  36.818  26.577   3.465
40830W        W13090  11.730   5.727   1.147
40831W        W13091  27.980  31.058   0.348
40832W        W13092  42.708   1.902   1.394
40833W        W13093  26.291  31.339   3.289
40834W        W13094  15.630  24.565  10.794
40835W        W13095  10.739  25.248  14.015
40836W        W13096   4.851   3.894   0.483
40837W        W13097   0.329  14.313   4.112
40838W        W13098   2.940  44.447  14.476
40839W        W13099  35.476  26.256  13.536
40840W        W13100  42.299  41.312  12.131
40841W        W13101  43.486  12.431   3.603
40842W        W13102   6.340  18.870   5.036
40843W        W13103  26.310   8.628  10.167
40844W        W13104   7.751  14.103   2.613
40845W        W13105  24.060  20.330   5.026
40846W        W13106   5.756  31.988  11.126
40847W        W13107  42.946   7.900   5.080
40848W        W13108  17.859  19.739   4.578
40849W        W13109   7.190  30.462  12.123
40850W        W13110   1.056   3.346   3.684
40851W        W13111  21.730  36.654   2.339
40852W        W13112  22.328  28.413   5.007
40853W        W13113  30.180  29.630   5.037
40854W        W13114  25.921  31.534  11.647
40855W        W13115  10.669   6.384  13.962
40856W        W13116  34.456   4.885  11.734
40857W        W13117  16.616   4.045  14.442
40858W        W13118  36.432  41.893   4.448
40859W        W13119  30.397  19.545  12.408
40860W        W13120  39.183  33.480  11.452
40861W        W13121  26.888  23.422  13.802
40862W        W13122   8.872  42.883  13.627
40863W        W13123  21.033  28.769  11.957
40864W        W13124   5.428  26.125   4.757
40865W        W13125  26.511  26.488  14.109
40866W        W13126  41.448  18.565   2.335
40867W        W13127  17.330   1.136  11.061
40868W        W13128   0.308  40.536  12.522
40869W        W13129  12.137  35.658   3.876
40870W        W13130  40.230   7.377  11.734
40871W        W13131  40.067  17.112   3.226
40872W        W13132  18.646  29.851  12.773
40873W        W13133  44.721   3.057   2.135
40874W        W13134  15.584  27.626   2.661
40875W        W13135  22.024   0.413   0.304
40876W        W13136  18.369   1.349   2.326
40877W        W13137   4.990   8.278   4.699
40878W        W13138  14.827  43.320  12.001
40879W        W13139  41.889   6.452   0.224
40880W        W13140  13.954   9.583   4.099
40881W        W13141  10.912  43.808  11.713
40882W        W13142  19.580  21.222   0.340
40883W        W13143  23.982  19.169   9.848
40884W        W13144  40.003  25.094   2.390
40885W        W13145  11.780  28.448   3.183
40886W        W13146   4.943   2.368   4.609
40887W        W13147  42.846  44.338   4.530
40888W        W13148  34.635  26.551   4.247
40889W        W13149  22.328   6.252  12.597
40890W        W13150   1.193  34.860   2.927
40891W        W13151  14.355   5.775  11.192
40892W        W13152  11.808  25.182  11.308
40893W        W13153  27.105  27.567  10.937
40894W        W13154   8.145  31.919  11.999
40895W        W13155  33.897  28.046   4.642
40896W        W13156  10.468  17.910   2.878
40897W        W13157  38.375  41.448   0.067
40898W        W13158  31.857  27.282   3.247
40899W        W13159  23.537  26.055   3.786
40900W        W13160  10.479  38.445   3.777
40901W        W13161  33.143  11.130   3.743
40902W        W13162  42.098   6.097  11.105
40903W        W13163   2.876  23.786  13.023
40904W        W13164  14.849   2.953   0.808
40905W        W13165   4.976  27.118   1.609
40906W        W13166  18.108  35.497   1.400
40907W        W13167  40.109  10.221  10.451
40908W        W13168   9.194  21.161  13.970
40909W        W13169   7.659  43.704  10.587
40910W        W13170   9.289   3.398  12.643
40911W        W13171  13.624  42.847  12.817
40912W        W13172  40.042  33.480   2.901
40913W        W13173  10.972  38.350   3.902
40914W        W13174  12.151  29.495  13.032
40915W        W13175   0.452  38.382  11.169
40916W        W13176  23.059  33.547  10.578
40917W        W13177  32.580   4.692   1.675
40918W        W13178  15.151  40.183   0.701
40919W        W13179  17.065  11.173  13.403
40920W        W13180  40.074  30.553  10.744
40921W        W13181  20.564   0.457   1.368
40922W        W13182  17.612  29.384  14.049
40923W        W13183  10.108  25.585   0.330
40924W        W13184  22.296  39.197  13.392
40925W        W13185   1.065  37.802   2.422
40926W        W13186  44.919  20.290   4.981
40927W        W13187  17.494  36.368   2.292
40928W        W13188  39.925  11.859   0.151
40929W        W13189  24.513   1.751   0.273
40930W        W13190  19.739   2.873  13.794
40931W        W13191   6.197  41.497   1.834
40932W        W13192  31.533  41.369   4.657
40933W        W13193   2.842  42.295   0.348
40934W        W13194  42.727  10.700  13.029
40935W        W13195   9.136  35.939  11.989
40936W        W13196   8.760  43.958   4.178
40937W        W13197  23.311  40.751   1.698
40938W        W13198  38.576  41.567   1.361
40939W        W13199  28.358  32.907  13.949
40940W        W13200  21.274  16.251  11.996
40941W        W13201  39.915   5.878  10.766
40942W        W13202  22.414  42.638  13.416
40943W        W13203  34.995  32.382  11.307
40944W        W13204  33.858  19.897   3.875
40945W        W13205  27.235  36.012   3.067
40946W        W13206   2.958  20.211  11.526
40947W        W13207  29.456   0.410   2.775
40948W        W13208   7.414   5.739   2.840
40949W        W13209   1.970  42.560   0.308
40950W        W13210  22.558   1.929   4.631
40951W        W13211   4.757  40.352   2.841
40952W        W13212   0.311   3.820   0.872
40953W        W13213  38.979  34.891  10.835
40954W        W13214  37.385   3.065  13.508
40955W        W13215  17.861  16.814  14.246
40956W        W13216  17.795  23.258   3.819
40957W        W13217  22.189  39.036   3.770
40958W        W13218   9.416  34.976  12.953
40959W        W13219   8.754   8.418  10.751
40960W        W13220  27.028   9.900   3.369
40961W        W13221  17.539  21.925  11.971
40962W        W13222   8.368   4.383  12.454
40963W        W13223   2.332   8.918  14.781
40964W        W13224   6.183   5.893  11.360
40965W        W13225  14.647  36.395   4.108
40966W        W13226  35.597  35.801   2.714
40967W        W13227   7.803  20.751  13.703
40968W        W13228   3.480   3.693   4.542
40969W        W13229  32.521   5.729  10.579
40970W        W13230  19.741  36.334   1.311
40971W        W13231   3.917  17.277   2.216
40972W        W13232  12.076   3.390  13.645
40973W        W13233  35.407  22.666   1.946
40974W        W13234  32.027  19.700  13.802
40975W        W13235  30.626  36.583  11.547
40976W        W13236  14.327  23.655  12.097
40977W        W13237  36.889  34.989   3.214
40978W        W13238   2.227  16.791  11.016
40979W        W13239  14.671  17.691  11.688
40980W        W13240   5.695  44.022  10.506
40981W        W13241  25.458  33.197   3.142
40982W        W13242  26.770  27.338  12.919
40983W        W13243  29.863   1.515  11.719
40984W        W13244  41.760  13.509  11.299
40985W        W13245  11.247  20.778   3.232
40986W        W13246  18.532   9.259   1.866
40987W        W13247  37.088   1.817  12.900
40988W        W13248  18.718  13.208   4.104
40989W        W13249  23.039  28.044   4.565
40990W        W13250  10.344   1.498   2.255
40991W        W13251   2.803  27.141   4.119
40992W        W13252  21.463  26.753  14.488
40993W        W13253   1.458  10.972  12.444
40994W        W13254  31.053   8.196   0.405
40995W        W13255  35.650  16.658  12.579
40996W        W13256  40.953  24.443   3.773
40997W        W13257  19.045   9.066   5.124
40998W        W13258  20.160  31.666  11.227
40999W        W13259  11.464  27.239   2.273
41000W        W13260  23.631   2.449  13.322
41001W        W13261  19.111   9.856   4.129
41002W        W13262   4.212  34.973  10.675
41003W        W13263  34.938  15.260  14.787
41004W        W13264  19.181  36.972  12.690
41005W        W13265  30.111  30.669   2.165
41006W        W13266  20.857  31.522  10.621
41007W        W13267   4.940  11.802   5.195
41008W        W13268  12.780  34.255  12.130
41009W        W13269  42.314  37.154   2.777
41010W        W13270  30.957  42.784   2.592
41011W        W13271  44.261  21.180   3.664
41012W        W13272  36.925  33.562   4.798
41013W        W13273   6.146  26.234  13.253
41014W        W13274  13.881   4.651  11.462
41015W        W13275  26.853  26.560  13.255
41016W        W13276  29.377  22.565  13.016
41017W        W13277  37.037  31.592  13.892
41018W        W13278  25.021  27.312  12.381
41019W        W13279  24.160  29.669  12.829
41020W        W13280  16.672  26.935   2.236
41021W        W13281  10.154   9.743  11.128
41022W        W13282  34.467  17.117   4.020
41023W        W13283   9.836  29.237  11.624
41024W        W13284  38.876  17.665  10.382
41025W        W13285  44.349  22.194  11.201
41026W        W13286  16.750  15.596   0.777
41027W        W13287  40.725  34.054   3.935
41028W        W13288   3.449  30.554   2.507
41029W        W13289  14.774   3.197   1.314
41030W        W13290  29.729   0.544  11.512
41031W        W13291  40.246  20.075   0.397
41032W        W13292  13.745  30.788  14.025
41033W        W13293  36.991  33.498  10.681
41034W        W13294  42.744   4.219  12.970
41035W        W13295   9.180  29.975   3.235
41036W        W13296  28.436   0.537   0.446
41037W        W13297  42.980  23.223   0.886
41038W        W13298  22.655  23.500   0.215
41039W        W13299  25.890  41.758  14.052
41040W        W13300   6.252   4.707  10.649
41041W        W13301  18.599  30.714   4.654
41042W        W13302  25.962   9.312  14.592
41043W        W13303  21.398   2.324   3.570
41044W        W13304  32.346  34.297  14.387
41045W        W13305   8.377   6.091   4.185
41046W        W13306  11.300   6.883  12.848
41047W        W13307   0.587  23.260  12.337
41048W        W13308  14.182  15.167   0.531
41049W        W13309  12.524  27.696   0.352
41050W        W13310  44.208  30.932  14.901
41051W        W13311  13.329   1.110   1.792
41052W        W13312   1.465  28.483  11.136
41053W        W13313  33.792  34.974   3.224
41054W        W13314  32.388  18.708  13.609
41055W        W13315  37.369  10.660   3.384
41056W        W13316  33.138  39.018  13.325
41057W        W13317  27.059  29.976  14.298
41058W        W13318  37.710  12.999   1.432
41059W        W13319   5.462  30.913   3.893
41060W        W13320  33.941  24.292   2.315
41061W        W13321  39.738  31.175   0.586
41062W        W13322  20.353  10.761  11.882
41063W        W13323   4.957  38.325  12.450
41064W        W13324  36.837   5.209   0.490
41065W        W13325  40.832  18.646   3.150
41066W        W13326  11.925   4.095   2.660
41067W        W13327  22.477  43.957  14.290
41068W        W13328   5.721   2.231  11.599
41069W        W13329  22.287  22.133  10.287
41070W        W13330  20.840   3.919   2.691
41071W        W13331   9.128  17.506  13.985
41072W        W13332  44.013  40.004  10.119
41073W        W13333  14.255  19.758  10.178
41074W        W13334  42.520  17.169  11.540
41075W        W13335   2.459  11.198  12.877
41076W        W13336  27.147  43.303  13.917
41077W        W13337  19.747  24.928  14.638
41078W        W13338  17.246  21.735  13.924
41079W        W13339  23.519  11.782   2.629
41080W        W13340  19.758  29.168   0.815
41081W        W13341  13.945  19.801   0.805
41082W        W13342  34.938  38.923  13.525
41083W        W13343  44.747  40.578   0.949
41084W        W13344  25.689  44.404   1.287
41085W        W13345  13.439  15.339  12.040
41086W        W13346  24.082  18.817   3.764
41087W        W13347  10.624   2.931  12.956
41088W        W13348  32.552  12.571   2.628
41089W        W13349  21.498  10.761  12.573
41090W        W13350  39.936   8.501   0.430
41091W        W13351  22.578  24.030  12.405
41092W        W13352  26.032   5.366  10.636
41093W        W13353  12.432  19.519  14.901
41094W        W13354  33.525  33.402   1.355
41095W        W13355  21.739  43.268   2.704
41096W        W13356  12.149  26.462  13.780
41097W        W13357  29.030  11.241   2.684
41098W        W13358   1.498   3.602   3.735
41099W        W13359  17.033  12.117   4.859
41100W        W13360  40.757  11.952  11.120
41101W        W13361  16.129  39.781   3.534
41102W        W13362  18.017   8.259   2.413
41103W        W13363  37.886   1.843   4.626
41104W        W13364   9.435  42.835   2.660
41105W        W13365  27.120  14.340  10.876
41106W        W13366  41.466  17.992   1.429
41107W        W13367  36.286  27.098  13.237
41108W        W13368   6.775  26.424  14.462
41109W        W13369  41.202   2.460   2.358
41110W        W13370  22.060  18.168   4.517
41111W        W13371  37.498  38.624  13.571
41112W        W13372  19.662  36.242  12.031
41113W        W13373  40.062   7.060   1.007
41114W        W13374  25.841   6.011  12.969
41115W        W13375   1.914   7.657  14.993
41116W        W13376  13.700  30.472   5.468
41117W        W13377  33.604  18.471  14.372
41118W        W13378  38.505  22.945   3.210
41119W        W13379   9.759  34.119   0.894
41120W        W13380  31.805  15.357  12.792
41121W        W13381  26.262  17.396  11.156
41122W        W13382  18.137  27.024  10.933
41123W        W13383  42.509  42.435  14.438
41124W        W13384  21.950   0.757   2.891
41125W        W13385   8.485   8.713   2.124
41126W        W13386  20.984   1.016   1.874
41127W        W13387  24.962   6.412  13.079
41128W        W13388  10.718  22.971   0.114
41129W        W13389   6.431  10.725   1.367
41130W        W13390  44.917  32.676   3.188
41131W        W13391  40.931   6.831  13.864
41132W        W13392  15.628  42.344   0.279
41133W        W13393  39.172  19.738  10.602
41134W        W13394   5.436  17.704   0.806
41135W        W13395  27.175   3.801  11.127
41136W        W13396   8.849  14.142   2.156
41137W        W13397  37.886  24.320   2.223
41138W        W13398  34.066   2.914  10.675
41139W        W13399  35.333  20.621  12.158
41140W        W13400  26.342  25.724  12.356
41141W        W13401  31.438  19.131   3.407
41142W        W13402  32.658  21.132   1.089
41143W        W13403  17.077  11.174   1.956
41144W        W13404  39.358  44.633  13.894
41145W        W13405  43.490   5.008  14.426
41146W        W13406  40.041  35.415   0.165
41147W        W13407  26.713  39.501   0.013
41148W        W13408  14.403  19.517  10.630
41149W        W13409   5.391  32.201  13.475
41150W        W13410   4.206  35.112  14.848
41151W        W13411  21.323  10.758   0.521
41152W        W13412  34.963  22.153  14.068
41153W        W13413  10.318  16.181   4.581
41154W        W13414  31.643   5.301   4.892
41155W        W13415  12.738  35.544  12.760
41156W        W13416   5.189  25.652   0.469
41157W        W13417  17.740  12.359   0.719
41158W        W13418   2.932   3.206  12.556
41159W        W13419   2.775  35.820   2.821
41160W        W13420  17.935   7.876   2.089
41161W        W13421   9.359   2.957   1.337
41162W        W13422  43.713  15.078  14.906
41163W        W13423  33.563   5.282  14.329
41164W        W13424   5.964  12.801   1.420
41165W        W13425  10.909   0.002  11.469
41166W        W13426  12.162  34.655   0.282
41167W        W13427   7.731  10.580  13.331
41168W        W13428  28.451  38.976  11.079
41169W        W13429   2.753  39.684   0.933
41170W        W13430   9.403   8.080  13.434
41171W        W13431  30.621  25.193  11.198
41172W        W13432  10.873  26.998  10.611
41173W        W13433  34.548  28.649  12.089
41174W        W13434  28.979  24.640  10.758
41175W        W13435  12.412  18.530   2.199
41176W        W13436  40.036  32.037   1.814
41177W        W13437  24.679  14.520  11.574
41178W        W13438   2.463  43.762  14.805
41179W        W13439   5.102  10.204   3.632
41180W        W13440  36.205  27.936   1.566
41181W        W13441  38.985  28.536   3.933
41182W        W13442   9.155  24.680  10.760
41183W        W13443  21.205  25.862   5.410
41184W        W13444  33.594  33.108   3.080
41185W        W13445   1.868  30.093   0.024
41186W        W13446  32.410  41.987   1.734
41187W        W13447  41.631  26.803   1.070
41188W        W13448  32.417  21.062   0.606
41189W        W13449  39.008   4.508  10.755
41190W        W13450   9.790   4.434   2.827
41191W        W13451  42.654   0.315  12.842
41192W        W13452  32.633   2.786   3.555
41193W        W13453   7.832  13.249   0.490
41194W        W13454  15.055  32.277  13.399
41195W        W13455  14.108   8.269   0.337
41196W        W13456  39.978   1.421   0.879
41197W        W13457  10.875  44.467  13.338
41198W        W13458  16.768   9.594   1.888
41199W        W13459   8.712  17.511   4.547
41200W        W13460  27.460   2.027   3.336
41201W        W13461  10.298   9.895   1.762
41202W        W13462  10.232  27.183  13.270
41203W        W13463  14.903  27.058   2.700
41204W        W13464  27.395  11.004  13.318
41205W        W13465  18.042  25.856   4.726
41206W        W13466  31.183  31.175   4.170
41207W        W13467  19.037  41.867   2.856
41208W        W13468  42.818   4.322   1.597
41209W        W13469   5.531  28.592  14.486
41210W        W13470  15.720   8.647  14.833
41211W        W13471  38.314   1.488  14.982
41212W        W13472  44.866  34.590   2.309
41213W        W13473  35.114  23.062  14.358
41214W        W13474   1.839  20.079  12.424
41215W        W13475  17.730  34.680   3.764
41216W        W13476  11.606  34.599  14.351
41217W        W13477  32.113   7.141  12.706
41218W        W13478  43.248  15.903  11.432
41219W        W13479  10.994   8.902   4.555
41220W        W13480  30.074  13.344  14.919
41221W        W13481  41.794  18.633  10.537
41222W        W13482  31.417  37.498   3.797
41223W        W13483  44.056  26.597  13.875
41224W        W13484   2.036  27.159   3.171
41225W        W13485  11.649   3.834  12.066
41226W        W13486  41.577  41.346  12.932
41227W        W13487  34.001  11.396  13.370
41228W        W13488  12.549  21.096  11.668
41229W        W13489  35.024  38.071   1.328
41230W        W13490  13.669  28.734   0.116
41231W        W13491  22.987  20.774  12.497
41232W        W13492  15.029  15.275   3.816
41233W        W13493  28.052  38.151  14.339
41234W        W13494  27.970  27.087   3.373
41235W        W13495   7.479  14.276   3.399
41236W        W13496  23.116   4.471  12.970
41237W        W13497  38.981  31.499   2.827
41238W        W13498  35.918   9.949  11.035
41239W        W13499   4.077  22.663  14.645
41240W        W13500  15.278  40.276  13.657
41241W        W13501   1.317  31.383  13.893
41242W        W13502  12.743  17.676   3.703
41243W        W13503  23.641  29.799  10.609
41244W        W13504  10.157  35.564   5.052
41245W        W13505  25.166  15.717   3.445
41246W        W13506  13.381  33.494  14.771
41247W        W13507   3.978  42.077  12.074
41248W        W13508  43.224  33.719  10.853
41249W        W13509  15.812  26.026  13.760
41250W        W13510  32.940  15.539  12.100
41251W        W13511  38.114  33.911  12.137
41252W        W13512   8.060   2.150   0.742
41253W        W13513   8.381  34.400   3.776
41254W        W13514  21.145   8.786  10.281
41255W        W13515   3.939  39.491   0.531
41256W        W13516  39.135  30.143  11.172
41257W        W13517  43.896   9.630  14.063
41258W        W13518  42.932  43.258   1.953
41259W        W13519  30.467  33.119   2.755
41260W        W13520  16.293   6.243  11.566
41261W        W13521  21.260  32.391   1.216
41262W        W13522   9.096  21.653  14.112
41263W        W13523   3.319   2.475   0.010
41264W        W13524  37.475  43.015   4.578
41265W        W13525  37.549  13.233   4.575
41266W        W13526   7.105  43.363  14.460
41267W        W13527  24.562  16.608  10.655
41268W        W13528  39.945  16.782   4.662
41269W        W13529  35.298  26.880  14.498
41270W        W13530  12.312  34.590   2.231
41271W        W13531   4.176  13.361  13.133
41272W        W13532   4.403  39.200  10.628
41273W        W13533  32.469   1.963   1.263
41274W        W13534  43.242  20.763  10.214
41275W        W13535  26.029  10.165   3.762
41276W        W13536  14.385  19.086  11.964
41277W        W13537  29.137  28.398  14.971
41278W        W13538  32.344   6.840  11.123
41279W        W13539  16.744  40.533  11.102
41280W        W13540   8.959  32.156   1.973
41281W        W13541  31.904   0.713   4.752
41282W        W13542  26.575  24.739   2.327
41283W        W13543  29.473   1.265  11.978
41284W        W13544  21.629  11.487  11.073
41285W        W13545   3.246  14.782   1.606
41286W        W13546  40.732  43.045  14.287
41287W        W13547   3.837  44.705  12.887
41288W        W13548  20.191  23.085   1.919
41289W        W13549   1.863  23.453  11.940
41290W        W13550  13.977  12.693   4.517
41291W        W13551  35.143  34.629  12.422
41292W        W13552  14.106  29.648   1.744
41293W        W13553   8.830  12.813  12.028
41294W        W13554  15.829  39.828  10.733
41295W        W13555  41.751  32.947  13.084
41296W        W13556   6.803  38.867  10.631
41297W        W13557  13.240  37.067   3.206
41298W        W13558  38.140  37.463   4.543
41299W        W13559  35.078  24.248   4.509
41300W        W13560   8.205  30.880   4.852
41301W        W13561   9.389  31.676  13.450
41302W        W13562  28.146  44.602   0.438
41303W        W13563  21.172  17.108   1.224
41304W        W13564  27.692  33.390   0.058
41305W        W13565  44.004  16.646  12.525
41306W        W13566   7.383   4.222  11.536
41307W        W13567  27.911  34.127  14.387
41308W        W13568  23.807  40.613   1.794
41309W        W13569  28.490  14.920   2.584
41310W        W13570  13.360  21.224  13.510
41311W        W13571   8.218  39.766   1.136
41312W        W13572  24.509  26.231  11.075
41313W        W13573  37.599  17.837  11.116
41314W        W13574  19.650   4.668  14.024
41315W        W13575  36.873   3.274   2.819
41316W        W13576  35.163  37.127  12.519
41317W        W13577   7.349  11.069   2.818
41318W        W13578  20.999   1.210   4.081
41319W        W13579  16.618  44.838   1.325
41320W        W13580  12.335  23.270   0.722
41321W        W13581  30.921  26.384  11.519
41322W        W13582  17.660  32.036   4.795
41323W        W13583  24.255  11.699   3.254
41324W        W13584  40.316   5.324  12.577
41325W        W13585   6.592  37.563  10.991
41326W        W13586  36.086   5.248   1.876
41327W        W13587  13.123  31.897   4.601
41328W        W13588  12.325  44.390   2.326
41329W        W13589   5.915  29.547  13.975
41330W        W13590  39.554  29.423  12.630
41331W        W13591  35.287  34.392   0.811
41332W        W13592  28.938  43.266  14.948
41333W        W13593   6.613   7.669   2.787
41334W        W13594   4.674  39.412   2.020
41335W        W13595   0.773  31.643  13.024
41336W        W13596  31.614   3.442   2.741
41337W        W13597  34.879  11.843  12.744
41338W        W13598  32.056  23.243   4.615
41339W        W13599  38.557   1.715  14.447
41340W        W13600  35.031  28.008  12.551
41341W        W13601  36.586  36.205  11.529
41342W        W13602  38.041  32.648  11.092
41343W        W13603  34.965  16.760  11.080
41344W        W13604  10.652   8.029   4.632
41345W        W13605  40.519  35.141   4.122
41346W        W13606  33.755  34.864   0.081
41347W        W13607  44.012  32.132  13.489
41348W        W13608  23.824   8.075   2.761
41349W        W13609  10.070   9.392  11.473
41350W        W13610  43.585  11.114   3.648
41351W        W13611  15.724  22.282  10.591
41352W        W13612  21.439  40.046   1.207
41353W        W13613  22.482  17.766   3.745
41354W        W13614  44.234  15.686   2.833
41355W        W13615   6.731  24.958  12.489
41356W        W13616  28.425  28.504   3.099
41357W        W13617  33.081  27.182  11.648
41358W        W13618  15.683  32.585   2.712
41359W        W13619   8.108  31.314  12.577
41360W        W13620  24.210   6.443  13.420
41361W        W13621  32.619   1.540  12.896
41362W        W13622  18.264  19.126   2.182
41363W        W13623  23.001   7.243  10.952
41364W        W13624  16.997  10.226  14.787
41365W        W13625  23.569  29.074   4.067
41366W        W13626  27.419  25.955  13.264
41367W        W13627  43.003  42.531  14.322
41368W        W13628  27.921  10.380   0.355
41369W        W13629   7.936  35.383  13.027
41370W        W13630  36.010  11.103  12.924
41371W        W13631   8.688  15.850   1.380
41372W        W13632  15.668  34.705  14.919
41373W        W13633  37.077   5.236  14.032
41374W        W13634  33.576  11.230  10.110
41375W        W13635  38.468  21.784   2.432
41376W        W13636  17.771  10.155   3.599
41377W        W13637  32.084  19.103   2.017
41378W        W13638  36.470   2.433  12.014
41379W        W13639  20.584  31.328  12.020
41380W        W13640  39.903   9.094  13.002
41381W        W13641  27.400   7.039   3.552
41382W        W13642  26.656   3.514   1.261
41383W        W13643  24.013  44.934   1.994
41384W        W13644   6.342  38.336  11.251
41385W        W13645  37.343  40.062   4.340
41386W        W13646  19.786  43.421  10.456
41387W        W13647  31.998   0.739  12.911
41388W        W13648   3.776  14.832   1.914
41389W        W13649  13.326   8.742   0.241
41390W        W13650  36.853  23.255  12.512
41391W        W13651  31.482  29.689   3.794
41392W        W13652   6.452  33.262   2.674
41393W        W13653  16.648   8.384   2.276
41394W        W13654   6.617  23.529   1.423
41395W        W13655  12.712  22.302  14.817
41396W        W13656  31.530  37.142  13.981
41397W        W13657  29.116  32.331   9.803
41398W        W13658   0.665  40.067   0.844
41399W        W13659  18.811  36.531  11.078
41400W        W13660  30.082  38.410   0.080
41401W        W13661  27.008  19.138   4.416
41402W        W13662  21.832   6.422   0.913
41403W        W13663  19.641   6.238  10.039
41404W        W13664   3.828  12.803   3.624
41405W        W13665   8.148  18.007   2.391
41406W        W13666  23.247  20.143   3.226
41407W        W13667  37.448  28.491  11.225
41408W        W13668   6.334  34.174   5.050
41409W        W13669  31.318   9.729   0.432
41410W        W13670  14.130  26.948  13.931
41411W        W13671  17.138  25.951   2.232
41412W        W13672  28.215  31.559  11.890
41413W        W13673  27.733  14.098   2.317
41414W        W13674  25.474  14.130   4.071
41415W        W13675  38.525  10.303  14.847
41416W        W13676  18.330  27.491   4.025
41417W        W13677  24.643  44.526   1.485
41418W        W13678   9.751  14.669   3.283
41419W        W13679  24.574   8.574   2.786
41420W        W13680   0.444  18.663  14.710
41421W        W13681   3.048  28.590  12.903
41422W        W13682  21.177  20.122  12.540
41423W        W13683   5.425  30.901   0.820
41424W        W13684  36.504   6.513  12.103
41425W        W13685  17.532  21.691  11.438
41426W        W13686  35.169   8.859   4.717
41427W        W13687   2.392   0.296  10.497
41428W        W13688  36.564  16.538   3.631
41429W        W13689  20.609   2.635   1.639
41430W        W13690  44.204  34.589  14.856
41431W        W13691  44.554  40.483   3.146
41432W        W13692  16.208  39.718   1.469
41433W        W13693  12.272  44.467  11.942
41434W        W13694  29.481  31.668   9.834
41435W        W13695  28.419  40.425   0.385
41436W        W13696   3.719  25.718   4.329
41437W        W13697  14.258  20.547   3.782
41438W        W13698  32.129  27.506  13.275
41439W        W13699   4.365  24.029   0.500
41440W        W13700  11.079   0.925   4.395
41441W        W13701   4.741  22.480   2.250
41442W        W13702   4.995  36.025   4.133
41443W        W13703  42.464  20.396  13.324
41444W        W13704  20.849  43.330  11.909
41445W        W13705  33.137  35.349  14.626
41446W        W13706  13.103  15.607   0.511
41447W        W13707  39.147  40.674  12.061
41448W        W13708  16.368  34.851   2.243
41449W        W13709  27.156   3.390   3.694
41450W        W13710   2.434  39.109  12.906
41451W        W13711  25.586  17.038   1.414
41452W        W13712  43.567  16.650  14.410
41453W        W13713  42.106  10.151   0.471
41454W        W13714  21.769  27.834   4.328
41455W        W13715  22.262  31.461   2.191
41456W        W13716  33.901  13.682  10.673
41457W        W13717  36.330  37.702   5.137
41458W        W13718  44.227  31.447  11.973
41459W        W13719   2.248  42.992   0.424
41460W        W13720  30.892   0.227   2.854
41461W        W13721   1.311  11.599   3.400
41462W        W13722  12.798  42.789  10.848
41463W        W13723  39.993  29.537   1.341
41464W        W13724   9.979  42.688   2.727
41465W        W13725  42.790   3.817   2.278
41466W        W13726   1.855   1.238  13.536
41467W        W13727  36.358   5.796   3.588
41468W        W13728  16.583   3.447   3.292
41469W        W13729  30.743  27.015  12.434
41470W        W13730  24.157  14.757   0.023
41471W        W13731   9.195  14.111   1.289
41472W        W13732   3.536  39.360   0.828
41473W        W13733   0.207  31.902   1.748
41474W        W13734  26.287  32.422  11.602
41475W        W13735  31.007  17.819   4.926
41476W        W13736   8.281  17.523  14.265
41477W        W13737  15.272  11.552  13.385
41478W        W13738  19.094  26.508  12.085
41479W        W13739  12.602  17.092   5.034
41480W        W13740  28.874  43.014  13.443
41481W        W13741  30.970  32.873   2.106
41482W        W13742   8.811  40.462   4.172
41483W        W13743  36.533  36.168   0.396
41484W        W13744   1.832  36.261  13.807
41485W        W13745  15.641   5.867  10.656
41486W        W13746   1.907  14.354   2.166
41487W        W13747  13.187  28.107   3.595
41488W        W13748   9.841  26.108   2.317
41489W        W13749  20.785  41.864   2.239
41490W        W13750   1.891  42.761   0.808
41491W        W13751  26.104   7.353   3.457
41492W        W13752  36.978  28.644   0.750
41493W        W13753  26.377  24.016   1.770
41494W        W13754  43.817  13.544  12.040
41495W        W13755  22.340  19.090  12.697
41496W        W13756  40.160   7.379  13.086
41497W        W13757  16.362  38.319   3.787
41498W        W13758   3.876  28.038  11.744
41499W        W13759  26.177  13.637  11.222
41500W        W13760  39.131  21.270   2.779
41501W        W13761  42.235  19.470   2.918
41502W        W13762  18.594  26.540  13.381
41503W        W13763  43.972  28.109  11.547
41504W        W13764   4.731  40.790  13.526
41505W        W13765  43.437  27.711   1.685
41506W        W13766   5.238   7.802  14.736
41507W        W13767  15.536   3.454   4.956
41508W        W13768   5.712  38.534   3.272
41509W        W13769   6.456  25.700   3.275
41510W        W13770  16.336  31.571  12.992
41511W        W13771  39.282   6.379  10.560
41512W        W13772  27.499  22.415  12.997
41513W        W13773  21.472   2.715   2.289
41514W        W13774  10.945  27.657   0.637
41515W        W13775  20.359   3.895  11.159
41516W        W13776  40.089  12.553  10.597
41517W        W13777   7.447  44.247   4.222
41518W        W13778  31.505  44.104   1.430
41519W        W13779  16.676  22.683  14.613
41520W        W13780  41.392  18.335   0.513
41521W        W13781  28.919   7.693   2.270
41522W        W13782  21.536  27.488  10.563
41523W        W13783  19.132  16.110  13.410
41524W        W13784   7.618   8.442   1.326
41525W        W13785  26.423   8.131   1.263
41526W        W13786  20.504   4.291  14.976
41527W        W13787  40.820  26.616   4.518
41528W        W13788  21.231  37.253   0.824
41529W        W13789  20.973   3.528   4.561
41530W        W13790  24.874  34.536  14.000
41531W        W13791  10.685  16.670  14.305
41532W        W13792   6.200  32.072   0.843
41533W        W13793  21.933   8.281  14.840
41534W        W13794  37.985  41.286   4.085
41535W        W13795  41.806  42.092   2.809
41536W        W13796  38.502  10.979  11.149
41537W        W13797  13.813  27.211  10.717
41538W        W13798   4.250  18.524   0.651
41539W        W13799  26.543   5.804   1.389
41540W        W13800  18.962  12.669   0.910
41541W        W13801   2.698  14.410   3.795
41542W        W13802  39.823   3.414  10.442
41543W        W13803  34.910  40.189   3.282
41544W        W13804  42.264  28.013  14.221
41545W        W13805  34.709  44.405  14.425
41546W        W13806  15.193  10.703  13.900
41547W        W13807  26.754   6.757  14.943
41548W        W13808  15.287  24.540  12.898
41549W        W13809  25.119  22.707   0.902
41550W        W13810  35.101  14.505   4.482
41551W        W13811  27.028  30.178   2.226
41552W        W13812  30.964  35.962  10.390
41553W        W13813  13.717  22.511   4.688
41554W        W13814  43.944  11.305   1.770
41555W        W13815  40.864  33.528  11.882
41556W        W13816  43.038  23.724   1.044
41557W        W13817  18.366  35.960   3.646
41558W        W13818  36.754  22.658  12.106
41559W        W13819   5.019  35.512   2.813
41560W        W13820   4.801  44.405  11.954
41561W        W13821   6.984  41.399  13.270
41562W        W13822  38.987  14.828  12.547
41563W        W13823  24.880  17.685   1.701
41564W        W13824  29.241   8.494   2.048
41565W        W13825   4.929   9.647  14.823
41566W        W13826   1.757  30.626   1.699
41567W        W13827  30.499  30.005  13.808
41568W        W13828  13.173  43.414  10.629
41569W        W13829   3.320  44.698  13.340
41570W        W13830  16.632  23.273  13.614
41571W        W13831   3.234  39.706   3.220
41572W        W13832   9.823  40.905  11.772
41573W        W13833  32.378  27.689  14.995
41574W        W13834  31.858  13.653   2.496
41575W        W13835  19.443   7.671  14.688
41576W        W13836  25.107  41.942  12.133
41577W        W13837  28.054  40.450   5.085
41578W        W13838  10.410  21.968   2.883
41579W        W13839   8.525  13.403   5.045
41580W        W13840  44.508  43.219  12.423
41581W        W13841   3.733  39.157   4.609
41582W        W13842  17.836  38.609   2.798
41583W        W13843  29.040  23.826  12.467
41584W        W13844  10.622  12.078  11.196
41585W        W13845  30.733  28.388  11.672
41586W        W13846  22.026   5.310  13.733
41587W        W13847  17.618  37.511  14.690
41588W        W13848  12.631  30.919   2.707
41589W        W13849   1.950  24.449   4.867
41590W        W13850   5.534  38.059   1.437
41591W        W13851  28.192  18.852   4.127
41592W        W13852  21.255  15.134   4.459
41593W        W13853  18.687  22.994  14.415
41594W        W13854  35.572  37.249   4.294
41595W        W13855  10.515  16.541  11.941
41596W        W13856  29.684  36.147  11.511
41597W        W13857  38.977  41.411  14.535
41598W        W13858  34.153  24.683   4.212
41599W        W13859  41.263  19.217   1.717
41600W        W13860  37.358   4.701   9.930
41601W        W13861  18.357  33.116   3.304
41602W        W13862  36.283  39.030   3.221
41603W        W13863  36.568   7.343   2.293
41604W        W13864  20.773  41.349   4.843
41605W        W13865   2.278   5.192  14.546
41606W        W13866   0.292  24.545   1.948
41607W        W13867  34.644  24.199  11.588
41608W        W13868  20.162  19.021   0.279
41609W        W13869  30.064  28.666   3.283
41610W        W13870  29.184  34.033  10.958
41611W        W13871  41.942  19.948   3.151
41612W        W13872  29.732  32.304  13.239
41613W        W13873  22.133  30.464   1.345
41614W        W13874   6.746  26.543   4.723
41615W        W13875   9.116  35.895   1.275
41616W        W13876  38.100  18.069  14.207
41617W        W13877  12.225   5.815   2.896
41618W        W13878  19.492   7.212   2.724
41619W        W13879  42.471   0.435  10.766
41620W        W13880  22.543  29.619   5.097
41621W        W13881  23.451  38.478  13.327
41622W        W13882  29.413  34.929   2.403
41623W        W13883  30.099  15.117  10.680
41624W        W13884  22.786  37.424   1.827
41625W        W13885   8.322  26.031   5.386
41626W        W13886   6.373  12.623   4.524
41627W        W13887  30.899  36.122   5.109
41628W        W13888   4.552  26.473   2.288
41629W        W13889  29.701  34.468  12.469
41630W        W13890  26.566  44.955  10.450
41631W        W13891  23.195  26.238  12.958
41632W        W13892  13.061  27.671  14.134
41633W        W13893  25.517   0.305  12.907
41634W        W13894   6.721  29.724   4.154
41635W        W13895   8.980  37.573  13.367
41636W        W13896  23.672   6.871  13.487
41637W        W13897   8.378   2.499   3.298
41638W        W13898  33.495  39.078   4.871
41639W        W13899  39.379  41.313   4.464
41640W        W13900   5.605  14.177  12.227
41641W        W13901  25.517  31.553   4.147
41642W        W13902  36.874   5.314  14.985
41643W        W13903  44.139  36.398  10.149
41644W        W13904  17.562  42.956  11.527
41645W        W13905   0.200   8.545   5.024
41646W        W13906  22.698  31.649   0.412
41647W        W13907  14.648  25.010   0.272
41648W        W13908  28.181  37.705   2.910
41649W        W13909  15.525  16.855  11.016
41650W        W13910  30.033  15.324  14.354
41651W        W13911  10.771  12.076   1.678
41652W        W13912  31.919  29.035  11.564
41653W        W13913  40.477  34.743   4.494
41654W        W13914   4.739  31.440  14.439
41655W        W13915  26.671  31.701   1.857
41656W        W13916  15.692  39.985   3.841
41657W        W13917  24.988  21.937   3.185
41658W        W13918  19.076  22.994  13.463
41659W        W13919   7.833  36.322  11.166
41660W        W13920  13.781   7.710   2.491
41661W        W13921  11.134  26.874   0.881
41662W        W13922  19.190  29.568  14.967
41663W        W13923   2.037  41.085   1.438
41664W        W13924  13.115  22.067  13.340
41665W        W13925  28.663  44.428  13.485
41666W        W13926  27.594  35.801   0.532
41667W        W13927   3.249  31.869   4.632
41668W        W13928   1.024   6.689   3.672
41669W        W13929  33.742   3.393  13.237
41670W        W13930  33.896  13.102   4.416
41671W        W13931  23.627  11.821   0.409
41672W        W13932  36.960  40.667  12.585
41673W        W13933   2.098  29.881   0.992
41674W        W13934   4.734  24.478   0.956
41675W        W13935  37.343  26.501   4.246
41676W        W13936  13.298  43.865   0.661
41677W        W13937  34.499  20.102   1.145
41678W        W13938  34.128  23.425  11.982
41679W        W13939  16.395  23.668  14.882
41680W        W13940  16.213  18.565   4.681
41681W        W13941  12.162  17.089  14.019
41682W        W13942  30.237  20.966  13.994
41683W        W13943   3.834   7.702   4.588
41684W        W13944  40.901  26.366   0.790
41685W        W13945  35.963  16.219  12.425
41686W        W13946  22.120  16.822   0.422
41687W        W13947   6.435  16.855  12.974
41688W        W13948   5.993  18.154  12.821
41689W        W13949  34.492  16.655  11.985
41690W        W13950  23.714  30.396  13.032
41691W        W13951  16.115   2.049   0.106
41692W        W13952  16.416  20.137   1.908
41693W        W13953   1.706   1.914  12.293
41694W        W13954  40.487  36.090   2.821
41695W        W13955  35.451   9.308  10.705
41696W        W13956  33.582  25.069  10.560
41697W        W13957  14.747  23.161  13.772
41698W        W13958  24.511  35.761  12.498
41699W        W13959  15.551  25.048   0.227
41700W        W13960  33.452  14.680   4.643
41701W        W13961  24.115  44.258   4.165
41702W        W13962  15.876  10.674  13.552
41703W        W13963  27.683   9.732   1.787
41704W        W13964   7.778   3.005   1.241
41705W        W13965   8.194  44.949   2.669
41706W        W13966  41.843  34.171   4.109
41707W        W13967  13.202  41.594   2.442
41708W        W13968  13.786  19.328   0.952
41709W        W13969  35.532  31.189   4.169
41710W        W13970  24.810  43.977   2.359
41711W        W13971  44.252  44.369   4.951
41712W        W13972   6.788  42.064   0.761
41713W        W13973  13.736  39.691  12.967
41714W        W13974  19.719  44.379  10.810
41715W        W13975  18.511  19.163   2.665
41716W        W13976  13.988  12.721  14.228
41717W        W13977  17.744  31.382   2.082
41718W        W13978  30.050  25.305  14.558
41719W        W13979   8.888  12.185   4.280
41720W        W13980  32.606  18.066   4.208
41721W        W13981   3.412  26.216   3.124
41722W        W13982  25.340   5.166   2.429
41723W        W13983  16.640  32.609   2.908
41724W        W13984  36.174  27.212   2.276
41725W        W13985  34.843   0.272  14.463
41726W        W13986   8.602   1.518  13.541
41727W        W13987   4.758  10.679  11.289
41728W        W13988  43.179  15.690   3.722
41729W        W13989  39.347  39.325  14.532
41730W        W13990  41.061  38.575  14.935
41731W        W13991  16.122   4.921   0.576
41732W        W13992   6.613   8.706   2.639
41733W        W13993  16.758  20.794  11.564
41734W        W13994  23.259  25.880  11.089
41735W        W13995  34.429  27.110  13.083
41736W        W13996  16.004   1.540   1.682
41737W        W13997  33.123  26.194  11.212
41738W        W13998   1.646   3.648  12.104
41739W        W13999   9.745  11.059  13.716
41740W        W14000  16.753   0.453   4.551
41741W        W14001  42.919  13.841  10.540
41742W        W14002  31.641  24.987  14.936
41743W        W14003  12.634  33.288   4.946
41744W        W14004  33.074  19.158   4.664
41745W        W14005   9.840  28.724  11.468
41746W        W14006  19.569  19.273   4.745
41747W        W14007  35.179   7.832  14.110
41748W        W14008  19.303  40.907  11.773
41749W        W14009  20.066  25.220   3.697
41750W        W14010  34.914  14.814  11.258
41751W        W14011   1.022  28.871  14.357
41752W        W14012   8.689  18.274   4.109
41753W        W14013   5.782  39.618   3.295
41754W        W14014  36.915  16.870   0.828
41755W        W14015   4.650  32.062  13.081
41756W        W14016  44.088   8.718   1.466
41757W        W14017  13.232  38.135  13.263
41758W        W14018  20.227  17.079  13.927
41759W        W14019   8.464  16.762   2.331
41760W        W14020  14.918  41.466  11.614
41761W        W14021  10.315  36.589  14.401
41762W        W14022  34.481  39.502   0.242
41763W        W14023  33.328  17.828   1.003
41764W        W14024  40.586  14.747  10.665
41765W        W14025  23.119  33.385   4.236
41766W        W14026  13.570  34.294  12.209
41767W        W14027  25.898  21.631  12.983
41768W        W14028  21.712  25.693  11.930
41769W        W14029  16.149  27.440  12.117
41770W        W14030  44.332  22.749  11.074
41771W        W14031  14.317  34.929  14.941
41772W        W14032  25.986  40.753  11.516
41773W        W14033  19.614  22.497   4.700
41774W        W14034  36.295  25.262  12.889
41775W        W14035  20.722  13.190  10.927
41776W        W14036  23.867   2.550   4.732
41777W        W14037  15.553   6.857  13.521
41778W        W14038  10.733  15.219  12.719
41779W        W14039  27.078   2.198   1.328
41780W        W14040  44.633  17.197   1.587
41781W        W14041  13.266  23.651  14.890
41782W        W14042  11.327  17.140  10.982
41783W        W14043  12.278  20.438  13.890
41784W        W14044  33.132  21.813   3.841
41785W        W14045  39.860   6.380   4.632
41786W        W14046  37.323  19.708   3.631
41787W        W14047  23.583  24.205  14.482
41788W        W14048  10.877  13.188  12.154
41789W        W14049  16.747  35.459   0.300
41790W        W14050  31.285   4.261  13.026
41791W        W14051   8.335  13.361   2.286
41792W        W14052   7.186  31.823   3.663
41793W        W14053  26.509  42.016  13.310
41794W        W14054   7.521  21.119  11.497
41795W        W14055   3.758   4.213  12.666
41796W        W14056  31.970   5.899  13.982
41797W        W14057  31.606   2.430   1.422
41798W        W14058  21.272   5.444  14.266
41799W        W14059  36.571   3.394   1.374
41800W        W14060  26.138   4.013  12.054
41801W        W14061  18.378  38.461  11.406
41802W        W14062   8.084  40.804  13.912
41803W        W14063  39.347  33.660   1.375
41804W        W14064  26.010  17.063  11.561
41805W        W14065   1.725   9.652   1.878
41806W        W14066  11.586  37.243   5.407
41807W        W14067  19.057   4.542  11.521
41808W        W14068  22.226   7.540  11.487
41809W        W14069  16.756   3.448  12.057
41810W        W14070   6.374  28.439   5.113
41811W        W14071  23.782   0.487  14.395
41812W        W14072  26.179  38.097   3.117
41813W        W14073  13.513  35.984  14.547
41814W        W14074  28.146  14.078  12.826
41815W        W14075   2.996   0.744   0.932
41816W        W14076  28.683  31.803   2.377
41817W        W14077  29.696   0.329  11.972
41818W        W14078  34.088  44.507  11.125
41819W        W14079  30.224  24.554   0.591
41820W        W14080  15.752   0.301   3.241
41821W        W14081  21.303  12.309   1.711
41822W        W14082   4.520  26.292   3.835
41823W        W14083  42.654   5.233  12.747
41824W        W14084  27.351  43.578  13.488
41825W        W14085   2.828  28.580  13.359
41826W        W14086  16.906   7.201  13.422
41827W        W14087  13.232  39.504  14.480
41828W        W14088  27.870  33.650   1.793
41829W        W14089  20.959  44.293   4.962
41830W        W14090  14.090  33.614   4.626
41831W        W14091  37.572  17.630   4.545
41832W        W14092  24.890  26.816  12.372
41833W        W14093  30.592   7.310   0.726
41834W        W14094   4.355  15.571   4.753
41835W        W14095  28.947  31.191  12.930
41836W        W14096  18.218  21.834   1.763
41837W        W14097  35.629  42.941  11.108
41838W        W14098   8.381  13.874   2.367
41839W        W14099  44.973  43.301   0.455
41840W        W14100  32.528  27.071  14.184
41841W        W14101  19.522   5.410  10.228
41842W        W14102  27.100  17.032   3.781
41843W        W14103  28.494  32.192  13.544
41844W        W14104  26.964   2.902   3.755
41845W        W14105  17.114  32.555  13.994
41846W        W14106  28.209  36.599  11.520
41847W        W14107  15.846  40.373   0.033
41848W        W14108  13.317  30.697   5.157
41849W        W14109  33.668   1.964  11.616
41850W        W14110   5.780  16.128  11.627
41851W        W14111   4.273  20.542   3.172
41852W        W14112  25.133   8.726   0.239
41853W        W14113  19.056  34.533   1.211
41854W        W14114  16.305   2.981   3.777
41855W        W14115  34.589  40.868   0.197
41856W        W14116  40.496  14.179  12.056
41857W        W14117  23.182  10.326   3.575
41858W        W14118  24.491  37.298   3.146
41859W        W14119  36.048  22.048   1.592
41860W        W14120  11.339   9.587  14.439
41861W        W14121  31.890  43.479  11.548
41862W        W14122   9.654   2.978   1.780
41863W        W14123  16.294  24.623   1.299
41864W        W14124  39.441  18.596   2.678
41865W        W14125  26.264   4.330  12.477
41866W        W14126  26.624  34.170   1.847
41867W        W14127  13.176  43.020  13.028
41868W        W14128  19.162  42.061  14.819
41869W        W14129   5.934  20.402   3.487
41870W        W14130  19.661   7.465   0.739
41871W        W14131  31.260  23.280  14.883
41872W        W14132  33.123  41.063   3.678
41873W        W14133   4.853  24.773   0.100
41874W        W14134   6.309  34.533   4.656
41875W        W14135  43.303   1.530  11.475
41876W        W14136  26.744  36.429  11.658
41877W        W14137  43.798   0.186   4.059
41878W        W14138  14.402   1.029  14.969
41879W        W14139  41.276  25.919   1.369
41880W        W14140  44.223  32.526  12.687
41881W        W14141  32.592   7.694   1.380
41882W        W14142  26.471  24.253   2.229
41883W        W14143  43.593  27.204  14.525
41884W        W14144  29.721  43.918   4.580
41885W        W14145  13.884  35.047   3.895
41886W        W14146  24.748  19.441   3.545
41887W        W14147  19.474  44.823   2.134
41888W        W14148  34.163  12.246  14.823
41889W        W14149  21.530  38.941   4.913
41890W        W14150   2.753  17.185  10.799
41891W        W14151   0.512   7.611  11.228
41892W        W14152  16.570  10.170   0.070
41893W        W14153  12.724  30.670   5.002
41894W        W14154  27.582  30.151   5.160
41895W        W14155  19.998  11.378  10.646
41896W        W14156  23.898   3.208   0.883
41897W        W14157  42.980  12.187   4.732
41898W        W14158  41.009  34.266   1.240
41899W        W14159   7.716  23.105   4.380
41900W        W14160  10.938  11.184  14.199
41901W        W14161  25.474   6.408  13.019
41902W        W14162   8.549  34.992   5.094
41903W        W14163   9.072  27.645   1.667
41904W        W14164  21.106  25.475  14.524
41905W        W14165  19.869  14.390   3.175
41906W        W14166   9.412  33.917   3.313
41907W        W14167  30.163  27.123   2.337
41908W        W14168  10.244  24.094  11.555
41909W        W14169   3.267   9.652  13.855
41910W        W14170  37.104   8.430   3.897
41911W        W14171  37.350  41.911  11.199
41912W        W14172  19.516  32.927  14.140
41913W        W14173  39.934   7.526  12.321
41914W        W14174  17.258  33.228   0.962
41915W        W14175  33.608  12.719   4.615
41916W        W14176  11.161  30.482   0.784
41917W        W14177  38.365  29.970   2.426
41918W        W14178   6.460  13.868  14.409
41919W        W14179  17.192  29.962   3.268
41920W        W14180  25.932   2.772  13.464
41921W        W14181  42.882   1.186   0.922
41922W        W14182  20.583   1.266   0.243
41923W        W14183  41.570  12.150  14.749
41924W        W14184  35.255  14.191   3.698
41925W        W14185   4.861  28.368   0.256
41926W        W14186  21.932  34.239   3.131
41927W        W14187  42.502  34.056   3.048
41928W        W14188   4.667  15.055   0.897
41929W        W14189  10.624  27.667  14.405
41930W        W14190  28.622   9.819   1.734
41931W        W14191  16.879  22.590  13.784
41932W        W14192  29.130   4.840  11.627
41933W        W14193   6.129  14.437  12.364
41934W        W14194  39.302  12.083   3.071
41935W        W14195  34.035  31.092  12.393
41936W        W14196  37.950  18.000   4.728
41937W        W14197  31.990   3.196   5.058
41938W        W14198  38.451  39.369   2.890
41939W        W14199  20.142  43.796   3.224
41940W        W14200  35.518  18.972  14.977
41941W        W14201   5.708   3.496   1.806
41942W        W14202   7.284  39.811  14.827
41943W        W14203  14.950  23.317   4.135
41944W        W14204   0.407  17.155   1.339
41945W        W14205  39.450  19.292  10.544
41946W        W14206   6.145  16.732   1.319
41947W        W14207  14.644  38.398  11.412
41948W        W14208  16.036  17.462   1.892
41949W        W14209  21.711  35.482   0.239
41950W        W14210  17.620  30.283  12.971
41951W        W14211  13.242  27.997   4.946
41952W        W14212  29.006  21.482  14.103
41953W        W14213  38.781  40.006  14.423
41954W        W14214  43.053  37.967  14.035
41955W        W14215  20.284  17.183   2.874
41956W        W14216  13.786  32.558   1.795
41957W        W14217   6.842  25.964  12.929
41958W        W14218  44.130  16.136   3.138
41959W        W14219  16.744  35.117   4.592
41960W        W14220  32.595  31.610   4.110
41961W        W14221  34.051  21.473  14.707
41962W        W14222  29.632   9.651   0.308
41963W        W14223  37.601   3.442  11.173
41964W        W14224   1.326  16.418   0.368
41965W        W14225   2.160  42.275  11.132
41966W        W14226   3.205  31.078   0.471
41967W        W14227  39.584  36.660  12.605
41968W        W14228   7.849  18.638  12.714
41969W        W14229  41.788  22.248  13.785
41970W        W14230   1.873  28.483  13.978
41971W        W14231  25.094  18.096   4.684
41972W        W14232  43.419  39.810   2.225
41973W        W14233  10.902  22.085   2.825
41974W        W14234  12.836  22.247  11.922
41975W        W14235  29.305  35.945   4.929
41976W        W14236  16.115  41.823   1.491
41977W        W14237  36.171  36.515  11.405
41978W        W14238  40.946  11.263   2.765
41979W        W14239  18.931  16.891  11.512
41980W        W14240  10.355  14.950  11.080
41981W        W14241  41.576   2.222  11.623
41982W        W14242  26.666   0.479   1.455
41983W        W14243  41.201   0.348  13.208
41984W        W14244  28.717   4.509   3.865
41985W        W14245   4.030  20.981   1.247
41986W        W14246  20.524  20.982  10.966
41987W        W14247  32.102  13.789   0.503
41988W        W14248  33.128  21.243  13.375
41989W        W14249  39.565  13.878   3.137
41990W        W14250  40.537  41.480   3.151
41991W        W14251  42.975   9.376   1.389
41992W        W14252  35.287  26.031   3.389
41993W        W14253  11.957   0.494   1.486
41994W        W14254  36.166  23.002  12.960
41995W        W14255   0.881  35.618   2.855
41996W        W14256  24.072  38.862   0.479
41997W        W14257   8.888   7.387   3.648
41998W        W14258  29.113  22.735   1.969
41999W        W14259  32.683  17.734   4.593
42000W        W14260  44.163   1.585   5.095
42001W        W14261   2.335  18.271  12.991
42002W        W14262  41.353  22.837   2.881
42003W        W14263  32.236   6.143  10.693
42004W        W14264  37.067  18.515  13.547
42005W        W14265  42.630  12.108  12.097
42006W        W14266  44.884  11.130   2.195
42007W        W14267  23.681   8.692  11.495
42008W        W14268  25.530  28.695   2.719
42009W        W14269   9.395  28.940  11.584
42010W        W14270  42.057  20.092   3.654
42011W        W14271   6.700  33.585  11.436
42012W        W14272  40.491  18.090  12.051
42013W        W14273  27.080  31.377   3.457
42014W        W14274  19.615  44.844  10.447
42015W        W14275  27.966  39.078   2.474
42016W        W14276  31.173  27.373   0.855
42017W        W14277   4.011  27.523  10.107
42018W        W14278  23.463  42.429   4.488
42019W        W14279  33.624  19.856   4.977
42020W        W14280  28.412  17.295   4.557
42021W        W14281  18.270  26.890   3.075
42022W        W14282  25.151  12.364   4.774
42023W        W14283  19.109  17.925   4.593
42024W        W14284  26.675   4.231   3.694
42025W        W14285  35.150  12.054  11.653
42026W        W14286  15.959  16.604   0.865
42027W        W14287  27.078  11.129   4.545
42028W        W14288  16.520  16.258  12.005
42029W        W14289   4.944   1.712  12.379
42030W        W14290  37.236   3.519   5.121
42031W        W14291  25.743  38.517  14.459
42032W        W14292   9.883  42.331  14.389
42033W        W14293   9.704   7.707   2.801
42034W        W14294   3.125  14.137   3.835
42035W        W14295  22.715  32.965   0.244
42036W        W14296  25.203  26.967  10.382
42037W        W14297   3.455  12.264  10.661
42038W        W14298  16.822  39.628  10.827
42039W        W14299  33.979  14.260   0.370
42040W        W14300  26.699  23.301  11.663
42041W        W14301  10.155  44.867   4.439
42042W        W14302   4.190  17.688  14.443
42043W        W14303  21.412  39.837   2.894
42044W        W14304   3.240  39.756  12.056
42045W        W14305  16.372  44.520  14.317
42046W        W14306  21.659  30.404  10.906
42047W        W14307  24.573   5.339   4.052
42048W        W14308  35.891  24.671  11.009
42049W        W14309   3.301  32.624  13.246
42050W        W14310  40.500  19.968   5.015
42051W        W14311  16.273  27.434  12.627
42052W        W14312  10.645  44.135  10.231
42053W        W14313  14.783   7.602   2.251
42054W        W14314   6.265  34.496  11.083
42055W        W14315  43.324   7.928  12.508
42056W        W14316  20.388  43.746  11.165
42057W        W14317   1.298  44.512  10.806
42058W        W14318   8.663   0.347  11.853
42059W        W14319  37.684  28.124  13.548
42060W        W14320  44.007  20.333   3.315
42061W        W14321  21.039  30.866  11.136
42062W        W14322  17.376   2.304   4.975
42063W        W14323   6.375  25.553  14.336
42064W        W14324  27.215  17.033  13.075
42065W        W14325  17.739  26.906  11.261
42066W        W14326  26.121  26.564  12.679
42067W        W14327  33.614  33.905   1.549
42068W        W14328   7.441  19.736  13.842
42069W        W14329  38.384  40.724  11.574
42070W        W14330   7.774  39.363  13.560
42071W        W14331   9.340  14.600   1.433
42072W        W14332  18.809  41.331   4.541
42073W        W14333   7.857  36.290   4.464
42074W        W14334  29.641  36.795  10.658
42075W        W14335  31.887  35.023   4.597
42076W        W14336  21.439   7.863   4.217
42077W        W14337  13.716   2.261   1.330
42078W        W14338  20.271  42.589  10.838
42079W        W14339  22.860   7.133   4.660
42080W        W14340  26.038   8.225  13.452
42081W        W14341  14.060  15.627   2.294
42082W        W14342  33.608  36.141  10.899
42083W        W14343  28.920  16.121   2.703
42084W        W14344  33.002  15.067  11.124
42085W        W14345  30.985  38.465   0.033
42086W        W14346   7.374  11.648   4.554
42087W        W14347  12.641   1.726   1.164
42088W        W14348   3.684   7.631  13.362
42089W        W14349   1.797  34.580   0.901
42090W        W14350  19.325  21.566  14.107
42091W        W14351  41.734  23.542   1.102
42092W        W14352  16.035  26.578  13.965
42093W        W14353  27.677   9.563   3.822
42094W        W14354   5.265   3.402  14.427
42095W        W14355  18.829   5.612   1.116
42096W        W14356   0.451  30.896  14.971
42097W        W14357   9.739   3.486  14.484
42098W        W14358   8.650  13.168  12.886
42099W        W14359  25.638  27.226   4.429
42100W        W14360  40.453   1.370  11.093
42101W        W14361   5.890   0.853  13.149
42102W        W14362  15.277  43.276  10.638
42103W        W14363  17.706  30.490  11.688
42104W        W14364  31.075  27.819   1.721
42105W        W14365   5.925  33.583   2.221
42106W        W14366  36.436  33.924   4.719
42107W        W14367  32.009  33.025   0.228
42108W        W14368  22.050   7.354  14.996
42109W        W14369  38.802   8.454  13.027
42110W        W14370   5.793   9.675   4.812
42111W        W14371  33.510  13.905  12.571
42112W        W14372   9.040  28.723  12.615
42113W        W14373  15.576  27.479   4.721
42114W        W14374  31.350  33.447   1.786
42115W        W14375   7.446  25.984  14.724
42116W        W14376  44.738  41.238   3.567
42117W        W14377  20.973  22.534  12.175
42118W        W14378  13.668  17.306  10.983
42119W        W14379  10.141   1.912   3.442
42120W        W14380  27.720  39.420  14.294
42121W        W14381  29.464   4.765  10.673
42122W        W14382  17.084  33.542  12.028
42123W        W14383  27.047  43.942  13.006
42124W        W14384   7.875  31.119   2.192
42125W        W14385  24.732  42.747   1.653
42126W        W14386  43.934  31.538   0.915
42127W        W14387  30.368  23.112   2.174
42128W        W14388  28.052   7.461  14.300
42129W        W14389   0.418  35.789   3.784
42130W        W14390  36.410  29.054   3.788
42131W        W14391  37.951   0.684  13.536
42132W        W14392   5.373  19.833  10.695
42133W        W14393  26.742  10.921   3.998
42134W        W14394  37.341  43.504  13.387
42135W        W14395   5.833  40.987   0.162
42136W        W14396  10.793  39.271   2.362
42137W        W14397   6.644   6.192  11.548
42138W        W14398   1.515  35.051  10.630
42139W        W14399  42.320   3.060  10.636
42140W        W14400  34.030   1.046  12.041
42141W        W14401   2.456  21.914   1.921
42142W        W14402  35.540  42.423  11.092
42143W        W14403   3.191   7.796  12.672
42144W        W14404  27.640  26.676  12.575
42145W        W14405  20.015  35.940   4.100
42146W        W14406   5.433  13.172  13.881
42147W        W14407  36.932  29.237  14.919
42148W        W14408  13.737   5.908   0.957
42149W        W14409   1.228   6.641   3.203
42150W        W14410  17.798  36.572   3.241
42151W        W14411  10.663  12.786   1.174
42152W        W14412  39.589  15.677   4.117
42153W        W14413  44.331   9.872  13.919
42154W        W14414  13.312  23.702  13.009
42155W        W14415  15.828   1.948  11.446
42156W        W14416  26.689  44.979   1.432
42157W        W14417  29.991   2.443   4.130
42158W        W14418   7.313  38.057   4.565
42159W        W14419  28.651  15.534  11.565
42160W        W14420  11.724   6.246  13.822
42161W        W14421  23.169   6.533   1.749
42162W        W14422  27.561   0.465  13.479
42163W        W14423  17.179  17.291  14.359
42164W        W14424   2.284  34.599  10.743
42165W        W14425   4.417  22.628  11.420
42166W        W14426  34.825   6.188   2.353
42167W        W14427  18.316  38.064  13.803
42168W        W14428  33.004  12.725  10.539
42169W        W14429  33.313   2.060  14.779
42170W        W14430   0.457  14.180   4.623
42171W        W14431   0.430  24.619  11.202
42172W        W14432  28.622  35.052  14.469
42173W        W14433  26.443  38.185   3.889
42174W        W14434  12.083   2.959   2.316
42175W        W14435   9.884  40.924   1.279
42176W        W14436  36.196  18.113   3.126
42177W        W14437  32.034   6.911  13.942
42178W        W14438   1.400  11.891  12.132
42179W        W14439  41.948  12.763   2.840
42180W        W14440  25.070  38.791   0.310
42181W        W14441  26.617  36.605   2.514
42182W        W14442  17.008  16.032  10.158
42183W        W14443  14.746  29.766  10.937
42184W        W14444  44.878   4.506   0.576
42185W        W14445   6.849   0.004   1.770
42186W        W14446  38.352  40.069  12.348
42187W        W14447  44.915  22.894  11.902
42188W        W14448  29.290  29.490  11.015
42189W        W14449   7.936  11.185   0.340
42190W        W14450  28.574  23.232  13.933
42191W        W14451  36.999  26.222   4.647
42192W        W14452  13.994  35.230  14.047
42193W        W14453  40.941  11.816   3.561
42194W        W14454  36.907   3.268   0.431
42195W        W14455  33.178   8.634  10.786
42196W        W14456  23.714  31.964  13.596
42197W        W14457  29.648  13.119   3.522
42198W        W14458  22.149  23.755  10.419
42199W        W14459  21.808  13.842  13.587
42200W        W14460  41.893   3.198  11.967
42201W        W14461  24.481  14.450   1.431
42202W        W14462  11.853   9.160   1.365
42203W        W14463  20.225  25.140   3.213
42204W        W14464  17.372  10.200  14.348
42205W        W14465  40.365  26.196  13.893
42206W        W14466   5.816  10.642   0.739
42207W        W14467   5.687  31.935  14.994
42208W        W14468  13.250   1.919  11.370
42209W        W14469   6.961  36.449  13.832
42210W        W14470  18.136  42.315  13.082
42211W        W14471  16.702  24.162  14.039
42212W        W14472  21.694  13.342  13.529
42213W        W14473  30.062  12.285   4.774
42214W        W14474  40.864  41.070  12.536
42215W        W14475  17.594   0.903  12.312
42216W        W14476  37.471   6.238  12.499
42217W        W14477  43.395  34.656   0.957
42218W        W14478   1.001  28.546   1.323
42219W        W14479  32.634  10.965   0.959
42220W        W14480   8.712  37.503  14.645
42221W        W14481  41.600  36.558   2.905
42222W        W14482   8.315   9.373  11.442
42223W        W14483  15.282  44.483   0.947
42224W        W14484  14.340  33.333   4.236
42225W        W14485  34.467  31.897   4.088
42226W        W14486  16.427  24.988  11.655
42227W        W14487  21.250  29.247  14.529
42228W        W14488  43.489  22.428   3.399
42229W        W14489   9.395  25.921  13.858
42230W        W14490   7.428  33.422  12.875
42231W        W14491  22.511  17.240   0.170
42232W        W14492  30.498  31.342   2.223
42233W        W14493  37.977  44.283  10.840
42234W        W14494   0.928  42.199   2.280
42235W        W14495  41.247  12.840  14.674
42236W        W14496  21.444  11.414  14.449
42237W        W14497  20.217  10.212   2.823
42238W        W14498  35.914  18.039   5.464
42239W        W14499  21.963  34.326   2.280
42240W        W14500  27.958  23.539   2.358
42241W        W14501  15.934  13.887  11.128
42242W        W14502  35.308  22.742   4.161
42243W        W14503  14.851  39.775   0.768
42244W        W14504  37.625  19.304  14.567
42245W        W14505  42.348  25.063   3.618
42246W        W14506   5.913  39.201  12.057
42247W        W14507  12.516  34.925  11.951
42248W        W14508  25.010  44.174   0.008
42249W        W14509  25.280  15.060  12.486
42250W        W14510  18.322   4.996  10.542
42251W        W14511  24.701  14.845   3.619
42252W        W14512  39.946  18.621   2.446
42253W        W14513  19.809  24.593   4.373
42254W        W14514  23.207   7.596  10.613
42255W        W14515   2.019  40.525   2.553
42256W        W14516  16.850   5.439  14.992
42257W        W14517  10.176  25.940  13.735
42258W        W14518  31.535  38.980   0.527
42259W        W14519   0.807   4.938  13.502
42260W        W14520  16.223  36.989  14.369
42261W        W14521  22.590  15.765   1.866
42262W        W14522  10.906  29.076  14.327
42263W        W14523  37.457  27.027  10.576
42264W        W14524  12.657   7.608  11.103
42265W        W14525  40.713  37.013  11.165
42266W        W14526  12.403  38.495   2.374
42267W        W14527   5.998  36.581  13.391
42268W        W14528  37.009  35.543   4.788
42269W        W14529  41.029  17.080  13.455
42270W        W14530  40.012  29.528  13.407
42271W        W14531  17.356  24.566  14.217
42272W        W14532  22.671  35.389  10.542
42273W        W14533  20.781  20.942  10.259
42274W        W14534  32.958  16.390   1.977
42275W        W14535  28.793   4.531   1.888
42276W        W14536  38.967   9.226   2.627
42277W        W14537  17.187  38.435   3.884
42278W        W14538  29.578   7.895   1.442
42279W        W14539  23.117  26.600   3.342
42280W        W14540  14.852  23.260  14.723
42281W        W14541  10.232  19.248  10.369
42282W        W14542  39.397  42.114   4.657
42283W        W14543   0.594  33.706   1.840
42284W        W14544   0.849  30.402  13.462
42285W        W14545  29.801  13.358  12.945
42286W        W14546  24.743   3.757   1.380
42287W        W14547  20.844  29.258   4.145
42288W        W14548  15.774  32.429  11.181
42289W        W14549   8.707   5.355  12.107
42290W        W14550   9.640   1.661  12.285
42291W        W14551  14.647  25.285  11.148
42292W        W14552  30.940   3.901  13.899
42293W        W14553  15.727  29.972   5.290
42294W        W14554  17.159  35.508  13.337
42295W        W14555  11.493  39.928  14.562
42296W        W14556  25.411  25.690  12.462
42297W        W14557  22.693  24.349   1.686
42298W        W14558  18.221  32.498   1.841
42299W        W14559  35.231   8.267   3.904
42300W        W14560  11.887  10.855  12.499
42301W        W14561   5.871  12.871   3.565
42302W        W14562   7.247  30.812   3.723
42303W        W14563  24.083  12.240   3.226
42304W        W14564  20.110  15.071  11.093
42305W        W14565  32.592  19.043  11.275
42306W        W14566  31.201   1.510  11.257
42307W        W14567   5.251  24.328  11.496
42308W        W14568  41.688  27.499  12.035
42309W        W14569   7.736   2.902  12.974
42310W        W14570   1.219  19.016  12.881
42311W        W14571   4.726   4.196   4.098
42312W        W14572   8.911  34.580  14.001
42313W        W14573   2.344   4.540  14.804
42314W        W14574  20.163  12.612   5.054
42315W        W14575  37.715  41.820  12.972
42316W        W14576  38.804  10.264   2.068
42317W        W14577  31.950  29.991   2.466
42318W        W14578  23.381  20.861  10.711
42319W        W14579  10.867  40.552  12.135
42320W        W14580  12.445  13.657  12.082
42321W        W14581  30.210  13.717   1.897
42322W        W14582   2.780  35.994  10.401
42323W        W14583   0.525   0.842   0.560
42324W        W14584   5.241   6.814  11.274
42325W        W14585   9.323  13.582   1.295
42326W        W14586  19.320  32.328   0.922
42327W        W14587   8.220  27.663  11.917
42328W        W14588  17.521  38.252  10.509
42329W        W14589  14.134  10.738   1.424
42330W        W14590  13.838  16.383   1.995
42331W        W14591  14.058   1.764   0.376
42332W        W14592  23.256  11.832  11.705
42333W        W14593  34.026  40.356   2.705
42334W        W14594  40.858   1.319   0.861
42335W        W14595  28.903  13.310   3.935
42336W        W14596  10.625   0.264  11.015
42337W        W14597   5.294  33.586  10.795
42338W        W14598   3.182  17.510   3.519
42339W        W14599  12.080  24.015   1.357
42340W        W14600  16.667  15.381  11.971
42341W        W14601  43.934   7.939   2.615
42342W        W14602   1.768  17.210   2.727
42343W        W14603   6.351  26.531  12.397
42344W        W14604  14.650  14.601  13.438
42345W        W14605  36.349  19.122   2.374
42346W        W14606   4.809  36.448  12.375
42347W        W14607   0.894  19.049   1.168
42348W        W14608  26.204  26.960   1.752
42349W        W14609  18.833  15.740  14.324
42350W        W14610  20.732  30.473   1.135
42351W        W14611   9.891  13.332  10.718
42352W        W14612  23.618  43.493   4.203
42353W        W14613  31.960  23.276   0.415
42354W        W14614  11.878  15.853   0.128
42355W        W14615  33.884  35.762   1.374
42356W        W14616  35.956  44.860  11.696
42357W        W14617  40.535  41.047  11.962
42358W        W14618  43.767  44.522  13.337
42359W        W14619  14.391  20.598   0.936
42360W        W14620  26.603   3.454  13.500
42361W        W14621   4.920  11.447  12.016
42362W        W14622  40.577   8.281   0.947
42363W        W14623  41.616  36.591  12.114
42364W        W14624  29.920   9.807   3.904
42365W        W14625  43.426   4.339   4.920
42366W        W14626  30.745  17.601   1.886
42367W        W14627  24.949  34.186   3.267
42368W        W14628  19.169  38.413  10.702
42369W        W14629  11.775  32.034   3.241
42370W        W14630  28.928  27.713   2.397
42371W        W14631  36.558   8.067   9.769
42372W        W14632  25.311  36.981  11.175
42373W        W14633   4.386  25.500  13.128
42374W        W14634   3.721  30.871   3.273
42375W        W14635  31.287  19.400  11.086
42376W        W14636  26.082  24.594  11.621
42377W        W14637   9.587  28.731   2.784
42378W        W14638  40.839  34.078   0.369
42379W        W14639  34.884   7.757  11.337
42380W        W14640  19.226  42.186   3.224
42381W        W14641  43.452   6.680  13.007
42382W        W14642   5.723   0.448   1.164
42383W        W14643  27.063  14.194   4.992
42384W        W14644  40.638  33.203   4.259
42385W        W14645  16.213   5.678   3.422
42386W        W14646  12.074  12.748   3.264
42387W        W14647  12.980  25.701   2.669
42388W        W14648  20.767  33.520  14.439
42389W        W14649   0.880  41.393  10.804
42390W        W14650  34.155  24.547  12.916
42391W        W14651  43.602  14.379   3.917
42392W        W14652  28.406  33.831  13.914
42393W        W14653  22.672  44.378   0.404
42394W        W14654  39.554  11.908   1.265
42395W        W14655   6.745  19.950  11.153
42396W        W14656  24.218  25.471   4.174
42397W        W14657  42.209  36.913  13.048
42398W        W14658  34.044  29.320  13.034
42399W        W14659  31.972  30.116  12.436
42400W        W14660  34.142  34.336  11.571
42401W        W14661   8.236  18.794   1.805
42402W        W14662   5.213   1.290  10.660
42403W        W14663  39.577   9.306  13.559
42404W        W14664  30.175  26.255  10.669
42405W        W14665   5.872  44.547  13.130
42406W        W14666  17.208  20.287  12.376
42407W        W14667  21.736   8.237  10.703
42408W        W14668   0.715  33.189   1.882
42409W        W14669  13.554  39.712  11.970
42410W        W14670  38.422  15.780  11.986
42411W        W14671  30.810  13.227   5.274
42412W        W14672   6.195  23.012  11.583
42413W        W14673   3.216  17.867  14.302
42414W        W14674  33.645  26.991  14.989
42415W        W14675  10.343  16.765   0.953
42416W        W14676  13.545  30.341  13.846
42417W        W14677  39.102  22.330  13.790
42418W        W14678  27.769  33.332   0.557
42419W        W14679  33.671  26.057   0.919
42420W        W14680  21.700  24.486  14.018
42421W        W14681  32.877  16.181   2.792
42422W        W14682  25.076  11.139   0.896
42423W        W14683  40.512  21.752  11.127
42424W        W14684   0.445  11.963   3.801
42425W        W14685  29.626  10.104   2.319
42426W        W14686   5.828  36.127   2.205
42427W        W14687  31.635  41.433   1.364
42428W        W14688  22.842  26.643   0.834
42429W        W14689  31.515   1.110  11.115
42430W        W14690   6.773  36.507  12.857
42431W        W14691   5.377  31.121  14.019
42432W        W14692  26.434  26.797  11.534
42433W        W14693   0.899  26.744   0.826
42434W        W14694  41.443  10.243   4.573
42435W        W14695  22.278   0.532   0.731
42436W        W14696  21.170  26.761  10.695
42437W        W14697  28.705   2.015  14.273
42438W        W14698  12.567   6.504   4.129
42439W        W14699  15.618  13.086   1.748
42440W        W14700  13.448  41.682  10.308
42441W        W14701  40.021   9.481   3.578
42442W        W14702  37.902  41.051  13.418
42443W        W14703  16.069  44.158  13.450
42444W        W14704  30.011  11.166   1.543
42445W        W14705  17.558   0.053   1.180
42446W        W14706  17.623   7.524   0.670
42447W        W14707  14.591  39.851   4.299
42448W        W14708  40.408  12.383   2.318
42449W        W14709   5.949  26.412   0.833
42450W        W14710  35.158   7.382   3.712
42451W        W14711  44.601  12.277   3.886
42452W        W14712   3.681  13.770   0.438
42453W        W14713  23.482  42.098   2.922
42454W        W14714  17.499  21.543   1.271
42455W        W14715  32.562  26.336  13.929
42456W        W14716   3.747  14.757   0.400
42457W        W14717   0.506  40.534  14.342
42458W        W14718  23.654   0.411  12.018
42459W        W14719  32.523  43.519   0.905
42460W        W14720  16.544  16.622   4.702
42461W        W14721   9.949  37.129   4.584
42462W        W14722   4.334   9.907   3.233
42463W        W14723  34.483  39.475  11.490
42464W        W14724  20.608  34.493  13.536
42465W        W14725   4.226  12.421   4.119
42466W        W14726   2.796  20.179   3.232
42467W        W14727  34.753  14.434   5.360
42468W        W14728   4.002   3.479   1.250
42469W        W14729   9.577  32.499  10.582
42470W        W14730  13.113  30.570   4.667
42471W        W14731  22.121  11.852   3.702
42472W        W14732   3.746   2.475  13.383
42473W        W14733  27.104  43.405   1.534
42474W        W14734  25.510   3.383   4.251
42475W        W14735  44.993  13.096   0.000
42476W        W14736  40.578  10.267   0.548
42477W        W14737  21.289  21.208   3.762
42478W        W14738  40.083  24.195  12.429
42479W        W14739  28.031  17.743  13.436
42480W        W14740  37.820  12.102   0.943
42481W        W14741   8.221   8.980   3.734
42482W        W14742   1.847  42.314  14.847
42483W        W14743  21.046   1.245   2.840
42484W        W14744  15.854  40.335  10.630
42485W        W14745  10.771  43.270  14.752
42486W        W14746  11.254  31.908   3.235
42487W        W14747  31.243   3.527   4.900
42488W        W14748  20.447  20.729  12.058
42489W        W14749   6.551  24.250   4.718
42490W        W14750  18.184  22.328   4.054
42491W        W14751  32.358   7.933  11.841
42492W        W14752  39.439   5.741   2.885
42493W        W14753   0.798  41.000  14.094
42494W        W14754  24.659  19.775  13.829
42495W        W14755  27.160  35.841  10.920
42496W        W14756  26.961   6.365   4.580
42497W        W14757  22.159  23.507   0.384
42498W        W14758  14.861  12.139   1.747
42499W        W14759  30.601  44.269   2.824
42500W        W14760   9.974  19.597  13.315
42501W        W14761  41.848  25.585   4.847
42502W        W14762  20.567  35.969  12.391
42503W        W14763  15.789   1.780  14.413
42504W        W14764  39.034   9.730   5.418
42505W        W14765  37.896   8.731  12.983
42506W        W14766  17.189  26.962   2.353
42507W        W14767  12.268  21.737  13.148
42508W        W14768  34.908  11.902  13.245
42509W        W14769  15.900  20.085   1.853
42510W        W14770  18.932  30.129   2.236
42511W        W14771  32.101  29.610  12.442
42512W        W14772  11.603  28.859   5.019
42513W        W14773   6.330   4.486  11.187
42514W        W14774  28.914   3.436   2.691
42515W        W14775   6.921  36.843   1.875
42516W        W14776  25.098   0.195   1.010
42517W        W14777  44.941  16.543   4.208
42518W        W14778   5.846  42.307   3.918
42519W        W14779  20.894   0.284   4.138
42520W        W14780  31.596  14.453   1.140
42521W        W14781  10.490  10.235   3.639
42522W        W14782  34.617   2.408  11.806
42523W        W14783  24.993   9.160   0.458
42524W        W14784  23.198  25.711  12.215
42525W        W14785  35.435   4.042   1.204
42526W        W14786  17.186  20.702   4.345
42527W        W14787  40.424  21.857  13.786
42528W        W14788  23.647  15.287   2.240
42529W        W14789  24.586  43.261   3.493
42530W        W14790  19.841  35.878   3.146
42531W        W14791  22.527  12.855  13.919
42532W        W14792   5.634  38.466  14.394
42533W        W14793   9.297   3.504   2.212
42534W        W14794  12.429  33.529  10.557
42535W        W14795  22.137   7.846   4.635
42536W        W14796  40.441   8.353   2.412
42537W        W14797  35.268  22.266   0.569
42538W        W14798  40.790  43.033   2.442
42539W        W14799  30.663  41.397   1.968
42540W        W14800  42.857  25.000   1.298
42541W        W14801  25.147  30.861  10.754
42542W        W14802   1.802  39.370   2.450
42543W        W14803  36.354  37.185   4.977
42544W        W14804   7.778  12.340   1.845
42545W        W14805  37.806  31.565   4.822
42546W        W14806  16.635  28.740   2.760
42547W        W14807  17.385  27.066  12.058
42548W        W14808  11.890  17.421  13.347
42549W        W14809  15.792  15.707   3.575
42550W        W14810   0.452  23.161   2.383
42551W        W14811  23.214  11.085  12.055
42552W        W14812   0.682  28.445   1.816
42553W        W14813  14.401  40.305   2.376
42554W        W14814  32.138   2.411  13.375
42555W        W14815   1.360  23.785   0.478
42556W        W14816  33.103  23.420  11.030
42557W        W14817  41.574  34.557   1.851
42558W        W14818  16.108   5.909   0.209
42559W        W14819  24.574  42.310   3.324
42560W        W14820  17.244  12.464  14.480
42561W        W14821  18.768  27.258   1.635
42562W        W14822   1.462  25.785   0.309
42563W        W14823  42.452  36.239   1.814
42564W        W14824  40.893   6.375   0.530
42565W        W14825   9.762  18.130   1.293
42566W        W14826  11.238  36.077   4.875
42567W        W14827   1.231   0.082   1.311
42568W        W14828   5.746   0.742   4.170
42569W        W14829  27.587   8.486   2.435
42570W        W14830  22.555  41.538   4.160
42571W        W14831  13.413  21.298  12.494
42572W        W14832   9.806   3.739   1.305
42573W        W14833   6.862   8.921   1.351
42574W        W14834   8.928  11.744   2.736
42575W        W14835  39.661  11.292   3.316
42576W        W14836   0.498  18.010   5.026
42577W        W14837  16.505  38.998  14.837
42578W        W14838  41.067  21.554   4.743
42579W        W14839  26.498  31.483   2.311
42580W        W14840  15.017  12.311   4.457
42581W        W14841  23.193  35.268   2.899
42582W        W14842  16.557  33.102   2.683
42583W        W14843  25.945   5.253  11.124
42584W        W14844  39.335  20.635  13.834
42585W        W14845   3.324  19.918  14.075
42586W        W14846   2.782   2.551   3.223
42587W        W14847   8.744  30.660   2.971
42588W        W14848  18.222  36.474   0.433
42589W        W14849   4.945  20.187   2.355
42590W        W14850  23.101  16.622   1.936
42591W        W14851  16.153  16.689  12.684
42592W        W14852  28.157  15.240  13.417
42593W        W14853  20.785  12.403  12.335
42594W        W14854  17.203  19.817   0.857
42595W        W14855  22.261  22.606   5.110
42596W        W14856  39.926  39.510   0.559
42597W        W14857  44.961  24.874   4.749
42598W        W14858  33.008  25.093  12.575
42599W        W14859  12.677  25.977   0.223
42600W        W14860  41.299  33.569  14.380
42601W        W14861  41.525  22.687   3.387
42602W        W14862  40.824  22.521   4.565
42603W        W14863  21.331   7.063   2.978
42604W        W14864  39.320  38.476  11.917
42605W        W14865  39.635  35.196   0.415
42606W        W14866  16.300  10.785   1.583
42607W        W14867   4.984  42.450  11.540
42608W        W14868  40.858  29.666   0.690
42609W        W14869   8.342  43.827  12.535
42610W        W14870   7.572  44.003  13.440
42611W        W14871  27.030  31.857  12.885
42612W        W14872  36.867  18.695  12.574
42613W        W14873   9.192  34.324   3.066
42614W        W14874  31.882   5.593   4.083
42615W        W14875  19.628  37.643   2.705
42616W        W14876   9.442  18.323  13.503
42617W        W14877  21.770  42.731  13.860
42618W        W14878  26.553  23.299   3.184
42619W        W14879  21.683  34.053  13.837
42620W        W14880  36.974  40.105  10.701
42621W        W14881  43.131  35.934  11.586
42622W        W14882  10.669  10.262  14.524
42623W        W14883  22.190  43.396  10.703
42624W        W14884  44.219  26.977   4.890
42625W        W14885  37.889  27.604   2.202
42626W        W14886  25.786  11.827   4.068
42627W        W14887  22.600  16.811  14.829
42628W        W14888   9.322  24.952   4.113
42629W        W14889  30.494   5.959  13.297
42630W        W14890  17.590  27.256  14.402
42631W        W14891  41.118   8.333  12.931
42632W        W14892  35.443  41.262   1.893
42633W        W14893  40.282  44.075  12.045
42634W        W14894  12.506  31.462  14.223
42635W        W14895  42.403  18.358   1.436
42636W        W14896  40.955  18.576   1.250
42637W        W14897  25.556  43.220   0.797
42638W        W14898  44.431  12.777   3.874
42639W        W14899   5.132  11.291   0.352
42640W        W14900  28.094  11.300  14.331
42641W        W14901  27.930  44.911  10.642
42642W        W14902  30.569  40.872   0.867
42643W        W14903  40.098  24.659  11.083
42644W        W14904  44.813  32.822  13.383
42645W        W14905  20.941  24.991  14.378
42646W        W14906  30.483  38.370  13.399
42647W        W14907   9.437  20.804   0.454
42648W        W14908   4.251  30.241  11.207
42649W        W14909  21.615  37.424  12.166
42650W        W14910   7.230   3.648   2.664
42651W        W14911  21.000  33.135  11.293
42652W        W14912  37.576  44.724   2.286
42653W        W14913  15.148  19.494  11.646
42654W        W14914   3.850  35.602  10.674
42655W        W14915  31.516  28.235  14.920
42656W        W14916  21.349  39.863  11.555
42657W        W14917  20.114  43.167  12.485
42658W        W14918  14.829   1.485   3.739
42659W        W14919   2.937  39.817   2.673
42660W        W14920  39.955  30.152  12.484
42661W        W14921  13.992   0.090  13.923
42662W        W14922  40.512  27.524  13.918
42663W        W14923  16.254  15.086   5.398
42664W        W14924   6.302  28.739  13.427
42665W        W14925  29.867  30.748  14.719
42666W        W14926  42.292  18.527  10.657
42667W        W14927  27.918  25.619   4.560
42668W        W14928   7.117  32.723  10.707
42669W        W14929  12.309  34.449  11.980
42670W        W14930  11.102  38.002  13.849
42671W        W14931  41.674  33.989   2.683
42672W        W14932  29.420  32.587  14.758
42673W        W14933   5.981  25.602  14.019
42674W        W14934  36.187   9.199   2.644
42675W        W14935  13.435  13.707  11.856
42676W        W14936  34.929  27.164  13.845
42677W        W14937  23.705  12.217  11.220
42678W        W14938  26.200   9.813  14.061
42679W        W14939  28.519  17.940  14.733
42680W        W14940  26.240  36.004   3.174
42681W        W14941  18.262  32.227   3.457
42682W        W14942   6.886  32.368  14.268
42683W        W14943   9.799  38.537  10.670
42684W        W14944   2.115  10.908  13.820
42685W        W14945  38.863   6.781   4.300
42686W        W14946  44.032  24.761  12.467
42687W        W14947   8.407  37.996  11.231
42688W        W14948  13.193  23.211  12.985
42689W        W14949   1.035   2.798   3.605
42690W        W14950  26.216   8.795  12.380
42691W        W14951   1.175  33.040  11.564
42692W        W14952   4.004  37.586   0.239
42693W        W14953  25.188   8.850   2.147
42694W        W14954  19.101  12.314   1.369
42695W        W14955  25.773  15.948  12.156
42696W        W14956  43.902   7.908  12.056
42697W        W14957  37.829   0.373  14.544
42698W        W14958  30.727  15.770  11.117
42699W        W14959  22.269  28.331   1.968
42700W        W14960  41.478   8.599  13.292
42701W        W14961  22.578  31.198  12.577
42702W        W14962  10.498  33.161   4.023
42703W        W14963  16.540   1.571   2.723
42704W        W14964  28.502  14.792  12.183
42705W        W14965   6.648  20.242  13.897
42706W        W14966  10.330   1.435  11.553
42707W        W14967  36.033  43.953  11.196
42708W        W14968  12.578  38.731  11.785
42709W        W14969  27.044  28.470  14.301
42710W        W14970  15.298   7.843   4.094
42711W        W14971   6.611  17.332   4.348
42712W        W14972  27.920  20.837   4.939
42713W        W14973  39.582  44.845   1.836
42714W        W14974  40.503  32.071  13.060
42715W        W14975  26.350  17.957   0.021
42716W        W14976  14.110  24.075  13.307
42717W        W14977  15.751  40.388   2.873
42718W        W14978  16.741  23.704   1.184
42719W        W14979  40.519  13.713   1.460
42720W        W14980  11.751  39.036  11.610
42721W        W14981  10.185  42.037  10.710
42722W        W14982  32.627  12.522  14.952
42723W        W14983   9.057   8.313  11.153
42724W        W14984  27.799  26.902  14.937
42725W        W14985  10.722  44.210  11.975
42726W        W14986   3.821   7.921  13.772
42727W        W14987  30.923  21.622  11.458
42728W        W14988   6.244   9.949   0.978
42729W        W14989   7.813  28.225   4.162
42730W        W14990  22.376  40.934  11.373
42731W        W14991  24.465  31.978   0.907
42732W        W14992  15.189  23.207  10.715
42733W        W14993  21.526  40.484  13.816
42734W        W14994  29.166   1.799  12.899
42735W        W14995  32.629   3.210   1.754
42736W        W14996  43.224   2.674  12.918
42737W        W14997   9.768  28.912   2.297
42738W        W14998  18.662   2.972   3.373
42739W        W14999  43.341  10.187  11.197
42740W        W15000  19.654  41.956  14.938
42741W        W15001   5.474  18.698  12.508
42742W        W15002  20.642  24.081  12.532
42743W        W15003  35.406  14.306  12.455
42744W        W15004  33.590  15.312  10.155
42745W        W15005  23.597  14.728  13.528
42746W        W15006  28.255  18.764   1.754
42747W        W15007  32.524   0.246   4.242
42748W        W15008  41.387  10.673  12.318
42749W        W15009  18.813  30.509  12.101
42750W        W15010  16.534  19.502   4.129
42751W        W15011  43.686  18.544   5.187
42752W        W15012  10.226  27.288  14.464
42753W        W15013  20.484   2.221   0.362
42754W        W15014  12.537  10.867   0.433
42755W        W15015   6.854  31.250   2.036
42756W        W15016  41.878  20.255  12.512
42757W        W15017  37.806  33.357  14.711
42758W        W15018   3.930  12.000   4.262
42759W        W15019  18.193  13.828   1.434
42760W        W15020  33.655  14.784   0.068
42761W        W15021  44.473  10.170   4.558
42762W        W15022  14.458   4.271  13.061
42763W        W15023  17.739  12.774  11.402
42764W        W15024  32.481  15.295  13.397
42765W        W15025  15.536   1.567  12.880
42766W        W15026  25.932  19.513   4.225
42767W        W15027   6.844  14.331  12.785
42768W        W15028  29.041  10.871  13.119
42769W        W15029  24.417  27.507   0.809
42770W        W15030  35.675  27.987  13.464
42771W        W15031  33.472  20.642   0.694
42772W        W15032  41.948  31.353   1.882
42773W        W15033  25.085  13.359   4.372
42774W        W15034   0.456  10.559   4.023
42775W        W15035   4.736  40.928   2.134
42776W        W15036   6.686  30.941  10.756
42777W        W15037  24.761  36.099   3.790
42778W        W15038  24.768  27.500  11.422
42779W        W15039   0.724  43.360   1.249
42780W        W15040  32.413  33.467   1.731
42781W        W15041  32.583  29.705  14.396
42782W        W15042  39.860  36.257  14.039
42783W        W15043  26.511  23.181   5.039
42784W        W15044  33.989   6.979  11.177
42785W        W15045  12.703   1.212   0.289
42786W        W15046   5.400  37.053  14.364
42787W        W15047  10.255  10.851   2.172
42788W        W15048  30.545  15.137  13.285
42789W        W15049   4.961   5.684  12.522
42790W        W15050  42.494  15.191   2.593
42791W        W15051   3.977  13.787   4.651
42792W        W15052  13.188  19.732  12.587
42793W        W15053  32.698  42.697   2.218
42794W        W15054   1.869  15.381   0.447
42795W        W15055  20.720   2.409  11.049
42796W        W15056   9.894  21.393  13.555
42797W        W15057  33.069  42.489  13.487
42798W        W15058  25.631  14.118  11.550
42799W        W15059  26.890  31.593  12.468
42800W        W15060  44.926   5.669   3.841
42801W        W15061  15.958  43.287  13.982
42802W        W15062  20.598  31.549   4.074
42803W        W15063  29.127   0.068   1.852
42804W        W15064  44.522   8.877  11.575
42805W        W15065  15.353  27.108   1.411
42806W        W15066   1.757  20.343  13.019
42807W        W15067  27.445  12.282  11.220
42808W        W15068  22.518  28.381   2.410
42809W        W15069  44.427  25.116  10.608
42810W        W15070  42.655   4.405  10.450
42811W        W15071  44.208  21.785  11.500
42812W        W15072   1.785   8.243  10.626
42813W        W15073  22.084  29.370   5.141
42814W        W15074  36.449  42.729   3.139
42815W        W15075  43.014  11.115  14.329
42816W        W15076   2.948  27.033   2.394
42817W        W15077  37.318  33.706   0.815
42818W        W15078   8.943  12.574  14.113
42819W        W15079  44.470  27.469   2.888
42820W        W15080   2.771   4.923  13.310
42821W        W15081  12.809  38.384  14.518
42822W        W15082  23.670  33.033  11.179
42823W        W15083  18.064   2.342   0.011
42824W        W15084  27.945  32.450   4.261
42825W        W15085   5.750  28.489   3.734
42826W        W15086   2.604  16.093   3.661
42827W        W15087  44.264  10.995   0.737
42828W        W15088  36.636  27.488  14.065
42829W        W15089  23.156   5.908   3.296
42830W        W15090  40.480   8.415   0.414
42831W        W15091   6.272  28.026   4.229
42832W        W15092  43.861   4.671  12.763
42833W        W15093  21.042   5.107   1.279
42834W        W15094  24.414  31.600  14.936
42835W        W15095  15.119  23.093  12.648
42836W        W15096  24.481  29.354   3.593
42837W        W15097  17.782   8.502   4.736
42838W        W15098  14.156   9.936   2.428
42839W        W15099  31.628   8.712  11.029
42840W        W15100  14.961  16.795   9.640
42841W        W15101  16.968  14.668   3.194
42842W        W15102   1.366   3.819   3.245
42843W        W15103   4.744   8.740  10.798
42844W        W15104  44.477   6.533  12.862
42845W        W15105   7.224  14.890   4.173
42846W        W15106   5.530   3.672  11.545
42847W        W15107  34.662  29.232   0.279
42848W        W15108  31.770  23.246  14.924
42849W        W15109   8.951   3.389  13.769
42850W        W15110  19.699  32.648  14.586
42851W        W15111  29.719  34.584   1.301
42852W        W15112  24.544  23.552   0.791
42853W        W15113   9.271  36.286   3.235
42854W        W15114   3.010  27.506  14.941
42855W        W15115  29.154  35.381  12.375
42856W        W15116  41.064  10.258   0.344
42857W        W15117  35.506  10.709   4.069
42858W        W15118   6.440  18.103   2.691
42859W        W15119  34.568   5.445  14.508
42860W        W15120  36.745  37.156   3.332
42861W        W15121  35.031  39.293   2.727
42862W        W15122   5.299  21.739  13.362
42863W        W15123   0.581  29.625   1.366
42864W        W15124  13.811  29.680  12.450
42865W        W15125  21.620  34.288   2.687
42866W        W15126  41.033   5.352   1.626
42867W        W15127   6.264  31.726  14.319
42868W        W15128  11.361  26.586   2.285
42869W        W15129  44.864  26.837   2.726
42870W        W15130   1.417  16.849   1.129
42871W        W15131  26.348  19.011  13.314
42872W        W15132  41.423  13.720   1.024
42873W        W15133   3.209  33.025  14.091
42874W        W15134  15.324   9.218   4.078
42875W        W15135  34.041  17.843  12.335
42876W        W15136  34.381  33.523  11.994
42877W        W15137  36.989  24.012   1.906
42878W        W15138  25.170  44.474  13.030
42879W        W15139  30.816   2.128  10.778
42880W        W15140  28.900  22.794  14.777
42881W        W15141  22.191  24.167   2.322
42882W        W15142  36.390   3.112   1.883
42883W        W15143  13.239  42.015  13.009
42884W        W15144  31.673  44.294   2.134
42885W        W15145  43.035  37.299  14.463
42886W        W15146  23.072   8.420  13.766
42887W        W15147  38.296  42.864   2.444
42888W        W15148  10.264  22.431  13.790
42889W        W15149  33.834  15.514   3.384
42890W        W15150  28.707   4.730  13.988
42891W        W15151  16.508  38.494   1.587
42892W        W15152  32.868   9.631   1.684
42893W        W15153  36.259  30.445  11.014
42894W        W15154  16.660  15.217   2.767
42895W        W15155  31.409  43.393  11.658
42896W        W15156  41.801   6.912  12.143
42897W        W15157  42.566  12.125   3.191
42898W        W15158  24.499  37.409  11.156
42899W        W15159  13.382  19.886  13.598
42900W        W15160   8.358  35.397  12.095
42901W        W15161  42.873  40.549  13.002
42902W        W15162  13.561   6.842   2.291
42903W        W15163  17.195  37.356   4.884
42904W        W15164   4.044  17.099   3.261
42905W        W15165  15.821  16.715  14.480
42906W        W15166   5.961  28.028   3.805
42907W        W15167  13.995  11.140  10.819
42908W        W15168  37.133  19.543  11.593
42909W        W15169   8.910   7.776  11.811
42910W        W15170  20.186  39.593  14.793
42911W        W15171  17.779  20.808  14.746
42912W        W15172  33.636  40.412   0.213
42913W        W15173   5.425  17.030   3.612
42914W        W15174  37.551  27.197   3.245
42915W        W15175  16.123  44.185   1.262
42916W        W15176   9.179  23.003   0.032
42917W        W15177  24.243   8.253  12.051
42918W        W15178  26.998   4.176   0.412
42919W        W15179  23.727  14.608   3.682
42920W        W15180  18.446  10.784   2.744
42921W        W15181  30.093  32.865  12.423
42922W        W15182  16.789  17.361  12.513
42923W        W15183  36.180   1.256   1.634
42924W        W15184  38.636  18.192   2.441
42925W        W15185  17.633  10.290   3.097
42926W        W15186  14.907   0.215   4.034
42927W        W15187  39.559   7.448  14.050
42928W        W15188  12.948   1.030  14.006
42929W        W15189  16.367  23.972   4.235
42930W        W15190   5.240  10.387   0.241
42931W        W15191  20.590  19.120   1.795
42932W        W15192   1.835  18.914   3.240
42933W        W15193  26.607  22.830  12.423
42934W        W15194  38.969   5.969   2.933
42935W        W15195   3.687  36.417   0.789
42936W        W15196  13.331  38.092   0.644
42937W        W15197   5.199  43.277  12.376
42938W        W15198  21.956  21.138  11.448
42939W        W15199  18.979  31.224   4.020
42940W        W15200  17.370  26.191   3.004
42941W        W15201   4.735   9.154  14.824
42942W        W15202  44.876  40.294  11.533
42943W        W15203  33.938  22.463  10.725
42944W        W15204  20.352  41.631   2.847
42945W        W15205  24.760  32.118   1.313
42946W        W15206  44.010  13.998  14.141
42947W        W15207  42.239  12.187   1.174
42948W        W15208  35.873  21.145   1.964
42949W        W15209  38.960  17.985  13.087
42950W        W15210   4.677  17.025   4.084
42951W        W15211  33.965  28.064   0.976
42952W        W15212   4.756  35.161  11.523
42953W        W15213  15.133  42.845   1.282
42954W        W15214  38.447  32.709   2.329
42955W        W15215  20.159  38.659  11.680
42956W        W15216  27.896  28.856  13.503
42957W        W15217   9.108   7.282   4.097
42958W        W15218   0.009   6.799   0.775
42959W        W15219  12.763  38.841  14.754
42960W        W15220  16.198  30.355   1.016
42961W        W15221  36.399  40.544   4.124
42962W        W15222  33.126  11.927   4.181
42963W        W15223  28.598  18.022  12.394
42964W        W15224  28.392  36.007   0.981
42965W        W15225  35.433  27.285   1.008
42966W        W15226  31.063   4.960   3.273
42967W        W15227   8.113  11.127  11.559
42968W        W15228  15.421  20.860  12.561
42969W        W15229   0.961  14.716  14.707
42970W        W15230  29.720   2.926  12.365
42971W        W15231   2.465  44.284  14.834
42972W        W15232  21.372  24.236  11.966
42973W        W15233   6.310  32.186  12.349
42974W        W15234  19.625  32.003   3.351
42975W        W15235   1.543  24.011  13.977
42976W        W15236  28.822  43.239   1.310
42977W        W15237  21.572  29.986   2.478
42978W        W15238  23.294  11.577  12.167
42979W        W15239   4.789  14.274   4.551
42980W        W15240   7.596   7.776  11.064
42981W        W15241  27.303  18.123  10.707
42982W        W15242  23.492  40.217  12.143
42983W        W15243  24.088  18.527   1.143
42984W        W15244  31.342  23.068   1.242
42985W        W15245  36.285  20.888  10.485
42986W        W15246  28.618  42.047   4.757
42987W        W15247   1.960  33.580  14.965
42988W        W15248  13.434  38.459   2.270
42989W        W15249  12.269   2.484   2.251
42990W        W15250   7.855  37.624  10.625
42991W        W15251   2.421  30.544   2.950
42992W        W15252  36.987  35.552  11.500
42993W        W15253  39.601  23.705   3.641
42994W        W15254  39.037  44.268   2.898
42995W        W15255  10.612   5.673  10.824
42996W        W15256  36.439  18.177   0.157
42997W        W15257   1.201  29.043  13.608
42998W        W15258  17.732  29.972  11.697
42999W        W15259  42.326   2.087  13.165
43000W        W15260  34.934   7.830   4.610
43001W        W15261  27.463   7.261   0.465
43002W        W15262   4.577  19.005   4.774
43003W        W15263  31.103  25.063   3.613
43004W        W15264  12.328  29.098   2.234
43005W        W15265   8.804  40.610  12.958
43006W        W15266  32.604  37.588   3.453
43007W        W15267  25.648   3.829  11.368
43008W        W15268  30.596  22.288  10.300
43009W        W15269  42.913   7.357  10.456
43010W        W15270   6.666  33.574  12.470
43011W        W15271  29.582  39.611  12.921
43012W        W15272  14.867  15.134  11.089
43013W        W15273  28.090  26.009   1.242
43014W        W15274  18.996  22.684   2.768
43015W        W15275   2.124   4.644   0.957
43016W        W15276  31.923  31.113   3.187
43017W        W15277  30.024  30.178  14.547
43018W        W15278  43.803   8.304   3.359
43019W        W15279  31.167  11.813  10.663
43020W        W15280  21.769  13.750  11.577
43021W        W15281  34.485  12.143   2.940
43022W        W15282  38.584  26.479  13.528
43023W        W15283  14.834   8.604   3.354
43024W        W15284   0.592  35.011   1.688
43025W        W15285  38.887  18.303   0.469
43026W        W15286  36.276  27.391  11.922
43027W        W15287   3.269  23.474   4.764
43028W        W15288  25.577  35.524  13.272
43029W        W15289   5.573  27.870  13.420
43030W        W15290  29.915  37.037   0.852
43031W        W15291  44.912  41.050   0.011
43032W        W15292  19.203  19.341   1.695
43033W        W15293  29.651  36.987   2.875
43034W        W15294  18.572  32.944   4.745
43035W        W15295  14.065  28.394  12.206
43036W        W15296  24.767  19.934   3.318
43037W        W15297  41.029  13.642  14.428
43038W        W15298  30.016   8.445  14.350
43039W        W15299  44.466  28.818  11.550
43040W        W15300   6.872  42.169  13.881
43041W        W15301  11.284  14.260  14.465
43042W        W15302  34.664  19.763   0.391
43043W        W15303   6.235  27.158   3.607
43044W        W15304   4.824  33.065  14.698
43045W        W15305   3.710  19.185   1.822
43046W        W15306  24.575  30.071   2.832
43047W        W15307  19.707  33.964  13.954
43048W        W15308  23.522  19.552   2.152
43049W        W15309  23.480  37.123  14.805
43050W        W15310  44.857  18.864  12.112
43051W        W15311  11.757  21.209  11.059
43052W        W15312  38.985   9.657  13.503
43053W        W15313  28.939   0.015   4.096
43054W        W15314  30.021  41.539   3.718
43055W        W15315  32.215  26.572  13.316
43056W        W15316  40.074  42.127  13.550
43057W        W15317  11.736  43.989   2.749
43058W        W15318  41.279  16.519   3.025
43059W        W15319  25.175  12.297   0.391
43060W        W15320  32.848  18.150   1.273
43061W        W15321  44.446  36.343   0.973
43062W        W15322  39.343  42.281   3.814
43063W        W15323   0.670  20.652   0.050
43064W        W15324  40.551  18.801   2.414
43065W        W15325  44.475  20.313   1.213
43066W        W15326   4.508  40.348   4.383
43067W        W15327   3.815  13.241  11.498
43068W        W15328   6.398  43.499  12.458
43069W        W15329  25.940  13.909  14.562
43070W        W15330   0.326  40.238  10.558
43071W        W15331  40.804   2.086   0.507
43072W        W15332   4.389  44.098   3.943
43073W        W15333  22.435   0.290  13.756
43074W        W15334  32.890   3.115  13.424
43075W        W15335  26.189  19.075   2.364
43076W        W15336  36.523  10.659  12.473
43077W        W15337  19.307   5.674  13.019
43078W        W15338   6.311  31.996   1.360
43079W        W15339  24.682  23.165   4.195
43080W        W15340   7.335  31.087   1.281
43081W        W15341  14.149  14.285   0.901
43082W        W15342   5.858  13.920   2.710
43083W        W15343  20.419  19.760  14.874
43084W        W15344  39.318  25.518  10.633
43085W        W15345  35.936  21.144   4.444
43086W        W15346  24.071   9.390   1.234
43087W        W15347  10.329  34.295   1.961
43088W        W15348  36.427  40.850   4.575
43089W        W15349  33.356  16.239  13.333
43090W        W15350  31.844  22.479  13.429
43091W        W15351  23.455   8.810  11.011
43092W        W15352  29.438  18.147   1.352
43093W        W15353  26.706   6.272  14.750
43094W        W15354   3.756   6.855   0.985
43095W        W15355   9.674  38.756   1.849
43096W        W15356  25.495   4.573  11.199
43097W        W15357   8.718  35.325   0.460
43098W        W15358  22.374   9.384  10.844
43099W        W15359  28.914  41.338   0.339
43100W        W15360  17.214  39.282  10.700
43101W        W15361  16.163  16.292  14.951
43102W        W15362  33.235  12.272  14.345
43103W        W15363  44.262  43.568   2.634
43104W        W15364  25.457  10.189  13.010
43105W        W15365  19.457  18.730   0.380
43106W        W15366  42.325  18.745  13.736
43107W        W15367  40.012  27.899   0.839
43108W        W15368  10.330  14.112   4.214
43109W        W15369  41.392  40.065   0.854
43110W        W15370  13.601  39.964  13.406
43111W        W15371  42.565  23.939   0.926
43112W        W15372  22.751  13.244  12.422
43113W        W15373  18.274  28.479   0.894
43114W        W15374  32.550  32.385   2.983
43115W        W15375  41.279  25.000  14.920
43116W        W15376  29.114  34.798   4.100
43117W        W15377  17.155  42.981   1.268
43118W        W15378   6.409  44.975  11.113
43119W        W15379  36.473  37.447   1.189
43120W        W15380   2.335  29.007  12.774
43121W        W15381  29.962  25.803  12.928
43122W        W15382  15.032  38.417  12.566
43123W        W15383  28.710  24.495   3.152
43124W        W15384  33.070  29.155   4.004
43125W        W15385  24.760  12.750   1.365
43126W        W15386  12.131   7.390   4.603
43127W        W15387  39.781  39.634   2.873
43128W        W15388  17.643   4.112   4.752
43129W        W15389  27.279   4.383   4.542
43130W        W15390  33.960  38.117  14.958
43131W        W15391  40.917  25.400   2.801
43132W        W15392  40.528   7.803   0.067
43133W        W15393  29.559  15.655   0.655
43134W        W15394  17.372   7.235   5.483
43135W        W15395  39.957  17.858   4.439
43136W        W15396  38.423  26.332  14.907
43137W        W15397  42.851  44.203  10.806
43138W        W15398  38.419   2.184  13.085
43139W        W15399   3.497   1.801   4.684
43140W        W15400  22.057  44.402   3.638
43141W        W15401  17.304  41.267   3.793
43142W        W15402  27.681  23.781  10.293
43143W        W15403   1.474   8.686  14.334
43144W        W15404  36.323  22.438   3.332
43145W        W15405  33.645  39.937   2.786
43146W        W15406   5.204  37.933   0.439
43147W        W15407  20.029  37.160   4.152
43148W        W15408   3.328   2.709   4.274
43149W        W15409  34.004   5.532  11.607
43150W        W15410  44.576  30.530   0.713
43151W        W15411  19.935  21.041   5.058
43152W        W15412  15.233  34.163  14.531
43153W        W15413  21.680  41.450   3.838
43154W        W15414   7.877  28.164   1.479
43155W        W15415  32.713   7.806  14.758
43156W        W15416   4.345  27.531  14.298
43157W        W15417  28.441  41.511   2.785
43158W        W15418  24.682   3.705  12.014
43159W        W15419   3.711   2.383  12.540
43160W        W15420  15.311  14.813   3.823
43161W        W15421   9.935   8.235   2.904
43162W        W15422  34.114  24.195  11.491
43163W        W15423  40.307  25.443   2.172
43164W        W15424   6.199  26.653   1.334
43165W        W15425  42.052  37.281   2.222
43166W        W15426  27.449  44.275   2.867
43167W        W15427  33.901  43.414   1.283
43168W        W15428  11.077  25.669  13.991
43169W        W15429  26.329   4.647   9.989
43170W        W15430  23.511  17.208   1.208
43171W        W15431  42.614   9.027   1.291
43172W        W15432  33.077  43.826   3.926
43173W        W15433  20.358  18.570   2.697
43174W        W15434  39.411  15.199  14.948
43175W        W15435  39.898  31.959   4.099
43176W        W15436  38.145  14.138  12.881
43177W        W15437   0.006   8.862  12.584
43178W        W15438  34.518  10.642   4.259
43179W        W15439  34.937   3.808  14.959
43180W        W15440  14.153  39.166  14.854
43181W        W15441   4.783   5.063   1.852
43182W        W15442   0.106  25.098   3.188
43183W        W15443  21.527  40.927   4.696
43184W        W15444   3.585  21.963  14.745
43185W        W15445  43.343  37.594   4.695
43186W        W15446  11.163  23.691   4.085
43187W        W15447  12.562  16.203  11.559
43188W        W15448  23.057  32.043   0.519
43189W        W15449  40.317   0.107  12.052
43190W        W15450  35.382  18.153   1.854
43191W        W15451   1.002  12.685  13.089
43192W        W15452   9.755  15.025  11.539
43193W        W15453  39.271  30.975   4.086
43194W        W15454  32.500   5.593  13.036
43195W        W15455   7.927  26.429   4.532
43196W        W15456  28.650   1.658  12.840
43197W        W15457  43.547  11.276   0.200
43198W        W15458   6.958   8.716   0.215
43199W        W15459  43.346  16.634   0.410
43200W        W15460  10.857   6.366   4.635
43201W        W15461   0.855  28.328  11.154
43202W        W15462  12.220  43.185   4.095
43203W        W15463  26.786  14.260   3.160
43204W        W15464   5.751  13.720   4.144
43205W        W15465   3.515   9.895  14.284
43206W        W15466   3.761  37.337   0.660
43207W        W15467  35.836  20.218   3.153
43208W        W15468  20.166  44.132  10.937
43209W        W15469   5.282  26.107   9.776
43210W        W15470  41.476  39.538   3.297
43211W        W15471  13.102  20.231   1.457
43212W        W15472  26.953  41.082   3.683
43213W        W15473  27.430   3.838   0.358
43214W        W15474   6.642  19.839   4.095
43215W        W15475   5.750  43.273   4.158
43216W        W15476  41.469  36.529  11.261
43217W        W15477  35.061  33.412   4.637
43218W        W15478   2.308  34.685   0.310
43219W        W15479  21.238   6.721   0.415
43220W        W15480   9.412  15.554   1.513
43221W        W15481   9.196   5.152  11.963
43222W        W15482  39.901  13.249   3.871
43223W        W15483  40.446  18.342   2.214
43224W        W15484  37.020  27.404   2.769
43225W        W15485  23.664  43.341  12.496
43226W        W15486  39.825  44.464  14.058
43227W        W15487  20.958   4.565  11.623
43228W        W15488  13.318  32.618  11.063
43229W        W15489  27.392  37.369  13.781
43230W        W15490  38.783  37.039   2.138
43231W        W15491   9.654   2.475   1.869
43232W        W15492  22.225  16.134  13.849
43233W        W15493  24.159  27.951  14.861
43234W        W15494  10.575  44.367  12.913
43235W        W15495   4.657   6.439   2.856
43236W        W15496  44.249   3.249  10.651
43237W        W15497  15.240  30.399   0.837
43238W        W15498  42.081  33.322   4.181
43239W        W15499  40.420  11.361  11.555
43240W        W15500   3.974  41.305   2.487
43241W        W15501  22.191   8.328   2.425
43242W        W15502   0.932   7.914   2.800
43243W        W15503  23.141  28.051  13.589
43244W        W15504  34.566  25.614   2.418
43245W        W15505  15.360   3.669  12.598
43246W        W15506  44.469  34.126  10.723
43247W        W15507  24.116  24.715  13.918
43248W        W15508  38.221   5.760  14.196
43249W        W15509  12.666  43.217  10.563
43250W        W15510   2.856  24.719  11.590
43251W        W15511  17.742  17.814   3.156
43252W        W15512  41.521   9.744   0.809
43253W        W15513  24.134   5.796  10.519
43254W        W15514   4.703  13.611   2.257
43255W        W15515  31.054  22.830   5.088
43256W        W15516  23.573  44.544  14.496
43257W        W15517  20.770  29.603   4.854
43258W        W15518  15.856  32.134  13.578
43259W        W15519  27.150  36.918  12.096
43260W        W15520  19.717  40.600   3.382
43261W        W15521  22.090  41.182   3.252
43262W        W15522  20.768  10.286  10.123
43263W        W15523  31.779  36.990  11.251
43264W        W15524   4.022   2.497   1.726
43265W        W15525  44.944  33.963   3.654
43266W        W15526  27.605  35.115  14.538
43267W        W15527  26.702  40.459  14.833
43268W        W15528  35.995  23.141  14.878
43269W        W15529  35.140  14.219  12.882
43270W        W15530   7.790  19.837   2.307
43271W        W15531  44.739  34.463   4.552
43272W        W15532  16.479  23.681   3.071
43273W        W15533  24.405  30.789   1.062
43274W        W15534  29.043  13.837   5.038
43275W        W15535   2.012  30.708  13.630
43276W        W15536  26.438  19.615  13.424
43277W        W15537  19.888   1.779   3.849
43278W        W15538  43.476  29.999  11.290
43279W        W15539  25.466  13.908   1.417
43280W        W15540   7.418  42.338   0.905
43281W        W15541  15.361  35.135   1.322
43282W        W15542  15.226  44.217  11.605
43283W        W15543  13.550   7.433  10.649
43284W        W15544  42.571  17.674  14.808
43285W        W15545  34.145  32.641  11.091
43286W        W15546   4.740   2.210  13.554
43287W        W15547  17.085  41.502   2.061
43288W        W15548  19.325  43.947  13.836
43289W        W15549  30.469   2.640   1.253
43290W        W15550  26.009  11.154   1.672
43291W        W15551  17.536  26.594  11.621
43292W        W15552  38.547  29.882   3.732
43293W        W15553  27.344  13.710   4.850
43294W        W15554  14.381  36.947   2.181
43295W        W15555   1.215  17.149  12.515
43296W        W15556  43.568  11.217  12.180
43297W        W15557  42.955  31.482  10.785
43298W        W15558  42.748  31.701  14.818
43299W        W15559  31.558  28.659  11.575
43300W        W15560   3.157   4.727   0.491
43301W        W15561   9.932  18.754   0.389
43302W        W15562  15.733   7.949   2.346
43303W        W15563  15.011  38.891  12.047
43304W        W15564  34.097  36.041  10.745
43305W        W15565  25.716   3.873  14.921
43306W        W15566  40.360  27.914   2.095
43307W        W15567   0.817  16.252   3.431
43308W        W15568   2.323  19.606   2.814
43309W        W15569  15.862  25.064   4.237
43310W        W15570  34.348   0.373  14.407
43311W        W15571  29.001  22.729   3.463
43312W        W15572  41.409  32.632  13.923
43313W        W15573   0.470   2.765  11.273
43314W        W15574   9.182  17.714   0.114
43315W        W15575  17.836  27.981   0.375
43316W        W15576  40.746   5.351  12.889
43317W        W15577  19.111  35.458   3.714
43318W        W15578  40.084  40.442  13.393
43319W        W15579   3.492  14.709  13.392
43320W        W15580  19.161  35.041   2.514
43321W        W15581  30.437  43.555  11.950
43322W        W15582  21.581  15.731  13.806
43323W        W15583   6.942  17.716   2.368
43324W        W15584  25.783  20.127  11.924
43325W        W15585  30.823   7.624  13.106
43326W        W15586   3.320  36.073  13.548
43327W        W15587  31.665  26.976   1.770
43328W        W15588  38.112  27.963   9.960
43329W        W15589  40.337  30.234  14.235
43330W        W15590  28.705  24.157   0.773
43331W        W15591  10.097  16.328  10.004
43332W        W15592  16.080  43.935   4.551
43333W        W15593  42.274   3.463   4.169
43334W        W15594  34.620   9.287   2.434
43335W        W15595  40.785  37.823  13.487
43336W        W15596  30.099  16.978   2.731
43337W        W15597  44.083   1.273   3.644
43338W        W15598  37.979  34.511  13.397
43339W        W15599  21.503   1.540   1.507
43340W        W15600   3.892  15.340   4.569
43341W        W15601   1.708  17.888  13.482
43342W        W15602  35.105  36.481   2.166
43343W        W15603  19.769  11.382  11.104
43344W        W15604   1.027  33.374  13.990
43345W        W15605  38.091  26.876   1.449
43346W        W15606  30.407  39.554  13.782
43347W        W15607  37.452  27.578  12.837
43348W        W15608   3.333   5.751   0.430
43349W        W15609   1.718  34.880   3.603
43350W        W15610  12.576  12.700   4.052
43351W        W15611  19.233  29.707  10.772
43352W        W15612   4.892  27.636   3.294
43353W        W15613  30.609  11.609   3.248
43354W        W15614  40.324  25.493   3.588
43355W        W15615  11.888   0.009  11.306
43356W        W15616  33.583   6.799   2.892
43357W        W15617  40.460   0.900  12.631
43358W        W15618  12.229  10.369   2.442
43359W        W15619  16.300  17.604   3.263
43360W        W15620  42.078  41.565  14.049
43361W        W15621  41.394  33.108  14.124
43362W        W15622   6.376  28.011  10.974
43363W        W15623   0.510  22.382   1.217
43364W        W15624  44.366   9.264  11.206
43365W        W15625  21.059  35.406   3.185
43366W        W15626  29.981  19.095  12.027
43367W        W15627  25.171   8.417   3.877
43368W        W15628  33.484  27.909   1.116
43369W        W15629  28.424  31.456   2.740
43370W        W15630  18.271  28.526  12.953
43371W        W15631  43.300  16.554   2.633
43372W        W15632   5.278   1.145   0.327
43373W        W15633  26.138  19.952  12.474
43374W        W15634  23.917  38.256  14.195
43375W        W15635   9.370  34.426  11.602
43376W        W15636  39.928  22.728   3.537
43377W        W15637  33.646  15.297   4.811
43378W        W15638  35.002  41.559   0.275
43379W        W15639  23.527  27.705   4.561
43380W        W15640  40.004  24.510  12.968
43381W        W15641   4.924  15.287   3.588
43382W        W15642   5.468   2.340   1.899
43383W        W15643  39.818  27.982   1.720
43384W        W15644   3.455  42.285  10.889
43385W        W15645  23.003  21.032   0.642
43386W        W15646  13.635  26.449   2.711
43387W        W15647  18.692  12.249  11.995
43388W        W15648   5.060  43.573  10.090
43389W        W15649  26.503   1.937  13.237
43390W        W15650  41.341   9.337  11.281
43391W        W15651   6.965  43.191   2.723
43392W        W15652  11.095  15.139   2.191
43393W        W15653  10.184  20.095   1.837
43394W        W15654   1.131  37.896  11.932
43395W        W15655  23.475  19.548   4.014
43396W        W15656  29.434  29.231   4.171
43397W        W15657  17.191  16.320  14.325
43398W        W15658  23.722   4.708   2.231
43399W        W15659  38.745  12.572   1.910
43400W        W15660   3.178  40.592   0.672
43401W        W15661  42.342  24.686  10.537
43402W        W15662  37.380  19.267  14.095
43403W        W15663  22.413  14.558   2.178
43404W        W15664  27.125  22.077  13.343
43405W        W15665  12.632   1.410   3.265
43406W        W15666  29.723  37.983   2.717
43407W        W15667  10.596  25.993  10.682
43408W        W15668  11.380   1.270  14.259
43409W        W15669   2.828  17.528  14.297
43410W        W15670  25.748   6.976  13.839
43411W        W15671  32.541  33.183  10.539
43412W        W15672   4.335  32.568  12.777
43413W        W15673  32.133  14.911   2.203
43414W        W15674  15.244   0.065   0.092
43415W        W15675   1.319  25.496  14.901
43416W        W15676  19.565  40.963   3.721
43417W        W15677  26.801  35.681   1.697
43418W        W15678  39.072   9.411  13.973
43419W        W15679  37.096  41.784  14.976
43420W        W15680   3.239   0.350   1.304
43421W        W15681   0.722   1.184   0.917
43422W        W15682  19.040  40.373  12.107
43423W        W15683   8.438  29.834  12.960
43424W        W15684   4.290  38.816  14.952
43425W        W15685   2.745   8.695  11.615
43426W        W15686   6.176  33.709   2.722
43427W        W15687  35.599  24.725   1.791
43428W        W15688  34.082  32.492  13.486
43429W        W15689  10.145   7.580  10.762
43430W        W15690   5.339  32.000   1.762
43431W        W15691  37.613   7.765  10.619
43432W        W15692  34.829   5.935  11.100
43433W        W15693  10.923  33.997  11.071
43434W        W15694  26.383  40.050   4.996
43435W        W15695   8.880   4.214   0.273
43436W        W15696  39.914  35.580  14.686
43437W        W15697  33.714   3.862   0.374
43438W        W15698   2.033  16.694  12.144
43439W        W15699  37.436  10.797  13.571
43440W        W15700  19.286   4.444   4.528
43441W        W15701  18.667   1.410   0.847
43442W        W15702   3.850  30.532  11.052
43443W        W15703  41.367  13.460  14.059
43444W        W15704  41.361   2.901   4.271
43445W        W15705  36.741   2.911   1.233
43446W        W15706  13.751  11.562  14.517
43447W        W15707  26.455   3.549  11.485
43448W        W15708  10.320  26.683   3.693
43449W        W15709  19.337  13.719   4.146
43450W        W15710  28.984  32.622  11.235
43451W        W15711  18.811  19.632  10.956
43452W        W15712  39.771  30.966   2.671
43453W        W15713  41.818  44.005   0.340
43454W        W15714  40.628  30.582  14.511
43455W        W15715   7.680  39.548   3.559
43456W        W15716  33.542  15.176   2.003
43457W        W15717  21.783  38.106   3.685
43458W        W15718  20.125   9.135  14.379
43459W        W15719   9.399  12.826   4.977
43460W        W15720  24.582  28.418  11.600
43461W        W15721  41.773  24.501   1.774
43462W        W15722  30.919  15.816   3.273
43463W        W15723   1.290  34.785  12.799
43464W        W15724  24.590   4.826   4.789
43465W        W15725   1.186  33.422  12.062
43466W        W15726  39.309   7.978  13.864
43467W        W15727  24.714  24.651  13.034
43468W        W15728  18.128  16.288  11.993
43469W        W15729  44.681  22.883   0.342
43470W        W15730  43.592   4.499   0.433
43471W        W15731   2.004  20.170   4.660
43472W        W15732  13.752  17.406  10.004
43473W        W15733  16.755  12.976  12.512
43474W        W15734  39.530  14.768   4.435
43475W        W15735   4.672  11.056   1.738
43476W        W15736  19.630  29.260   1.346
43477W        W15737  23.976  29.336  11.204
43478W        W15738  41.846   8.153   1.423
43479W        W15739  44.989   5.213   4.058
43480W        W15740  23.560  23.707   1.698
43481W        W15741  34.441   2.846  12.044
43482W        W15742  31.578  34.915   2.216
43483W        W15743   6.946  26.069   3.685
43484W        W15744  42.404  32.040   1.254
43485W        W15745   6.257  26.702   3.348
43486W        W15746   1.028  22.296   0.559
43487W        W15747   6.807  31.922  12.443
43488W        W15748  17.719  26.671  12.095
43489W        W15749   6.431  36.521   4.582
43490W        W15750   5.138  10.329  13.719
43491W        W15751  34.054   7.839  13.045
43492W        W15752  20.905   1.244   3.336
43493W        W15753  42.881  20.880  11.893
43494W        W15754  15.414  24.759  12.458
43495W        W15755  22.597  37.977  10.557
43496W        W15756  17.345  18.195   1.416
43497W        W15757   9.309  41.389  10.341
43498W        W15758   4.946  37.862   2.842
43499W        W15759  32.913   1.255   0.247
43500W        W15760  12.765  17.626  13.102
43501W        W15761  21.070  23.244   3.705
43502W        W15762  44.486  44.018  13.432
43503W        W15763  12.645   0.883   3.273
43504W        W15764   8.586   1.314  12.673
43505W        W15765  21.292  38.128   3.851
43506W        W15766   7.916  20.858  11.855
43507W        W15767   2.648  22.796  11.509
43508W        W15768  25.625  19.101   0.984
43509W        W15769  25.104  26.917  11.908
43510W        W15770  38.414   6.567   5.143
43511W        W15771  26.661  11.331   2.407
43512W        W15772  13.544   0.155   0.391
43513W        W15773  40.832  30.876  13.948
43514W        W15774  24.368   8.023   2.784
43515W        W15775  17.392  23.024  14.569
43516W        W15776   9.656  30.515  14.708
43517W        W15777  41.299  25.981  11.681
43518W        W15778  23.639  17.642   3.881
43519W        W15779  25.635   5.200   3.805
43520W        W15780  38.596   2.689  11.661
43521W        W15781  37.956  43.298  11.056
43522W        W15782  29.051  30.983  11.395
43523W        W15783   3.798  33.069   0.712
43524W        W15784   8.396  14.347   3.252
43525W        W15785  38.910  23.556   1.285
43526W        W15786  11.435  31.879  11.014
43527W        W15787  14.610   0.974   0.457
43528W        W15788  18.458  40.140  10.969
43529W        W15789  35.459  16.514  14.812
43530W        W15790  39.742  29.045  14.524
43531W        W15791  23.056   2.780  14.399
43532W        W15792   3.714  22.276   4.542
43533W        W15793  23.815  42.054   4.180
43534W        W15794  19.072  24.876  11.135
43535W        W15795  28.706  19.569   1.287
43536W        W15796  35.170  15.802  10.266
43537W        W15797   8.144  12.276  11.988
43538W        W15798  21.092  39.734  14.237
43539W        W15799   3.793  21.049   2.620
43540W        W15800  12.811  29.691  10.572
43541W        W15801  42.839  21.552  14.314
43542W        W15802  13.199  16.358   4.969
43543W        W15803  20.819  38.875  10.757
43544W        W15804  31.464  29.970   1.757
43545W        W15805  23.567  13.596   4.409
43546W        W15806  15.857  10.878   0.974
43547W        W15807  13.519  18.824   3.711
43548W        W15808   6.250  10.496  11.088
43549W        W15809   9.369   8.873  11.111
43550W        W15810  10.574  42.704  14.023
43551W        W15811  26.265   1.479  11.460
43552W        W15812  20.516  21.894   3.845
43553W        W15813  23.048  37.962  11.695
43554W        W15814  11.032  18.660  11.875
43555W        W15815  28.151   6.417   4.717
43556W        W15816  33.249  10.370  11.101
43557W        W15817   2.819  33.238   4.824
43558W        W15818  19.094  18.565   0.012
43559W        W15819  31.245   0.905   0.702
43560W        W15820   7.870  21.049   0.742
43561W        W15821  16.136  34.413  10.590
43562W        W15822  12.698  18.085  13.370
43563W        W15823   6.361  17.399  11.309
43564W        W15824  26.635  26.339  10.173
43565W        W15825  28.077  24.309   2.898
43566W        W15826  14.813   6.748   0.347
43567W        W15827  29.787  19.400  11.156
43568W        W15828   7.843  24.915  10.957
43569W        W15829  22.841   7.305  10.256
43570W        W15830  34.502  18.069  10.889
43571W        W15831  27.968  44.271   2.302
43572W        W15832  30.109  29.155   2.320
43573W        W15833  24.353  29.384  11.546
43574W        W15834  34.815   4.650  13.998
43575W        W15835  39.995   7.207  14.167
43576W        W15836  20.208  32.901  14.847
43577W        W15837  16.755  38.336  11.066
43578W        W15838  25.836  33.145  13.475
43579W        W15839  14.620  27.908   4.059
43580W        W15840  18.702  40.375   4.630
43581W        W15841   5.332  18.475  12.030
43582W        W15842   1.438  27.119  14.589
43583W        W15843  26.690  38.039   3.196
43584W        W15844  18.483  41.972   0.783
43585W        W15845  26.990  44.267   3.170
43586W        W15846  11.695  33.598   1.284
43587W        W15847  27.207  14.646  13.560
43588W        W15848  43.477   7.452   1.449
43589W        W15849  20.623   2.927  10.887
43590W        W15850   4.706  19.065   0.058
43591W        W15851  16.969  28.043  13.357
43592W        W15852  34.658  42.493  11.170
43593W        W15853   1.392  20.757  12.240
43594W        W15854  24.811  31.638   3.350
43595W        W15855  26.232  10.618  14.273
43596W        W15856  38.380  26.915  10.626
43597W        W15857  10.942  16.464  14.721
43598W        W15858  13.625  18.349   3.853
43599W        W15859  23.159   7.416  13.997
43600W        W15860   0.174  32.035  12.580
43601W        W15861  39.955  39.061  13.363
43602W        W15862  17.752  24.235   3.958
43603W        W15863  18.314  15.087  12.779
43604W        W15864  24.564  27.020   4.897
43605W        W15865  31.740  16.534  11.582
43606W        W15866   3.190  38.027   3.791
43607W        W15867  20.509  20.280   1.315
43608W        W15868   6.804  19.736   2.328
43609W        W15869  10.268  32.732   3.328
43610W        W15870   1.827  13.619   1.860
43611W        W15871   4.738   6.618  10.724
43612W        W15872  19.817  14.064   2.767
43613W        W15873  43.342   4.850  11.069
43614W        W15874   0.439  38.328   1.430
43615W        W15875  12.332  12.228  10.644
43616W        W15876  34.024  14.164   2.953
43617W        W15877   5.250  18.961  13.397
43618W        W15878   2.944   8.402   3.622
43619W        W15879  10.629  43.434  13.490
43620W        W15880  11.615  39.420   0.368
43621W        W15881  13.526   7.473  14.835
43622W        W15882  41.572  12.505   1.592
43623W        W15883   8.781  28.090  14.234
43624W        W15884  40.253  25.666   0.857
43625W        W15885  19.526   5.767  14.245
43626W        W15886  30.141   2.417   0.348
43627W        W15887  44.803   8.436   0.348
43628W        W15888  31.642  40.086  12.620
43629W        W15889  24.504  40.579   4.602
43630W        W15890  12.485  36.870   1.713
43631W        W15891   2.761  13.328  14.260
43632W        W15892  12.130  15.164  10.840
43633W        W15893  25.473  20.339   1.753
43634W        W15894  26.489  33.782  13.296
43635W        W15895  28.057   3.159   1.300
43636W        W15896  33.376  15.650   2.230
43637W        W15897  28.141  28.559  12.440
43638W        W15898  28.714  13.203  14.348
43639W        W15899   6.103  17.157  14.026
43640W        W15900   9.746  23.040  11.434
43641W        W15901  25.712  41.455  11.046
43642W        W15902  29.893   4.877  12.918
43643W        W15903  42.272   1.355   2.604
43644W        W15904  44.837  10.846  14.941
43645W        W15905  17.758   5.865   2.130
43646W        W15906  17.069  41.654   3.508
43647W        W15907  22.935  11.075  11.250
43648W        W15908  42.877  32.193  14.928
43649W        W15909  34.849  15.999  10.641
43650W        W15910  39.499  37.031   0.695
43651W        W15911  31.136  36.468  12.430
43652W        W15912  40.833  16.186  10.720
43653W        W15913   5.231  34.085  11.537
43654W        W15914  17.675  15.344  12.066
43655W        W15915  32.944  43.285   3.228
43656W        W15916   0.986  17.279  10.655
43657W        W15917   1.423  40.082   4.558
43658W        W15918  20.546   4.833  14.271
43659W        W15919  36.067  26.229   1.275
43660W        W15920  32.851   7.487   0.354
43661W        W15921  16.332  12.208  10.759
43662W        W15922  19.562   6.138   0.432
43663W        W15923  34.166  11.048   4.297
43664W        W15924   0.828   0.236   3.196
43665W        W15925  33.831  43.578   2.837
43666W        W15926   7.959  11.360   3.623
43667W        W15927  20.480  15.057   2.789
43668W        W15928  41.582  19.122   2.153
43669W        W15929  23.890  10.299  13.988
43670W        W15930  11.913  40.450   1.384
43671W        W15931  12.610  21.327  14.640
43672W        W15932  40.217  20.466   3.082
43673W        W15933  20.893  44.202  12.431
43674W        W15934  18.242  43.498  13.820
43675W        W15935   8.834   6.772   0.616
43676W        W15936   4.237  34.644   3.281
43677W        W15937  43.974  38.929  13.376
43678W        W15938  42.069   6.865   0.500
43679W        W15939   3.944   7.967   4.125
43680W        W15940  25.168  34.908  14.835
43681W        W15941  27.466  17.628  14.796
43682W        W15942  42.855  33.950  14.453
43683W        W15943  42.795   8.317   0.388
43684W        W15944  27.024  23.521   2.116
43685W        W15945  32.589  34.604   2.224
43686W        W15946  27.504  22.949  11.977
43687W        W15947  26.057   6.232   4.284
43688W        W15948   5.800  21.225  12.562
43689W        W15949  42.424  34.414   0.285
43690W        W15950  37.609  43.704   1.388
43691W        W15951  30.400  34.861   3.826
43692W        W15952  21.112  19.149  13.785
43693W        W15953  35.925  30.420   3.839
43694W        W15954  43.468  30.116  13.077
43695W        W15955  29.237   6.521  14.454
43696W        W15956  24.086   9.889   4.982
43697W        W15957   5.386   4.899  13.437
43698W        W15958  15.273  29.613   3.386
43699W        W15959  13.772  25.571  13.998
43700W        W15960   3.240  44.432   0.348
43701W        W15961  35.185   0.065   0.414
43702W        W15962  34.589  33.029   2.302
43703W        W15963  35.159  19.290   2.748
43704W        W15964  25.417  24.006   3.307
43705W        W15965  14.056  25.985   0.108
43706W        W15966  28.124   7.467  13.751
43707W        W15967   0.511  40.426  11.040
43708W        W15968  15.951  18.943   5.024
43709W        W15969  11.849  36.078   5.010
43710W        W15970  29.040  19.770   3.255
43711W        W15971  44.779  31.626  13.780
43712W        W15972  14.574  38.531  12.364
43713W        W15973  30.866  32.762  13.032
43714W        W15974  32.080  14.182   1.251
43715W        W15975  33.687  22.392  11.189
43716W        W15976  36.349  37.397   1.681
43717W        W15977  10.782  35.008  12.151
43718W        W15978  14.162  26.590  12.942
43719W        W15979  35.604  41.294   3.682
43720W        W15980  24.255  34.632   1.713
43721W        W15981  17.649   1.755  13.995
43722W        W15982  28.745  11.082   3.179
43723W        W15983  31.579   4.407   0.264
43724W        W15984   6.605  18.649   3.916
43725W        W15985  43.257  37.837   0.554
43726W        W15986  25.743  29.586  12.526
43727W        W15987  37.065  23.066  12.952
43728W        W15988   2.383  20.782   3.433
43729W        W15989  39.147   9.582   4.190
43730W        W15990  44.962   6.344   4.216
43731W        W15991  12.155   8.761  13.763
43732W        W15992   2.538  15.371  11.102
43733W        W15993  29.106  35.927  12.109
43734W        W15994  11.568   2.578   0.289
43735W        W15995  27.590  38.813  13.803
43736W        W15996   2.472  19.599  12.964
43737W        W15997   6.369  29.025   1.419
43738W        W15998  11.456  40.548   2.700
43739W        W15999  26.722   1.262   1.556
43740W        W16000   8.230  29.065  10.388
43741W        W16001  15.043  10.903  12.461
43742W        W16002   3.921  16.543  11.707
43743W        W16003   4.679  39.330   0.611
43744W        W16004   7.672  30.149   2.205
43745W        W16005  17.914   6.196   3.319
43746W        W16006  17.000  26.379   4.990
43747W        W16007  37.475  35.970  14.097
43748W        W16008  34.132  40.069  13.290
43749W        W16009  43.493  34.701   5.098
43750W        W16010  11.761  31.849   1.230
43751W        W16011   8.099  39.131   3.712
43752W        W16012   1.315  11.614   3.939
43753W        W16013  40.641  38.065   0.436
43754W        W16014  43.785  26.112   4.694
43755W        W16015  43.178  20.041  12.081
43756W        W16016  12.262  33.868   4.245
43757W        W16017  33.576  44.462   2.960
43758W        W16018  27.058  18.559  10.521
43759W        W16019   1.816   1.205   4.667
43760W        W16020   4.038  13.788   1.684
43761W        W16021  10.252  43.515  12.493
43762W        W16022  15.578  32.025   4.473
43763W        W16023  15.243  39.987   1.719
43764W        W16024  30.917  21.746   0.187
43765W        W16025  37.595  41.091   1.174
43766W        W16026  30.467  37.843  13.409
43767W        W16027  24.217  25.397   0.896
43768W        W16028  31.887  38.272   2.364
43769W        W16029   7.203  19.303  11.649
43770W        W16030  20.788  42.951  13.786
43771W        W16031  20.674  40.914  13.397
43772W        W16032   4.112  32.437   1.208
43773W        W16033   7.379  32.600   4.175
43774W        W16034  31.311  38.349   5.130
43775W        W16035  40.822  43.038  11.611
43776W        W16036  20.709  34.125  10.698
43777W        W16037  24.357   8.359   0.279
43778W        W16038   2.970   3.834   3.673
43779W        W16039  40.286  29.954  12.871
43780W        W16040   2.682   7.716   1.265
43781W        W16041  22.772  21.772   4.087
43782W        W16042  13.213  27.555   1.868
43783W        W16043  23.546   7.225   1.768
43784W        W16044  16.315  39.382  14.319
43785W        W16045  37.500  32.479   3.863
43786W        W16046  44.315  21.104  11.897
43787W        W16047  17.289   0.642  11.988
43788W        W16048  29.929  29.711  11.617
43789W        W16049   2.026   1.807  11.912
43790W        W16050   5.260  16.308   4.183
43791W        W16051  29.635  10.333  12.055
43792W        W16052  43.994  33.090  13.434
43793W        W16053   0.384  31.169   1.328
43794W        W16054  28.727   0.952   0.270
43795W        W16055   6.839  32.464   0.691
43796W        W16056  16.059  26.195   4.744
43797W        W16057  17.110  42.417   3.130
43798W        W16058  11.195  32.505  14.732
43799W        W16059  27.485  16.249  11.444
43800W        W16060  40.348  35.565  14.074
43801W        W16061  28.363  38.653  11.638
43802W        W16062  24.770   9.302  12.104
43803W        W16063  38.987  33.361   4.493
43804W        W16064  34.945  21.545   3.742
43805W        W16065  20.602  30.479  13.321
43806W        W16066   2.245  24.297  11.085
43807W        W16067  28.388  34.478   3.626
43808W        W16068  35.545   6.817   2.231
43809W        W16069  24.247  36.011   4.726
43810W        W16070  35.471  37.856   1.932
43811W        W16071  36.150  19.623  13.122
43812W        W16072   6.523  18.769  14.780
43813W        W16073  13.289  12.780  12.243
43814W        W16074  17.270  42.541  11.928
43815W        W16075  22.500  20.938  12.566
43816W        W16076  19.521   1.414  11.601
43817W        W16077   0.687  13.405  14.382
43818W        W16078  35.960  13.895   2.105
43819W        W16079  10.510  44.447  10.651
43820W        W16080   5.135  27.027   2.765
43821W        W16081   6.116  15.824   0.837
43822W        W16082   5.734  35.369   4.564
43823W        W16083   2.890   2.669  12.085
43824W        W16084  31.741  41.956  12.538
43825W        W16085  24.405   5.566   2.254
43826W        W16086  24.525   8.339  12.493
43827W        W16087  28.403  28.572   3.614
43828W        W16088  16.367   3.261   1.495
43829W        W16089  44.968  42.911  14.830
43830W        W16090  14.368  17.577   9.988
43831W        W16091  42.727  10.451  13.513
43832W        W16092  27.985  41.695  14.648
43833W        W16093  39.077   2.908   4.687
43834W        W16094  33.547  30.147  13.493
43835W        W16095  19.481  13.807  12.542
43836W        W16096  26.337  37.812   3.522
43837W        W16097  22.577   5.044  14.773
43838W        W16098  32.521  44.373   3.783
43839W        W16099  22.107  28.854   5.146
43840W        W16100  36.329  18.555  14.238
43841W        W16101  37.474  43.389   4.050
43842W        W16102   7.947  27.667   3.231
43843W        W16103  28.365  13.598   3.070
43844W        W16104  27.676  28.074   4.586
43845W        W16105   9.830  19.317   4.522
43846W        W16106  43.324  36.081  13.977
43847W        W16107  21.156  10.502  14.101
43848W        W16108  11.690  17.255   3.324
43849W        W16109  13.204  38.301   4.120
43850W        W16110  32.148  41.288   2.227
43851W        W16111  15.299   7.954  11.102
43852W        W16112  37.465  26.989  14.873
43853W        W16113   4.365  34.961  12.654
43854W        W16114  33.877   8.408   2.306
43855W        W16115   6.295  29.963  10.867
43856W        W16116  25.322   3.457   4.718
43857W        W16117  11.708  22.637   3.632
43858W        W16118  22.130  17.146   1.171
43859W        W16119  44.110   7.019  11.669
43860W        W16120   3.364   0.499  10.778
43861W        W16121  24.950   7.392  14.502
43862W        W16122   7.377  19.530  10.722
43863W        W16123  30.093   1.258  10.786
43864W        W16124  32.374  38.917  11.195
43865W        W16125   1.359  27.386  12.944
43866W        W16126  20.542  33.651   3.801
43867W        W16127  33.520   3.916   3.685
43868W        W16128  13.202  31.071   2.397
43869W        W16129  19.979  34.079  11.214
43870W        W16130  25.316  13.123   0.786
43871W        W16131   6.778  33.919   2.231
43872W        W16132   8.343   0.730   0.087
43873W        W16133   2.542  33.181   2.106
43874W        W16134  27.894  18.229  13.594
43875W        W16135  10.423  14.838   0.357
43876W        W16136  12.526  43.778  14.916
43877W        W16137  41.294  17.101   1.715
43878W        W16138  22.237  12.100   4.163
43879W        W16139  39.086   0.620   0.238
43880W        W16140   7.918   0.841  14.809
43881W        W16141   6.916   6.737  14.483
43882W        W16142  44.402  37.547  12.485
43883W        W16143   6.383  30.356   3.815
43884W        W16144   8.280  21.745  13.354
43885W        W16145  25.749  12.188   1.893
43886W        W16146   7.645  18.681  10.449
43887W        W16147  30.720  10.562  12.364
43888W        W16148   6.148  16.393  14.475
43889W        W16149  30.850  10.822   2.656
43890W        W16150   7.682  12.194  12.882
43891W        W16151  14.880   0.333  12.505
43892W        W16152  41.239  25.334  12.583
43893W        W16153  18.145  19.231   3.523
43894W        W16154  21.570  39.642  14.004
43895W        W16155  26.474  31.322  12.389
43896W        W16156  27.457  32.913   2.310
43897W        W16157   0.807   7.995   0.457
43898W        W16158  21.074   1.785   1.199
43899W        W16159   3.018  40.008  13.335
43900W        W16160  35.307  40.536   3.214
43901W        W16161  33.325  35.951  13.867
43902W        W16162  32.723   6.294  10.695
43903W        W16163  43.907  21.053   4.574
43904W        W16164  10.272   7.894   2.519
43905W        W16165  29.577  21.474   4.750
43906W        W16166  28.707  22.183  13.997
43907W        W16167  24.983  20.753  14.514
43908W        W16168  34.395  19.522   2.295
43909W        W16169   3.359   0.379   0.226
43910W        W16170  10.540  19.095  13.995
43911W        W16171  41.232   0.983  10.925
43912W        W16172  14.116  28.054   3.184
43913W        W16173  14.174  33.028   2.306
43914W        W16174  28.084  10.102   0.740
43915W        W16175  31.927  11.850  13.510
43916W        W16176  41.977  22.396   3.303
43917W        W16177  26.110  24.245   0.657
43918W        W16178  25.237  23.200  11.474
43919W        W16179   8.778   6.447   3.269
43920W        W16180  29.634  35.952   1.538
43921W        W16181   7.714  41.579  14.034
43922W        W16182   7.397  41.259  14.925
43923W        W16183  18.755  44.864   1.409
43924W        W16184  40.033  24.039   3.399
43925W        W16185   0.936  22.617   2.302
43926W        W16186   5.805  33.885  13.906
43927W        W16187  16.552  19.596  11.678
43928W        W16188  43.663   7.858  14.414
43929W        W16189  30.047  36.374  13.961
43930W        W16190  38.586  29.539  11.098
43931W        W16191   9.390  41.456   2.221
43932W        W16192   1.252  44.772   1.715
43933W        W16193  10.099  11.286   3.247
43934W        W16194  30.681  27.571  12.662
43935W        W16195  16.108  42.063  12.400
43936W        W16196  40.072   6.013  12.495
43937W        W16197  29.739  40.966   0.253
43938W        W16198  39.504  31.801  14.727
43939W        W16199  33.046  36.119  10.448
43940W        W16200  23.226  37.483   0.392
43941W        W16201  16.581  19.956  12.119
43942W        W16202  13.432   7.116  10.264
43943W        W16203  40.518  40.383  14.935
43944W        W16204  35.810   2.308  11.120
43945W        W16205  27.473  23.359   4.612
43946W        W16206  11.207  25.007   4.068
43947W        W16207  38.136  10.716   4.702
43948W        W16208  21.531  22.029  10.976
43949W        W16209  25.408  19.969   0.359
43950W        W16210  14.323   0.135  13.053
43951W        W16211  12.846  37.899  14.789
43952W        W16212  14.910  20.969  12.613
43953W        W16213  37.308   9.923   2.412
43954W        W16214  10.114   1.911  11.505
43955W        W16215  12.172  14.123  12.144
43956W        W16216   0.801  23.365  10.692
43957W        W16217  38.078  15.300   2.835
43958W        W16218  19.116  36.513   3.285
43959W        W16219  31.521  28.510   3.652
43960W        W16220  32.172  35.548  12.504
43961W        W16221  33.813  20.154  14.137
43962W        W16222  44.272   5.826   3.223
43963W        W16223  23.203  10.144  11.227
43964W        W16224  43.344   1.996   3.161
43965W        W16225   8.101  41.845   4.288
43966W        W16226  23.337  38.329   1.353
43967W        W16227   4.932  29.517  13.797
43968W        W16228  43.644  44.887  11.401
43969W        W16229  40.949  41.726   4.449
43970W        W16230  28.228   5.351   4.245
43971W        W16231  28.706  37.787   0.962
43972W        W16232  13.725   8.683  14.887
43973W        W16233  29.225  14.588   4.188
43974W        W16234   6.857  19.452   0.925
43975W        W16235  44.936  25.110  10.716
43976W        W16236   5.717  32.871  11.223
43977W        W16237   7.294  18.773  13.436
43978W        W16238   2.458  39.567   2.777
43979W        W16239  24.124  27.023  13.404
43980W        W16240  29.103  44.403  13.796
43981W        W16241  30.985  30.842   2.200
43982W        W16242  38.820  23.881  11.126
43983W        W16243  44.633  40.649   5.219
43984W        W16244   8.441  39.113  12.031
43985W        W16245   9.680  41.550   0.391
43986W        W16246  31.578  38.377   0.231
43987W        W16247   0.010  14.850  13.120
43988W        W16248   8.883  21.398  13.184
43989W        W16249  32.953  32.582  10.547
43990W        W16250  30.113  26.024  12.472
43991W        W16251  19.036   9.311  13.321
43992W        W16252  35.048  10.066  13.821
43993W        W16253   1.382  44.182  14.742
43994W        W16254  12.389  17.254  13.590
43995W        W16255  37.862   2.202  13.132
43996W        W16256  32.544  44.447   4.824
43997W        W16257  42.728  40.845  11.188
43998W        W16258   7.398  37.894  10.654
43999W        W16259   3.481   1.891  12.331
44000W        W16260   1.984  42.700  12.918
44001W        W16261  27.048  25.291   1.844
44002W        W16262  27.665  31.521   2.238
44003W        W16263  27.644   6.437   0.183
44004W        W16264  14.557   8.669  10.069
44005W        W16265  40.721   3.747   0.725
44006W        W16266  42.053   6.202   3.587
44007W        W16267  12.173  14.120   0.551
44008W        W16268  25.889   9.661   3.915
44009W        W16269  13.382  19.366  11.258
44010W        W16270  34.091  40.278   1.680
44011W        W16271  33.904   1.578   1.215
44012W        W16272  13.289  16.910  14.320
44013W        W16273  38.622   1.500   1.465
44014W        W16274  14.779   0.821  12.610
44015W        W16275  29.973   1.724   1.169
44016W        W16276   4.069  35.442   3.060
44017W        W16277   5.698  26.064   5.186
44018W        W16278  26.174  16.805  10.566
44019W        W16279   1.257   4.601   1.054
44020W        W16280  26.284  27.967   4.144
44021W        W16281  38.841   4.659  13.450
44022W        W16282  24.034   9.780   1.594
44023W        W16283   8.592  14.153  14.055
44024W        W16284  19.530  33.983   1.201
44025W        W16285   6.344  24.697   3.929
44026W        W16286  44.860  40.286   0.469
44027W        W16287  27.285  26.614   3.740
44028W        W16288  23.243  22.767  14.686
44029W        W16289  17.831  23.703  13.981
44030W        W16290  36.295  19.708   3.727
44031W        W16291  22.093  43.152   2.378
44032W        W16292  36.014  18.850   1.898
44033W        W16293  42.921  11.590   1.932
44034W        W16294  36.745  30.727  11.003
44035W        W16295  19.328  42.307   0.243
44036W        W16296  16.352  10.824  11.071
44037W        W16297  43.275  30.600  13.119
44038W        W16298   1.868  16.685   2.765
44039W        W16299  21.216  35.586  13.939
44040W        W16300  24.392  25.163   0.356
44041W        W16301  41.811  13.326   3.668
44042W        W16302  12.162   6.270  13.540
44043W        W16303  18.049  39.582  12.720
44044W        W16304  41.833  43.513  12.336
44045W        W16305  31.143  23.976   3.151
44046W        W16306  32.365  31.557   4.576
44047W        W16307   3.355  27.205  12.949
44048W        W16308   7.418  27.606   3.289
44049W        W16309  17.540   0.695   4.325
44050W        W16310  17.674  36.624   1.879
44051W        W16311  40.304  26.934   3.588
44052W        W16312  27.755  37.439   2.803
44053W        W16313  38.949  23.098  12.628
44054W        W16314   4.937  21.581   4.820
44055W        W16315  41.807  10.586  14.049
44056W        W16316  38.251  38.767   4.303
44057W        W16317  28.621  18.758  13.025
44058W        W16318  25.218  25.517  13.121
44059W        W16319  21.651  28.661   4.549
44060W        W16320   1.280  26.878  12.761
44061W        W16321   4.405  35.652   1.024
44062W        W16322   9.344   5.853   3.927
44063W        W16323  33.593  14.638  12.900
44064W        W16324  24.149  19.535  14.528
44065W        W16325  24.992  34.947   2.399
44066W        W16326  12.166  36.616  13.858
44067W        W16327  44.782  24.421   0.233
44068W        W16328  23.222  20.528  12.933
44069W        W16329  41.434  29.524   1.354
44070W        W16330  36.796  32.778   4.235
44071W        W16331  36.817   9.946  14.350
44072W        W16332  31.681   9.220   4.610
44073W        W16333  23.834   6.757  12.064
44074W        W16334  33.469  37.483   1.783
44075W        W16335  38.377   2.975   3.980
44076W        W16336  33.628  21.614  10.631
44077W        W16337  44.939   8.630  13.983
44078W        W16338   3.788  29.890   2.325
44079W        W16339  15.618  24.661  13.803
44080W        W16340  37.921  13.437   2.773
44081W        W16341  41.389   0.733  11.341
44082W        W16342  30.240  38.389   1.468
44083W        W16343  16.289  25.648  13.625
44084W        W16344   1.963  39.417   0.996
44085W        W16345  27.458  38.921   0.250
44086W        W16346  13.755  10.244   1.295
44087W        W16347  20.371  18.564  11.850
44088W        W16348  14.038  30.910   4.605
44089W        W16349  17.140  44.096   0.351
44090W        W16350  23.538  29.590  11.071
44091W        W16351   5.187  19.240  11.658
44092W        W16352  23.621  36.259  13.043
44093W        W16353  16.999  36.132  13.020
44094W        W16354  14.820  25.051  13.367
44095W        W16355  27.818  34.002   1.310
44096W        W16356   5.245  24.516  12.435
44097W        W16357  18.583  18.258   2.739
44098W        W16358  11.850  31.589   0.799
44099W        W16359  27.031  18.675   4.677
44100W        W16360  12.398  14.203  13.498
44101W        W16361  17.544  36.941  13.978
44102W        W16362   6.995  40.270  14.770
44103W        W16363  36.125   5.434  14.606
44104W        W16364  32.294  21.671   0.934
44105W        W16365  35.504  40.759   1.748
44106W        W16366  42.348  26.479  14.847
44107W        W16367  17.293  14.434   2.824
44108W        W16368  10.273  25.399  13.801
44109W        W16369   1.802  13.661  13.406
44110W        W16370   8.426   4.247  10.732
44111W        W16371  19.279  34.063   3.647
44112W        W16372  39.932  14.670   1.355
44113W        W16373   0.386   2.810   2.929
44114W        W16374  36.081  40.462   4.561
44115W        W16375  30.931  21.707  10.901
44116W        W16376  14.213   7.079   2.713
44117W        W16377  16.800   6.964   0.917
44118W        W16378  32.028   3.220   0.680
44119W        W16379  41.336   8.716   0.714
44120W        W16380  13.774   7.405  11.493
44121W        W16381  35.188  19.158  12.877
44122W        W16382   1.504  13.639   0.576
44123W        W16383  29.210  43.007  14.116
44124W        W16384  17.196   3.451  11.152
44125W        W16385  12.385  13.888   3.917
44126W        W16386  43.442  41.321   2.087
44127W        W16387  29.120  11.093  12.251
44128W        W16388  25.598  11.973   1.447
44129W        W16389  31.538   7.895   4.155
44130W        W16390  34.998   3.376   4.682
44131W        W16391  29.893  33.166  13.865
44132W        W16392  24.780  41.246   3.229
44133W        W16393  28.551  20.271   3.875
44134W        W16394  28.109  29.288  14.023
44135W        W16395  42.118  30.486  11.942
44136W        W16396  31.529  21.289   1.849
44137W        W16397  41.254   7.139  10.752
44138W        W16398   6.001  13.660  12.900
44139W        W16399  16.523  17.086   0.558
44140W        W16400  22.286  13.817  11.614
44141W        W16401  13.309  34.140   3.214
44142W        W16402   9.839  23.878  10.883
44143W        W16403  20.052  20.779   0.875
44144W        W16404  30.341  37.923  11.159
44145W        W16405  14.984  20.189  14.978
44146W        W16406  12.661  16.534   5.170
44147W        W16407   3.520  10.639  11.114
44148W        W16408  38.798  39.667   4.513
44149W        W16409  36.942  43.287   2.772
44150W        W16410  42.800  23.206  14.797
44151W        W16411   4.369  24.594   0.039
44152W        W16412  15.849  40.871   1.726
44153W        W16413  30.169  36.124  11.073
44154W        W16414  38.624  36.364   2.392
44155W        W16415  25.957  30.490  12.461
44156W        W16416  35.672  19.864   0.639
44157W        W16417  28.994  23.174  11.246
44158W        W16418   0.753   2.830   2.586
44159W        W16419   1.463  34.582  12.373
44160W        W16420  40.418   5.607  11.642
44161W        W16421  33.964  19.541   4.265
44162W        W16422  21.508  13.792  11.140
44163W        W16423  29.051  26.602   1.029
44164W        W16424   3.328  23.771   1.158
44165W        W16425  31.690   2.004  14.223
44166W        W16426  29.581  42.206   1.831
44167W        W16427  24.940  12.139   3.753
44168W        W16428  18.154  40.577  12.094
44169W        W16429   8.706  11.286  10.725
44170W        W16430  32.934  11.605   3.825
44171W        W16431  28.140   3.220  11.933
44172W        W16432  38.854   6.027   1.224
44173W        W16433  23.982   6.233  12.995
44174W        W16434   2.529  23.579  14.515
44175W        W16435  22.676  27.562  13.912
44176W        W16436  16.160  18.984  10.693
44177W        W16437  26.665  11.778   3.546
44178W        W16438  24.453  40.546  11.940
44179W        W16439  26.515  25.636  10.691
44180W        W16440  14.831  27.707   2.458
44181W        W16441  44.216  39.137  14.039
44182W        W16442  41.290  39.827   2.882
44183W        W16443   8.956  20.809   3.288
44184W        W16444   5.767   7.719   1.200
44185W        W16445   2.249  40.805   0.701
44186W        W16446  29.415  42.876  13.102
44187W        W16447  20.797  21.892  14.381
44188W        W16448  39.374  29.009   0.499
44189W        W16449  43.959  30.952  12.803
44190W        W16450  27.380  14.646   3.651
44191W        W16451  21.237  42.783  14.888
44192W        W16452  21.944  41.455   1.339
44193W        W16453  34.912   2.078  10.058
44194W        W16454  20.015   5.868  14.473
44195W        W16455  33.472  34.929   4.601
44196W        W16456  37.713   7.891   3.653
44197W        W16457  13.042  26.803   5.331
44198W        W16458  16.532  20.211  13.990
44199W        W16459  42.024  24.029   1.870
44200W        W16460  42.105  21.338  13.538
44201W        W16461  37.968  22.252   0.978
44202W        W16462  16.867  13.582   1.893
44203W        W16463  26.071  16.274  13.576
44204W        W16464   9.415  27.268  14.950
44205W        W16465  38.882  36.836  11.099
44206W        W16466  42.040   1.441  12.580
44207W        W16467  25.075   8.357   0.971
44208W        W16468  24.786  16.782   4.111
44209W        W16469  16.614  14.007  11.394
44210W        W16470   8.483   2.155  11.619
44211W        W16471  29.162  34.644   3.249
44212W        W16472   9.861  42.782  13.368
44213W        W16473  25.187  30.533   4.581
44214W        W16474  13.648  27.929   1.862
44215W        W16475  30.990   8.286   4.234
44216W        W16476  20.393  42.977   4.709
44217W        W16477   3.470  17.379   0.011
44218W        W16478   3.192  35.039   2.774
44219W        W16479  33.183  42.979  11.227
44220W        W16480  23.433   9.842  14.832
44221W        W16481  44.393  26.483  14.908
44222W        W16482  44.524  20.455  12.966
44223W        W16483  43.150  28.912   5.350
44224W        W16484  15.649  37.160  11.030
44225W        W16485  34.898   1.316   3.116
44226W        W16486   0.243  26.987   0.951
44227W        W16487  12.173  18.605   3.741
44228W        W16488  42.379  14.363  14.978
44229W        W16489  15.326  30.863  11.469
44230W        W16490  40.059  24.487  14.002
44231W        W16491  37.007   3.453  12.617
44232W        W16492  20.028  11.801  12.867
44233W        W16493  34.659  21.078   3.813
44234W        W16494  43.359  17.075   3.810
44235W        W16495  12.861  23.079  13.968
44236W        W16496   5.670  20.613  12.494
44237W        W16497  24.807  20.277  14.500
44238W        W16498  30.103   3.259  13.040
44239W        W16499   4.942   4.152   3.619
44240W        W16500  23.904  22.926   0.269
44241W        W16501  29.346  42.317  12.608
44242W        W16502  36.957  14.250  13.979
44243W        W16503  19.107  26.028   1.832
44244W        W16504  16.508  14.066   0.784
44245W        W16505  33.612  19.097  12.487
44246W        W16506  43.862  40.007   1.291
44247W        W16507  20.722  14.091   4.165
44248W        W16508   5.909  11.511  11.139
44249W        W16509  27.635  43.767   3.737
44250W        W16510  27.933  41.634  10.263
44251W        W16511   5.329  11.260  12.342
44252W        W16512   6.354   4.441  12.587
44253W        W16513  20.346  44.383   0.945
44254W        W16514   7.365   0.562  13.530
44255W        W16515   3.410  44.181  14.357
44256W        W16516   8.504  23.116  11.157
44257W        W16517  30.390   4.822   4.419
44258W        W16518   4.406   6.173   4.798
44259W        W16519  11.667  26.719  14.304
44260W        W16520  33.514  10.090  13.513
44261W        W16521   6.674  25.071   4.205
44262W        W16522   4.814  24.002  14.807
44263W        W16523  42.009   0.937   2.463
44264W        W16524  24.600   6.770  14.348
44265W        W16525  31.137  29.135   1.395
44266W        W16526  14.212   2.021   2.268
44267W        W16527  23.782  10.857   1.351
44268W        W16528  13.643  16.802  10.879
44269W        W16529  17.522  22.197  14.891
44270W        W16530  23.426  18.140   2.191
44271W        W16531  43.817  34.721  12.734
44272W        W16532  10.512   1.657   3.204
44273W        W16533  32.013  40.060  10.695
44274W        W16534  10.682  18.647   1.746
44275W        W16535  26.128  32.525  12.488
44276W        W16536  23.540  25.088   4.885
44277W        W16537  32.040  30.839   4.964
44278W        W16538  27.599  30.347  13.372
44279W        W16539  31.843   5.672  13.535
44280W        W16540  38.736  34.582  13.927
44281W        W16541  16.756  33.988  10.990
44282W        W16542  31.109  35.076   2.364
44283W        W16543  14.648  32.138  10.852
44284W        W16544  43.377   7.379  14.334
44285W        W16545   4.332   0.743   0.480
44286W        W16546  37.086  31.107   0.796
44287W        W16547  33.098   5.473   2.104
44288W        W16548  26.537  39.884   4.517
44289W        W16549  13.102  11.327  12.458
44290W        W16550  17.201  15.846   0.039
44291W        W16551  27.138  27.534  11.455
44292W        W16552  33.027  10.771   3.249
44293W        W16553  44.599  18.750   2.475
44294W        W16554   2.753  22.920  13.611
44295W        W16555   3.510  32.471  14.798
44296W        W16556  20.548  10.714  14.073
44297W        W16557  16.633  20.770   0.304
44298W        W16558  18.956   5.388   3.437
44299W        W16559  40.319  14.743   2.778
44300W        W16560  11.608   0.741   3.609
44301W        W16561  11.887  32.439   2.329
44302W        W16562  20.981  17.921   1.511
44303W        W16563   4.338  36.285   3.187
44304W        W16564  24.236  33.739   3.562
44305W        W16565  43.047   1.433   3.747
44306W        W16566  26.246  13.172  10.997
44307W        W16567  43.434  12.241   3.128
44308W        W16568  26.595  36.895  13.612
44309W        W16569   6.749  15.336   2.920
44310W        W16570  43.986  12.637   3.627
44311W        W16571  24.062  35.536   4.825
44312W        W16572  10.709  35.399  12.962
44313W        W16573  32.157  10.914  12.656
44314W        W16574  13.932  24.093   0.295
44315W        W16575  36.824  33.674  13.134
44316W        W16576  19.561  15.625   4.405
44317W        W16577  12.342  39.527  14.608
44318W        W16578   5.637  37.041   0.097
44319W        W16579  44.236  13.242   3.723
44320W        W16580   4.417  32.538  14.239
44321W        W16581  27.116  39.098  11.551
44322W        W16582  37.831  41.579  13.454
44323W        W16583   3.285  44.063   3.202
44324W        W16584  44.731  33.013  14.367
44325W        W16585  34.815   8.233  13.277
44326W        W16586  12.240  37.328   1.764
44327W        W16587  15.760  34.861  12.047
44328W        W16588  42.865  24.308  14.836
44329W        W16589  21.928  34.871  11.626
44330W        W16590  39.050  25.484  12.997
44331W        W16591  20.962  35.674  14.398
44332W        W16592  19.795  31.466   2.218
44333W        W16593  29.945  23.522   3.927
44334W        W16594  19.262  29.393  11.201
44335W        W16595  36.418   2.926  10.803
44336W        W16596  16.825  15.061   0.755
44337W        W16597  38.882  25.580  14.556
44338W        W16598  13.271  19.834  13.092
44339W        W16599  43.946   6.291   4.356
44340W        W16600  10.971   6.907   1.281
44341W        W16601  44.477  40.517  11.782
44342W        W16602   5.802   8.319   2.820
44343W        W16603  35.373  32.513  13.994
44344W        W16604  44.575  38.170  13.957
44345W        W16605   0.003  37.368   1.989
44346W        W16606   8.812   0.228   0.368
44347W        W16607  25.294  27.613  13.397
44348W        W16608  29.431  19.195  12.557
44349W        W16609  44.516  22.342  14.444
44350W        W16610  35.891  27.746  11.615
44351W        W16611  21.018   6.113   2.765
44352W        W16612  29.396   0.949   1.440
44353W        W16613  22.961  10.117  13.470
44354W        W16614  20.627  15.143  11.160
44355W        W16615  33.870  27.226   2.344
44356W        W16616   8.734  30.058  14.865
44357W        W16617   0.832  34.158   3.678
44358W        W16618   9.583  12.691   2.663
44359W        W16619  26.644   9.976   2.204
44360W        W16620  37.852  19.922   1.396
44361W        W16621  11.072  22.319   4.135
44362W        W16622  40.495  30.163   2.442
44363W        W16623  29.174  24.035  14.407
44364W        W16624   3.902  36.900   1.030
44365W        W16625  26.524   2.891   3.436
44366W        W16626  36.522  38.775   3.584
44367W        W16627  24.323   4.689   1.281
44368W        W16628   6.198  42.810  13.338
44369W        W16629  42.466  22.058  13.524
44370W        W16630  38.986  29.992   3.268
44371W        W16631  29.948   8.494  14.871
44372W        W16632   7.281  33.306   1.013
44373W        W16633  23.997   0.804   2.567
44374W        W16634  16.619  11.403   1.288
44375W        W16635  34.420  38.739  13.116
44376W        W16636  29.902  14.720   1.862
44377W        W16637  39.981  39.408   3.283
44378W        W16638  16.063  33.834   2.494
44379W        W16639  36.814   7.432  12.173
44380W        W16640  27.652   3.048   4.515
44381W        W16641  20.119  27.992  12.640
44382W        W16642  20.667   0.391  11.571
44383W        W16643   3.627  37.064  14.029
44384W        W16644  20.584  19.513   3.561
44385W        W16645   7.651  16.697   0.252
44386W        W16646  29.104  43.527  11.475
44387W        W16647  42.745  11.304   3.256
44388W        W16648  30.974  24.230  14.915
44389W        W16649  16.806  17.151   2.329
44390W        W16650  16.248  23.213   3.662
44391W        W16651  36.433  41.432   1.924
44392W        W16652  44.650  29.883  11.939
44393W        W16653  37.544  22.588   3.371
44394W        W16654  29.008   1.785   1.938
44395W        W16655   6.234  10.676   3.649
44396W        W16656  34.861  30.534   1.716
44397W        W16657  42.630   8.361   3.954
44398W        W16658  19.939  13.690  13.575
44399W        W16659  40.888  41.057  13.517
44400W        W16660   5.172  24.557   2.298
44401W        W16661  29.392   0.749  11.972
44402W        W16662  35.607  13.701   0.574
44403W        W16663  38.418  10.757   0.050
44404W        W16664  32.928  36.126  11.612
44405W        W16665   3.658  28.439   2.275
44406W        W16666   0.551  30.091   4.865
44407W        W16667   2.435  34.745  13.490
44408W        W16668  16.771  12.532  14.843
44409W        W16669  44.102  12.430  12.628
44410W        W16670  20.221  35.534  12.144
44411W        W16671  12.837  15.687   0.935
44412W        W16672  40.113  16.247   4.576
44413W        W16673  35.798  15.102  12.943
44414W        W16674  31.925  33.545  14.736
44415W        W16675   1.376  13.670  13.085
44416W        W16676  42.512   5.896   1.337
44417W        W16677  29.686  32.608  10.263
44418W        W16678  43.746  43.723  13.912
44419W        W16679  30.639  11.520  13.157
44420W        W16680  13.701  35.581   1.296
44421W        W16681  24.583  14.312  13.344
44422W        W16682  29.331   2.896  12.919
44423W        W16683   4.976   7.481   4.671
44424W        W16684  19.007  33.843  11.451
44425W        W16685  28.191  37.771  13.342
44426W        W16686  22.628  27.989  11.156
44427W        W16687  41.991  29.905   0.161
44428W        W16688   0.888  38.981  12.701
44429W        W16689  28.997  24.097  10.647
44430W        W16690  39.268   5.680   0.047
44431W        W16691  34.987  23.705   4.421
44432W        W16692   3.506  21.237   1.845
44433W        W16693  24.609  26.569   4.616
44434W        W16694  32.967  43.388  13.078
44435W        W16695   1.889   4.175  13.908
44436W        W16696  20.791   3.766   3.573
44437W        W16697   9.791  10.359   0.925
44438W        W16698  26.920   9.317   1.379
44439W        W16699  32.977  25.436  13.894
44440W        W16700  41.664   4.969  14.692
44441W        W16701  28.418  19.364   0.881
44442W        W16702  15.225   9.872   1.285
44443W        W16703  26.569   4.544  11.358
44444W        W16704  30.679   3.954  13.416
44445W        W16705   5.722  23.856  11.995
44446W        W16706   4.295  22.553  10.914
44447W        W16707  35.071  40.378  10.189
44448W        W16708  36.649  12.866  12.157
44449W        W16709  44.795   3.697   0.921
44450W        W16710   9.578  17.653  10.999
44451W        W16711  31.853   8.858  13.822
44452W        W16712  36.493   2.397   4.242
44453W        W16713  43.010  28.654  12.919
44454W        W16714  25.351  13.338  14.877
44455W        W16715  36.531  18.697   5.100
44456W        W16716  27.738  25.621  12.963
44457W        W16717  22.250  31.456  10.610
44458W        W16718  16.304   4.150   4.476
44459W        W16719   6.464  20.631  12.052
44460W        W16720   2.270  44.489   0.294
44461W        W16721   0.737  20.408  11.137
44462W        W16722   1.049  16.142   1.825
44463W        W16723   0.504   2.663  13.909
44464W        W16724  11.864  39.903  14.191
44465W        W16725  25.674  18.019  14.358
44466W        W16726   0.791  14.799  11.932
44467W        W16727  40.066  22.948   3.995
44468W        W16728  26.431  43.486  13.476
44469W        W16729  36.024  16.395   5.006
44470W        W16730  29.621   2.794   4.158
44471W        W16731   6.919  39.749   1.958
44472W        W16732  15.507  34.950  11.420
44473W        W16733  25.324   6.182   3.223
44474W        W16734  43.055   9.963   2.711
44475W        W16735  19.828   8.340   5.881
44476W        W16736  24.434  21.162  11.601
44477W        W16737  29.644   2.236  14.466
44478W        W16738  25.467  40.007  11.566
44479W        W16739  16.437  42.272   2.149
44480W        W16740  37.422  23.780   3.101
44481W        W16741   9.725  22.067   3.542
44482W        W16742  12.825  36.044  13.492
44483W        W16743  30.547  27.986  10.601
44484W        W16744  21.476  43.802  12.121
44485W        W16745  13.146  21.268   9.832
44486W        W16746   6.513  11.355  11.138
44487W        W16747  21.734  40.296  10.686
44488W        W16748  29.007  31.944   4.151
44489W        W16749  30.582   7.497   2.662
44490W        W16750  15.805  11.399   0.968
44491W        W16751   6.581   6.840  11.073
44492W        W16752  17.266  10.910   1.009
44493W        W16753   5.706  22.583  13.325
44494W        W16754  40.293   2.715   1.675
44495W        W16755  31.010  41.433  11.696
44496W        W16756  24.240  26.152  10.263
44497W        W16757  19.279  11.859  14.950
44498W        W16758   3.679  38.200  12.500
44499W        W16759  32.426  12.061   1.681
44500W        W16760  42.252  40.778  12.959
44501W        W16761   0.434  19.730   4.423
44502W        W16762   9.282  14.460  14.568
44503W        W16763  20.268  44.012  14.117
44504W        W16764  18.657  21.037   0.859
44505W        W16765  11.924  39.339   3.781
44506W        W16766  30.672   3.498   0.773
44507W        W16767   1.360  40.826  14.481
44508W        W16768  41.323  40.912  13.084
44509W        W16769  26.707  41.123   0.875
44510W        W16770  40.279  26.700  14.063
44511W        W16771   4.374   4.689   2.722
44512W        W16772   8.722  21.067  11.230
44513W        W16773  39.666  33.049  13.425
44514W        W16774  40.400  27.790   1.206
44515W        W16775  11.175  36.557  12.607
44516W        W16776   8.159  24.785   4.480
44517W        W16777  17.753  13.975  11.148
44518W        W16778  21.362  17.565  12.087
44519W        W16779   1.141  16.297  11.519
44520W        W16780  16.280  37.009  10.850
44521W        W16781  41.517  33.482  13.810
44522W        W16782   2.429  44.314  12.757
44523W        W16783  24.455   1.264   0.457
44524W        W16784  27.076  26.008  11.718
44525W        W16785  35.306  21.957  13.707
44526W        W16786  30.346  24.740   4.135
44527W        W16787  37.558  32.511  14.120
44528W        W16788   4.011  14.581  12.577
44529W        W16789  22.770  30.686  14.324
44530W        W16790  24.132  34.526   3.019
44531W        W16791  14.539  20.187   1.277
44532W        W16792   0.466   9.460   3.701
44533W        W16793   8.377   9.239  14.105
44534W        W16794  34.151  34.385  10.705
44535W        W16795  41.502  36.290   3.327
44536W        W16796  17.222   0.899   0.492
44537W        W16797  25.164  15.542   0.374
44538W        W16798  43.058  23.251  13.275
44539W        W16799  29.658  34.496  14.906
44540W        W16800  42.249  24.492  13.063
44541W        W16801   4.733  32.168  12.579
44542W        W16802  21.229   0.243  14.942
44543W        W16803  19.632  36.350   3.165
44544W        W16804  37.140   7.764   1.222
44545W        W16805  32.694  21.179   3.319
44546W        W16806  41.571  21.229  11.976
44547W        W16807   0.278  13.682  14.447
44548W        W16808  28.238   7.158  13.328
44549W        W16809  36.984  44.486  13.757
44550W        W16810  43.459  42.741   4.247
44551W        W16811  31.896  20.285   0.415
44552W        W16812  25.482  44.463   3.370
44553W        W16813  31.930  10.307   5.052
44554W        W16814  34.835  44.828   2.332
44555W        W16815  10.278  11.894   3.751
44556W        W16816  28.976  41.400   2.682
44557W        W16817  38.948  32.930   2.957
44558W        W16818  39.764   5.631   3.279
44559W        W16819  39.345  30.637   4.619
44560W        W16820  12.153  16.188  12.992
44561W        W16821  11.869  29.889   1.162
44562W        W16822  14.244  38.246  13.112
44563W        W16823  43.171   9.637   3.314
44564W        W16824  21.010  24.238   2.512
44565W        W16825  21.704  22.293  14.544
44566W        W16826  21.699   8.348   4.132
44567W        W16827   3.437  24.050   2.077
44568W        W16828  20.760   6.177  12.958
44569W        W16829   2.006  33.023   3.055
44570W        W16830   9.876  35.665   1.648
44571W        W16831  38.455  40.393   2.658
44572W        W16832  39.783  15.933   1.166
44573W        W16833   8.472   3.592  13.925
44574W        W16834  28.391   1.404   4.268
44575W        W16835  27.942  23.987   4.269
44576W        W16836   8.793  31.619  10.586
44577W        W16837   2.423   0.812  13.504
44578W        W16838  17.523  31.037  14.390
44579W        W16839  17.387  14.355  11.148
44580W        W16840  29.997  29.524   0.978
44581W        W16841  41.072  34.504  10.511
44582W        W16842   7.208  31.356   0.849
44583W        W16843   7.858  22.648  10.701
44584W        W16844  25.732   7.936   4.152
44585W        W16845   4.506   8.918  12.125
44586W        W16846  25.590  36.691  12.886
44587W        W16847  29.726  32.892  11.950
44588W        W16848  23.084   2.607   2.119
44589W        W16849   8.127   2.936  10.771
44590W        W16850  19.608  18.292   2.914
44591W        W16851   9.653  16.583   0.414
44592W        W16852  16.017   8.254   1.466
44593W        W16853   8.496  19.764  10.733
44594W        W16854  38.342  44.502  13.123
44595W        W16855  38.330  30.557  11.347
44596W        W16856  15.250  25.675   0.713
44597W        W16857  14.383  11.780   4.259
44598W        W16858  31.138  34.082   0.869
44599W        W16859  42.363  33.386   0.421
44600W        W16860   1.193  21.747  13.376
44601W        W16861   8.330  13.288   4.580
44602W        W16862  11.862   0.760  14.814
44603W        W16863   0.411  21.761  11.151
44604W        W16864  27.916  36.831   4.532
44605W        W16865  30.640  30.321   5.137
44606W        W16866  28.393  13.624   0.368
44607W        W16867  22.786  19.039  12.949
44608W        W16868  26.275  12.211  14.879
44609W        W16869  40.571  28.406  14.875
44610W        W16870  44.531  17.533  14.966
44611W        W16871   9.932  17.259  13.770
44612W        W16872   8.770   5.136  10.753
44613W        W16873   5.014  34.866   0.716
44614W        W16874   8.771  34.034  14.858
44615W        W16875   5.307  41.413  13.950
44616W        W16876  43.993  37.007  11.613
44617W        W16877   8.873   3.153   4.339
44618W        W16878   6.430   6.298   1.365
44619W        W16879  23.409  43.033   2.129
44620W        W16880  33.079  31.540   4.185
44621W        W16881  35.413  29.007  12.018
44622W        W16882   7.028  29.111   9.813
44623W        W16883  41.012  33.168  11.528
44624W        W16884  13.673  21.026  12.097
44625W        W16885  40.898  21.735  12.945
44626W        W16886   9.264  17.261   1.481
44627W        W16887  30.542  38.603  11.721
44628W        W16888  39.997  17.820   3.729
44629W        W16889  14.872  43.511  13.436
44630W        W16890  23.060   9.866   3.803
44631W        W16891   9.157  15.242   0.337
44632W        W16892  38.252   5.660   0.286
44633W        W16893   7.365   7.805  13.916
44634W        W16894   0.244  39.718  10.396
44635W        W16895   4.331  29.584  10.635
44636W        W16896  31.511   4.848   0.538
44637W        W16897   9.666   8.433   4.697
44638W        W16898  21.235  31.900   1.417
44639W        W16899   6.553  43.423  14.261
44640W        W16900  29.524  31.373  10.817
44641W        W16901  10.211   6.319  10.660
44642W        W16902  10.739  25.425   0.940
44643W        W16903  41.773  40.378   1.052
44644W        W16904  11.373  16.038   2.277
44645W        W16905  24.676  26.088  10.546
44646W        W16906  12.324  33.368  11.035
44647W        W16907  38.926  19.357  10.336
44648W        W16908  36.069  34.086  13.263
44649W        W16909  12.275   9.596  13.474
44650W        W16910  28.130  20.750  13.302
44651W        W16911  26.303  40.194  11.050
44652W        W16912  36.570   2.486   3.728
44653W        W16913  34.121  40.893  12.847
44654W        W16914  37.327  23.412   0.823
44655W        W16915   2.706  16.194   4.541
44656W        W16916   6.831  17.239   3.843
44657W        W16917   0.484  43.961  11.707
44658W        W16918  37.537  26.125   4.592
44659W        W16919  23.792  44.917   2.459
44660W        W16920  24.569  13.816   2.396
44661W        W16921  43.164  36.506   0.184
44662W        W16922  20.108  34.771  13.789
44663W        W16923  20.069  19.384  14.754
44664W        W16924   2.135  37.831  11.741
44665W        W16925  17.753  16.973  13.721
44666W        W16926  12.673  41.304  13.106
44667W        W16927  42.728   6.484   4.583
44668W        W16928   5.042  34.526   3.741
44669W        W16929  35.444   4.454   1.959
44670W        W16930   7.460  42.382   3.089
44671W        W16931  11.716  28.729   2.754
44672W        W16932   2.381  13.648  11.142
44673W        W16933  28.226  18.498  13.900
44674W        W16934  24.075  25.574  14.546
44675W        W16935   1.765   9.632   2.835
44676W        W16936  30.013  31.868  13.384
44677W        W16937  26.675  14.062   0.231
44678W        W16938  42.983   4.757  11.915
44679W        W16939  26.676  17.179   1.013
44680W        W16940  10.361  28.805   4.247
44681W        W16941  44.338   8.643   1.958
44682W        W16942  44.167  11.120  13.371
44683W        W16943  35.621  35.476  13.865
44684W        W16944  35.436  20.021   2.908
44685W        W16945  25.832  36.308   3.163
44686W        W16946  17.175  43.608   3.845
44687W        W16947  17.675  30.558   4.082
44688W        W16948  41.804  30.416  12.857
44689W        W16949  12.690   0.878  12.220
44690W        W16950  43.261   8.849   3.513
44691W        W16951  36.549  20.161   3.832
44692W        W16952  33.980  29.969  10.622
44693W        W16953   9.699   4.896  12.072
44694W        W16954  19.135  37.966  10.962
44695W        W16955  19.065  21.167  13.919
44696W        W16956   4.041   1.008  11.591
44697W        W16957  12.885  11.338  14.725
44698W        W16958  34.972  31.563   2.804
44699W        W16959  29.740  33.099  14.492
44700W        W16960  27.056  42.986   3.722
44701W        W16961  27.562  42.469  10.733
44702W        W16962   2.807   3.403  14.265
44703W        W16963  31.556  10.652   2.412
44704W        W16964  35.762  13.358   5.057
44705W        W16965  32.996  22.117  14.406
44706W        W16966  21.990  42.389  10.729
44707W        W16967  10.924   8.361   2.864
44708W        W16968  14.579  20.756   3.322
44709W        W16969  27.809  35.459  13.362
44710W        W16970  36.685   0.350  11.222
44711W        W16971  31.037   1.658  13.880
44712W        W16972   5.348  44.883   1.654
44713W        W16973  11.389  43.820   1.746
44714W        W16974  29.853  39.098  11.198
44715W        W16975  37.128  15.453   1.798
44716W        W16976  18.667   8.714  10.451
44717W        W16977   1.537  22.490   2.606
44718W        W16978   9.944   2.155   0.625
44719W        W16979   9.394  43.903  12.539
44720W        W16980  17.407  42.984   0.359
44721W        W16981  34.561  10.295  12.914
44722W        W16982   4.321   1.948  14.315
44723W        W16983  16.577   3.890  10.655
44724W        W16984  13.416  26.898  14.418
44725W        W16985  19.135  21.242   2.180
44726W        W16986  24.934  15.318   2.778
44727W        W16987  35.532  41.036  12.686
44728W        W16988  29.451  37.946  11.068
44729W        W16989   9.265   6.162  14.997
44730W        W16990  34.054  27.011  12.330
44731W        W16991  29.689   5.448   0.336
44732W        W16992  38.998  39.498  11.560
44733W        W16993  19.174  40.883  11.268
44734W        W16994  40.511  38.911  11.262
44735W        W16995  19.189  30.939   1.706
44736W        W16996  38.136  28.353   3.376
44737W        W16997   3.789   6.224  12.553
44738W        W16998  19.036  39.360  10.662
44739W        W16999  42.737  11.035  12.565
44740W        W17000  22.431  22.276  13.027
44741W        W17001  23.231  39.421   0.010
44742W        W17002  18.191  35.355   3.374
44743W        W17003  42.902  25.347   1.682
44744W        W17004   9.312  44.249  10.255
44745W        W17005  19.683  29.452  10.897
44746W        W17006  27.472  10.227  13.872
44747W        W17007  41.962  33.895  14.571
44748W        W17008  42.930  43.849  14.641
44749W        W17009  15.121  40.748   1.242
44750W        W17010   1.008  27.534   0.118
44751W        W17011   6.369   8.178  10.907
44752W        W17012  38.622  41.857   0.876
44753W        W17013  18.559   7.135  14.581
44754W        W17014   3.174  37.814  10.760
44755W        W17015   4.925  35.085   0.243
44756W        W17016   1.734   9.107  12.566
44757W        W17017  13.218  11.757  11.687
44758W        W17018  23.900  21.213   4.585
44759W        W17019  13.096  20.972   5.171
44760W        W17020  43.451  24.845  13.875
44761W        W17021   0.808  17.598  11.871
44762W        W17022  34.576  10.038  14.689
44763W        W17023  40.892  44.671   1.765
44764W        W17024  43.049  25.089   3.443
44765W        W17025  16.406  37.979  11.797
44766W        W17026  42.895  31.083   2.843
44767W        W17027  18.718  11.810   5.057
44768W        W17028  20.615  20.800   1.357
44769W        W17029  12.510   6.327  11.520
44770W        W17030  13.602  14.984  10.696
44771W        W17031   9.795  24.686  12.226
44772W        W17032   9.851  16.824  11.361
44773W        W17033   2.371  25.990   4.336
44774W        W17034  19.758  26.522   4.637
44775W        W17035  14.712  27.166  14.836
44776W        W17036   0.622  14.261   5.091
44777W        W17037  23.588  32.156  10.472
44778W        W17038   9.401  33.144   0.895
44779W        W17039  31.017  34.370  10.968
44780W        W17040  22.173  20.880  12.978
44781W        W17041  19.143  41.486   0.747
44782W        W17042   7.139  29.399   2.269
44783W        W17043  31.844  33.906  11.299
44784W        W17044  17.482  29.588   2.351
44785W        W17045  35.807  37.503  14.881
44786W        W17046  16.850  15.636  11.058
44787W        W17047  12.601  21.783   0.043
44788W        W17048  15.624  12.884  11.610
44789W        W17049  22.685  34.958   2.222
44790W        W17050  42.577  10.060   1.361
44791W        W17051  44.879  17.170   3.051
44792W        W17052  20.142  26.601   1.154
44793W        W17053   2.923  44.507  11.438
44794W        W17054  24.714  28.804  10.666
44795W        W17055  26.603  21.191  14.302
44796W        W17056  39.951  38.954  12.398
44797W        W17057  39.877  11.682  14.209
44798W        W17058  35.576  28.488  13.424
44799W        W17059  38.840   0.473   4.341
44800W        W17060   1.272  44.550   1.233
44801W        W17061  19.383  44.025   0.185
44802W        W17062  26.327  29.435   1.620
44803W        W17063  19.451  26.407   0.578
44804W        W17064  18.124  20.022  13.440
44805W        W17065  11.779  41.074  11.574
44806W        W17066   2.314  18.798   0.431
44807W        W17067  43.768  14.282   1.353
44808W        W17068  15.343   6.264   3.365
44809W        W17069  43.841   3.456   3.147
44810W        W17070  30.463   6.773  10.756
44811W        W17071  40.592   8.751  13.332
44812W        W17072  14.795  43.481  10.522
44813W        W17073  16.162  15.082   2.802
44814W        W17074  16.405  42.024  14.782
44815W        W17075   3.898  36.838   1.931
44816W        W17076  14.088  16.151  10.699
44817W        W17077  25.390  21.385  11.710
44818W        W17078  21.062  16.342   2.308
44819W        W17079   6.638  41.503   4.154
44820W        W17080  32.169  22.167   2.305
44821W        W17081  41.888  17.118  11.196
44822W        W17082  10.703  39.554   2.819
44823W        W17083  38.700  11.134  13.032
44824W        W17084  27.428  15.065  14.651
44825W        W17085  16.700   0.873   0.483
44826W        W17086  41.277  12.792   5.000
44827W        W17087  13.199  19.265   1.722
44828W        W17088   9.429  30.737  11.994
44829W        W17089  34.485   9.193   0.845
44830W        W17090  27.915  32.554   4.780
44831W        W17091  23.119  12.268   0.770
44832W        W17092  11.578  21.863  13.934
44833W        W17093  13.989  18.565   0.742
44834W        W17094   3.784  32.826  11.596
44835W        W17095  37.564   0.220  11.020
44836W        W17096  33.570  28.598   2.672
44837W        W17097  16.762  37.135  11.641
44838W        W17098   2.921  14.792   2.362
44839W        W17099  37.484   9.865   1.574
44840W        W17100  12.733   2.850  10.620
44841W        W17101  24.252  29.022  14.021
44842W        W17102  37.999   7.023  10.582
44843W        W17103  10.755   3.750  13.806
44844W        W17104  12.353  31.632  14.688
44845W        W17105  34.149  10.218  10.788
44846W        W17106  30.327   4.133  10.650
44847W        W17107  13.864   7.698  12.880
44848W        W17108  11.684  36.388   0.972
44849W        W17109   5.871   5.365   0.117
44850W        W17110   1.179  36.555   1.071
44851W        W17111  38.909   2.247  14.958
44852W        W17112  27.663  20.700  14.848
44853W        W17113  15.243  25.325   2.669
44854W        W17114   8.617  13.781  10.672
44855W        W17115   7.380   6.165  12.032
44856W        W17116  28.484  27.429  13.359
44857W        W17117  29.306  15.188  11.975
44858W        W17118  15.087   7.435  11.968
44859W        W17119   2.885  21.112  10.470
44860W        W17120  30.930  30.478   1.818
44861W        W17121  22.369  39.363   1.541
44862W        W17122  23.630  41.966   1.060
44863W        W17123  29.581  30.869  10.678
44864W        W17124  34.665   7.783  13.914
44865W        W17125  16.000  12.556  14.307
44866W        W17126  24.135   4.409   2.587
44867W        W17127  15.462  28.909  13.995
44868W        W17128  26.010  34.694  13.499
44869W        W17129  17.158  21.533  12.381
44870W        W17130  15.706  11.974   0.119
44871W        W17131   3.861  35.577  14.710
44872W        W17132  32.854  28.090   0.131
44873W        W17133   8.600   5.878  13.647
44874W        W17134   7.662  19.330   2.291
44875W        W17135  12.620  32.021   1.696
44876W        W17136  28.615  12.670   2.922
44877W        W17137   0.741  26.525  11.501
44878W        W17138  28.841  26.579  13.474
44879W        W17139   5.196  15.852   0.823
44880W        W17140  10.950   0.845   0.694
44881W        W17141  43.356  20.528   4.106
44882W        W17142  36.385   3.908   3.326
44883W        W17143  43.363  36.960   0.410
44884W        W17144  19.937  14.394   2.205
44885W        W17145  29.728  27.951   1.414
44886W        W17146  35.122  36.927  11.694
44887W        W17147  16.770  20.473   0.705
44888W        W17148  43.887  22.095   0.889
44889W        W17149  20.025  43.722  13.389
44890W        W17150  36.837  24.769   1.135
44891W        W17151  42.362  29.432   4.139
44892W        W17152   8.661  27.989  13.310
44893W        W17153   7.290   0.857   4.625
44894W        W17154  28.948  30.074   4.476
44895W        W17155  24.036  34.965   2.689
44896W        W17156   1.801  36.603  11.911
44897W        W17157  34.569  30.132   1.605
44898W        W17158  43.178   1.128  12.875
44899W        W17159  42.420   8.897   3.298
44900W        W17160  16.840  32.945  14.311
44901W        W17161  25.749  17.289   0.917
44902W        W17162  40.804   8.177  12.480
44903W        W17163   3.842   4.909  10.778
44904W        W17164   5.351  30.215  13.061
44905W        W17165   7.440  24.654   3.930
44906W        W17166   1.902   4.752   0.038
44907W        W17167   9.064  12.826  12.943
44908W        W17168  37.413  30.573   4.069
44909W        W17169  19.115  44.254   3.330
44910W        W17170  26.998  37.834  11.906
44911W        W17171  33.796  12.878  14.324
44912W        W17172  31.631  24.701   0.445
44913W        W17173  20.271  11.245  12.041
44914W        W17174  37.151   9.128  11.950
44915W        W17175  30.160  24.210   2.667
44916W        W17176   0.281  24.637   4.386
44917W        W17177  27.831  41.913  13.881
44918W        W17178  35.554  22.672  12.578
44919W        W17179  21.216  12.710   0.762
44920W        W17180   2.292  14.231   4.084
44921W        W17181  39.458  20.962  12.867
44922W        W17182  27.719  21.049   1.675
44923W        W17183  32.484  21.310   2.872
44924W        W17184   2.301  24.188   2.916
44925W        W17185  35.546  34.489   3.181
44926W        W17186  35.893   0.254   3.654
44927W        W17187   6.466   1.960   5.059
44928W        W17188   2.059  43.284   3.626
44929W        W17189  32.962  28.545   1.348
44930W        W17190  38.097  17.617   4.401
44931W        W17191  13.195   2.247   4.849
44932W        W17192  13.142  30.203  13.504
44933W        W17193  44.778  42.301  12.683
44934W        W17194   4.286  23.787  12.230
44935W        W17195  42.231  28.967  14.294
44936W        W17196  37.369  35.133   3.293
44937W        W17197  34.906  13.014  11.831
44938W        W17198  11.240  11.619  13.336
44939W        W17199   8.884  32.554   3.655
44940W        W17200  22.253   2.950   1.893
44941W        W17201  33.043  20.441  10.751
44942W        W17202  21.339  15.152  11.621
44943W        W17203  25.962  20.558   1.739
44944W        W17204   9.923   4.430   0.036
44945W        W17205   5.848   6.717   4.692
44946W        W17206  14.202  28.356  14.770
44947W        W17207  14.781   1.803  10.807
44948W        W17208  27.463  30.599  12.506
44949W        W17209   3.662   4.698   4.508
44950W        W17210  33.332  23.057  11.679
44951W        W17211   3.495  37.167   3.161
44952W        W17212   8.865   7.284   0.764
44953W        W17213   0.433  24.041   0.392
44954W        W17214  34.474  12.233   0.279
44955W        W17215  22.648  40.547  13.510
44956W        W17216  35.290  13.332  12.954
44957W        W17217   0.843  31.142  12.891
44958W        W17218   5.821  41.470   3.762
44959W        W17219  38.019   7.867   2.187
44960W        W17220  31.087   9.118  12.547
44961W        W17221  38.730  14.272  11.985
44962W        W17222  17.941  37.932   4.460
44963W        W17223   0.866   7.192  12.445
44964W        W17224  34.182  21.565  12.043
44965W        W17225  22.615  41.248   3.131
44966W        W17226  12.328  36.283  12.568
44967W        W17227  32.871   8.248  12.846
44968W        W17228  37.012   2.781   3.569
44969W        W17229  38.354   3.489   0.902
44970W        W17230  40.433  27.262  13.457
44971W        W17231  26.066  32.994  13.014
44972W        W17232   4.398   6.815  14.769
44973W        W17233  15.749   5.228  11.374
44974W        W17234  13.098  28.952   1.522
44975W        W17235   8.181  15.882   4.124
44976W        W17236  11.694  44.872   0.722
44977W        W17237  25.623  30.078  12.435
44978W        W17238  36.912  10.448   4.587
44979W        W17239   5.816   2.602  11.965
44980W        W17240  23.293  17.191  14.063
44981W        W17241  42.612  12.778   2.387
44982W        W17242  14.150  33.187  11.020
44983W        W17243  39.571  44.983  12.695
44984W        W17244  32.607  32.859   3.211
44985W        W17245  41.118  14.116   1.741
44986W        W17246   1.802  23.278   1.935
44987W        W17247  44.264  14.347  12.145
44988W        W17248  16.489  39.580  12.523
44989W        W17249  42.576  34.170  13.356
44990W        W17250  21.274  44.125   2.777
44991W        W17251   1.165  23.288   0.423
44992W        W17252  23.641  42.919   9.957
44993W        W17253  21.679  29.132   2.402
44994W        W17254  29.849   8.596   0.906
44995W        W17255  18.330  34.472  14.038
44996W        W17256  30.236  42.475   1.213
44997W        W17257  38.207  17.635  14.864
44998W        W17258   1.741  14.887   0.401
44999W        W17259   9.852  43.966  11.619
45000W        W17260  20.504  38.754   0.385
45001W        W17261  41.480   2.381   3.563
45002W        W17262  10.781   3.875   4.861
45003W        W17263  10.498   5.797   4.904
45004W        W17264  16.057  41.358   1.823
45005W        W17265  34.009  12.629   1.555
45006W        W17266  16.600   1.896  14.990
45007W        W17267  22.658  39.547  10.381
45008W        W17268  22.638  32.910   4.101
45009W        W17269   7.458  40.618  13.640
45010W        W17270  24.058  44.417   0.756
45011W        W17271   4.741   6.910  11.183
45012W        W17272  27.153  33.299  14.470
45013W        W17273   3.254   1.377  10.801
45014W        W17274   9.568   5.898  12.134
45015W        W17275   2.165  18.064   3.668
45016W        W17276  17.810  17.312  10.634
45017W        W17277  39.643  22.712   2.544
45018W        W17278  23.469  41.048   1.285
45019W        W17279  30.544   2.522   3.376
45020W        W17280  10.043  26.227  11.089
45021W        W17281   5.292  35.966   3.735
45022W        W17282  33.826   1.816   4.408
45023W        W17283  38.431  39.556   3.790
45024W        W17284  18.026   4.379  14.820
45025W        W17285  33.682   4.997  14.771
45026W        W17286   3.533  15.425  10.995
45027W        W17287  13.088   8.680  14.243
45028W        W17288  33.731   9.997   0.859
45029W        W17289  25.126  27.613   1.717
45030W        W17290  14.052  31.590   0.458
45031W        W17291   5.195  16.113  10.701
45032W        W17292  30.668  26.575  13.500
45033W        W17293  19.817   7.679   4.505
45034W        W17294  29.995   4.851   2.557
45035W        W17295  13.451   6.203  10.733
45036W        W17296  22.678  12.861   1.680
45037W        W17297  24.494  28.570  14.005
45038W        W17298   3.825   3.269   0.802
45039W        W17299   1.908  30.018  10.804
45040W        W17300  20.041   4.726  14.404
45041W        W17301  25.440  42.383   4.188
45042W        W17302  35.981  29.191   3.540
45043W        W17303  20.099  18.088   3.754
45044W        W17304  12.619  22.493   4.473
45045W        W17305  23.821   0.726  10.825
45046W        W17306  17.558  13.227  14.831
45047W        W17307   6.955  24.243   0.217
45048W        W17308  36.852  44.943  13.476
45049W        W17309   6.275   8.060  14.780
45050W        W17310   5.892  18.865   2.841
45051W        W17311   0.773  22.730   1.826
45052W        W17312  25.659  19.269   2.188
45053W        W17313  24.922  34.508   1.217
45054W        W17314   2.904  22.480  11.110
45055W        W17315  30.470  30.500   4.361
45056W        W17316  41.203   9.228   1.919
45057W        W17317  15.887  26.101   1.663
45058W        W17318  41.847  16.626   2.268
45059W        W17319   4.782  38.828   2.653
45060W        W17320  34.623  19.280   0.555
45061W        W17321  43.503  29.032  10.709
45062W        W17322  15.619   6.240   0.296
45063W        W17323  31.013  19.480  14.759
45064W        W17324   8.720   4.732   2.404
45065W        W17325  22.273  26.033  10.557
45066W        W17326   9.555  17.976  11.640
45067W        W17327  22.789  28.444  14.519
45068W        W17328  10.057  11.311   0.570
45069W        W17329  25.677   1.894  14.275
45070W        W17330  21.097  22.691  12.939
45071W        W17331  40.016  31.109  13.487
45072W        W17332  29.476  41.036   3.599
45073W        W17333  26.620  34.973  11.489
45074W        W17334   3.502  32.136   0.274
45075W        W17335   8.679  20.143  11.624
45076W        W17336  25.633  25.355   2.859
45077W        W17337  15.115  35.571   1.309
45078W        W17338   0.294  41.834   4.437
45079W        W17339   7.179   5.278  12.827
45080W        W17340  24.494  39.801  12.633
45081W        W17341  44.328  35.808  14.972
45082W        W17342   0.752  29.903  12.191
45083W        W17343  18.782  13.085  10.834
45084W        W17344  15.839   8.739  13.398
45085W        W17345  38.520   7.115  10.695
45086W        W17346   0.896  27.584   1.945
45087W        W17347  19.737  19.990  12.932
45088W        W17348  42.425   0.657   1.795
45089W        W17349  32.328  20.536  13.422
45090W        W17350   3.233  15.086  13.079
45091W        W17351  12.570   8.947   1.872
45092W        W17352  17.730   0.478  13.365
45093W        W17353   4.515  22.622   4.794
45094W        W17354  44.716   7.277   0.785
45095W        W17355  44.838  10.736   3.779
45096W        W17356   2.038  21.584  13.779
45097W        W17357  24.249  31.682   1.374
45098W        W17358  42.002  37.192  11.191
45099W        W17359  21.834  33.978   4.347
45100W        W17360   8.432  16.257   3.899
45101W        W17361  40.811  24.949  13.176
45102W        W17362  28.185  41.785   1.924
45103W        W17363  29.759  22.988   3.202
45104W        W17364  32.872  37.311   3.792
45105W        W17365   7.402  44.434   0.451
45106W        W17366  42.277  34.424   4.330
45107W        W17367  40.538  42.573   2.200
45108W        W17368  34.588  16.678   1.866
45109W        W17369  37.816  22.075   1.861
45110W        W17370  32.289  25.982  12.965
45111W        W17371  41.573  25.053   2.759
45112W        W17372  35.047  37.581   0.914
45113W        W17373  34.326  33.426  14.065
45114W        W17374  10.356  27.467   1.193
45115W        W17375  35.147  37.378  13.371
45116W        W17376  41.339   3.273  11.185
45117W        W17377  32.064  19.291  11.938
45118W        W17378  17.697  10.928  11.070
45119W        W17379  38.921  16.964   0.266
45120W        W17380  13.346   2.217   0.968
45121W        W17381  41.013  36.867   4.425
45122W        W17382   2.319   4.214   0.741
45123W        W17383   5.118  12.704   1.108
45124W        W17384  40.861  30.963   2.411
45125W        W17385  12.644  31.314  11.391
45126W        W17386  27.413  41.367   4.192
45127W        W17387  34.400   9.257   4.927
45128W        W17388   4.264   2.771   0.269
45129W        W17389  21.372  20.142  10.511
45130W        W17390  33.473  20.137   0.842
45131W        W17391   1.049   2.423   1.417
45132W        W17392  28.210  43.551  14.505
45133W        W17393  11.662  15.046   2.765
45134W        W17394  18.157   9.194   2.757
45135W        W17395   9.752  16.634   1.817
45136W        W17396  23.456  24.461  13.950
45137W        W17397  25.451  33.399   1.425
45138W        W17398  21.509   1.880   3.772
45139W        W17399  41.444  31.957   1.190
45140W        W17400  30.454   5.747  14.027
45141W        W17401  22.651  15.261   0.795
45142W        W17402  35.144  16.836  13.519
45143W        W17403  40.601   6.016   5.035
45144W        W17404  26.228   4.284   2.811
45145W        W17405  19.137  11.802   1.504
45146W        W17406  23.337   4.843   3.727
45147W        W17407   3.758  34.486   0.390
45148W        W17408  32.469  26.375  11.993
45149W        W17409  27.717  11.606  10.568
45150W        W17410  34.977  44.243  11.623
45151W        W17411   3.471  23.817  14.844
45152W        W17412   1.839   5.755   3.605
45153W        W17413  31.733   7.405  12.072
45154W        W17414  44.465  28.413  14.955
45155W        W17415  28.787  17.272   1.544
45156W        W17416  23.003  34.577   2.333
45157W        W17417  43.385   2.306  10.705
45158W        W17418  37.001  33.332  11.569
45159W        W17419   6.740  27.185   2.917
45160W        W17420  15.214   4.933   0.374
45161W        W17421  19.660  40.736  14.796
45162W        W17422  30.128   5.264   0.543
45163W        W17423  27.012  33.539   2.133
45164W        W17424  35.113  43.812  12.480
45165W        W17425  34.401  42.689  12.075
45166W        W17426   9.594  42.274  11.579
45167W        W17427   3.679  33.454  10.764
45168W        W17428  20.224  13.267  12.539
45169W        W17429  26.310  15.112  12.511
45170W        W17430   2.595   9.446  12.125
45171W        W17431  15.710  41.538   0.821
45172W        W17432  42.746  26.031   4.555
45173W        W17433  32.096  30.302  10.236
45174W        W17434  31.893  40.312   2.129
45175W        W17435   4.690  19.119  12.847
45176W        W17436   7.475   1.915  11.099
45177W        W17437  12.297   2.306  13.583
45178W        W17438  21.314   6.704  11.995
45179W        W17439  29.174  21.523  12.619
45180W        W17440  14.430  38.903  11.418
45181W        W17441  11.309   8.987  11.120
45182W        W17442  29.546  21.640  10.933
45183W        W17443  20.968  33.102   0.799
45184W        W17444   0.970  16.741   1.767
45185W        W17445  14.374  36.098  12.945
45186W        W17446  23.730  43.286   3.665
45187W        W17447  28.323  24.753   2.907
45188W        W17448  41.942   0.336   4.616
45189W        W17449   2.970  16.548  13.961
45190W        W17450   7.232  13.597  13.947
45191W        W17451  29.541  28.598  10.734
45192W        W17452  15.915  38.804   3.268
45193W        W17453  36.973   3.218   4.371
45194W        W17454  29.507  37.484   0.091
45195W        W17455   1.690  28.672  10.717
45196W        W17456  29.844   1.743  14.834
45197W        W17457  12.447  39.810   1.903
45198W        W17458  19.033  34.171   0.454
45199W        W17459  44.209  43.348   2.153
45200W        W17460  13.463  34.793  12.274
45201W        W17461   6.172   4.637   1.459
45202W        W17462  42.398  19.306  14.458
45203W        W17463   6.097  26.741  10.354
45204W        W17464  17.221  26.536   4.110
45205W        W17465  23.192  28.894  12.443
45206W        W17466  32.796  10.589   0.206
45207W        W17467   2.714   9.541  11.228
45208W        W17468  16.724  24.667   2.618
45209W        W17469  14.933   3.390  11.130
45210W        W17470   8.257  10.270  11.537
45211W        W17471  19.309  41.638  10.848
45212W        W17472  28.740  37.028   2.936
45213W        W17473   5.753  21.865   2.209
45214W        W17474   3.189  11.325   0.704
45215W        W17475  12.134  11.224  13.114
45216W        W17476  16.692   7.501  14.478
45217W        W17477  30.220   1.283   1.342
45218W        W17478  16.538  17.592   3.746
45219W        W17479  17.718   8.908   4.398
45220W        W17480   0.884  40.896   0.429
45221W        W17481  18.949  11.431   2.396
45222W        W17482  13.797  38.389  10.996
45223W        W17483  14.107   2.245  13.117
45224W        W17484   0.957  39.563  14.070
45225W        W17485   9.877  11.599   3.637
45226W        W17486  35.036  26.143  11.134
45227W        W17487  10.129   6.929  13.715
45228W        W17488  32.587  43.485   1.791
45229W        W17489   0.002  40.458  14.494
45230W        W17490  20.962  30.598   1.815
45231W        W17491   7.441  11.324   2.344
45232W        W17492   7.590   4.571  12.107
45233W        W17493  22.619   7.756   4.394
45234W        W17494  22.451  15.341   1.298
45235W        W17495  11.326   4.646  12.936
45236W        W17496  12.580  40.307   1.949
45237W        W17497  15.744   1.560   3.689
45238W        W17498  17.663  39.903  12.075
45239W        W17499  14.854  16.147   2.343
45240W        W17500   2.932  33.067  11.684
45241W        W17501  19.328  25.977   3.769
45242W        W17502   2.826   9.383   0.759
45243W        W17503   7.405  34.294   3.478
45244W        W17504  39.586   6.248   0.698
45245W        W17505  17.837  18.231   1.200
45246W        W17506   5.448  39.169  12.856
45247W        W17507  17.614  31.644   1.628
45248W        W17508  17.626  25.697  11.822
45249W        W17509  15.222  13.867  13.718
45250W        W17510  14.748  22.259   3.187
45251W        W17511  16.343  41.915   3.544
45252W        W17512  23.771  24.654  14.314
45253W        W17513  24.001  21.808   1.229
45254W        W17514  31.025  10.841  13.932
45255W        W17515  44.546  15.143   1.942
45256W        W17516  20.087  26.294  14.003
45257W        W17517  33.615  29.977  11.555
45258W        W17518  41.728  33.414   2.215
45259W        W17519  43.774  15.881   3.838
45260W        W17520  20.504  30.856  11.106
45261W        W17521  12.531   4.163   4.703
45262W        W17522  17.669   7.844  12.523
45263W        W17523  25.452  44.259   0.826
45264W        W17524  19.426   7.018   0.814
45265W        W17525   6.793   3.239   0.072
45266W        W17526   7.556  13.623   2.628
45267W        W17527   7.230  25.625   3.686
45268W        W17528  34.496  25.689   4.264
45269W        W17529  21.147   7.643   1.362
45270W        W17530  19.529  22.683   4.198
45271W        W17531   9.233  37.628  10.687
45272W        W17532  39.307  43.335   1.738
45273W        W17533  34.303  38.976  10.852
45274W        W17534  18.428  37.575   1.711
45275W        W17535  17.183  26.570  11.979
45276W        W17536   6.957  35.495  14.069
45277W        W17537  31.939   7.408   1.736
45278W        W17538  15.699  41.986   1.825
45279W        W17539  41.058  11.669  10.803
45280W        W17540  43.144  40.719  13.822
45281W        W17541  44.794   7.170  14.855
45282W        W17542  25.029  27.929   4.612
45283W        W17543   8.622  10.376   4.889
45284W        W17544  11.843  44.440  13.494
45285W        W17545  35.850   6.546   1.248
45286W        W17546  16.845  43.896   0.881
45287W        W17547  13.673  39.577  14.231
45288W        W17548  11.194  31.761  12.031
45289W        W17549  29.487  22.561   3.365
45290W        W17550  19.408  15.595   3.159
45291W        W17551  35.487  41.772   3.997
45292W        W17552  17.708  24.677   4.677
45293W        W17553   3.521  31.071   2.846
45294W        W17554  42.120  39.356   0.831
45295W        W17555  10.272  37.501   1.490
45296W        W17556  10.792  42.754   3.708
45297W        W17557  39.257  18.175   0.833
45298W        W17558   2.179  32.627   3.344
45299W        W17559  20.133  15.109  12.701
45300W        W17560  22.561   3.442  11.604
45301W        W17561  16.773  35.628   4.493
45302W        W17562  23.183   4.229  14.299
45303W        W17563   7.814  32.515   2.138
45304W        W17564  24.065  36.263  12.752
45305W        W17565  12.654   0.698   0.254
45306W        W17566   4.150  38.328  12.896
45307W        W17567  27.585  18.995   2.199
45308W        W17568  18.579  29.436   2.330
45309W        W17569   3.354  14.029   1.904
45310W        W17570   8.774   5.912  14.138
45311W        W17571  14.747  34.416  11.038
45312W        W17572   4.965  11.766  13.867
45313W        W17573   4.970  39.969   4.209
45314W        W17574  33.348  22.025  11.374
45315W        W17575  38.425  34.401  14.320
45316W        W17576  12.751  33.724  12.190
45317W        W17577  43.377  10.450   1.872
45318W        W17578  34.006  23.316  11.069
45319W        W17579  32.537   6.975  11.977
45320W        W17580   2.123  33.385   5.077
45321W        W17581  26.681  17.456  14.197
45322W        W17582  44.983   5.055   2.855
45323W        W17583   1.092  18.153   3.954
45324W        W17584  13.678  25.798  10.640
45325W        W17585  33.938   1.676  10.399
45326W        W17586  37.710  33.253   4.151
45327W        W17587  12.002  35.603  11.573
45328W        W17588  40.384  27.992  14.038
45329W        W17589   5.259  22.111   4.164
45330W        W17590  38.615  37.408   1.425
45331W        W17591  30.462  39.093  13.955
45332W        W17592  37.470  24.634  13.846
45333W        W17593  20.437  11.381  14.584
45334W        W17594  37.571  40.596  10.865
45335W        W17595  36.978  29.902   4.564
45336W        W17596  19.315  26.044   0.241
45337W        W17597  15.540   0.492  13.053
45338W        W17598  23.699  13.726   3.848
45339W        W17599   9.165  44.831  12.301
45340W        W17600  43.198   5.585  12.105
45341W        W17601  38.844  34.467  12.932
45342W        W17602  27.095  14.724  14.046
45343W        W17603  37.704  22.708  10.237
45344W        W17604   5.512   0.889  10.824
45345W        W17605  41.483  16.603  10.686
45346W        W17606  19.500  11.705   2.761
45347W        W17607  27.106  14.758  12.183
45348W        W17608  30.653   1.230  11.131
45349W        W17609  16.702  30.344   0.289
45350W        W17610  35.052  37.588  14.264
45351W        W17611  26.523  26.572   0.069
45352W        W17612  42.379   3.897  13.126
45353W        W17613  23.176  44.251  14.655
45354W        W17614  12.055  33.924  13.941
45355W        W17615  39.875   0.994   2.343
45356W        W17616   6.701   5.340   1.394
45357W        W17617  26.082  42.997   1.751
45358W        W17618  25.320  22.494  12.971
45359W        W17619  26.202  40.855   2.661
45360W        W17620   1.007   1.254  14.392
45361W        W17621   4.462  38.369  11.563
45362W        W17622  31.626  40.098  11.637
45363W        W17623   0.649  36.754  12.445
45364W        W17624  21.230  33.097   3.165
45365W        W17625  43.943  22.694   2.789
45366W        W17626   0.668  36.081   4.137
45367W        W17627  36.413  24.732   2.791
45368W        W17628  16.808  23.475  14.066
45369W        W17629   1.451  27.135  10.605
45370W        W17630  38.651  23.988  13.488
45371W        W17631   0.839   5.218  14.255
45372W        W17632   6.862   5.436   3.148
45373W        W17633  42.636   2.806  10.946
45374W        W17634  32.661  34.170   0.355
45375W        W17635  23.203  16.687  12.356
45376W        W17636  20.225  37.774   1.872
45377W        W17637   0.639  16.128  11.609
45378W        W17638  40.949  20.828  12.426
45379W        W17639  14.282  20.279   2.560
45380W        W17640  10.842   8.423  11.866
45381W        W17641  25.649  41.923  14.919
45382W        W17642   7.134  25.880  12.486
45383W        W17643  32.498  17.032   1.631
45384W        W17644  44.466   7.785   4.502
45385W        W17645   5.305   4.480   2.818
45386W        W17646  20.718  24.689   0.874
45387W        W17647   4.040  23.020   3.093
45388W        W17648  35.371  36.116  11.740
45389W        W17649   6.210  14.983   2.320
45390W        W17650   7.413  21.300   0.759
45391W        W17651  15.480  38.033  12.242
45392W        W17652  35.807   8.757  13.968
45393W        W17653   5.356   4.497   4.903
45394W        W17654  14.801   0.237  14.903
45395W        W17655  36.032  37.303   4.579
45396W        W17656  38.692   9.379  13.190
45397W        W17657  14.738   7.431  11.487
45398W        W17658   1.832  19.094  13.862
45399W        W17659   5.209   9.679  12.023
45400W        W17660  35.570  12.586   0.937
45401W        W17661  15.174  37.106   0.555
45402W        W17662  34.819  43.230  11.700
45403W        W17663  17.384  30.275   3.647
45404W        W17664  38.684  27.911  13.430
45405W        W17665  12.788   1.294   2.424
45406W        W17666  10.705  25.811  14.882
45407W        W17667  27.152   6.925  12.210
45408W        W17668  29.296  33.904  14.375
45409W        W17669  28.910  38.763  11.063
45410W        W17670  13.115  18.748   3.412
45411W        W17671   0.318  29.928  12.505
45412W        W17672   9.676   1.090  14.414
45413W        W17673   3.839  44.202   0.928
45414W        W17674  23.074  27.749   0.990
45415W        W17675  20.677  19.335  12.046
45416W        W17676  23.591  40.474  10.139
45417W        W17677   5.815  39.718  12.033
45418W        W17678  29.262  17.652  11.704
45419W        W17679   1.774  43.505  14.299
45420W        W17680  43.696  41.048  12.042
45421W        W17681   2.378  15.531  10.546
45422W        W17682  19.663   7.417   5.330
45423W        W17683  30.137  29.337  14.192
45424W        W17684  33.947   0.029  11.988
45425W        W17685   2.364  39.592   4.135
45426W        W17686  21.095   1.053  11.595
45427W        W17687  38.987   9.741  10.981
45428W        W17688  28.992  15.603   1.849
45429W        W17689  31.039  26.815   1.698
45430W        W17690   5.704  27.499  11.570
45431W        W17691  32.557  24.092   2.919
45432W        W17692  14.676  27.620   1.975
45433W        W17693  34.137  42.207   2.871
45434W        W17694  24.442  44.059   3.210
45435W        W17695  34.605   4.379   2.793
45436W        W17696  29.497   6.511   5.072
45437W        W17697  17.194  40.399  13.363
45438W        W17698  22.932   9.693  11.130
45439W        W17699  42.905  18.249   1.405
45440W        W17700  27.254  21.662   2.164
45441W        W17701  43.697  10.036   1.991
45442W        W17702  12.231   3.007   4.690
45443W        W17703  13.361  36.639  14.498
45444W        W17704  42.717  28.322   3.617
45445W        W17705  37.842  25.681  14.737
45446W        W17706   8.727   8.262   2.203
45447W        W17707  31.412   8.303  10.761
45448W        W17708  35.874  16.390  13.861
45449W        W17709  20.746   6.690  14.907
45450W        W17710   8.410  38.675   3.712
45451W        W17711  18.936  32.004   2.916
45452W        W17712  30.937  17.899  11.121
45453W        W17713  30.639   9.706   1.721
45454W        W17714   1.394  33.065   4.576
45455W        W17715  25.977  22.492   4.603
45456W        W17716   3.453  40.574   4.514
45457W        W17717   4.843  26.042  12.027
45458W        W17718  15.515  17.678  10.671
45459W        W17719   1.479  29.462   0.769
45460W        W17720  15.169   8.752   0.835
45461W        W17721  38.002  11.664   1.207
45462W        W17722   8.096  31.532   2.670
45463W        W17723  41.969  22.553  14.643
45464W        W17724  33.916   2.318   4.235
45465W        W17725  39.320  23.483   3.214
45466W        W17726  37.778  38.809   4.592
45467W        W17727  38.434  32.570   1.817
45468W        W17728  12.923   0.387   1.627
45469W        W17729  18.260   7.090   0.003
45470W        W17730  10.878  36.883   4.509
45471W        W17731  40.729  43.415   2.111
45472W        W17732  23.207  44.932   3.266
45473W        W17733   9.409   2.494  11.404
45474W        W17734  19.207  30.048  14.750
45475W        W17735   1.735  19.090  12.822
45476W        W17736  28.654  28.673  12.814
45477W        W17737   6.271  11.371  13.043
45478W        W17738  34.498   2.998   2.696
45479W        W17739  15.766   5.040  14.471
45480W        W17740  14.436  35.021   5.281
45481W        W17741  43.008  27.168   4.134
45482W        W17742  15.974  20.583  14.388
45483W        W17743   7.670  43.223  12.012
45484W        W17744  32.938  43.984  12.932
45485W        W17745  37.373   2.285  12.916
45486W        W17746  12.950   9.460   4.235
45487W        W17747  30.734  33.343   5.087
45488W        W17748  42.082  21.417   5.042
45489W        W17749  28.751   5.090   1.632
45490W        W17750  38.994   7.137   2.918
45491W        W17751  27.165  40.759   2.819
45492W        W17752  24.404  25.930   3.488
45493W        W17753  22.539  44.730  12.470
45494W        W17754   7.945  24.155  12.023
45495W        W17755  27.689  24.575   0.193
45496W        W17756  34.507  32.823   1.790
45497W        W17757  30.679  23.206  13.084
45498W        W17758  20.315  17.008  12.537
45499W        W17759  30.890  43.608  14.846
45500W        W17760   2.765  29.614  10.711
45501W        W17761  35.518  22.645  14.421
45502W        W17762   6.704   2.696   4.108
45503W        W17763  16.809  12.636   2.771
45504W        W17764  38.371  32.623  13.767
45505W        W17765  30.243  18.344  11.065
45506W        W17766  43.675   8.661   3.803
45507W        W17767  11.461   0.768  13.010
45508W        W17768  30.986   6.940  11.567
45509W        W17769  20.520  13.719   3.866
45510W        W17770  44.037  39.673  14.011
45511W        W17771  43.662  38.953  11.091
45512W        W17772   4.214   8.679  13.993
45513W        W17773  36.873  12.450  11.936
45514W        W17774  13.624  44.751   1.920
45515W        W17775  15.661  30.177   4.036
45516W        W17776   2.973  25.482  12.358
45517W        W17777  22.162   8.766   2.699
45518W        W17778  33.409   9.676  12.615
45519W        W17779  20.834  39.945  11.544
45520W        W17780  15.928  10.097   5.239
45521W        W17781  19.704  31.939  10.657
45522W        W17782  10.673  19.278   2.622
45523W        W17783   5.245   2.991   4.152
45524W        W17784  27.437   3.479   2.720
45525W        W17785  13.762  37.424  13.446
45526W        W17786  43.260   5.228  14.001
45527W        W17787   3.695  11.579  14.899
45528W        W17788   6.813   8.833   3.707
45529W        W17789  26.903   3.374   0.819
45530W        W17790   8.214  28.010  10.798
45531W        W17791  41.879  43.188  10.604
45532W        W17792  16.862  26.665  11.015
45533W        W17793  10.120   7.305  11.986
45534W        W17794  19.039   7.208   1.775
45535W        W17795   0.974  28.030   1.719
45536W        W17796   3.751  16.694   4.102
45537W        W17797  16.362   4.488   1.824
45538W        W17798  44.401  32.665   1.318
45539W        W17799  33.500  16.541   1.892
45540W        W17800  39.639  41.953   1.955
45541W        W17801  29.306  16.074   2.242
45542W        W17802  38.912   7.841   2.248
45543W        W17803  21.138  32.880   2.681
45544W        W17804  26.052  34.139   0.844
45545W        W17805  32.628  38.934   3.709
45546W        W17806  23.951  19.534   4.199
45547W        W17807  16.107  25.242   3.220
45548W        W17808  15.039  12.397  12.613
45549W        W17809  14.425  39.618  14.942
45550W        W17810  43.800  30.639   3.709
45551W        W17811  17.608  34.891  13.388
45552W        W17812  24.699  34.151  11.600
45553W        W17813   6.834  24.720   4.661
45554W        W17814   5.660  12.739   0.520
45555W        W17815  38.255  11.864   2.749
45556W        W17816  33.787   1.288  12.466
45557W        W17817  31.658  11.132   2.721
45558W        W17818  43.580   4.419   4.441
45559W        W17819  22.209  33.036   0.333
45560W        W17820  35.962  15.904   4.862
45561W        W17821  22.720   1.429   4.496
45562W        W17822  33.368  25.036   2.655
45563W        W17823  23.561   9.746   0.915
45564W        W17824  32.227  35.414   4.687
45565W        W17825  27.566  27.704  12.342
45566W        W17826  15.627  20.043  11.962
45567W        W17827  16.751   7.621  10.701
45568W        W17828  12.309  30.381  11.526
45569W        W17829  23.304  18.622   0.510
45570W        W17830  10.937  20.682   1.562
45571W        W17831  41.576  17.717  13.998
45572W        W17832  39.284  12.348   1.279
45573W        W17833   6.946  18.007  10.647
45574W        W17834  39.352  30.626  11.195
45575W        W17835  39.758   7.272  11.929
45576W        W17836  32.934  25.389  14.692
45577W        W17837   5.452   6.990  14.351
45578W        W17838  27.173  19.624  12.441
45579W        W17839  23.917  34.374   1.219
45580W        W17840   9.448  32.427   2.778
45581W        W17841   0.052   0.260   1.812
45582W        W17842  25.711   9.233  11.109
45583W        W17843  12.837  17.111  14.065
45584W        W17844  24.122  31.139  14.993
45585W        W17845  35.194  13.364  11.583
45586W        W17846   5.529  27.241  14.289
45587W        W17847  40.939   1.875  14.177
45588W        W17848  37.548  26.742   0.350
45589W        W17849  34.268  26.152   4.142
45590W        W17850   3.563  32.249  10.783
45591W        W17851  15.371  19.495  12.802
45592W        W17852   1.973  18.134   1.229
45593W        W17853  14.167  32.342   4.145
45594W        W17854  14.087   6.810  10.972
45595W        W17855  18.649   9.426   4.994
45596W        W17856  39.475   2.958   4.259
45597W        W17857  32.066  20.578  14.809
45598W        W17858  42.476  19.732   0.107
45599W        W17859   6.459  32.049   3.186
45600W        W17860   5.757  30.481  14.355
45601W        W17861  31.239  18.715   3.179
45602W        W17862  29.528  44.977  13.173
45603W        W17863  13.382  19.259   2.768
45604W        W17864  43.146   3.421  12.065
45605W        W17865   3.305   7.950  11.661
45606W        W17866   6.608  21.160  10.534
45607W        W17867  21.935   8.360  11.683
45608W        W17868  17.199  37.438  13.464
45609W        W17869  36.997   0.034   3.043
45610W        W17870   0.304  27.175   1.472
45611W        W17871  13.295   8.196  14.020
45612W        W17872  27.582  15.727   1.323
45613W        W17873  29.459  33.998  12.502
45614W        W17874  28.622  26.203   4.640
45615W        W17875  17.038   2.245  12.034
45616W        W17876  11.723  29.978   4.663
45617W        W17877  12.744   7.948   4.157
45618W        W17878  25.675  21.873  10.665
45619W        W17879   5.833  18.678   1.317
45620W        W17880  40.058  35.317   0.701
45621W        W17881  36.852  19.246   1.146
45622W        W17882  26.540  34.008   0.681
45623W        W17883  16.827  36.197  11.985
45624W        W17884  20.693  29.691  14.932
45625W        W17885  24.913  31.006  14.440
45626W        W17886  37.400  11.381  11.942
45627W        W17887  32.575   9.701   2.385
45628W        W17888   9.608  22.371   2.557
45629W        W17889  24.496   3.308   1.478
45630W        W17890  43.981  30.060   4.483
45631W        W17891  20.716  34.030   1.819
45632W        W17892  14.205  24.270  12.857
45633W        W17893  42.352  12.579   0.310
45634W        W17894  44.266  34.387   3.750
45635W        W17895  19.559  34.710   4.132
45636W        W17896  12.301  14.080   5.011
45637W        W17897  23.533   2.129   4.784
45638W        W17898  41.088  30.926   4.923
45639W        W17899  22.286  16.786  13.374
45640W        W17900   3.949  17.289   3.735
45641W        W17901  44.075  16.345   1.548
45642W        W17902  14.844  22.318  10.234
45643W        W17903  33.443  34.465   0.233
45644W        W17904  18.112  10.115   3.211
45645W        W17905  39.555  18.048  11.928
45646W        W17906  22.605  29.488  11.887
45647W        W17907  15.817  26.675   0.317
45648W        W17908  26.296  43.539   0.375
45649W        W17909  32.060  32.862  10.646
45650W        W17910   1.780   2.013  11.473
45651W        W17911  30.398   3.095   4.599
45652W        W17912  40.866  34.620  13.349
45653W        W17913   9.835  11.925  13.471
45654W        W17914   8.286  21.456   4.229
45655W        W17915  17.825  33.657   1.619
45656W        W17916  21.740  36.939  13.821
45657W        W17917  34.286  37.416  10.697
45658W        W17918  27.906   0.648  12.471
45659W        W17919  29.975  39.309  14.642
45660W        W17920  33.630  24.065  11.344
45661W        W17921   6.468   0.410   0.776
45662W        W17922  32.701  12.309  11.137
45663W        W17923   6.145  10.177   3.697
45664W        W17924  23.961  10.343   1.290
45665W        W17925  39.973  35.143  12.905
45666W        W17926  14.407   0.386  13.949
45667W        W17927  43.386  41.553  10.770
45668W        W17928  35.609   9.315   0.518
45669W        W17929  39.990  31.091  10.693
45670W        W17930  28.008  32.905   0.723
45671W        W17931   2.187  35.335   4.301
45672W        W17932  22.582  20.448  13.465
45673W        W17933  33.364   2.314   5.008
45674W        W17934   8.446  43.214   3.726
45675W        W17935  39.798  21.488  10.720
45676W        W17936  40.046   6.381   2.804
45677W        W17937  13.135  13.049   1.355
45678W        W17938   2.049  15.626  14.984
45679W        W17939  44.002   5.606  12.715
45680W        W17940  18.471  41.786  10.697
45681W        W17941  14.176  26.924  14.886
45682W        W17942  13.918  28.738  12.614
45683W        W17943   5.637  23.199   0.410
45684W        W17944  10.130  24.056  12.982
45685W        W17945  43.372  13.453   3.644
45686W        W17946  39.833  43.438   4.445
45687W        W17947  15.462   6.661  14.383
45688W        W17948  20.006   4.408  14.852
45689W        W17949  40.435  24.013   4.594
45690W        W17950  26.469  14.724   1.428
45691W        W17951  39.596  40.560  12.504
45692W        W17952   3.899   9.698   4.552
45693W        W17953  26.274  39.244   3.760
45694W        W17954  36.992   9.296   3.884
45695W        W17955  27.149   5.362   2.447
45696W        W17956  15.466  13.262  11.928
45697W        W17957  28.006  39.502  14.700
45698W        W17958  16.247  16.106   0.879
45699W        W17959  40.217  23.602   0.854
45700W        W17960  29.161  33.371  10.720
45701W        W17961  14.790  20.480   2.450
45702W        W17962   3.579  42.497   4.824
45703W        W17963  25.453  39.859   1.730
45704W        W17964   5.752  31.433  14.331
45705W        W17965  21.239  41.063   0.360
45706W        W17966   1.421  37.456   4.629
45707W        W17967  21.099  10.676  12.239
45708W        W17968  40.314  38.020  10.757
45709W        W17969  21.117   0.535   4.547
45710W        W17970  26.058   4.169   0.238
45711W        W17971  14.754  14.586  12.892
45712W        W17972  15.047   6.876  13.407
45713W        W17973  32.597   1.344  10.884
45714W        W17974   8.721  19.403   3.593
45715W        W17975  16.114   2.515   0.348
45716W        W17976  22.662  18.052   3.130
45717W        W17977  11.688   0.006  13.614
45718W        W17978  35.139   0.537   3.037
45719W        W17979  18.146  27.871   1.839
45720W        W17980  42.741   8.206   3.068
45721W        W17981  32.828  20.293   2.704
45722W        W17982   1.723  35.216   4.117
45723W        W17983   1.048  17.114  13.831
45724W        W17984  31.110  23.499  13.029
45725W        W17985   2.217  21.179  11.102
45726W        W17986  15.158  31.188   3.289
45727W        W17987   2.440  11.291   4.194
45728W        W17988  30.182  31.930   1.374
45729W        W17989  15.809  43.897   2.184
45730W        W17990  25.444  12.465   2.801
45731W        W17991   7.586  19.984   5.013
45732W        W17992  43.080  43.383  13.428
45733W        W17993  39.122  36.790  10.629
45734W        W17994  17.307  31.269  11.418
45735W        W17995  12.672  32.023   3.713
45736W        W17996  17.092  13.352  11.002
45737W        W17997  24.003  11.347  11.611
45738W        W17998  41.872  42.670  10.593
45739W        W17999   0.256  24.247  12.514
45740W        W18000  37.090  13.344  14.024
45741W        W18001  34.478  23.435   2.622
45742W        W18002   0.165   2.525  14.485
45743W        W18003   8.391  10.721   4.555
45744W        W18004  24.699  33.328  11.969
45745W        W18005   0.853  11.175   2.454
45746W        W18006  25.212  23.155   4.870
45747W        W18007  34.871  23.707   1.258
45748W        W18008   9.107  25.554   1.304
45749W        W18009  42.841   9.724   2.315
45750W        W18010  30.706  13.735   4.104
45751W        W18011   2.719  19.081   2.180
45752W        W18012  13.617  29.440   0.588
45753W        W18013  19.801   1.902   2.080
45754W        W18014   7.344  21.947   0.056
45755W        W18015  16.642  28.574   3.632
45756W        W18016  41.725  16.860  11.623
45757W        W18017  35.274   1.382   0.402
45758W        W18018  10.128  22.205   0.389
45759W        W18019  13.359  40.227   4.114
45760W        W18020   0.746  33.639   5.065
45761W        W18021  35.233  32.088   3.655
45762W        W18022  44.076  40.164   1.893
45763W        W18023  23.493  30.235  10.369
45764W        W18024  30.570   6.440  11.152
45765W        W18025  33.970  25.617  11.966
45766W        W18026  19.091  22.633  11.997
45767W        W18027   9.133  28.077  13.528
45768W        W18028   2.179  36.816  11.641
45769W        W18029  35.567  16.075  13.524
45770W        W18030  12.705  28.970  12.152
45771W        W18031  27.631  40.973  13.463
45772W        W18032  16.274  37.862   3.145
45773W        W18033   3.223   7.094   3.645
45774W        W18034   1.648  39.507   4.593
45775W        W18035   0.065  30.823  11.134
45776W        W18036  13.013   0.483  10.688
45777W        W18037  23.047  14.710  14.207
45778W        W18038   6.475  16.238   4.679
45779W        W18039  36.381  10.942  11.061
45780W        W18040   1.903  37.114  11.986
45781W        W18041  40.770  18.291  12.441
45782W        W18042   4.758  21.072   1.852
45783W        W18043   4.471  23.232   2.206
45784W        W18044  39.265   3.148  11.977
45785W        W18045  23.530   5.299   4.787
45786W        W18046  33.115  19.560   4.997
45787W        W18047  39.525  43.500   3.118
45788W        W18048  11.847  42.065   1.363
45789W        W18049  22.000  25.787   5.396
45790W        W18050  28.693  43.339  11.695
45791W        W18051   1.481  38.472  12.950
45792W        W18052  25.979   9.315  14.061
45793W        W18053  33.842  30.425   2.049
45794W        W18054  11.028   6.846  13.764
45795W        W18055   6.983  17.038   0.335
45796W        W18056   4.947  12.430  11.871
45797W        W18057  36.891  20.393  11.216
45798W        W18058  44.198  17.053   1.870
45799W        W18059   6.252  10.452   0.931
45800W        W18060  32.607  40.713   2.149
45801W        W18061   3.435  24.944  13.140
45802W        W18062  38.506  16.039   1.277
45803W        W18063   0.489   3.663   2.674
45804W        W18064  35.658   3.950   2.808
45805W        W18065  28.599  11.233  12.908
45806W        W18066   7.354   7.257  11.117
45807W        W18067  32.410   6.250   4.544
45808W        W18068  27.272  42.499   2.452
45809W        W18069  23.146  32.552  13.735
45810W        W18070  35.866   8.642  11.445
45811W        W18071  40.560  32.908  11.425
45812W        W18072  34.579   1.972  12.607
45813W        W18073  44.338  24.909  14.044
45814W        W18074  35.994  39.653  11.128
45815W        W18075  11.292  18.640   4.193
45816W        W18076  35.569   5.451  11.250
45817W        W18077  23.746  21.221   1.241
45818W        W18078  40.870  28.908  12.985
45819W        W18079  13.656  25.094  14.934
45820W        W18080  22.252  42.992  11.964
45821W        W18081  30.072   8.138  12.187
45822W        W18082  27.406  22.506   0.318
45823W        W18083   9.328  30.231   4.993
45824W        W18084  40.401  21.084   4.168
45825W        W18085  22.099  17.155  14.351
45826W        W18086  20.654  13.056  12.874
45827W        W18087  33.635  44.376  13.365
45828W        W18088  41.879  31.644  13.530
45829W        W18089  44.557  15.290   2.961
45830W        W18090  16.083  11.077  14.252
45831W        W18091   1.154  32.642   0.389
45832W        W18092  42.472  27.724   4.147
45833W        W18093  43.062  11.129   0.245
45834W        W18094   1.635  20.142   0.871
45835W        W18095   2.680  27.918   1.427
45836W        W18096  30.850  44.006  14.452
45837W        W18097  31.534  36.081  13.981
45838W        W18098  18.476  40.331  14.562
45839W        W18099  42.251   7.462   3.649
45840W        W18100  33.376  44.454   4.256
45841W        W18101  35.932  40.963   3.247
45842W        W18102  34.552  21.219  13.959
45843W        W18103   9.787  39.413  13.232
45844W        W18104  34.332  19.213  11.624
45845W        W18105  20.724  35.622  12.038
45846W        W18106  22.513  44.191   4.649
45847W        W18107   9.963   5.334  14.403
45848W        W18108  44.740  18.472  14.319
45849W        W18109  35.500  20.140  11.407
45850W        W18110  42.831  14.291  10.783
45851W        W18111  14.834  22.579   3.611
45852W        W18112  24.069  36.301   1.908
45853W        W18113  34.340  37.499   0.787
45854W        W18114  38.835  33.589   0.672
45855W        W18115  40.346  27.370   4.368
45856W        W18116  21.771  36.041  13.358
45857W        W18117   0.236  11.693   1.901
45858W        W18118  15.693  28.446   1.722
45859W        W18119  33.065  31.103   2.031
45860W        W18120   7.335  11.900   4.110
45861W        W18121  38.166  18.729  11.076
45862W        W18122  18.213  21.317   1.751
45863W        W18123  20.213   6.078  12.446
45864W        W18124  40.339  14.428   4.977
45865W        W18125   2.290  26.685  11.192
45866W        W18126  33.494   1.395   0.901
45867W        W18127  41.227  35.156  12.510
45868W        W18128  21.246  33.451   2.296
45869W        W18129  28.417  28.907   4.249
45870W        W18130  38.604  41.052   3.419
45871W        W18131  18.996  10.543   0.370
45872W        W18132  18.579  15.682   4.313
45873W        W18133  42.634  24.738   2.169
45874W        W18134  21.348  21.179   9.788
45875W        W18135  25.963  36.475   1.824
45876W        W18136  37.741  16.738   2.820
45877W        W18137  10.193  41.396  10.907
45878W        W18138  34.216  36.547   1.135
45879W        W18139  18.203  16.753  13.853
45880W        W18140  39.765  20.645  10.739
45881W        W18141  17.581  30.581  12.521
45882W        W18142  19.865   8.868  12.352
45883W        W18143  37.677  23.529   2.042
45884W        W18144  17.650  35.589   3.444
45885W        W18145  24.046  24.169  11.368
45886W        W18146  32.117   4.223  14.106
45887W        W18147  39.019   0.473  13.827
45888W        W18148  12.598  19.013   3.212
45889W        W18149  25.462  20.051   4.774
45890W        W18150  31.534   5.210   3.360
45891W        W18151  40.624  21.552  13.383
45892W        W18152  24.781   1.286   0.969
45893W        W18153  21.842   8.711   1.521
45894W        W18154   7.315  28.815  14.835
45895W        W18155   4.615  23.724   2.169
45896W        W18156  10.280  31.025   3.649
45897W        W18157  17.316   3.091   4.511
45898W        W18158  41.157  21.739  12.487
45899W        W18159  22.220  17.259   4.369
45900W        W18160  15.055  13.700  10.650
45901W        W18161  29.928  23.859  13.324
45902W        W18162  35.043  31.395  11.447
45903W        W18163  15.692  37.568   3.711
45904W        W18164  39.583  22.549  13.868
45905W        W18165  12.140  30.369   1.122
45906W        W18166   1.155   3.321   3.184
45907W        W18167  28.150   4.850  13.363
45908W        W18168   3.863   0.526   0.305
45909W        W18169   3.961  42.393  11.659
45910W        W18170  35.576  33.974  12.111
45911W        W18171  33.986  30.464  10.814
45912W        W18172  31.425   7.818  11.417
45913W        W18173  36.091  42.525  14.441
45914W        W18174  28.165  14.725  13.548
45915W        W18175  29.696   0.505   1.383
45916W        W18176  37.470  27.143  13.081
45917W        W18177  10.353  25.096  14.355
45918W        W18178   5.298  36.368   3.213
45919W        W18179  22.721  43.670   4.614
45920W        W18180  44.114  23.244  14.005
45921W        W18181   5.817   1.518  12.444
45922W        W18182  31.962  32.600  12.392
45923W        W18183  40.987   7.352  11.151
45924W        W18184  34.417  38.093   4.110
45925W        W18185  40.426   3.367   0.018
45926W        W18186  21.304  32.006   3.562
45927W        W18187   3.944  23.930  12.557
45928W        W18188   1.691  11.781   0.758
45929W        W18189  30.492  20.099   3.733
45930W        W18190  31.715  29.721   3.161
45931W        W18191  39.502  13.629   1.305
45932W        W18192  19.250  12.249  11.152
45933W        W18193  25.652   5.006   2.051
45934W        W18194  17.777  18.390   0.303
45935W        W18195  39.737  17.348  14.114
45936W        W18196  36.670  10.673   3.559
45937W        W18197  35.479   9.747  12.906
45938W        W18198  22.978  26.130  11.955
45939W        W18199   6.451   9.785  12.746
45940W        W18200   3.020   3.186   1.241
45941W        W18201   7.984  41.956  14.322
45942W        W18202  18.209  24.262  11.603
45943W        W18203   2.847  39.790   2.146
45944W        W18204  41.315  27.771  13.554
45945W        W18205  29.094  29.520   2.889
45946W        W18206  44.068  43.963  12.032
45947W        W18207  34.956  29.824  13.382
45948W        W18208   6.317   2.561   2.266
45949W        W18209  34.033  23.007  10.661
45950W        W18210   4.338   9.192  14.025
45951W        W18211  39.531  38.484   2.554
45952W        W18212   1.985  16.056   3.828
45953W        W18213  14.408  20.978  10.812
45954W        W18214  35.553  22.403  12.105
45955W        W18215   1.840  42.337  10.727
45956W        W18216   2.164   1.918  14.949
45957W        W18217  38.303   7.414   1.708
45958W        W18218  28.447  24.880   3.406
45959W        W18219  12.321  16.071   2.296
45960W        W18220  21.249  36.905  11.194
45961W        W18221  30.885  10.185  11.551
45962W        W18222   9.228  40.549   4.749
45963W        W18223   0.871   3.101  10.008
45964W        W18224  11.440  13.850   1.502
45965W        W18225  13.275  13.632  12.327
45966W        W18226  32.361  36.572  13.788
45967W        W18227   7.796  24.696   1.699
45968W        W18228   4.864  14.040  14.951
45969W        W18229  18.787  30.082   0.736
45970W        W18230   8.392  33.934  11.253
45971W        W18231   3.844  42.406  14.044
45972W        W18232  40.801  43.534  12.471
45973W        W18233  39.790   6.116  11.421
45974W        W18234  31.917  34.344   1.673
45975W        W18235  13.278  12.620  13.991
45976W        W18236  15.976  12.152   4.853
45977W        W18237   0.799  41.465   3.639
45978W        W18238  44.006  17.672  13.884
45979W        W18239  38.382  43.828   3.853
45980W        W18240  19.559  26.411   3.255
45981W        W18241  17.552  44.997   3.748
45982W        W18242   6.712  27.316  14.685
45983W        W18243  22.414   4.604   1.213
45984W        W18244  40.638   8.200   3.727
45985W        W18245  22.444   8.147  14.860
45986W        W18246  24.027  39.801  10.555
45987W        W18247   8.875  41.263  11.158
45988W        W18248  29.574  38.753   3.152
45989W        W18249  36.819   0.145   2.412
45990W        W18250  13.718  38.483   4.183
45991W        W18251  33.498  38.297  13.581
45992W        W18252   4.581  29.083   3.814
45993W        W18253  10.390  38.744  11.879
45994W        W18254  40.399  35.634   4.910
45995W        W18255  25.978   2.305  14.337
45996W        W18256  44.897  38.944  13.006
45997W        W18257  42.034  16.640  14.269
45998W        W18258   8.700   0.214   1.324
45999W        W18259  19.784  11.645   0.932
46000W        W18260   9.448  24.180  13.823
46001W        W18261  32.183  43.044   3.832
46002W        W18262  28.106   6.664  13.110
46003W        W18263  31.196   2.794   3.394
46004W        W18264  30.361   1.953   3.782
46005W        W18265   9.136   4.408   1.613
46006W        W18266  30.544   9.716  14.497
46007W        W18267  44.679  34.291   0.352
46008W        W18268  14.054  24.717  11.553
46009W        W18269  37.965  43.722   0.111
46010W        W18270  36.657  20.665   0.914
46011W        W18271  15.629  30.058  13.294
46012W        W18272  20.494  13.751  12.474
46013W        W18273  39.278  20.018   0.922
46014W        W18274  18.844  40.169   0.946
46015W        W18275  10.282  15.623   2.568
46016W        W18276  34.418  14.308   4.632
46017W        W18277  34.837  24.723   1.507
46018W        W18278  40.691  20.154   1.400
46019W        W18279  25.577   7.326   0.792
46020W        W18280   0.768   8.283  13.003
46021W        W18281  16.650  33.193   4.701
46022W        W18282  41.899   9.747  10.681
46023W        W18283  34.453  23.074  13.265
46024W        W18284  41.678  43.080   4.118
46025W        W18285  39.621  18.839   1.240
46026W        W18286  13.838  40.600  14.363
46027W        W18287  27.666  34.082  10.544
46028W        W18288  43.358   1.487  10.967
46029W        W18289  39.914  32.419  12.092
46030W        W18290  18.751  42.716   1.668
46031W        W18291   8.871   3.215   3.836
46032W        W18292  20.244  41.242  12.632
46033W        W18293  25.577   4.219   1.992
46034W        W18294  26.535  28.209  12.445
46035W        W18295  31.493  42.466  10.812
46036W        W18296  16.743  43.008  14.968
46037W        W18297   9.706   9.826  13.352
46038W        W18298  44.066  27.328  11.146
46039W        W18299  27.480  36.639  13.090
46040W        W18300  43.850  28.750  13.400
46041W        W18301  12.062  24.943  10.945
46042W        W18302  32.143  24.796  12.448
46043W        W18303  28.381  42.014  11.098
46044W        W18304  31.388  24.788  11.170
46045W        W18305  38.272   3.386  11.960
46046W        W18306  19.374  23.179   4.212
46047W        W18307  41.015  13.821   1.329
46048W        W18308  31.694  44.303  14.340
46049W        W18309  31.047  18.851  14.585
46050W        W18310  41.936  33.557   2.842
46051W        W18311  41.490  27.691   1.727
46052W        W18312  43.906  38.828  14.318
46053W        W18313  10.845  13.361  14.698
46054W        W18314  27.555  16.815  12.167
46055W        W18315   8.102   3.922  10.969
46056W        W18316  36.574  24.195   3.570
46057W        W18317   5.673   8.577   4.178
46058W        W18318  43.790  25.642   3.891
46059W        W18319  24.585   0.857  14.894
46060W        W18320  43.732  41.704  11.156
46061W        W18321  35.945  14.654   3.404
46062W        W18322  31.420  13.769   2.731
46063W        W18323  42.315  20.566   3.187
46064W        W18324   5.961  40.089   2.536
46065W        W18325  29.110  11.371  14.300
46066W        W18326  14.664  28.209   0.294
46067W        W18327   4.717  44.912  13.094
46068W        W18328  25.551  18.627   0.770
46069W        W18329  12.930  42.859  14.978
46070W        W18330   0.929  25.655   1.876
46071W        W18331  31.175  36.794  11.575
46072W        W18332  25.241  44.249   1.630
46073W        W18333   0.056  21.764   2.870
46074W        W18334  26.493   6.306  14.279
46075W        W18335  31.780  44.839  14.979
46076W        W18336  17.476  22.926  12.551
46077W        W18337  10.920  37.034  13.911
46078W        W18338  43.951   8.826   3.370
46079W        W18339  25.187  27.968   3.211
46080W        W18340  44.940  28.204   4.524
46081W        W18341  38.995  10.388  11.430
46082W        W18342  25.010   8.913   2.692
46083W        W18343  36.757  16.131  13.957
46084W        W18344  40.608  37.020   4.034
46085W        W18345  44.922  43.575  10.476
46086W        W18346  42.488  40.590  12.538
46087W        W18347  31.503  10.827   3.313
46088W        W18348  14.648  38.810   1.923
46089W        W18349   4.228  22.209   4.576
46090W        W18350  35.323   1.824  11.929
46091W        W18351  29.692  20.111  13.938
46092W        W18352  38.750  37.367   3.828
46093W        W18353  31.983  15.384   1.675
46094W        W18354  12.325   3.186   4.187
46095W        W18355  20.438   2.248  11.895
46096W        W18356   9.819  16.829   0.933
46097W        W18357  33.527  20.601   0.188
46098W        W18358  30.774  10.328   0.883
46099W        W18359  17.081   4.877  11.936
46100W        W18360  34.580   7.091   4.148
46101W        W18361   0.675   2.783  11.773
46102W        W18362  10.914  24.163   4.169
46103W        W18363   2.682   9.824   4.746
46104W        W18364  18.154  32.922  12.586
46105W        W18365  44.051   0.424   1.904
46106W        W18366   1.186  44.943  14.523
46107W        W18367  22.211  24.487   2.748
46108W        W18368  41.088  17.486  11.926
46109W        W18369   0.489  11.698   0.050
46110W        W18370  12.107  18.769   4.210
46111W        W18371  25.168   9.730  14.300
46112W        W18372   5.136  12.540   4.134
46113W        W18373   3.858  40.895  12.478
46114W        W18374  14.108  25.906  12.289
46115W        W18375   6.864  11.637  14.215
46116W        W18376  16.222   7.644   2.923
46117W        W18377   7.483   9.180  14.244
46118W        W18378  12.186   5.885  13.879
46119W        W18379  12.171  24.763  13.608
46120W        W18380   3.031  37.037   3.742
46121W        W18381  25.638  15.666   1.675
46122W        W18382   4.886  33.093   1.581
46123W        W18383  35.109  16.328  13.494
46124W        W18384  19.212  43.511   2.813
46125W        W18385  34.553   9.739   4.715
46126W        W18386  35.576  14.337   4.683
46127W        W18387  17.686  33.671   0.728
46128W        W18388  12.646  39.004   1.801
46129W        W18389  11.758  41.613   1.621
46130W        W18390  42.778  24.942   3.878
46131W        W18391  30.612  39.086  11.611
46132W        W18392  44.855  10.856   1.746
46133W        W18393  37.362   5.830  14.317
46134W        W18394  30.493  44.276   3.640
46135W        W18395  19.722  37.382  14.972
46136W        W18396  18.828  29.734  14.559
46137W        W18397  22.531  34.379  11.419
46138W        W18398  15.533  31.978   0.981
46139W        W18399  21.648  12.764   2.545
46140W        W18400  30.445  41.437  11.600
46141W        W18401   8.817  24.667   0.873
46142W        W18402   5.170  37.053   2.572
46143W        W18403  36.708  28.698  14.837
46144W        W18404  19.374   3.098   2.379
46145W        W18405  37.562  19.326   4.378
46146W        W18406   3.776  44.341   3.677
46147W        W18407  21.077  35.929  12.471
46148W        W18408   9.398  17.493   1.952
46149W        W18409  33.809   1.789   0.409
46150W        W18410  28.438  23.027  12.022
46151W        W18411   2.766  16.221   0.303
46152W        W18412  39.627  42.415   2.249
46153W        W18413  33.660  12.893  13.163
46154W        W18414  31.388  15.579   4.086
46155W        W18415   1.491   4.988  10.942
46156W        W18416  16.123  37.456   3.442
46157W        W18417  19.836  24.787  10.710
46158W        W18418  29.163   8.886  14.445
46159W        W18419  10.359  43.339   0.329
46160W        W18420  43.731   5.286   3.294
46161W        W18421   7.131  29.976  13.522
46162W        W18422  43.951  23.584   0.840
46163W        W18423  26.445  26.628  14.581
46164W        W18424   0.572  39.577  13.397
46165W        W18425  12.339  20.682   4.553
46166W        W18426  38.363  17.534   2.723
46167W        W18427  32.018  14.219  13.679
46168W        W18428  37.571  30.766   4.538
46169W        W18429  40.145  42.025  14.831
46170W        W18430  30.290  24.656  11.956
46171W        W18431   3.149  16.134  11.432
46172W        W18432  14.840   8.285  14.790
46173W        W18433   1.733  39.545  11.026
46174W        W18434  37.646  33.449  13.304
46175W        W18435  37.929   2.215   0.491
46176W        W18436  35.498  41.820  14.543
46177W        W18437  10.152  22.943  13.883
46178W        W18438  22.099  22.033  11.667
46179W        W18439   0.966   2.437   4.639
46180W        W18440  33.804  14.178  13.443
46181W        W18441   9.869   3.570  12.720
46182W        W18442   5.625  23.043   3.613
46183W        W18443  20.611  14.745  11.723
46184W        W18444   4.325   2.136   2.599
46185W        W18445   8.616  11.429   5.056
46186W        W18446   2.424   3.188  11.502
46187W        W18447  30.972  14.061  13.604
46188W        W18448  24.305  34.428  12.543
46189W        W18449  13.301  22.464  14.528
46190W        W18450   3.420  11.704   4.171
46191W        W18451  26.949  35.427   3.721
46192W        W18452  28.615  33.405   0.008
46193W        W18453  11.291  39.279  10.808
46194W        W18454  21.511  33.005   2.173
46195W        W18455  19.833  19.939  10.781
46196W        W18456  22.163  33.873  13.032
46197W        W18457   6.361  11.847   4.155
46198W        W18458  22.444  18.730  14.986
46199W        W18459  26.470  34.471   0.947
46200W        W18460  33.722  41.842   5.331
46201W        W18461  30.666  15.360   0.867
46202W        W18462  22.380  29.208   0.484
46203W        W18463  34.934   7.197   3.290
46204W        W18464  18.002   3.438  14.803
46205W        W18465  20.230  40.608   2.693
46206W        W18466  25.242  10.079   0.077
46207W        W18467  27.938  33.656  12.125
46208W        W18468  27.804  26.501   4.556
46209W        W18469   8.011  41.973  13.363
46210W        W18470   3.312  44.867   1.488
46211W        W18471   5.010  28.378   3.225
46212W        W18472  24.743  34.100  12.418
46213W        W18473  42.013   2.841  13.590
46214W        W18474  12.745  11.088   2.696
46215W        W18475  23.104  18.806   1.777
46216W        W18476  31.487   6.830  14.801
46217W        W18477   3.281  31.410  11.227
46218W        W18478  32.448  37.488  11.554
46219W        W18479  12.635   4.730  13.670
46220W        W18480  32.016   7.896   4.501
46221W        W18481  13.269  34.202  14.297
46222W        W18482  13.468  12.833   4.461
46223W        W18483  20.221  37.838  12.892
46224W        W18484   3.460  36.148   3.315
46225W        W18485  20.794  44.967  12.863
46226W        W18486  32.031  13.725   1.507
46227W        W18487   2.437  11.209  14.787
46228W        W18488  38.542   5.591   3.231
46229W        W18489  27.435  38.801  14.739
46230W        W18490  22.137  16.061   2.337
46231W        W18491  14.947  18.674   4.886
46232W        W18492   4.029   1.148  12.975
46233W        W18493   2.901  41.795   1.308
46234W        W18494  31.964   1.645   3.458
46235W        W18495  29.407   9.708   4.659
46236W        W18496   2.684  17.532  12.023
46237W        W18497  23.524  16.257  12.714
46238W        W18498  16.359   4.971   1.502
46239W        W18499  26.225  28.059  14.377
46240W        W18500  10.957  33.133  11.100
46241W        W18501  25.457   6.351   2.179
46242W        W18502   8.961  17.297   0.362
46243W        W18503   4.323   2.689  13.759
46244W        W18504  36.485  32.537  12.509
46245W        W18505  39.493   0.224   2.745
46246W        W18506   3.690   5.721  12.556
46247W        W18507   6.823  37.934   1.507
46248W        W18508  38.791  11.468   4.584
46249W        W18509  39.069   8.669   1.259
46250W        W18510  23.691  43.555  12.014
46251W        W18511  13.655   1.674   3.698
46252W        W18512  38.607  29.543  12.610
46253W        W18513  33.643  17.792  12.038
46254W        W18514  31.900  33.973   2.381
46255W        W18515  38.468  28.349  13.178
46256W        W18516  12.069  15.807  12.440
46257W        W18517  34.097  25.258  10.616
46258W        W18518  25.706  13.429  14.483
46259W        W18519  32.462  41.705   2.216
46260W        W18520  19.022  21.786   3.268
46261W        W18521   2.252  25.044   1.212
46262W        W18522  37.284  21.509  11.377
46263W        W18523  12.714  40.928   3.432
46264W        W18524  11.272  15.672  11.484
46265W        W18525  25.039  26.979   0.419
46266W        W18526  44.548  21.694   2.941
46267W        W18527  13.237  43.414  14.332
46268W        W18528  26.603  27.235  14.409
46269W        W18529   1.520  14.638   2.332
46270W        W18530  39.363  26.656  11.395
46271W        W18531  31.958  11.288   1.722
46272W        W18532   2.754  39.377  14.010
46273W        W18533  25.750   0.463  11.544
46274W        W18534  20.062  22.721  14.387
46275W        W18535  37.757  12.875   3.619
46276W        W18536   0.744   9.087   2.333
46277W        W18537  13.866  10.754  12.789
46278W        W18538  19.292  18.750   0.875
46279W        W18539  23.663   6.341   3.927
46280W        W18540   7.704   2.000   0.388
46281W        W18541  31.551  25.724   0.418
46282W        W18542   3.481  33.922  11.987
46283W        W18543  40.717  23.616  10.337
46284W        W18544   2.242  39.711  14.883
46285W        W18545  17.778  30.611   3.577
46286W        W18546   3.236  44.984   3.106
46287W        W18547  15.337   8.832   3.186
46288W        W18548  33.913  12.329   2.963
46289W        W18549  37.249  18.577  14.697
46290W        W18550  12.153  33.522   4.639
46291W        W18551   6.653  22.150   3.840
46292W        W18552   2.862  29.473   0.548
46293W        W18553  17.590  40.746   1.805
46294W        W18554  23.156  34.861  12.960
46295W        W18555  22.491  38.590   2.322
46296W        W18556   3.649  32.137   1.164
46297W        W18557  35.538  19.229   4.508
46298W        W18558  20.116  39.494   1.258
46299W        W18559  22.549  39.528  13.792
46300W        W18560   6.185  29.880   2.479
46301W        W18561  30.990  22.492  13.064
46302W        W18562  35.577   1.391   4.521
46303W        W18563  28.213  12.162   1.838
46304W        W18564  42.321  36.847   2.355
46305W        W18565  38.922  14.071  11.036
46306W        W18566   2.350  25.641  11.374
46307W        W18567   7.416   3.680   3.786
46308W        W18568  41.803  42.033  13.962
46309W        W18569   6.255  29.516   9.957
46310W        W18570  23.391  44.455   4.649
46311W        W18571  20.769  18.355   2.429
46312W        W18572  19.088  32.144  13.060
46313W        W18573   3.822  31.694   1.874
46314W        W18574   1.797  16.368   0.605
46315W        W18575  10.291  14.053  13.525
46316W        W18576  15.099  12.136   2.784
46317W        W18577  18.557  16.041  11.756
46318W        W18578  38.369   9.702  10.694
46319W        W18579  20.955  14.596  10.911
46320W        W18580   2.402  36.120  13.691
46321W        W18581  36.318  12.505  13.427
46322W        W18582  15.723  44.585   3.844
46323W        W18583  12.902   5.396   3.569
46324W        W18584  10.266  39.570  12.500
46325W        W18585  23.181  41.725   4.872
46326W        W18586  38.486   7.488   2.342
46327W        W18587  33.015  14.006  12.529
46328W        W18588  23.655   2.727  12.861
46329W        W18589  21.081   7.507   2.883
46330W        W18590  35.507  13.641  13.294
46331W        W18591  31.327   1.238  14.048
46332W        W18592   9.435  25.957   1.136
46333W        W18593  35.098  17.427  12.904
46334W        W18594  18.576  26.452  13.898
46335W        W18595  24.031   1.078   3.029
46336W        W18596   6.679  20.516  14.328
46337W        W18597   4.107   5.931   3.993
46338W        W18598  24.689  26.201  11.777
46339W        W18599  34.944   6.317  10.047
46340W        W18600  27.236   6.444  14.786
46341W        W18601  40.423  15.173  14.988
46342W        W18602  18.031  21.188  12.371
46343W        W18603  38.041  18.619   3.452
46344W        W18604  16.977   9.831  11.879
46345W        W18605  41.669  16.843   2.903
46346W        W18606  31.093  43.566  14.330
46347W        W18607   9.198   2.201   1.724
46348W        W18608   7.249  30.464  13.497
46349W        W18609   4.804  10.908   3.853
46350W        W18610  40.244   0.208  10.640
46351W        W18611  38.878   4.017  12.124
46352W        W18612  23.699  22.181   4.184
46353W        W18613   8.153  24.471  11.667
46354W        W18614   7.953  19.115   4.716
46355W        W18615  21.810   2.212  12.933
46356W        W18616   5.228  44.922   1.158
46357W        W18617  26.110  31.197   1.196
46358W        W18618  38.035  23.738  11.509
46359W        W18619   0.794   1.915   4.542
46360W        W18620   5.894  31.487   1.747
46361W        W18621  21.190  14.808   2.644
46362W        W18622  30.127  31.948  11.185
46363W        W18623  30.103  33.367   1.293
46364W        W18624  15.321  38.302  14.123
46365W        W18625  35.021   8.194  11.608
46366W        W18626   0.895  33.527   0.975
46367W        W18627  26.088   2.796   3.155
46368W        W18628  27.309  28.064   4.202
46369W        W18629   4.926  15.263   1.312
46370W        W18630   8.309   7.551  14.875
46371W        W18631   2.728  13.618  10.731
46372W        W18632  43.256  41.434  12.026
46373W        W18633   9.238  32.909  13.892
46374W        W18634  40.469  39.432  10.595
46375W        W18635  23.200  16.080   1.817
46376W        W18636  39.925  21.634  12.051
46377W        W18637  40.553  13.815   2.353
46378W        W18638  37.074  42.782   1.683
46379W        W18639  16.855  41.123  14.436
46380W        W18640  19.594  29.342   4.206
46381W        W18641  31.824  26.403  10.056
46382W        W18642   2.495   2.936  11.009
46383W        W18643   3.416  19.641  14.535
46384W        W18644  21.796   8.571   4.812
46385W        W18645   1.951  17.739   0.884
46386W        W18646  23.302  34.371   3.605
46387W        W18647  39.373  43.520  10.903
46388W        W18648  18.045  13.367   1.241
46389W        W18649  10.863  39.947   3.300
46390W        W18650  40.566  24.657  14.100
46391W        W18651  13.259  10.874  11.276
46392W        W18652  13.494  16.440   9.621
46393W        W18653  30.677  12.658   1.806
46394W        W18654  15.099  18.702   2.656
46395W        W18655  25.204  12.364  13.918
46396W        W18656  36.055  34.450  14.557
46397W        W18657  21.355  30.970   0.032
46398W        W18658  22.126  19.011   2.303
46399W        W18659  10.161  42.563  14.787
46400W        W18660  43.186  27.605   1.217
46401W        W18661   4.887  39.885   1.216
46402W        W18662  14.304  30.400  13.411
46403W        W18663  35.649  31.520   2.014
46404W        W18664   7.148  10.256   4.642
46405W        W18665  42.437  15.874  14.087
46406W        W18666  35.854  21.537  10.277
46407W        W18667  34.375  20.315   4.633
46408W        W18668  26.031  42.662   5.149
46409W        W18669  30.366   0.280  12.988
46410W        W18670  13.358  42.482  14.353
46411W        W18671  13.012   5.160  12.386
46412W        W18672   9.727  41.359  11.118
46413W        W18673  29.700  31.465  11.839
46414W        W18674   0.637  16.614  14.282
46415W        W18675  36.658  28.416   2.894
46416W        W18676  27.687  19.095  11.506
46417W        W18677  40.946  35.578   3.305
46418W        W18678   5.317  42.375  12.879
46419W        W18679  18.273  17.054   2.666
46420W        W18680   7.297  26.907  14.996
46421W        W18681   7.898  36.401   3.943
46422W        W18682  36.832   6.259   2.129
46423W        W18683  25.619  28.561   4.789
46424W        W18684  30.184  19.161   2.831
46425W        W18685  37.437  14.294   1.291
46426W        W18686   4.297  42.768   1.213
46427W        W18687  29.556  14.654   1.452
46428W        W18688  17.509  36.862  13.113
46429W        W18689  32.577  42.409  10.681
46430W        W18690  23.784  22.336   2.698
46431W        W18691  33.316  16.358   3.712
46432W        W18692   3.872  24.061   4.293
46433W        W18693   7.900  37.366   3.054
46434W        W18694  31.935   1.894  13.459
46435W        W18695  27.618  25.437   0.621
46436W        W18696  36.385   7.693  13.340
46437W        W18697  44.791  26.986   0.697
46438W        W18698  28.018   9.639   3.445
46439W        W18699   8.612  12.111   3.418
46440W        W18700  32.089  24.239   1.793
46441W        W18701  34.976  14.714  12.757
46442W        W18702  27.769  26.294  13.505
46443W        W18703  11.724  23.111   3.901
46444W        W18704  18.687  23.217  13.952
46445W        W18705  29.559  41.227   1.883
46446W        W18706  12.606   3.500   3.878
46447W        W18707  41.525  40.133   4.194
46448W        W18708  26.946  31.042   0.320
46449W        W18709  36.367  24.765   1.346
46450W        W18710  44.881  17.395   0.352
46451W        W18711   6.650  25.167  13.522
46452W        W18712  40.045   0.385   0.289
46453W        W18713  44.975  37.902  12.999
46454W        W18714  37.233   8.043   3.596
46455W        W18715  41.936  27.110  13.762
46456W        W18716  10.147  20.036  13.041
46457W        W18717  35.993   2.511   0.545
46458W        W18718  12.899  41.297   4.316
46459W        W18719  15.721  27.988   3.031
46460W        W18720  31.959  42.350  11.049
46461W        W18721  29.430  40.032   2.290
46462W        W18722  34.849  13.428   2.698
46463W        W18723  44.042  13.225  13.840
46464W        W18724   8.297  30.735   2.097
46465W        W18725  28.548  41.314  14.085
46466W        W18726  43.609  17.316  13.843
46467W        W18727  33.681  38.628  11.825
46468W        W18728  38.732   9.756   2.401
46469W        W18729  36.543   5.043   9.970
46470W        W18730  27.833  31.837  10.973
46471W        W18731  41.260   8.586   3.703
46472W        W18732  44.015   2.778  10.822
46473W        W18733  41.903   5.580   4.774
46474W        W18734  23.952  26.232  12.341
46475W        W18735  14.073  30.890  11.898
46476W        W18736  25.138   6.186  13.954
46477W        W18737  38.818  17.026  12.157
46478W        W18738  26.019  27.934   3.224
46479W        W18739  14.565  17.526  10.499
46480W        W18740   4.852  27.124   2.366
46481W        W18741   1.693  15.386  10.861
46482W        W18742  11.224  30.260   1.249
46483W        W18743   5.020   4.329  10.244
46484W        W18744  43.982  40.956   2.332
46485W        W18745  36.934  25.106   3.092
46486W        W18746  22.116  18.105   1.918
46487W        W18747  43.988  40.282   0.321
46488W        W18748  33.320  33.504   3.287
46489W        W18749  30.216  20.715  11.969
46490W        W18750  39.446  23.257  13.459
46491W        W18751   9.834  36.495  11.153
46492W        W18752  39.099  43.359  12.866
46493W        W18753  40.380   3.431   1.466
46494W        W18754  36.582  13.231  12.548
46495W        W18755  28.484  43.520  14.025
46496W        W18756  43.511  41.942  14.940
46497W        W18757   0.071  40.113   1.315
46498W        W18758  19.767   1.966  14.892
46499W        W18759  31.299  36.748   0.655
46500W        W18760  36.667  18.735   3.745
46501W        W18761   0.900  38.567   1.406
46502W        W18762  38.795  10.928   4.105
46503W        W18763  22.077  41.696   2.638
46504W        W18764  35.467   9.890  14.054
46505W        W18765  24.163  23.183   2.474
46506W        W18766   4.235  18.299  11.652
46507W        W18767  16.304  10.041   0.886
46508W        W18768  21.624  14.137  14.866
46509W        W18769  34.475   6.726   0.969
46510W        W18770  30.487  25.984  14.993
46511W        W18771  29.554  36.346   3.653
46512W        W18772  34.798  16.517  10.650
46513W        W18773  20.194  19.236   0.758
46514W        W18774  14.859  29.987   0.141
46515W        W18775  18.508  36.960  10.962
46516W        W18776   8.716  41.039   0.709
46517W        W18777  31.873  40.785  11.005
46518W        W18778  14.287   9.247   3.189
46519W        W18779  41.310  31.607  13.930
46520W        W18780  26.895  16.261  12.978
46521W        W18781  16.692  44.527  14.692
46522W        W18782  12.707  40.780  13.066
46523W        W18783  32.384  29.758  11.975
46524W        W18784  12.916  44.789   2.257
46525W        W18785   2.490  44.991   1.820
46526W        W18786  14.156  16.357  13.405
46527W        W18787   0.004  17.087  11.656
46528W        W18788  12.635  31.111   1.816
46529W        W18789  27.086   5.796   2.141
46530W        W18790   6.361  10.425  12.077
46531W        W18791  40.761  27.487   4.649
46532W        W18792  28.480  25.991  13.883
46533W        W18793  28.693  23.245   2.280
46534W        W18794   0.774   0.293   2.304
46535W        W18795  24.635  33.100  11.501
46536W        W18796  27.527   2.951   1.260
46537W        W18797  22.163  36.958  11.139
46538W        W18798  32.287   0.965   1.634
46539W        W18799  33.461   3.826  10.174
46540W        W18800  28.282  43.201  10.308
46541W        W18801  10.110   9.175  12.348
46542W        W18802  14.748  44.374   0.998
46543W        W18803  41.495  21.341  14.373
46544W        W18804   6.207  29.979   1.447
46545W        W18805  38.777  33.167   9.882
46546W        W18806  16.032  15.011  14.392
46547W        W18807  25.208  33.999  11.569
46548W        W18808  29.441  42.319  10.686
46549W        W18809  21.041   5.994   4.609
46550W        W18810  25.699  31.442   1.621
46551W        W18811   7.989  19.777  13.344
46552W        W18812   6.371  12.576  10.650
46553W        W18813  27.885  42.113   9.911
46554W        W18814  39.302   3.676  13.895
46555W        W18815  34.435  10.573  12.492
46556W        W18816   7.899  42.823   4.989
46557W        W18817  33.000  34.931   4.398
46558W        W18818  11.832  12.256   1.425
46559W        W18819  41.848  31.787  11.969
46560W        W18820  27.941   2.634   2.972
46561W        W18821  38.421  28.208  12.145
46562W        W18822  39.735  41.206   1.794
46563W        W18823   8.552  33.100   2.826
46564W        W18824   5.916   8.390  14.935
46565W        W18825   9.973  17.318  11.027
46566W        W18826  25.527  40.271  12.872
46567W        W18827   4.784   0.883   2.295
46568W        W18828  36.410  12.158   0.027
46569W        W18829  30.662  17.084   4.554
46570W        W18830   5.424  14.646   1.145
46571W        W18831  21.280   9.540   4.051
46572W        W18832  41.683  10.775   2.195
46573W        W18833  28.493  30.898  13.414
46574W        W18834  10.129  24.125   2.207
46575W        W18835  37.091   1.965   2.334
46576W        W18836  33.130  30.073   4.079
46577W        W18837  38.133   0.333   0.807
46578W        W18838  25.702   8.410   3.888
46579W        W18839  29.580   8.870   3.277
46580W        W18840  41.318  31.867  11.959
46581W        W18841  10.118  11.300  11.633
46582W        W18842  30.800  41.883  11.652
46583W        W18843  26.646  38.013  13.004
46584W        W18844  41.500  26.580  10.629
46585W        W18845  23.070  19.586   1.283
46586W        W18846   8.171  13.896   3.261
46587W        W18847  23.957  15.528  13.589
46588W        W18848   6.712  32.673  11.229
46589W        W18849   6.318  11.815  12.016
46590W        W18850  39.030  30.236  13.349
46591W        W18851  25.162  44.524   2.660
46592W        W18852  40.074   5.230  11.565
46593W        W18853  37.367   9.812  12.501
46594W        W18854  33.186  22.430  11.113
46595W        W18855  39.974  32.497   4.125
46596W        W18856  41.438   7.513   0.834
46597W        W18857   6.716  37.097   3.766
46598W        W18858   6.453  21.334  10.040
46599W        W18859  26.174  32.958   2.060
46600W        W18860  12.300   7.668   4.208
46601W        W18861   7.728  36.402  12.027
46602W        W18862  34.522   6.316  12.642
46603W        W18863  34.592  30.903   2.340
46604W        W18864  17.990  43.694  11.791
46605W        W18865  18.335   8.864   0.273
46606W        W18866   3.400  32.147  13.384
46607W        W18867  30.017   1.050   1.779
46608W        W18868  26.462  27.509   2.376
46609W        W18869   6.064  24.782  12.005
46610W        W18870  15.267  35.383  13.703
46611W        W18871  20.907   2.833  14.800
46612W        W18872  14.650  28.432   5.127
46613W        W18873  19.235  33.943  12.334
46614W        W18874  25.009  29.162   4.340
46615W        W18875  34.477  18.040  11.892
46616W        W18876   5.294  19.288   2.818
46617W        W18877  12.331  22.192  13.755
46618W        W18878  24.963  19.210   3.020
46619W        W18879   4.373  36.527   0.015
46620W        W18880   9.319   7.963   0.390
46621W        W18881  20.925  31.633   3.703
46622W        W18882  42.173  32.660  14.687
46623W        W18883  15.219   0.482  10.962
46624W        W18884  34.404  28.926  11.044
46625W        W18885  16.672  30.858  11.130
46626W        W18886  26.120  41.803  13.593
46627W        W18887   5.831   9.648   4.294
46628W        W18888  32.311   8.603   4.274
46629W        W18889   0.912  22.625   3.275
46630W        W18890  27.294  36.078   5.037
46631W        W18891   8.882  25.763   1.799
46632W        W18892  18.762  31.386   0.799
46633W        W18893  44.329   6.980   1.515
46634W        W18894  37.019  20.772   5.204
46635W        W18895   7.209   4.655   2.862
46636W        W18896   6.730  16.245  10.930
46637W        W18897   3.489  20.234   0.030
46638W        W18898   5.255  35.126  14.093
46639W        W18899  13.605  14.753  10.242
46640W        W18900  43.498  20.189   4.826
46641W        W18901  19.960  16.345   0.392
46642W        W18902   2.403  23.710   3.793
46643W        W18903  42.048  12.063  10.746
46644W        W18904  22.807  18.737   4.649
46645W        W18905  31.995  32.029  12.102
46646W        W18906  36.046  15.184   2.656
46647W        W18907  16.098  16.318   2.784
46648W        W18908  15.128  21.477  13.892
46649W        W18909   0.439  30.891   3.859
46650W        W18910  40.148  32.041   4.538
46651W        W18911   2.882  14.206   2.188
46652W        W18912  20.816  16.626   3.145
46653W        W18913  12.948  16.603  14.043
46654W        W18914  30.895  17.578  11.535
46655W        W18915  37.397  36.634  13.370
46656W        W18916  14.225   3.254   2.252
46657W        W18917  17.882  33.129  13.549
46658W        W18918  24.208   8.782  11.498
46659W        W18919   3.402  38.536   3.877
46660W        W18920  43.912  38.663  12.080
46661W        W18921  22.425  27.019   1.852
46662W        W18922  14.943  19.683   5.020
46663W        W18923  13.191  30.642   2.672
46664W        W18924  24.525  39.032   0.224
46665W        W18925  37.763  43.872   2.803
46666W        W18926   6.304   6.417   4.812
46667W        W18927  16.814  28.740  12.991
46668W        W18928  12.382   6.352  13.083
46669W        W18929  22.965  19.686  11.255
46670W        W18930   3.439  25.721  14.773
46671W        W18931   0.391  40.484   2.872
46672W        W18932  20.083  37.923   2.768
46673W        W18933  27.678  31.072  12.487
46674W        W18934  32.348  35.165   3.138
46675W        W18935   0.784  41.464   1.439
46676W        W18936   2.868  26.044  14.052
46677W        W18937   4.646  44.744   5.076
46678W        W18938  30.457  18.869   0.126
46679W        W18939  42.063   8.687  12.537
46680W        W18940  31.095  12.391   3.821
46681W        W18941  16.630  24.098  11.118
46682W        W18942   3.915  15.857   4.641
46683W        W18943  11.296  28.693   1.389
46684W        W18944  27.074  15.418   5.057
46685W        W18945  44.353  28.987   3.687
46686W        W18946  13.108  25.697   0.348
46687W        W18947   1.361  26.146  12.361
46688W        W18948  43.833  33.326   0.885
46689W        W18949  30.410  42.920  12.946
46690W        W18950  27.755  15.880  12.598
46691W        W18951   5.216  39.275   0.442
46692W        W18952  35.578   3.160  13.411
46693W        W18953  32.454  35.512  14.928
46694W        W18954   8.336  41.480  10.432
46695W        W18955   7.325  34.057  11.158
46696W        W18956  37.635  31.971   0.397
46697W        W18957   9.222  20.556  14.066
46698W        W18958   0.852  36.086   3.644
46699W        W18959  23.200  31.682  11.100
46700W        W18960   9.680  44.220  13.793
46701W        W18961  22.103  22.363  12.049
46702W        W18962  22.653  44.546   4.293
46703W        W18963  34.942  42.049  11.837
46704W        W18964  19.617  13.833   0.849
46705W        W18965  44.849  36.603   4.174
46706W        W18966  12.718  21.739   1.576
46707W        W18967  15.824  14.757   4.054
46708W        W18968   0.169  28.381   1.763
46709W        W18969  14.317   2.951   0.941
46710W        W18970  13.328  17.710   2.454
46711W        W18971   3.642   8.787   3.757
46712W        W18972  30.580  18.707   2.394
46713W        W18973  41.544  25.733  12.489
46714W        W18974  36.012  16.285   0.669
46715W        W18975  39.402  29.645   0.749
46716W        W18976  24.526   5.888  12.525
46717W        W18977  14.087  32.298   2.814
46718W        W18978  39.693  32.987  12.534
46719W        W18979  12.299  29.413  10.573
46720W        W18980  18.702  34.410  10.970
46721W        W18981  36.816  20.260   2.103
46722W        W18982  10.334  23.248  13.475
46723W        W18983  14.581  32.509  13.318
46724W        W18984  30.012   5.163  11.213
46725W        W18985  11.085  21.655   0.970
46726W        W18986  35.592  18.146   0.143
46727W        W18987  14.804  12.599   1.974
46728W        W18988  42.564  13.742  10.904
46729W        W18989   6.515  35.899   4.837
46730W        W18990  42.962  13.071   1.904
46731W        W18991  31.785  16.126  12.434
46732W        W18992  21.128   9.874   0.340
46733W        W18993  31.600  43.583  14.225
46734W        W18994  15.814   5.332  14.035
46735W        W18995  42.998  36.238  10.898
46736W        W18996  22.201  31.007   0.845
46737W        W18997  21.384  10.584   1.515
46738W        W18998  21.155  31.968  12.059
46739W        W18999  25.923   7.233  14.239
46740W        W19000  11.561  11.101  14.882
46741W        W19001  41.253  14.236   0.361
46742W        W19002  40.749  26.666   3.536
46743W        W19003   9.396  19.749   0.355
46744W        W19004  36.516  41.619   2.416
46745W        W19005  31.942   9.144  11.563
46746W        W19006  38.237  24.720  11.380
46747W        W19007  34.116   8.591  11.906
46748W        W19008  12.630  34.811  13.926
46749W        W19009  13.085  26.194   0.494
46750W        W19010  19.807  22.088   0.386
46751W        W19011   3.521  18.902   3.629
46752W        W19012  43.109  30.622  13.605
46753W        W19013  17.748  33.083   2.123
46754W        W19014  12.164  43.337   3.148
46755W        W19015  32.491  23.138   0.515
46756W        W19016  11.360  39.054  11.278
46757W        W19017   5.651  27.533  13.863
46758W        W19018  32.628  38.602  13.946
46759W        W19019  15.740   3.319   2.929
46760W        W19020  42.366  27.474  11.216
46761W        W19021  31.674  21.681  12.462
46762W        W19022  43.664  29.635   3.729
46763W        W19023   7.451  21.725   3.683
46764W        W19024   3.308  41.767  10.708
46765W        W19025  38.249   9.327  13.433
46766W        W19026  44.692   5.318  10.910
46767W        W19027  25.801  15.262  11.470
46768W        W19028  42.360  43.953  10.662
46769W        W19029  14.258  32.476   1.991
46770W        W19030  40.354  34.056   1.839
46771W        W19031  44.721  13.392  12.945
46772W        W19032  20.162  27.048   0.886
46773W        W19033  43.805  44.417  12.267
46774W        W19034  33.608   5.507   2.179
46775W        W19035  21.316  30.500   3.169
46776W        W19036  11.383  31.453   3.942
46777W        W19037  19.648  33.460  10.472
46778W        W19038  35.398  11.803  12.994
46779W        W19039  11.131  42.895  11.040
46780W        W19040   1.909  21.100  14.634
46781W        W19041  16.812   1.775   4.292
46782W        W19042   3.370   1.322   4.545
46783W        W19043  11.620  30.392   0.452
46784W        W19044  38.445   8.302   4.622
46785W        W19045  40.847   5.140  13.891
46786W        W19046  23.562   3.458   2.158
46787W        W19047  10.240  10.430   0.413
46788W        W19048  10.540  20.965   2.744
46789W        W19049  41.868  34.859   2.203
46790W        W19050  10.145   2.064  11.994
46791W        W19051  22.993  29.122  11.963
46792W        W19052  18.654  25.790   1.804
46793W        W19053   4.717  34.026  11.571
46794W        W19054   8.999  16.826   1.269
46795W        W19055  18.143  14.183  14.339
46796W        W19056  14.636  16.699   0.929
46797W        W19057   7.638  25.606  11.784
46798W        W19058  17.370   2.892   0.709
46799W        W19059   5.665  41.369   0.467
46800W        W19060   1.311   5.687  13.432
46801W        W19061  32.567  20.429  14.856
46802W        W19062  12.845  39.511   2.514
46803W        W19063  35.439  40.704  14.031
46804W        W19064  20.309   7.313   2.356
46805W        W19065   0.675   5.917   3.040
46806W        W19066  33.858   9.128   1.433
46807W        W19067  34.873  38.109   0.814
46808W        W19068  44.810  17.485  14.541
46809W        W19069  34.058   0.225   3.358
46810W        W19070  41.534  23.640  13.248
46811W        W19071  31.535   2.698  10.560
46812W        W19072   0.042  16.216  10.387
46813W        W19073   9.788   2.193   2.296
46814W        W19074  44.213  40.030   3.172
46815W        W19075   6.288  35.937  12.519
46816W        W19076  18.828   6.897  14.972
46817W        W19077  39.270  20.022  13.132
46818W        W19078  16.709  24.949  11.135
46819W        W19079  42.440  16.775  14.950
46820W        W19080  39.463   8.887  10.649
46821W        W19081   9.609  21.253   3.101
46822W        W19082  14.640  32.988   2.600
46823W        W19083   5.823   6.133  14.560
46824W        W19084  42.511  13.064   2.955
46825W        W19085  28.645  20.162  11.308
46826W        W19086  28.360  20.654   0.406
46827W        W19087  16.288  42.907  14.756
46828W        W19088  25.115   4.818  13.602
46829W        W19089  13.808  22.414  12.178
46830W        W19090  13.305  39.591  13.255
46831W        W19091   4.825  37.562   0.399
46832W        W19092  34.808  12.060  12.035
46833W        W19093  31.047   0.252  13.949
46834W        W19094  30.215  18.542   0.505
46835W        W19095  19.800  13.899   2.275
46836W        W19096  10.503  33.494   0.624
46837W        W19097  31.090  30.296   3.280
46838W        W19098  33.791  36.269   1.252
46839W        W19099  39.408  31.866  14.200
46840W        W19100  23.689  41.130   1.756
46841W        W19101   6.610  28.091   3.283
46842W        W19102  41.996  15.758   1.916
46843W        W19103   9.393  27.606  13.429
46844W        W19104  15.831  39.396  12.034
46845W        W19105  24.417  36.018   2.871
46846W        W19106  27.080  17.005  12.204
46847W        W19107  22.797   6.861  12.043
46848W        W19108   5.913  34.467  13.082
46849W        W19109  27.946   5.803   1.748
46850W        W19110  17.405  29.461  14.527
46851W        W19111  40.056  39.100  10.551
46852W        W19112   9.013   1.109  12.521
46853W        W19113  34.889  32.015  13.410
46854W        W19114   0.419  19.705   2.721
46855W        W19115  30.542  26.133  11.250
46856W        W19116   5.285  14.604  11.005
46857W        W19117  44.156  19.421   2.187
46858W        W19118  16.651   7.292  13.911
46859W        W19119  40.410  34.381  13.119
46860W        W19120  20.947   0.379   3.097
46861W        W19121   3.771  39.673   4.527
46862W        W19122  23.406  38.874  11.905
46863W        W19123  13.510  41.182  13.049
46864W        W19124  25.650  25.750  12.924
46865W        W19125  37.956  26.184  14.750
46866W        W19126  12.504  33.432   3.185
46867W        W19127  18.622  18.956  11.962
46868W        W19128  16.686  33.687   0.938
46869W        W19129   2.865   2.999   2.907
46870W        W19130  41.070  16.433  10.332
46871W        W19131  28.167  24.248  10.990
46872W        W19132  34.651  23.065  13.743
46873W        W19133  21.104   9.139   3.757
46874W        W19134  17.407   9.274   4.655
46875W        W19135   9.926  19.527   1.194
46876W        W19136  35.031  17.128   1.016
46877W        W19137  36.479   1.677   0.867
46878W        W19138  28.923  35.114   2.301
46879W        W19139  27.504  37.829  12.548
46880W        W19140   2.907  39.875  12.445
46881W        W19141   8.866   3.480  11.656
46882W        W19142  17.033  14.978   4.668
46883W        W19143  26.200   4.414   1.846
46884W        W19144  43.493  16.635  13.418
46885W        W19145   6.801  34.992  11.557
46886W        W19146  28.432  37.757   1.406
46887W        W19147  13.220  17.531  12.882
46888W        W19148  21.560  40.070  12.850
46889W        W19149  17.228  28.462  10.985
46890W        W19150  32.234  15.323   0.775
46891W        W19151  28.575  12.087   0.352
46892W        W19152   3.134  17.421   4.087
46893W        W19153  20.068  16.067   3.660
46894W        W19154   2.376  37.975   3.221
46895W        W19155  43.273   2.152  13.631
46896W        W19156   4.167   7.872  12.823
46897W        W19157  10.778  24.573  11.772
46898W        W19158  11.479  15.677   4.148
46899W        W19159  36.033  31.733   0.373
46900W        W19160  31.916  24.656  11.971
46901W        W19161  19.423  14.744   4.426
46902W        W19162  16.235  27.107   0.525
46903W        W19163  19.354  20.731  13.994
46904W        W19164   5.803  24.001  13.286
46905W        W19165   2.179  28.148  13.044
46906W        W19166   8.736   0.991   3.524
46907W        W19167  43.472   8.244   4.233
46908W        W19168  12.853  29.663   3.792
46909W        W19169  29.534  41.876  14.852
46910W        W19170  33.713  21.092   0.827
46911W        W19171  31.650  37.343  12.583
46912W        W19172  32.647  31.524   1.804
46913W        W19173  11.677  40.880  14.830
46914W        W19174  25.609  36.419  10.742
46915W        W19175   0.030   8.259   1.974
46916W        W19176  11.161  42.376   4.574
46917W        W19177  10.703  41.919   1.973
46918W        W19178  33.098   3.010   3.398
46919W        W19179   2.861  23.163   4.778
46920W        W19180   0.338  11.720  12.636
46921W        W19181  32.338  26.615   3.578
46922W        W19182  13.667   5.483  14.172
46923W        W19183   2.421  40.328   0.901
46924W        W19184  18.037  39.499   2.574
46925W        W19185   0.821   4.388  12.959
46926W        W19186  14.632  24.215   2.340
46927W        W19187  16.622  41.604  14.510
46928W        W19188   9.431  34.941   2.323
46929W        W19189   3.410  23.063  11.837
46930W        W19190   4.826  16.003   4.114
46931W        W19191   4.390  44.752   4.430
46932W        W19192  36.943   8.758   4.235
46933W        W19193   3.534  44.987   1.044
46934W        W19194  15.180  21.339   4.609
46935W        W19195  11.384  35.382  11.990
46936W        W19196  20.189  31.305   3.900
46937W        W19197   6.865  17.198  10.709
46938W        W19198  11.828   3.323   3.382
46939W        W19199  17.605  11.133   4.227
46940W        W19200  24.275   9.077   0.539
46941W        W19201   4.765   6.438  13.933
46942W        W19202  15.853   3.381  14.114
46943W        W19203  14.362  35.657  12.054
46944W        W19204   2.839   3.483   0.856
46945W        W19205  12.230  21.448  13.959
46946W        W19206  29.557  38.443   3.608
46947W        W19207  22.039  16.680   1.828
46948W        W19208  25.453  25.144   2.388
46949W        W19209  38.140   4.459  14.566
46950W        W19210  40.204  19.317   3.025
46951W        W19211  29.726   4.713   0.802
46952W        W19212   3.994   6.683  11.950
46953W        W19213  33.868  23.848   0.351
46954W        W19214  18.725  43.089  10.965
46955W        W19215  21.136  22.033   1.355
46956W        W19216  24.556  40.737   2.831
46957W        W19217  13.157  31.100   9.742
46958W        W19218   3.424   3.151   4.518
46959W        W19219  37.771  39.489  11.621
46960W        W19220  34.034  37.795   4.281
46961W        W19221  14.035  43.752  11.940
46962W        W19222  11.119   0.888   1.178
46963W        W19223  23.139  11.224  12.543
46964W        W19224  11.244  28.885   3.209
46965W        W19225  39.936  38.058  13.146
46966W        W19226  35.052   5.421   0.212
46967W        W19227  33.930  16.953  12.351
46968W        W19228  39.398  30.925   2.297
46969W        W19229  44.953  19.859  11.139
46970W        W19230  18.641  24.756   1.924
46971W        W19231   6.395  21.992  11.603
46972W        W19232  22.139  23.070   3.151
46973W        W19233  17.824  30.097   2.412
46974W        W19234  21.138   4.721  10.828
46975W        W19235   8.090  32.053  14.661
46976W        W19236  37.471  30.363   0.536
46977W        W19237   8.317  41.952   0.154
46978W        W19238  36.632  22.462  11.650
46979W        W19239  16.880   7.396   5.588
46980W        W19240  18.046   5.123  11.524
46981W        W19241  22.040  43.519  14.065
46982W        W19242  34.639  39.925   0.983
46983W        W19243  16.381  22.608  13.706
46984W        W19244   3.947  24.636   2.925
46985W        W19245   8.044  28.503  11.551
46986W        W19246  15.020  17.738  12.780
46987W        W19247   5.036   7.215   3.872
46988W        W19248   6.419  38.579   0.332
46989W        W19249  24.801   5.804   1.955
46990W        W19250  36.603  12.250  13.082
46991W        W19251   2.859  11.838  12.414
46992W        W19252   7.874  23.595   3.557
46993W        W19253  11.877  36.414  12.911
46994W        W19254   6.853   7.247  11.210
46995W        W19255  26.643  13.915   1.820
46996W        W19256   5.686  30.674   1.456
46997W        W19257  44.293   9.166   2.596
46998W        W19258  34.182  13.884   2.144
46999W        W19259  37.608   4.939  13.016
47000W        W19260  41.075  12.363  14.822
47001W        W19261   3.713  38.450   0.581
47002W        W19262  24.602  20.727  11.833
47003W        W19263   7.593  29.960   3.699
47004W        W19264  23.798  19.255  13.933
47005W        W19265  23.480   3.248   1.177
47006W        W19266  44.744  38.444  13.567
47007W        W19267  37.492  37.817   0.776
47008W        W19268  23.554  25.692  10.439
47009W        W19269  34.581  17.578   2.991
47010W        W19270  27.606  37.008  10.752
47011W        W19271  42.442   7.825   2.277
47012W        W19272  13.111  10.300  13.393
47013W        W19273   6.793   6.944  12.073
47014W        W19274   2.736  37.567  14.836
47015W        W19275  24.945  39.077   4.586
47016W        W19276  18.683  20.671  10.581
47017W        W19277  24.716  40.095   3.779
47018W        W19278  35.857  18.414  14.020
47019W        W19279   7.775  29.546  14.542
47020W        W19280  22.067  43.082   3.455
47021W        W19281  29.351  44.835  13.636
47022W        W19282  19.514   6.413  10.804
47023W        W19283  40.917  28.928  11.993
47024W        W19284  10.347  36.682  12.540
47025W        W19285  24.743  38.616   1.545
47026W        W19286   3.955  10.267   3.020
47027W        W19287   0.627  39.988  14.516
47028W        W19288  26.000  38.231   3.586
47029W        W19289  20.993  34.379   1.367
47030W        W19290  34.714  27.671   4.894
47031W        W19291  21.231   9.761   3.196
47032W        W19292  32.193  27.969  11.550
47033W        W19293  26.022   0.762  10.806
47034W        W19294   9.298  25.989  12.955
47035W        W19295  37.565  38.777  11.739
47036W        W19296  25.900  27.713  14.102
47037W        W19297   8.304  37.436  14.244
47038W        W19298   5.014  18.801  13.954
47039W        W19299  43.899   6.583  13.891
47040W        W19300  40.903   2.448  13.279
47041W        W19301  35.501  42.437   4.580
47042W        W19302   7.081   0.282  10.668
47043W        W19303  28.198   5.835   0.756
47044W        W19304   4.219  42.870  12.871
47045W        W19305  33.540  35.130  13.087
47046W        W19306  28.955  19.891   4.636
47047W        W19307  11.110  18.727  12.367
47048W        W19308  12.710  30.703  10.600
47049W        W19309  44.707   7.363  13.046
47050W        W19310  16.076   3.210   3.334
47051W        W19311   0.307  18.484  12.948
47052W        W19312  11.773  43.870   0.793
47053W        W19313   6.825  13.958  13.160
47054W        W19314   1.679  31.672   1.131
47055W        W19315   1.687  28.499  12.477
47056W        W19316  33.426   6.212   3.676
47057W        W19317  13.303  32.478  11.547
47058W        W19318  15.664   8.890  13.890
47059W        W19319  16.668  19.869   0.704
47060W        W19320  27.001  29.950  12.087
47061W        W19321  27.895  19.311   0.928
47062W        W19322  22.041  26.039  13.488
47063W        W19323  37.534  37.920   1.701
47064W        W19324  13.694  39.304  14.683
47065W        W19325  14.363  20.863  11.727
47066W        W19326  25.422  39.357   4.854
47067W        W19327   5.880  40.935   0.687
47068W        W19328  10.870  24.539  13.249
47069W        W19329  24.496  36.275  12.451
47070W        W19330  19.995  39.587   0.292
47071W        W19331  22.012   7.497   0.927
47072W        W19332   3.913  15.697  14.333
47073W        W19333  26.483  24.475   3.858
47074W        W19334  16.294  31.115   3.086
47075W        W19335  42.108  24.173   0.977
47076W        W19336  17.701   5.386  14.859
47077W        W19337  27.399  13.661  11.475
47078W        W19338  17.487  31.804   3.850
47079W        W19339  38.606   5.374   0.541
47080W        W19340  35.324  30.745  14.807
47081W        W19341  14.583  32.875   4.092
47082W        W19342  21.492   0.793   4.787
47083W        W19343  31.763   4.342   3.758
47084W        W19344   7.001   4.687  14.279
47085W        W19345   5.718  13.789  13.957
47086W        W19346  11.307  37.518  13.701
47087W        W19347  18.313  32.061   2.132
47088W        W19348  44.396  27.160   1.987
47089W        W19349  16.531  18.133  11.328
47090W        W19350  42.311  24.542   3.681
47091W        W19351  17.329  26.101  12.171
47092W        W19352  42.014   6.791  11.158
47093W        W19353  13.562  27.784  10.178
47094W        W19354   5.367  19.646   0.921
47095W        W19355  30.929  37.628   1.307
47096W        W19356  25.736   1.194   0.996
47097W        W19357  44.863   1.577   2.741
47098W        W19358  15.588  19.187   1.491
47099W        W19359   8.008  14.243  11.907
47100W        W19360  25.704  12.701   4.125
47101W        W19361  41.351  24.039  11.978
47102W        W19362  16.897  28.894   2.342
47103W        W19363  12.169  16.560  10.863
47104W        W19364  22.204  10.156  12.039
47105W        W19365   6.398   8.936   4.577
47106W        W19366  39.579   1.147  14.877
47107W        W19367  28.765  44.884  14.302
47108W        W19368  12.034  20.575  14.321
47109W        W19369  41.952  40.824   2.230
47110W        W19370  18.846  31.254  14.024
47111W        W19371  20.927  41.913  11.141
47112W        W19372  34.438  15.831   1.425
47113W        W19373  44.691  27.420  13.876
47114W        W19374  24.676  30.389   0.384
47115W        W19375  21.674  37.075  14.325
47116W        W19376   8.743  14.663  14.029
47117W        W19377   3.007  27.869   0.940
47118W        W19378  22.472  40.291   0.403
47119W        W19379  35.775   7.147   1.277
47120W        W19380  16.599  36.434   4.077
47121W        W19381  40.819  14.326   1.273
47122W        W19382  30.058  10.935   2.177
47123W        W19383  14.526  12.416  12.590
47124W        W19384  22.926  21.027  11.650
47125W        W19385  34.981  20.067  13.383
47126W        W19386  37.331  19.137   0.910
47127W        W19387   4.929  20.464   0.466
47128W        W19388  15.133  38.994   4.121
47129W        W19389  34.644  14.366  14.836
47130W        W19390  19.275  40.044  11.492
47131W        W19391  32.990   1.757  14.477
47132W        W19392   6.363  25.650  12.629
47133W        W19393   4.036  38.634   2.196
47134W        W19394  17.736  11.991  14.247
47135W        W19395  26.990  21.989   2.732
47136W        W19396  34.994   1.917   3.777
47137W        W19397   0.780  41.382  13.307
47138W        W19398  28.461   6.417  12.506
47139W        W19399  26.956  26.698  11.506
47140W        W19400  25.993  35.883  14.924
47141W        W19401   4.908  30.075   4.762
47142W        W19402   2.464  32.393  13.836
47143W        W19403  28.546  19.740  11.579
47144W        W19404  22.365  32.566  14.429
47145W        W19405   9.686  26.425   1.857
47146W        W19406  21.313  15.252   1.736
47147W        W19407  14.170   7.578   2.783
47148W        W19408   9.021  32.164   4.002
47149W        W19409  13.135   6.313  14.317
47150W        W19410  36.775  28.172   0.902
47151W        W19411  37.563  44.034  11.631
47152W        W19412  23.224  14.494  11.213
47153W        W19413  21.109   3.556  11.738
47154W        W19414   8.333   3.333   0.357
47155W        W19415  24.163   7.190  10.670
47156W        W19416  28.174   4.467  12.615
47157W        W19417  36.576  26.533  13.295
47158W        W19418   4.222  34.950   2.837
47159W        W19419  25.594  41.108  13.299
47160W        W19420  18.724  25.157   0.390
47161W        W19421  28.626   1.412  11.420
47162W        W19422  44.774   8.216  13.591
47163W        W19423  41.746  26.093   0.482
47164W        W19424  40.610  35.356   0.055
47165W        W19425  44.966   4.914  11.736
47166W        W19426  35.541  17.640   2.784
47167W        W19427  28.082   9.051  12.795
47168W        W19428  37.434  31.645  12.213
47169W        W19429  42.336  44.402  13.267
47170W        W19430  40.145   0.029   4.979
47171W        W19431  39.690  11.376   1.981
47172W        W19432  17.559   9.591   0.921
47173W        W19433   0.721  35.336   0.622
47174W        W19434  26.452  16.254   3.689
47175W        W19435  17.293  36.108   2.795
47176W        W19436  24.246  36.434  13.540
47177W        W19437  18.401   4.971  11.188
47178W        W19438   2.786   3.763  14.985
47179W        W19439   2.818  38.464  14.026
47180W        W19440  40.395  21.667  12.915
47181W        W19441  20.558   1.033   2.796
47182W        W19442  35.661   8.024   4.100
47183W        W19443   7.602  22.961  11.490
47184W        W19444  20.013  42.328  11.186
47185W        W19445  11.374  20.795   1.864
47186W        W19446  17.548   2.152  11.969
47187W        W19447  28.678  39.062   0.327
47188W        W19448  43.369  33.940  14.560
47189W        W19449  25.516  42.540  14.230
47190W        W19450  21.487  22.693  11.308
47191W        W19451   8.716   5.895  11.014
47192W        W19452  33.905  31.343   2.145
47193W        W19453  24.564  37.761   2.125
47194W        W19454   8.636  32.660   1.314
47195W        W19455  20.426  21.274   1.425
47196W        W19456  11.863  23.115   2.811
47197W        W19457   8.532   2.214   0.542
47198W        W19458  39.552   6.728   0.879
47199W        W19459  41.957   3.695  11.933
47200W        W19460  18.609  21.271   0.362
47201W        W19461  44.901  21.266   1.484
47202W        W19462  32.410  20.358  12.613
47203W        W19463  24.039   2.236  13.105
47204W        W19464  33.536   0.444   4.244
47205W        W19465  39.307   0.812  10.943
47206W        W19466  13.515  18.161  14.998
47207W        W19467  19.930  25.989  11.647
47208W        W19468  31.042  34.307  10.466
47209W        W19469   8.693  31.950  12.124
47210W        W19470  24.060   5.960   2.314
47211W        W19471  14.608   4.142   1.953
47212W        W19472  21.430  14.595  11.111
47213W        W19473  42.447  30.855   2.710
47214W        W19474  26.760  29.570   3.655
47215W        W19475  40.442  21.193   5.042
47216W        W19476  15.173  20.033  14.088
47217W        W19477  40.448  30.278  13.673
47218W        W19478   4.032  34.177  11.051
47219W        W19479  15.323  39.470   2.843
47220W        W19480  14.196  16.509   5.035
47221W        W19481  42.475  39.792   2.357
47222W        W19482   7.199  18.094  12.019
47223W        W19483  43.706   0.569  11.140
47224W        W19484  14.114  39.836  10.539
47225W        W19485   6.802  19.612  10.687
47226W        W19486  32.120  25.687  11.639
47227W        W19487  42.262  16.187   3.641
47228W        W19488  34.947  10.862  13.293
47229W        W19489  38.834   4.271  13.101
47230W        W19490  31.582  18.806  13.765
47231W        W19491   0.902  39.340   3.131
47232W        W19492  25.185  23.179   0.685
47233W        W19493  43.381  31.552   4.548
47234W        W19494  31.808  21.539   0.997
47235W        W19495  11.128   7.168   4.341
47236W        W19496  38.693  37.327  11.133
47237W        W19497  39.012   7.222   0.733
47238W        W19498  22.444  23.988  13.824
47239W        W19499   5.521  32.987   0.362
47240W        W19500  39.620  29.905   1.338
47241W        W19501  15.520   8.933  11.421
47242W        W19502  44.989  43.044  12.557
47243W        W19503  19.778  43.863  10.749
47244W        W19504  39.968  44.510   1.921
47245W        W19505   7.719   1.198  10.606
47246W        W19506  13.936   9.219  12.083
47247W        W19507   3.829  24.950  11.691
47248W        W19508   1.415  29.128  10.733
47249W        W19509  26.684  24.414   4.842
47250W        W19510   1.264  14.768  10.739
47251W        W19511   9.787  40.187   4.107
47252W        W19512  28.204  35.910   3.197
47253W        W19513   6.089   7.472   0.419
47254W        W19514  35.530  14.861  14.035
47255W        W19515  44.850  11.595  13.436
47256W        W19516  42.787  38.812   4.852
47257W        W19517   9.648  29.109  14.845
47258W        W19518  16.718   4.526   1.446
47259W        W19519   0.997   0.411   4.545
47260W        W19520  31.243  29.541  12.821
47261W        W19521  40.461  22.902  12.186
47262W        W19522  29.165  25.625  13.160
47263W        W19523  12.683   6.295  13.526
47264W        W19524  13.099  33.371   4.675
47265W        W19525  18.315  10.871  11.466
47266W        W19526  38.510  32.153   4.754
47267W        W19527  24.607   3.382  14.242
47268W        W19528   3.212  38.347   0.933
47269W        W19529  28.879  42.991  14.505
47270W        W19530  39.454  13.499   4.012
47271W        W19531  32.962  15.031  13.433
47272W        W19532  32.241  19.394   1.039
47273W        W19533  29.518   3.267  14.635
47274W        W19534  14.650  18.143  13.366
47275W        W19535  23.101  13.331   0.350
47276W        W19536  24.111  38.905  10.089
47277W        W19537  29.301  17.710   3.624
47278W        W19538  15.646  16.767  12.792
47279W        W19539  42.360  30.050  14.788
47280W        W19540  24.187  38.500   0.143
47281W        W19541   9.838  25.177   1.239
47282W        W19542   5.404  14.288   4.106
47283W        W19543  12.581   0.940   1.577
47284W        W19544  18.853  31.019  14.823
47285W        W19545  43.877  12.305  10.424
47286W        W19546  42.497  23.231   3.163
47287W        W19547  30.476   0.778   1.848
47288W        W19548  27.641   5.428  14.401
47289W        W19549   4.893  28.584  13.364
47290W        W19550  39.389  40.200  14.023
47291W        W19551  32.315  31.610  12.285
47292W        W19552  30.510  13.206   4.045
47293W        W19553   4.173   9.867   2.760
47294W        W19554  23.496  38.854   4.180
47295W        W19555  14.241  35.134  11.301
47296W        W19556  23.521  27.487  12.371
47297W        W19557  19.704  10.159   4.605
47298W        W19558  23.000  39.506   2.301
47299W        W19559  27.536   9.111   4.454
47300W        W19560  12.056   4.338  13.638
47301W        W19561   8.365   2.508   2.388
47302W        W19562   6.868  22.004  13.508
47303W        W19563  37.915  37.275  12.880
47304W        W19564  16.244  39.267   1.216
47305W        W19565  10.778  41.385  13.739
47306W        W19566  19.561  30.967   3.284
47307W        W19567  14.516   2.665   4.186
47308W        W19568  10.694   7.358   1.262
47309W        W19569  44.522  15.591   0.811
47310W        W19570  25.296  43.503   3.387
47311W        W19571   4.320  31.154  13.463
47312W        W19572   6.215  30.339   2.884
47313W        W19573  44.716  13.802  10.936
47314W        W19574  12.872  39.462   1.980
47315W        W19575   2.852  40.542  11.897
47316W        W19576   7.214  41.042  10.643
47317W        W19577  40.323  41.224  11.525
47318W        W19578  20.922  34.538   0.323
47319W        W19579  23.203  41.299   0.193
47320W        W19580  12.214  42.357   3.690
47321W        W19581  34.505  24.941   4.536
47322W        W19582   4.750  19.934   4.638
47323W        W19583  19.778  16.029   1.701
47324W        W19584  20.279  32.395   4.055
47325W        W19585   4.723   4.328  10.691
47326W        W19586  25.231  22.067   2.768
47327W        W19587  38.837  33.116  11.656
47328W        W19588  24.105   6.573   4.762
47329W        W19589  18.237  10.624   2.293
47330W        W19590  39.922  28.130   2.823
47331W        W19591  39.615  33.925  14.964
47332W        W19592   3.682  30.586   4.575
47333W        W19593  24.627  44.974   1.199
47334W        W19594  10.088   2.811  12.929
47335W        W19595  40.144   0.919   0.267
47336W        W19596  25.708  19.261  14.760
47337W        W19597  23.756  26.976  14.367
47338W        W19598  22.803  44.165  10.986
47339W        W19599  13.713   4.370  12.393
47340W        W19600  18.112  14.145   4.619
47341W        W19601   3.188   6.213  11.353
47342W        W19602  42.675  15.393   3.737
47343W        W19603  28.417  43.463  12.141
47344W        W19604  34.839  41.368   2.077
47345W        W19605  32.017  43.325   2.810
47346W        W19606  23.116  38.563  11.555
47347W        W19607  35.915   5.695  12.823
47348W        W19608  27.460  12.733   4.087
47349W        W19609  29.482  14.733   0.860
47350W        W19610  28.576   7.223   4.793
47351W        W19611   0.991   6.204   3.360
47352W        W19612  16.487   3.400   1.006
47353W        W19613  40.321   3.134  12.426
47354W        W19614  19.074   6.798   2.212
47355W        W19615  44.021   4.902   0.209
47356W        W19616  32.375  26.392   4.038
47357W        W19617  40.250  25.111   4.806
47358W        W19618   1.449  21.936  12.978
47359W        W19619  36.702   7.872   2.293
47360W        W19620   4.991   2.283   2.783
47361W        W19621  15.878  14.353  10.127
47362W        W19622  37.258  28.364  12.761
47363W        W19623  16.680  13.388   1.423
47364W        W19624  36.695  35.053  14.521
47365W        W19625  15.295  20.112   4.827
47366W        W19626  13.335  10.255   3.671
47367W        W19627  34.821   8.136  14.291
47368W        W19628  43.790  44.316   3.112
47369W        W19629  30.367   6.661  11.595
47370W        W19630  35.855  19.226   2.343
47371W        W19631  20.758   5.321  14.267
47372W        W19632  14.813  16.564  10.376
47373W        W19633   7.142  13.817   2.402
47374W        W19634  12.488   0.273  10.653
47375W        W19635   4.253  26.162   2.009
47376W        W19636  38.295   6.648  10.838
47377W        W19637  31.822   2.447  12.923
47378W        W19638   5.471  17.920   4.589
47379W        W19639  26.700  19.277   3.128
47380W        W19640  26.291  25.442   3.067
47381W        W19641  18.201   1.241   1.006
47382W        W19642  23.685  41.024  11.604
47383W        W19643  20.790  36.055  12.888
47384W        W19644  31.414  21.527   1.361
47385W        W19645   8.709  14.676  10.793
47386W        W19646  40.363  41.748  11.601
47387W        W19647  30.704  24.111  14.452
47388W        W19648  29.120  10.127  10.698
47389W        W19649  40.816  35.391   0.618
47390W        W19650   7.427  18.059  12.904
47391W        W19651   0.910  26.217   0.822
47392W        W19652  32.148  39.024   1.342
47393W        W19653  40.783  27.739   3.721
47394W        W19654  17.134  33.993   2.721
47395W        W19655  12.487  30.217   5.046
47396W        W19656   4.954   8.738  11.846
47397W        W19657   9.267  23.161  13.540
47398W        W19658  28.964  28.528   1.811
47399W        W19659  17.746  42.788   2.262
47400W        W19660   6.694  25.971   4.148
47401W        W19661  44.482   0.381   3.621
47402W        W19662  17.698   4.613   4.661
47403W        W19663  20.683  31.308   3.293
47404W        W19664  40.899  37.600  12.009
47405W        W19665  24.088   3.370  14.975
47406W        W19666   9.752  31.153  12.920
47407W        W19667  31.132  40.186  14.372
47408W        W19668  35.588  23.651   0.531
47409W        W19669  29.663   5.985  11.005
47410W        W19670  32.618   3.823   3.627
47411W        W19671   6.898  44.545   5.043
47412W        W19672  41.462  26.452   0.238
47413W        W19673  28.949   2.483   2.767
47414W        W19674  28.533   1.914  12.405
47415W        W19675  32.882  13.523   1.702
47416W        W19676  25.607  37.156   4.162
47417W        W19677  27.680  13.894  13.941
47418W        W19678  11.283  21.334   0.382
47419W        W19679  25.334  13.291   3.506
47420W        W19680  28.942   6.916  14.244
47421W        W19681   0.061  18.296   0.509
47422W        W19682  44.371  32.401  11.134
47423W        W19683  15.030  25.143   1.414
47424W        W19684  19.620   0.357   1.348
47425W        W19685  30.429  42.844   4.760
47426W        W19686  21.050  33.560  13.998
47427W        W19687  36.625  30.521   2.295
47428W        W19688  40.216  32.234  10.275
47429W        W19689  35.110  36.449  13.871
47430W        W19690  14.378  10.851  11.935
47431W        W19691  41.270  31.142  11.166
47432W        W19692  35.821  41.697   2.828
47433W        W19693  18.631   6.119   0.385
47434W        W19694   6.792  42.056   3.467
47435W        W19695  24.141  29.886  12.360
47436W        W19696  21.259   9.769   2.247
47437W        W19697  31.372  31.663  10.446
47438W        W19698   0.443  39.325  10.681
47439W        W19699  39.911  20.472  14.096
47440W        W19700  10.247  33.391   2.101
47441W        W19701  36.819  41.807  14.538
47442W        W19702  38.808   7.442  14.427
47443W        W19703  19.740   7.264   1.214
47444W        W19704  39.450  41.072  13.424
47445W        W19705  36.844  21.327  14.986
47446W        W19706  33.996  28.916   2.787
47447W        W19707   2.840  32.424  13.419
47448W        W19708  41.974  35.488   1.897
47449W        W19709  34.081   0.303  11.449
47450W        W19710  18.597  16.201   3.547
47451W        W19711  10.360   9.242  11.037
47452W        W19712  43.934   3.884  12.071
47453W        W19713  18.491   4.569   4.563
47454W        W19714  18.823  42.487   0.401
47455W        W19715   4.634  42.089   0.421
47456W        W19716   0.219  17.320   2.641
47457W        W19717   2.409  23.086   2.260
47458W        W19718  22.795  25.917  13.111
47459W        W19719  10.004  29.511  14.935
47460W        W19720  19.358  16.128  14.806
47461W        W19721   8.878  18.025  14.835
47462W        W19722  27.168  41.830   4.233
47463W        W19723  20.161  17.278  14.547
47464W        W19724  23.508  20.730  13.340
47465W        W19725  34.514  44.371   1.390
47466W        W19726  33.480  34.148  12.520
47467W        W19727  44.499   7.784   0.829
47468W        W19728  20.072  42.623  11.602
47469W        W19729  18.065  32.120  12.965
47470W        W19730   6.424   7.677   0.078
47471W        W19731  33.510  29.065  13.024
47472W        W19732   9.841  12.313   3.156
47473W        W19733  41.390  32.899   1.246
47474W        W19734   6.155  12.361   3.176
47475W        W19735  12.242  38.166  13.427
47476W        W19736  23.618  13.856  12.572
47477W        W19737  21.687  25.030  13.897
47478W        W19738  29.450  20.987  14.351
47479W        W19739  10.356  42.948   2.975
47480W        W19740  28.927  38.223   0.804
47481W        W19741   2.225  35.684   4.695
47482W        W19742   1.398  37.837   0.927
47483W        W19743   1.246  44.544  12.080
47484W        W19744  40.494  19.512  12.520
47485W        W19745  18.667  36.357  11.707
47486W        W19746   3.967   8.126  14.632
47487W        W19747  32.931   1.392   4.080
47488W        W19748  32.062  27.446   2.368
47489W        W19749  23.747  19.197   4.544
47490W        W19750  30.021   6.772   3.625
47491W        W19751  21.846  43.393  13.576
47492W        W19752  21.540  40.776  10.707
47493W        W19753  35.654  34.757  11.828
47494W        W19754  30.198  25.241   0.938
47495W        W19755  25.981  24.065   2.326
47496W        W19756  38.047  16.640  10.547
47497W        W19757  25.657  43.548   4.589
47498W        W19758   7.948   1.312   0.035
47499W        W19759  33.583   7.452  11.170
47500W        W19760  18.270   4.062  10.783
47501W        W19761  40.482  30.026   0.762
47502W        W19762  40.810  31.180  12.622
47503W        W19763  30.163  24.249  11.144
47504W        W19764  16.213  37.734   1.453
47505W        W19765  39.622  28.858   4.536
47506W        W19766  40.271  15.958  14.256
47507W        W19767  12.612  21.410  11.262
47508W        W19768  38.868  38.285   2.298
47509W        W19769   6.592   0.922   4.411
47510W        W19770  38.149   1.318  11.614
47511W        W19771   2.866  18.222  14.389
47512W        W19772  15.554  22.721  11.542
47513W        W19773  34.600  12.309  10.767
47514W        W19774  38.974  39.546  12.501
47515W        W19775  34.839  27.948   1.280
47516W        W19776  11.377  22.286   1.928
47517W        W19777  42.619  22.026  14.947
47518W        W19778  14.757  26.670  12.557
47519W        W19779  21.580   8.293   1.722
47520W        W19780  40.420   7.424  14.374
47521W        W19781  23.791   8.211   0.363
47522W        W19782   2.763  15.768   2.066
47523W        W19783   0.952   2.291   3.775
47524W        W19784  15.640  34.100   3.187
47525W        W19785   4.409  42.323   2.621
47526W        W19786  23.816  32.977   4.494
47527W        W19787  19.273  13.837   2.257
47528W        W19788  26.164  40.075  14.031
47529W        W19789  40.188  19.247  13.275
47530W        W19790   9.285  28.503   0.449
47531W        W19791  25.169  37.619   0.283
47532W        W19792  38.896  30.310  10.730
47533W        W19793   5.854   9.653   1.178
47534W        W19794  31.546  18.753  11.162
47535W        W19795  37.358  39.924  14.007
47536W        W19796   0.063  17.578  12.614
47537W        W19797  10.686  11.631  14.237
47538W        W19798   9.267  33.457  14.797
47539W        W19799   1.676  14.158  13.432
47540W        W19800  24.947  15.551  14.451
47541W        W19801   2.908  22.549  13.925
47542W        W19802  11.709  24.888  14.101
47543W        W19803  29.689   6.473   0.456
47544W        W19804  12.758   1.211   1.169
47545W        W19805  20.045  44.721  12.572
47546W        W19806   7.929   0.452   2.770
47547W        W19807  11.772  26.682  13.410
47548W        W19808  30.489  18.515   1.476
47549W        W19809   4.413  20.739   4.526
47550W        W19810  10.111  25.925  12.965
47551W        W19811  29.253  14.739   0.387
47552W        W19812  37.370  44.400   5.034
47553W        W19813  26.660  34.049   2.705
47554W        W19814   2.191  28.906   3.458
47555W        W19815  14.670   5.229   0.278
47556W        W19816   7.544   2.247   0.844
47557W        W19817  16.105  13.389  11.098
47558W        W19818  35.256  10.199   1.798
47559W        W19819  27.898   4.047   0.412
47560W        W19820  29.971  34.396   2.139
47561W        W19821  30.358  21.946  14.957
47562W        W19822  24.133  23.686   0.518
47563W        W19823  15.211  43.430   1.884
47564W        W19824   8.412  10.773   1.725
47565W        W19825  36.308  11.874  11.056
47566W        W19826   3.271  29.518   2.777
47567W        W19827   1.383   5.649  12.908
47568W        W19828  33.705  19.459  10.035
47569W        W19829   0.552  42.400   0.396
47570W        W19830  27.959  15.723   0.049
47571W        W19831  31.248  35.927   3.163
47572W        W19832   0.428  24.892   3.574
47573W        W19833  30.669  31.704  13.908
47574W        W19834  42.490  16.580  13.324
47575W        W19835  11.618   8.715   3.431
47576W        W19836  33.212  20.456   1.484
47577W        W19837  32.143  17.960   0.543
47578W        W19838   5.032  13.486  10.586
47579W        W19839  30.720  19.776  11.068
47580W        W19840  26.420  24.675  12.486
47581W        W19841  24.731  40.488   1.699
47582W        W19842  14.210  25.480  14.292
47583W        W19843  19.219  38.504   2.193
47584W        W19844   2.212  34.988  12.728
47585W        W19845   8.222  40.363   1.405
47586W        W19846  43.696  28.904  11.981
47587W        W19847  28.777  41.393   3.157
47588W        W19848  27.967   3.225  14.913
47589W        W19849  15.848  29.825  13.850
47590W        W19850   3.306  15.094  13.962
47591W        W19851   8.725  10.234   3.831
47592W        W19852  35.111  17.776   9.839
47593W        W19853   2.777  35.027   4.606
47594W        W19854  16.531  37.528   1.054
47595W        W19855  14.549   7.601  10.604
47596W        W19856  33.633  38.575  11.324
47597W        W19857  38.435  27.656   3.969
47598W        W19858   5.473  29.962   3.713
47599W        W19859  20.920  21.585   3.242
47600W        W19860  12.281  43.892   0.872
47601W        W19861  41.513  13.108   1.929
47602W        W19862   5.387  29.085  14.325
47603W        W19863  33.429  18.522  13.876
47604W        W19864  30.181  44.290   3.192
47605W        W19865  13.864  24.464   3.834
47606W        W19866  15.758  29.852  11.087
47607W        W19867  24.010  17.863  14.853
47608W        W19868  33.471  40.530   3.435
47609W        W19869  31.323   5.839   2.305
47610W        W19870  16.292  11.754  11.357
47611W        W19871   7.641  38.634  11.708
47612W        W19872  32.468  22.638   0.707
47613W        W19873   0.804  25.424   4.766
47614W        W19874  35.836  19.609  10.631
47615W        W19875   3.961   9.895   1.463
47616W        W19876  10.178   8.407   4.614
47617W        W19877   5.295  15.767  11.935
47618W        W19878  11.589  42.309   1.780
47619W        W19879  10.288  24.024  10.687
47620W        W19880  14.182  21.270  10.432
47621W        W19881   0.494  35.764  11.959
47622W        W19882  25.213  32.574   4.842
47623W        W19883  36.648  21.333  12.920
47624W        W19884  37.906   6.641  12.986
47625W        W19885  18.708  18.269   4.542
47626W        W19886  42.978  10.243  13.002
47627W        W19887  33.269  25.502   2.424
47628W        W19888   4.554  37.880  13.836
47629W        W19889  41.914  32.588  10.684
47630W        W19890  10.399  14.251   2.929
47631W        W19891  43.671  14.669   2.144
47632W        W19892   7.084  14.646  14.765
47633W        W19893  39.991  20.674   1.974
47634W        W19894  11.552  13.037  14.390
47635W        W19895   8.596  13.647   0.752
47636W        W19896  14.810   7.160  14.967
47637W        W19897   5.381  44.197  14.426
47638W        W19898  24.432  26.530  11.480
47639W        W19899  39.102  37.431   1.283
47640W        W19900  28.105  11.735  11.409
47641W        W19901  13.044  42.344  11.822
47642W        W19902  15.795  41.043  13.171
47643W        W19903   7.859  11.531  13.270
47644W        W19904   1.482  38.127   4.213
47645W        W19905  31.406  26.245   1.291
47646W        W19906  35.614  36.820  10.809
47647W        W19907   9.548  44.470  11.576
47648W        W19908   9.733  18.041   2.269
47649W        W19909  25.316  37.115   2.832
47650W        W19910  18.528   8.649   5.456
47651W        W19911  23.212  10.859  11.601
47652W        W19912  16.384  32.752  14.425
47653W        W19913  14.305  34.093  12.479
47654W        W19914  39.034  38.486  11.492
47655W        W19915  18.770  25.451   0.837
47656W        W19916  18.724  42.897  14.661
47657W        W19917  34.539  13.163  13.587
47658W        W19918  43.513  36.522  14.802
47659W        W19919  42.249  12.299  14.030
47660W        W19920   9.042  15.151   4.319
47661W        W19921  29.032  22.550   4.308
47662W        W19922   3.890  30.946  10.705
47663W        W19923  39.025   2.415  11.553
47664W        W19924  43.090  10.319   1.309
47665W        W19925   4.901  22.500   0.276
47666W        W19926  10.119  25.003   1.648
47667W        W19927  13.213  24.537   2.237
47668W        W19928  37.830   4.750   3.409
47669W        W19929  42.466  34.687  14.864
47670W        W19930  24.251  36.964  11.968
47671W        W19931  40.535  26.529  13.094
47672W        W19932  29.971   6.656  11.950
47673W        W19933   8.994  22.954  11.074
47674W        W19934  35.872   6.806   3.481
47675W        W19935  12.546  11.325   0.190
47676W        W19936  24.180  12.608  11.131
47677W        W19937  29.126  21.498   3.793
47678W        W19938  39.386  24.307  14.320
47679W        W19939  11.886  25.586  12.927
47680W        W19940  43.177  36.643  13.211
47681W        W19941  23.584  27.244  11.111
47682W        W19942  28.423  12.768  11.571
47683W        W19943  31.137  15.691  13.315
47684W        W19944   4.263   8.810  10.612
47685W        W19945  17.158  30.552   2.262
47686W        W19946  41.998  42.737  11.103
47687W        W19947  15.249  17.675   3.151
47688W        W19948  32.016  21.685   0.479
47689W        W19949  29.359  23.270  14.902
47690W        W19950  14.802  16.688  11.468
47691W        W19951  25.248  44.463  14.358
47692W        W19952   8.662  26.128  11.478
47693W        W19953  42.262  30.717  13.507
47694W        W19954  35.113  11.127  10.742
47695W        W19955  13.706  32.930   1.012
47696W        W19956  39.403  19.038   3.674
47697W        W19957  32.168  24.830   0.971
47698W        W19958  36.545  25.375   5.233
47699W        W19959   9.821  26.407   4.170
47700W        W19960   9.166  33.038  11.627
47701W        W19961   1.225  40.087   2.577
47702W        W19962   7.644  15.779   1.354
47703W        W19963  40.447  37.836  13.102
47704W        W19964  10.429  22.157   3.818
47705W        W19965  33.586   9.365   3.315
47706W        W19966  33.928  29.613   4.050
47707W        W19967  15.626   7.505  13.981
47708W        W19968  29.370  22.049  13.004
47709W        W19969  14.088  43.887  13.557
47710W        W19970   7.429  16.842   2.267
47711W        W19971  28.868   8.790  12.009
47712W        W19972  39.584  36.611   0.382
47713W        W19973  12.024   8.803  11.899
47714W        W19974  21.274  12.729   5.116
47715W        W19975  19.196  32.356   1.739
47716W        W19976  18.640  43.524  10.695
47717W        W19977  22.944  25.603  11.384
47718W        W19978  13.872   0.354   4.150
47719W        W19979  28.527  27.656  10.385
47720W        W19980  11.036   2.876   2.320
47721W        W19981  16.554  26.055   1.270
47722W        W19982  23.447  14.852   0.516
47723W        W19983  21.502  12.349   4.402
47724W        W19984  37.965  18.605   2.926
47725W        W19985  33.937  42.970  12.030
47726W        W19986  41.474  31.630   4.902
47727W        W19987   1.659  13.087  14.297
47728W        W19988  23.394   5.731   1.339
47729W        W19989  22.730  42.189   1.398
47730W        W19990  40.311  19.921   3.689
47731W        W19991  13.737   8.978   2.748
47732W        W19992  43.756  18.807  10.639
47733W        W19993  12.830   1.759   2.179
47734W        W19994  42.826  40.864  11.706
47735W        W19995  40.691  25.021  13.662
47736W        W19996  31.719  17.963   0.248
47737W        W19997  36.359   6.456  14.382
47738W        W19998  16.120   1.913   2.103
47739W        W19999  26.168  33.017   3.863
47740W        W20000  12.376  38.546  13.764
47741W        W20001   8.888  18.063   2.585
47742W        W20002  26.683  26.527   2.421
47743W        W20003  29.734  25.288   5.130
47744W        W20004  13.382   7.280   3.149
47745W        W20005   4.374  38.402   4.570
47746W        W20006  12.228   9.645  14.453
47747W        W20007   5.089  40.505  14.781
47748W        W20008  35.419  18.257  13.432
47749W        W20009  26.814  25.650   0.465
47750W        W20010  19.443  37.459   3.610
47751W        W20011  30.858  22.123  14.850
47752W        W20012  27.960  43.816  10.738
47753W        W20013  25.094  23.239   2.251
47754W        W20014  27.502  29.978   2.409
47755W        W20015  15.039  14.424   9.795
47756W        W20016  33.822   4.491   4.211
47757W        W20017  12.705  36.396  12.236
47758W        W20018  18.098  18.819   1.187
47759W        W20019  41.042  11.245   0.415
47760W        W20020  35.374  35.969  12.251
47761W        W20021  13.882  33.564  11.809
47762W        W20022  10.876  32.997   3.338
47763W        W20023  44.017  21.039   2.838
47764W        W20024  33.435  36.763  14.450
47765W        W20025   5.953  15.788  13.133
47766W        W20026  39.722  25.640   4.207
47767W        W20027  17.166   4.771   4.620
47768W        W20028   7.139   8.375   2.199
47769W        W20029  16.745   1.361  12.595
47770W        W20030   0.460   9.846   2.335
47771W        W20031  22.429  27.242   0.350
47772W        W20032  30.673  19.161   2.699
47773W        W20033   3.380   2.911  10.847
47774W        W20034  15.569  40.671  12.492
47775W        W20035  14.763  38.012   0.064
47776W        W20036  20.150  36.620  13.458
47777W        W20037  23.251   4.014  14.768
47778W        W20038  28.998  21.550   1.293
47779W        W20039  24.604  44.847   0.132
47780W        W20040   9.338  31.661  10.723
47781W        W20041  12.358   7.212  13.586
47782W        W20042  44.655  39.832   2.725
47783W        W20043  30.907  25.209   2.656
47784W        W20044  28.101  40.794   2.685
47785W        W20045  14.628  24.495   0.413
47786W        W20046   6.440  17.637  13.555
47787W        W20047  26.499  44.573   4.113
47788W        W20048  30.697   2.951   3.142
47789W        W20049  37.278  43.431  14.671
47790W        W20050  42.590  40.389   0.544
47791W        W20051  24.619  23.799   3.342
47792W        W20052  44.779  17.082  14.949
47793W        W20053  32.126  43.912   3.423
47794W        W20054  31.512  26.218   2.211
47795W        W20055  31.411  25.937   1.697
47796W        W20056  23.990  43.199   0.702
47797W        W20057  43.668  31.402   1.346
47798W        W20058   0.172   8.496   3.753
47799W        W20059  10.235  30.132  12.139
47800W        W20060  33.928  40.198  14.837
47801W        W20061  14.724   3.366   4.618
47802W        W20062  38.447  20.010   3.427
47803W        W20063  23.642  25.673   1.315
47804W        W20064  17.142   5.392   4.734
47805W        W20065   5.251   5.679  13.911
47806W        W20066  26.486  31.404   0.918
47807W        W20067  21.611   3.955   4.875
47808W        W20068  23.004   7.722   3.244
47809W        W20069  10.499  27.032   2.411
47810W        W20070  10.061  23.602   2.277
47811W        W20071   7.822   0.518  11.158
47812W        W20072  19.594  18.251   3.750
47813W        W20073   0.181  43.385  14.924
47814W        W20074  16.570   6.672  11.558
47815W        W20075  21.192  26.544   2.382
47816W        W20076  22.007  31.842   3.381
47817W        W20077  43.409  28.538   0.006
47818W        W20078  44.840  23.759  14.332
47819W        W20079  27.583  35.010  11.202
47820W        W20080  40.057  31.067   3.089
47821W        W20081   4.476  16.223  14.974
47822W        W20082  33.270  16.279   1.093
47823W        W20083  37.076   1.284  13.576
47824W        W20084   1.533  40.002   2.142
47825W        W20085   8.270  21.489  13.845
47826W        W20086  38.308  21.113  14.605
47827W        W20087   4.790   5.484   2.802
47828W        W20088  21.306  11.598  13.383
47829W        W20089  20.866  38.885   0.774
47830W        W20090  17.436  24.228   1.747
47831W        W20091  14.763  22.119   0.819
47832W        W20092  15.371   3.913  13.060
47833W        W20093  12.328   1.979   2.284
47834W        W20094  30.207   4.621   1.746
47835W        W20095  27.074  44.244   2.219
47836W        W20096  20.418  22.112  12.924
47837W        W20097  21.525  39.832  14.506
47838W        W20098  29.777  30.063  13.808
47839W        W20099   0.811  30.173   3.389
47840W        W20100  22.139   7.435  12.983
47841W        W20101   4.615   5.478   4.101
47842W        W20102  39.237  44.508  11.928
47843W        W20103   2.554   4.297   3.047
47844W        W20104  41.920  30.293  14.839
47845W        W20105   6.238  44.037  10.707
47846W        W20106  28.276  29.524   0.851
47847W        W20107   2.795  39.348   2.435
47848W        W20108  29.656   7.302  12.233
47849W        W20109  29.651  12.684  10.678
47850W        W20110  24.229   5.745  12.109
47851W        W20111   1.457  39.204   2.081
47852W        W20112  29.518  35.863   3.861
47853W        W20113  41.916  39.641  13.447
47854W        W20114  25.936   7.399  13.615
47855W        W20115   5.684  39.749   2.803
47856W        W20116  33.623  29.598  12.924
47857W        W20117  21.645  42.503   1.708
47858W        W20118  36.416  25.659  12.073
47859W        W20119   3.769  28.533  11.670
47860W        W20120  14.731  40.468   1.416
47861W        W20121  23.531   7.164   2.294
47862W        W20122  35.693  29.809   2.380
47863W        W20123  33.311  44.980   4.435
47864W        W20124   7.031  25.494   5.038
47865W        W20125   0.249  28.500  10.887
47866W        W20126  23.168  14.562   2.758
47867W        W20127  28.949   0.352   4.504
47868W        W20128  28.051   5.825  12.490
47869W        W20129  25.505   3.754  14.442
47870W        W20130  21.765  11.419   4.404
47871W        W20131  15.123  31.893   4.158
47872W        W20132   6.439  34.153  13.366
47873W        W20133  40.712   4.903  14.348
47874W        W20134   6.550  41.568  14.984
47875W        W20135  19.242  35.753  13.215
47876W        W20136  34.087   6.743   4.058
47877W        W20137  26.019  35.991  10.731
47878W        W20138  38.262  29.143  11.030
47879W        W20139   1.876  27.113   3.688
47880W        W20140  34.073  10.091  12.943
47881W        W20141  30.653  41.912   4.033
47882W        W20142  26.674  39.060   1.677
47883W        W20143  33.579  35.747   4.996
47884W        W20144  24.460  10.133   1.302
47885W        W20145  18.272   4.476  10.425
47886W        W20146  26.002  30.424  13.358
47887W        W20147   7.746  33.038   2.300
47888W        W20148  29.591  43.370   3.769
47889W        W20149  40.217  11.311   1.813
47890W        W20150  31.016  10.921   1.621
47891W        W20151   6.114  16.641   0.391
47892W        W20152   4.724   7.394   4.231
47893W        W20153  12.061  20.715   3.619
47894W        W20154  17.749   0.874   0.365
47895W        W20155   9.599  29.574  14.614
47896W        W20156  26.950  27.631   4.167
47897W        W20157  18.075  14.540   0.684
47898W        W20158  40.741  23.555   0.883
47899W        W20159  29.367  19.571   4.523
47900W        W20160  14.242  41.709  14.995
47901W        W20161  13.339  32.649   2.294
47902W        W20162  30.267   1.801  13.513
47903W        W20163  44.898  25.037   3.686
47904W        W20164  39.792  22.010   1.481
47905W        W20165  21.152  27.739  12.878
47906W        W20166  24.210   4.547   3.549
47907W        W20167  34.603  26.259  10.871
47908W        W20168  32.970   3.254  14.335
47909W        W20169  24.669   9.580   3.265
47910W        W20170   9.169  40.509  14.390
47911W        W20171   6.676   6.752   1.214
47912W        W20172  18.571  32.510   2.205
47913W        W20173   5.378   8.465  14.512
47914W        W20174  24.986  10.465  13.038
47915W        W20175  26.565   2.946   2.927
47916W        W20176  28.693  13.187   3.027
47917W        W20177  35.921  20.550  10.695
47918W        W20178  18.676  39.222  11.579
47919W        W20179  12.769  28.204   1.519
47920W        W20180  44.328   8.309  13.875
47921W        W20181  19.750  34.827  12.404
47922W        W20182  42.824  36.093  13.913
47923W        W20183  43.991  10.833   2.078
47924W        W20184  22.298  19.303   4.184
47925W        W20185  27.861  13.635   4.738
47926W        W20186   1.539  10.483  12.413
47927W        W20187  14.346  30.696   5.061
47928W        W20188   4.271  40.508   2.983
47929W        W20189  12.676   8.450   1.758
47930W        W20190   1.282  10.729   0.300
47931W        W20191   6.309  19.620  12.526
47932W        W20192   4.798  13.669   3.244
47933W        W20193  21.163  44.233  11.087
47934W        W20194  40.192  21.213  11.636
47935W        W20195  33.981  19.823   1.390
47936W        W20196  33.463   3.753   4.188
47937W        W20197  32.493  30.552   1.870
47938W        W20198   5.704   6.556  10.705
47939W        W20199  25.786   4.870  10.788
47940W        W20200  29.031  28.588  10.590
47941W        W20201  26.770  32.429   0.504
47942W        W20202  26.995  38.448  10.421
47943W        W20203  17.138  39.267   2.282
47944W        W20204  25.175  32.110  13.558
47945W        W20205   1.030  15.827  11.791
47946W        W20206  38.632  24.477   4.139
47947W        W20207   8.131  38.354  10.999
47948W        W20208  20.910  21.128   2.250
47949W        W20209  24.603   1.356  14.973
47950W        W20210  44.999   7.167   3.193
47951W        W20211  43.509   3.759  10.412
47952W        W20212  29.620  24.979   1.387
47953W        W20213   5.973  43.270  11.099
47954W        W20214  13.885  15.101  12.106
47955W        W20215  42.398  44.474   3.009
47956W        W20216   1.865  44.239  12.885
47957W        W20217  32.924  18.810   4.091
47958W        W20218  39.727  32.122   3.606
47959W        W20219  37.195  43.323   1.438
47960W        W20220  35.102  42.910   3.372
47961W        W20221  39.914  44.963   3.926
47962W        W20222   5.475   2.004   2.276
47963W        W20223  37.339  27.681  11.333
47964W        W20224  32.088  10.791   1.586
47965W        W20225  38.437  12.241  12.396
47966W        W20226  29.625  44.947   2.576
47967W        W20227  33.417  14.780  12.017
47968W        W20228  23.754  16.406  10.775
47969W        W20229  21.594  13.549   0.914
47970W        W20230  15.772  35.088  13.748
47971W        W20231  10.834  29.526   4.483
47972W        W20232  19.083  24.764   1.204
47973W        W20233  29.088  12.870   2.878
47974W        W20234  26.148  43.711  10.472
47975W        W20235   9.676  15.246   2.195
47976W        W20236   9.730  16.248  10.370
47977W        W20237  15.079  24.685   3.159
47978W        W20238  26.055  27.574   4.452
47979W        W20239  42.596  31.475  11.186
47980W        W20240   1.043   4.219  13.424
47981W        W20241  43.325  12.610  14.841
47982W        W20242  27.998   0.089   0.568
47983W        W20243  32.687  30.963  13.816
47984W        W20244  15.286   5.758  12.779
47985W        W20245   2.297  21.529   4.141
47986W        W20246   4.476   3.207  14.790
47987W        W20247  29.669  35.515  13.155
47988W        W20248  18.014  23.242  10.734
47989W        W20249  30.431  43.872  14.193
47990W        W20250  23.980  24.177   0.477
47991W        W20251  33.774  25.509   4.563
47992W        W20252   4.892   8.646  14.437
47993W        W20253  23.010   8.253  12.333
47994W        W20254  41.894  15.872   2.758
47995W        W20255  10.930   8.206  13.246
47996W        W20256  14.754   7.805   4.051
47997W        W20257  24.690  21.168  14.437
47998W        W20258   6.432  18.172  11.619
47999W        W20259   9.703  27.603   0.408
48000W        W20260  27.333   2.250   4.253
48001W        W20261   8.447   2.343   4.893
48002W        W20262  27.459  25.399  13.336
48003W        W20263  28.743  29.107   1.394
48004W        W20264  33.386  38.711  14.499
48005W        W20265  32.116  38.124   0.272
48006W        W20266  31.239  25.363   1.805
48007W        W20267  21.682   1.780   3.301
48008W        W20268   8.307  29.952  11.455
48009W        W20269  42.322  29.984  11.145
48010W        W20270   8.223  23.746  12.165
48011W        W20271  25.502   9.108   0.389
48012W        W20272  32.773  24.075   4.093
48013W        W20273  19.698   8.338  14.826
48014W        W20274  30.851  42.904   3.094
48015W        W20275  39.439  41.066  12.509
48016W        W20276  31.422  16.765   3.237
48017W        W20277  42.882  10.804  13.924
48018W        W20278  37.512  15.624  11.905
48019W        W20279   9.950  11.213  12.461
48020W        W20280   7.929  22.728  14.260
48021W        W20281  36.815  38.762  12.570
48022W        W20282   7.741  40.023   3.750
48023W        W20283  36.483   3.271  10.419
48024W        W20284   4.865  37.183   5.508
48025W        W20285   1.179  21.089  11.084
48026W        W20286  33.822  18.112   2.890
48027W        W20287  24.156  18.292   4.675
48028W        W20288  26.221  30.575   3.788
48029W        W20289   9.191   7.079  11.402
48030W        W20290  30.660  34.855  13.320
48031W        W20291  24.401  26.873   1.891
48032W        W20292  10.825  35.828   4.605
48033W        W20293  11.743  17.153   1.816
48034W        W20294  18.614   4.222   2.416
48035W        W20295  10.530  14.626  13.379
48036W        W20296  12.198  29.417   1.810
48037W        W20297  39.232   4.788   3.256
48038W        W20298  16.222  18.175  13.810
48039W        W20299  12.619  31.988  11.673
48040W        W20300  17.185   3.279  14.318
48041W        W20301  43.323   8.250   0.414
48042W        W20302   4.311  11.670   2.238
48043W        W20303  17.514  21.762   4.613
48044W        W20304   9.754  41.822  10.884
48045W        W20305   1.770   1.968  12.803
48046W        W20306   0.766  23.507  13.121
48047W        W20307  17.526  12.872   3.687
48048W        W20308  25.066  34.588  13.047
48049W        W20309  36.601  39.347  10.417
48050W        W20310  29.000   1.638   1.016
48051W        W20311  26.113  40.165   3.081
48052W        W20312   0.888  12.565   4.013
48053W        W20313  38.829  19.397   2.007
48054W        W20314  19.722  19.349  13.854
48055W        W20315  36.824  38.343  14.990
48056W        W20316  20.276  11.824  10.531
48057W        W20317  40.003  34.110   2.227
48058W        W20318  33.130  15.756  12.560
48059W        W20319  34.892   1.516   0.038
48060W        W20320  17.880  42.927   4.541
48061W        W20321   1.455  30.982  11.101
48062W        W20322  23.236   2.200  11.112
48063W        W20323  44.205  43.055   3.674
48064W        W20324  37.192   7.877  13.491
48065W        W20325   6.476  21.205  11.483
48066W        W20326  12.168  30.643   4.745
48067W        W20327  42.437  37.524  12.409
48068W        W20328  19.764   8.651   4.815
48069W        W20329  39.713   4.848  11.462
48070W        W20330  41.886  18.319  11.030
48071W        W20331   7.813  19.116   1.777
48072W        W20332   6.764  24.632   3.621
48073W        W20333   2.786  44.886   1.380
48074W        W20334  12.566  27.141  12.457
48075W        W20335  43.238  30.444   0.430
48076W        W20336  28.314  43.722  13.418
48077W        W20337  39.386  19.416  11.848
48078W        W20338  15.807  11.387   0.074
48079W        W20339  12.376  28.454  11.463
48080W        W20340   0.830  39.376  11.956
48081W        W20341  11.873  11.213   4.712
48082W        W20342  21.746  21.483   2.259
48083W        W20343  27.494  18.359  13.957
48084W        W20344  23.190  23.583   0.292
48085W        W20345  11.897  30.176   2.787
48086W        W20346   1.701  36.394   0.875
48087W        W20347  24.073  43.752   4.121
48088W        W20348   8.000  31.928  11.143
48089W        W20349  33.616  43.510   0.300
48090W        W20350   1.406   5.976  14.954
48091W        W20351  17.719  38.381  13.439
48092W        W20352   4.143   7.788  10.581
48093W        W20353  11.656  34.915  10.789
48094W        W20354   6.784  13.823   0.498
48095W        W20355   8.681  20.355   3.309
48096W        W20356  33.410  37.728  10.817
48097W        W20357   4.739  35.483  10.306
48098W        W20358  40.450  33.874  11.151
48099W        W20359  32.807  33.566  14.867
48100W        W20360  42.281  40.517   0.993
48101W        W20361  23.530  34.642   4.194
48102W        W20362  33.554  11.422   1.707
48103W        W20363  30.806   0.355  14.401
48104W        W20364   2.700  19.021   3.694
48105W        W20365  16.167  40.955   1.204
48106W        W20366  27.659  20.768   2.589
48107W        W20367  32.458  26.595   2.167
48108W        W20368   8.238  39.519  14.276
48109W        W20369   0.917  27.578  11.142
48110W        W20370  29.862   9.109  13.999
48111W        W20371  11.729  30.104  10.594
48112W        W20372  13.656  39.368   4.657
48113W        W20373  36.795   3.752  12.985
48114W        W20374  44.366   9.677  14.429
48115W        W20375  30.227  28.582   4.095
48116W        W20376   2.854  25.768  11.497
48117W        W20377  39.851  10.895  11.154
48118W        W20378  33.424   1.879  13.744
48119W        W20379  41.306  36.628   0.558
48120W        W20380  10.324  31.929   4.583
48121W        W20381  39.810  24.780   3.584
48122W        W20382  25.486  33.484  13.283
48123W        W20383  40.431  43.002   4.620
48124W        W20384  42.957  32.009   3.301
48125W        W20385  34.484  12.633   1.832
48126W        W20386  31.605  17.370  12.938
48127W        W20387  39.943  31.609  10.637
48128W        W20388   2.928  11.433   3.233
48129W        W20389  33.192  25.159   3.123
48130W        W20390  31.343   7.369  10.605
48131W        W20391  39.396  23.159  11.571
48132W        W20392  44.341  39.388   1.380
48133W        W20393  28.910  22.222   3.362
48134W        W20394  28.907  16.673   0.325
48135W        W20395   4.997  27.119   4.613
48136W        W20396  35.357  24.438   4.924
48137W        W20397  30.959  38.927  13.916
48138W        W20398  38.834  22.294  12.907
48139W        W20399  18.999  38.668  10.268
48140W        W20400  24.739  42.075   0.243
48141W        W20401  19.959  44.411  14.010
48142W        W20402  16.641  18.294   2.160
48143W        W20403  42.922  10.941  13.436
48144W        W20404   5.206  14.118  10.774
48145W        W20405  32.398  44.513   2.718
48146W        W20406  17.015  43.277   4.988
48147W        W20407   7.627  42.187  12.109
48148W        W20408   5.592  41.513   3.286
48149W        W20409  13.323  19.775  11.602
48150W        W20410  10.917  31.605  13.607
48151W        W20411  19.682  19.107   5.227
48152W        W20412  24.088  11.189   0.692
48153W        W20413  33.059  20.483   0.439
48154W        W20414  12.644  23.266   3.868
48155W        W20415  44.799  24.039   1.196
48156W        W20416  22.244  29.285   1.830
48157W        W20417  32.401   4.526  11.995
48158W        W20418  30.950  39.015  11.986
48159W        W20419  36.858   2.321  13.060
48160W        W20420  24.970  38.280  10.918
48161W        W20421  17.553  10.425   2.610
48162W        W20422   4.870  27.680   5.636
48163W        W20423  25.516  39.605   4.022
48164W        W20424  32.748  38.376   0.375
48165W        W20425  15.723  37.046   3.689
48166W        W20426  11.661   1.269   1.810
48167W        W20427   3.862  22.194  12.975
48168W        W20428  10.795  22.452   1.478
48169W        W20429  17.093  33.510  10.203
48170W        W20430  22.917  34.352  13.863
48171W        W20431   1.367  30.502  10.870
48172W        W20432  33.713  27.921   3.267
48173W        W20433   8.182   9.822  13.402
48174W        W20434  32.441  12.894  12.525
48175W        W20435   8.849  32.454  14.366
48176W        W20436   7.276  25.531  14.439
48177W        W20437  37.368  20.260  11.072
48178W        W20438  28.004   8.705  12.411
48179W        W20439  36.761   0.157   0.772
48180W        W20440  10.114  41.417  11.439
48181W        W20441  44.490  29.228  10.727
48182W        W20442   4.377  25.708   2.247
48183W        W20443   6.732  37.589   0.402
48184W        W20444  31.928  30.504   2.407
48185W        W20445  11.553   0.406  11.044
48186W        W20446  30.643   5.452  13.253
48187W        W20447  33.065  42.781  14.027
48188W        W20448  18.080   7.210  11.942
48189W        W20449  28.512  36.400  14.738
48190W        W20450  30.541  24.600  13.694
48191W        W20451  17.227  33.622   1.289
48192W        W20452  26.076  22.958   1.157
48193W        W20453  28.187  15.638  12.468
48194W        W20454  23.119  12.278   4.168
48195W        W20455   4.129  40.334   4.039
48196W        W20456  27.722  30.267  14.567
48197W        W20457  42.886  35.162  13.530
48198W        W20458  29.053   5.510  14.122
48199W        W20459  14.619  19.198  12.455
48200W        W20460   4.845   6.295   2.338
48201W        W20461   6.108  16.693   4.007
48202W        W20462  11.615  32.148  11.417
48203W        W20463   0.701   0.275   9.881
48204W        W20464  20.502  43.316  14.015
48205W        W20465   8.384  14.247  11.497
48206W        W20466  26.740  32.318   3.864
48207W        W20467  27.677  40.056  11.081
48208W        W20468  42.866  22.453   1.336
48209W        W20469  32.509  12.670   4.085
48210W        W20470  24.546  13.388  14.399
48211W        W20471  10.201  13.842  12.810
48212W        W20472  36.870  14.759  14.270
48213W        W20473  15.727  27.455  11.819
48214W        W20474  19.315   3.787   2.684
48215W        W20475  30.463  41.526  12.497
48216W        W20476  42.698  28.688   0.437
48217W        W20477  44.217  31.445   2.206
48218W        W20478   4.762  39.484   4.222
48219W        W20479   1.111  27.515   4.337
48220W        W20480  37.464  31.723  10.777
48221W        W20481  10.796  31.516  13.106
48222W        W20482   1.909  27.074  14.039
48223W        W20483   0.870  11.713   4.594
48224W        W20484  36.391  30.721  14.506
48225W        W20485  43.820  25.589   4.640
48226W        W20486  35.689  28.536   2.955
48227W        W20487  40.398  33.572   9.891
48228W        W20488  12.192  39.040  11.090
48229W        W20489  22.501  32.901   0.755
48230W        W20490  42.313  13.893   1.778
48231W        W20491  39.231  23.252   4.544
48232W        W20492  12.503  24.873   1.749
48233W        W20493  36.954  11.122   1.744
48234W        W20494  41.276  30.037  10.512
48235W        W20495  13.516  31.987  14.662
48236W        W20496  15.465   9.673  11.862
48237W        W20497  20.083  27.215  12.066
48238W        W20498  28.867  23.782   2.749
48239W        W20499  25.031  35.331   2.787
48240W        W20500  18.823  21.224  13.453
48241W        W20501   4.827  21.682  11.125
48242W        W20502  39.716   7.956   3.723
48243W        W20503  25.762  14.576  13.618
48244W        W20504  25.548   2.941   3.998
48245W        W20505  40.706  16.694   1.276
48246W        W20506   1.427  10.751   3.421
48247W        W20507  21.082  32.070   3.091
48248W        W20508  40.597  10.217  10.589
48249W        W20509  11.676   0.251  12.233
48250W        W20510   0.119  31.066   2.294
48251W        W20511   1.306  11.226   1.234
48252W        W20512  25.434  24.436  12.159
48253W        W20513  27.042  15.227   0.906
48254W        W20514  16.531  18.505   4.271
48255W        W20515   5.686  27.213  14.787
48256W        W20516   0.437  38.296  13.087
48257W        W20517  34.965  22.804  13.436
48258W        W20518   6.613  16.729   2.754
48259W        W20519  39.553   1.294   3.799
48260W        W20520   1.816  37.635  12.115
48261W        W20521  12.668  35.087  14.819
48262W        W20522  11.319  28.693   9.928
48263W        W20523  20.065   0.554  14.641
48264W        W20524  30.039  31.961   0.866
48265W        W20525  23.075  36.377  11.402
48266W        W20526  17.242  29.255  11.550
48267W        W20527  10.912  40.953  12.496
48268W        W20528  15.650  22.752   4.233
48269W        W20529  15.369   6.322  10.639
48270W        W20530  23.590   1.844   2.509
48271W        W20531  36.930  18.770   9.828
48272W        W20532  29.135   8.339  10.667
48273W        W20533  42.812  11.115   1.816
48274W        W20534  24.603   9.458   0.361
48275W        W20535  36.964  18.502  12.116
48276W        W20536   4.219  39.878  14.873
48277W        W20537  25.787  18.767   2.271
48278W        W20538  26.586  28.239   2.906
48279W        W20539  20.151  40.457  13.928
48280W        W20540   8.489  26.011   1.608
48281W        W20541  36.316  31.355   2.863
48282W        W20542  38.385  44.982   3.427
48283W        W20543   0.373  36.492  14.089
48284W        W20544  20.050  10.703   4.591
48285W        W20545   8.300   1.822   1.159
48286W        W20546  40.040   9.549   4.486
48287W        W20547  17.003   6.356   0.762
48288W        W20548  16.239  17.713  13.592
48289W        W20549  33.644  40.702  12.904
48290W        W20550  35.011  26.749  14.917
48291W        W20551  39.055  15.349  12.465
48292W        W20552  43.418  20.131   1.224
48293W        W20553  11.084  37.832  10.413
48294W        W20554  43.243  18.486   1.818
48295W        W20555  36.353  27.077   4.507
48296W        W20556  12.190   2.325  12.594
48297W        W20557   3.243  33.870  14.821
48298W        W20558  38.444  19.667   0.701
48299W        W20559  44.959  34.039  10.899
48300W        W20560  30.948  13.893  13.121
48301W        W20561  40.527   8.407   3.275
48302W        W20562  26.932  30.639  14.958
48303W        W20563  20.667  40.363   2.181
48304W        W20564  25.641   7.864  13.499
48305W        W20565  13.529  24.734  11.560
48306W        W20566  26.184  32.623   2.696
48307W        W20567  27.018  27.534  13.335
48308W        W20568  35.486   5.051   4.798
48309W        W20569   5.192  44.586  11.124
48310W        W20570  20.431  44.309   2.401
48311W        W20571  21.092  22.658  14.285
48312W        W20572  19.840  16.074  10.098
48313W        W20573  37.002  33.852   4.376
48314W        W20574  29.669  24.699  14.776
48315W        W20575  42.714  33.643  11.081
48316W        W20576  21.132  16.316  14.505
48317W        W20577  30.558  38.601  13.850
48318W        W20578  31.979  28.883   4.752
48319W        W20579  12.430  14.626  14.339
48320W        W20580  26.727  22.694   5.041
48321W        W20581  27.267  17.209   3.339
48322W        W20582  40.117  39.894  10.614
48323W        W20583   1.958   4.797  14.535
48324W        W20584  13.442  12.947   0.765
48325W        W20585  41.315   5.487   2.659
48326W        W20586  43.046   3.109   3.521
48327W        W20587   6.448  31.164   3.259
48328W        W20588  41.564  19.621   4.266
48329W        W20589  43.650  19.972   3.321
48330W        W20590  17.011  38.259  10.638
48331W        W20591  11.062  34.244  12.499
48332W        W20592  16.681  39.099   3.719
48333W        W20593  38.806  33.944   2.007
48334W        W20594  14.983   7.748  12.370
48335W        W20595  27.618   3.897  11.370
48336W        W20596  24.346  16.768  14.437
48337W        W20597  35.917  28.025   2.613
48338W        W20598  33.124  38.747   1.352
48339W        W20599  26.778  15.567   2.604
48340W        W20600  26.505  25.624   0.918
48341W        W20601   4.807  23.620  11.049
48342W        W20602  43.424  42.418  10.801
48343W        W20603  38.860  14.770   1.399
48344W        W20604  25.553  17.138   2.757
48345W        W20605  42.888  15.778   0.746
48346W        W20606   8.706  39.121  13.087
48347W        W20607  36.903   6.196  12.913
48348W        W20608  35.851  12.920  12.543
48349W        W20609  15.821   1.006  12.450
48350W        W20610   1.310  37.008  14.956
48351W        W20611   5.162  31.064  14.859
48352W        W20612  33.531  34.657   4.122
48353W        W20613   8.941  28.628  13.499
48354W        W20614  37.532   8.251  13.729
48355W        W20615   1.286  44.456  13.846
48356W        W20616  26.414  11.850  13.541
48357W        W20617  12.997  33.603   3.201
48358W        W20618  39.038  38.015  12.799
48359W        W20619   8.187  11.349   3.147
48360W        W20620  19.247  13.339  12.510
48361W        W20621  40.885  15.257  13.632
48362W        W20622  33.059  26.207  14.061
48363W        W20623   3.373  26.009   4.628
48364W        W20624  36.015  25.980  11.969
48365W        W20625  17.503  26.099  10.935
48366W        W20626  23.998  39.661   3.810
48367W        W20627  43.200  40.914  12.073
48368W        W20628  19.106  23.338   0.350
48369W        W20629   5.952   7.264   2.229
48370W        W20630  13.232  18.262   1.662
48371W        W20631  30.878   3.019   4.742
48372W        W20632  16.665  30.638   2.209
48373W        W20633  28.464   8.747   0.986
48374W        W20634  33.430   3.268  12.859
48375W        W20635  31.651   7.850  14.796
48376W        W20636  21.341  12.749  11.534
48377W        W20637  15.578  23.232  14.145
48378W        W20638   7.186  22.775  12.033
48379W        W20639  21.645  28.623   3.648
48380W        W20640  38.559  22.133   2.861
48381W        W20641  26.555  43.985  10.844
48382W        W20642  15.608  10.175   1.130
48383W        W20643  21.125  44.047   3.373
48384W        W20644  35.106   8.937   0.977
48385W        W20645   4.737  10.282  14.022
48386W        W20646   8.630  25.276  13.061
48387W        W20647   5.313   7.766  11.802
48388W        W20648  24.249  13.761   3.793
48389W        W20649  22.082   9.687   4.608
48390W        W20650  44.818   9.303   4.646
48391W        W20651  35.665  39.284   3.743
48392W        W20652  29.682   5.351  12.897
48393W        W20653  36.164  14.236  11.914
48394W        W20654  38.346  12.241   2.385
48395W        W20655  41.552  27.026  11.860
48396W        W20656  33.098   4.844   0.837
48397W        W20657  14.809  42.353  14.291
48398W        W20658  19.863  18.129  13.023
48399W        W20659  39.017  43.935   4.857
48400W        W20660  21.630  30.244  12.936
48401W        W20661  30.978  44.726  12.735
48402W        W20662   5.654  35.326  11.268
48403W        W20663  30.056  35.607  11.069
48404W        W20664  25.865  31.344  12.129
48405W        W20665  39.344   5.697   0.563
48406W        W20666  36.883   7.463   4.046
48407W        W20667  36.005   6.327  13.552
48408W        W20668  21.123  42.251   3.679
48409W        W20669  15.685   5.281   4.676
48410W        W20670  31.758  26.103  13.010
48411W        W20671  33.005  33.556   2.887
48412W        W20672   8.770  10.202   0.730
48413W        W20673  35.637   3.180  11.683
48414W        W20674   6.659  13.161  13.279
48415W        W20675  23.768   1.349   2.662
48416W        W20676  39.575  35.126   3.665
48417W        W20677  19.722  37.408   3.193
48418W        W20678  40.346  41.273  12.502
48419W        W20679  39.916  36.293   0.972
48420W        W20680  15.460  23.714   0.370
48421W        W20681  27.965  14.265  11.387
48422W        W20682   6.236  25.170   1.205
48423W        W20683  33.146  24.162  11.526
48424W        W20684  22.407  19.852   2.284
48425W        W20685   7.675  16.631  14.451
48426W        W20686  42.057  41.374  10.969
48427W        W20687  23.239   1.421  12.317
48428W        W20688  27.487  24.758  12.455
48429W        W20689   3.234  10.262  14.577
48430W        W20690  27.545   6.308  10.652
48431W        W20691  33.029  43.509  12.068
48432W        W20692  43.716  10.968  10.683
48433W        W20693  41.230   4.697   2.696
48434W        W20694  28.622  38.300  10.706
48435W        W20695  14.814   9.591   1.890
48436W        W20696  14.574  40.393   3.686
48437W        W20697  21.729  33.190   0.358
48438W        W20698  26.120  43.256  10.706
48439W        W20699  44.937  36.829  13.849
48440W        W20700  16.563  21.276   4.006
48441W        W20701  32.956   1.992   3.379
48442W        W20702   5.126   1.286   1.216
48443W        W20703  40.386   8.306   4.154
48444W        W20704   5.830  26.620  13.321
48445W        W20705   0.895  29.424   5.013
48446W        W20706  32.532  39.352  13.387
48447W        W20707  44.099  36.260   3.273
48448W        W20708  34.677  10.148  10.809
48449W        W20709  34.295  40.974  14.430
48450W        W20710  27.991  39.023   1.967
48451W        W20711  24.709   2.726  12.946
48452W        W20712  14.626  30.111   9.602
48453W        W20713   7.892  32.924  11.975
48454W        W20714  39.545   8.603   2.877
48455W        W20715  35.898  33.534   0.555
48456W        W20716  11.209  39.393  12.570
48457W        W20717  27.470   0.425  13.982
48458W        W20718  43.045   2.802  11.289
48459W        W20719   9.700  22.699   4.749
48460W        W20720  44.841  40.811   0.467
48461W        W20721  22.409   5.953   3.703
48462W        W20722   3.508  18.542  10.793
48463W        W20723  30.332  13.169   2.249
48464W        W20724  24.818  33.606  11.534
48465W        W20725  19.917  21.922  12.833
48466W        W20726   4.972   9.883  12.468
48467W        W20727  35.090  22.679   4.605
48468W        W20728  36.463  10.228  14.785
48469W        W20729  34.984  33.169   4.176
48470W        W20730  19.714  16.713   1.243
48471W        W20731  19.714  16.644   2.300
48472W        W20732  32.115  22.605   4.062
48473W        W20733  27.726  15.394  12.396
48474W        W20734  11.805  10.823  11.135
48475W        W20735   6.254  22.255  11.151
48476W        W20736  41.386  35.881  14.816
48477W        W20737   5.668  23.689   2.360
48478W        W20738  25.086  18.238  12.111
48479W        W20739  36.850  25.737   1.290
48480W        W20740  41.378  44.334   3.265
48481W        W20741  30.190  25.629   1.335
48482W        W20742  15.563  34.761   4.413
48483W        W20743   8.394  22.076  12.005
48484W        W20744  37.332  14.914   3.731
48485W        W20745  33.504   6.126  11.181
48486W        W20746   1.449  24.493  12.751
48487W        W20747   2.425   6.376   4.689
48488W        W20748   2.321   5.227   4.603
48489W        W20749  10.655  30.490  14.073
48490W        W20750  43.877  25.146   1.813
48491W        W20751  41.920  15.092  12.906
48492W        W20752  18.143   6.686   3.988
48493W        W20753  20.800  11.181   3.692
48494W        W20754  43.832  24.158   1.228
48495W        W20755  11.536  30.222   1.956
48496W        W20756  30.167  36.470  10.684
48497W        W20757  32.505  39.004  12.984
48498W        W20758  19.467  10.396   4.108
48499W        W20759  43.332  38.599   3.350
48500W        W20760  43.495  11.248   4.517
48501W        W20761  43.778  27.568  13.511
48502W        W20762  44.993  22.463  14.021
48503W        W20763  17.696  16.368  14.437
48504W        W20764  21.138  22.285   1.876
48505W        W20765  30.884  33.431   3.513
48506W        W20766  15.022  28.469   1.262
48507W        W20767  34.674  20.730  10.202
48508W        W20768  22.843  38.195   1.454
48509W        W20769  20.087  10.436   0.313
48510W        W20770   2.082  18.596   0.990
48511W        W20771   8.844   9.697   2.414
48512W        W20772   8.348  36.549   1.371
48513W        W20773  44.982   5.338   0.204
48514W        W20774  20.321  24.609  13.620
48515W        W20775  33.801  18.064   9.961
48516W        W20776  34.037  28.157   1.809
48517W        W20777  35.975   2.701  13.993
48518W        W20778  16.836  22.235  11.567
48519W        W20779  17.275  12.909  13.404
48520W        W20780  10.636   9.711   3.646
48521W        W20781  10.330  23.042   0.873
48522W        W20782  18.574  22.500   0.649
48523W        W20783   3.731  31.403   2.342
48524W        W20784  24.849  26.773  13.718
48525W        W20785   1.727  12.497  11.546
48526W        W20786  41.813  18.159   2.286
48527W        W20787  36.803   5.429   1.436
48528W        W20788   1.020  25.894   1.249
48529W        W20789   2.378  14.870   2.686
48530W        W20790  43.757   8.346   2.276
48531W        W20791  33.256  24.722   4.892
48532W        W20792   9.387  33.139   4.210
48533W        W20793  12.091   3.224  11.044
48534W        W20794  12.476   4.212  11.402
48535W        W20795  15.541  16.047   4.212
48536W        W20796  25.979   1.990   4.841
48537W        W20797  33.003  20.675  11.606
48538W        W20798   9.176  41.305   0.450
48539W        W20799  18.680  32.877  14.779
48540W        W20800   3.207  41.615  12.399
48541W        W20801  12.884  38.964  10.420
48542W        W20802  30.223   6.116  14.490
48543W        W20803  10.199  15.332   1.578
48544W        W20804  35.853  30.955  14.352
48545W        W20805  25.176  31.913  11.961
48546W        W20806  23.237  13.636  13.902
48547W        W20807  31.571   2.420   1.958
48548W        W20808  12.678  29.958  14.331
48549W        W20809  37.824  12.522  12.492
48550W        W20810   5.453  41.847  12.743
48551W        W20811  43.562   7.589  12.954
48552W        W20812  22.542  31.003  12.084
48553W        W20813  29.014  39.798  13.003
48554W        W20814  41.840  41.078   3.635
48555W        W20815  11.937   2.240  11.829
48556W        W20816  10.736  39.354  11.498
48557W        W20817  14.159  38.860   4.071
48558W        W20818  41.800  30.479   2.154
48559W        W20819  35.630  10.668  11.447
48560W        W20820  41.346  37.418  12.157
48561W        W20821  38.597   5.369  11.918
48562W        W20822  18.240  24.510   1.729
48563W        W20823  36.413  21.192   9.988
48564W        W20824  15.574  17.584   9.819
48565W        W20825   8.549   5.013   4.677
48566W        W20826  40.557  11.611  10.765
48567W        W20827  36.773  38.991   4.807
48568W        W20828  41.114  37.084   3.250
48569W        W20829  34.982  13.106   3.674
48570W        W20830  37.634  16.347   1.440
48571W        W20831  39.803  34.375  10.735
48572W        W20832  26.033  24.490   2.065
48573W        W20833  21.227  19.011   1.273
48574W        W20834  40.874  21.694  10.735
48575W        W20835  39.153  29.029  11.940
48576W        W20836  18.035  27.205  13.473
48577W        W20837  14.389  12.380   1.749
48578W        W20838   5.470  29.463   0.771
48579W        W20839   4.602  28.059   3.232
48580W        W20840  40.291  20.310  14.478
48581W        W20841  36.296  15.059   0.036
48582W        W20842   4.489   0.049   1.803
48583W        W20843  14.826  31.411   2.300
48584W        W20844  37.394   8.451  12.400
48585W        W20845  22.263  25.522   1.356
48586W        W20846  42.357  17.908  14.386
48587W        W20847  31.963  26.997   4.122
48588W        W20848  15.954  18.011   3.264
48589W        W20849  23.088   3.289   2.913
48590W        W20850  17.529  18.628   1.886
48591W        W20851  31.915  26.071   4.075
48592W        W20852  17.664  17.712  11.720
48593W        W20853  14.367   9.718  10.053
48594W        W20854  27.242  13.113  11.555
48595W        W20855  14.869  34.127   0.448
48596W        W20856  14.120  21.333   3.275
48597W        W20857  28.833   0.613   3.276
48598W        W20858   1.311  42.794  13.063
48599W        W20859  27.509  43.094  14.871
48600W        W20860  40.843  20.143   4.192
48601W        W20861  23.505  22.453  12.429
48602W        W20862   0.487  22.761   4.602
48603W        W20863   6.839  41.793  10.697
48604W        W20864  11.614  16.596  12.209
48605W        W20865  10.612  44.759  11.121
48606W        W20866   7.357  44.393  10.722
48607W        W20867  44.954  42.149   0.774
48608W        W20868   3.027  18.313   4.149
48609W        W20869   7.555  19.246  13.448
48610W        W20870  14.830  33.019   3.092
48611W        W20871  11.740  32.978   4.137
48612W        W20872  27.717  11.317   2.271
48613W        W20873  39.862  43.413  11.093
48614W        W20874  37.639  30.421   2.124
48615W        W20875  24.030  36.507  13.996
48616W        W20876  29.962   4.845  10.804
48617W        W20877  14.807  31.226   3.663
48618W        W20878  25.195   6.323  14.860
48619W        W20879  26.020   2.648   4.096
48620W        W20880  26.723  21.656  14.782
48621W        W20881  44.512  43.296  10.700
48622W        W20882  38.932  18.702   3.310
48623W        W20883  22.132  43.244   1.886
48624W        W20884   5.713  17.837  14.432
48625W        W20885  29.008  17.140   1.072
48626W        W20886  11.886  26.265   4.556
48627W        W20887  29.483   2.525   2.813
48628W        W20888  14.242  12.651  11.502
48629W        W20889   8.350  23.681   2.192
48630W        W20890  29.107  19.548  12.824
48631W        W20891   3.620   5.124  13.421
48632W        W20892  14.246   3.672   3.524
48633W        W20893   0.901  29.119  12.586
48634W        W20894   1.064  32.030   4.272
48635W        W20895  43.879  34.473  12.068
48636W        W20896  20.054  31.762   1.481
48637W        W20897  22.570  18.531   5.085
48638W        W20898  39.834  37.132  10.937
48639W        W20899   5.266  31.247   4.897
48640W        W20900   1.324  15.830  14.459
48641W        W20901  23.764  23.128  13.412
48642W        W20902  11.336  38.997   4.155
48643W        W20903  43.224  17.860  12.553
48644W        W20904  22.444  34.782  11.733
48645W        W20905  26.560  15.625   1.376
48646W        W20906   3.367  11.217   4.377
48647W        W20907  43.841  30.098  10.678
48648W        W20908  32.663  41.709   0.190
48649W        W20909  33.050  20.814   4.159
48650W        W20910  12.749   0.387   3.416
48651W        W20911  43.316  30.007  10.808
48652W        W20912   8.391  29.045   1.190
48653W        W20913  41.439   5.636  13.409
48654W        W20914  10.299  29.205  10.658
48655W        W20915  32.994   0.489   2.310
48656W        W20916  15.080   6.666  11.539
48657W        W20917  25.687   4.779   0.411
48658W        W20918  20.973  11.553  10.824
48659W        W20919  13.589  40.506   1.806
48660W        W20920  33.027   5.420   4.362
48661W        W20921  38.440  27.931  10.720
48662W        W20922   0.039  25.449   1.340
48663W        W20923  44.199  19.250   4.212
48664W        W20924  36.614  44.813   2.786
48665W        W20925  22.607  32.113   0.256
48666W        W20926  38.891  26.169  11.888
48667W        W20927  37.411  42.990   3.686
48668W        W20928  20.617   5.669  11.533
48669W        W20929  18.845  36.272  13.032
48670W        W20930  43.943  24.179   1.786
48671W        W20931  44.923  25.972   0.553
48672W        W20932  29.071  35.730  14.698
48673W        W20933  11.885  24.033   4.619
48674W        W20934  32.793  39.969   1.330
48675W        W20935  33.006  13.966  14.904
48676W        W20936  12.904   7.464   0.988
48677W        W20937   7.268  24.546   3.453
48678W        W20938  21.327   2.311   1.797
48679W        W20939  38.321   9.228   1.963
48680W        W20940  22.256  30.486   0.845
48681W        W20941  38.378  43.910  10.676
48682W        W20942   4.739  25.192  13.357
48683W        W20943  40.040  36.816  14.820
48684W        W20944  40.271  33.897   1.356
48685W        W20945  11.267  18.634  13.574
48686W        W20946   9.116  10.645   2.897
48687W        W20947   2.232  23.069   1.263
48688W        W20948  15.064  32.195   3.163
48689W        W20949  20.952   9.851  13.334
48690W        W20950   7.787  40.280   2.272
48691W        W20951  13.653  28.855   4.660
48692W        W20952   9.092  43.101   4.173
48693W        W20953  41.039  26.233   4.257
48694W        W20954  38.421  15.606  14.518
48695W        W20955  21.543  33.420   3.696
48696W        W20956  34.474  35.123   2.377
48697W        W20957  35.334  35.400  10.661
48698W        W20958  23.386  41.375  12.872
48699W        W20959  18.779  38.313   2.898
48700W        W20960   6.739  10.129   4.199
48701W        W20961   8.692  34.849  13.617
48702W        W20962   4.126  16.541  10.753
48703W        W20963  19.690  35.372  11.671
48704W        W20964   4.204  43.312   1.200
48705W        W20965  26.949  31.872   3.622
48706W        W20966   4.696  30.532  14.337
48707W        W20967  12.223   5.185   0.857
48708W        W20968   7.291  44.947  12.383
48709W        W20969  20.665  24.760   2.078
48710W        W20970  11.682  33.060  10.555
48711W        W20971  15.353   3.971   3.521
48712W        W20972  23.407  17.196   3.536
48713W        W20973  42.454  38.499  14.878
48714W        W20974  25.496   0.789   2.812
48715W        W20975   8.105  15.254   0.734
48716W        W20976  15.430   4.382   4.583
48717W        W20977  40.862  36.531  14.882
48718W        W20978  17.218   7.854   3.360
48719W        W20979  31.887  26.584   3.807
48720W        W20980   6.482  44.038  10.010
48721W        W20981   0.937  24.838   0.689
48722W        W20982  27.425  10.638  11.660
48723W        W20983  36.421   0.879  13.316
48724W        W20984  21.380  22.053   9.771
48725W        W20985  22.198   1.313   4.522
48726W        W20986  32.836  26.161  12.639
48727W        W20987  26.940  34.560   2.321
48728W        W20988  43.842  29.242   0.971
48729W        W20989  21.276  20.051  14.783
48730W        W20990  34.591   2.396  12.308
48731W        W20991  36.623  26.309   1.370
48732W        W20992  10.138  29.131  13.462
48733W        W20993  43.288  36.146   3.240
48734W        W20994   0.971  23.135  10.246
48735W        W20995  29.039   2.485  12.053
48736W        W20996   0.341  38.964  12.499
48737W        W20997  27.775   5.318  13.535
48738W        W20998  18.702  10.911   3.253
48739W        W20999  21.089  24.028   3.242
48740W        W21000   8.080   5.636   4.151
48741W        W21001  15.798   5.950   2.644
48742W        W21002   7.955  23.207   0.463
48743W        W21003  37.592  27.052   0.791
48744W        W21004  12.820   2.653   4.982
48745W        W21005  26.578  41.864  13.817
48746W        W21006  39.874  26.166   3.474
48747W        W21007   7.713  38.350  13.478
48748W        W21008  11.804  23.888   0.003
48749W        W21009  25.157  19.295   4.461
48750W        W21010  19.030  35.065  13.239
48751W        W21011   0.391   1.246   0.203
48752W        W21012  40.524  34.494   2.107
48753W        W21013  24.439  15.230  13.844
48754W        W21014  40.022  19.594   4.217
48755W        W21015  18.018  14.672   4.273
48756W        W21016  36.381  18.201   2.635
48757W        W21017  36.420  24.968  13.286
48758W        W21018  20.488   9.252  13.997
48759W        W21019   3.789  19.091   0.107
48760W        W21020   2.410   1.663  10.989
48761W        W21021  34.873   9.707  13.331
48762W        W21022  31.688  37.520   4.777
48763W        W21023  11.895   2.010  13.209
48764W        W21024   6.473   3.945   0.541
48765W        W21025  43.508  16.964   1.862
48766W        W21026   1.262   9.155  11.491
48767W        W21027  32.672  38.554   1.678
48768W        W21028   6.922  14.672  11.996
48769W        W21029  21.254  29.609  11.606
48770W        W21030   9.983   5.997   3.357
48771W        W21031   2.566  40.687  14.885
48772W        W21032   4.118  41.735  12.435
48773W        W21033  37.493  18.204   4.512
48774W        W21034  15.139  33.175  14.259
48775W        W21035   1.808   5.285   4.516
48776W        W21036   9.810  43.652   4.917
48777W        W21037  13.561  11.348  13.639
48778W        W21038  32.663  38.402   2.987
48779W        W21039  18.787  39.925   3.815
48780W        W21040   2.619  33.434  10.442
48781W        W21041  15.046  11.680  12.917
48782W        W21042  18.489  34.962  10.556
48783W        W21043  24.645  24.951  13.448
48784W        W21044  34.122  32.713  14.397
48785W        W21045  10.650   3.476  11.054
48786W        W21046  12.512  33.165  12.144
48787W        W21047  21.673   8.165  12.158
48788W        W21048  35.456  26.451   3.650
48789W        W21049  11.995   5.190   3.747
48790W        W21050   2.075  25.020  11.609
48791W        W21051  34.644  34.313  14.080
48792W        W21052   4.998   6.594   0.371
48793W        W21053  29.792   2.230  12.901
48794W        W21054  36.496  29.123  11.552
48795W        W21055  25.565  13.287  12.653
48796W        W21056   1.489  24.259   4.727
48797W        W21057  29.190  29.043   4.594
48798W        W21058  42.741  35.671   0.538
48799W        W21059  18.178   5.002  13.694
48800W        W21060  42.610  33.104  11.123
48801W        W21061  16.673  22.176  11.089
48802W        W21062  22.159  11.328  14.962
48803W        W21063   3.413   1.777  10.493
48804W        W21064  22.714   6.741   1.833
48805W        W21065   8.409  41.370  10.928
48806W        W21066  30.362   0.943   3.045
48807W        W21067  27.546  10.397   2.583
48808W        W21068   4.255  32.437   1.687
48809W        W21069  40.672  39.532  10.120
48810W        W21070  37.385  40.467  14.842
48811W        W21071  14.230  37.953  14.352
48812W        W21072  26.339  13.100   0.036
48813W        W21073  15.803  21.045   3.595
48814W        W21074  11.367  29.599  12.583
48815W        W21075  27.159  39.756   9.898
48816W        W21076  18.169   1.155  14.338
48817W        W21077  29.563   5.411   2.411
48818W        W21078  35.424  14.144  13.327
48819W        W21079   4.355  44.398  11.638
48820W        W21080  34.013  28.167  14.785
48821W        W21081  35.090  38.366   3.300
48822W        W21082   3.345  30.723  11.919
48823W        W21083  27.441  20.699  10.515
48824W        W21084  23.196  30.584   2.868
48825W        W21085  22.988  18.079  14.053
48826W        W21086   9.440   2.282  12.906
48827W        W21087   1.742  31.459   1.590
48828W        W21088  19.551  43.277   1.270
48829W        W21089  24.571  18.958   0.425
48830W        W21090   4.395  18.252   2.769
48831W        W21091   8.701  19.121   3.159
48832W        W21092  28.385  17.626   1.537
48833W        W21093  36.862  11.387   3.888
48834W        W21094  43.388  44.250  12.528
48835W        W21095   1.316   1.486   3.784
48836W        W21096  23.506  35.126  11.941
48837W        W21097  29.549  44.897  14.610
48838W        W21098  21.745  10.897   1.323
48839W        W21099  30.351  15.250  14.817
48840W        W21100  42.014  34.863   4.645
48841W        W21101   9.927  29.710   4.930
48842W        W21102  16.629  42.168  14.346
48843W        W21103   7.793   1.871  13.834
48844W        W21104  36.856  27.255   1.224
48845W        W21105  37.407  23.684  10.794
48846W        W21106  20.502   7.173  11.162
48847W        W21107  41.294  35.303  13.787
48848W        W21108  21.108  33.640  11.344
48849W        W21109   7.137  43.389  13.570
48850W        W21110  39.446   0.270   0.119
48851W        W21111  37.825  13.574  13.907
48852W        W21112  26.234  37.841  14.689
48853W        W21113  24.669   1.801   3.534
48854W        W21114  37.957  12.089   1.507
48855W        W21115  17.654   3.790   1.632
48856W        W21116   3.188  37.159  14.300
48857W        W21117  25.063  21.409   3.204
48858W        W21118  35.078  34.600  11.568
48859W        W21119   1.530  21.310   4.564
48860W        W21120  22.061  17.237  11.581
48861W        W21121  14.758  35.935   3.820
48862W        W21122  32.417  22.509  14.820
48863W        W21123  30.303   7.713   2.246
48864W        W21124  30.425  24.399  12.374
48865W        W21125  10.341  38.942   2.276
48866W        W21126  23.200  40.243   2.872
48867W        W21127  34.667  43.423  10.964
48868W        W21128   8.597  16.103   2.865
48869W        W21129  15.100   3.814   1.922
48870W        W21130   2.936  20.248  13.403
48871W        W21131   9.665   0.994  10.624
48872W        W21132  20.778  34.920  13.276
48873W        W21133  19.196   2.871  14.731
48874W        W21134  31.997  27.403  12.286
48875W        W21135  10.459   0.867  12.784
48876W        W21136  22.300  34.936  11.275
48877W        W21137  10.421  28.924   1.169
48878W        W21138   6.333  31.214  13.414
48879W        W21139   4.225  34.063  12.427
48880W        W21140   8.911  43.611   2.868
48881W        W21141  41.026  22.740  12.905
48882W        W21142  23.602  16.213   3.147
48883W        W21143   2.489  21.628  12.812
48884W        W21144  41.405  15.029   3.107
48885W        W21145  21.223  38.552   1.313
48886W        W21146  29.031  20.568   1.726
48887W        W21147   6.873  24.328  14.216
48888W        W21148   2.929  31.485  14.452
48889W        W21149  19.746  23.760   2.375
48890W        W21150  44.743   2.361  11.715
48891W        W21151   7.684  23.149   1.740
48892W        W21152  38.575  35.917   0.750
48893W        W21153  14.642   4.625   4.094
48894W        W21154  19.836   4.819   2.847
48895W        W21155  33.914  34.869  12.855
48896W        W21156  33.505  33.977   3.112
48897W        W21157  27.626  33.070  11.453
48898W        W21158  37.583  30.000   0.980
48899W        W21159  21.517  19.850   4.118
48900W        W21160   1.975  28.533  11.157
48901W        W21161  43.303  24.059  13.479
48902W        W21162   0.664  42.866  11.183
48903W        W21163  39.072   2.640   4.215
48904W        W21164   0.027  22.223  10.660
48905W        W21165  11.316   2.947   0.004
48906W        W21166  17.843  36.759  11.658
48907W        W21167  36.907  15.824   3.640
48908W        W21168  24.537  34.397  12.042
48909W        W21169  37.909  23.747   5.110
48910W        W21170  28.778  21.434  14.974
48911W        W21171   0.649  24.198   0.850
48912W        W21172  19.955   5.321   3.701
48913W        W21173  37.351   9.123   5.081
48914W        W21174  23.013   3.723  13.442
48915W        W21175  24.142   6.358   1.766
48916W        W21176   8.432   9.155   2.893
48917W        W21177  38.296  20.660  13.912
48918W        W21178  31.216  11.420   0.472
48919W        W21179  31.446  42.119  12.152
48920W        W21180  28.644  26.502  12.047
48921W        W21181  16.207   6.846   3.689
48922W        W21182  30.851  34.000  12.456
48923W        W21183  38.277   2.747  12.563
48924W        W21184  14.141  34.089  14.767
48925W        W21185  22.662  40.003  13.575
48926W        W21186   9.099  25.476  12.057
48927W        W21187  44.463   0.134  12.847
48928W        W21188  27.426  26.583   1.888
48929W        W21189  25.201  31.915  14.399
48930W        W21190  17.731  23.485   0.389
48931W        W21191  13.507  30.901   4.666
48932W        W21192   1.944  26.707   0.801
48933W        W21193  28.562  36.408  13.769
48934W        W21194   1.168  31.359  14.745
48935W        W21195  36.825  35.899   4.434
48936W        W21196   8.325  31.872  10.731
48937W        W21197  30.004  42.460   1.717
48938W        W21198  19.746  37.858   0.228
48939W        W21199  39.943   5.346   0.291
48940W        W21200  16.816  35.471  14.568
48941W        W21201  25.176  44.314   3.784
48942W        W21202   4.431  10.874  14.772
48943W        W21203  42.746  21.993  13.978
48944W        W21204  27.335  24.444   1.913
48945W        W21205   8.687  11.209   1.933
48946W        W21206  36.892  40.328   4.162
48947W        W21207  22.213  38.530  11.119
48948W        W21208  28.013  21.249  10.566
48949W        W21209  38.288  38.271   4.154
48950W        W21210  41.288  17.104   4.699
48951W        W21211  23.163  40.499  12.431
48952W        W21212  36.515   6.977  13.013
48953W        W21213  20.093  25.099  11.260
48954W        W21214  20.477  44.205  13.521
48955W        W21215  28.583  32.127   0.796
48956W        W21216  39.042  17.353   2.710
48957W        W21217  12.828  14.102  11.086
48958W        W21218  21.726  28.146   2.741
48959W        W21219  43.982  38.635  12.955
48960W        W21220  10.182  36.973   3.467
48961W        W21221  36.065   1.766   2.345
48962W        W21222  15.536  11.416  11.644
48963W        W21223  13.159  32.009  11.641
48964W        W21224  28.649  38.977  14.402
48965W        W21225  26.954  26.736  10.699
48966W        W21226   3.177  31.978  12.941
48967W        W21227  24.572   5.631   0.189
48968W        W21228   6.796  28.215   2.820
48969W        W21229  31.241  41.061  10.344
48970W        W21230  19.255   5.255   5.163
48971W        W21231  18.595  42.863  11.918
48972W        W21232  33.989   4.388  14.340
48973W        W21233  23.143  24.676  11.883
48974W        W21234  28.125   0.408  10.735
48975W        W21235  21.517  23.050   0.855
48976W        W21236  39.139  22.564  11.090
48977W        W21237   5.278   7.208  12.096
48978W        W21238  11.103  34.550   2.957
48979W        W21239   4.676  22.025  14.084
48980W        W21240   0.304  22.927  14.487
48981W        W21241  29.125   9.807   1.695
48982W        W21242   1.529  21.514  13.874
48983W        W21243  34.382  37.619   2.823
48984W        W21244  28.632   7.872  14.435
48985W        W21245  33.201  33.229  13.568
48986W        W21246  31.374  11.123  13.675
48987W        W21247   0.222  22.175   3.799
48988W        W21248  12.658  33.415   2.266
48989W        W21249  43.726  15.389   2.967
48990W        W21250  39.552  37.090  11.477
48991W        W21251  26.722  16.038  14.299
48992W        W21252  28.127  40.390   4.167
48993W        W21253   4.179  27.787  10.952
48994W        W21254  17.225   9.235  14.700
48995W        W21255  33.006  13.946  11.905
48996W        W21256   9.197   1.969   1.242
48997W        W21257  14.261  15.707  11.000
48998W        W21258  19.103  17.414   4.727
48999W        W21259  30.155   5.446   3.246
49000W        W21260  12.148  31.625  13.817
49001W        W21261   0.560   1.895  10.858
49002W        W21262  26.154  38.531   0.876
49003W        W21263  34.120  26.773  14.904
49004W        W21264  26.661   9.771   9.924
49005W        W21265  34.547  44.212   2.284
49006W        W21266  11.601  44.854   2.904
49007W        W21267  32.131  31.524   1.770
49008W        W21268   6.161  25.606   4.609
49009W        W21269  37.925  19.188  11.169
49010W        W21270   8.733  18.243  13.931
49011W        W21271  41.315  10.484  14.427
49012W        W21272  10.675  34.921  10.709
49013W        W21273  10.060  16.207   1.760
49014W        W21274  10.836  34.960  14.450
49015W        W21275  39.053  12.823   1.010
49016W        W21276  21.741   7.575  13.759
49017W        W21277  30.527  37.940   0.695
49018W        W21278  41.567  22.975   1.770
49019W        W21279  18.172  43.537  10.421
49020W        W21280  13.614  32.924  14.965
49021W        W21281  22.170  17.776  11.256
49022W        W21282   3.755  27.000  13.888
49023W        W21283   6.859   0.829  13.087
49024W        W21284  42.506  43.195   3.199
49025W        W21285  40.765   3.928   2.160
49026W        W21286  29.625  29.398   0.658
49027W        W21287   6.326  40.198  13.571
49028W        W21288  21.138  42.338  10.941
49029W        W21289  14.678  25.652   1.355
49030W        W21290  16.793   0.252   0.939
49031W        W21291  30.479   0.841   0.017
49032W        W21292  11.715   9.958   1.692
49033W        W21293  14.608   3.106  11.649
49034W        W21294  38.912  35.531  11.601
49035W        W21295  29.905  25.027  12.558
49036W        W21296   4.856   4.808  13.473
49037W        W21297  10.375  18.021  12.585
49038W        W21298   7.444  39.058   3.181
49039W        W21299  38.844   9.613  14.868
49040W        W21300  30.395  21.211  12.004
49041W        W21301  30.393  36.785   0.833
49042W        W21302   8.690  30.640  11.486
49043W        W21303  39.745  16.474   4.282
49044W        W21304  10.939  35.696  11.126
49045W        W21305  29.750   2.367   1.261
49046W        W21306  23.669  29.008  13.876
49047W        W21307  43.324  17.922  14.425
49048W        W21308  10.251  16.698   4.671
49049W        W21309  42.504  41.267  13.887
49050W        W21310   9.646  11.205   1.404
49051W        W21311  28.753  23.637  10.640
49052W        W21312   7.534  15.017  12.978
49053W        W21313  13.749  14.132  11.887
49054W        W21314   4.097   9.566  11.590
49055W        W21315  34.931  13.129   2.273
49056W        W21316  44.804  44.965   2.824
49057W        W21317  39.564  24.112  14.769
49058W        W21318  41.812  38.017  10.943
49059W        W21319  14.321  29.472   1.293
49060W        W21320   8.481   7.390   2.181
49061W        W21321  37.008  11.874   1.388
49062W        W21322   1.444  40.122  12.096
49063W        W21323   5.348  36.551  11.638
49064W        W21324  12.219  33.644   0.565
49065W        W21325   1.711  17.716   1.396
49066W        W21326   7.762  10.192   1.666
49067W        W21327  26.080  25.468  14.996
49068W        W21328  20.697  22.818  10.722
49069W        W21329  12.632  33.489  11.737
49070W        W21330  17.572  16.800   3.079
49071W        W21331  12.188   8.175   0.012
49072W        W21332   1.767  14.943  11.154
49073W        W21333  40.524  14.602  14.957
49074W        W21334   9.372  10.786   1.547
49075W        W21335  35.050   5.948   3.709
49076W        W21336  10.921  14.139  11.392
49077W        W21337  36.313  28.168   4.216
49078W        W21338  12.775  28.913   3.097
49079W        W21339   5.581  29.740  12.938
49080W        W21340  20.587  37.175  13.523
49081W        W21341  34.543   1.586  11.319
49082W        W21342   6.249  33.629  11.159
49083W        W21343  28.694  26.904   1.975
49084W        W21344  16.111  24.245   1.796
49085W        W21345  38.890  27.696  13.931
49086W        W21346   3.281  12.703  13.876
49087W        W21347  25.922  40.865   3.550
49088W        W21348  39.400  22.793  12.509
49089W        W21349  27.521  39.590  13.420
49090W        W21350  19.577  42.542   3.916
49091W        W21351  40.465  16.765  14.886
49092W        W21352  19.947  10.332  10.709
49093W        W21353  15.575  24.267  12.542
49094W        W21354  11.090   9.243  11.532
49095W        W21355  33.800  37.420   4.566
49096W        W21356  36.326  42.811   1.280
49097W        W21357  13.486   3.469   3.308
49098W        W21358   0.310  20.685   4.447
49099W        W21359  22.108  44.835   4.276
49100W        W21360  14.740  24.557   4.550
49101W        W21361  27.566  36.498   4.734
49102W        W21362  18.464  18.835  13.866
49103W        W21363  19.187  29.288  14.528
49104W        W21364  29.364   7.177  14.409
49105W        W21365  12.540   2.789  12.955
49106W        W21366  43.516  23.896  13.928
49107W        W21367  15.714  33.688   2.854
49108W        W21368  19.773  16.432  13.059
49109W        W21369  35.588  16.957   3.587
49110W        W21370  22.652  16.627   2.899
49111W        W21371   6.221  41.236  14.328
49112W        W21372  24.280  39.238   3.822
49113W        W21373  44.500   3.682  10.770
49114W        W21374   3.483  18.159  11.170
49115W        W21375   0.254   2.200  11.659
49116W        W21376   1.433  28.526  14.469
49117W        W21377  24.528   1.302  13.883
49118W        W21378  36.591  29.582  12.461
49119W        W21379  44.843   6.265   1.573
49120W        W21380  29.689  24.166   3.491
49121W        W21381  43.285   1.447   3.286
49122W        W21382  10.400  33.490   2.636
49123W        W21383  19.299  43.660  11.558
49124W        W21384  16.281   7.821   1.292
49125W        W21385  40.618  19.583  13.437
49126W        W21386  38.980  28.082  11.973
49127W        W21387  35.447  42.570  13.452
49128W        W21388  17.735   5.317  13.668
49129W        W21389  10.801   0.412  14.486
49130W        W21390   0.892  33.924  11.173
49131W        W21391  18.146  14.814   3.763
49132W        W21392   8.597   0.333  14.866
49133W        W21393  35.462   0.471  11.342
49134W        W21394  18.817  11.677  13.516
49135W        W21395  31.141   1.049  12.814
49136W        W21396  10.958  18.885   0.862
49137W        W21397  32.297  16.498   3.788
49138W        W21398  39.533  10.229  14.906
49139W        W21399  38.775   3.334   3.807
49140W        W21400  40.515  41.009   2.887
49141W        W21401  32.975  28.772  11.564
49142W        W21402  26.173  19.637  13.896
49143W        W21403  44.872  33.577   1.267
49144W        W21404  42.394  26.785  12.110
49145W        W21405  28.963  29.737   3.858
49146W        W21406  34.582  24.593   2.895
49147W        W21407  19.012  14.747   0.304
49148W        W21408  42.074  29.477  13.261
49149W        W21409  35.540  18.923  10.139
49150W        W21410  42.183   5.431  12.864
49151W        W21411  12.798  15.227   3.596
49152W        W21412  29.052  21.903  14.910
49153W        W21413  33.863  26.031  13.103
49154W        W21414  15.391   1.290  12.466
49155W        W21415  24.019   5.925   3.149
49156W        W21416  10.594  18.654  12.173
49157W        W21417  36.461  20.857  12.850
49158W        W21418  42.279  10.084   2.270
49159W        W21419  27.511  42.548  14.900
49160W        W21420  20.555  11.175   2.403
49161W        W21421   4.408  25.965   4.731
49162W        W21422  33.995  35.463   4.901
49163W        W21423  25.587  22.727   1.730
49164W        W21424   5.463  39.773  11.606
49165W        W21425  26.008  11.630  12.406
49166W        W21426   3.774   1.410  12.524
49167W        W21427  13.393  40.708  11.163
49168W        W21428   3.533  20.646  11.049
49169W        W21429  43.716  36.591  13.074
49170W        W21430   9.645   5.623  11.170
49171W        W21431   0.770   7.000  10.078
49172W        W21432  11.587  39.376  12.938
49173W        W21433  23.426  30.065  12.400
49174W        W21434   4.800  21.968   0.504
49175W        W21435   4.402  43.747   4.302
49176W        W21436  41.339  37.272  14.740
49177W        W21437   0.697  24.409  10.770
49178W        W21438  15.460  17.678   0.272
49179W        W21439   4.811  23.436   2.535
49180W        W21440   4.413   7.429  12.956
49181W        W21441  21.037   4.762  14.956
49182W        W21442   3.217  16.840   4.080
49183W        W21443  13.615  43.489  14.726
49184W        W21444  15.266   2.695   4.813
49185W        W21445  10.149  41.190  12.999
49186W        W21446  32.666  31.665  14.593
49187W        W21447  14.494  16.905  12.441
49188W        W21448  41.809  41.278  12.484
49189W        W21449  18.411  31.746   5.070
49190W        W21450  32.645  13.672   4.443
49191W        W21451  18.313  23.222   3.661
49192W        W21452  11.767  37.449  13.958
49193W        W21453   6.308  40.335  13.062
49194W        W21454  23.275  38.374  14.309
49195W        W21455   8.151  33.117  11.563
49196W        W21456  24.932  38.581   2.013
49197W        W21457  39.312  41.480   3.373
49198W        W21458  16.738  14.590   3.646
49199W        W21459   4.049   5.696  14.373
49200W        W21460   5.885  29.156   4.173
49201W        W21461  24.102  24.188   2.122
49202W        W21462  24.208  44.381   4.992
49203W        W21463   0.032  24.660   0.623
49204W        W21464  25.585  29.344  12.975
49205W        W21465   6.338  22.932   4.419
49206W        W21466  17.080  31.739  11.443
49207W        W21467  15.698  36.492   0.457
49208W        W21468  15.964  41.097  13.646
49209W        W21469   9.599  14.070   4.808
49210W        W21470  33.040  16.401  12.950
49211W        W21471  12.333  22.577   1.293
49212W        W21472   6.981   4.830   4.180
49213W        W21473  44.416  15.562   1.665
49214W        W21474  21.780  37.047  11.873
49215W        W21475   3.943  44.379   2.684
49216W        W21476  17.256  22.044  10.290
49217W        W21477  26.127  21.027  12.313
49218W        W21478  12.088  10.209   4.196
49219W        W21479  39.931  30.852  11.151
49220W        W21480  26.213  30.520   4.790
49221W        W21481  29.685  33.424   0.387
49222W        W21482   7.686  24.900   1.235
49223W        W21483  18.445   2.753  10.843
49224W        W21484   7.488  17.202   0.316
49225W        W21485   6.813  14.214   0.999
49226W        W21486  18.797  39.345  11.104
49227W        W21487  34.148   9.423  11.086
49228W        W21488   1.336   9.139   4.142
49229W        W21489   9.898  34.918   3.116
49230W        W21490  43.578   9.201   1.989
49231W        W21491  32.245   3.865  10.404
49232W        W21492  43.232  16.854  12.912
49233W        W21493   4.324  10.859   3.142
49234W        W21494  35.744  32.039   3.748
49235W        W21495  18.924  10.206  13.875
49236W        W21496   3.726  33.912  12.447
49237W        W21497   4.751  41.827   2.367
49238W        W21498  14.898  10.315   3.758
49239W        W21499  36.980  38.856   3.798
49240W        W21500  32.332  11.298  10.693
49241W        W21501   7.717  12.889   1.865
49242W        W21502  34.490  27.157   0.641
49243W        W21503  20.946  22.191  11.324
49244W        W21504   2.987   1.407  12.956
49245W        W21505  33.928  41.747   0.954
49246W        W21506  17.790  33.631   2.165
49247W        W21507  44.323  29.695   1.050
49248W        W21508  18.122  32.791   0.582
49249W        W21509  32.020  42.324  13.468
49250W        W21510  13.039   9.263   3.758
49251W        W21511   8.970  28.692  11.699
49252W        W21512  25.708   5.369  14.726
49253W        W21513  20.211  15.860   3.209
49254W        W21514  38.774  23.042   1.406
49255W        W21515  42.584   3.273   3.811
49256W        W21516   3.885  16.368   4.700
49257W        W21517  15.793  23.439  13.161
49258W        W21518  29.546  35.391   3.635
49259W        W21519   9.961  17.816  14.450
49260W        W21520  13.539  16.230  10.097
49261W        W21521  28.761  21.971   2.901
49262W        W21522   9.176  39.889   2.157
49263W        W21523  33.554  38.319   3.137
49264W        W21524  15.564  33.557  10.584
49265W        W21525  18.616  21.773  12.533
49266W        W21526   6.440  23.664   1.895
49267W        W21527  24.534   2.655   0.362
49268W        W21528   9.684  14.212  13.451
49269W        W21529   1.687  32.108  12.332
49270W        W21530  42.520  11.143  14.477
49271W        W21531   6.838  23.740   4.694
49272W        W21532  13.295  15.198   2.362
49273W        W21533  17.135  23.625  10.559
49274W        W21534  26.882  35.927  10.501
49275W        W21535   7.010  29.464  13.049
49276W        W21536  27.914  17.557   1.335
49277W        W21537  30.600  21.980  11.638
49278W        W21538   9.688  19.793  12.947
49279W        W21539  35.922  10.159   4.643
49280W        W21540  36.160   0.437  11.103
49281W        W21541  25.145  23.543   4.111
49282W        W21542  29.655  33.577   3.680
49283W        W21543  27.103   0.580   1.777
49284W        W21544  15.302  13.058  13.291
49285W        W21545  28.213  19.021   1.280
49286W        W21546  41.136  32.240   2.715
49287W        W21547   7.852  34.350  12.111
49288W        W21548  37.595   5.899   2.847
49289W        W21549   2.773  13.117  11.623
49290W        W21550  20.704  28.430  11.116
49291W        W21551  20.303  12.136  11.951
49292W        W21552  29.238  35.761  11.191
49293W        W21553   8.751  27.294   1.875
49294W        W21554   1.660  29.865   0.446
49295W        W21555  41.435  36.805   1.938
49296W        W21556  40.041  18.717   4.276
49297W        W21557  19.720  38.156  11.198
49298W        W21558  43.683  42.448   3.801
49299W        W21559  32.617  28.204   2.228
49300W        W21560   0.728  41.602  14.853
49301W        W21561  12.079  12.669  13.788
49302W        W21562  13.367  20.222  12.742
49303W        W21563  29.555  40.732   1.751
49304W        W21564  33.971  36.439   2.491
49305W        W21565  16.979  20.668   1.133
49306W        W21566  27.516  27.177  11.375
49307W        W21567  20.226  37.269   1.942
49308W        W21568   4.749  10.324   0.420
49309W        W21569  30.502   4.096  11.503
49310W        W21570  37.736  14.215  11.881
49311W        W21571  25.325  39.647  10.292
49312W        W21572  40.050  11.929   3.622
49313W        W21573  34.050  11.745  11.575
49314W        W21574  43.488  10.789   2.269
49315W        W21575  24.585  11.970  11.752
49316W        W21576  37.912  25.984  12.770
49317W        W21577  34.457  33.877   1.863
49318W        W21578  31.081  20.197   2.165
49319W        W21579  26.743  13.093  11.060
49320W        W21580   5.370  37.535   2.095
49321W        W21581  35.123  34.487   0.328
49322W        W21582  30.163   7.716   3.622
49323W        W21583  20.466  27.236   2.284
49324W        W21584  36.711  14.030  10.430
49325W        W21585  19.599  11.323  10.261
49326W        W21586  32.815  26.703  14.431
49327W        W21587  40.857  43.952   2.975
49328W        W21588  31.158  31.934   4.619
49329W        W21589   6.241  13.348   0.670
49330W        W21590  42.904  20.053  11.572
49331W        W21591  14.676  16.550  10.882
49332W        W21592  38.847   6.128  12.925
49333W        W21593   7.766  12.943   0.950
49334W        W21594   4.319  14.161   3.394
49335W        W21595   7.544   4.242  12.872
49336W        W21596   3.503  12.829   2.807
49337W        W21597  43.466   8.803   5.043
49338W        W21598  19.048  19.335  14.396
49339W        W21599   4.885  21.521   3.679
49340W        W21600  37.817  22.694  14.871
49341W        W21601  13.827  23.727  12.145
49342W        W21602  19.274  10.598  12.938
49343W        W21603  39.588  19.010   2.384
49344W        W21604  16.321  33.216  12.767
49345W        W21605  42.726   4.394  13.630
49346W        W21606  34.100  42.774  12.496
49347W        W21607  25.797  23.310   1.888
49348W        W21608   8.699  39.328  14.037
49349W        W21609  41.329  16.973  11.988
49350W        W21610   6.139  20.069   0.016
49351W        W21611  16.854  26.952  10.566
49352W        W21612  36.232   2.616   1.842
49353W        W21613   8.181  26.764  12.861
49354W        W21614   4.895  35.402  13.804
49355W        W21615  28.417  37.109   3.325
49356W        W21616  30.411  22.734   4.217
49357W        W21617  23.292   8.144   0.238
49358W        W21618  19.506  25.129   1.913
49359W        W21619  12.861   0.474   4.398
49360W        W21620  14.239  39.084  10.983
49361W        W21621  21.201  14.895   3.651
49362W        W21622  29.233  31.506  12.058
49363W        W21623  19.302  18.574  12.129
49364W        W21624  38.523  27.760  12.537
49365W        W21625  23.572  15.736   1.954
49366W        W21626  23.053   4.157   2.745
49367W        W21627  24.066  23.529   0.997
49368W        W21628   5.183  27.118  14.773
49369W        W21629   2.249  22.505  13.306
49370W        W21630  36.664  20.625   4.648
49371W        W21631  44.298  12.591   1.912
49372W        W21632  24.950  44.259   0.635
49373W        W21633  20.748  31.076  12.953
49374W        W21634   2.832  42.932  14.016
49375W        W21635  20.443  33.983  13.459
49376W        W21636   2.580   8.955   2.771
49377W        W21637  11.798  41.916   4.788
49378W        W21638  10.784  28.868  11.754
49379W        W21639  30.742   3.849   3.320
49380W        W21640  35.158  36.553   1.293
49381W        W21641  31.599  36.151  13.178
49382W        W21642  38.458  39.278  13.579
49383W        W21643  39.067  18.262   2.154
49384W        W21644  41.703  25.577   3.093
49385W        W21645   7.644  21.711   0.937
49386W        W21646  43.909  10.467  10.461
49387W        W21647  43.038   9.542   4.603
49388W        W21648  12.598  22.700  12.926
49389W        W21649  16.079  18.769   1.457
49390W        W21650  22.021   3.477   3.708
49391W        W21651   1.968  42.431   4.742
49392W        W21652  23.089  40.544   3.306
49393W        W21653   6.814  31.540   4.366
49394W        W21654  36.361  23.740   1.443
49395W        W21655  28.882  29.134  12.922
49396W        W21656  30.052  29.634   0.458
49397W        W21657  39.819  43.481  13.364
49398W        W21658  30.704  40.519  12.993
49399W        W21659  30.916  39.511  11.994
49400W        W21660  30.105  21.427   2.759
49401W        W21661   9.616  44.353   1.000
49402W        W21662  26.141  14.715  14.043
49403W        W21663   6.898  32.508   4.311
49404W        W21664  24.767  44.929  13.242
49405W        W21665  44.191  35.957   4.176
49406W        W21666   2.804  29.082  14.948
49407W        W21667   1.893  34.317  12.431
49408W        W21668   9.093  23.256   3.189
49409W        W21669  15.925  34.885  10.589
49410W        W21670   6.045  28.081  13.376
49411W        W21671  24.006  17.666   1.170
49412W        W21672  44.367  30.131   2.756
49413W        W21673  41.830   7.318   0.178
49414W        W21674  27.113  21.504   3.614
49415W        W21675  13.128  34.264  10.318
49416W        W21676  26.690  27.224   2.825
49417W        W21677  39.475  13.331   4.526
49418W        W21678   6.216  12.878   3.162
49419W        W21679  43.564  16.433   1.637
49420W        W21680  15.354   2.366  13.785
49421W        W21681  43.390   6.484   3.524
49422W        W21682  35.420  34.104   2.177
49423W        W21683  25.927  28.204  13.977
49424W        W21684   6.057   7.298  11.687
49425W        W21685  24.621  43.941   0.282
49426W        W21686  32.032  12.837   1.634
49427W        W21687  41.120  26.882  14.032
49428W        W21688  32.294  13.472  11.580
49429W        W21689  43.259  29.633   3.283
49430W        W21690  40.856  15.735   4.516
49431W        W21691  23.352  20.847   5.231
49432W        W21692  10.500  12.248  13.976
49433W        W21693  37.999  14.416   4.278
49434W        W21694  29.178   4.903   1.932
49435W        W21695  15.823  21.325   4.971
49436W        W21696  19.307   3.656  10.346
49437W        W21697  29.180  23.912  11.964
49438W        W21698  31.843  13.314  13.286
49439W        W21699  18.014  42.041  14.393
49440W        W21700  16.283   2.265   1.142
49441W        W21701  28.798  26.610   3.710
49442W        W21702  18.241  12.204   1.929
49443W        W21703  11.527  14.042   3.691
49444W        W21704  35.467  31.075   2.712
49445W        W21705  27.375  23.827   4.940
49446W        W21706  35.641  44.517  13.549
49447W        W21707  33.554  25.098  14.739
49448W        W21708  42.244  39.282  12.063
49449W        W21709  19.193  23.729   1.227
49450W        W21710   1.955  40.653   3.662
49451W        W21711   7.340   9.291   3.256
49452W        W21712  16.646   9.120   2.872
49453W        W21713  33.900  20.546   4.629
49454W        W21714   3.601  28.159   3.296
49455W        W21715   4.666  26.447  13.941
49456W        W21716   5.447  30.043  14.450
49457W        W21717  12.097  33.071  13.634
49458W        W21718  41.396  44.279   0.176
49459W        W21719   1.471  29.183  12.069
49460W        W21720  30.341   5.652   4.590
49461W        W21721  15.479  20.034   0.087
49462W        W21722  21.948  29.123   2.884
49463W        W21723  35.890  42.571  10.747
49464W        W21724  17.877  33.895  12.847
49465W        W21725   4.895  30.857   3.116
49466W        W21726  37.498  35.637   4.108
49467W        W21727  15.097  29.543   2.292
49468W        W21728  41.390  34.773   3.663
49469W        W21729  18.491  43.912   3.728
49470W        W21730  24.240  27.962  11.925
49471W        W21731  21.740  23.144  11.169
49472W        W21732   5.049  32.610  14.152
49473W        W21733  40.448   0.599   0.546
49474W        W21734  32.641  18.701  14.621
49475W        W21735  18.027  18.953  13.470
49476W        W21736  20.401  15.074   3.974
49477W        W21737  16.134   7.881  13.406
49478W        W21738  24.686  19.727  11.503
49479W        W21739   5.209  44.803   0.664
49480W        W21740  33.563  13.134   2.688
49481W        W21741  38.358  17.641  11.562
49482W        W21742   2.706  39.915  14.304
49483W        W21743  16.217  33.022  10.690
49484W        W21744   0.466   1.431   4.039
49485W        W21745  13.801  43.747   0.545
49486W        W21746  42.067  40.329   0.059
49487W        W21747  15.838  13.616  12.022
49488W        W21748  13.055  16.400   1.681
49489W        W21749   9.372   7.903  11.101
49490W        W21750   5.254  16.482  12.491
49491W        W21751  36.047  11.098  13.994
49492W        W21752  33.101   6.182   1.916
49493W        W21753  38.993  21.003  13.474
49494W        W21754   2.446   1.028   3.102
49495W        W21755   0.706   3.151   3.999
49496W        W21756  41.962  33.103  10.587
49497W        W21757  17.712  42.518  12.922
49498W        W21758  27.135  24.108   0.404
49499W        W21759  43.724  26.500  13.467
49500W        W21760  16.558   2.770   0.295
49501W        W21761   4.115  24.053  14.277
49502W        W21762  40.867  15.874   5.006
49503W        W21763   2.841  36.547   0.056
49504W        W21764  40.502  20.520   0.288
49505W        W21765  21.638  27.560   5.344
49506W        W21766  23.103   2.990   2.478
49507W        W21767  20.113   5.869   3.122
49508W        W21768  31.802   9.743   0.257
49509W        W21769  18.840  18.705   2.807
49510W        W21770  16.202   2.865   4.527
49511W        W21771  34.808  40.347  11.927
49512W        W21772  27.563  25.477  10.714
49513W        W21773  25.599  10.598   1.694
49514W        W21774  12.241  18.910   1.890
49515W        W21775  31.524   1.863  12.138
49516W        W21776  20.718  32.344  11.964
49517W        W21777  40.966  17.597  14.616
49518W        W21778  24.087   4.256  14.312
49519W        W21779  44.077  21.937  12.717
49520W        W21780  39.254   4.404   4.066
49521W        W21781   8.810  21.113  10.722
49522W        W21782  39.050  39.424   1.743
49523W        W21783  28.176   7.958  14.207
49524W        W21784  28.048  17.921   3.649
49525W        W21785   9.663  44.010   0.225
49526W        W21786  38.854  36.502   1.863
49527W        W21787  10.039  19.966  11.620
49528W        W21788  23.534  33.506  12.888
49529W        W21789   6.518  42.766   4.600
49530W        W21790  43.963  23.507   2.430
49531W        W21791   4.284  27.134   0.976
49532W        W21792   0.941  20.535   3.203
49533W        W21793  13.296   4.817  14.423
49534W        W21794  19.998   0.527   0.155
49535W        W21795   2.488  17.738   0.842
49536W        W21796   2.482   6.318  14.444
49537W        W21797   3.698  33.168  11.197
49538W        W21798  39.967  11.115  11.612
49539W        W21799  36.010  33.086  14.772
49540W        W21800  25.948  29.935  12.009
49541W        W21801  38.489  19.638  14.415
49542W        W21802  32.340  39.565  11.529
49543W        W21803  10.974  15.743  14.796
49544W        W21804  12.404   6.705  13.695
49545W        W21805   3.912   9.608   3.159
49546W        W21806  22.673   2.359   4.135
49547W        W21807  11.673  41.410  14.324
49548W        W21808   4.740  29.460  13.320
49549W        W21809  29.406   2.922  13.723
49550W        W21810  40.111  38.562  10.604
49551W        W21811   1.273  35.802  12.932
49552W        W21812  19.037  11.262  14.745
49553W        W21813  30.041  42.129  14.731
49554W        W21814  21.080  13.741   4.627
49555W        W21815  18.179  28.752   4.656
49556W        W21816  29.603  13.603   2.694
49557W        W21817   3.941  42.113   4.681
49558W        W21818   8.227  39.454  11.171
49559W        W21819  43.453   2.242   2.643
49560W        W21820  42.024  28.480  13.161
49561W        W21821  12.249   2.899  12.471
49562W        W21822  26.212   6.015  14.877
49563W        W21823  37.369  11.752  14.430
49564W        W21824  23.714  44.742  14.971
49565W        W21825  17.224  41.018  14.060
49566W        W21826  42.545  12.621   1.249
49567W        W21827   8.294  18.496  14.849
49568W        W21828  17.620  13.710  10.696
49569W        W21829  25.195  43.947  13.039
49570W        W21830  32.288  10.148  14.683
49571W        W21831  19.748  26.426   2.366
49572W        W21832  37.837  20.725   1.682
49573W        W21833   1.412   1.259  13.247
49574W        W21834   7.820  30.974  14.092
49575W        W21835  18.843  25.006  13.898
49576W        W21836  42.265   4.833  12.104
49577W        W21837   5.210  39.296  13.933
49578W        W21838   0.787  15.063  10.529
49579W        W21839   3.504  28.990   0.265
49580W        W21840  28.543  11.411   4.612
49581W        W21841   7.945   0.875  14.309
49582W        W21842  25.611  26.503   2.351
49583W        W21843  29.113   9.624  10.453
49584W        W21844   9.316  17.453   3.311
49585W        W21845   0.445  37.490   2.351
49586W        W21846  43.524  40.506   0.183
49587W        W21847  37.833  36.023   4.675
49588W        W21848  19.543  22.803  13.722
49589W        W21849  16.457  25.720  11.149
49590W        W21850  16.715  24.831   3.797
49591W        W21851  23.123  30.181  12.007
49592W        W21852   1.870  20.619  13.437
49593W        W21853   3.400  17.932   3.335
49594W        W21854  31.909  40.545  13.799
49595W        W21855  36.280  18.650   0.377
49596W        W21856  18.572  25.765  11.658
49597W        W21857   5.689   9.692  14.146
49598W        W21858  43.942  27.909  14.801
49599W        W21859  41.105  11.248   1.403
49600W        W21860   3.844   1.182  11.149
49601W        W21861  39.152   3.420   2.472
49602W        W21862  15.078  10.423   0.439
49603W        W21863  17.304  44.823   2.576
49604W        W21864  35.318  30.937  14.279
49605W        W21865  15.609  39.154   4.177
49606W        W21866   5.004   5.175  14.562
49607W        W21867  40.930  25.866   0.944
49608W        W21868  10.336   0.313   4.268
49609W        W21869  30.335   8.644   0.711
49610W        W21870  39.474  44.518  14.413
49611W        W21871  41.329  30.237   1.966
49612W        W21872   8.840  10.764  11.431
49613W        W21873  25.303  26.668   3.884
49614W        W21874  35.297  12.274   1.364
49615W        W21875  20.318   7.368  10.696
49616W        W21876   5.986   4.234  12.891
49617W        W21877   8.819   0.804  14.802
49618W        W21878   9.298  27.404  13.890
49619W        W21879  37.777  33.481  12.813
49620W        W21880  12.234  21.732   0.411
49621W        W21881  26.200   6.290   0.882
49622W        W21882  11.392  15.152   1.781
49623W        W21883  14.599   0.944  13.075
49624W        W21884  13.261  16.743  11.572
49625W        W21885   0.205  23.592   3.203
49626W        W21886   6.554   0.461   1.699
49627W        W21887  35.936   0.387  11.567
49628W        W21888  27.297  27.013  14.065
49629W        W21889  20.209  34.144  12.021
49630W        W21890  29.102  24.907   3.192
49631W        W21891  29.727   5.208  11.994
49632W        W21892   6.288  19.020   0.371
49633W        W21893   7.714  18.516  14.735
49634W        W21894  41.241  21.013  14.052
49635W        W21895  29.532  13.056  14.840
49636W        W21896  43.297  34.645   3.902
49637W        W21897   8.277   1.621  14.780
49638W        W21898   0.188  22.730   1.010
49639W        W21899  21.226   6.369  11.596
49640W        W21900   9.647  10.624  13.995
49641W        W21901  18.233  35.524   2.809
49642W        W21902  11.257  35.868   2.749
49643W        W21903  18.986  24.997  14.389
49644W        W21904  15.313  25.528   0.217
49645W        W21905   1.195   1.108  10.595
49646W        W21906   5.239  12.321   3.270
49647W        W21907  18.562  10.842   1.001
49648W        W21908  26.402  24.202  11.540
49649W        W21909  25.483  36.135   1.933
49650W        W21910   3.246   8.379  10.690
49651W        W21911  38.343  25.567   0.367
49652W        W21912  16.219  40.044   0.580
49653W        W21913  29.604  21.712  12.398
49654W        W21914  17.306  35.579  14.401
49655W        W21915   3.007  27.311  12.489
49656W        W21916  42.980  25.097  10.774
49657W        W21917  11.775   7.957  14.032
49658W        W21918  29.068  39.899   4.828
49659W        W21919  16.160  41.067   3.207
49660W        W21920  40.459   1.780  10.812
49661W        W21921  40.968   1.345  11.164
49662W        W21922  31.212  31.128   0.211
49663W        W21923   7.786  28.458   3.707
49664W        W21924  11.231   5.971  12.601
49665W        W21925  38.321  28.216  12.681
49666W        W21926  25.093  35.163   1.953
49667W        W21927  16.735  34.755  12.028
49668W        W21928  35.420   2.817   1.375
49669W        W21929  26.279  18.607   2.132
49670W        W21930   2.209  40.095   4.152
49671W        W21931  16.739   5.591   4.980
49672W        W21932  21.809  36.993   4.544
49673W        W21933  24.282   9.314   1.772
49674W        W21934   9.804   9.141   2.723
49675W        W21935   6.672  12.989   4.757
49676W        W21936  12.159  30.014  13.023
49677W        W21937  16.751  37.798   1.433
49678W        W21938  35.630  35.647   1.202
49679W        W21939  34.019  16.928  14.755
49680W        W21940  38.373  43.291   1.774
49681W        W21941  35.532   2.940  10.749
49682W        W21942  16.348  19.149   3.758
49683W        W21943   7.390  44.213   1.305
49684W        W21944  42.854  30.199  14.923
49685W        W21945  11.130  16.233   0.531
49686W        W21946  30.097  43.668  12.498
49687W        W21947  32.876  30.475   0.883
49688W        W21948  18.097  15.171  14.303
49689W        W21949  22.988  29.687  13.830
49690W        W21950  18.527  11.131   2.358
49691W        W21951   3.205  20.146  12.891
49692W        W21952  35.215  44.808  12.389
49693W        W21953   0.882  18.991  14.187
49694W        W21954  29.666  37.498  13.119
49695W        W21955  21.243  27.901   1.352
49696W        W21956  28.237  30.860   3.231
49697W        W21957  21.815   4.000  14.841
49698W        W21958  17.992  41.537  10.540
49699W        W21959  36.495  42.022  12.347
49700W        W21960  11.066   5.241   1.536
49701W        W21961  35.884  40.046  12.842
49702W        W21962  31.466   5.906   3.655
49703W        W21963  19.079  42.789   2.418
49704W        W21964   7.738  40.957  11.058
49705W        W21965   0.880  35.626  10.677
49706W        W21966  29.473  41.830   1.446
49707W        W21967  30.756  17.188   2.187
49708W        W21968   0.372  21.285  10.982
49709W        W21969  26.951  43.436  12.314
49710W        W21970  23.539  27.766   5.525
49711W        W21971  25.831  32.899   2.438
49712W        W21972   4.338  12.847   3.668
49713W        W21973  25.297  17.603   0.224
49714W        W21974  18.786  21.072  14.361
49715W        W21975  18.048  17.378  11.102
49716W        W21976   8.963   0.410   2.931
49717W        W21977  20.861  11.757   3.157
49718W        W21978   6.195   9.655   2.802
49719W        W21979  39.283   6.698  12.257
49720W        W21980   1.740  24.679  14.725
49721W        W21981  10.397   2.368   0.768
49722W        W21982   8.326  11.225  13.367
49723W        W21983  27.753  21.722   2.263
49724W        W21984   6.107  28.236  10.204
49725W        W21985  39.055  22.177   0.106
49726W        W21986   1.750  31.215  12.922
49727W        W21987  25.487  16.826   3.149
49728W        W21988  31.282  44.770   4.762
49729W        W21989  39.032   6.941   1.188
49730W        W21990   2.232  33.431   4.235
49731W        W21991  33.613  15.558  14.480
49732W        W21992  37.301  11.243  11.432
49733W        W21993  15.049  28.185  11.089
49734W        W21994  17.737   7.256  10.730
49735W        W21995  19.008  33.062   3.769
49736W        W21996  20.772   2.048  10.667
49737W        W21997  12.399  41.016  11.084
49738W        W21998  30.656   4.336   1.788
49739W        W21999  35.856  19.852  14.577
49740W        W22000  39.390  36.165   0.190
49741W        W22001  43.580   1.904  11.152
49742W        W22002  21.843  28.279  13.462
49743W        W22003  20.289  33.879  11.578
49744W        W22004  29.943  21.245   3.503
49745W        W22005  42.249  40.509   1.927
49746W        W22006  32.603  33.186  11.264
49747W        W22007  36.610  35.133  13.045
49748W        W22008   8.771  18.767  13.917
49749W        W22009  40.239  17.069  10.332
49750W        W22010  29.576  21.925  14.271
49751W        W22011   3.185  19.616   4.225
49752W        W22012  30.542   0.586  10.541
49753W        W22013  36.946  14.239   4.178
49754W        W22014  19.612  22.121  14.897
49755W        W22015  19.721  15.803   3.952
49756W        W22016  22.744  26.842  12.237
49757W        W22017  17.339  32.890  14.311
49758W        W22018   0.836  16.272  13.441
49759W        W22019  27.420   8.315  14.306
49760W        W22020  12.366   2.451  11.634
49761W        W22021  33.836  17.088  11.420
49762W        W22022  26.155  41.643   1.549
49763W        W22023  13.172  35.301  11.527
49764W        W22024   5.986  23.714   2.842
49765W        W22025  11.594   4.185   4.571
49766W        W22026  20.792  30.971  10.689
49767W        W22027  32.887  35.921   0.404
49768W        W22028  36.509  35.373   3.600
49769W        W22029  41.496  27.595  11.542
49770W        W22030  19.271  24.439   2.601
49771W        W22031  18.631   4.517  11.187
49772W        W22032  19.033   2.337  14.819
49773W        W22033  15.591  29.575   2.081
49774W        W22034  38.580  25.485   3.323
49775W        W22035  44.414  20.225  11.641
49776W        W22036   2.518  24.648   2.683
49777W        W22037  44.740  35.559  12.473
49778W        W22038  41.994   8.924  14.414
49779W        W22039  25.471  24.290  13.919
49780W        W22040   4.909  38.334   2.630
49781W        W22041  40.585   4.474   4.228
49782W        W22042  43.418  21.191   1.288
49783W        W22043  28.504  30.102  11.106
49784W        W22044   1.842  33.455   1.415
49785W        W22045  16.491  31.658  10.740
49786W        W22046  27.214   7.884   1.221
49787W        W22047   6.912  37.500   3.414
49788W        W22048  31.000  25.666   0.767
49789W        W22049  17.630  11.487  11.077
49790W        W22050  21.744  39.668   2.123
49791W        W22051   4.321  17.238   0.152
49792W        W22052   7.389  40.437   2.779
49793W        W22053  11.139   3.741  14.488
49794W        W22054  33.291  44.814   3.877
49795W        W22055  21.608  12.260  10.702
49796W        W22056   3.664  24.420  13.380
49797W        W22057   8.915  35.611  14.074
49798W        W22058   9.577   7.227   2.705
49799W        W22059  32.279  39.442   4.376
49800W        W22060  23.139   8.311   2.068
49801W        W22061  30.886  16.243  11.550
49802W        W22062  21.142  38.215   2.925
49803W        W22063  14.970   7.755  14.940
49804W        W22064   5.039   0.505   3.084
49805W        W22065  34.465  16.689  14.919
49806W        W22066  10.957  28.077  10.238
49807W        W22067  14.290  12.383  11.071
49808W        W22068  12.716   8.416  11.591
49809W        W22069   0.853  14.928   1.222
49810W        W22070  21.491   5.744   2.798
49811W        W22071  25.409  44.525   4.962
49812W        W22072  21.822  34.857  12.426
49813W        W22073  29.036  20.515  12.407
49814W        W22074  10.088   8.309  11.117
49815W        W22075  31.691  27.501   0.819
49816W        W22076  19.008  31.437   0.349
49817W        W22077  24.578  41.056  11.549
49818W        W22078  10.648  17.265  11.544
49819W        W22079  10.430  42.782   0.409
49820W        W22080  18.790  12.232   3.786
49821W        W22081  16.016  16.810  14.946
49822W        W22082   0.462  28.555   0.906
49823W        W22083  22.497  18.941  10.260
49824W        W22084  31.444  25.518  14.067
49825W        W22085   8.692  34.795  14.471
49826W        W22086  44.879  14.776   3.695
49827W        W22087  19.908  24.274  10.710
49828W        W22088  38.514  38.377  10.343
49829W        W22089  28.882  10.250   1.885
49830W        W22090  18.656  12.103   2.843
49831W        W22091  44.946   9.931  14.405
49832W        W22092  28.442   7.300   4.283
49833W        W22093  21.437   6.787   0.931
49834W        W22094  38.340  10.091   0.468
49835W        W22095   1.146  20.064  11.151
49836W        W22096  33.773   7.706  11.926
49837W        W22097  32.989  19.795  11.426
49838W        W22098  15.246  41.530   2.430
49839W        W22099  12.775  25.660  14.340
49840W        W22100   1.726  29.043   2.676
49841W        W22101  29.961  44.942   0.900
49842W        W22102  30.919  12.847  13.982
49843W        W22103  32.694   2.807   2.193
49844W        W22104   3.794  27.143   9.822
49845W        W22105  43.904  18.062   2.358
49846W        W22106  11.342  16.689   3.884
49847W        W22107  35.356  30.230   4.091
49848W        W22108   5.954  11.338   2.316
49849W        W22109  39.413   7.755   2.441
49850W        W22110  33.505  41.049   4.819
49851W        W22111  13.043   1.531  10.576
49852W        W22112  27.081  21.258  11.035
49853W        W22113  41.219   0.028  12.081
49854W        W22114  42.854  34.818   3.674
49855W        W22115   7.843  40.070   0.891
49856W        W22116  16.469   2.985  14.258
49857W        W22117  18.528  33.391   2.724
49858W        W22118   6.266   7.371   4.168
49859W        W22119  40.706  30.509  11.533
49860W        W22120   4.696  16.093  11.704
49861W        W22121   0.043   6.837   3.579
49862W        W22122  35.320  31.976   2.735
49863W        W22123  32.834  11.199   4.151
49864W        W22124   0.354   1.875   0.922
49865W        W22125   4.791   0.994   1.761
49866W        W22126  17.362  13.144  11.514
49867W        W22127  30.393  34.137   0.364
49868W        W22128   3.341  24.869  11.602
49869W        W22129  44.081   8.457   0.036
49870W        W22130   1.238  12.302  11.852
49871W        W22131  43.314  12.536  11.516
49872W        W22132  11.689   2.141  10.960
49873W        W22133  31.804  22.545  14.388
49874W        W22134  27.593  23.222  11.563
49875W        W22135  42.522  17.649  12.906
49876W        W22136   1.496  17.935   4.194
49877W        W22137   0.959  11.096   0.471
49878W        W22138  39.264  31.503   4.669
49879W        W22139  15.224  29.204  14.342
49880W        W22140   0.772  44.275   3.532
49881W        W22141  26.502  21.150   2.336
49882W        W22142  17.574   9.825   4.001
49883W        W22143  17.355   3.655   3.877
49884W        W22144  16.038  32.116  10.731
49885W        W22145  14.210  36.923  12.341
49886W        W22146   9.378  10.272  10.356
49887W        W22147  25.677   8.283   2.427
49888W        W22148   6.067  20.475  13.507
49889W        W22149  43.215  22.708  10.224
49890W        W22150  40.736  35.158  13.382
49891W        W22151  14.448   8.212   4.211
49892W        W22152  43.409  13.099   1.166
49893W        W22153  27.533   2.373  10.743
49894W        W22154   0.170  26.412   4.188
49895W        W22155  32.524  19.139   4.669
49896W        W22156  14.312  31.194   4.912
49897W        W22157   4.795   2.791   4.374
49898W        W22158  42.248  31.947   3.891
49899W        W22159  29.709   6.199   0.906
49900W        W22160  19.257  31.658  10.736
49901W        W22161  24.280  11.171  13.874
49902W        W22162  20.173  20.820   2.249
49903W        W22163  23.350  13.536  11.118
49904W        W22164  21.561  25.830   3.931
49905W        W22165  21.746  13.154  13.997
49906W        W22166  26.441  33.406  14.762
49907W        W22167  37.013  41.918  12.419
49908W        W22168  22.715  21.236   1.598
49909W        W22169   0.908  27.137   4.636
49910W        W22170  23.528   5.738  13.480
49911W        W22171   3.409  35.335  12.430
49912W        W22172  18.555  30.895   0.822
49913W        W22173  29.641  14.406  14.429
49914W        W22174   6.452   2.122  14.570
49915W        W22175  22.141  43.669   1.545
49916W        W22176   5.255  11.698   3.704
49917W        W22177  38.533  17.290  10.228
49918W        W22178  30.415  11.128   2.573
49919W        W22179  38.082  14.027   4.608
49920W        W22180   0.862  21.533  14.414
49921W        W22181  10.060  36.641   4.387
49922W        W22182   9.767   6.446   1.701
49923W        W22183  35.507  35.980   4.241
49924W        W22184   7.261   1.121  13.333
49925W        W22185  28.519  12.846   4.766
49926W        W22186  21.437  44.299  13.959
49927W        W22187  17.615  37.112  11.337
49928W        W22188   7.915   5.623  13.100
49929W        W22189  23.664  19.511  14.738
49930W        W22190  30.855  26.278  12.738
49931W        W22191   7.776  37.385  12.957
49932W        W22192   5.435  42.171  10.745
49933W        W22193  19.639   8.844  14.960
49934W        W22194   7.427   8.809   2.227
49935W        W22195  32.547  19.564  11.368
49936W        W22196  18.737  30.706   1.442
49937W        W22197  28.975  31.061  14.303
49938W        W22198  35.943  15.287   0.373
49939W        W22199  21.765  29.559   0.801
49940W        W22200  40.864  19.043   0.810
49941W        W22201   3.163  30.060   2.958
49942W        W22202  17.593  11.205  13.459
49943W        W22203   7.563   8.812   3.118
49944W        W22204   2.434  34.354  11.657
49945W        W22205   4.710  11.788   4.714
49946W        W22206  43.940   5.801   1.225
49947W        W22207  24.109  37.922   4.195
49948W        W22208  10.233  43.629   1.206
49949W        W22209  19.269  30.610   2.289
49950W        W22210  23.042  31.548   0.797
49951W        W22211  25.795   5.301   1.125
49952W        W22212  37.057  27.379   1.671
49953W        W22213  35.592  28.644   4.278
49954W        W22214   5.553  44.479  13.530
49955W        W22215  14.713  38.454   0.823
49956W        W22216  32.352  29.535   3.689
49957W        W22217  10.152   0.468  10.970
49958W        W22218  32.821  31.094   1.571
49959W        W22219  16.332  34.498   3.746
49960W        W22220   5.333   3.194  11.562
49961W        W22221  37.896  36.513  10.632
49962W        W22222  15.155   8.848   2.291
49963W        W22223  36.788  31.180  12.153
49964W        W22224   3.957  10.166  12.813
49965W        W22225  29.845  34.856  13.882
49966W        W22226  29.130   2.315   3.902
49967W        W22227  44.936   5.182   3.545
49968W        W22228  12.458  12.621   2.904
49969W        W22229  25.963  12.905   0.508
49970W        W22230   2.741   8.851   0.690
49971W        W22231  13.887  21.182   0.734
49972W        W22232  17.235   7.075   1.509
49973W        W22233   7.288  34.312  11.631
49974W        W22234  34.386  39.883   1.417
49975W        W22235  44.286  42.493  12.793
49976W        W22236  26.659  17.616   4.205
49977W        W22237   5.260  13.264  13.404
49978W        W22238   7.914  31.875  12.595
49979W        W22239  16.585   0.733   0.998
49980W        W22240   6.971   3.905  11.616
49981W        W22241  12.255  20.542   1.312
49982W        W22242  41.078  34.149  12.612
49983W        W22243   1.462   8.685  12.495
49984W        W22244   0.115  27.535  11.731
49985W        W22245  25.527  25.132   0.340
49986W        W22246  16.783  42.814  12.118
49987W        W22247   5.326  19.387   1.391
49988W        W22248  28.544   5.939  14.744
49989W        W22249  34.358  42.161  12.020
49990W        W22250  30.877  36.402  11.999
49991W        W22251  34.370  12.121  14.346
49992W        W22252  32.505  36.535  14.946
49993W        W22253   2.962   9.542   1.643
49994W        W22254  36.003  20.210  12.508
49995W        W22255  14.638  17.158  11.598
49996W        W22256  43.858  29.123  14.964
49997W        W22257  16.501  36.687   3.641
49998W        W22258  44.423   4.775   1.498
49999W        W22259  26.896   3.227   4.138
50000W        W22260  19.635  42.523   1.888
50001W        W22261  29.744  12.915  11.132
50002W        W22262  42.544  39.380  14.002
50003W        W22263  43.894  29.585   0.249
50004W        W22264  43.552  26.738  13.900
50005W        W22265  34.690  43.015   3.037
50006W        W22266  12.306   0.221   3.935
50007W        W22267  31.567   6.174   4.883
50008W        W22268   3.798  41.794   1.700
50009W        W22269  36.671  35.039   2.463
50010W        W22270  41.552  22.009   2.652
50011W        W22271  10.787  14.354  14.277
50012W        W22272  11.912   1.673  11.056
50013W        W22273   3.336   3.264   2.898
50014W        W22274  32.487  24.121   0.516
50015W        W22275  17.551  18.717   2.419
50016W        W22276  30.496  16.127   4.248
50017W        W22277  14.259  17.749   3.944
50018W        W22278  32.833  12.191  10.631
50019W        W22279  15.075   8.352   2.425
50020W        W22280  38.558  42.952  12.434
50021W        W22281  10.736  20.521  12.615
50022W        W22282   4.476   4.025  11.075
50023W        W22283  13.675  18.627  14.769
50024W        W22284   0.504  29.186   4.762
50025W        W22285  26.042  13.741  12.685
50026W        W22286  42.233  27.833  12.045
50027W        W22287  42.289  31.506  13.057
50028W        W22288  40.513  26.895   3.097
50029W        W22289  24.714  22.060   2.709
50030W        W22290  22.719  29.590   2.772
50031W        W22291   6.765  24.088  13.259
50032W        W22292  24.710  31.757   2.367
50033W        W22293  22.599  23.051  11.556
50034W        W22294  38.178  24.296   1.354
50035W        W22295   1.980  37.046   3.650
50036W        W22296   8.669  19.875   1.871
50037W        W22297  44.329   6.195  10.695
50038W        W22298  38.031  39.965  11.957
50039W        W22299  31.574   1.943   1.157
50040W        W22300   8.778  24.474   1.447
50041W        W22301  31.087  36.895  13.888
50042W        W22302  35.391   4.621  14.652
50043W        W22303  21.725  25.188   4.621
50044W        W22304  28.875  11.168  11.466
50045W        W22305  19.796  43.438  12.195
50046W        W22306  19.089   6.268  11.029
50047W        W22307  13.641  14.154   3.986
50048W        W22308  33.189  14.878  12.616
50049W        W22309  39.248   1.743  12.321
50050W        W22310  40.889  44.956   1.204
50051W        W22311  19.702  15.157   4.576
50052W        W22312  43.440   8.327  14.468
50053W        W22313   1.870  17.083  13.556
50054W        W22314  37.918  22.698  10.711
50055W        W22315  33.364  28.833  13.952
50056W        W22316  13.224  41.774  14.460
50057W        W22317  16.672  30.507   0.832
50058W        W22318   7.432  13.157  12.891
50059W        W22319  43.293  27.498  11.514
50060W        W22320  36.572  20.013  10.596
50061W        W22321  42.339  32.266  10.689
50062W        W22322  43.187   0.542  13.022
50063W        W22323  21.518  11.415   2.424
50064W        W22324  44.341  17.248   4.571
50065W        W22325  16.671  33.603   4.358
50066W        W22326  16.307   8.781   1.645
50067W        W22327  21.321   3.768  13.939
50068W        W22328  31.417  18.048  14.403
50069W        W22329   1.866  15.266  13.822
50070W        W22330  12.852  20.635  11.612
50071W        W22331   0.101  11.408   0.309
50072W        W22332  35.030  29.545   0.138
50073W        W22333   7.597   5.197   4.090
50074W        W22334  19.780  38.996   2.745
50075W        W22335   7.080  15.793   4.639
50076W        W22336   0.935  37.842   3.225
50077W        W22337  24.151  34.074   0.370
50078W        W22338  24.462   8.171   1.744
50079W        W22339   6.170  29.971   1.983
50080W        W22340  23.041  38.810   2.812
50081W        W22341  35.011  39.642  10.958
50082W        W22342  23.402  16.294   0.720
50083W        W22343   2.402  21.036   4.264
50084W        W22344  38.610   8.377  11.614
50085W        W22345  17.905  26.012  14.107
50086W        W22346  38.230  15.290   4.485
50087W        W22347  22.261  28.457  14.481
50088W        W22348   5.234  16.613   1.444
50089W        W22349  41.460  10.157  14.865
50090W        W22350  38.879  17.674  10.886
50091W        W22351  31.693  17.453   0.175
50092W        W22352  40.616  31.054   3.816
50093W        W22353   8.700  19.861  12.050
50094W        W22354  41.312  11.044  14.338
50095W        W22355  22.007  17.648   0.709
50096W        W22356  19.747  43.037   1.854
50097W        W22357   2.949  36.398  13.389
50098W        W22358  22.038  35.813  14.995
50099W        W22359  26.159  23.083  12.417
50100W        W22360   1.384  14.632  13.962
50101W        W22361  28.181  26.870  14.052
50102W        W22362   4.282   0.826  14.517
50103W        W22363   9.374   3.700  14.777
50104W        W22364  43.970  32.104  11.125
50105W        W22365  31.605  31.447   0.383
50106W        W22366   8.128  22.625   0.303
50107W        W22367   3.848  23.820   0.238
50108W        W22368  28.916  14.901   3.825
50109W        W22369   8.183  33.919  12.972
50110W        W22370  19.186  27.740   3.065
50111W        W22371   4.317  20.955  12.904
50112W        W22372  29.280  40.020   0.644
50113W        W22373  32.345   2.925  14.920
50114W        W22374  34.433  38.843  13.616
50115W        W22375  27.648  10.911  11.033
50116W        W22376  32.010   2.247   0.727
50117W        W22377  22.991   5.429  14.813
50118W        W22378  29.053  23.153   0.678
50119W        W22379  44.505  11.900   0.849
50120W        W22380  24.645  42.231  14.751
50121W        W22381  12.839   1.004  14.836
50122W        W22382  22.712  31.005   1.654
50123W        W22383   4.920   9.650   2.385
50124W        W22384  26.766  14.692   2.857
50125W        W22385   9.784   6.874  12.232
50126W        W22386  23.960  38.517  13.356
50127W        W22387  44.434  36.235   1.508
50128W        W22388   1.393   6.956  14.801
50129W        W22389  38.307  43.400  12.408
50130W        W22390  35.351  11.806   4.962
50131W        W22391  28.414  43.452   1.043
50132W        W22392  10.307  44.934  14.547
50133W        W22393  15.373  38.674   2.444
50134W        W22394   8.006  19.633  12.812
50135W        W22395  31.177  17.632   1.597
50136W        W22396  30.425   8.908   2.882
50137W        W22397  28.023   3.912  13.472
50138W        W22398   6.768   4.901   3.101
50139W        W22399  22.578  30.723   1.215
50140W        W22400  27.482  41.907  13.473
50141W        W22401  24.037  10.368  12.962
50142W        W22402  12.693  11.810   4.569
50143W        W22403  38.972   2.577   3.353
50144W        W22404  41.501  41.138  12.089
50145W        W22405  23.178  32.164   0.028
50146W        W22406   0.470  13.836  13.950
50147W        W22407  39.554  44.254   4.199
50148W        W22408  13.065   1.804   5.091
50149W        W22409   3.355  14.962   1.117
50150W        W22410  33.367  43.483   3.659
50151W        W22411  27.342  33.806   0.005
50152W        W22412  24.621  30.643  13.542
50153W        W22413  20.213  18.394   3.353
50154W        W22414  21.724  34.424   1.013
50155W        W22415  33.875  31.622   4.505
50156W        W22416  36.875  32.032  10.202
50157W        W22417  28.259  35.700  11.535
50158W        W22418  37.084  24.596  14.657
50159W        W22419  24.120  20.085   0.241
50160W        W22420  16.743  16.392   1.207
50161W        W22421   7.608  44.817   0.815
50162W        W22422  38.848  29.127  10.245
50163W        W22423  30.590  18.512   0.952
50164W        W22424  29.441  25.993  11.986
50165W        W22425  25.400  30.898   3.421
50166W        W22426   1.992  34.889   4.493
50167W        W22427  15.018   3.009  11.993
50168W        W22428  26.938  20.111   3.618
50169W        W22429  11.501  21.172  12.638
50170W        W22430  16.360  28.956  12.914
50171W        W22431   0.485  27.947   3.236
50172W        W22432  37.417  44.170  11.120
50173W        W22433  39.696  14.345  13.014
50174W        W22434  29.421   2.286   3.272
50175W        W22435  38.527  38.209   1.341
50176W        W22436  37.441  33.187   0.895
50177W        W22437  31.621   0.089  13.389
50178W        W22438  15.896  26.695   4.966
50179W        W22439  22.639  16.804   0.438
50180W        W22440  10.385  15.329   5.035
50181W        W22441  39.506  15.076  11.575
50182W        W22442  35.542  38.877  12.847
50183W        W22443  29.005  41.121   1.343
50184W        W22444  15.666  15.187   4.307
50185W        W22445  25.173  16.197   4.607
50186W        W22446  18.558  20.026  11.157
50187W        W22447  17.524   5.856   0.624
50188W        W22448   7.111  28.054   3.216
50189W        W22449  14.818  20.077  14.476
50190W        W22450  36.910   7.769  10.048
50191W        W22451  25.095   5.897  11.188
50192W        W22452  29.934  35.612  12.388
50193W        W22453  38.870  37.514  13.601
50194W        W22454  28.643  15.256   3.575
50195W        W22455  14.563  17.843   1.815
50196W        W22456  14.234  11.574  10.728
50197W        W22457  41.699  12.370  12.014
50198W        W22458   3.189  30.972  12.956
50199W        W22459  30.710  19.464   1.405
50200W        W22460  16.343  44.386  13.072
50201W        W22461  38.869  40.785   0.364
50202W        W22462  33.993  38.785  12.805
50203W        W22463  15.334  44.613   2.828
50204W        W22464  43.591  24.072  13.052
50205W        W22465  38.363  24.609   4.568
50206W        W22466  19.538   7.172   3.687
50207W        W22467  42.553  17.555   4.719
50208W        W22468  21.587   6.688  10.677
50209W        W22469   1.766  18.230   1.691
50210W        W22470  20.639  10.198  12.930
50211W        W22471  14.539  15.224  14.779
50212W        W22472  14.671  31.222  12.622
50213W        W22473  39.027  12.359   0.783
50214W        W22474  10.616   9.692   0.859
50215W        W22475  30.075  43.374  12.955
50216W        W22476   7.702  44.087   3.211
50217W        W22477  27.123  33.855   2.529
50218W        W22478  39.396  27.669   2.220
50219W        W22479   6.353  31.636   4.166
50220W        W22480  36.232  21.425   3.639
50221W        W22481  24.293  23.729  12.925
50222W        W22482  26.016  17.768   0.910
50223W        W22483  33.481  40.049  11.273
50224W        W22484  23.658  25.705   0.285
50225W        W22485  38.903  29.799  10.776
50226W        W22486   3.362  13.120  14.214
50227W        W22487  39.887   4.375  14.071
50228W        W22488  23.493  29.519  14.529
50229W        W22489  17.124  25.182   1.818
50230W        W22490  22.442  25.514  11.408
50231W        W22491   1.189  30.114   0.300
50232W        W22492   0.022  44.699   2.442
50233W        W22493  29.441  40.364   3.781
50234W        W22494  28.995  42.464  10.410
50235W        W22495  38.829   3.078   3.323
50236W        W22496  34.104   7.696   0.756
50237W        W22497   1.285  37.563  13.955
50238W        W22498   0.495  23.115  11.070
50239W        W22499   8.434  14.673   4.980
50240W        W22500   9.909  37.858   2.851
50241W        W22501  36.506  32.357   2.870
50242W        W22502   6.888  28.001   1.373
50243W        W22503  30.461  31.987  14.327
50244W        W22504  37.006   0.175   1.674
50245W        W22505  21.505  38.996  10.200
50246W        W22506  21.098  41.987  11.976
50247W        W22507   9.497   7.276   1.691
50248W        W22508  14.887  32.069   2.682
50249W        W22509   9.810  34.691  11.940
50250W        W22510  38.379  16.627   3.637
50251W        W22511  44.310  18.981  12.999
50252W        W22512  21.894  37.476   2.898
50253W        W22513  41.507  15.099  12.044
50254W        W22514  11.554   1.672  13.004
50255W        W22515  42.703  31.518  13.948
50256W        W22516  13.176  32.338  12.069
50257W        W22517  38.503   7.366  14.936
50258W        W22518  29.711   1.502   4.702
50259W        W22519   6.782  20.174  11.637
50260W        W22520  30.527  40.118  11.528
50261W        W22521  12.080   3.419  13.137
50262W        W22522  39.347  12.786  14.474
50263W        W22523  18.859  18.621  10.943
50264W        W22524  44.779  28.522  13.230
50265W        W22525  35.220  16.038  13.919
50266W        W22526   0.754  28.770  11.508
50267W        W22527  33.342  24.401  11.082
50268W        W22528  27.872  28.591   0.211
50269W        W22529  41.772  41.129  10.134
50270W        W22530  35.954  11.004   4.020
50271W        W22531  40.854   9.210   3.588
50272W        W22532  34.845  29.062  11.870
50273W        W22533  15.191   5.303  12.552
50274W        W22534  31.129  22.555  11.094
50275W        W22535   2.577  40.865  12.181
50276W        W22536  11.559  29.219   3.659
50277W        W22537  27.024  11.421  13.088
50278W        W22538  11.651  35.908   2.413
50279W        W22539  34.861  27.952  11.611
50280W        W22540  31.540  37.652   0.767
50281W        W22541   9.207   5.954   2.320
50282W        W22542  36.991   2.804   3.036
50283W        W22543  27.214  23.995  11.419
50284W        W22544  15.410  44.412  14.502
50285W        W22545  11.522   3.749   2.736
50286W        W22546  17.221   4.711   1.585
50287W        W22547  21.196  39.652  12.008
50288W        W22548  11.624   7.786   2.339
50289W        W22549  22.226  17.600   1.469
50290W        W22550  27.752   1.045   2.286
50291W        W22551   7.371  20.105  12.078
50292W        W22552   1.232   5.813  13.949
50293W        W22553  43.856  43.391   3.463
50294W        W22554  12.665  14.186   4.289
50295W        W22555  34.057  38.423  14.120
50296W        W22556  26.530  34.185   4.598
50297W        W22557  30.949  26.393  14.394
50298W        W22558  35.938  13.659  10.715
50299W        W22559  33.883  23.588  10.655
50300W        W22560  12.997  13.232   3.431
50301W        W22561  37.349  31.415  14.506
50302W        W22562  25.561  11.805  14.717
50303W        W22563  33.586   0.468  13.931
50304W        W22564  10.975  37.473  11.733
50305W        W22565  13.663  14.191   4.521
50306W        W22566  42.984  12.070   0.715
50307W        W22567  36.573   8.669  10.831
50308W        W22568  26.628   1.514  13.572
50309W        W22569  39.482  13.370   3.125
50310W        W22570  16.361  27.882  10.649
50311W        W22571  36.943  33.350  13.509
50312W        W22572  14.845   3.549   2.894
50313W        W22573  11.424   3.864  11.143
50314W        W22574  41.434   1.987  14.322
50315W        W22575  43.550  25.059   0.793
50316W        W22576   4.247   5.516  10.993
50317W        W22577  25.612  35.207  12.854
50318W        W22578  36.774  43.715   0.409
50319W        W22579  43.692  35.402  11.585
50320W        W22580  29.507  28.924  11.567
50321W        W22581  27.480   2.343   1.996
50322W        W22582  23.073  33.522  12.492
50323W        W22583  18.181  12.662   4.567
50324W        W22584  36.275  31.188  12.068
50325W        W22585  11.900  12.875  11.707
50326W        W22586   7.727  36.866   3.781
50327W        W22587  43.323  30.389   1.297
50328W        W22588   4.760  17.870  13.786
50329W        W22589  44.853  27.701   4.441
50330W        W22590  30.888   9.305   3.598
50331W        W22591   8.202  18.764  13.415
50332W        W22592  20.785  39.366   2.215
50333W        W22593  19.754  42.047   3.235
50334W        W22594   9.583  22.083  12.941
50335W        W22595  19.593   9.341   0.568
50336W        W22596   3.342  31.163  14.361
50337W        W22597   3.519  42.275  12.833
50338W        W22598  43.068   9.608   0.551
50339W        W22599  33.287  36.683   4.088
50340W        W22600  25.450  38.546   1.998
50341W        W22601   4.687  22.002  11.586
50342W        W22602  31.364  16.243   0.996
50343W        W22603  19.982   9.450   1.819
50344W        W22604  15.563  14.134   1.698
50345W        W22605  41.515  20.173   0.981
50346W        W22606  28.061  30.004   0.790
50347W        W22607  10.381   7.084   1.901
50348W        W22608  32.386  26.827   3.131
50349W        W22609  38.759  41.841   2.654
50350W        W22610  31.841  40.554   4.165
50351W        W22611  37.919  44.209   0.029
50352W        W22612  39.630   0.451   4.518
50353W        W22613  17.552  38.833  14.854
50354W        W22614  11.094  38.694   1.656
50355W        W22615   6.352  41.080  14.895
50356W        W22616   5.824  13.861  11.590
50357W        W22617  20.067  27.559   3.432
50358W        W22618   1.344   8.631   0.756
50359W        W22619  23.978   6.269   2.771
50360W        W22620  41.691  22.056   2.128
50361W        W22621  30.139  23.240   3.506
50362W        W22622  16.197  35.974  12.714
50363W        W22623  27.961  31.675   3.695
50364W        W22624  32.560   1.917  14.192
50365W        W22625  38.501  43.795  13.787
50366W        W22626   9.544  28.434   4.508
50367W        W22627  28.998  33.854   4.426
50368W        W22628  42.431  38.097  11.113
50369W        W22629  27.952  22.183  12.260
50370W        W22630   9.292  27.986   4.351
50371W        W22631  28.471   3.851  13.230
50372W        W22632  32.445  14.597  12.891
50373W        W22633  13.654  29.673   5.087
50374W        W22634   0.234  37.314   0.462
50375W        W22635   1.638  35.008  11.532
50376W        W22636  22.717   0.311   3.795
50377W        W22637   7.735  32.381   0.312
50378W        W22638  29.638  12.186   3.248
50379W        W22639  28.026  19.694  11.592
50380W        W22640  10.540  36.356   2.809
50381W        W22641  21.292   6.829  13.334
50382W        W22642  27.482   6.708   2.600
50383W        W22643  29.155  37.134  14.427
50384W        W22644  24.718  12.151   0.939
50385W        W22645  26.388  33.572  10.692
50386W        W22646   1.339  28.712   2.793
50387W        W22647  12.787   7.434   4.234
50388W        W22648  35.021   0.238   2.610
50389W        W22649  15.737  27.639  12.340
50390W        W22650  35.692  31.999  10.773
50391W        W22651  11.236   2.459  10.834
50392W        W22652   6.782   7.810   4.172
50393W        W22653  23.231   3.530   3.376
50394W        W22654  18.740  38.062   3.790
50395W        W22655  17.461  30.673  14.767
50396W        W22656   0.377  31.831   3.758
50397W        W22657  29.609  16.483  13.912
50398W        W22658  12.751  25.784  12.860
50399W        W22659  33.884  29.426  13.605
50400W        W22660   4.665   1.923  14.694
50401W        W22661  26.536   3.426   3.146
50402W        W22662  28.529   0.938   4.874
50403W        W22663  15.577   4.410  11.896
50404W        W22664  12.797  30.200  12.901
50405W        W22665   0.764  40.807   3.161
50406W        W22666  23.070  15.663   2.111
50407W        W22667  34.819  35.624   4.448
50408W        W22668  20.654  20.708   2.762
50409W        W22669   3.836  41.436  10.478
50410W        W22670   2.513   4.778   0.616
50411W        W22671  44.264  37.497  10.757
50412W        W22672   9.953   1.727  11.049
50413W        W22673  37.040   3.750   2.652
50414W        W22674  30.332   4.916   2.154
50415W        W22675  42.257  26.278  12.074
50416W        W22676  41.353   8.805   1.240
50417W        W22677  38.477  24.720   1.275
50418W        W22678  44.010   4.346   0.702
50419W        W22679  34.855   9.765   2.894
50420W        W22680  19.088  13.801   1.730
50421W        W22681  44.352  33.332   5.098
50422W        W22682  24.679  33.448   3.591
50423W        W22683  15.079  33.404  10.445
50424W        W22684  29.932  17.657   4.333
50425W        W22685  29.709  36.685  11.555
50426W        W22686  18.555  16.294   0.190
50427W        W22687  43.190  31.373   2.210
50428W        W22688  43.190  26.954  12.652
50429W        W22689  15.813  42.840   2.302
50430W        W22690   3.932  39.134   2.243
50431W        W22691   8.629   3.951  12.595
50432W        W22692   5.179  22.243   1.308
50433W        W22693  15.223  21.248   1.851
50434W        W22694  33.049  43.560   2.349
50435W        W22695   7.710   1.752   0.895
50436W        W22696   1.791  42.297   3.358
50437W        W22697  12.178  43.134   1.957
50438W        W22698  12.564  24.887  11.047
50439W        W22699  31.528  19.070   2.890
50440W        W22700  30.885  20.813   1.342
50441W        W22701   4.793  15.611  11.927
50442W        W22702   8.967  39.555  11.682
50443W        W22703  16.750  16.126   0.758
50444W        W22704  41.532  28.155  13.836
50445W        W22705  43.787   1.203  12.636
50446W        W22706  12.258  20.220  10.890
50447W        W22707   1.320  36.042  13.913
50448W        W22708  31.690  38.516  11.222
50449W        W22709  40.314  15.574   2.301
50450W        W22710   0.442   5.398   4.679
50451W        W22711  41.519  11.972  14.230
50452W        W22712  30.045  14.869   0.009
50453W        W22713  17.497  36.931  14.948
50454W        W22714  16.351  21.194   0.785
50455W        W22715   8.054  27.279  12.854
50456W        W22716   2.856  25.686   2.245
50457W        W22717   9.290  30.277  12.167
50458W        W22718  41.564  13.278  12.169
50459W        W22719  11.678  36.352   2.711
50460W        W22720  18.840  29.099   3.763
50461W        W22721  35.126   8.737  12.450
50462W        W22722  26.006   4.437   0.701
50463W        W22723  27.654  39.511   0.873
50464W        W22724  11.126  29.053   5.095
50465W        W22725  11.818  10.249   4.660
50466W        W22726  40.917  28.952  13.948
50467W        W22727  33.375  27.457   0.911
50468W        W22728  26.213  22.942  11.137
50469W        W22729  13.165   6.181  11.168
50470W        W22730  24.134  10.672   4.589
50471W        W22731  11.254  26.470  10.365
50472W        W22732  24.036  20.259  10.597
50473W        W22733  10.093  11.192   1.079
50474W        W22734  24.232  34.480  11.542
50475W        W22735   9.471  43.743  10.456
50476W        W22736   6.218  30.631  12.032
50477W        W22737  16.130   6.817  10.543
50478W        W22738  43.201   9.753  12.941
50479W        W22739  20.502  41.100  11.423
50480W        W22740  37.540  22.245  14.784
50481W        W22741  23.781  39.849  11.909
50482W        W22742   0.961  28.554   0.776
50483W        W22743  17.399  14.846   5.026
50484W        W22744  22.338   1.195  11.646
50485W        W22745  25.358  25.002   4.593
50486W        W22746   5.518  32.874   3.654
50487W        W22747   2.325  43.365   3.172
50488W        W22748  19.527  27.069   0.223
50489W        W22749  12.280  29.713   3.284
50490W        W22750  41.228  39.032   1.278
50491W        W22751  16.192  10.219  13.386
50492W        W22752  10.168  10.678  11.099
50493W        W22753  16.748  20.518  12.850
50494W        W22754  27.545  11.356   4.667
50495W        W22755  21.518  22.519  10.832
50496W        W22756   8.229   2.238   1.457
50497W        W22757  36.334  42.089   2.507
50498W        W22758  20.430  39.141   4.240
50499W        W22759  29.290  30.212  13.804
50500W        W22760  15.064  42.348   1.829
50501W        W22761  13.157  28.082   1.834
50502W        W22762  19.983  26.520   0.676
50503W        W22763  20.278  40.358  14.492
50504W        W22764  12.294  30.222   2.410
50505W        W22765  30.963  38.896   4.402
50506W        W22766   7.704   4.656  10.957
50507W        W22767   1.019  14.927  14.228
50508W        W22768  39.516   8.355  11.362
50509W        W22769  12.827  32.477  11.727
50510W        W22770  34.182   6.160  14.879
50511W        W22771  29.368   3.318  10.480
50512W        W22772   9.521   1.928   0.425
50513W        W22773  19.840   5.707   0.290
50514W        W22774  13.174   2.511   2.169
50515W        W22775  26.637  22.970   4.188
50516W        W22776  14.666  16.689   5.174
50517W        W22777  36.443  24.406   2.316
50518W        W22778  13.117  11.001  13.011
50519W        W22779  23.915  23.287  12.805
50520W        W22780  24.771  26.221   0.815
50521W        W22781  29.064  30.861   0.922
50522W        W22782  44.251  23.129   0.463
50523W        W22783  40.428  22.102   3.303
50524W        W22784  23.576  19.778   0.663
50525W        W22785   3.759  12.933   4.537
50526W        W22786  37.803  41.538   1.757
50527W        W22787  15.295  12.930  13.860
50528W        W22788  28.638  20.387   0.944
50529W        W22789  38.027  41.940   0.985
50530W        W22790  13.840  31.636  14.906
50531W        W22791  40.824  43.545  11.585
50532W        W22792  31.191   7.016   1.238
50533W        W22793  17.044  31.462   2.790
50534W        W22794  36.581  31.911   2.199
50535W        W22795   9.594  29.383   3.995
50536W        W22796   2.213  27.201  11.175
50537W        W22797  16.793  24.062  12.594
50538W        W22798  39.278  40.349   0.303
50539W        W22799  17.740  17.259  11.494
50540W        W22800  37.885  44.981   0.518
50541W        W22801  18.440  19.418   3.115
50542W        W22802  41.645  10.323   3.080
50543W        W22803  26.957  34.911   0.340
50544W        W22804  23.051  44.974   4.494
50545W        W22805  40.580  21.130  14.858
50546W        W22806  19.769  14.221   0.495
50547W        W22807  20.232  10.950  14.854
50548W        W22808  28.651  41.971  14.855
50549W        W22809  21.236  36.418  11.024
50550W        W22810  21.549  18.535  10.654
50551W        W22811  34.614  35.536   0.258
50552W        W22812  15.089   6.021   3.976
50553W        W22813  10.655   3.279   1.613
50554W        W22814  12.712  43.236   0.366
50555W        W22815  16.204  35.344   0.349
50556W        W22816  34.040  42.130   4.221
50557W        W22817  33.570  40.489   2.935
50558W        W22818   5.856  19.638  10.697
50559W        W22819   0.478  14.443  11.658
50560W        W22820  42.130  34.523  10.051
50561W        W22821  12.788  44.022   2.916
50562W        W22822   8.747  39.621   2.797
50563W        W22823  23.707  32.929   3.622
50564W        W22824   8.525  44.430   1.794
50565W        W22825  31.255  26.449  14.863
50566W        W22826  36.091  21.596  13.875
50567W        W22827  23.465   4.520   4.163
50568W        W22828  31.126  41.749  11.278
50569W        W22829  19.697  43.839   4.189
50570W        W22830  14.777  19.442  12.017
50571W        W22831  43.370  25.237   1.933
50572W        W22832  35.001  44.740  11.470
50573W        W22833   6.592  22.458   3.048
50574W        W22834  11.877  43.800  10.452
50575W        W22835  44.782  36.496  12.318
50576W        W22836  28.673  23.978  11.927
50577W        W22837   6.564   2.464   2.722
50578W        W22838  12.935  20.185   2.300
50579W        W22839   6.926   4.440  11.658
50580W        W22840   1.046  23.877  14.013
50581W        W22841   0.670  24.688  11.660
50582W        W22842  20.223  36.993  13.123
50583W        W22843  19.487  15.861   2.712
50584W        W22844  13.808  39.518   0.153
50585W        W22845  32.502  20.120   0.841
50586W        W22846  19.656   8.395  12.127
50587W        W22847  42.933   3.226  11.016
50588W        W22848  28.567  23.710  13.739
50589W        W22849   1.350   6.755   4.069
50590W        W22850  34.391   2.161   3.327
50591W        W22851   2.245  25.024   0.309
50592W        W22852  25.240  36.203  14.228
50593W        W22853  33.040  39.742   0.432
50594W        W22854  33.899   6.448   3.661
50595W        W22855   6.382   9.348   3.338
50596W        W22856   0.907  30.541   4.209
50597W        W22857  13.812  39.141   0.562
50598W        W22858  32.377   9.631   1.897
50599W        W22859  21.782  26.168  11.139
50600W        W22860  13.586  33.859   2.499
50601W        W22861  24.471  22.804  13.803
50602W        W22862  21.815  34.504  14.259
50603W        W22863  19.282  14.270   4.263
50604W        W22864  14.571  10.616  12.354
50605W        W22865  23.240  43.801  12.150
50606W        W22866  28.187  15.029   3.390
50607W        W22867  38.226  36.047   1.661
50608W        W22868  15.253  36.820   2.380
50609W        W22869  11.334  25.761  11.503
50610W        W22870   9.980  44.363   1.982
50611W        W22871  20.556  22.934   0.219
50612W        W22872  30.594  26.142   2.379
50613W        W22873   4.929   4.830   0.904
50614W        W22874  37.514  23.317  13.040
50615W        W22875  29.087  28.956   0.024
50616W        W22876  28.653  39.500  14.531
50617W        W22877   8.891   2.394  13.469
50618W        W22878   6.664   9.978  14.943
50619W        W22879  21.553   8.760   2.476
50620W        W22880  12.215   7.008  10.824
50621W        W22881  26.140   0.713  11.304
50622W        W22882  35.206   9.079   0.281
50623W        W22883  30.977  27.947  12.422
50624W        W22884  13.727  22.881  13.790
50625W        W22885  42.581   0.240   1.010
50626W        W22886  14.679  41.937  11.494
50627W        W22887  42.523  37.176  13.362
50628W        W22888  20.800  42.474  14.043
50629W        W22889  10.899   9.853  13.802
50630W        W22890  25.227  28.869  13.854
50631W        W22891   5.803  42.688  12.620
50632W        W22892  25.496  34.468   4.109
50633W        W22893  24.972  21.062  11.689
50634W        W22894  33.972  29.541  10.949
50635W        W22895  25.775  13.966   3.673
50636W        W22896   7.674   4.763  10.447
50637W        W22897  12.780   0.937   0.723
50638W        W22898  13.759  43.048  12.361
50639W        W22899  38.352  16.642   4.693
50640W        W22900  34.317  25.482   3.792
50641W        W22901   0.389  42.914   1.302
50642W        W22902  18.756   6.978   4.450
50643W        W22903  43.799  18.932   4.666
50644W        W22904  13.710  23.520  11.294
50645W        W22905  40.986  18.572  14.010
50646W        W22906   7.219  11.403   0.003
50647W        W22907  24.055  40.395  11.524
50648W        W22908  14.737  22.847   4.074
50649W        W22909  40.835  12.727   2.679
50650W        W22910  18.070   1.027  12.431
50651W        W22911  23.222   6.804  11.125
50652W        W22912  26.162  28.536  11.586
50653W        W22913  39.291  19.156   1.979
50654W        W22914  25.482   2.250   2.255
50655W        W22915  10.743  28.129   0.726
50656W        W22916  34.152   0.815  14.598
50657W        W22917  25.046  31.470  11.460
50658W        W22918  41.513  16.586   0.975
50659W        W22919  40.744  43.012  12.490
50660W        W22920  31.444   4.824  12.169
50661W        W22921  20.627  41.076  11.904
50662W        W22922  26.987  15.681  14.588
50663W        W22923  37.909   2.018  10.467
50664W        W22924  19.300  16.574  11.317
50665W        W22925  13.421  40.928  14.275
50666W        W22926  37.831   2.934  11.816
50667W        W22927  18.630   7.316  13.641
50668W        W22928   8.896  41.769  11.064
50669W        W22929  12.127  19.060   3.435
50670W        W22930  19.729  39.304   4.476
50671W        W22931  22.730  43.632  11.482
50672W        W22932  36.534   3.686  13.439
50673W        W22933  13.873  39.387   4.141
50674W        W22934  18.902  10.378  12.663
50675W        W22935   4.712   2.334   3.224
50676W        W22936  17.436  35.105   3.304
50677W        W22937  12.167  44.948   1.420
50678W        W22938  36.581  35.526   2.676
50679W        W22939  35.954   5.631  14.140
50680W        W22940  17.231  34.940  11.967
50681W        W22941  26.787  38.041  13.489
50682W        W22942   9.813   5.266  13.336
50683W        W22943  26.567  36.430   2.985
50684W        W22944  26.064  35.151  12.575
50685W        W22945   3.452  10.707   4.529
50686W        W22946  43.993  28.923   1.350
50687W        W22947  28.111  11.731   0.963
50688W        W22948  29.587  18.645   1.403
50689W        W22949  18.116  33.928  11.495
50690W        W22950  16.179  26.085  10.511
50691W        W22951  38.694  25.805  13.810
50692W        W22952  15.810  18.228  14.134
50693W        W22953   4.911  39.304  14.706
50694W        W22954  20.428  43.248  10.974
50695W        W22955   9.413  22.720   0.417
50696W        W22956  25.484  21.643  14.569
50697W        W22957  43.945  21.672   1.564
50698W        W22958   3.723  36.041  10.446
50699W        W22959   4.094  22.702   3.766
50700W        W22960   3.414  38.673   3.362
50701W        W22961  22.455  23.941   0.426
50702W        W22962   0.599   8.945   3.735
50703W        W22963  15.318   2.308  12.492
50704W        W22964  14.696   4.134  11.460
50705W        W22965  37.057  30.926   4.526
50706W        W22966   1.827  14.972  14.539
50707W        W22967  16.681  13.331   0.414
50708W        W22968  35.907   8.526  14.915
50709W        W22969   8.958  37.375  12.109
50710W        W22970  38.472   2.287   0.311
50711W        W22971  22.703  34.492  10.459
50712W        W22972  22.549  10.784   2.612
50713W        W22973  27.066  39.858  13.507
50714W        W22974  34.661  31.440   1.834
50715W        W22975  27.513   1.365   0.872
50716W        W22976   8.697  40.113  12.981
50717W        W22977   3.628   6.707   2.298
50718W        W22978   8.484   6.422  13.377
50719W        W22979  42.780  35.897  10.590
50720W        W22980  34.675  24.903  12.102
50721W        W22981  13.534  28.523  10.713
50722W        W22982   6.146  15.198  13.765
50723W        W22983  25.899   4.462  12.087
50724W        W22984  35.570   1.747   2.129
50725W        W22985  23.264   5.417   0.909
50726W        W22986  17.492  21.765   2.920
50727W        W22987  15.992  35.008  11.607
50728W        W22988  38.588   8.079  10.804
50729W        W22989  12.286  21.673  14.435
50730W        W22990  38.912  40.561  14.886
50731W        W22991  34.515  43.245   4.385
50732W        W22992  38.934  38.065  10.302
50733W        W22993   0.433  22.745  13.462
50734W        W22994   3.354  32.926  14.577
50735W        W22995  28.384  44.497  11.158
50736W        W22996  36.433   5.243   2.516
50737W        W22997  27.148  18.568   0.468
50738W        W22998  29.364   8.908  12.122
50739W        W22999  39.088  39.943   1.718
50740W        W23000  36.863   4.118   1.929
50741W        W23001  42.665  44.531   1.305
50742W        W23002  30.923  20.776   0.432
50743W        W23003  14.112  13.125   0.497
50744W        W23004   7.878   6.841  12.049
50745W        W23005  38.507  34.859  12.997
50746W        W23006   1.262   4.503  12.203
50747W        W23007  37.923  44.872   1.023
50748W        W23008   6.970   0.398   0.700
50749W        W23009   7.903   9.804   2.640
50750W        W23010  26.913  25.137   2.320
50751W        W23011  41.996  28.543   1.976
50752W        W23012  35.132  22.966  11.502
50753W        W23013  16.109  39.456  11.601
50754W        W23014  30.494  12.218   0.474
50755W        W23015   1.554  44.371   2.783
50756W        W23016  20.384  41.347  13.528
50757W        W23017  15.136   8.187  11.568
50758W        W23018  17.656   5.750   1.148
50759W        W23019  32.620  41.835  13.469
50760W        W23020  20.108  12.541   4.000
50761W        W23021  19.093   7.109   4.078
50762W        W23022  24.009   8.941  14.334
50763W        W23023  35.051  25.424  13.444
50764W        W23024   1.181   3.175   2.692
50765W        W23025  32.833  35.427  13.759
50766W        W23026  24.934  19.631  11.952
50767W        W23027  26.301  33.935   4.195
50768W        W23028  24.034  35.949  12.353
50769W        W23029   7.974  30.101   4.243
50770W        W23030  10.160  34.386  14.563
50771W        W23031  17.294   6.722  12.789
50772W        W23032  28.416  29.637  14.282
50773W        W23033  17.319   4.196  11.189
50774W        W23034  41.422   7.399   1.333
50775W        W23035  43.764  34.523  10.576
50776W        W23036  35.089   2.682  10.675
50777W        W23037  26.565   9.175  11.575
50778W        W23038  28.423  31.070   1.063
50779W        W23039  40.237   1.347   4.864
50780W        W23040  41.314  15.835   4.749
50781W        W23041  36.163  16.772  12.563
50782W        W23042  27.985   2.914   3.613
50783W        W23043  40.007   4.202  14.945
50784W        W23044   2.140  40.615   0.247
50785W        W23045  18.733  42.216  14.607
50786W        W23046  20.597   1.365  12.996
50787W        W23047  17.964  26.104  14.796
50788W        W23048  28.580  10.689  14.860
50789W        W23049   4.190  13.639  14.001
50790W        W23050  39.961   9.481  13.906
50791W        W23051  16.232  29.443  13.027
50792W        W23052   3.472  20.667   0.877
50793W        W23053  31.577  30.250   2.161
50794W        W23054   2.297  26.146  10.869
50795W        W23055  21.186   5.424  11.957
50796W        W23056   3.844   9.985   4.130
50797W        W23057  36.275  37.103  13.893
50798W        W23058  19.794  31.127  12.510
50799W        W23059  25.331  17.478   1.487
50800W        W23060  40.083  16.666  10.635
50801W        W23061  34.197  16.533  12.474
50802W        W23062   9.659  29.070   0.783
50803W        W23063  11.769  38.827   2.830
50804W        W23064  15.153  31.778   4.652
50805W        W23065  21.183  10.239   3.569
50806W        W23066  19.494  17.707   0.371
50807W        W23067   7.147   5.382  12.322
50808W        W23068   6.317  26.974   2.157
50809W        W23069  20.563  14.032  12.040
50810W        W23070   9.762  11.581  13.843
50811W        W23071  36.434  15.825   2.768
50812W        W23072  24.696  29.012  11.645
50813W        W23073  29.856  15.862   3.570
50814W        W23074  18.935   3.108   0.516
50815W        W23075  33.379  34.605  13.360
50816W        W23076  27.808   1.727  13.015
50817W        W23077  13.904  23.170   1.549
50818W        W23078   6.671  37.379   1.684
50819W        W23079  40.258  27.935   0.372
50820W        W23080  42.469  22.689   3.081
50821W        W23081  23.965  32.169   1.946
50822W        W23082  13.366  29.736  13.324
50823W        W23083  10.500  23.198  14.211
50824W        W23084  11.934  43.900   3.264
50825W        W23085   4.315  34.153   0.878
50826W        W23086   0.743  38.472  10.418
50827W        W23087   9.852   6.612  14.569
50828W        W23088  24.385   7.902   3.769
50829W        W23089  31.871  14.242   4.717
50830W        W23090  21.933  27.207   0.482
50831W        W23091  22.088  37.339  13.917
50832W        W23092   5.758  34.081   2.146
50833W        W23093  28.644  23.220   3.684
50834W        W23094  16.181  19.148  14.106
50835W        W23095   6.197   3.869   0.080
50836W        W23096  41.311   9.350  12.002
50837W        W23097  43.242   7.937  11.265
50838W        W23098  15.563  12.176   0.583
50839W        W23099  24.056  17.376   2.750
50840W        W23100  39.964  29.191  11.641
50841W        W23101  30.572  14.802   3.189
50842W        W23102  13.403  39.507   0.511
50843W        W23103  36.292  17.740  12.593
50844W        W23104  43.486  39.280   2.165
50845W        W23105  31.804  14.713   3.667
50846W        W23106   3.994  22.514   2.811
50847W        W23107  23.481   1.889  12.443
50848W        W23108   7.452   9.161   2.752
50849W        W23109  10.639  27.115   4.234
50850W        W23110   5.603  41.308  13.395
50851W        W23111   3.025   3.445   4.637
50852W        W23112  28.587  14.045   4.868
50853W        W23113  30.397  25.015  14.944
50854W        W23114   0.335  32.317   3.621
50855W        W23115   0.004   0.885  12.844
50856W        W23116   9.664  42.063   0.347
50857W        W23117  32.124   5.242  10.808
50858W        W23118  23.996  30.329   4.017
50859W        W23119  11.147  15.542   3.779
50860W        W23120  14.847   9.363   4.136
50861W        W23121  37.405   3.274   4.672
50862W        W23122  36.872  40.669   1.575
50863W        W23123  16.840   8.654   4.470
50864W        W23124   6.479  16.757  13.903
50865W        W23125  22.176  18.162  10.125
50866W        W23126   7.338  33.154  14.241
50867W        W23127  22.940  20.873   9.839
50868W        W23128   1.431  20.679   0.832
50869W        W23129  37.890  12.676   4.645
50870W        W23130   1.731  40.995   3.346
50871W        W23131  38.593  39.814   1.767
50872W        W23132   7.400  20.658   4.597
50873W        W23133  13.875  27.175   4.627
50874W        W23134  10.243  41.566  12.600
50875W        W23135  14.698   7.808   4.957
50876W        W23136   7.890   4.231   2.199
50877W        W23137  33.066  26.166  11.736
50878W        W23138  21.481  32.870  14.459
50879W        W23139  18.524  29.365  13.921
50880W        W23140  41.073  36.058  11.558
50881W        W23141  27.047  40.937  12.574
50882W        W23142  28.296  21.923  13.856
50883W        W23143  28.220  42.299  13.374
50884W        W23144   4.444  30.989   1.849
50885W        W23145   6.874  23.558  14.556
50886W        W23146  37.877  32.492  14.811
50887W        W23147  14.376  36.610   4.750
50888W        W23148  30.998  15.634  12.405
50889W        W23149  27.416  27.957  10.995
50890W        W23150  25.778  41.069   0.355
50891W        W23151  34.542  14.728  10.919
50892W        W23152   8.691  43.439   4.131
50893W        W23153  35.836  14.717  10.967
50894W        W23154  31.605  13.267  12.055
50895W        W23155  42.368   9.714   0.204
50896W        W23156   3.981  35.587  12.988
50897W        W23157  33.928  31.994   4.139
50898W        W23158   5.360  10.867  14.478
50899W        W23159  44.488   0.869  13.953
50900W        W23160  32.135   5.487  10.281
50901W        W23161  23.527   2.717  13.738
50902W        W23162   6.954  17.206  14.401
50903W        W23163  11.713  24.516   4.408
50904W        W23164  34.327  22.524   1.937
50905W        W23165  19.100  25.443   2.649
50906W        W23166   3.814   5.763  11.236
50907W        W23167  18.682   0.761  12.052
50908W        W23168  42.909  36.339  12.870
50909W        W23169  41.120  43.724  13.485
50910W        W23170  19.126  39.464   0.713
50911W        W23171  31.195  28.007  13.431
50912W        W23172   6.767   6.175   4.708
50913W        W23173   5.484   3.458   2.294
50914W        W23174  21.674  20.684  12.979
50915W        W23175  27.717  31.502   0.233
50916W        W23176  17.924  40.018   3.068
50917W        W23177  28.248  40.120  11.969
50918W        W23178  22.667   0.922   0.046
50919W        W23179  13.174   1.972   3.701
50920W        W23180  25.600   6.149  14.282
50921W        W23181  27.650  40.601   4.271
50922W        W23182  31.385  32.409   0.124
50923W        W23183   1.510   5.711  14.526
50924W        W23184  30.242  17.586   3.929
50925W        W23185  37.879  13.062   0.489
50926W        W23186  13.207  15.613  14.401
50927W        W23187  11.374  21.311   3.220
50928W        W23188   2.860  28.643  12.068
50929W        W23189  26.945  38.341  11.828
50930W        W23190  38.880   2.020   2.207
50931W        W23191  43.310  25.870  13.879
50932W        W23192  41.592  32.710   2.317
50933W        W23193  26.256  15.612   2.623
50934W        W23194   6.661  29.487  11.550
50935W        W23195   4.470  40.824  11.167
50936W        W23196  36.099  29.956   0.734
50937W        W23197  36.082  12.121  12.979
50938W        W23198  12.639  13.344  12.563
50939W        W23199  44.268  36.086  10.581
50940W        W23200   0.383  27.498   1.886
50941W        W23201  14.786  24.667   1.365
50942W        W23202  26.190  35.408   0.410
50943W        W23203  44.562   5.626  14.936
50944W        W23204   0.126  42.464   1.161
50945W        W23205  44.321   8.587  13.403
50946W        W23206  18.932  37.103   2.312
50947W        W23207  19.077  13.014  13.842
50948W        W23208  20.128  28.539   1.200
50949W        W23209  42.411  28.672   1.152
50950W        W23210  40.603  39.685  13.567
50951W        W23211  34.077  29.879  14.336
50952W        W23212  24.113  37.086   4.091
50953W        W23213  37.096  38.793  14.883
50954W        W23214  13.697  14.351   1.181
50955W        W23215  20.284  12.091   2.737
50956W        W23216  13.138  20.749   2.172
50957W        W23217  42.950  19.242   0.438
50958W        W23218   9.322  43.430   3.816
50959W        W23219  28.108  43.059  12.299
50960W        W23220  40.882   2.890   3.979
50961W        W23221  38.725  38.856   4.751
50962W        W23222  42.987   5.107   3.753
50963W        W23223  17.653   0.173  13.780
50964W        W23224  14.553  24.532  10.782
50965W        W23225  11.344  14.673  13.838
50966W        W23226  36.477  23.282   1.651
50967W        W23227  12.739  34.622  11.155
50968W        W23228  43.833  36.261  11.084
50969W        W23229  44.503  17.773   4.552
50970W        W23230  21.548  19.734   2.316
50971W        W23231  31.067  38.466   4.098
50972W        W23232  26.712  43.781  12.619
50973W        W23233  27.759  25.202   2.203
50974W        W23234  23.238  33.495   3.659
50975W        W23235  35.261  42.052   0.367
50976W        W23236  28.589   2.912   4.295
50977W        W23237  11.595  24.296  10.350
50978W        W23238  42.284  37.661   2.973
50979W        W23239  37.684  39.948   2.859
50980W        W23240  17.352  10.770  13.255
50981W        W23241  17.239  42.358  12.905
50982W        W23242   9.452  33.478   3.682
50983W        W23243  14.222  28.963   3.312
50984W        W23244   3.001  41.996   4.461
50985W        W23245  21.544  16.085  14.743
50986W        W23246  30.333  37.532   4.013
50987W        W23247  43.823  17.746  14.354
50988W        W23248  14.620  14.161   4.325
50989W        W23249  43.476   6.691   1.690
50990W        W23250  39.395   8.776  11.632
50991W        W23251  14.847  18.444  10.259
50992W        W23252  18.631   5.172   1.328
50993W        W23253   8.944  37.057   4.341
50994W        W23254  18.999  10.703   4.580
50995W        W23255  10.205  29.624  13.314
50996W        W23256  28.010   1.784   1.223
50997W        W23257  41.808  27.646   0.552
50998W        W23258  20.487  41.443   0.298
50999W        W23259  26.675   8.111   1.879
51000W        W23260   7.552  43.003   2.686
51001W        W23261  18.274  22.021  11.288
51002W        W23262  41.497  24.752  13.968
51003W        W23263  37.557  28.686   0.205
51004W        W23264  10.316  29.065  11.555
51005W        W23265  11.048   9.256  12.402
51006W        W23266  29.391  23.560  13.505
51007W        W23267  26.911  37.094  12.505
51008W        W23268   2.463  16.435  11.914
51009W        W23269  15.848  43.738   4.068
51010W        W23270   3.020   9.210   2.685
51011W        W23271   0.846  25.267  10.221
51012W        W23272  24.358  17.148   0.814
51013W        W23273   2.457   3.636  14.557
51014W        W23274  26.237  31.385  13.352
51015W        W23275  18.344  25.119  14.841
51016W        W23276  35.361  36.375  12.592
51017W        W23277  21.147  36.561  13.936
51018W        W23278   9.449   5.624   0.806
51019W        W23279  26.103  36.909  10.635
51020W        W23280  36.878  10.871   4.113
51021W        W23281  25.010  14.084   4.987
51022W        W23282  34.576  22.069   0.239
51023W        W23283  12.057   8.634   3.203
51024W        W23284  44.946  19.180  12.528
51025W        W23285  32.438  31.421   1.332
51026W        W23286  29.853  32.417   4.514
51027W        W23287   1.064  44.761   3.409
51028W        W23288   6.279  14.262  14.051
51029W        W23289  25.250  23.156   1.745
51030W        W23290  35.431   3.034   0.907
51031W        W23291  32.155  38.590   1.631
51032W        W23292  28.896  31.015   0.447
51033W        W23293   3.222  41.400  14.627
51034W        W23294   1.368  29.728  12.113
51035W        W23295  14.223  35.329   1.783
51036W        W23296   2.331  10.236  13.467
51037W        W23297  23.083   1.407  10.698
51038W        W23298  33.483  19.597   4.061
51039W        W23299  28.106  41.052   3.682
51040W        W23300  22.584   0.512  12.925
51041W        W23301  11.914  29.581  14.906
51042W        W23302  13.758  37.962   1.396
51043W        W23303  24.229   6.823   3.259
51044W        W23304  30.078  12.466   0.273
51045W        W23305  32.622  17.889  13.518
51046W        W23306  23.407  19.463  11.058
51047W        W23307  34.373  12.745  14.038
51048W        W23308  10.204  43.366   2.704
51049W        W23309   1.374   3.543  10.764
51050W        W23310  39.472  38.005   2.232
51051W        W23311  32.474  40.857   1.157
51052W        W23312   8.617  24.015  13.512
51053W        W23313  10.989  20.510  14.296
51054W        W23314  18.296  32.141  12.083
51055W        W23315  34.467  10.293  10.362
51056W        W23316  42.817   3.183  10.525
51057W        W23317  20.478  44.499   1.466
51058W        W23318  41.260  18.708   0.851
51059W        W23319  34.033  15.545  12.885
51060W        W23320  34.490  40.904   1.212
51061W        W23321  41.950  43.277  14.418
51062W        W23322  17.733   7.369   1.309
51063W        W23323  10.231   7.427  11.485
51064W        W23324   9.459   2.740  13.678
51065W        W23325  31.778  33.011  11.091
51066W        W23326  39.876  20.215   2.152
51067W        W23327   6.236  17.586   0.331
51068W        W23328  28.027   5.602   2.244
51069W        W23329   6.319  13.575   1.383
51070W        W23330  20.639  33.481  11.472
51071W        W23331   2.021  35.023  10.649
51072W        W23332  39.255   1.412   4.768
51073W        W23333  36.943  25.580  12.132
51074W        W23334  19.274  19.238   0.721
51075W        W23335   1.340  24.389  13.247
51076W        W23336   8.304   8.850  13.403
51077W        W23337  33.314  40.482   0.646
51078W        W23338  19.257  23.524  14.021
51079W        W23339  38.035  12.369   1.956
51080W        W23340  22.182  42.308  11.590
51081W        W23341  38.771   3.550  11.922
51082W        W23342  14.651   5.404   4.565
51083W        W23343  32.530  27.769  13.539
51084W        W23344  29.577  37.741  11.519
51085W        W23345  19.769   9.342  12.152
51086W        W23346  10.242  11.796  11.647
51087W        W23347  14.075  31.380  10.198
51088W        W23348   9.633  27.467  12.086
51089W        W23349  25.258  38.738  14.354
51090W        W23350  37.456  13.212  12.372
51091W        W23351  41.807  44.844   0.795
51092W        W23352  26.151  44.595   2.827
51093W        W23353  41.260   4.931   1.838
51094W        W23354  39.111  25.940   9.981
51095W        W23355  32.890  25.826   2.430
51096W        W23356   2.772  15.068  14.777
51097W        W23357   0.885  39.876   1.730
51098W        W23358  12.212  25.909   0.477
51099W        W23359  39.638  17.325  13.551
51100W        W23360  13.671  27.205   0.979
51101W        W23361  26.231  15.585  11.368
51102W        W23362  35.291  11.382   1.405
51103W        W23363  11.787  26.953  13.844
51104W        W23364  13.647  30.999  13.011
51105W        W23365  25.698  40.844  13.739
51106W        W23366   6.447   1.782   1.290
51107W        W23367  36.852  27.587  11.361
51108W        W23368  16.767  16.432   3.259
51109W        W23369   4.156  14.407   0.671
51110W        W23370  18.634  30.187   4.661
51111W        W23371   2.451  12.058   4.510
51112W        W23372  43.499  21.066   0.282
51113W        W23373  43.093  25.703   4.301
51114W        W23374  33.140  18.480  12.885
51115W        W23375  39.330   8.781   4.617
51116W        W23376  28.456  29.029   0.819
51117W        W23377  11.576  21.046   2.827
51118W        W23378  20.637  41.372   2.401
51119W        W23379  33.118  16.075   2.360
51120W        W23380  17.289   1.310   2.276
51121W        W23381   4.978  42.439  10.760
51122W        W23382   9.459  37.471  12.107
51123W        W23383  28.648  28.079   2.830
51124W        W23384   5.718   0.931  14.470
51125W        W23385  38.580  17.127   2.928
51126W        W23386  21.633  35.430   4.357
51127W        W23387  34.842  23.037  12.014
51128W        W23388  41.699   8.388  13.725
51129W        W23389  44.823  18.535   3.832
51130W        W23390  43.279  35.419  13.314
51131W        W23391   1.362   3.202  12.068
51132W        W23392  34.982  20.833  13.942
51133W        W23393  25.642   6.803   0.911
51134W        W23394   0.209  41.734  10.869
51135W        W23395  35.736   7.930  13.460
51136W        W23396  30.923  37.572   3.680
51137W        W23397  36.314  33.666  12.430
51138W        W23398  15.193  12.000   2.270
51139W        W23399  39.124   7.704  13.460
51140W        W23400  17.026  24.708   4.183
51141W        W23401  27.145   6.660  13.750
51142W        W23402  18.066  33.357  12.284
51143W        W23403  28.425  11.566  12.044
51144W        W23404  20.702  36.886   2.306
51145W        W23405   5.874   0.010   1.382
51146W        W23406  37.568   4.404   1.275
51147W        W23407  22.290   5.701  11.319
51148W        W23408  25.512  34.592  11.089
51149W        W23409  12.353  32.528   2.091
51150W        W23410  38.599  24.746  10.989
51151W        W23411  12.013  15.141   2.376
51152W        W23412  22.776   5.188  13.391
51153W        W23413  27.194  14.206  13.270
51154W        W23414  43.591  34.179  12.980
51155W        W23415   0.969   7.484  11.020
51156W        W23416  17.119  44.034  13.863
51157W        W23417  18.082  32.497  13.925
51158W        W23418   2.849   6.244  14.089
51159W        W23419  12.193  26.609   5.262
51160W        W23420  27.658  16.374  12.444
51161W        W23421   7.820  13.146   2.301
51162W        W23422  36.501  30.389   4.374
51163W        W23423  21.617  11.620   3.645
51164W        W23424  17.189  15.967   1.870
51165W        W23425  19.678   9.196  11.625
51166W        W23426  20.222  16.288  14.450
51167W        W23427   2.710  16.793  13.591
51168W        W23428  37.600  34.012   1.757
51169W        W23429  17.624  39.313   4.501
51170W        W23430  34.291  35.300  10.640
51171W        W23431  29.395  26.385  10.715
51172W        W23432  22.251  20.057  10.164
51173W        W23433  20.446  39.591  13.417
51174W        W23434  31.358  12.067   0.453
51175W        W23435  14.172   9.746   4.597
51176W        W23436  23.202  20.596  13.740
51177W        W23437  20.515  26.994  14.221
51178W        W23438  25.676   2.218  11.137
51179W        W23439  37.681  18.770   3.790
51180W        W23440  30.470  31.130  14.734
51181W        W23441  15.700  19.224  11.539
51182W        W23442  36.288  18.544   4.661
51183W        W23443  37.258  21.155   0.290
51184W        W23444   4.611  21.222   4.544
51185W        W23445  14.191  16.899   4.270
51186W        W23446  43.386  37.568  12.832
51187W        W23447   6.227  19.553   0.438
51188W        W23448  44.998  16.624  14.917
51189W        W23449  30.641   7.708   3.865
51190W        W23450  29.878  27.619   4.048
51191W        W23451  37.333  37.469   2.756
51192W        W23452  11.096   7.325  13.555
51193W        W23453  38.350  39.991  11.057
51194W        W23454   6.282   3.248   1.744
51195W        W23455  25.533   3.779  13.425
51196W        W23456  30.429  26.961   4.802
51197W        W23457  26.253  28.471   4.060
51198W        W23458  17.690  24.916   2.783
51199W        W23459  33.607  35.639   0.947
51200W        W23460   2.019  27.982  11.725
51201W        W23461   0.544  26.393   3.344
51202W        W23462  10.586  39.036   1.707
51203W        W23463   7.820  12.156  13.384
51204W        W23464  30.996  37.853  12.854
51205W        W23465  44.655  26.283  13.068
51206W        W23466  39.567   1.444  13.881
51207W        W23467  22.768   1.912  13.168
51208W        W23468   4.381   7.841  11.955
51209W        W23469   5.254  28.632  11.171
51210W        W23470  32.465  34.136  13.931
51211W        W23471  13.624  21.122   1.210
51212W        W23472  15.141   4.429  13.133
51213W        W23473  21.469   8.146  11.669
51214W        W23474  25.248  17.250   0.991
51215W        W23475   7.341  15.285  13.377
51216W        W23476  38.878  17.161   1.145
51217W        W23477  15.577  12.051  11.165
51218W        W23478   4.386   6.268  13.528
51219W        W23479  35.353  30.192  10.743
51220W        W23480  29.977  33.437  14.929
51221W        W23481  35.755  24.895  14.472
51222W        W23482  30.579  17.149  12.100
51223W        W23483  27.977  19.529  10.268
51224W        W23484  17.872  24.197   4.470
51225W        W23485   0.953  25.491  12.605
51226W        W23486  43.077  20.640  14.330
51227W        W23487  20.216   8.249  14.916
51228W        W23488  25.146  39.237  14.367
51229W        W23489  27.571  31.932  14.454
51230W        W23490  21.292  16.972  12.952
51231W        W23491  11.157  21.707   0.034
51232W        W23492  34.962  30.087   1.960
51233W        W23493  23.794  39.272   0.793
51234W        W23494  21.813   4.078  13.083
51235W        W23495  22.161  36.340  10.489
51236W        W23496  35.009  14.897   0.670
51237W        W23497  23.244  21.684  12.433
51238W        W23498   9.829  38.346   2.744
51239W        W23499  14.957   9.382   2.380
51240W        W23500   5.219  36.558   4.052
51241W        W23501   3.886  34.622   2.619
51242W        W23502  29.971  31.262  14.602
51243W        W23503  21.341  26.998  11.647
51244W        W23504  15.126  10.083  14.161
51245W        W23505  16.023  23.587   4.439
51246W        W23506   0.724  37.639  10.668
51247W        W23507   1.539  23.679   4.383
51248W        W23508  22.020  22.612   4.645
51249W        W23509  31.060  27.014   2.182
51250W        W23510   8.633  34.938   3.216
51251W        W23511   6.674  40.697   1.790
51252W        W23512   4.896  35.998   2.172
51253W        W23513  40.899  17.084  14.956
51254W        W23514   0.023  23.087   4.909
51255W        W23515  31.648  43.072   1.451
51256W        W23516  17.094  20.660   3.336
51257W        W23517  44.897  20.328   4.441
51258W        W23518  43.022  10.240   5.115
51259W        W23519  12.876  34.964   2.203
51260W        W23520  20.082   0.972   2.631
51261W        W23521   0.481   3.275   1.605
51262W        W23522  16.874   6.180   4.129
51263W        W23523  14.010   1.485  13.413
51264W        W23524  14.148   2.342   4.006
51265W        W23525   6.488  12.123   4.571
51266W        W23526   3.240  38.526  14.340
51267W        W23527  44.414  43.197  13.325
51268W        W23528  11.569  42.126   3.313
51269W        W23529  43.102  30.786  11.441
51270W        W23530  14.151  15.269   1.050
51271W        W23531  33.221   9.808  10.146
51272W        W23532  41.876  24.132   0.504
51273W        W23533  38.865  16.848  12.678
51274W        W23534  20.327  23.068  11.926
51275W        W23535  31.687  17.819  12.008
51276W        W23536  10.772   7.875   4.132
51277W        W23537  10.890  10.733  14.412
51278W        W23538  38.164  33.577  13.450
51279W        W23539  22.617  19.309   3.757
51280W        W23540  23.875  15.795   0.911
51281W        W23541   4.342  40.496  13.399
51282W        W23542  34.036  38.324  11.524
51283W        W23543  26.871  24.568   1.388
51284W        W23544  21.688   3.519  14.815
51285W        W23545  38.306  41.770  13.660
51286W        W23546  21.540  12.755   1.593
51287W        W23547   8.419  32.009   3.333
51288W        W23548  26.526  13.150   1.343
51289W        W23549  33.092  29.568  14.545
51290W        W23550  34.349  40.984   3.270
51291W        W23551  22.575  24.592   0.797
51292W        W23552  30.407  12.588  11.498
51293W        W23553  19.126  31.019  12.047
51294W        W23554  11.226   6.676  14.914
51295W        W23555   9.091  27.442  10.664
51296W        W23556  23.758  20.034   2.337
51297W        W23557   6.675  13.612   2.359
51298W        W23558  38.554  30.408   2.621
51299W        W23559   2.323   5.428   1.403
51300W        W23560  44.916  34.001  14.970
51301W        W23561   0.342   9.162  14.035
51302W        W23562  10.878  30.925  13.903
51303W        W23563  23.115   8.714  10.623
51304W        W23564  42.051  41.831  13.093
51305W        W23565  12.689   8.444  14.736
51306W        W23566  38.921  43.382  11.140
51307W        W23567  26.244  13.605   1.892
51308W        W23568  38.068  11.360   2.858
51309W        W23569  37.535  17.844   3.590
51310W        W23570  24.147  38.466  10.406
51311W        W23571  31.509   0.626  14.761
51312W        W23572  35.998  32.039  12.035
51313W        W23573  30.648   9.238   1.471
51314W        W23574  39.276  28.589  13.152
51315W        W23575  26.687  40.862   0.405
51316W        W23576  12.381  36.891  14.878
51317W        W23577   9.387  13.848   4.345
51318W        W23578  15.145  21.502   3.206
51319W        W23579  11.900   7.012  11.855
51320W        W23580  11.645  18.183   1.874
51321W        W23581  13.258  12.284  12.949
51322W        W23582  24.010   2.349   3.905
51323W        W23583  16.805   4.335  10.466
51324W        W23584  30.873   7.570   3.408
51325W        W23585  25.259  40.866  11.942
51326W        W23586  29.118  25.569  12.661
51327W        W23587  14.871  23.554  10.459
51328W        W23588   5.803  33.621   3.275
51329W        W23589  28.888  31.492   4.769
51330W        W23590  32.110  22.707   4.572
51331W        W23591  15.393  18.686  13.460
51332W        W23592   9.672   5.630   4.274
51333W        W23593  32.647  27.025  14.824
51334W        W23594  43.293  10.333   2.379
51335W        W23595   5.398  25.276  12.931
51336W        W23596  40.361  44.098   3.191
51337W        W23597  33.068  34.928  13.021
51338W        W23598  12.574  19.872  11.122
51339W        W23599  17.573  12.711  11.879
51340W        W23600   6.430  32.671  14.431
51341W        W23601  14.386  31.709   4.777
51342W        W23602  14.285  32.796   5.156
51343W        W23603  21.544   4.459   5.002
51344W        W23604  26.017  33.619   0.824
51345W        W23605  17.071  26.197   1.308
51346W        W23606  13.714  18.030   2.346
51347W        W23607  44.052  32.654   0.460
51348W        W23608  13.206   1.428   1.381
51349W        W23609  13.704  24.508   4.353
51350W        W23610  26.112   4.003  12.872
51351W        W23611  30.491  39.604  13.270
51352W        W23612  27.194  23.472   2.927
51353W        W23613   1.373  37.019   0.956
51354W        W23614  16.738  20.385   4.335
51355W        W23615  21.466  10.297   4.883
51356W        W23616   7.744  26.652   0.473
51357W        W23617  13.384   9.002   2.309
51358W        W23618  43.350  15.622   2.703
51359W        W23619  25.453  40.795   3.368
51360W        W23620  23.599   2.437  12.385
51361W        W23621   2.529  38.996  14.326
51362W        W23622  12.337  31.660   2.365
51363W        W23623  13.805   8.290   3.239
51364W        W23624  20.691  15.061  12.126
51365W        W23625  12.442  10.726  13.808
51366W        W23626   4.843  34.181   2.739
51367W        W23627   0.235  35.503  12.342
51368W        W23628   8.906  35.146   3.624
51369W        W23629  38.293  19.141   0.848
51370W        W23630  28.280  39.570   3.684
51371W        W23631  41.967  19.294  11.999
51372W        W23632   2.388  21.289  10.624
51373W        W23633   8.602  16.602   1.859
51374W        W23634  18.493  36.968  13.228
51375W        W23635  20.090  16.829  13.473
51376W        W23636  42.808  42.006   3.778
51377W        W23637  34.044  31.390   0.286
51378W        W23638  43.818  27.227   0.413
51379W        W23639  39.091  16.354   2.736
51380W        W23640  10.296  33.811   1.805
51381W        W23641  18.486   0.400   3.770
51382W        W23642  17.084  22.695  11.622
51383W        W23643  31.609   6.193  12.431
51384W        W23644  13.721  24.188  10.636
51385W        W23645   2.858  38.076  14.698
51386W        W23646  24.145  13.204   0.272
51387W        W23647  33.054  20.441   0.962
51388W        W23648   2.738  32.363  14.295
51389W        W23649  37.705  12.115  14.583
51390W        W23650  42.994  34.807   1.901
51391W        W23651  20.375  22.846   4.126
51392W        W23652   0.008   7.783   4.572
51393W        W23653  30.981  42.020   4.597
51394W        W23654  29.781  28.892   5.448
51395W        W23655  32.094   4.941   0.829
51396W        W23656   0.889  29.241   3.350
51397W        W23657  27.549   0.362   0.491
51398W        W23658  34.156  21.687  11.141
51399W        W23659  35.812  39.442  13.619
51400W        W23660  19.169  10.069  12.988
51401W        W23661  19.286  44.620   3.823
51402W        W23662  43.291   5.772   3.295
51403W        W23663  25.431  14.674   3.156
51404W        W23664   0.873   5.372  10.716
51405W        W23665   8.700   1.806   0.281
51406W        W23666  40.077  22.575  13.753
51407W        W23667  44.218  34.473   4.527
51408W        W23668  36.741   8.231  10.258
51409W        W23669  40.846  30.505   4.753
51410W        W23670  30.041  33.588   3.277
51411W        W23671   8.313  27.569  11.061
51412W        W23672  16.329  12.669   4.187
51413W        W23673  34.520  21.581   5.136
51414W        W23674   6.220  37.681   0.393
51415W        W23675  36.831  30.566  12.822
51416W        W23676   3.309  37.636  14.498
51417W        W23677   7.239  38.488  12.012
51418W        W23678   4.312   5.026  11.086
51419W        W23679  40.823  27.132   3.799
51420W        W23680  37.478  25.976   2.381
51421W        W23681  35.624   7.717   1.305
51422W        W23682  18.502  18.632  12.784
51423W        W23683  39.782  25.045  14.813
51424W        W23684  26.594   9.540  13.858
51425W        W23685  16.019  32.181   0.292
51426W        W23686  15.686   8.389  13.754
51427W        W23687  28.473  13.238  11.345
51428W        W23688  10.809  12.329   3.253
51429W        W23689   0.813  18.168  10.597
51430W        W23690   7.361   3.247   0.746
51431W        W23691  34.424  24.963   1.284
51432W        W23692  25.115   7.974  11.888
51433W        W23693  27.930   2.149   3.129
51434W        W23694   5.364   0.856   3.334
51435W        W23695  35.620   0.897  11.119
51436W        W23696  30.406  24.999  10.743
51437W        W23697  39.757  29.577   3.212
51438W        W23698  41.606   6.890  12.986
51439W        W23699  40.870  37.309   0.669
51440W        W23700  17.518  15.885  14.290
51441W        W23701   6.824  41.555   0.831
51442W        W23702  28.558  28.131   3.799
51443W        W23703  36.507   3.479   5.197
51444W        W23704  42.998  19.383  12.031
51445W        W23705  26.611   0.419   0.042
51446W        W23706  44.425  14.825   3.451
51447W        W23707  13.947   8.638  10.974
51448W        W23708  15.271   0.461   3.179
51449W        W23709  16.793  29.327  13.848
51450W        W23710  13.838  39.987   1.220
51451W        W23711  26.678  16.693  10.534
51452W        W23712  42.507  25.493  12.812
51453W        W23713  18.051  37.805  12.441
51454W        W23714  43.720  37.731   2.865
51455W        W23715  38.481  13.839   2.308
51456W        W23716  17.793  41.427   1.477
51457W        W23717  14.122  28.104   4.093
51458W        W23718  17.170  35.017   2.867
51459W        W23719  29.616   8.568   4.533
51460W        W23720  26.327  28.874  10.273
51461W        W23721  41.580  41.024  14.956
51462W        W23722   6.843  31.404  12.461
51463W        W23723  40.051  26.477   0.908
51464W        W23724  14.284  21.948  10.994
51465W        W23725  24.677  21.205   4.174
51466W        W23726  28.768  34.346   4.480
51467W        W23727  26.928  36.991   0.017
51468W        W23728  17.035  12.152   1.884
51469W        W23729  36.569   1.948   2.187
51470W        W23730  41.855  25.527   1.696
51471W        W23731  19.746  29.459  10.376
51472W        W23732  19.120  15.436  12.990
51473W        W23733  36.586  22.113   2.452
51474W        W23734  29.278  21.289  11.207
51475W        W23735  34.538   9.775   2.114
51476W        W23736  18.466  31.773   4.568
51477W        W23737  23.702  17.403  11.064
51478W        W23738  19.118  23.945  13.515
51479W        W23739  34.899  43.270   4.748
51480W        W23740  23.064  35.107  14.288
51481W        W23741  38.704  11.656  13.279
51482W        W23742  18.108  39.985  14.383
51483W        W23743  15.852  34.998   0.460
51484W        W23744  20.293   0.888   0.457
51485W        W23745   4.716  25.159   3.373
51486W        W23746   7.819  15.155  14.874
51487W        W23747  25.483  38.774  13.884
51488W        W23748   0.399  37.574  12.349
51489W        W23749   4.160   2.418   4.128
51490W        W23750  20.922  13.661   0.786
51491W        W23751  13.573  21.097   5.045
51492W        W23752  25.955  14.223  13.921
51493W        W23753  10.410  19.694   2.419
51494W        W23754  43.926   2.659  14.815
51495W        W23755  22.979  23.738   4.316
51496W        W23756  21.655  10.216   3.868
51497W        W23757  36.699  39.267   3.595
51498W        W23758  38.469  36.086  13.976
51499W        W23759   0.447  35.483  13.251
51500W        W23760  20.144  29.409   1.545
51501W        W23761  26.033   6.211   0.323
51502W        W23762  21.991  33.620   0.449
51503W        W23763   0.082  32.709   0.280
51504W        W23764  16.080  34.892   3.110
51505W        W23765  37.045  40.655  10.933
51506W        W23766  21.195   4.196  13.128
51507W        W23767  31.945  18.586  11.590
51508W        W23768  37.884  42.587   4.526
51509W        W23769  22.307  23.534   1.927
51510W        W23770  33.221   5.300   0.363
51511W        W23771  25.467   7.919   4.576
51512W        W23772  43.416   2.343   4.893
51513W        W23773  21.928  42.407   2.877
51514W        W23774  40.574  21.757   3.695
51515W        W23775   1.677  44.827   1.416
51516W        W23776  33.905   3.567  12.781
51517W        W23777  15.511   7.643   4.516
51518W        W23778  35.630  41.921   0.051
51519W        W23779  42.000   5.561   4.249
51520W        W23780  25.036  12.936  11.186
51521W        W23781  42.361  39.008   0.019
51522W        W23782   2.586  18.722   0.868
51523W        W23783  15.113   0.338  13.342
51524W        W23784  11.162  19.110   1.356
51525W        W23785  40.124  25.447  13.885
51526W        W23786  12.253  26.738  12.320
51527W        W23787  12.868  40.725   1.805
51528W        W23788  22.310  40.559  11.051
51529W        W23789  10.874  20.213   4.533
51530W        W23790   7.710  40.881  12.041
51531W        W23791  43.994  22.263  14.393
51532W        W23792  17.466  15.758  10.241
51533W        W23793  14.031  10.831  14.252
51534W        W23794  20.009   8.330   2.406
51535W        W23795  21.479   1.295  11.923
51536W        W23796  26.282  21.322   2.847
51537W        W23797   0.893  32.622  13.406
51538W        W23798   1.973  25.164  14.482
51539W        W23799  34.225  11.366   4.712
51540W        W23800  18.431   4.736  12.500
51541W        W23801  26.742  33.312   0.337
51542W        W23802  37.570   0.871  12.071
51543W        W23803  42.739  11.568   1.150
51544W        W23804  38.853  22.729   4.986
51545W        W23805  17.151  27.216  13.548
51546W        W23806  30.918  11.632   3.654
51547W        W23807   8.414  15.512  13.021
51548W        W23808  38.495  27.949  11.682
51549W        W23809  34.048  19.176   2.213
51550W        W23810  10.673  42.203  13.109
51551W        W23811   7.292  11.051   1.898
51552W        W23812  30.402  27.556   4.154
51553W        W23813  36.946   4.742   0.287
51554W        W23814  10.318  21.092   4.493
51555W        W23815  28.024  25.921   1.750
51556W        W23816  24.612  27.179  11.060
51557W        W23817   8.699   1.434   1.848
51558W        W23818  31.230  29.822   3.384
51559W        W23819  28.176  17.758   0.944
51560W        W23820  40.976  23.827  10.728
51561W        W23821  44.593  37.311  10.023
51562W        W23822  37.956  18.139   3.217
51563W        W23823  13.787  18.356  12.991
51564W        W23824  36.094   9.271  11.958
51565W        W23825  11.685  26.619  10.153
51566W        W23826  31.949  26.083   4.608
51567W        W23827   5.432  37.545   2.593
51568W        W23828  42.581   8.416  14.893
51569W        W23829   7.772   7.147  14.843
51570W        W23830  20.677  44.830   3.256
51571W        W23831  11.314  38.584   4.488
51572W        W23832  32.899   3.162   3.844
51573W        W23833  20.019  11.591  14.306
51574W        W23834  26.465  23.227  13.352
51575W        W23835  23.142  26.680  13.561
51576W        W23836  29.671  34.018  11.161
51577W        W23837  12.220  43.747  12.851
51578W        W23838   2.765  34.407  10.770
51579W        W23839  26.581  32.616   3.485
51580W        W23840   2.673  31.996  11.560
51581W        W23841   4.651  41.500   3.912
51582W        W23842   1.430  22.660  11.924
51583W        W23843   9.233  35.488   4.565
51584W        W23844   1.079   2.756  12.116
51585W        W23845  13.207  24.665   4.274
51586W        W23846   7.413  28.080   1.267
51587W        W23847  41.779  37.742   3.135
51588W        W23848   0.015  23.611   4.063
51589W        W23849  20.368  29.125   4.008
51590W        W23850  26.061   8.733  13.419
51591W        W23851  28.751   3.950  12.050
51592W        W23852  34.127  42.243  11.568
51593W        W23853  30.960  39.973   3.216
51594W        W23854  31.751  25.240   1.925
51595W        W23855  42.111  13.731   3.823
51596W        W23856  15.662  12.328  11.621
51597W        W23857  29.580  11.172   1.222
51598W        W23858  30.381  42.697   2.655
51599W        W23859  44.464  38.773  13.263
51600W        W23860   1.730  11.686  14.737
51601W        W23861  30.424  12.108   2.307
51602W        W23862  30.760   2.442   4.657
51603W        W23863  43.879  41.973   1.598
51604W        W23864  39.024  26.027  14.347
51605W        W23865  21.257  23.462   5.051
51606W        W23866  34.507  39.010   0.056
51607W        W23867  24.332  27.927  12.919
51608W        W23868  11.592  21.556  10.510
51609W        W23869  26.122  17.563  11.619
51610W        W23870  35.087   5.659   4.513
51611W        W23871   9.355  18.798   3.129
51612W        W23872  31.559  38.284   4.193
51613W        W23873   9.921  23.259   1.713
51614W        W23874  17.736  22.172  12.987
51615W        W23875  30.159  13.505   1.392
51616W        W23876  22.842   9.155  10.717
51617W        W23877  13.427  42.200   3.238
51618W        W23878  22.655  17.105  10.763
51619W        W23879  20.997   3.410  12.586
51620W        W23880  38.512  24.983  10.508
51621W        W23881   1.282  22.008  13.813
51622W        W23882  36.616  16.143  11.188
51623W        W23883   2.874  40.413  13.687
51624W        W23884  31.027  26.923   4.071
51625W        W23885  24.066  19.752   4.667
51626W        W23886  37.911  26.120   1.632
51627W        W23887  41.330  35.410   0.632
51628W        W23888  30.421  23.236   3.069
51629W        W23889   8.922  38.301   3.868
51630W        W23890  15.595  17.735  14.278
51631W        W23891  36.815  41.887   3.717
51632W        W23892  44.148  42.283  11.555
51633W        W23893   3.358   6.285  13.946
51634W        W23894  33.416  19.336  14.568
51635W        W23895  14.573  27.904  10.100
51636W        W23896  33.439   2.422   2.351
51637W        W23897  27.924  42.331   3.123
51638W        W23898  31.198  28.312  11.482
51639W        W23899  34.678  29.638  12.040
51640W        W23900  27.464  11.611   3.048
51641W        W23901   7.145  27.558   4.420
51642W        W23902  31.984  33.359  12.988
51643W        W23903  27.683  23.007  11.111
51644W        W23904  24.073  18.632   1.646
51645W        W23905  24.456  20.539   1.778
51646W        W23906   0.214  26.943   4.154
51647W        W23907   6.341   5.911   4.545
51648W        W23908  44.198   8.500   3.729
51649W        W23909   5.814  37.259   2.794
51650W        W23910   1.795   2.435   3.278
51651W        W23911  21.526  16.691   1.939
51652W        W23912  34.718   2.431   4.531
51653W        W23913   5.369  35.644  12.158
51654W        W23914  31.961  17.163   3.384
51655W        W23915   4.870  21.172   4.079
51656W        W23916  27.372   4.957   1.152
51657W        W23917  34.475  18.012   2.711
51658W        W23918   7.812  14.733   0.330
51659W        W23919  43.312  19.183  11.266
51660W        W23920  26.661  21.444   3.870
51661W        W23921  14.591  16.042  10.795
51662W        W23922   7.901  23.756   5.534
51663W        W23923  13.367  36.825   3.925
51664W        W23924  32.387   8.780  13.797
51665W        W23925  37.907  23.592  13.272
51666W        W23926  21.603   3.733   2.204
51667W        W23927  37.931   9.638  14.786
51668W        W23928   8.323   7.331  13.395
51669W        W23929  16.654  10.281   4.214
51670W        W23930  16.583  12.709  11.504
51671W        W23931   5.027  35.592  11.473
51672W        W23932  41.584  10.736  11.844
51673W        W23933   5.822  19.808  13.188
51674W        W23934   7.387  29.012   0.303
51675W        W23935  30.163  15.679   0.053
51676W        W23936  32.355   6.300   3.495
51677W        W23937  44.927  15.228   4.452
51678W        W23938  21.565   7.397   1.707
51679W        W23939   8.795   2.184   2.351
51680W        W23940   6.756  27.154   1.903
51681W        W23941  22.483  13.383   1.326
51682W        W23942  13.082  32.111   3.399
51683W        W23943  32.478  23.020  14.565
51684W        W23944   3.240   1.510   2.212
51685W        W23945  17.311  43.013   4.598
51686W        W23946  30.327  22.935  14.877
51687W        W23947  17.238  33.388  14.351
51688W        W23948  21.237   9.358  13.428
51689W        W23949   1.967  31.555   2.254
51690W        W23950   4.408  21.453  10.898
51691W        W23951  42.940  29.194   0.391
51692W        W23952  34.374  20.838   9.788
51693W        W23953  24.541  38.234  14.843
51694W        W23954  21.058  39.778  12.845
51695W        W23955  16.699  37.315  12.655
51696W        W23956  41.030  13.514   4.618
51697W        W23957  18.772  44.955  11.072
51698W        W23958  28.648  44.445  14.029
51699W        W23959  18.306   1.973  13.889
51700W        W23960  11.078  43.749   2.161
51701W        W23961  12.751  35.494   2.193
51702W        W23962   9.236  26.029   0.280
51703W        W23963  24.149  21.940   4.198
51704W        W23964  25.598   5.082  14.266
51705W        W23965   9.159  16.155   0.670
51706W        W23966  12.003  38.777  13.477
51707W        W23967  28.526  40.532   0.895
51708W        W23968  15.996  35.091  11.083
51709W        W23969  14.874  36.066  12.779
51710W        W23970   9.176  11.366  14.330
51711W        W23971  44.335  32.816  13.117
51712W        W23972  12.299  13.863   3.388
51713W        W23973  11.126  32.120  14.386
51714W        W23974  21.796  31.627   4.288
51715W        W23975  33.382   0.998  10.994
51716W        W23976  15.695  34.326  11.977
51717W        W23977   4.504  19.641   1.975
51718W        W23978   7.348  36.674   0.442
51719W        W23979  24.636  22.109  12.989
51720W        W23980  39.500  39.988   2.019
51721W        W23981  32.087   6.040   3.116
51722W        W23982  37.923  25.642   0.657
51723W        W23983  11.171  37.037  11.908
51724W        W23984  18.262  17.622  14.929
51725W        W23985  32.083  41.984   0.848
51726W        W23986  18.215  33.036   1.882
51727W        W23987  15.595  18.590   1.752
51728W        W23988   9.978  14.544   0.307
51729W        W23989  13.758  21.653  12.942
51730W        W23990  30.653   4.336  13.811
51731W        W23991  17.844  38.893  13.913
51732W        W23992   3.268  19.774  11.675
51733W        W23993  20.548   1.490  13.879
51734W        W23994  17.783   8.270   0.833
51735W        W23995  14.861  19.649  13.936
51736W        W23996  39.378  11.795  14.486
51737W        W23997  13.569  31.269   2.124
51738W        W23998   1.892  33.682  13.946
51739W        W23999  43.197  42.952  14.114
51740W        W24000  23.122  43.412  14.526
51741W        W24001  24.379  29.285  14.450
51742W        W24002   4.067  36.059   4.765
51743W        W24003   4.424  32.679   4.056
51744W        W24004  35.949  17.508  10.625
51745W        W24005  34.155  35.565  14.030
51746W        W24006  40.920   0.926  14.778
51747W        W24007  19.061  28.692  11.663
51748W        W24008  15.572  17.605   1.647
51749W        W24009  13.618   3.056   0.751
51750W        W24010   1.358   1.194   4.224
51751W        W24011   9.235  30.669  14.454
51752W        W24012  23.528  27.460  11.572
51753W        W24013   3.763   6.536  14.135
51754W        W24014   2.775  19.441   4.500
51755W        W24015  25.684  10.480  11.087
51756W        W24016  42.576  41.012  14.691
51757W        W24017  16.763  28.946   0.347
51758W        W24018  35.049  34.002  12.144
51759W        W24019   4.950  24.181  13.389
51760W        W24020   5.766   5.748  11.076
51761W        W24021   5.744  24.559  12.599
51762W        W24022  42.065  40.598   1.453
51763W        W24023  37.674  11.275   1.013
51764W        W24024  29.456  12.739   3.212
51765W        W24025   6.303  42.218   0.655
51766W        W24026  20.359  44.073   0.494
51767W        W24027  23.518  27.813  13.326
51768W        W24028  31.642  31.981   9.780
51769W        W24029   1.804  41.403  10.898
51770W        W24030  34.339  32.058  10.250
51771W        W24031  22.773  30.185   3.370
51772W        W24032   8.225  31.272  14.136
51773W        W24033  38.586  28.870  14.991
51774W        W24034  31.542  42.412  12.632
51775W        W24035  31.937  10.684   5.413
51776W        W24036  42.465  14.919   3.487
51777W        W24037  27.692  34.200  12.840
51778W        W24038   7.722  24.173   1.717
51779W        W24039  44.736  42.274  14.473
51780W        W24040  26.673  35.195   1.808
51781W        W24041  15.838   6.744   0.303
51782W        W24042  40.043  27.064  11.163
51783W        W24043  10.414  11.743   1.843
51784W        W24044  15.693  19.173  14.331
51785W        W24045  24.590  42.809   3.161
51786W        W24046  43.823  19.182  14.422
51787W        W24047  33.334  16.282  11.950
51788W        W24048   3.875  30.979  12.559
51789W        W24049   9.892  44.874   2.140
51790W        W24050   2.696  35.383   0.879
51791W        W24051  41.108  11.142  12.608
51792W        W24052   1.446   8.393  14.766
51793W        W24053   4.353  24.944  13.611
51794W        W24054  35.038  20.230  11.991
51795W        W24055  14.541  22.713   3.149
51796W        W24056  35.787  29.149   0.547
51797W        W24057  32.182   1.407  13.545
51798W        W24058  44.779  18.589  11.676
51799W        W24059  12.384   0.149  12.633
51800W        W24060  15.557  21.260  12.865
51801W        W24061  40.846  15.812  11.603
51802W        W24062  21.743   0.730  14.993
51803W        W24063   0.939  40.955  13.568
51804W        W24064  15.934  32.074   1.288
51805W        W24065  24.441  22.444   3.621
51806W        W24066   1.515  23.967  12.983
51807W        W24067  18.371  22.884   0.936
51808W        W24068  37.796  18.489   4.855
51809W        W24069   5.380  17.442  13.310
51810W        W24070  34.340  39.420  14.765
51811W        W24071  28.935  26.767  12.660
51812W        W24072   1.489  37.514  12.873
51813W        W24073  16.374  18.633   3.772
51814W        W24074   1.650  30.963  10.612
51815W        W24075   5.413  22.477  14.206
51816W        W24076  15.600   0.521  10.604
51817W        W24077  16.301  40.341  12.017
51818W        W24078  12.713  12.750   1.331
51819W        W24079  34.148  29.075   1.952
51820W        W24080   8.490  44.970  11.552
51821W        W24081   1.341  37.831   1.586
51822W        W24082   1.361   5.298   4.199
51823W        W24083  37.683  42.575  13.340
51824W        W24084   8.361  33.894  10.757
51825W        W24085   1.175  10.262   2.787
51826W        W24086  30.936  44.948  10.999
51827W        W24087  44.313  19.276  14.331
51828W        W24088  34.144  28.499  13.405
51829W        W24089  21.547  13.840  14.440
51830W        W24090  40.925  18.071  10.808
51831W        W24091   4.727  23.537   3.031
51832W        W24092  22.865  21.468   0.274
51833W        W24093  44.043  30.875  11.037
51834W        W24094  29.627  35.436   4.148
51835W        W24095  27.000   8.293   4.323
51836W        W24096  31.888  33.422   1.743
51837W        W24097  36.293  38.312  14.980
51838W        W24098   5.675  14.350  11.639
51839W        W24099   5.752   5.496  12.735
51840W        W24100  34.025   3.883   2.842
51841W        W24101  41.499   7.451  11.070
51842W        W24102  15.959   7.206   2.904
51843W        W24103  34.423  29.297  12.663
51844W        W24104  14.819  15.794  11.603
51845W        W24105  11.076  36.361   2.818
51846W        W24106  41.843  15.850   4.745
51847W        W24107   8.181  20.078  11.511
51848W        W24108   4.733   7.659   0.782
51849W        W24109  44.855  21.595  13.467
51850W        W24110  42.900  23.436  11.047
51851W        W24111  27.676  29.151  10.669
51852W        W24112  39.135  37.472   4.601
51853W        W24113   5.453  18.365  10.862
51854W        W24114  35.054  43.890   1.017
51855W        W24115  33.442  32.008   2.192
51856W        W24116  10.366   1.900   5.062
51857W        W24117   7.065  35.288   1.817
51858W        W24118  27.738   7.895   1.455
51859W        W24119  34.814   7.134  14.524
51860W        W24120   9.171  32.357  12.875
51861W        W24121  23.065  36.377  12.460
51862W        W24122  15.947  29.215  13.852
51863W        W24123  15.650  20.202  14.298
51864W        W24124  23.203   3.627   4.137
51865W        W24125  24.795  25.028   9.860
51866W        W24126  30.355  12.848  13.795
51867W        W24127  23.828  10.887   4.232
51868W        W24128  30.916  39.997  11.856
51869W        W24129  32.160   3.773  12.564
51870W        W24130  35.142  26.463   1.298
51871W        W24131  13.388  39.905   0.150
51872W        W24132  40.298   5.717   1.430
51873W        W24133  15.694   2.234   0.306
51874W        W24134  30.379   1.956   0.197
51875W        W24135  30.427  25.041   2.707
51876W        W24136  26.729  39.397   4.562
51877W        W24137  27.073   5.722   3.631
51878W        W24138  27.826  12.709  13.576
51879W        W24139  36.333  28.003   2.939
51880W        W24140  37.537   0.485  10.561
51881W        W24141  15.823  27.441  11.286
51882W        W24142  37.586   5.429   0.924
51883W        W24143   2.761   4.641   0.172
51884W        W24144  39.341   4.468  13.412
51885W        W24145  44.482  16.148  11.119
51886W        W24146  13.609   2.772   2.043
51887W        W24147  24.073  29.599   4.723
51888W        W24148   2.228  25.526   4.549
51889W        W24149  38.378  14.589   1.277
51890W        W24150   3.210   1.309   0.296
51891W        W24151  12.509  20.435   0.700
51892W        W24152   9.854  29.404   3.187
51893W        W24153  28.490  11.147   2.716
51894W        W24154   5.424  15.785  14.238
51895W        W24155  44.244  10.254   0.290
51896W        W24156   7.045  18.605   4.748
51897W        W24157  40.709   6.674   0.151
51898W        W24158  17.731  38.597  12.954
51899W        W24159  21.694  43.529   1.809
51900W        W24160  28.109  11.869   0.448
51901W        W24161  27.051   9.070  11.869
51902W        W24162  27.630  37.906  10.667
51903W        W24163  21.166  31.205   0.946
51904W        W24164  20.175  16.338   0.911
51905W        W24165  13.949  31.485   3.490
51906W        W24166  18.613  16.698   1.839
51907W        W24167   0.017   0.381  12.532
51908W        W24168  42.900  31.059   0.213
51909W        W24169  33.773  38.519  13.189
51910W        W24170  21.564  30.906  11.098
51911W        W24171  41.029  12.882  12.879
51912W        W24172  34.871  16.994  13.090
51913W        W24173  25.937   2.987  14.780
51914W        W24174  38.303  14.160  13.368
51915W        W24175  18.628  20.221  13.373
51916W        W24176  29.391  38.921   0.833
51917W        W24177  11.595  31.003   3.824
51918W        W24178  27.224  27.322   0.833
51919W        W24179  44.877  11.127   1.299
51920W        W24180  24.248   6.992   2.243
51921W        W24181  11.662  15.130  11.630
51922W        W24182  18.719  18.253   1.795
51923W        W24183  23.762  12.155   4.801
51924W        W24184  17.399  36.922   3.246
51925W        W24185  20.108   4.409  13.991
51926W        W24186  40.352  43.391  13.343
51927W        W24187  43.925  32.979  14.910
51928W        W24188  41.462  42.130   3.232
51929W        W24189  15.516   2.641   2.162
51930W        W24190   3.181   1.471  12.461
51931W        W24191  12.235   0.242   3.431
51932W        W24192  34.950   8.871   3.804
51933W        W24193  31.009   7.280  11.946
51934W        W24194  14.080   8.104   2.797
51935W        W24195  13.079  32.269   5.020
51936W        W24196  28.387  30.552   1.779
51937W        W24197  34.332  39.004   0.936
51938W        W24198  37.957  44.330  14.118
51939W        W24199  40.341   3.382   0.528
51940W        W24200  17.086  37.466   3.844
51941W        W24201   0.856  38.941   4.061
51942W        W24202  21.057   3.699   3.113
51943W        W24203  30.176  26.276   4.096
51944W        W24204  17.294  37.829  14.966
51945W        W24205   6.005  34.046  10.996
51946W        W24206  24.755  26.058   4.434
51947W        W24207  25.116  10.242   2.819
51948W        W24208  43.223  23.314   1.324
51949W        W24209   9.392  37.105   4.594
51950W        W24210  19.620  32.619   1.885
51951W        W24211  24.731  42.445   2.348
51952W        W24212  14.391  29.123   4.957
51953W        W24213  21.452  13.608  13.976
51954W        W24214  39.087   1.011  13.920
51955W        W24215  27.161  29.601  12.449
51956W        W24216  39.681  14.315  14.274
51957W        W24217  20.778  14.156   3.126
51958W        W24218   9.205  44.974   2.750
51959W        W24219   6.817   1.878   2.906
51960W        W24220  26.955  35.338   2.693
51961W        W24221  29.144  29.200   3.732
51962W        W24222   7.306  32.075  12.966
51963W        W24223  39.620  15.396  12.937
51964W        W24224  42.184  38.034   4.086
51965W        W24225  13.719   1.235  14.755
51966W        W24226  14.036  23.700  11.673
51967W        W24227  16.653  34.649   1.809
51968W        W24228  18.819   8.639   4.658
51969W        W24229  27.969   7.141   2.311
51970W        W24230   6.497   0.992  10.159
51971W        W24231  17.137  13.168   3.493
51972W        W24232  26.410  41.412   2.835
51973W        W24233  44.076  41.007  13.913
51974W        W24234   4.952  16.945  12.460
51975W        W24235  34.020   1.660   4.862
51976W        W24236  24.635   6.110  12.053
51977W        W24237   1.355  32.186  11.603
51978W        W24238  32.093   7.301   0.826
51979W        W24239  22.923  13.122   1.248
51980W        W24240  33.623  16.117   2.298
51981W        W24241  35.865  12.396   2.727
51982W        W24242  32.746   6.830  13.414
51983W        W24243  16.384  19.171   1.006
51984W        W24244  16.479  10.656   2.647
51985W        W24245   4.738   9.908  12.013
51986W        W24246  31.088   1.802   1.921
51987W        W24247  30.939  22.329  12.089
51988W        W24248   1.203  23.573  10.968
51989W        W24249  18.643  17.273  14.731
51990W        W24250  29.836  37.401   5.236
51991W        W24251  11.217  39.429   1.198
51992W        W24252  18.680  10.926  14.544
51993W        W24253  16.783  26.014   1.810
51994W        W24254  33.158   8.758  12.833
51995W        W24255  10.212  40.775  12.070
51996W        W24256  34.866  37.769   2.732
51997W        W24257  26.741  21.124   2.802
51998W        W24258  13.260   3.541   2.431
51999W        W24259  34.619  10.482   3.268
52000W        W24260  27.240  37.384   2.785
52001W        W24261   8.372  31.298  14.981
52002W        W24262  16.657  23.986   4.658
52003W        W24263  25.432   7.278  12.828
52004W        W24264  29.319  11.930   3.765
52005W        W24265  29.536   4.198  12.391
52006W        W24266  38.410  26.248  13.033
52007W        W24267  25.579   0.542  13.362
52008W        W24268  31.962  33.440   2.596
52009W        W24269  44.051   9.344  13.171
52010W        W24270  39.156  37.804   0.508
52011W        W24271  41.994  15.800  12.434
52012W        W24272  39.112  31.586  14.517
52013W        W24273  41.477  20.317  14.336
52014W        W24274  28.003  38.528  13.956
52015W        W24275  38.854  13.743   2.649
52016W        W24276   1.486  28.953  11.602
52017W        W24277  33.627  26.813  11.592
52018W        W24278  42.468  21.179  14.418
52019W        W24279  42.403   7.832   3.293
52020W        W24280   1.798  39.043  11.087
52021W        W24281  41.084   5.892   0.396
52022W        W24282  17.556   7.925  11.591
52023W        W24283  14.312  33.886   2.730
52024W        W24284  35.902  27.160   2.738
52025W        W24285  28.470  38.894   4.113
52026W        W24286  27.732  37.375   5.052
52027W        W24287  36.970  13.311  12.192
52028W        W24288  16.757  14.045  13.920
52029W        W24289  27.910  38.861   0.898
52030W        W24290  17.171  11.193   3.874
52031W        W24291  12.948  25.543   0.879
52032W        W24292  18.032  20.534  13.417
52033W        W24293  18.203  20.023  14.845
52034W        W24294  29.196   3.745  14.608
52035W        W24295  11.609  22.962  14.993
52036W        W24296   1.482  13.036  11.216
52037W        W24297  17.391  34.140   0.739
52038W        W24298  10.811  16.611   1.153
52039W        W24299  32.119  36.858   4.920
52040W        W24300  30.186   3.405   3.859
52041W        W24301  39.549   1.300  10.852
52042W        W24302  11.842  35.162   1.283
52043W        W24303   6.712  11.801  10.676
52044W        W24304  26.958  40.092  10.698
52045W        W24305   0.516  32.952   2.327
52046W        W24306   7.502  37.557   2.747
52047W        W24307   9.946  21.529   4.310
52048W        W24308  36.847  42.300  10.658
52049W        W24309  21.114  29.738  13.608
52050W        W24310  16.741   8.027  14.545
52051W        W24311  10.136   5.389   0.343
52052W        W24312  35.914  30.785   4.682
52053W        W24313  22.759   9.475   3.613
52054W        W24314   4.923  32.111   4.640
52055W        W24315   7.572   8.630   0.057
52056W        W24316   9.761   8.053  11.441
52057W        W24317  29.195  32.269   5.308
52058W        W24318  35.376   2.428   2.704
52059W        W24319  40.973  32.741   0.961
52060W        W24320   3.148   3.455   3.340
52061W        W24321   2.789  33.723  13.848
52062W        W24322  43.378   8.379  11.522
52063W        W24323   8.505  36.997   4.100
52064W        W24324  25.215  32.428  11.138
52065W        W24325   8.433   7.857   2.415
52066W        W24326   1.897  37.146   1.830
52067W        W24327  26.090  10.879  11.951
52068W        W24328  13.581  33.546   4.554
52069W        W24329  33.277  27.658   1.781
52070W        W24330  41.863   4.943  12.440
52071W        W24331  20.998  30.046   5.064
52072W        W24332  18.733  10.685  11.221
52073W        W24333  17.789  32.931   0.219
52074W        W24334  20.632   4.824  13.723
52075W        W24335  15.718  43.974   0.479
52076W        W24336   0.702  25.097  14.315
52077W        W24337  28.094  30.713   1.361
52078W        W24338  20.655  31.797   3.163
52079W        W24339  22.078  37.220   4.161
52080W        W24340  18.964  14.719   4.201
52081W        W24341  40.498   6.850  12.493
52082W        W24342  15.891   5.338   0.801
52083W        W24343  31.585  17.909   1.755
52084W        W24344  37.051   8.150  12.972
52085W        W24345  10.686  20.579   0.148
52086W        W24346  14.386   4.352   4.565
52087W        W24347  22.558  36.001   3.004
52088W        W24348  15.848  44.075   1.690
52089W        W24349  18.544  43.495   2.167
52090W        W24350  14.869  19.304   0.936
52091W        W24351   1.894  22.726  14.569
52092W        W24352   7.620  13.437   0.921
52093W        W24353  17.436  27.826   3.636
52094W        W24354  41.458   8.838   4.146
52095W        W24355  39.067  29.279  12.676
52096W        W24356  18.184  29.234   1.998
52097W        W24357  12.059  37.792  11.478
52098W        W24358   4.742  36.018   1.149
52099W        W24359   3.687  23.487  13.463
52100W        W24360  33.792  20.794   2.257
52101W        W24361  42.441  36.186  13.582
52102W        W24362  14.907  28.096   5.437
52103W        W24363  33.279  26.654  14.229
52104W        W24364   5.520  13.753   4.722
52105W        W24365  40.230   7.131   4.039
52106W        W24366  34.996   2.659   0.331
52107W        W24367  23.682  22.096   3.280
52108W        W24368  44.847  29.049  12.482
52109W        W24369  40.532  26.598  10.698
52110W        W24370  26.238   6.875   4.786
52111W        W24371  34.977  39.935  12.146
52112W        W24372  30.428   5.735  12.843
52113W        W24373  22.714  44.818  13.961
52114W        W24374   3.930  41.962  14.357
52115W        W24375  26.745  31.018  10.619
52116W        W24376  34.901  17.825   0.346
52117W        W24377   1.041  20.734  12.628
52118W        W24378   2.563  36.665  11.134
52119W        W24379   9.336   2.376   3.753
52120W        W24380   0.748  12.088   0.303
52121W        W24381  32.457  39.706   2.369
52122W        W24382  18.276  23.705  11.597
52123W        W24383  19.627  40.329  13.989
52124W        W24384   5.752  36.635   3.231
52125W        W24385  24.661  12.685  10.913
52126W        W24386  37.528  21.633  11.817
52127W        W24387  12.674  34.718   2.919
52128W        W24388   4.271  39.806  12.039
52129W        W24389  41.181  42.705  12.593
52130W        W24390  13.123  29.919  11.633
52131W        W24391  13.639   1.270   1.108
52132W        W24392   2.403  14.825  14.465
52133W        W24393  15.976  28.074  13.328
52134W        W24394  12.174  35.140   2.638
52135W        W24395  22.028   5.025   1.893
52136W        W24396  25.177  21.519   2.273
52137W        W24397  19.086  29.947   4.521
52138W        W24398  44.447  24.794  10.160
52139W        W24399  36.139   6.351  11.420
52140W        W24400  27.053   9.228   4.667
52141W        W24401   4.695   6.394  12.002
52142W        W24402  32.401  14.754  12.021
52143W        W24403   1.203  22.962   1.353
52144W        W24404  30.549  29.689   2.789
52145W        W24405  20.771  43.709  14.788
52146W        W24406  41.237  35.640   3.830
52147W        W24407  25.589  16.821  13.780
52148W        W24408  35.435  14.977   0.953
52149W        W24409  32.894  43.435   4.243
52150W        W24410  25.313   0.678  13.780
52151W        W24411  28.421  36.281   2.640
52152W        W24412  43.251  31.963  11.644
52153W        W24413  26.970  20.334  14.300
52154W        W24414  21.508  21.341   5.181
52155W        W24415  16.672  34.232   4.927
52156W        W24416   1.661  16.117   4.251
52157W        W24417  18.507  13.385  13.801
52158W        W24418  31.500  18.556  14.520
52159W        W24419   7.102  40.861  12.963
52160W        W24420   7.915  32.961  13.583
52161W        W24421   2.398  19.030  11.103
52162W        W24422  35.382  19.748  14.400
52163W        W24423  32.237  42.923   2.060
52164W        W24424  11.678   3.380  12.370
52165W        W24425   2.333  41.494   2.681
52166W        W24426   8.209  24.015   4.107
52167W        W24427  15.458  33.631  12.928
52168W        W24428   2.445   7.649  14.413
52169W        W24429   9.168   1.426   3.582
52170W        W24430  10.598  43.309   1.775
52171W        W24431  29.647  23.703  14.973
52172W        W24432  20.134  26.361   2.824
52173W        W24433  26.163  34.412  13.910
52174W        W24434  42.221   6.122  11.896
52175W        W24435   9.382  22.699   9.993
52176W        W24436  10.344   3.733  12.472
52177W        W24437   0.257   7.270  13.952
52178W        W24438  28.606  35.177   1.071
52179W        W24439  38.382   5.622   4.246
52180W        W24440  15.596  38.935  10.474
52181W        W24441  43.515  32.902  13.346
52182W        W24442  19.429  21.241   1.290
52183W        W24443  14.121   0.913  13.336
52184W        W24444  43.084  15.300   1.889
52185W        W24445   1.644  18.753  14.213
52186W        W24446  39.268  31.439   3.282
52187W        W24447  24.575  12.291  14.507
52188W        W24448   9.572  43.205  13.109
52189W        W24449  35.505   6.976   4.289
52190W        W24450  16.868  17.840  11.609
52191W        W24451  12.890  14.966   0.442
52192W        W24452  10.586  39.047   4.557
52193W        W24453  33.475  36.307  14.796
52194W        W24454  29.546  23.116   2.683
52195W        W24455  32.531   6.297   3.996
52196W        W24456   8.364  27.008  14.799
52197W        W24457  14.822  26.641  11.160
52198W        W24458  33.013  24.726   2.892
52199W        W24459  14.959   9.802  13.464
52200W        W24460  15.091  41.027   0.154
52201W        W24461   6.498   5.115  14.852
52202W        W24462  18.249  18.420  12.379
52203W        W24463  17.246  10.626  12.783
52204W        W24464  44.468  15.815  14.607
52205W        W24465  11.074  17.689  12.897
52206W        W24466  12.549   6.884   2.258
52207W        W24467  36.319  15.103   4.164
52208W        W24468  16.391  23.068  10.693
52209W        W24469   2.538   2.039   0.271
52210W        W24470  19.645   3.110  12.457
52211W        W24471  37.974  17.187   3.652
52212W        W24472  27.437  24.708  14.377
52213W        W24473  12.119  26.596   9.885
52214W        W24474  39.964  41.517  14.785
52215W        W24475   1.963   8.324   0.770
52216W        W24476  44.777  43.787  13.941
52217W        W24477  32.996  29.136  13.770
52218W        W24478  17.517  38.970  11.041
52219W        W24479  16.676  44.345   1.158
52220W        W24480  43.933  33.698   4.167
52221W        W24481  24.254  38.528  12.878
52222W        W24482  19.527  20.199   1.451
52223W        W24483  22.554  42.469  14.763
52224W        W24484  28.298  30.431   0.974
52225W        W24485  17.611   9.434   0.013
52226W        W24486  36.043   0.049   0.594
52227W        W24487  15.033   4.937   2.820
52228W        W24488  35.320  43.927  11.918
52229W        W24489  24.961  26.264   1.941
52230W        W24490  37.789  16.511   0.936
52231W        W24491  24.633  41.587  11.611
52232W        W24492  10.738  39.888   0.750
52233W        W24493  37.737  25.452  13.874
52234W        W24494   2.704  35.447   3.318
52235W        W24495   9.433   7.408   2.214
52236W        W24496  35.609  43.039  13.314
52237W        W24497  11.296  44.827  13.285
52238W        W24498  33.736  25.722   2.487
52239W        W24499  18.688  32.495  13.274
52240W        W24500  16.810   5.864  12.003
52241W        W24501  38.836  13.864  14.970
52242W        W24502   2.353  22.673  11.087
52243W        W24503  23.228   1.284   4.602
52244W        W24504   8.334  28.233   4.319
52245W        W24505  33.144  31.119   0.309
52246W        W24506  20.692  16.242   0.951
52247W        W24507  19.126  30.174   3.160
52248W        W24508  15.245   9.688   0.442
52249W        W24509  30.429  40.406  13.972
52250W        W24510  34.068  21.872  14.316
52251W        W24511  13.217  28.633  11.115
52252W        W24512   8.625  26.193  10.519
52253W        W24513  42.236   8.285   3.000
52254W        W24514  30.156  20.216   4.663
52255W        W24515  43.475  13.813   2.148
52256W        W24516  33.180  22.153  13.427
52257W        W24517  23.810  37.444   1.978
52258W        W24518  23.520  26.133   0.663
52259W        W24519  21.411  42.996  12.333
52260W        W24520  15.356  18.212   1.430
52261W        W24521  27.627  41.421   3.697
52262W        W24522  25.473   8.793   3.055
52263W        W24523   5.234  15.691   1.326
52264W        W24524   0.030   2.463  13.100
52265W        W24525  26.143  19.800   1.011
52266W        W24526   3.581   1.335   5.038
52267W        W24527  26.192   1.745  14.507
52268W        W24528  38.222  41.239   3.136
52269W        W24529  28.694  12.539  13.216
52270W        W24530  24.107   1.059  13.550
52271W        W24531   2.323  27.224  13.715
52272W        W24532  31.491   4.140   1.270
52273W        W24533   9.630  15.377  13.425
52274W        W24534  23.997  40.569   3.434
52275W        W24535  17.033  10.289  11.020
52276W        W24536  36.470  36.217   4.665
52277W        W24537  34.458  14.764   1.938
52278W        W24538  22.702   6.718   4.380
52279W        W24539  31.408  14.266   1.990
52280W        W24540  31.136  21.131   9.881
52281W        W24541  29.853  21.231  10.795
52282W        W24542  11.317   8.382  12.097
52283W        W24543  35.916  35.890  14.030
52284W        W24544  16.842  24.566  14.327
52285W        W24545   6.133  23.979   0.318
52286W        W24546  34.293  33.141   2.762
52287W        W24547  30.496  26.081   1.320
52288W        W24548  25.534  12.639   4.594
52289W        W24549  10.734  29.621   1.121
52290W        W24550  29.527   0.826   0.057
52291W        W24551  41.398  16.140   1.235
52292W        W24552  22.565   5.305   2.353
52293W        W24553  43.347   6.425  11.144
52294W        W24554   4.477  27.694  14.779
52295W        W24555   3.200  28.515   3.595
52296W        W24556  32.613  40.029   0.455
52297W        W24557  22.314  11.179  12.078
52298W        W24558   7.385   8.232   1.755
52299W        W24559  28.296  26.836  11.830
52300W        W24560   4.723  19.160   1.987
52301W        W24561  18.318  39.685   3.022
52302W        W24562  41.866  10.379   3.969
52303W        W24563  13.876  40.822  14.845
52304W        W24564  44.278   8.722  12.003
52305W        W24565  18.025   9.343   3.215
52306W        W24566   0.750  23.180  14.502
52307W        W24567  32.053  29.706  12.982
52308W        W24568  17.845  30.739   1.262
52309W        W24569  29.421  43.439   1.958
52310W        W24570  32.428  19.124   2.386
52311W        W24571  40.796   9.826  12.304
52312W        W24572  35.620  42.734   4.162
52313W        W24573   6.274   5.527   0.811
52314W        W24574  18.148  23.215   2.121
52315W        W24575   9.607  43.490  11.578
52316W        W24576  12.220  34.007  10.543
52317W        W24577   9.201  12.435   2.218
52318W        W24578  19.143  23.174   4.666
52319W        W24579  22.681  23.672   1.155
52320W        W24580   7.805  23.756  13.434
52321W        W24581  20.291   2.000   2.820
52322W        W24582  43.622  38.480  11.315
52323W        W24583  31.362  34.383   2.775
52324W        W24584  22.737  19.062  12.387
52325W        W24585  43.575  16.065   2.450
52326W        W24586  40.884   4.438   3.216
52327W        W24587  23.293  24.387   2.937
52328W        W24588  44.134   3.273  13.485
52329W        W24589  35.864  36.881  11.255
52330W        W24590   2.176  31.494   1.288
52331W        W24591  17.690  33.401   1.178
52332W        W24592  29.697  39.598   0.452
52333W        W24593  15.708  14.947   0.400
52334W        W24594  25.534  10.456   1.192
52335W        W24595   8.315  17.225   4.811
52336W        W24596  21.112  40.273   4.551
52337W        W24597  29.146  16.130   3.163
52338W        W24598  16.324  14.654  10.794
52339W        W24599  15.226  30.921   3.734
52340W        W24600  33.031  10.840  12.343
52341W        W24601  38.309  17.701  12.538
52342W        W24602  40.250  39.899  14.878
52343W        W24603  36.031   5.815  10.628
52344W        W24604  38.710   0.776  14.886
52345W        W24605  37.673  15.410   5.160
52346W        W24606   8.875  37.856   3.642
52347W        W24607  44.027  28.750   4.070
52348W        W24608   4.617  20.610   2.417
52349W        W24609   9.267  12.869   4.145
52350W        W24610   2.206  43.458  11.693
52351W        W24611   0.783   5.167  14.793
52352W        W24612  11.123   5.133  10.513
52353W        W24613   3.792  24.085   1.129
52354W        W24614  42.145  15.659  13.223
52355W        W24615   6.734  14.689   4.135
52356W        W24616  12.189  23.093  13.142
52357W        W24617  36.958   3.378  13.608
52358W        W24618  16.230  20.622  13.057
52359W        W24619  24.925  42.746   0.823
52360W        W24620  39.059  17.313  12.506
52361W        W24621  20.133  36.278  14.266
52362W        W24622  31.866  36.869  10.384
52363W        W24623  17.394  30.339   5.096
52364W        W24624  12.982  28.883   4.063
52365W        W24625   2.492   8.399   0.883
52366W        W24626  28.441   6.479   0.658
52367W        W24627  13.063  32.218   0.976
52368W        W24628  38.655   6.411   0.838
52369W        W24629  41.284  41.305  14.455
52370W        W24630  38.618  43.809   2.188
52371W        W24631  17.980  39.788   2.137
52372W        W24632  14.864  33.255   4.355
52373W        W24633  34.815  30.441   3.221
52374W        W24634   8.821  38.766   2.355
52375W        W24635  29.651  20.465  11.145
52376W        W24636  44.452  19.288  12.561
52377W        W24637  36.479  35.686  11.476
52378W        W24638   6.366  15.199   3.281
52379W        W24639  37.979  12.613   2.405
52380W        W24640  33.668  26.060  11.927
52381W        W24641  13.335   0.935  14.884
52382W        W24642  35.027  23.245  14.876
52383W        W24643  36.811   2.556   0.001
52384W        W24644   5.648   5.829   2.332
52385W        W24645   2.004   1.020   3.342
52386W        W24646  20.494  21.141   4.112
52387W        W24647  31.175  28.372   4.188
52388W        W24648   6.947  42.458   4.852
52389W        W24649  33.496   2.853  13.794
52390W        W24650  10.829  14.626  13.839
52391W        W24651  17.250  32.064   1.504
52392W        W24652  28.939  17.187   0.521
52393W        W24653  33.157  23.776   2.457
52394W        W24654  43.813  21.771  14.503
52395W        W24655  26.951  42.910  10.770
52396W        W24656  18.404   2.396   4.880
52397W        W24657   3.713  19.017  12.075
52398W        W24658  36.830   6.637   3.782
52399W        W24659   2.687   5.643   2.628
52400W        W24660  14.255  32.269   5.088
52401W        W24661  43.944  32.601   2.059
52402W        W24662  29.157  22.229  13.430
52403W        W24663  23.103  26.948   2.829
52404W        W24664  36.560  41.569  14.960
52405W        W24665  13.680  41.895  10.714
52406W        W24666  31.917  44.332   2.584
52407W        W24667   1.909  13.854   0.323
52408W        W24668   2.169  25.703  13.920
52409W        W24669   8.628  43.395  12.488
52410W        W24670  30.476  23.794   0.986
52411W        W24671  18.696  29.135   2.789
52412W        W24672  36.383  16.778   4.357
52413W        W24673  23.971  32.065   1.060
52414W        W24674   2.521  35.990  14.329
52415W        W24675  36.152  39.364  10.723
52416W        W24676  41.040  44.705  14.338
52417W        W24677  30.312  39.662   1.308
52418W        W24678  23.543  27.603   1.182
52419W        W24679   3.689   3.309  10.956
52420W        W24680   0.550  30.677   0.456
52421W        W24681  40.332  44.227   9.979
52422W        W24682  18.862  23.630  14.936
52423W        W24683  22.003  10.119  11.202
52424W        W24684  30.006   4.737  13.390
52425W        W24685  14.934  44.851  13.176
52426W        W24686  17.620  12.205  10.305
52427W        W24687  23.621  17.092   2.601
52428W        W24688  10.708  42.931  10.735
52429W        W24689   2.349  11.130   9.904
52430W        W24690  26.532  35.329  11.106
52431W        W24691  21.098  12.475  13.471
52432W        W24692   3.332  15.533  12.407
52433W        W24693  23.793   3.698   0.282
52434W        W24694  42.525  13.615  12.347
52435W        W24695  26.356  33.257  13.408
52436W        W24696  36.376   2.465  13.768
52437W        W24697  25.675  30.178   1.902
52438W        W24698  39.728  19.272   0.228
52439W        W24699  29.531  37.191  11.587
52440W        W24700  40.041  41.248   3.227
52441W        W24701   0.926  22.020   2.796
52442W        W24702  12.343  28.960   4.080
52443W        W24703  37.324  33.538  11.913
52444W        W24704   6.419  23.035   0.272
52445W        W24705  40.793  44.439   3.219
52446W        W24706  33.634  27.832   0.616
52447W        W24707  39.358  43.000   3.126
52448W        W24708  41.756  23.143   2.873
52449W        W24709   4.239   3.576  13.087
52450W        W24710  21.574  27.666  14.451
52451W        W24711  20.571  22.585  11.294
52452W        W24712  38.333  16.238   1.994
52453W        W24713  30.949  10.729   1.151
52454W        W24714  17.316  15.045   3.238
52455W        W24715  12.398   0.999   9.929
52456W        W24716  28.019   2.491  10.899
52457W        W24717   4.189  31.765   4.468
52458W        W24718  36.375   9.822   0.087
52459W        W24719  23.551  17.148   4.580
52460W        W24720  35.061  17.316  11.685
52461W        W24721  15.156  37.804   3.647
52462W        W24722  33.013  29.587   4.268
52463W        W24723  35.004  35.587   2.842
52464W        W24724  36.656  42.389   3.803
52465W        W24725  15.085   7.753  13.576
52466W        W24726  15.225  22.063   4.041
52467W        W24727   8.443  32.380  11.935
52468W        W24728  33.197  13.486  12.520
52469W        W24729  18.507  15.845   2.799
52470W        W24730  43.367  31.096   2.633
52471W        W24731  29.924  22.608  14.828
52472W        W24732  42.933  10.898   4.001
52473W        W24733  41.394   6.230   2.274
52474W        W24734  37.448  10.860  10.601
52475W        W24735   5.169   2.477   4.130
52476W        W24736   9.312   9.310   2.380
52477W        W24737  32.507   8.319   0.520
52478W        W24738  15.270  39.195   2.410
52479W        W24739  21.587  34.069   4.806
52480W        W24740  23.745  20.013   3.212
52481W        W24741  27.224  30.539   3.734
52482W        W24742  18.367  16.406  12.423
52483W        W24743  35.515  44.853  13.970
52484W        W24744  25.620  36.382  11.588
52485W        W24745  12.563  17.182   3.666
52486W        W24746  34.418  11.613   2.161
52487W        W24747  13.011   3.814   4.048
52488W        W24748  27.500   3.406  11.123
52489W        W24749  42.193   6.002   4.053
52490W        W24750  30.451  23.928  10.782
52491W        W24751  30.344  23.765  13.639
52492W        W24752  30.456   4.795  13.614
52493W        W24753  23.167  15.131  14.579
52494W        W24754  10.742  34.431   3.765
52495W        W24755  31.924  10.938   3.675
52496W        W24756  22.500  37.579  13.290
52497W        W24757  41.259   3.155  13.979
52498W        W24758  31.389  28.675   1.283
52499W        W24759  20.044  41.303  13.960
52500W        W24760   1.143  30.963  10.690
52501W        W24761  20.598  34.968  13.765
52502W        W24762  28.536  41.266  11.489
52503W        W24763  13.176  17.265   0.368
52504W        W24764  24.286  39.799  12.075
52505W        W24765  16.841  13.187  11.626
52506W        W24766  33.912  40.649  14.621
52507W        W24767  27.972  37.274  11.138
52508W        W24768  12.375   2.668   2.716
52509W        W24769   0.988  13.863  11.123
52510W        W24770  41.267  25.227   3.145
52511W        W24771   0.289  35.039   2.788
52512W        W24772  30.035   1.737   3.451
52513W        W24773  19.977  29.963   0.253
52514W        W24774  18.778  18.623   1.000
52515W        W24775   1.794  40.778  11.650
52516W        W24776   0.895   2.181  13.953
52517W        W24777  28.662   4.975   0.757
52518W        W24778   3.251  20.322   1.825
52519W        W24779  10.038  32.880  14.826
52520W        W24780   0.733  38.835   2.226
52521W        W24781  26.542  12.670   3.617
52522W        W24782   4.171  15.128   4.164
52523W        W24783  16.192  19.077   4.582
52524W        W24784  40.115  17.195  12.692
52525W        W24785  24.578  18.455  11.994
52526W        W24786  14.359  26.414  14.324
52527W        W24787  10.136  28.437  14.047
52528W        W24788  19.569  20.772   0.594
52529W        W24789  43.540  35.118   0.026
52530W        W24790   2.698  37.787  11.935
52531W        W24791  19.168   8.207  14.809
52532W        W24792  29.938   2.495  12.012
52533W        W24793   0.788   8.431  10.471
52534W        W24794  34.385   8.610  14.759
52535W        W24795  39.303  10.445   2.189
52536W        W24796  22.547  29.230   3.649
52537W        W24797  17.695  24.930   0.443
52538W        W24798   3.822  14.244   3.720
52539W        W24799  38.843  10.252  10.954
52540W        W24800   3.760  25.117  14.011
52541W        W24801  26.294  32.980   3.231
52542W        W24802   0.574   7.823   0.010
52543W        W24803  36.911  13.701   3.466
52544W        W24804  32.023  24.831   3.184
52545W        W24805  11.325  35.306  11.087
52546W        W24806  20.527  15.760   4.633
52547W        W24807  38.832  25.368   2.793
52548W        W24808   6.703  35.775  10.405
52549W        W24809  26.031  27.461   3.443
52550W        W24810  38.363  26.850  14.890
52551W        W24811  12.773  30.661   4.111
52552W        W24812  37.787  22.940   3.663
52553W        W24813  32.804   8.398   1.844
52554W        W24814  24.504  17.648   0.896
52555W        W24815   6.794  20.956  11.006
52556W        W24816  39.752  24.155   2.177
52557W        W24817   1.289  30.451  14.913
52558W        W24818  22.887  39.365   4.851
52559W        W24819  38.025   6.950   4.608
52560W        W24820  26.134  37.712  14.197
52561W        W24821  15.488   3.065  11.765
52562W        W24822  42.944  27.003   3.659
52563W        W24823  26.054  37.427   4.266
52564W        W24824  17.865  15.149   0.928
52565W        W24825   6.141  38.453  14.368
52566W        W24826  10.167   0.219   1.858
52567W        W24827   6.638  35.287   4.198
52568W        W24828   6.875  19.159   3.329
52569W        W24829  24.119  44.393   1.280
52570W        W24830  39.521  17.311   4.148
52571W        W24831  12.102  22.659  13.533
52572W        W24832  19.980  15.600   4.737
52573W        W24833  27.196  31.081  14.883
52574W        W24834   3.840   3.705   3.343
52575W        W24835  33.413  22.621  13.445
52576W        W24836  25.125  33.669  11.955
52577W        W24837   3.188  22.006  11.389
52578W        W24838  40.022  36.005   3.231
52579W        W24839  29.090  20.309   4.336
52580W        W24840  33.497   2.354  13.940
52581W        W24841  43.880  10.181  12.797
52582W        W24842  29.413  17.740   2.761
52583W        W24843  17.637  22.665   0.815
52584W        W24844  26.744  37.051   1.824
52585W        W24845  14.877   9.303  13.550
52586W        W24846  16.249  42.312  14.007
52587W        W24847  40.736   4.980   0.252
52588W        W24848   3.676  26.333   4.324
52589W        W24849  38.018  30.910   5.346
52590W        W24850  38.763  23.106   0.012
52591W        W24851  17.644  16.402  11.392
52592W        W24852  11.612   0.378   0.036
52593W        W24853  37.955  43.839   1.018
52594W        W24854  43.343   2.741   0.554
52595W        W24855  37.537  42.003  12.494
52596W        W24856  37.742   4.369  10.966
52597W        W24857   6.295  24.756  12.969
52598W        W24858   3.033   9.198  11.987
52599W        W24859   4.431  12.893  13.025
52600W        W24860   1.299   5.141  11.427
52601W        W24861  36.396  14.874  14.509
52602W        W24862  12.675  14.301   3.777
52603W        W24863  26.475  32.167   1.922
52604W        W24864   6.761  24.679   2.365
52605W        W24865  44.157  37.802  13.378
52606W        W24866  32.329   8.717  11.576
52607W        W24867  30.944  22.502   0.609
52608W        W24868  41.718  15.564  14.745
52609W        W24869   9.106   6.902   3.729
52610W        W24870  28.450  16.879   4.183
52611W        W24871  40.349  43.379   3.630
52612W        W24872   1.757  29.061   4.330
52613W        W24873  25.166  27.779  12.535
52614W        W24874  13.078  26.081   1.971
52615W        W24875  31.573  13.118   1.660
52616W        W24876  25.817  41.854   1.150
52617W        W24877  27.838  43.887  11.593
52618W        W24878  41.794   8.353   1.918
52619W        W24879   1.889  21.026   4.183
52620W        W24880  30.861  14.336   0.360
52621W        W24881  34.378  36.815  11.166
52622W        W24882  27.978  31.215   1.308
52623W        W24883  14.212  33.994  12.977
52624W        W24884  18.038  13.322   3.766
52625W        W24885  17.763  29.105   4.734
52626W        W24886  36.991   7.305   4.519
52627W        W24887  43.608  20.871   1.913
52628W        W24888  35.476  35.663   0.350
52629W        W24889  32.875  40.336  13.830
52630W        W24890  25.758  25.771   1.623
52631W        W24891   9.911  24.695   3.676
52632W        W24892  11.492  37.525  11.634
52633W        W24893   9.422  24.217  10.964
52634W        W24894   9.295  28.084  12.035
52635W        W24895  14.788   9.804   3.794
52636W        W24896  32.684  15.401   2.806
52637W        W24897  20.700   0.912   2.301
52638W        W24898   3.723   4.388  12.173
52639W        W24899  29.592  19.688   2.650
52640W        W24900  36.494  30.499  11.455
52641W        W24901  39.440  11.876  12.886
52642W        W24902  24.333   6.332  11.672
52643W        W24903  26.171  18.604   3.238
52644W        W24904  12.657  11.128   2.194
52645W        W24905  12.741  35.027  11.520
52646W        W24906  32.474   5.857  11.086
52647W        W24907  26.342   8.259  12.419
52648W        W24908  17.299  14.758  11.440
52649W        W24909  13.798   2.037  13.550
52650W        W24910   6.819  13.199   3.770
52651W        W24911   5.720  12.770  14.015
52652W        W24912  34.872  23.181   1.374
52653W        W24913  18.405   6.617  14.811
52654W        W24914   2.935  10.128   4.190
52655W        W24915  40.123  26.121  14.405
52656W        W24916  41.055  38.354   0.403
52657W        W24917  24.631  23.217  10.687
52658W        W24918  35.439  21.894   2.282
52659W        W24919   2.179  20.216  11.096
52660W        W24920  12.171   4.664   3.893
52661W        W24921  40.939  14.836   5.011
52662W        W24922  12.136  30.121  10.915
52663W        W24923  11.646  40.059   2.111
52664W        W24924   0.357   0.072   1.222
52665W        W24925   9.328  16.493  13.947
52666W        W24926  36.174  10.419  11.060
52667W        W24927  35.503   1.014  12.557
52668W        W24928   3.565  44.022   2.741
52669W        W24929   2.369  20.727  10.929
52670W        W24930   1.435  12.270  14.520
52671W        W24931  20.867  38.954  12.437
52672W        W24932  29.847  31.651  14.939
52673W        W24933  27.461   6.992   1.376
52674W        W24934  43.363  13.188   3.200
52675W        W24935  41.385  28.370   2.642
52676W        W24936  33.752   5.237  12.438
52677W        W24937  26.908  10.560   2.789
52678W        W24938  35.432  33.972  13.850
52679W        W24939  38.669  37.001  13.776
52680W        W24940   5.180  34.628   2.813
52681W        W24941   6.922  16.170   1.001
52682W        W24942  43.049  28.014   1.524
52683W        W24943   0.298  15.564   4.658
52684W        W24944   2.775  13.881  11.944
52685W        W24945  33.514   5.778   2.811
52686W        W24946  23.583  10.635   0.324
52687W        W24947  26.426   6.773  14.535
52688W        W24948   8.831  17.311  11.976
52689W        W24949   6.374  33.176  11.379
52690W        W24950   4.398  30.655   0.918
52691W        W24951  18.957  15.571  12.513
52692W        W24952  44.903  34.954   3.648
52693W        W24953  38.910  11.985   4.589
52694W        W24954  12.554  35.436   4.093
52695W        W24955  39.378  40.867   0.287
52696W        W24956  36.854  14.869   2.047
52697W        W24957   9.864   5.933   3.869
52698W        W24958  36.070   2.116  11.947
52699W        W24959  20.067   5.002   1.242
52700W        W24960   0.419   7.198   1.261
52701W        W24961   3.868  20.736  13.113
52702W        W24962  40.105  38.396   1.498
52703W        W24963   5.218  11.682   4.613
52704W        W24964  38.914   5.309  12.338
52705W        W24965   7.158  41.292  13.758
52706W        W24966  43.530  10.611   1.395
52707W        W24967   0.222  33.467   3.727
52708W        W24968  27.070  38.298  12.911
52709W        W24969  11.077  14.677  13.389
52710W        W24970  37.632  29.490   0.363
52711W        W24971  14.590  17.225  14.797
52712W        W24972  21.713   3.019  12.166
52713W        W24973   8.699  32.944   4.544
52714W        W24974   2.849  43.229  12.466
52715W        W24975  10.799  40.102  10.775
52716W        W24976   1.006  29.022   4.703
52717W        W24977   3.616   0.583  10.327
52718W        W24978   0.999  20.694  10.770
52719W        W24979  29.385  39.081   4.165
52720W        W24980  38.784  43.818  14.486
52721W        W24981  14.132  19.260   1.332
52722W        W24982   1.832  38.471   2.600
52723W        W24983   5.302  33.096   1.241
52724W        W24984  35.289  31.784  12.573
52725W        W24985  43.147   5.744  13.905
52726W        W24986  32.966  19.547   1.048
52727W        W24987  39.811   5.856   0.419
52728W        W24988   8.977  26.507  14.336
52729W        W24989  31.381  31.524   9.698
52730W        W24990  17.131  14.168   1.357
52731W        W24991  29.614  44.599  12.563
52732W        W24992  24.016  31.206  13.578
52733W        W24993  43.810  41.095   2.794
52734W        W24994  13.039  24.140  12.072
52735W        W24995  11.806  33.041   3.621
52736W        W24996  43.190  23.061   4.188
52737W        W24997  21.429  14.690  13.097
52738W        W24998  14.267  37.477  13.505
52739W        W24999  20.832  17.093  11.154
52740W        W25000  16.302   1.533  12.049
52741W        W25001   8.273  29.902  12.467
52742W        W25002  31.619  22.179  10.542
52743W        W25003  23.191  20.319  12.027
52744W        W25004  22.858  43.217   0.499
52745W        W25005  19.479  44.733  14.923
52746W        W25006  39.122  25.052   2.356
52747W        W25007   2.154  21.102  12.426
52748W        W25008  20.449  18.393  12.390
52749W        W25009  26.417  10.801  12.386
52750W        W25010  36.401   9.532  11.036
52751W        W25011  22.768  15.391  14.361
52752W        W25012   0.782   4.877   1.024
52753W        W25013  14.625  21.737   2.355
52754W        W25014   7.436  11.138   0.409
52755W        W25015  14.671  16.155   4.307
52756W        W25016   3.437   3.680   2.598
52757W        W25017   9.121  40.938  10.547
52758W        W25018  42.274  33.010   0.097
52759W        W25019  25.890   5.692   0.170
52760W        W25020  36.837   7.657  13.046
52761W        W25021  34.621  43.440   3.364
52762W        W25022  38.234  29.352  13.924
52763W        W25023  14.174  30.420   4.613
52764W        W25024  21.182  24.922  13.134
52765W        W25025  41.967  44.705  10.569
52766W        W25026  12.797  19.515   4.458
52767W        W25027  33.041  28.641   3.996
52768W        W25028  38.012   8.255   3.860
52769W        W25029  32.925  34.564   0.193
52770W        W25030  31.458  11.014  11.574
52771W        W25031  21.596  19.551   4.544
52772W        W25032   9.875  35.371   1.201
52773W        W25033  16.791  10.121  10.603
52774W        W25034   0.406  26.197  13.779
52775W        W25035  17.526  40.038   2.115
52776W        W25036  16.791  21.333  13.296
52777W        W25037  20.673  20.412  14.057
52778W        W25038  28.281  27.738   3.984
52779W        W25039  17.968  13.523  12.424
52780W        W25040  28.890  33.642  11.124
52781W        W25041  34.096  34.910   1.427
52782W        W25042  29.877  42.812  13.818
52783W        W25043  44.976  42.658   0.696
52784W        W25044   7.769  21.618  10.587
52785W        W25045  41.473  29.654   4.582
52786W        W25046  44.976   2.960  13.342
52787W        W25047  35.660  10.569  12.381
52788W        W25048   2.962  43.220  11.273
52789W        W25049  23.439  23.931  12.733
52790W        W25050  36.063   9.648   4.667
52791W        W25051  27.788  11.693  12.602
52792W        W25052  33.111  24.965  14.957
52793W        W25053   8.908  37.009  14.673
52794W        W25054  39.894  11.195  14.430
52795W        W25055  13.185   3.004   2.254
52796W        W25056  36.808  34.682  13.833
52797W        W25057  10.612  39.322  14.408
52798W        W25058  30.660  38.124   2.191
52799W        W25059  21.599  19.549  10.716
52800W        W25060  20.664   5.238   4.898
52801W        W25061  25.906   2.257   4.407
52802W        W25062  18.628  38.013   0.296
52803W        W25063  10.429  15.808   1.680
52804W        W25064  14.306   6.117  12.092
52805W        W25065  11.204  23.073  11.637
52806W        W25066  11.660   1.243  11.206
52807W        W25067  10.858  30.391  14.964
52808W        W25068  10.378  14.238  10.741
52809W        W25069  21.850  31.186   2.418
52810W        W25070  18.684  22.619  14.780
52811W        W25071   2.729   5.287   2.229
52812W        W25072  31.520  22.077   4.594
52813W        W25073  29.643  25.768  11.570
52814W        W25074  40.304  17.191   1.247
52815W        W25075  31.057  37.990   1.869
52816W        W25076  35.870  33.641  13.971
52817W        W25077  36.303  34.496  11.989
52818W        W25078  19.114  19.985  13.469
52819W        W25079  38.350   8.717  12.003
52820W        W25080   4.879  44.429  12.980
52821W        W25081   7.398  21.988   0.553
52822W        W25082  43.915  10.888   2.590
52823W        W25083  26.243  44.633   5.072
52824W        W25084  33.100  37.503   0.466
52825W        W25085  17.676   5.768   3.138
52826W        W25086  18.994  36.042   0.330
52827W        W25087  39.441   3.230   3.754
52828W        W25088  12.796   1.993  13.276
52829W        W25089  35.568  15.187   3.611
52830W        W25090  31.832   9.297  12.032
52831W        W25091  14.126  27.816   2.137
52832W        W25092  37.863   5.712   4.313
52833W        W25093  36.096  19.994   4.140
52834W        W25094  35.090   3.806   1.514
52835W        W25095  15.250  14.993   4.766
52836W        W25096  25.227  15.731  12.889
52837W        W25097  20.768   5.962  12.447
52838W        W25098  44.929  27.460   0.855
52839W        W25099  29.331  34.443  11.206
52840W        W25100  34.911  44.787  10.113
52841W        W25101   0.412  33.902  14.886
52842W        W25102   3.915   1.243   2.246
52843W        W25103  15.087  15.683   2.208
52844W        W25104  18.733   3.216   4.582
52845W        W25105  40.429  10.119   4.618
52846W        W25106  21.723  12.627   4.807
52847W        W25107  18.683  44.314  14.771
52848W        W25108  43.935  23.681  14.320
52849W        W25109   9.840  38.219   0.509
52850W        W25110  22.283  27.134  14.438
52851W        W25111  23.028  24.258  12.603
52852W        W25112  16.188  36.550  14.040
52853W        W25113   3.166  41.563   4.711
52854W        W25114  26.407   0.240   1.078
52855W        W25115  27.591  44.498   1.236
52856W        W25116  16.468   1.240   0.231
52857W        W25117  13.289   4.440   2.217
52858W        W25118  20.508  43.320   3.275
52859W        W25119   3.276   7.278  13.963
52860W        W25120  12.393  30.573   3.383
52861W        W25121  39.873  23.657  11.907
52862W        W25122  22.674  24.605  13.099
52863W        W25123  11.285  14.640   0.302
52864W        W25124  20.409   5.183  11.600
52865W        W25125  22.575  22.259  14.913
52866W        W25126  41.007  22.386   4.110
52867W        W25127  36.771  33.059   4.852
52868W        W25128  15.252  25.957  11.570
52869W        W25129  41.431  41.392   3.706
52870W        W25130   7.952  25.486  12.554
52871W        W25131  44.230   4.139  11.623
52872W        W25132   8.284  29.020  10.941
52873W        W25133  44.827  33.913  10.413
52874W        W25134  35.026  35.278  11.053
52875W        W25135   2.471   0.204  11.014
52876W        W25136  12.318   1.943  12.935
52877W        W25137  10.591  41.062  10.786
52878W        W25138  41.202  44.821   2.608
52879W        W25139   3.499  23.071  10.458
52880W        W25140   0.318   6.487   3.816
52881W        W25141  10.703  18.365   2.785
52882W        W25142   5.830   0.977   3.673
52883W        W25143  22.520  35.758   0.234
52884W        W25144  11.794  34.585  12.935
52885W        W25145  12.168  12.927   4.271
52886W        W25146  42.909  30.126  10.507
52887W        W25147   2.539   6.651   1.232
52888W        W25148  22.635  42.539  12.962
52889W        W25149  41.844   8.260  12.384
52890W        W25150  34.418  22.088  12.047
52891W        W25151  35.562  27.500  11.305
52892W        W25152  30.933  43.451   4.816
52893W        W25153  23.148  30.439  10.725
52894W        W25154  16.259   4.671   4.615
52895W        W25155  25.507   1.214   3.332
52896W        W25156  10.675  33.667   2.189
52897W        W25157   0.666  31.401   4.957
52898W        W25158  30.521  20.502  13.883
52899W        W25159  32.615  14.438  14.839
52900W        W25160  44.501  32.182  13.681
52901W        W25161  24.135  18.102   0.387
52902W        W25162  30.093  34.621   3.279
52903W        W25163   5.648  31.638   3.201
52904W        W25164  29.416  33.775  12.031
52905W        W25165  43.020  38.284   0.360
52906W        W25166  41.406  21.991   4.014
52907W        W25167  22.758  33.348   0.830
52908W        W25168  20.656  19.652  11.446
52909W        W25169   6.169  29.058   1.899
52910W        W25170  18.455  14.772   4.557
52911W        W25171  25.269  31.706   1.319
52912W        W25172  30.638   8.397   4.781
52913W        W25173  29.927  22.613  13.908
52914W        W25174  15.455  34.422  11.140
52915W        W25175  19.057  33.020  12.473
52916W        W25176  38.379  30.908  12.984
52917W        W25177  32.966  29.610  13.551
52918W        W25178   0.334   1.834   2.913
52919W        W25179  25.554  12.757   3.220
52920W        W25180  15.014   7.133   2.948
52921W        W25181  35.019  10.508  12.903
52922W        W25182   0.903  33.909   4.138
52923W        W25183  43.220  38.093   4.226
52924W        W25184  35.334  42.923   0.416
52925W        W25185  22.214   6.202   2.362
52926W        W25186  40.455  31.375  10.706
52927W        W25187  35.812   4.829   2.023
52928W        W25188  26.858   1.410  13.133
52929W        W25189  18.675   1.893   1.089
52930W        W25190  41.666  26.549   2.270
52931W        W25191  30.588  24.673  13.195
52932W        W25192  16.035  29.901   3.233
52933W        W25193  22.791  12.168   4.901
52934W        W25194   8.392  40.588   3.846
52935W        W25195  39.667  40.048  11.382
52936W        W25196  31.032  38.749  11.551
52937W        W25197   2.657  31.641  12.860
52938W        W25198  37.331  34.530  13.970
52939W        W25199  43.887  35.060   3.748
52940W        W25200  23.306  31.451   1.396
52941W        W25201  21.269  17.486  13.071
52942W        W25202  27.449   9.244   1.357
52943W        W25203  26.011   0.500   0.856
52944W        W25204  23.240  39.113   4.550
52945W        W25205  32.067  20.959  12.569
52946W        W25206  41.761  15.355  13.377
52947W        W25207  15.735  24.551   4.209
52948W        W25208  24.190   2.296   0.992
52949W        W25209  32.990  38.037   3.238
52950W        W25210  42.960  37.473  14.949
52951W        W25211   2.386  21.588  13.361
52952W        W25212  40.871  13.968  13.605
52953W        W25213  36.457  36.891  12.162
52954W        W25214   8.957  16.914   4.066
52955W        W25215  19.537  39.497  10.712
52956W        W25216  36.874  29.142   1.292
52957W        W25217  15.517   3.140   3.366
52958W        W25218  31.674   3.159  11.952
52959W        W25219  42.315  36.201  14.207
52960W        W25220  39.449  37.539   0.891
52961W        W25221   0.947  19.262   1.658
52962W        W25222  38.530  42.623  11.057
52963W        W25223  24.066  33.092  12.599
52964W        W25224  13.347  12.660  10.828
52965W        W25225  33.048  41.715  11.479
52966W        W25226  14.471  39.314   1.346
52967W        W25227   8.577  24.159  10.892
52968W        W25228  38.310   3.623  10.653
52969W        W25229   9.342   9.752  13.818
52970W        W25230  28.213  34.320   2.268
52971W        W25231  34.050  30.985  13.629
52972W        W25232   5.176  14.253  13.468
52973W        W25233  24.233  40.454   1.496
52974W        W25234  39.175  31.588  11.130
52975W        W25235  11.539   8.847  12.047
52976W        W25236  15.950  29.658  13.389
52977W        W25237   3.878  12.835  14.890
52978W        W25238  25.542  42.955  10.131
52979W        W25239  33.941  13.749  13.764
52980W        W25240   2.778  38.516  12.110
52981W        W25241   3.995   3.737  11.046
52982W        W25242  18.757  20.487  11.064
52983W        W25243   5.750   7.948  14.688
52984W        W25244  40.939  44.012   4.164
52985W        W25245  13.356  13.781   3.693
52986W        W25246  15.425  29.326   2.946
52987W        W25247  21.592  13.887   0.398
52988W        W25248  21.904  44.036  11.193
52989W        W25249  23.159  14.150   0.478
52990W        W25250  24.959  41.479  11.209
52991W        W25251  11.747  20.329  13.901
52992W        W25252  18.896  30.528   0.970
52993W        W25253  10.479  28.715  14.346
52994W        W25254  30.054  24.602   0.110
52995W        W25255   3.733   8.437  10.440
52996W        W25256  15.895  20.218  12.579
52997W        W25257   0.280   6.895   1.788
52998W        W25258  21.711  29.644  11.987
52999W        W25259  17.382   5.970  12.887
53000W        W25260  12.730  28.673   1.287
53001W        W25261  29.617   0.723   1.879
53002W        W25262  15.743  25.678  14.514
53003W        W25263  41.766  31.616   1.476
53004W        W25264  21.714  37.130  11.382
53005W        W25265   7.380  36.134   0.416
53006W        W25266  24.185  26.033  10.746
53007W        W25267  31.468  39.444   2.473
53008W        W25268  17.098  16.225   0.378
53009W        W25269  36.957  39.971  14.359
53010W        W25270   6.894   2.611  11.098
53011W        W25271  31.434   8.655   2.712
53012W        W25272  27.561   9.883   3.374
53013W        W25273   7.801  34.565  14.802
53014W        W25274  14.857  23.116   3.159
53015W        W25275  26.933  39.399  11.109
53016W        W25276  20.110  13.633   4.724
53017W        W25277  13.740  36.770   0.799
53018W        W25278   2.797   4.021  11.531
53019W        W25279  12.566  31.193  13.012
53020W        W25280  43.237  15.171   3.836
53021W        W25281  14.204  28.549   0.242
53022W        W25282  21.263  27.770  10.212
53023W        W25283  32.932  41.394   0.831
53024W        W25284   2.940  35.039   2.286
53025W        W25285  15.474  16.247   0.359
53026W        W25286   7.654  42.922   4.008
53027W        W25287  17.767   4.493   3.765
53028W        W25288  33.511  12.400  13.047
53029W        W25289  16.291  34.189  14.391
53030W        W25290  43.035  26.751  13.934
53031W        W25291  12.279  23.994  12.683
53032W        W25292  21.696  37.523  10.619
53033W        W25293  15.679  12.071   1.735
53034W        W25294  27.975  43.996   2.751
53035W        W25295  15.826  14.232  12.041
53036W        W25296  36.586  37.881   2.778
53037W        W25297  12.368  28.062  13.551
53038W        W25298  23.522  19.484  12.946
53039W        W25299  16.984  26.507   0.892
53040W        W25300  25.935   9.673   0.985
53041W        W25301  24.740  24.439  14.438
53042W        W25302  44.059  30.329   4.039
53043W        W25303  13.608  21.169  13.046
53044W        W25304  15.849  39.432  14.554
53045W        W25305   6.286  38.436   4.247
53046W        W25306  26.011  37.809   2.735
53047W        W25307  23.135  21.830  14.992
53048W        W25308  29.957  39.623  13.540
53049W        W25309  11.256   5.690   4.346
53050W        W25310  31.924  26.918  12.995
53051W        W25311  37.407  29.162  10.433
53052W        W25312  29.047  41.273  13.909
53053W        W25313  30.343  15.682   3.302
53054W        W25314  17.628  24.659   0.927
53055W        W25315  34.136  28.198   2.313
53056W        W25316  12.841  40.807   2.725
53057W        W25317  23.545  32.334  11.696
53058W        W25318  10.334  37.403  13.944
53059W        W25319   6.832   4.105   4.594
53060W        W25320  42.775  24.188  11.763
53061W        W25321  38.365  21.560   0.987
53062W        W25322  42.976  34.517  12.709
53063W        W25323  18.261  20.211   0.683
53064W        W25324  40.710  18.638  12.032
53065W        W25325   4.202   3.223   4.614
53066W        W25326   6.400  37.310  13.160
53067W        W25327  37.172   3.144  11.192
53068W        W25328  11.841  30.430   2.325
53069W        W25329  18.002  29.102   3.414
53070W        W25330   5.306  29.739  10.789
53071W        W25331  18.600   9.582  13.246
53072W        W25332  19.159  44.994  12.153
53073W        W25333  28.201  23.447   1.831
53074W        W25334   8.657  14.328   0.396
53075W        W25335  25.119   0.721  10.601
53076W        W25336  29.433  29.917  12.401
53077W        W25337  27.480  18.913   4.456
53078W        W25338  12.146   0.498   0.212
53079W        W25339  37.053  17.297   1.753
53080W        W25340  36.333  29.248   1.304
53081W        W25341  36.417  36.071   4.155
53082W        W25342   9.906  13.185  12.421
53083W        W25343   7.164  23.957  10.793
53084W        W25344  42.170  21.553  11.469
53085W        W25345  18.805  38.172   0.766
53086W        W25346   8.861  30.254   4.563
53087W        W25347  19.482  15.681   4.930
53088W        W25348  11.655  13.621   1.926
53089W        W25349  34.393  17.114  12.224
53090W        W25350  39.921  30.683   3.399
53091W        W25351  25.518  17.101   0.492
53092W        W25352  12.991  13.384  14.344
53093W        W25353  20.057  23.229  14.330
53094W        W25354  39.931  33.502   1.512
53095W        W25355  18.733   1.887  14.784
53096W        W25356   6.541  29.848  13.258
53097W        W25357  38.978   7.760  12.149
53098W        W25358  44.408  41.399  14.072
53099W        W25359  18.731   9.879   3.745
53100W        W25360  19.297  20.651  14.950
53101W        W25361  18.253  10.773  13.324
53102W        W25362  17.815  26.705  12.593
53103W        W25363  30.000  16.790   0.371
53104W        W25364  27.782  29.375  13.596
53105W        W25365   5.189  19.980   4.015
53106W        W25366  19.043   1.050  10.718
53107W        W25367   1.266  11.943   0.457
53108W        W25368  22.022  42.552   3.367
53109W        W25369   7.677  14.903   0.810
53110W        W25370   5.190   5.826  11.612
53111W        W25371   5.946  34.365   3.929
53112W        W25372  29.687  30.893  12.610
53113W        W25373   2.214  25.153   1.784
53114W        W25374  10.630  43.458  10.764
53115W        W25375  41.892  10.449  14.968
53116W        W25376  21.119  13.160  10.562
53117W        W25377  20.131  25.069  13.505
53118W        W25378  36.408   7.489  13.883
53119W        W25379   0.624  31.978  14.205
53120W        W25380  26.497  17.211  10.433
53121W        W25381   6.332  40.487  14.030
53122W        W25382  43.811   0.046  13.390
53123W        W25383  12.661  26.642  14.507
53124W        W25384  39.627  15.849  11.159
53125W        W25385  33.750  10.070   1.826
53126W        W25386  13.809  26.426   3.207
53127W        W25387  15.211  40.011   3.620
53128W        W25388  36.876  12.840  12.613
53129W        W25389  10.268  20.522  13.999
53130W        W25390  17.065  32.307  12.048
53131W        W25391   0.482  27.287   2.386
53132W        W25392  43.615  28.800   0.771
53133W        W25393   5.286  28.019  12.870
53134W        W25394  19.647  21.271  11.339
53135W        W25395  23.958  43.998  11.485
53136W        W25396  32.340   9.000   5.046
53137W        W25397  44.449   3.899  12.086
53138W        W25398  27.060  38.039   0.903
53139W        W25399  44.862  42.490  13.525
53140W        W25400  32.419  44.385   4.292
53141W        W25401  36.630  42.482  13.417
53142W        W25402  19.510  42.755   0.013
53143W        W25403  14.710  19.240   4.102
53144W        W25404  32.316  36.113   2.300
53145W        W25405  17.296   0.403   3.938
53146W        W25406  40.813  18.085   1.381
53147W        W25407  29.892  11.848  14.889
53148W        W25408  21.507  37.632  11.161
53149W        W25409  30.166  25.723  10.724
53150W        W25410  30.410  13.399  14.496
53151W        W25411  41.469  39.520  12.579
53152W        W25412   3.085   0.458   4.063
53153W        W25413  32.040  44.927  14.502
53154W        W25414  39.476  28.241   3.445
53155W        W25415  16.899  23.965   4.215
53156W        W25416  11.864  18.828  11.654
53157W        W25417   3.977  30.135   3.694
53158W        W25418   6.255  27.015  10.749
53159W        W25419  12.812  34.283   1.960
53160W        W25420  26.950  35.414  12.098
53161W        W25421  26.706  18.254   0.288
53162W        W25422   5.392  12.166  11.803
53163W        W25423  38.323  34.655   3.281
53164W        W25424  34.589  32.416  13.538
53165W        W25425  25.572   5.383  13.839
53166W        W25426  24.133   1.063   0.044
53167W        W25427   2.837  35.968   0.310
53168W        W25428  34.975  28.904   1.428
53169W        W25429   9.874  17.974  13.527
53170W        W25430  33.984  18.283  12.612
53171W        W25431  28.600  35.248   1.592
53172W        W25432  37.258  25.637  13.856
53173W        W25433  24.177  33.036  11.261
53174W        W25434   3.229  18.820  12.039
53175W        W25435  21.423  34.039  13.387
53176W        W25436  41.346  21.122  13.118
53177W        W25437   0.944  35.039   2.085
53178W        W25438  29.529  27.005  12.891
53179W        W25439  14.157  17.532   0.489
53180W        W25440  10.722  10.875   0.304
53181W        W25441  38.779  13.815  12.640
53182W        W25442  14.051  28.461  13.725
53183W        W25443  40.798  12.545  13.558
53184W        W25444   4.458  19.337   3.767
53185W        W25445  27.597  13.222   2.157
53186W        W25446  38.858  32.489   1.051
53187W        W25447   9.675  44.912  12.403
53188W        W25448  26.247  35.926  13.953
53189W        W25449  29.068  41.321   4.562
53190W        W25450  39.406   8.311   0.520
53191W        W25451  35.638  33.999  12.962
53192W        W25452  31.913  16.724  13.951
53193W        W25453  20.773  12.550  12.827
53194W        W25454  34.915  32.475   1.717
53195W        W25455  10.360  10.551  13.458
53196W        W25456  28.221   4.507  14.970
53197W        W25457   1.177   5.505  11.105
53198W        W25458  10.635  37.992  14.043
53199W        W25459   2.544  12.408  14.847
53200W        W25460  38.080  39.324  10.781
53201W        W25461  27.668  23.064  13.852
53202W        W25462  12.163  23.150  10.665
53203W        W25463  39.387  34.117  12.633
53204W        W25464  41.515   5.900  14.943
53205W        W25465  36.237   6.876   1.232
53206W        W25466   5.751  27.419   0.806
53207W        W25467  35.909   3.198  13.803
53208W        W25468  38.632   1.258  13.666
53209W        W25469  18.672  25.997   4.286
53210W        W25470  18.290  39.992   1.702
53211W        W25471  35.601   5.819  12.356
53212W        W25472  23.110  29.928  11.560
53213W        W25473   9.442   6.444  12.098
53214W        W25474  39.884  42.414   1.787
53215W        W25475  41.789   0.159   5.074
53216W        W25476   7.965  20.694   2.287
53217W        W25477  36.029  40.306   2.425
53218W        W25478  22.599  40.721   3.216
53219W        W25479  27.534  26.038   4.600
53220W        W25480  27.625  16.435   1.695
53221W        W25481  22.229   2.196   3.320
53222W        W25482  41.517  11.633  12.813
53223W        W25483  17.800   6.666   1.806
53224W        W25484  40.820  24.109   0.408
53225W        W25485  31.913   0.894  11.858
53226W        W25486   7.636   9.772  10.766
53227W        W25487  33.539   0.293  12.078
53228W        W25488   5.929  35.394  14.790
53229W        W25489  33.871  14.028   1.725
53230W        W25490  26.683   6.852   0.923
53231W        W25491   5.011  14.741  13.425
53232W        W25492  34.841   1.804   0.454
53233W        W25493  10.871  43.313   0.285
53234W        W25494  26.006  10.844   3.250
53235W        W25495  43.812  33.333  12.602
53236W        W25496  41.559  30.048  12.544
53237W        W25497  30.576  33.670   4.698
53238W        W25498  30.437  24.251  12.881
53239W        W25499  19.593  19.788  11.646
53240W        W25500   2.635  35.016  10.766
53241W        W25501  19.360  10.077  11.597
53242W        W25502   8.974  25.470  12.561
53243W        W25503   9.348   4.536  13.438
53244W        W25504   3.555  19.247   2.308
53245W        W25505  23.809  11.821  14.509
53246W        W25506  42.827  11.268  13.030
53247W        W25507  19.694   3.175   4.264
53248W        W25508  27.955  23.522  10.701
53249W        W25509   6.555  25.189   0.778
53250W        W25510  43.941   6.911  13.440
53251W        W25511  15.036  27.626  13.136
53252W        W25512  35.452  25.971   4.644
53253W        W25513  37.914  38.433  11.576
53254W        W25514  16.014  32.895  11.214
53255W        W25515  35.037  20.160  14.699
53256W        W25516  19.562  27.651  11.128
53257W        W25517  29.256  29.481   9.828
53258W        W25518  22.484   5.540  13.679
53259W        W25519  44.427  24.709  14.503
53260W        W25520  32.444  23.042  14.048
53261W        W25521  24.525   9.119   2.698
53262W        W25522  20.748  34.558  11.010
53263W        W25523  22.127  10.191   2.577
53264W        W25524   3.175   4.937   3.214
53265W        W25525  19.954  32.895  11.494
53266W        W25526  34.967  25.446   2.117
53267W        W25527  39.929  34.153  11.922
53268W        W25528  40.445  36.520   4.769
53269W        W25529  39.964  18.034   3.256
53270W        W25530  31.946  36.042  12.378
53271W        W25531  10.347  16.984   4.252
53272W        W25532  40.319  23.043  13.109
53273W        W25533   5.417   0.875  14.897
53274W        W25534  15.803  21.231  12.429
53275W        W25535  14.332   2.462  12.685
53276W        W25536  44.123  26.114  12.034
53277W        W25537  39.874  41.342   4.660
53278W        W25538   1.390   7.831  11.568
53279W        W25539  23.945   4.489   0.296
53280W        W25540  22.979  11.377  11.687
53281W        W25541  23.894  34.526  13.850
53282W        W25542  19.369  20.062  10.586
53283W        W25543   6.442  28.650  11.512
53284W        W25544  18.242   8.816  12.425
53285W        W25545  23.221  43.958  13.873
53286W        W25546   1.239   5.258  14.601
53287W        W25547  22.511  11.638  14.757
53288W        W25548  14.093  30.965  13.276
53289W        W25549  42.043  37.159  13.535
53290W        W25550   4.702  18.303   0.865
53291W        W25551  30.092  39.590   3.640
53292W        W25552  18.476  12.246  11.538
53293W        W25553  39.273   8.628  12.189
53294W        W25554  37.471  40.616   5.057
53295W        W25555  30.956  39.908  10.928
53296W        W25556  28.860   7.843  10.681
53297W        W25557  30.053   1.092   2.658
53298W        W25558  28.489  43.876  10.737
53299W        W25559   4.753  33.502  14.436
53300W        W25560   7.710  29.043   3.737
53301W        W25561  34.921  24.679  11.138
53302W        W25562  16.327   9.856  10.718
53303W        W25563  24.199  31.594   4.609
53304W        W25564  19.286  38.910  10.632
53305W        W25565  34.026   3.218   4.750
53306W        W25566  31.615  29.909  12.770
53307W        W25567  12.598  42.326  13.973
53308W        W25568  25.765  17.028  14.199
53309W        W25569  29.694  19.273   4.802
53310W        W25570  28.613  20.184   0.407
53311W        W25571  10.721   0.246   4.929
53312W        W25572  42.273  22.746   4.534
53313W        W25573  11.221   8.268  11.537
53314W        W25574   0.556   4.602  11.170
53315W        W25575  43.677  12.782  11.212
53316W        W25576  28.669  10.796  10.876
53317W        W25577  43.379  19.166  11.758
53318W        W25578  38.023   2.703   3.680
53319W        W25579  10.861  33.253   2.453
53320W        W25580  25.178  21.747  12.410
53321W        W25581   8.164  33.464  11.165
53322W        W25582  43.931  44.037   4.678
53323W        W25583   8.639  36.022  12.839
53324W        W25584  42.137  15.680   0.282
53325W        W25585   4.172  37.850  13.476
53326W        W25586  42.494  20.042   4.845
53327W        W25587  37.096  10.385   0.867
53328W        W25588  26.678  42.249  12.866
53329W        W25589   0.350  21.397   1.189
53330W        W25590  43.928  26.845  11.096
53331W        W25591  44.762  43.543   3.243
53332W        W25592  22.959  11.678   4.613
53333W        W25593   0.381   6.542  13.364
53334W        W25594  21.391  35.943  14.355
53335W        W25595  31.446   7.793  10.915
53336W        W25596   6.592  17.014   1.237
53337W        W25597  32.555  17.535   1.714
53338W        W25598  22.023   7.937   0.660
53339W        W25599  29.401   7.792  11.519
53340W        W25600  18.747  14.146   4.992
53341W        W25601  25.724  30.525   4.561
53342W        W25602   4.278   3.208  10.819
53343W        W25603  40.172  30.025   1.453
53344W        W25604   0.924  33.753  14.901
53345W        W25605  43.043  29.622  14.333
53346W        W25606  13.022   1.020  10.631
53347W        W25607   2.265  14.650   1.309
53348W        W25608  25.050  23.075   3.840
53349W        W25609   3.671  14.182  11.713
53350W        W25610  12.822  17.541   0.803
53351W        W25611  20.173  10.929  12.579
53352W        W25612   0.321   5.960   4.684
53353W        W25613   4.445  44.357   0.287
53354W        W25614  36.484   8.150  10.700
53355W        W25615   3.016  19.133   4.084
53356W        W25616  23.117   4.076  11.115
53357W        W25617  43.565  25.535  12.383
53358W        W25618  20.681   7.595  11.440
53359W        W25619  15.031  12.902   3.688
53360W        W25620  11.860   1.797   0.444
53361W        W25621  40.972  29.677   2.968
53362W        W25622   4.840  19.239  10.934
53363W        W25623  24.774  42.277   1.429
53364W        W25624  38.396  40.501  11.109
53365W        W25625  40.249  12.585  13.488
53366W        W25626   5.011  34.878   1.607
53367W        W25627  12.207   1.135   4.004
53368W        W25628   3.816  40.233  11.327
53369W        W25629  21.671  36.378   1.166
53370W        W25630  35.034   6.411  11.190
53371W        W25631  38.710  15.575   1.356
53372W        W25632  28.077  12.530  10.773
53373W        W25633  22.693   8.395  13.367
53374W        W25634   3.378  35.034   0.509
53375W        W25635  19.243   2.820  11.127
53376W        W25636  20.162  23.189   4.617
53377W        W25637  44.003   0.442   4.548
53378W        W25638  31.961  36.548  11.039
53379W        W25639   7.734  39.472   4.077
53380W        W25640   9.106  25.012   1.925
53381W        W25641  13.190  30.484   1.202
53382W        W25642   4.425   2.335   3.667
53383W        W25643  39.596  41.011   3.460
53384W        W25644  28.110  27.388  11.601
53385W        W25645  32.214   0.241   3.233
53386W        W25646  13.260  43.888  11.681
53387W        W25647   2.385   4.309  13.945
53388W        W25648  11.908  19.331   4.548
53389W        W25649   3.404   0.851   4.833
53390W        W25650  39.505  16.053   2.866
53391W        W25651   9.046  27.628   1.053
53392W        W25652  43.777  44.969   4.517
53393W        W25653  34.983   9.637   2.411
53394W        W25654  22.730  25.756   1.380
53395W        W25655  44.092  42.817  12.430
53396W        W25656   1.907  31.801   0.556
53397W        W25657  33.676  44.919   3.175
53398W        W25658  26.726   3.488  12.397
53399W        W25659   0.194  43.628  11.361
53400W        W25660  36.361  27.183   1.440
53401W        W25661  43.058  34.059  11.922
53402W        W25662  29.529  12.138  14.615
53403W        W25663  26.902  43.283  13.462
53404W        W25664  24.726  21.090  10.697
53405W        W25665  41.263  15.214   1.704
53406W        W25666  35.067  28.610   4.396
53407W        W25667  38.511   5.432  14.527
53408W        W25668   7.895  37.141  10.837
53409W        W25669  15.768  36.857   2.332
53410W        W25670  14.570  14.498  10.347
53411W        W25671   9.340  11.121  13.338
53412W        W25672  31.116  13.388   0.431
53413W        W25673  17.592  31.342   4.746
53414W        W25674  27.773  35.332   0.421
53415W        W25675   6.624  17.783  14.020
53416W        W25676  16.141  23.246   3.152
53417W        W25677  19.116   3.442   1.338
53418W        W25678  19.790  30.528   2.290
53419W        W25679  36.987  32.412  12.535
53420W        W25680  40.424  18.834  10.590
53421W        W25681  41.267  22.225  12.309
53422W        W25682  14.097  37.974  13.545
53423W        W25683  34.006  43.778  10.653
53424W        W25684  31.713   9.877  10.649
53425W        W25685  28.658  24.040  14.418
53426W        W25686  10.737   9.591   1.777
53427W        W25687   8.148  43.313   1.453
53428W        W25688  37.034   7.192   3.632
53429W        W25689   7.797   4.958   0.636
53430W        W25690   5.356  30.694  10.439
53431W        W25691   5.909   6.675  14.507
53432W        W25692  11.324  13.239   4.275
53433W        W25693   0.825  10.537  14.524
53434W        W25694  37.542  38.184  12.582
53435W        W25695  26.863  19.056  10.545
53436W        W25696  30.023  13.897   2.779
53437W        W25697  12.097  34.123  14.879
53438W        W25698   6.969   3.149   3.983
53439W        W25699   9.676   4.963  10.716
53440W        W25700   2.264   1.512   3.018
53441W        W25701  19.803  44.402   0.945
53442W        W25702  15.969  19.871   0.145
53443W        W25703   1.751  14.563   0.790
53444W        W25704  33.868   3.434   1.420
53445W        W25705   3.839   5.982   2.742
53446W        W25706  36.612  42.002   2.083
53447W        W25707  41.419  13.322  14.561
53448W        W25708  41.485   0.453   4.337
53449W        W25709  25.127  25.751   4.127
53450W        W25710  17.980  24.407  12.953
53451W        W25711  13.310  21.958  14.503
53452W        W25712  29.867  39.113   0.890
53453W        W25713  43.087  20.176   2.053
53454W        W25714   7.481  32.092   2.188
53455W        W25715  17.048  37.540  11.481
53456W        W25716  21.374  41.302   5.052
53457W        W25717   9.910   5.925   0.793
53458W        W25718  41.242   3.642  14.992
53459W        W25719  12.846  36.295   3.243
53460W        W25720  34.528   9.358  14.033
53461W        W25721  13.107  16.071  10.802
53462W        W25722  20.211  33.600  11.151
53463W        W25723  26.472  20.751   3.223
53464W        W25724  14.394  41.290  14.292
53465W        W25725  38.299  34.096  13.531
53466W        W25726  15.600  36.840   4.174
53467W        W25727  28.769  21.658  14.523
53468W        W25728  17.129  29.057  14.652
53469W        W25729   5.040  16.285   3.736
53470W        W25730  30.438  44.781   2.760
53471W        W25731   8.704   0.356  12.822
53472W        W25732  19.986  22.184   2.303
53473W        W25733  21.936  12.661  12.404
53474W        W25734  19.312  27.755  12.636
53475W        W25735  26.122  44.088   2.938
53476W        W25736  25.950  14.336   2.740
53477W        W25737  27.787  24.105   1.853
53478W        W25738  22.892  22.548  13.214
53479W        W25739  17.135  25.033  12.981
53480W        W25740  21.079   7.478   4.224
53481W        W25741   9.124  34.990  11.962
53482W        W25742  18.203  26.233  13.198
53483W        W25743  25.846  33.115   3.448
53484W        W25744  39.166  33.014  14.787
53485W        W25745  26.547  16.297   4.542
53486W        W25746  14.146  33.005   0.740
53487W        W25747  36.304  42.524  12.142
53488W        W25748  13.885  44.580  13.940
53489W        W25749   9.321  28.853  13.807
53490W        W25750   6.849   5.168  14.432
53491W        W25751   3.325  18.448   3.347
53492W        W25752  37.983  24.542  13.863
53493W        W25753  12.262   8.798  12.370
53494W        W25754  26.644   3.845   0.795
53495W        W25755  12.246  11.754   0.264
53496W        W25756   6.670   6.593   3.642
53497W        W25757  22.737   7.929  14.446
53498W        W25758  14.311   4.465   0.219
53499W        W25759  27.890   7.159  11.581
53500W        W25760  16.199   6.790   2.666
53501W        W25761  34.869   2.425  11.059
53502W        W25762  18.612   5.745  11.776
53503W        W25763  35.528  18.003   1.366
53504W        W25764  38.431  27.773   0.397
53505W        W25765   1.321   8.707   4.470
53506W        W25766  11.404  31.603  10.580
53507W        W25767  10.819   1.235   4.064
53508W        W25768  14.941   5.736  12.405
53509W        W25769  37.406   1.929  10.611
53510W        W25770  12.448   8.440   2.918
53511W        W25771  34.014   1.067   1.182
53512W        W25772  16.281  22.517  13.210
53513W        W25773  24.159  25.918   2.630
53514W        W25774  20.116  39.434   3.566
53515W        W25775   7.350  13.721  12.938
53516W        W25776  24.629  24.952  14.426
53517W        W25777   0.439  42.691  10.739
53518W        W25778  24.053  29.152  12.862
53519W        W25779  18.730  19.192   1.902
53520W        W25780   1.369   2.287   1.060
53521W        W25781  36.317  30.006   4.092
53522W        W25782  43.965  17.253  14.225
53523W        W25783  17.119  26.354  14.194
53524W        W25784  21.043  26.055   4.062
53525W        W25785  18.316  44.411  10.486
53526W        W25786   5.939  16.239   4.678
53527W        W25787  41.041  40.317   2.258
53528W        W25788  25.429  13.664   2.287
53529W        W25789  35.133   6.981   4.664
53530W        W25790  39.580  15.055   1.373
53531W        W25791  18.489  13.820  13.063
53532W        W25792  34.846  10.233  12.468
53533W        W25793  18.842   4.428   4.157
53534W        W25794  25.515  28.331   5.256
53535W        W25795  21.832  29.611   2.228
53536W        W25796  36.069   9.648   1.764
53537W        W25797  35.669   8.804  12.414
53538W        W25798  37.822   5.717  14.528
53539W        W25799  24.504  30.138  12.038
53540W        W25800   5.964   8.247   3.840
53541W        W25801  12.284  44.925  11.630
53542W        W25802  35.868  15.562   3.420
53543W        W25803  15.898  26.990  11.997
53544W        W25804  22.306   4.829  13.619
53545W        W25805  28.043   6.761   0.816
53546W        W25806  36.529  31.884   0.384
53547W        W25807   9.180   9.234  10.576
53548W        W25808  21.849   0.435  11.411
53549W        W25809  12.399  35.514  14.979
53550W        W25810  38.352  15.872  11.160
53551W        W25811  39.896  33.978  13.305
53552W        W25812  32.634  41.456   3.295
53553W        W25813  43.446  11.109   3.121
53554W        W25814  11.262  19.191   2.790
53555W        W25815  11.153  33.579  11.352
53556W        W25816   6.352   3.288   3.353
53557W        W25817  14.750   0.410   3.089
53558W        W25818  31.960  19.380   4.093
53559W        W25819   3.896   5.236   0.447
53560W        W25820   2.190  14.166   9.797
53561W        W25821  10.585  25.678   1.367
53562W        W25822  11.605  18.677   5.234
53563W        W25823  12.163  32.112   4.883
53564W        W25824   5.580  27.352  13.364
53565W        W25825  42.937  29.272  11.552
53566W        W25826  35.537   5.057   3.633
53567W        W25827  25.562  23.134   9.760
53568W        W25828  11.909   0.827  13.910
53569W        W25829  19.594  20.694  14.519
53570W        W25830  16.204  22.680   3.721
53571W        W25831  17.227  26.286  13.650
53572W        W25832  41.913   3.241   1.417
53573W        W25833  42.904   6.329   2.325
53574W        W25834  44.698  28.234  14.243
53575W        W25835  10.378  43.986  11.646
53576W        W25836   8.022   2.918   0.245
53577W        W25837   4.316  23.241   4.549
53578W        W25838  23.830  34.646  14.381
53579W        W25839  21.626   5.642   0.475
53580W        W25840  22.699  40.333   2.668
53581W        W25841  26.280  37.327  11.526
53582W        W25842  29.184  12.415  13.309
53583W        W25843  34.344  34.608   0.549
53584W        W25844  29.143  31.691  12.922
53585W        W25845   9.865  28.451  11.913
53586W        W25846  42.080  43.498   3.242
53587W        W25847  44.784   5.530   2.653
53588W        W25848  21.563  10.699   3.734
53589W        W25849   3.943   3.862   4.646
53590W        W25850   7.180  37.100   1.502
53591W        W25851  13.881  17.078   1.931
53592W        W25852   9.508  20.200  14.352
53593W        W25853  20.274  22.243   2.752
53594W        W25854  18.448   3.516  14.151
53595W        W25855  39.354  21.589   0.932
53596W        W25856  21.289  32.056   5.091
53597W        W25857  10.675   0.188   1.855
53598W        W25858  19.337  34.464   1.656
53599W        W25859  36.996  22.124   3.625
53600W        W25860  33.121  27.464   3.623
53601W        W25861  10.141  25.682   4.422
53602W        W25862   1.095  41.452   0.207
53603W        W25863  44.722  26.579  11.514
53604W        W25864  30.668  12.721   3.923
53605W        W25865  37.274  33.815  13.400
53606W        W25866  20.678  25.582  11.629
53607W        W25867  25.544  44.872   0.180
53608W        W25868   9.403   1.526   3.053
53609W        W25869  38.617   2.431  12.117
53610W        W25870   8.799  27.738  13.808
53611W        W25871  22.748  16.015  10.319
53612W        W25872   4.351  24.298  13.883
53613W        W25873   7.841  11.084  10.602
53614W        W25874  23.954  19.065  14.841
53615W        W25875   0.721  37.907   4.300
53616W        W25876  25.354   9.285  10.694
53617W        W25877   8.411  11.252  13.873
53618W        W25878  29.590  26.512  13.260
53619W        W25879   2.784   0.032   3.881
53620W        W25880  35.350  23.635  12.629
53621W        W25881  37.437  37.252   5.136
53622W        W25882  16.241  42.347  12.855
53623W        W25883  33.461  19.652   1.309
53624W        W25884  44.458  20.771   0.953
53625W        W25885  39.360   7.901   1.530
53626W        W25886  35.034  30.346  14.946
53627W        W25887  25.421  31.430  11.850
53628W        W25888   1.882  15.889   0.401
53629W        W25889  42.247  20.116  12.872
53630W        W25890  24.619  11.791  13.672
53631W        W25891  15.576   6.453  13.938
53632W        W25892   2.322  13.170   3.251
53633W        W25893  14.468  40.317  14.909
53634W        W25894   0.244  14.739   2.436
53635W        W25895  18.471  39.036  13.511
53636W        W25896  18.104  22.737   2.339
53637W        W25897  14.561  10.453   0.327
53638W        W25898  10.364  34.107   3.314
53639W        W25899   2.276  26.980   1.837
53640W        W25900  16.663  35.665   1.863
53641W        W25901  31.466  10.739   0.372
53642W        W25902  21.720  41.527   1.832
53643W        W25903  15.773  23.250  11.448
53644W        W25904  15.020  31.897   2.160
53645W        W25905  15.741   4.262  11.421
53646W        W25906  31.190  28.886   4.289
53647W        W25907  25.941  37.395  10.551
53648W        W25908  42.783  27.539   3.249
53649W        W25909  41.891  44.383   3.116
53650W        W25910  34.461  30.431  13.306
53651W        W25911  33.361  28.635  14.426
53652W        W25912  28.430   0.447   1.487
53653W        W25913  16.793  27.920  14.707
53654W        W25914  33.106   0.221  10.719
53655W        W25915  10.123  27.573  11.901
53656W        W25916  38.269  13.839   1.826
53657W        W25917  23.559   4.740  12.846
53658W        W25918   4.349  21.432  10.394
53659W        W25919  36.957   2.748   4.075
53660W        W25920  35.322   4.746   3.969
53661W        W25921  43.896   4.406  11.913
53662W        W25922  24.383  28.049   9.489
53663W        W25923   6.695  30.818  13.422
53664W        W25924   3.538  11.502   5.108
53665W        W25925  19.598  22.216  13.569
53666W        W25926  43.656   3.828   1.871
53667W        W25927  38.100   8.355  11.696
53668W        W25928  34.583  16.560   3.953
53669W        W25929  38.543  40.256  10.661
53670W        W25930  25.223  40.382   1.892
53671W        W25931  33.852  38.866  14.312
53672W        W25932   2.919  12.860  14.397
53673W        W25933  30.024  20.838  12.448
53674W        W25934  40.825  40.778  14.839
53675W        W25935  38.936  42.858   1.951
53676W        W25936  23.446  30.862  14.384
53677W        W25937  26.603  37.523   2.486
53678W        W25938  20.644  26.489  14.098
53679W        W25939  32.400  13.352   0.407
53680W        W25940  20.058  44.505   5.111
53681W        W25941   3.713  29.089  12.855
53682W        W25942  27.215  39.593   4.605
53683W        W25943  39.877  38.667   3.757
53684W        W25944  29.500   8.630   3.740
53685W        W25945  28.135  19.583  14.000
53686W        W25946  32.198  19.882  11.133
53687W        W25947  16.812  33.518  11.168
53688W        W25948  25.227  28.979   3.526
53689W        W25949   4.356  40.975   2.716
53690W        W25950  16.136  17.559   4.586
53691W        W25951   6.466  35.669   3.495
53692W        W25952  19.186  27.066  12.173
53693W        W25953  31.178   1.230   1.130
53694W        W25954   8.737   5.151   0.032
53695W        W25955  36.041  42.448  11.224
53696W        W25956  20.508  43.344  14.529
53697W        W25957  21.188   3.065  11.619
53698W        W25958   9.845  36.002   4.917
53699W        W25959   9.955   0.286   3.380
53700W        W25960  35.153  31.325   1.943
53701W        W25961  13.728  27.965  12.911
53702W        W25962  21.680  39.419  10.872
53703W        W25963  15.595   6.658   4.588
53704W        W25964  20.645  37.402  14.032
53705W        W25965  22.930  27.353   0.464
53706W        W25966  24.540   2.878  12.447
53707W        W25967  25.186   3.269   3.474
53708W        W25968   3.374  33.941   1.882
53709W        W25969  34.481  10.214   0.192
53710W        W25970  32.834  22.236  14.941
53711W        W25971   8.611  41.359  11.932
53712W        W25972  38.897  22.100  11.491
53713W        W25973  19.037  16.054   0.228
53714W        W25974  31.446  21.935   3.232
53715W        W25975  37.072  26.542  13.087
53716W        W25976  38.930  10.201  10.090
53717W        W25977  18.013  28.380   1.797
53718W        W25978  31.539  17.055  11.709
53719W        W25979   6.265  15.431  13.320
53720W        W25980  41.818  17.568  13.547
53721W        W25981  10.782  19.686  11.711
53722W        W25982   9.012  14.606   4.970
53723W        W25983  19.363  20.782   2.345
53724W        W25984  40.098  16.566  14.317
53725W        W25985   4.691  44.652  10.353
53726W        W25986  26.607   0.806   1.857
53727W        W25987  18.525  21.268  12.531
53728W        W25988  16.178  29.453   0.797
53729W        W25989   9.174   0.490  13.056
53730W        W25990  24.374   8.773   4.310
53731W        W25991  33.926  15.371  12.417
53732W        W25992  23.185   5.833  14.450
53733W        W25993  12.056  32.952  14.128
53734W        W25994   1.353  18.856   4.520
53735W        W25995  24.784   2.217   2.772
53736W        W25996  17.684  41.288   1.950
53737W        W25997   6.901   5.204   4.539
53738W        W25998  33.121   3.945  11.053
53739W        W25999  43.401  40.984   4.399
53740W        W26000  26.762  34.416   0.253
53741W        W26001  35.430  11.610   1.860
53742W        W26002  20.081  30.315   1.299
53743W        W26003  41.141  34.991   4.955
53744W        W26004   0.739  40.746  11.850
53745W        W26005  17.303  17.729  10.916
53746W        W26006   1.227  20.315   1.723
53747W        W26007  43.801  40.564   2.654
53748W        W26008   0.535  15.206   1.959
53749W        W26009  30.530  37.083  11.479
53750W        W26010  26.491  39.923   1.148
53751W        W26011  25.134  12.093  13.376
53752W        W26012   9.833  34.047   4.595
53753W        W26013  36.406  15.536  12.975
53754W        W26014  39.758  11.670  13.275
53755W        W26015  36.865  28.064   2.254
53756W        W26016  38.743  29.254  14.649
53757W        W26017  37.300  23.514  12.616
53758W        W26018  17.177  34.800   0.469
53759W        W26019  20.862   4.537  13.336
53760W        W26020  20.257  28.709  10.992
53761W        W26021  13.369   0.318  14.445
53762W        W26022  41.451  32.428   0.266
53763W        W26023  15.741  44.075  12.341
53764W        W26024  17.091  24.995   2.336
53765W        W26025   3.106  33.118   4.117
53766W        W26026  12.160  16.689  12.293
53767W        W26027  26.994  26.477  11.985
53768W        W26028  40.551  12.150  13.316
53769W        W26029  23.759  30.168   3.290
53770W        W26030  40.107  29.530   4.650
53771W        W26031  34.092   5.729   2.217
53772W        W26032  42.927  44.720  10.672
53773W        W26033  27.427  13.075  13.780
53774W        W26034  43.464  15.597   4.145
53775W        W26035  33.312  19.145   3.351
53776W        W26036  27.633  26.077   2.489
53777W        W26037  28.024  10.380   2.289
53778W        W26038  22.545  19.669  11.564
53779W        W26039   7.308   5.223   0.685
53780W        W26040  12.244   2.913  14.068
53781W        W26041  14.210  34.897  13.200
53782W        W26042  31.637  30.497   5.013
53783W        W26043  16.832   9.677  13.391
53784W        W26044  35.854  14.772   1.803
53785W        W26045   9.557  34.556  10.184
53786W        W26046  37.842  36.168  12.004
53787W        W26047   6.852   7.477  12.039
53788W        W26048  23.246   5.759   2.781
53789W        W26049  21.491   8.715  10.725
53790W        W26050  11.192  42.189  12.574
53791W        W26051   8.208   4.920   2.468
53792W        W26052   2.276  30.779  12.377
53793W        W26053  16.221  17.730   4.114
53794W        W26054  41.846  35.746   2.674
53795W        W26055  16.760  32.572  11.677
53796W        W26056  13.939   8.222  14.805
53797W        W26057  44.680  28.531   1.698
53798W        W26058  11.721  42.538   0.374
53799W        W26059  27.550  43.780  11.084
53800W        W26060  44.271   8.173   2.216
53801W        W26061   4.002  28.080   2.390
53802W        W26062   8.741  33.886   4.162
53803W        W26063  37.308  41.625  13.264
53804W        W26064  36.439  27.175  11.472
53805W        W26065   5.736  40.334  14.286
53806W        W26066  21.059   1.071  10.695
53807W        W26067  35.088  30.108   1.466
53808W        W26068  39.824  16.147  14.458
53809W        W26069  36.348  15.792   1.341
53810W        W26070  20.165  28.484  12.826
53811W        W26071  21.499  38.146  11.141
53812W        W26072  25.747  29.646   3.687
53813W        W26073   9.890  27.470   3.223
53814W        W26074  26.047  39.030  12.655
53815W        W26075  23.786  44.307   3.778
53816W        W26076   7.715  40.028   2.779
53817W        W26077  35.924  43.523   0.887
53818W        W26078  21.668  24.660   0.808
53819W        W26079  10.196  26.768   4.193
53820W        W26080  12.183   3.897   2.250
53821W        W26081   5.296  36.420  12.584
53822W        W26082  25.473  34.990   1.271
53823W        W26083  14.887   2.241   0.207
53824W        W26084  41.671   0.336  13.030
53825W        W26085   0.318  30.445   3.494
53826W        W26086  21.656  19.640  11.214
53827W        W26087  25.520   3.248  14.247
53828W        W26088  29.375  27.549   4.682
53829W        W26089  22.175  24.760  12.887
53830W        W26090  35.100  32.918   3.178
53831W        W26091  11.304  24.106   3.826
53832W        W26092  24.029  33.895  10.762
53833W        W26093  12.079  30.138   1.938
53834W        W26094  23.046  44.940   1.812
53835W        W26095  12.550  34.574   4.191
53836W        W26096  28.034   1.465   2.238
53837W        W26097   4.923  12.894   1.546
53838W        W26098   0.828  34.634   2.416
53839W        W26099   2.930  17.982  11.888
53840W        W26100  27.194   6.876  10.555
53841W        W26101  15.117   2.636   0.420
53842W        W26102  44.974  38.624  11.054
53843W        W26103  42.878  33.168  12.401
53844W        W26104   9.396  39.896  11.645
53845W        W26105  15.209  26.266  13.473
53846W        W26106  28.032  29.872   5.061
53847W        W26107  11.806  13.568   2.658
53848W        W26108  22.182  22.849  12.427
53849W        W26109  24.024  40.060   3.161
53850W        W26110   2.445  14.592   4.459
53851W        W26111  22.160  20.655   4.647
53852W        W26112  37.812  44.453   1.817
53853W        W26113  36.027   9.929   0.982
53854W        W26114  41.408  38.462   2.731
53855W        W26115  36.473   4.424   3.673
53856W        W26116  22.114  18.483   2.365
53857W        W26117  44.732  43.780   4.682
53858W        W26118  28.459  37.927  12.882
53859W        W26119   0.429  32.500   3.164
53860W        W26120  41.442   7.803   3.131
53861W        W26121  16.314  23.754  12.084
53862W        W26122  29.009  30.976   4.711
53863W        W26123  30.459  30.865   3.754
53864W        W26124  26.895  39.435   1.379
53865W        W26125  20.343  28.621  13.301
53866W        W26126  39.418   9.899   4.500
53867W        W26127  14.268  43.510   2.745
53868W        W26128  17.714   4.287  11.509
53869W        W26129  31.344  41.019   1.460
53870W        W26130  37.622   1.739  11.508
53871W        W26131  28.464  36.833   2.527
53872W        W26132  29.926  30.635   2.638
53873W        W26133   2.454  20.255  11.530
53874W        W26134  31.275  44.403   4.081
53875W        W26135  33.131  26.292  14.568
53876W        W26136  37.286  37.286  11.627
53877W        W26137  23.331  11.622   2.124
53878W        W26138  36.610  14.654   4.214
53879W        W26139  30.164  42.479   3.821
53880W        W26140   7.021  25.851  10.258
53881W        W26141  16.128  12.088  13.397
53882W        W26142  11.307  10.950   1.224
53883W        W26143   7.810  14.612   1.248
53884W        W26144  30.225  40.937  10.762
53885W        W26145  31.142  24.412   1.758
53886W        W26146  21.257  23.170  11.426
53887W        W26147  12.320  13.577  13.856
53888W        W26148  21.565   6.598   0.032
53889W        W26149  22.356   1.709  11.707
53890W        W26150  23.957  31.194   3.651
53891W        W26151   9.766  30.617   4.572
53892W        W26152  37.628   4.353  10.465
53893W        W26153  37.016   1.718   2.782
53894W        W26154  25.501  39.038  14.715
53895W        W26155  10.082  34.176  13.621
53896W        W26156  12.507  12.666   4.605
53897W        W26157  14.764  29.404  12.049
53898W        W26158   1.208  43.455  11.523
53899W        W26159  43.065  12.027  14.371
53900W        W26160  28.956  11.692   4.083
53901W        W26161  37.455  30.904   2.702
53902W        W26162  38.996  28.781  10.666
53903W        W26163  42.059  14.283  11.643
53904W        W26164  40.466  22.085   1.991
53905W        W26165  14.417  36.738   1.656
53906W        W26166   5.989   3.294  12.921
53907W        W26167   1.520  11.437  12.617
53908W        W26168  23.178  16.302  11.475
53909W        W26169  10.108  25.262   0.778
53910W        W26170   3.666  31.802  13.078
53911W        W26171  28.533   5.730   2.759
53912W        W26172  18.568  39.520   0.387
53913W        W26173  19.104  40.815   2.220
53914W        W26174  13.886  21.001  10.748
53915W        W26175  27.503  25.222  12.270
53916W        W26176  29.464  35.982   2.668
53917W        W26177  36.294  18.155  13.845
53918W        W26178  11.209  44.990  13.879
53919W        W26179  30.151   8.306  11.712
53920W        W26180  22.744  42.849   0.106
53921W        W26181  25.032  26.383  12.606
53922W        W26182   7.484  42.361  14.905
53923W        W26183   2.035  24.212  14.028
53924W        W26184  30.485  37.221   2.233
53925W        W26185  20.722   9.828   3.211
53926W        W26186  31.827  15.347  13.972
53927W        W26187  20.345  12.133   3.752
53928W        W26188   9.431   2.117  14.318
53929W        W26189  25.997  29.419   3.312
53930W        W26190  38.025  34.511   4.589
53931W        W26191  13.755  33.381   0.755
53932W        W26192   2.246  17.263   1.814
53933W        W26193  22.613  25.205   4.915
53934W        W26194   0.745  10.227   3.371
53935W        W26195  35.720  11.653   0.728
53936W        W26196   9.136  44.962   1.370
53937W        W26197  42.854  40.802   3.175
53938W        W26198  31.555  32.953  12.414
53939W        W26199   6.314   4.104   1.402
53940W        W26200   0.493  19.008   4.551
53941W        W26201  11.780  38.414   1.458
53942W        W26202  15.113  14.097   4.177
53943W        W26203  31.548  13.712   0.763
53944W        W26204   3.902  11.461   4.292
53945W        W26205  42.678  11.318   2.281
53946W        W26206  28.574  19.547  13.484
53947W        W26207  22.532   9.737  13.422
53948W        W26208  14.561  27.538   4.633
53949W        W26209  30.030  41.044  14.778
53950W        W26210  29.839  22.420  11.903
53951W        W26211  42.847  35.416  10.713
53952W        W26212   8.988  27.894   2.170
53953W        W26213  24.930   0.204  11.215
53954W        W26214  20.052  26.481  13.510
53955W        W26215  36.418  19.914  10.123
53956W        W26216  18.257  35.533  12.208
53957W        W26217  33.069  24.466  12.485
53958W        W26218   6.655  11.747   3.185
53959W        W26219   8.968  39.903   4.122
53960W        W26220  31.040  11.850  11.200
53961W        W26221   0.969   6.666   0.032
53962W        W26222  28.498  22.317   0.731
53963W        W26223  12.454  39.491   0.124
53964W        W26224  14.886  13.710  12.596
53965W        W26225   1.714  44.035  14.273
53966W        W26226  37.902  28.942  14.414
53967W        W26227  27.702  31.962  12.534
53968W        W26228   0.234   6.489   4.660
53969W        W26229  22.473  10.364   1.342
53970W        W26230  10.717  14.656  10.769
53971W        W26231  25.487   1.743  12.765
53972W        W26232   6.512  23.737   2.719
53973W        W26233   7.222  25.499  12.055
53974W        W26234   8.697  11.151  14.325
53975W        W26235  15.333   4.804  12.793
53976W        W26236   3.393   0.941  11.104
53977W        W26237  19.129  22.066   3.675
53978W        W26238   4.900   6.134  12.944
53979W        W26239  38.582  31.459   1.362
53980W        W26240   5.805  32.559  12.932
53981W        W26241  34.079  21.281   9.774
53982W        W26242  27.531  38.313  13.857
53983W        W26243  10.789  10.236   0.365
53984W        W26244  10.842   1.292   0.489
53985W        W26245  19.226  15.668  12.096
53986W        W26246  35.595  16.530   3.867
53987W        W26247  34.927  11.361   1.770
53988W        W26248   9.722  13.095   0.287
53989W        W26249   4.479  23.463   1.711
53990W        W26250  17.267   8.405   1.831
53991W        W26251  32.081  14.381  12.366
53992W        W26252  32.982   3.947  13.081
53993W        W26253   6.176   3.762  13.036
53994W        W26254  18.121  43.280   4.203
53995W        W26255  38.617  44.993  14.758
53996W        W26256  14.140  26.685   4.089
53997W        W26257  43.563  30.852  13.509
53998W        W26258  39.546  36.100   0.654
53999W        W26259  26.054   0.763   3.549
54000W        W26260   3.237  32.514  14.259
54001W        W26261  14.500   3.357  10.289
54002W        W26262  29.184   8.853   2.903
54003W        W26263  16.801  44.643  10.695
54004W        W26264  42.863  22.674   2.662
54005W        W26265  33.935   6.028  11.477
54006W        W26266  44.864  30.152  14.938
54007W        W26267   6.702   5.336  12.600
54008W        W26268   0.357  31.681   0.346
54009W        W26269  27.025  19.009   3.428
54010W        W26270  18.484   1.232  13.926
54011W        W26271  34.081  26.487  12.555
54012W        W26272   8.275  12.447  11.117
54013W        W26273  26.069  42.843  12.617
54014W        W26274   8.377   1.887  10.621
54015W        W26275   5.760  28.551  10.767
54016W        W26276  18.779  10.468  14.318
54017W        W26277   9.152   8.700   3.170
54018W        W26278  23.117  21.313  14.853
54019W        W26279   7.917  39.562   2.695
54020W        W26280  16.106   2.351  11.613
54021W        W26281   2.730  36.012  14.815
54022W        W26282  10.119   5.853   0.109
54023W        W26283   7.506  21.222  14.327
54024W        W26284  43.883  35.784  12.539
54025W        W26285  16.091  37.298   1.202
54026W        W26286  13.951  11.682  12.216
54027W        W26287  42.716  19.832  12.051
54028W        W26288  40.982   4.594  12.561
54029W        W26289  12.398  21.454   3.122
54030W        W26290  27.107  25.095  14.553
54031W        W26291  19.294  17.589  14.648
54032W        W26292  11.038  43.791  10.934
54033W        W26293  12.360  26.739   3.338
54034W        W26294  10.753   1.242   2.749
54035W        W26295   3.817  42.802   1.445
54036W        W26296   7.093  30.100   0.241
54037W        W26297  19.082  39.474   0.220
54038W        W26298  17.528   5.466  12.266
54039W        W26299   3.321  15.810   0.815
54040W        W26300  42.808  18.517  11.395
54041W        W26301  12.097   9.401   3.878
54042W        W26302   0.846  13.625   0.953
54043W        W26303  36.561  33.646   0.301
54044W        W26304  18.235  20.274   1.170
54045W        W26305  23.454  15.618  13.471
54046W        W26306   9.229  39.471   2.878
54047W        W26307   1.885  24.203   4.179
54048W        W26308  32.226   7.402  13.937
54049W        W26309   4.434  39.297  12.056
54050W        W26310  11.016  32.131  11.220
54051W        W26311  38.364  22.294   2.379
54052W        W26312  11.263   3.472  12.076
54053W        W26313  19.699   8.223   3.758
54054W        W26314  25.052  28.870   0.478
54055W        W26315  15.245  27.495  11.637
54056W        W26316  27.072  34.501   1.194
54057W        W26317  35.320  21.591   5.155
54058W        W26318  35.931  42.390   2.352
54059W        W26319   2.678  28.646   3.582
54060W        W26320  26.013  35.310  14.927
54061W        W26321  15.912  29.918   0.871
54062W        W26322  28.214  31.392   3.237
54063W        W26323  23.736  40.017  13.856
54064W        W26324  27.100  12.033  14.480
54065W        W26325  30.354  28.605   0.419
54066W        W26326  42.127  15.283   3.610
54067W        W26327  10.681   5.234   1.905
54068W        W26328  19.898   8.408  12.574
54069W        W26329  18.066   6.193   1.337
54070W        W26330  40.791   5.758   1.852
54071W        W26331  10.585   8.650   3.156
54072W        W26332  22.744  30.258  10.442
54073W        W26333  25.262  27.518  11.306
54074W        W26334   4.605  19.793   2.456
54075W        W26335  16.018  11.801   3.615
54076W        W26336  29.471   2.736  11.962
54077W        W26337  28.914  37.877  12.046
54078W        W26338  14.106  43.967  13.051
54079W        W26339   9.735  18.483  12.382
54080W        W26340  43.393  10.719  13.857
54081W        W26341  29.536   9.438   4.154
54082W        W26342  24.001   4.193   1.178
54083W        W26343  15.180  41.519   4.434
54084W        W26344  36.153   1.212  13.006
54085W        W26345  21.045   2.907  14.280
54086W        W26346  11.862  44.890   2.108
54087W        W26347  42.006  19.190   1.845
54088W        W26348  32.596   6.889  13.907
54089W        W26349   7.658  14.781   3.342
54090W        W26350   6.010  42.952  13.966
54091W        W26351  20.229   4.721  12.072
54092W        W26352  14.129  16.619  10.954
54093W        W26353  17.008  16.851  10.623
54094W        W26354   6.646  39.139   2.720
54095W        W26355   6.340  11.317  12.144
54096W        W26356  11.229  17.878   3.478
54097W        W26357   7.139  30.418  11.603
54098W        W26358  36.059  16.397  14.824
54099W        W26359  14.598  11.127   0.743
54100W        W26360   7.273  12.395  14.787
54101W        W26361   1.478  37.782  14.414
54102W        W26362   4.919  20.980   1.371
54103W        W26363  14.803  17.388   4.617
54104W        W26364  37.969  24.792   0.123
54105W        W26365  32.153  27.141  11.302
54106W        W26366   4.551   7.254   3.753
54107W        W26367  35.705   8.920   0.212
54108W        W26368   9.729  18.252   0.360
54109W        W26369  19.000  26.799   4.621
54110W        W26370  29.894   1.950   0.345
54111W        W26371  24.274  26.038  13.209
54112W        W26372  22.586  44.243   9.789
54113W        W26373  35.138  26.101   3.886
54114W        W26374   6.982   4.493   3.327
54115W        W26375  24.170  21.728  10.637
54116W        W26376  14.739   1.533   2.845
54117W        W26377  24.136  30.574   2.145
54118W        W26378  25.696  35.079   0.327
54119W        W26379  27.449  36.972   4.882
54120W        W26380  33.851  22.000  11.505
54121W        W26381  41.068  39.841   3.419
54122W        W26382  38.788  15.223  11.979
54123W        W26383  23.784  11.842  10.409
54124W        W26384  10.255  19.195  13.157
54125W        W26385  26.105  25.217  14.520
54126W        W26386   1.919  39.860  12.380
54127W        W26387  13.560   5.816  12.414
54128W        W26388   6.273  14.687   0.424
54129W        W26389   4.047  41.714  11.200
54130W        W26390  16.673   4.222   2.361
54131W        W26391  44.290  32.084  10.673
54132W        W26392  32.761  30.459   3.528
54133W        W26393  39.679   6.353   1.709
54134W        W26394  18.776  24.059   5.077
54135W        W26395  30.969   7.931  11.667
54136W        W26396   8.896  40.716   3.679
54137W        W26397  33.032  18.513   2.760
54138W        W26398  42.835  41.696   1.474
54139W        W26399  23.989  18.075   4.197
54140W        W26400  32.637  18.286  11.553
54141W        W26401  10.703  40.761  13.928
54142W        W26402  15.671  10.942  11.764
54143W        W26403  44.571  23.594   1.393
54144W        W26404  41.926  11.552   4.201
54145W        W26405   2.602  20.229   2.641
54146W        W26406  13.296   3.822  11.266
54147W        W26407  35.616  10.239   3.049
54148W        W26408   6.699  11.097  13.106
54149W        W26409  27.730  19.438  11.999
54150W        W26410  28.648  42.212  13.751
54151W        W26411  11.589  26.407   1.414
54152W        W26412  27.974  25.113   0.266
54153W        W26413  37.882  31.630   2.951
54154W        W26414  16.010  14.394   1.762
54155W        W26415  24.936  39.508   4.911
54156W        W26416  42.761  17.941  13.342
54157W        W26417  42.699  25.651   2.262
54158W        W26418  37.845   8.905   0.794
54159W        W26419  34.867  30.486  12.627
54160W        W26420  22.591   3.793   1.782
54161W        W26421   9.871   6.142  14.330
54162W        W26422  21.581  26.402  10.184
54163W        W26423  13.755  38.932   4.412
54164W        W26424  43.107   2.773  10.752
54165W        W26425  13.816  34.356   0.515
54166W        W26426   5.351  39.680  10.682
54167W        W26427  22.687   1.931   3.300
54168W        W26428  15.744  40.360  14.531
54169W        W26429  24.695  43.422  11.604
54170W        W26430  30.430  31.076  12.002
54171W        W26431   2.176  14.439  11.566
54172W        W26432  21.445  22.554  11.863
54173W        W26433   5.494  16.159   1.435
54174W        W26434  30.058   4.654  11.273
54175W        W26435  21.101  42.578  14.446
54176W        W26436  40.096  39.132   3.686
54177W        W26437  13.171  16.745  13.389
54178W        W26438  20.209  13.016   4.152
54179W        W26439  29.191  32.527  10.307
54180W        W26440   9.937  42.954   4.222
54181W        W26441  37.439  39.179   4.404
54182W        W26442  24.533  34.844   1.324
54183W        W26443  11.592  28.700  14.814
54184W        W26444  37.350   2.535   5.287
54185W        W26445   0.705  28.099   0.742
54186W        W26446  20.022  39.038   3.241
54187W        W26447  37.123  41.409   1.378
54188W        W26448  15.836   1.405   2.155
54189W        W26449  32.841   4.742  14.681
54190W        W26450  39.511  12.980   4.101
54191W        W26451  23.520  12.625   0.777
54192W        W26452  39.108  25.565  14.065
54193W        W26453  16.724  31.574  13.366
54194W        W26454  31.951  22.949  12.377
54195W        W26455  43.112  42.417   0.870
54196W        W26456  10.416   5.751  11.454
54197W        W26457  41.787   8.741   2.439
54198W        W26458  10.313   9.321  11.913
54199W        W26459   8.888  15.593   4.516
54200W        W26460  37.322  20.198  10.215
54201W        W26461  16.268  32.522  10.986
54202W        W26462   4.750  13.123   2.387
54203W        W26463  35.029   8.176   3.257
54204W        W26464  33.818  39.026  11.058
54205W        W26465  36.049   0.913  14.540
54206W        W26466  12.967  13.829   1.133
54207W        W26467   8.456  27.683   3.193
54208W        W26468   3.953  28.439  14.429
54209W        W26469   6.268  25.018  11.577
54210W        W26470  15.642  19.985  13.446
54211W        W26471  11.480  12.805   1.715
54212W        W26472   8.577  12.388  13.773
54213W        W26473   4.454  27.019   3.197
54214W        W26474  43.438  36.858  11.774
54215W        W26475  32.913  34.985  14.016
54216W        W26476  44.046  38.434   4.410
54217W        W26477  33.656   7.445   3.802
54218W        W26478  19.665  11.357  12.022
54219W        W26479  18.475  13.388  11.137
54220W        W26480  30.543  18.024   4.850
54221W        W26481   1.379  24.407   1.417
54222W        W26482  14.516  41.972   1.351
54223W        W26483  30.453  11.435   4.571
54224W        W26484   2.915  24.933   2.399
54225W        W26485   6.465  29.377  14.913
54226W        W26486   2.335  39.078   4.122
54227W        W26487   4.866  28.907   0.372
54228W        W26488  41.861  40.475  13.583
54229W        W26489  37.809  36.840   2.284
54230W        W26490  35.819  27.053   4.696
54231W        W26491  35.453  35.002   4.301
54232W        W26492  40.876  35.611  14.660
54233W        W26493  38.401  42.538   0.457
54234W        W26494  18.913   6.294   2.971
54235W        W26495   6.337  34.032  14.689
54236W        W26496  24.735   0.513  11.628
54237W        W26497  27.440   6.250  12.463
54238W        W26498  13.104  20.324  13.244
54239W        W26499  11.816  20.955  13.023
54240W        W26500  32.650  11.675   3.383
54241W        W26501  24.761  18.091   1.090
54242W        W26502  43.365   0.969   1.825
54243W        W26503  35.119  30.687   2.575
54244W        W26504  37.891  17.175  13.813
54245W        W26505  35.926  36.006   3.944
54246W        W26506  27.971   0.368   3.262
54247W        W26507  21.670   0.872   2.226
54248W        W26508   0.699   6.351   1.193
54249W        W26509  41.013  30.079   1.593
54250W        W26510   7.129   3.121   4.507
54251W        W26511  13.060   3.328   3.710
54252W        W26512  15.795  31.093  12.330
54253W        W26513  10.827   5.672   1.684
54254W        W26514  15.224   0.816   3.747
54255W        W26515  24.132  17.877   2.707
54256W        W26516   0.745  15.669   1.804
54257W        W26517  23.162  31.131   2.849
54258W        W26518  10.140  30.153  10.754
54259W        W26519  32.480  40.941   1.671
54260W        W26520  14.994  18.682  10.718
54261W        W26521  32.466  29.263  12.570
54262W        W26522   9.768  21.951  12.437
54263W        W26523  21.922  35.028  10.358
54264W        W26524  14.338   6.937   0.014
54265W        W26525  28.479   0.665  14.250
54266W        W26526  44.179  44.974   3.746
54267W        W26527  37.020   2.972  12.498
54268W        W26528  32.562  22.979   2.061
54269W        W26529  13.996  16.071   0.124
54270W        W26530  31.401  29.128  12.455
54271W        W26531  31.801   7.449   3.350
54272W        W26532   8.137  23.126  14.990
54273W        W26533  38.439  44.822   2.450
54274W        W26534  41.049   2.574   1.444
54275W        W26535  39.336  14.327  11.187
54276W        W26536   4.415  16.055   2.425
54277W        W26537  13.226  29.772   1.766
54278W        W26538  10.122   5.232  12.043
54279W        W26539  38.435  19.984   3.958
54280W        W26540   9.700  14.276   1.208
54281W        W26541  20.780   3.329  14.392
54282W        W26542  44.303  14.117   4.096
54283W        W26543  15.746   3.930   2.226
54284W        W26544  35.320  18.678  12.620
54285W        W26545  42.768  28.111  14.285
54286W        W26546  42.321  36.473   1.374
54287W        W26547  14.008  18.724   3.896
54288W        W26548  33.429  17.962   1.487
54289W        W26549  14.614   7.067  12.806
54290W        W26550  18.008  35.545   2.338
54291W        W26551   6.402  19.762   4.618
54292W        W26552   0.664  39.542   0.865
54293W        W26553  25.003  35.949   4.238
54294W        W26554  30.463  42.265  13.369
54295W        W26555   8.277  32.119  12.887
54296W        W26556   7.456  36.467  14.000
54297W        W26557  23.765  11.939   4.330
54298W        W26558  13.354  32.590   1.293
54299W        W26559  19.099  13.565  11.132
54300W        W26560  25.733  27.165  14.590
54301W        W26561  12.156  29.111  13.466
54302W        W26562  20.797  36.068   4.704
54303W        W26563  11.190   4.317   1.923
54304W        W26564  34.035  40.086  11.128
54305W        W26565  31.424  32.648   4.301
54306W        W26566   0.901  39.889   4.615
54307W        W26567  14.953  34.608   1.755
54308W        W26568  31.428  37.995   4.735
54309W        W26569  38.480  35.577   2.334
54310W        W26570   4.449  22.787   1.419
54311W        W26571  21.788  17.594   1.177
54312W        W26572  26.094   5.243   2.344
54313W        W26573  24.833  17.323   0.689
54314W        W26574  32.327  24.268  13.169
54315W        W26575   9.716  16.214   2.160
54316W        W26576  20.550  25.372   1.419
54317W        W26577  14.617   6.652  10.854
54318W        W26578  32.994  35.140  11.519
54319W        W26579  28.133  16.273  12.638
54320W        W26580  37.570  38.895  13.124
54321W        W26581   6.898  29.250   1.415
54322W        W26582   4.638  27.768  10.285
54323W        W26583   4.360  17.630   1.514
54324W        W26584   9.338  13.133   1.666
54325W        W26585  32.557  15.956   3.690
54326W        W26586  29.464  13.207   1.526
54327W        W26587  11.617  35.996   3.558
54328W        W26588  18.644  23.653  10.304
54329W        W26589  42.082  16.547  11.873
54330W        W26590  39.058  41.739   1.199
54331W        W26591  17.443   2.618   0.271
54332W        W26592  21.247  24.579   1.337
54333W        W26593  19.258   7.132  10.597
54334W        W26594   7.830   4.929  11.818
54335W        W26595  10.355   5.488   4.526
54336W        W26596  40.501  16.104   0.144
54337W        W26597  16.736  40.901   4.114
54338W        W26598  27.180  43.287   4.304
54339W        W26599  16.763   3.201  11.370
54340W        W26600  35.879   3.394  14.746
54341W        W26601  36.487  21.260  10.892
54342W        W26602  36.338  31.076   1.613
54343W        W26603  27.075   8.693   2.151
54344W        W26604  32.768  27.532  11.035
54345W        W26605  39.509   5.230   0.012
54346W        W26606  37.678  12.846  12.093
54347W        W26607  31.566  14.007  13.843
54348W        W26608  35.107  18.095   3.195
54349W        W26609   3.637  16.270  13.473
54350W        W26610   1.613  40.348   0.795
54351W        W26611  32.381   7.437  13.047
54352W        W26612  13.386  34.636  11.110
54353W        W26613  18.050  22.768   1.792
54354W        W26614  13.378  44.324   0.865
54355W        W26615  39.876  14.037  13.416
54356W        W26616   1.463  27.931   2.333
54357W        W26617  13.315  38.985   2.287
54358W        W26618  10.398  31.532  13.482
54359W        W26619  16.120   7.730  14.861
54360W        W26620  41.064  41.076   2.841
54361W        W26621   8.283   5.131   3.563
54362W        W26622   0.215   0.227  14.787
54363W        W26623  12.996  21.288  11.574
54364W        W26624  16.103  35.357   2.189
54365W        W26625   8.345  11.053  10.419
54366W        W26626  13.770  27.249  14.533
54367W        W26627   5.891  31.887   4.575
54368W        W26628  36.047   5.497  12.361
54369W        W26629  33.065  10.673  11.477
54370W        W26630   2.447  23.187  11.843
54371W        W26631  11.652  19.190   3.608
54372W        W26632  34.820  43.040   5.341
54373W        W26633  13.392  23.251   1.758
54374W        W26634  41.741  27.603   1.085
54375W        W26635   4.684  29.416   2.205
54376W        W26636  32.823  44.777  10.734
54377W        W26637  31.960  26.012   0.313
54378W        W26638  23.795  31.889   4.495
54379W        W26639  36.882  29.871   1.752
54380W        W26640  39.120   3.380   1.430
54381W        W26641  44.209  41.294   0.901
54382W        W26642  32.360  43.417   3.497
54383W        W26643  40.325   5.175  14.003
54384W        W26644  23.128   8.277  14.274
54385W        W26645   9.318  33.045   2.362
54386W        W26646  25.334  12.785  11.976
54387W        W26647  26.099  39.310  14.490
54388W        W26648  11.773   9.358   4.569
54389W        W26649  43.992  28.073   3.558
54390W        W26650  28.193  40.870   0.414
54391W        W26651  25.016  18.284   4.178
54392W        W26652  17.078  19.871  11.462
54393W        W26653  14.669   6.747  12.211
54394W        W26654  15.737  13.892  12.443
54395W        W26655  22.625  27.518  11.428
54396W        W26656  12.176   1.235  11.130
54397W        W26657  34.442  20.797   3.297
54398W        W26658  32.784  35.014   0.415
54399W        W26659  10.272  22.717  11.455
54400W        W26660   3.368  25.170  11.174
54401W        W26661  12.040  44.276  13.029
54402W        W26662  36.921   8.791   1.139
54403W        W26663  36.941  34.609   2.235
54404W        W26664  42.929  21.891  11.772
54405W        W26665  27.139  43.698   1.108
54406W        W26666  23.416  34.327  12.388
54407W        W26667  37.963  42.828   0.484
54408W        W26668  37.097  28.613   3.143
54409W        W26669  20.494  27.532   2.701
54410W        W26670  42.289  21.776   2.543
54411W        W26671   2.224  11.999  12.167
54412W        W26672   0.755   7.144  14.922
54413W        W26673  17.644   7.172   1.812
54414W        W26674  35.722  33.718   2.296
54415W        W26675   0.799  22.987   2.752
54416W        W26676  26.656  39.554  13.303
54417W        W26677   5.967  25.940  12.871
54418W        W26678   6.651  24.112   0.838
54419W        W26679   0.025  24.133  13.380
54420W        W26680   1.871  41.321  13.530
54421W        W26681   2.577  40.598   3.124
54422W        W26682  44.492  34.853  14.495
54423W        W26683  22.011   7.209  14.342
54424W        W26684  20.108   9.957  12.954
54425W        W26685   3.400  40.027   2.813
54426W        W26686   3.593  23.914   1.585
54427W        W26687  18.545  22.803   0.243
54428W        W26688  13.377  13.741   4.199
54429W        W26689  30.513  36.809  14.382
54430W        W26690  32.995  28.366   1.905
54431W        W26691   8.574  12.609  11.591
54432W        W26692  28.642  19.442   2.609
54433W        W26693  19.503  25.170   2.823
54434W        W26694  36.843  31.982   0.779
54435W        W26695  17.087   3.259   3.612
54436W        W26696  25.753  27.956  12.099
54437W        W26697  44.216  28.572  11.955
54438W        W26698  19.638  11.450  12.825
54439W        W26699  42.951  34.954  11.955
54440W        W26700  21.901  22.196  10.639
54441W        W26701  17.298   6.254  14.404
54442W        W26702  25.067  43.890  10.745
54443W        W26703   7.781  44.564   1.297
54444W        W26704  40.933  17.204   2.986
54445W        W26705  15.507  33.602   3.315
54446W        W26706  33.660  44.416   3.847
54447W        W26707  40.691  18.475   3.730
54448W        W26708  23.172  18.304  14.500
54449W        W26709  33.293  44.499  13.715
54450W        W26710   5.824  44.279  14.898
54451W        W26711  31.942  21.089   4.586
54452W        W26712  39.179  39.007  10.183
54453W        W26713  19.946  31.460   4.855
54454W        W26714  35.115  36.188   0.805
54455W        W26715  28.807   0.382  14.526
54456W        W26716  12.341   5.204  14.483
54457W        W26717   2.465   6.383   3.542
54458W        W26718  33.507  16.185  12.836
54459W        W26719  20.515   2.517  10.579
54460W        W26720  28.004  21.231   4.547
54461W        W26721  28.554  10.781   3.606
54462W        W26722  15.832  12.810  13.111
54463W        W26723  27.015  15.209   1.841
54464W        W26724  20.723  36.379   4.274
54465W        W26725  17.640  28.007   1.800
54466W        W26726  12.654  16.857  11.026
54467W        W26727  15.558  35.921  14.296
54468W        W26728  20.149   9.331  10.643
54469W        W26729  30.308  32.990  11.462
54470W        W26730  21.658   0.943  10.660
54471W        W26731  16.368   4.461  13.380
54472W        W26732   3.061  43.316   3.891
54473W        W26733   5.160  20.210   3.256
54474W        W26734   1.726  12.266  12.967
54475W        W26735  16.230  32.269  14.432
54476W        W26736   5.967  14.110  11.160
54477W        W26737  27.200  35.799  11.424
54478W        W26738  15.100  31.345   4.077
54479W        W26739  35.769  20.731   3.064
54480W        W26740  21.005  10.237  14.944
54481W        W26741  12.122  36.441  14.803
54482W        W26742  15.272  42.494  11.065
54483W        W26743  14.286  22.709  12.126
54484W        W26744  42.035  13.763  14.352
54485W        W26745  18.102  38.160   3.170
54486W        W26746  22.700   9.211  11.220
54487W        W26747  20.495   8.808   1.069
54488W        W26748  34.896   6.753   1.668
54489W        W26749  43.325  19.708   3.616
54490W        W26750  42.303  23.124  14.614
54491W        W26751  14.062  18.303   2.638
54492W        W26752  10.226  25.431  12.034
54493W        W26753   8.862  34.615   0.941
54494W        W26754  23.706  13.956   4.838
54495W        W26755   2.281  17.813   2.252
54496W        W26756   7.733   2.509   0.447
54497W        W26757  20.408  37.769  12.387
54498W        W26758   5.238  26.206   2.625
54499W        W26759  10.888  33.963   0.333
54500W        W26760  37.249  41.592   5.017
54501W        W26761  10.830  14.799   0.030
54502W        W26762   4.148  16.282   0.422
54503W        W26763  16.979   8.564   2.823
54504W        W26764  32.586  14.785   4.368
54505W        W26765   7.622  13.611  10.631
54506W        W26766  22.052  34.866   0.394
54507W        W26767  32.072  24.968   0.257
54508W        W26768  32.975  10.320   4.042
54509W        W26769  12.838  35.315   3.097
54510W        W26770  12.151  22.786   0.731
54511W        W26771  14.638  37.905   2.317
54512W        W26772  16.146  43.786  12.470
54513W        W26773   8.921  15.487  11.035
54514W        W26774  38.033   9.296   2.831
54515W        W26775  41.612   8.371   1.022
54516W        W26776  10.617  14.783  12.471
54517W        W26777  17.055  30.960  12.034
54518W        W26778  21.569   5.858  13.530
54519W        W26779  12.078  40.403   3.321
54520W        W26780  40.074  18.415  13.999
54521W        W26781  39.228  19.685   2.194
54522W        W26782  22.540  12.844   4.495
54523W        W26783  15.115  26.008   0.317
54524W        W26784  42.540   8.792  12.384
54525W        W26785   5.610   6.670  13.049
54526W        W26786  44.974   3.306  14.960
54527W        W26787  43.866   4.671  14.766
54528W        W26788   8.853  11.362  13.429
54529W        W26789  43.709  28.418  11.852
54530W        W26790  39.139  26.440   4.333
54531W        W26791  22.758  12.169  11.619
54532W        W26792  15.695  36.866  10.608
54533W        W26793  36.093  19.031  12.272
54534W        W26794   7.904  11.073   2.336
54535W        W26795  22.461  19.578  13.067
54536W        W26796  11.273   1.411  10.725
54537W        W26797  43.486  41.415  14.195
54538W        W26798   6.159  30.858   2.900
54539W        W26799   7.681  25.942  12.478
54540W        W26800  32.489  32.457   4.537
54541W        W26801  29.016  43.127  12.029
54542W        W26802  11.662  39.056   5.093
54543W        W26803  23.730  21.215   4.114
54544W        W26804   3.812   1.997   0.467
54545W        W26805  11.756   3.224  14.821
54546W        W26806  41.119  11.739  13.923
54547W        W26807  44.114  33.036  13.957
54548W        W26808  35.007  12.406   4.492
54549W        W26809  32.349  35.663   3.624
54550W        W26810  11.556  15.863  12.510
54551W        W26811   6.641   7.700   1.827
54552W        W26812  44.947  28.595  11.722
54553W        W26813  16.332  13.384   4.658
54554W        W26814   1.791   0.019  13.188
54555W        W26815  13.551  27.600   4.760
54556W        W26816  36.311  19.230   4.068
54557W        W26817   3.752  33.106   0.211
54558W        W26818  36.490   5.981   4.588
54559W        W26819  23.209  16.360   2.847
54560W        W26820  44.948  20.746  11.514
54561W        W26821  14.855  41.584   1.369
54562W        W26822  16.097  36.220   4.107
54563W        W26823   2.298   0.409   0.872
54564W        W26824   7.438  17.252  13.273
54565W        W26825  38.359  32.074  12.523
54566W        W26826  37.338  40.611   1.135
54567W        W26827  19.523  34.193  10.798
54568W        W26828  42.958  40.961   0.858
54569W        W26829  31.340  13.675   3.298
54570W        W26830  40.883  37.967  14.442
54571W        W26831  13.800  28.151   1.415
54572W        W26832  22.853  17.095   1.673
54573W        W26833  31.185  25.933  14.377
54574W        W26834  42.873  21.211   3.304
54575W        W26835  24.899  10.105   3.616
54576W        W26836   6.094   2.911  13.563
54577W        W26837  15.553   3.655   1.230
54578W        W26838   8.766   0.182  10.935
54579W        W26839   4.891  10.340   1.369
54580W        W26840  36.875  19.919  14.873
54581W        W26841  39.914  32.170  10.738
54582W        W26842  17.253  23.811   3.363
54583W        W26843  27.158   2.749  14.566
54584W        W26844  14.663  25.402  12.401
54585W        W26845   5.948  13.115   0.307
54586W        W26846  18.720  35.211   3.248
54587W        W26847  39.796   7.192   4.288
54588W        W26848  31.434  34.414  13.400
54589W        W26849  22.647  42.046   4.226
54590W        W26850   6.131  41.136   2.652
54591W        W26851  44.585  31.118   2.351
54592W        W26852  22.077   7.895  12.488
54593W        W26853  18.166  44.307  14.587
54594W        W26854  34.431  25.541  14.906
54595W        W26855   9.762   2.973  14.399
54596W        W26856  39.336  14.676   0.466
54597W        W26857  31.617  43.923   3.208
54598W        W26858  13.328  37.139  14.630
54599W        W26859   8.374  33.930   3.348
54600W        W26860  36.548  27.579  12.349
54601W        W26861  28.269  21.187   4.118
54602W        W26862  41.759  22.489  10.238
54603W        W26863  15.492   3.773   2.668
54604W        W26864   8.948  22.026  11.962
54605W        W26865  35.550  31.858   1.322
54606W        W26866  18.286  40.557  11.483
54607W        W26867  17.463   5.012  11.200
54608W        W26868  19.331  42.550  13.049
54609W        W26869  15.069   7.216   0.418
54610W        W26870  27.896  28.540   3.694
54611W        W26871  12.214  14.284   2.582
54612W        W26872  18.088  13.246  14.783
54613W        W26873  29.224  16.195  11.174
54614W        W26874   4.720  37.328  12.411
54615W        W26875  40.724  41.726   3.584
54616W        W26876   5.001  21.568  14.726
54617W        W26877  30.104  28.905   3.739
54618W        W26878   6.172  14.792  14.898
54619W        W26879  20.206  15.712   2.289
54620W        W26880   2.394   2.877   3.075
54621W        W26881  19.789  40.549   3.931
54622W        W26882  24.384  22.201   1.345
54623W        W26883  20.153   6.881   4.100
54624W        W26884  31.008  18.228  10.710
54625W        W26885  19.177  27.187   0.779
54626W        W26886  13.233  18.119   2.152
54627W        W26887  28.023  32.424  14.865
54628W        W26888  14.743  34.989   2.914
54629W        W26889  12.287  36.409   1.954
54630W        W26890  35.893  44.333   4.593
54631W        W26891  21.540  31.494   0.707
54632W        W26892   4.605  26.792   1.849
54633W        W26893  25.600  29.215   2.664
54634W        W26894  10.124  26.968   0.453
54635W        W26895  20.078  18.849   5.456
54636W        W26896  27.461  26.451   0.381
54637W        W26897   2.739   4.856   4.156
54638W        W26898  24.671  18.362   4.843
54639W        W26899  14.393  43.247  11.128
54640W        W26900   9.742  40.418   3.191
54641W        W26901  17.718  15.772  10.755
54642W        W26902  38.233  10.243   4.239
54643W        W26903  29.717  37.933   0.776
54644W        W26904  14.260   0.947  12.509
54645W        W26905   5.526  24.084  12.427
54646W        W26906  22.991  37.845  13.986
54647W        W26907   6.890   6.203  14.493
54648W        W26908  31.569   9.250   3.747
54649W        W26909   5.104  13.703  12.738
54650W        W26910  28.438  23.638   3.463
54651W        W26911  13.822  21.995   1.714
54652W        W26912  11.110  12.187  11.130
54653W        W26913  13.845  34.892  10.938
54654W        W26914  33.080  42.029   0.184
54655W        W26915   6.860  34.495  11.918
54656W        W26916  14.667  18.868   1.855
54657W        W26917  36.431   5.842  12.097
54658W        W26918  11.827  20.219   2.387
54659W        W26919  29.271  21.131   2.807
54660W        W26920   5.746  41.039   3.004
54661W        W26921  12.692  14.280   2.361
54662W        W26922  34.938  26.503  12.449
54663W        W26923  26.122  29.159  12.932
54664W        W26924  40.945  31.663   1.172
54665W        W26925  18.578  10.227   0.336
54666W        W26926   7.706  36.627   0.075
54667W        W26927  38.919   2.783   2.898
54668W        W26928   0.789  22.617   4.989
54669W        W26929  35.424  36.432   4.029
54670W        W26930  35.476  31.388   1.513
54671W        W26931  24.604  43.589   4.594
54672W        W26932  37.106  17.052   4.210
54673W        W26933  23.204  31.963   1.508
54674W        W26934  38.275  42.297   1.699
54675W        W26935  44.493  34.001   3.385
54676W        W26936  41.415   0.683   3.588
54677W        W26937  44.944  44.782  13.900
54678W        W26938  13.841  20.746  11.613
54679W        W26939   6.909  11.950  14.647
54680W        W26940  23.971  37.564   4.980
54681W        W26941  28.661  19.571  10.661
54682W        W26942   8.457  40.425   1.873
54683W        W26943  34.029  19.286  12.232
54684W        W26944  19.137   2.128   0.854
54685W        W26945   9.953   0.207   1.362
54686W        W26946  20.599  28.115  10.181
54687W        W26947  39.653  31.979  11.386
54688W        W26948   7.691  35.588   3.315
54689W        W26949  17.347  29.957   4.578
54690W        W26950   2.428  34.963  14.252
54691W        W26951  17.564  37.414   1.200
54692W        W26952   8.919  27.646   4.458
54693W        W26953  24.154  40.996  12.741
54694W        W26954  15.041  11.406  11.671
54695W        W26955  28.676  43.827   3.778
54696W        W26956   2.834  26.760   3.757
54697W        W26957   6.897   8.710  13.512
54698W        W26958   5.452  36.997   0.583
54699W        W26959   9.936  12.821  12.059
54700W        W26960  26.147   4.125  14.075
54701W        W26961  33.196  35.534   1.653
54702W        W26962  18.714  15.107  13.126
54703W        W26963  20.880  22.025   3.495
54704W        W26964   5.332  35.622  13.932
54705W        W26965  34.154   2.854  11.567
54706W        W26966  17.847   4.257   1.758
54707W        W26967  33.459  25.261  13.820
54708W        W26968   5.691   6.269   4.002
54709W        W26969  18.065   4.644  11.420
54710W        W26970  11.311  17.462   1.946
54711W        W26971  21.996  21.240   0.202
54712W        W26972  11.247  28.168   1.413
54713W        W26973  18.539  33.826  14.802
54714W        W26974  40.712  30.254   3.914
54715W        W26975  11.768  17.712   2.092
54716W        W26976  18.019  12.094   3.405
54717W        W26977   8.205   4.984  11.084
54718W        W26978  27.164  28.549   0.333
54719W        W26979  37.023  28.244  14.831
54720W        W26980  41.441  27.376   0.349
54721W        W26981  33.180  10.796   4.142
54722W        W26982   1.918  25.237  12.197
54723W        W26983  21.139   5.960  13.270
54724W        W26984  36.983   9.956   3.703
54725W        W26985  12.943  19.563  14.063
54726W        W26986   9.667  15.745  12.091
54727W        W26987   5.727  39.315  10.745
54728W        W26988   6.983  18.777  13.850
54729W        W26989  10.110   7.164   0.406
54730W        W26990  22.227   2.341  12.649
54731W        W26991  13.554   7.891   0.992
54732W        W26992  25.180  29.896   0.179
54733W        W26993   5.499  37.042   4.741
54734W        W26994  38.114  39.743   3.068
54735W        W26995  36.891   5.355  13.561
54736W        W26996  44.408  43.069   1.228
54737W        W26997  17.716  35.583   0.310
54738W        W26998   3.379  21.476   0.501
54739W        W26999  21.066  39.060   1.242
54740W        W27000  35.394  27.346   3.627
54741W        W27001  41.948  18.148  10.563
54742W        W27002  28.468  20.067  13.418
54743W        W27003  18.901  41.493   3.528
54744W        W27004  19.738  13.342   4.036
54745W        W27005  33.545  38.040   2.661
54746W        W27006  24.264  11.894  14.279
54747W        W27007  17.644   7.678   5.594
54748W        W27008  20.080  22.670   4.515
54749W        W27009  42.846  16.750   0.309
54750W        W27010  15.636  35.116   4.850
54751W        W27011   2.950  24.590   0.910
54752W        W27012   2.847  33.585   3.890
54753W        W27013  18.258  42.835   3.590
54754W        W27014   6.894   7.963   3.141
54755W        W27015   5.893   1.814  12.857
54756W        W27016  24.728  41.700   4.103
54757W        W27017   4.350  35.647  14.884
54758W        W27018  31.488  37.302  12.094
54759W        W27019  43.268  44.028   4.512
54760W        W27020  12.480   6.416   0.018
54761W        W27021  29.208  39.331   0.303
54762W        W27022   8.247  16.078  11.631
54763W        W27023  28.778  24.083   4.524
54764W        W27024   0.874  13.275   4.596
54765W        W27025  18.261  14.130  11.094
54766W        W27026  29.397  30.562   2.626
54767W        W27027   7.963  36.830  11.245
54768W        W27028   0.251   4.323   3.683
54769W        W27029  11.414   3.299   4.753
54770W        W27030   1.258   5.743   4.454
54771W        W27031  36.612  36.026  10.624
54772W        W27032  18.540  40.813   3.922
54773W        W27033  10.324  30.452   3.884
54774W        W27034  20.982   0.739   2.706
54775W        W27035  12.719  26.069   1.277
54776W        W27036  40.570   5.941   0.489
54777W        W27037  14.474  33.553  13.039
54778W        W27038  37.835  24.667   1.227
54779W        W27039   7.262   8.546   3.642
54780W        W27040   0.351  24.985   1.355
54781W        W27041  34.480  42.096   1.654
54782W        W27042  40.066  16.570  13.502
54783W        W27043   0.501   9.229   4.165
54784W        W27044  34.446  35.292   4.678
54785W        W27045   6.504  31.685  13.368
54786W        W27046   3.299  24.419  14.191
54787W        W27047   2.021  12.372   0.453
54788W        W27048  16.632  28.838   4.104
54789W        W27049  16.253  23.675   1.337
54790W        W27050  12.672  25.766   2.268
54791W        W27051  38.401  16.655   3.103
54792W        W27052   1.523  30.390   2.144
54793W        W27053  44.474  36.838  14.985
54794W        W27054   2.421  16.262  12.812
54795W        W27055   9.383  42.067  12.044
54796W        W27056  32.825  11.915  14.060
54797W        W27057  25.935  18.950   4.091
54798W        W27058  11.857  40.050  11.550
54799W        W27059  38.582  13.242  14.306
54800W        W27060  38.928  24.278  13.916
54801W        W27061  33.551   6.802   1.543
54802W        W27062  24.627  24.196   4.323
54803W        W27063   7.371   0.752   3.201
54804W        W27064  40.380   7.399   3.533
54805W        W27065  20.690  37.360  12.117
54806W        W27066  17.916  37.091   3.314
54807W        W27067   1.574  36.439  11.472
54808W        W27068  25.432   4.252  13.605
54809W        W27069   5.188   0.519  11.018
54810W        W27070  41.618  12.368   3.775
54811W        W27071  24.132  21.273  13.735
54812W        W27072  22.251  11.410   4.637
54813W        W27073   2.825  11.362   2.185
54814W        W27074   3.747  14.648   3.384
54815W        W27075  32.502  13.791  11.917
54816W        W27076  16.757  23.242   1.414
54817W        W27077  25.841  39.292  13.065
54818W        W27078   4.616  21.224   0.015
54819W        W27079   3.458  29.880   1.046
54820W        W27080  31.595  15.284  11.948
54821W        W27081  28.200  28.957   0.376
54822W        W27082  22.475   8.836  10.942
54823W        W27083  11.559  17.705   3.139
54824W        W27084  27.394  12.256   3.849
54825W        W27085  36.586   2.368   4.755
54826W        W27086  11.231  19.319   1.878
54827W        W27087  16.770  39.331  14.008
54828W        W27088   9.449  25.608  13.427
54829W        W27089  30.864  39.906   0.770
54830W        W27090  23.533  22.579   3.093
54831W        W27091  15.232   6.946  11.079
54832W        W27092  27.965  24.434   3.997
54833W        W27093   4.245  36.120   3.897
54834W        W27094  12.922  35.582  11.132
54835W        W27095  30.668  32.909   0.102
54836W        W27096  17.128  10.244   1.700
54837W        W27097  20.587  41.989   3.663
54838W        W27098  34.433  41.369  14.906
54839W        W27099  42.017  25.558  12.607
54840W        W27100  42.708  30.315   2.334
54841W        W27101  40.816  36.785   0.765
54842W        W27102  13.803  27.133   2.404
54843W        W27103  29.730  37.765   1.783
54844W        W27104  15.155  35.979   0.076
54845W        W27105  31.932  30.119  14.831
54846W        W27106  14.740  31.297   4.642
54847W        W27107  41.763   7.670   1.583
54848W        W27108  18.565  23.598  11.198
54849W        W27109  29.679   3.708  14.432
54850W        W27110  42.432  39.322   1.262
54851W        W27111  11.845   8.003  12.207
54852W        W27112  21.169  38.370  11.555
54853W        W27113  36.338  41.311  13.467
54854W        W27114   2.534  21.569  13.890
54855W        W27115  39.937   7.732  12.793
54856W        W27116   5.462   7.418   4.835
54857W        W27117  34.639  26.745  13.976
54858W        W27118   1.881  31.688   3.264
54859W        W27119  37.778   1.027  12.586
54860W        W27120   6.103  22.395  10.220
54861W        W27121  32.140   9.629   3.281
54862W        W27122  38.012  10.223  10.980
54863W        W27123  12.656  36.106  14.458
54864W        W27124  35.984  43.793  12.542
54865W        W27125   3.712  27.946   2.809
54866W        W27126  31.205   0.403   3.233
54867W        W27127  21.526   0.287  13.884
54868W        W27128   5.202  15.281  11.715
54869W        W27129   5.747  36.064  11.475
54870W        W27130   2.871  19.884   4.782
54871W        W27131  42.433  38.391   1.757
54872W        W27132  34.004  36.349  13.065
54873W        W27133   6.374  26.476   2.392
54874W        W27134  31.545  11.280  14.166
54875W        W27135   2.906  18.180  12.356
54876W        W27136  42.452   9.360  12.874
54877W        W27137   8.813  21.043   0.707
54878W        W27138  18.703   7.406   0.019
54879W        W27139  36.852  39.247  14.807
54880W        W27140   6.964  19.001   3.811
54881W        W27141   3.263  35.392  11.942
54882W        W27142  38.822   0.147  13.458
54883W        W27143   2.691  37.157  11.124
54884W        W27144  40.441  34.624   3.992
54885W        W27145  30.250  11.803  12.956
54886W        W27146   1.699  12.268   0.926
54887W        W27147   9.620  41.936   2.457
54888W        W27148   2.429  34.886   4.192
54889W        W27149   3.765  36.172   1.244
54890W        W27150  29.578  39.000   1.320
54891W        W27151  35.928  18.818   0.858
54892W        W27152   3.243  36.168  11.639
54893W        W27153   0.537  19.606   1.741
54894W        W27154  33.829  28.290  13.064
54895W        W27155   2.012  17.533  13.848
54896W        W27156  42.966  37.574   4.265
54897W        W27157  14.148  40.069  11.028
54898W        W27158  37.560  21.705   4.227
54899W        W27159  14.286  41.735   2.358
54900W        W27160  33.030  42.954  12.789
54901W        W27161  28.921  11.691   3.535
54902W        W27162  27.515   5.405  13.058
54903W        W27163  39.909  41.424  14.280
54904W        W27164   7.253  29.564  11.643
54905W        W27165  33.584   8.265   9.783
54906W        W27166  39.770   9.820  12.540
54907W        W27167  35.358  18.533  14.065
54908W        W27168  22.418  39.402   0.249
54909W        W27169  32.964   5.683  12.811
54910W        W27170  42.452  44.994   1.455
54911W        W27171  44.988   0.762  14.000
54912W        W27172  37.899  11.714  14.291
54913W        W27173  26.121  15.698   0.248
54914W        W27174  13.658  10.682   2.426
54915W        W27175  30.339  33.101   1.921
54916W        W27176   8.747  19.674  14.379
54917W        W27177  24.451  26.526  10.630
54918W        W27178  22.388  30.550   2.234
54919W        W27179  39.849  11.385  12.039
54920W        W27180  34.567  33.018  12.903
54921W        W27181  44.278  43.270  11.573
54922W        W27182  31.475  33.294  14.709
54923W        W27183  20.354  30.395   3.162
54924W        W27184  33.916   5.933   1.731
54925W        W27185  11.374  37.470  12.114
54926W        W27186  43.532   2.980   3.292
54927W        W27187  23.317  10.834   4.254
54928W        W27188  36.144  26.716   0.460
54929W        W27189   9.129  29.757  14.730
54930W        W27190  44.332  40.512  12.305
54931W        W27191  37.129  41.923   1.266
54932W        W27192   7.637  31.472  12.446
54933W        W27193   2.298   8.733   1.233
54934W        W27194  24.564  21.220   1.707
54935W        W27195  41.379   5.265   3.527
54936W        W27196  31.408   6.012  11.567
54937W        W27197  10.033   7.581   4.949
54938W        W27198  24.273  11.582  13.377
54939W        W27199  41.314   4.813  10.667
54940W        W27200  15.415  17.303  13.939
54941W        W27201  25.479  21.697   3.170
54942W        W27202   3.060  33.825  14.307
54943W        W27203  39.887  18.354   4.644
54944W        W27204  36.495   2.157  11.596
54945W        W27205  31.231  25.578   1.307
54946W        W27206   5.062  43.507   2.295
54947W        W27207  14.718  15.326   1.781
54948W        W27208  28.355   1.241  12.840
54949W        W27209  34.863  29.534  12.498
54950W        W27210  40.612  34.696  10.691
54951W        W27211  37.862  35.608   3.741
54952W        W27212  12.291  35.812  14.162
54953W        W27213  31.972  16.263  11.951
54954W        W27214   0.294  27.230  12.127
54955W        W27215  41.469  13.377  10.660
54956W        W27216  25.496  11.952   2.745
54957W        W27217  35.296  43.969  11.339
54958W        W27218  37.132  37.965   3.744
54959W        W27219   5.932  15.673   0.352
54960W        W27220  13.823   0.711  11.702
54961W        W27221   3.963   9.164   3.615
54962W        W27222  27.838   5.779  12.943
54963W        W27223   8.257  34.096  11.714
54964W        W27224  36.901  40.260   0.287
54965W        W27225  40.851  28.977   1.775
54966W        W27226  40.765   2.639  12.819
54967W        W27227  35.923  36.473  12.654
54968W        W27228  31.561  14.184   3.002
54969W        W27229  16.245  32.415   4.703
54970W        W27230  38.282  29.740   1.755
54971W        W27231  31.303  13.401  12.491
54972W        W27232  30.530  28.691   2.710
54973W        W27233  23.170  41.044   0.857
54974W        W27234   5.947  35.871   2.814
54975W        W27235  22.047  36.338   3.265
54976W        W27236  15.480  16.762  12.309
54977W        W27237  42.302  17.226  13.983
54978W        W27238  44.575  37.007  14.344
54979W        W27239  21.043   1.995  13.312
54980W        W27240  15.461   9.723  13.475
54981W        W27241  29.458  39.195  12.189
54982W        W27242  32.554   7.201   2.291
54983W        W27243  43.308  11.560  14.293
54984W        W27244  30.934  44.588   0.161
54985W        W27245   3.959   0.265  11.984
54986W        W27246  41.457  32.472  11.595
54987W        W27247  15.583  25.635  12.542
54988W        W27248  30.532  35.500  13.079
54989W        W27249  16.149  14.136   4.222
54990W        W27250   4.818  26.962   3.782
54991W        W27251   8.169   1.103   3.662
54992W        W27252  32.790  14.204  12.989
54993W        W27253   6.687  10.204  11.049
54994W        W27254  15.767  19.761   2.236
54995W        W27255  37.477   9.128   2.600
54996W        W27256  18.991  35.674   4.847
54997W        W27257  37.474  21.175   3.219
54998W        W27258  11.604   8.724   0.479
54999W        W27259  22.819  24.085   4.670
55000W        W27260  33.138  42.525  12.516
55001W        W27261  17.291  38.634   0.303
55002W        W27262  33.592  12.334  13.966
55003W        W27263  23.455  22.005   4.656
55004W        W27264  31.436  25.982   0.853
55005W        W27265   2.777   8.626  13.921
55006W        W27266  33.455  36.627   0.435
55007W        W27267   3.482  17.662   0.670
55008W        W27268   6.139  11.278   0.239
55009W        W27269  21.834  43.391  12.222
55010W        W27270  26.976   1.847  11.959
55011W        W27271  44.398  41.793  13.336
55012W        W27272  19.240  25.996  12.985
55013W        W27273  25.541  43.899   4.188
55014W        W27274  16.821  18.183   4.560
55015W        W27275  13.332  42.961  14.074
55016W        W27276  19.232  22.173   1.670
55017W        W27277  11.671  41.962   2.382
55018W        W27278  26.736  41.160  12.041
55019W        W27279  36.816   2.322  13.571
55020W        W27280   3.889  37.376  12.087
55021W        W27281  22.979  26.613   2.470
55022W        W27282   9.870  42.524   0.268
55023W        W27283   9.880  36.422   0.411
55024W        W27284  42.933   9.816  14.804
55025W        W27285  18.814  39.499   4.092
55026W        W27286  11.646   7.259  10.212
55027W        W27287  43.574   6.338  10.026
55028W        W27288  11.944  19.227   4.030
55029W        W27289  33.848  14.687  10.287
55030W        W27290   8.711   5.492  14.627
55031W        W27291  41.873  42.621  11.825
55032W        W27292  15.096  17.756  10.980
55033W        W27293  33.046  24.668   0.860
55034W        W27294  42.951  23.312   1.807
55035W        W27295  34.430  21.736  12.464
55036W        W27296  30.554  38.336  14.308
55037W        W27297  27.646   5.442   3.317
55038W        W27298  26.648  40.462   1.849
55039W        W27299  25.679  29.851   3.227
55040W        W27300  19.346  42.754  12.573
55041W        W27301   9.075  34.393   0.295
55042W        W27302   5.862  40.996   4.020
55043W        W27303  27.735  26.563   2.298
55044W        W27304  14.199  44.570   2.846
55045W        W27305  11.257  39.245   4.608
55046W        W27306   1.914  36.778  13.861
55047W        W27307  43.201   4.912   4.183
55048W        W27308  13.701  11.408   4.182
55049W        W27309  31.841   8.623  11.499
55050W        W27310  38.914   5.757  12.583
55051W        W27311   1.939  33.961   1.687
55052W        W27312  37.157   5.668  10.120
55053W        W27313  18.594   1.028  13.447
55054W        W27314  30.158  18.324  14.107
55055W        W27315  27.316  23.928   1.934
55056W        W27316  36.400  40.051   3.289
55057W        W27317  18.470   7.816  12.874
55058W        W27318  30.415  39.095  14.812
55059W        W27319  16.378  33.202   3.188
55060W        W27320  36.623  44.936   1.969
55061W        W27321   0.927  32.508  12.507
55062W        W27322  35.042   7.032   0.312
55063W        W27323  19.687  39.326   1.472
55064W        W27324  23.528  25.728   2.301
55065W        W27325  17.102  18.507   2.290
55066W        W27326  33.020  34.421  12.962
55067W        W27327  32.903   4.750  14.162
55068W        W27328  41.483   3.763   2.793
55069W        W27329   2.445   6.180   3.045
55070W        W27330  16.725  21.016  14.349
55071W        W27331  38.493   8.375   4.123
55072W        W27332  40.532   4.733   3.706
55073W        W27333  43.254  40.094  14.546
55074W        W27334  43.488  15.315  12.853
55075W        W27335  37.583   8.195   5.148
55076W        W27336  14.299  24.565  12.037
55077W        W27337  41.076  10.180  12.590
55078W        W27338  43.426  14.822  11.975
55079W        W27339  14.277  27.115  12.877
55080W        W27340  18.462  10.879   3.717
55081W        W27341  20.429  26.046  11.536
55082W        W27342  23.023  22.763   4.670
55083W        W27343  41.513  17.364   0.326
55084W        W27344   7.685  37.873   1.267
55085W        W27345  41.220  10.468   4.136
55086W        W27346  22.664  22.001  10.625
55087W        W27347   6.015  42.008   2.704
55088W        W27348  20.947  40.638   0.395
55089W        W27349  34.289  17.043  11.227
55090W        W27350  22.731  23.183   2.090
55091W        W27351  28.932   0.582  13.978
55092W        W27352   5.752  22.240   3.370
55093W        W27353  40.707   9.145   1.748
55094W        W27354  39.299  22.956  13.910
55095W        W27355  35.457  37.245  12.963
55096W        W27356  21.832   1.356  10.917
55097W        W27357  34.334   4.958   3.135
55098W        W27358   1.335   4.924   3.416
55099W        W27359  14.171  34.498  11.512
55100W        W27360   0.883  14.462   3.902
55101W        W27361  44.537  44.844   2.312
55102W        W27362   6.316  27.950  14.195
55103W        W27363  19.027  29.198  10.774
55104W        W27364  35.862  17.203   2.769
55105W        W27365  30.555  33.834   2.347
55106W        W27366  31.554  26.499   0.732
55107W        W27367  21.542  37.282   1.536
55108W        W27368  44.928  32.944  14.840
55109W        W27369  32.896  38.432   0.927
55110W        W27370  28.411  26.556  14.383
55111W        W27371  13.758  44.770   3.763
55112W        W27372   8.490  35.160  13.237
55113W        W27373  12.785  23.145   0.501
55114W        W27374  29.437  23.713   3.621
55115W        W27375  20.963  31.331  13.725
55116W        W27376  43.391   2.771   2.623
55117W        W27377  37.391   5.957  10.575
55118W        W27378   4.147  11.124  12.511
55119W        W27379  34.566   8.608   4.092
55120W        W27380  32.763  19.732  13.257
55121W        W27381   7.878   4.257  14.541
55122W        W27382  22.896  23.649  10.715
55123W        W27383  28.027  18.782  10.562
55124W        W27384   1.702  38.397  13.430
55125W        W27385   8.706  43.347  13.476
55126W        W27386  42.475  10.961  10.955
55127W        W27387  28.041  13.061  10.484
55128W        W27388  37.007  22.242  14.848
55129W        W27389  41.822   4.289   1.101
55130W        W27390  30.381  15.773   2.405
55131W        W27391   4.210  12.058   3.776
55132W        W27392  41.896  11.626   3.228
55133W        W27393  28.219   3.027   3.171
55134W        W27394  10.744   2.661  13.801
55135W        W27395  21.705  34.589  13.771
55136W        W27396  20.057  24.800   0.305
55137W        W27397  31.867   3.277   4.570
55138W        W27398  30.136  25.714   4.177
55139W        W27399  12.311  11.675  11.459
55140W        W27400  12.190  28.910  13.972
55141W        W27401  37.421  25.272   3.162
55142W        W27402  39.245  13.169   1.384
55143W        W27403  12.702   7.728   2.634
55144W        W27404  16.095  34.977   1.805
55145W        W27405   4.767  22.938   0.978
55146W        W27406   7.768   0.226   2.332
55147W        W27407  18.718  32.582   1.706
55148W        W27408  28.146   8.922  13.281
55149W        W27409  33.252  29.769  12.591
55150W        W27410  15.180  12.438   1.442
55151W        W27411  37.475   7.265  11.034
55152W        W27412  31.510  34.423  10.715
55153W        W27413   6.266  42.262   3.275
55154W        W27414  10.838  11.809   3.217
55155W        W27415  17.655  35.418  13.435
55156W        W27416   9.556  34.364   4.200
55157W        W27417  11.345  31.904  12.545
55158W        W27418   6.422  32.137  13.565
55159W        W27419  21.335  23.716   1.700
55160W        W27420  24.942  20.162   0.358
55161W        W27421  11.793   9.001  12.498
55162W        W27422   5.944  12.720  12.950
55163W        W27423  42.297  34.125  12.906
55164W        W27424  23.980  25.962   4.269
55165W        W27425   5.487  30.922  14.487
55166W        W27426  13.859  40.328   4.143
55167W        W27427  30.237  27.098  11.165
55168W        W27428  27.202  31.778   3.160
55169W        W27429  38.531   0.273  13.874
55170W        W27430  14.086  44.172   4.549
55171W        W27431  12.795  21.835  14.562
55172W        W27432   6.309  28.527   1.879
55173W        W27433  38.813  12.897  12.551
55174W        W27434  18.020   3.771  14.327
55175W        W27435   7.099   8.469   1.351
55176W        W27436  19.998  39.377   0.773
55177W        W27437  40.002   3.517  12.558
55178W        W27438   3.506  27.405  10.266
55179W        W27439  30.448   0.577   0.651
55180W        W27440  13.650  28.081  11.103
55181W        W27441  17.634  25.233  12.077
55182W        W27442  22.236  19.004   1.411
55183W        W27443   3.994  14.428   4.168
55184W        W27444   0.577  14.998  13.077
55185W        W27445  36.504  18.676   2.825
55186W        W27446  38.591  35.616   0.269
55187W        W27447  15.129  30.439   4.601
55188W        W27448  13.467  22.011   1.213
55189W        W27449   5.935   9.168  11.978
55190W        W27450  33.145   6.739   4.372
55191W        W27451  19.106  37.504  12.618
55192W        W27452  33.028  20.611   4.637
55193W        W27453  25.605  42.413  14.713
55194W        W27454   7.204  44.845   2.736
55195W        W27455   8.070  12.247   4.528
55196W        W27456  25.688  40.755   4.266
55197W        W27457  27.690  30.494  11.069
55198W        W27458   4.289  40.818   4.198
55199W        W27459  20.026  19.614   4.201
55200W        W27460   9.308  37.377   1.990
55201W        W27461  31.445  18.321   1.186
55202W        W27462  41.906  32.671   0.152
55203W        W27463   6.478  37.173  11.895
55204W        W27464  14.260  32.668  11.045
55205W        W27465  40.295  42.537  14.774
55206W        W27466  15.544  22.481   1.741
55207W        W27467  15.535  31.005  13.288
55208W        W27468  22.447   0.353  11.977
55209W        W27469  10.093   2.438   3.255
55210W        W27470  28.042  30.919   5.050
55211W        W27471  20.259  24.518   0.695
55212W        W27472  17.792  43.079  12.444
55213W        W27473   6.822  40.819   3.109
55214W        W27474  36.431  13.597   0.330
55215W        W27475   0.249   9.276  12.401
55216W        W27476  33.432  33.675  12.867
55217W        W27477  29.148  23.758  14.839
55218W        W27478   4.796  34.391  13.963
55219W        W27479  33.223  36.449  10.793
55220W        W27480  11.161  30.155   0.382
55221W        W27481  43.077   2.443  14.046
55222W        W27482  28.971  21.125  14.510
55223W        W27483  14.374  20.260  11.050
55224W        W27484   4.484   7.184   4.634
55225W        W27485   3.681  24.742  11.214
55226W        W27486  39.705  44.015   3.745
55227W        W27487  22.126  22.182   5.399
55228W        W27488  18.915   2.961   2.567
55229W        W27489  13.077  11.381   2.445
55230W        W27490  33.652  31.399  10.832
55231W        W27491  18.977  37.015  11.164
55232W        W27492   8.753  29.526   0.046
55233W        W27493  26.825  34.947   1.274
55234W        W27494   0.468   8.637  13.961
55235W        W27495  32.619   9.289   1.372
55236W        W27496  26.036   5.712   4.212
55237W        W27497  15.399  29.902   0.844
55238W        W27498  41.744  10.597   1.227
55239W        W27499  13.072  12.157  12.000
55240W        W27500  42.846  21.671  10.900
55241W        W27501   8.846  44.868   4.718
55242W        W27502  20.287  32.019   0.300
55243W        W27503   8.212  35.457   0.499
55244W        W27504  24.262  19.113   2.279
55245W        W27505  29.426  38.864  10.933
55246W        W27506  27.155  11.783  14.005
55247W        W27507  44.056   7.470  10.549
55248W        W27508   2.661  44.719  11.842
55249W        W27509  26.646  20.094  10.347
55250W        W27510  28.897  30.586   0.114
55251W        W27511   8.171   0.426   1.959
55252W        W27512  10.876  15.448  11.182
55253W        W27513  15.720   4.533   3.146
55254W        W27514  42.530  16.745  10.643
55255W        W27515  38.424  38.235  10.884
55256W        W27516  31.879  13.806  11.560
55257W        W27517  40.043  28.953  14.965
55258W        W27518  38.986  42.379  14.196
55259W        W27519  29.857  24.696   4.293
55260W        W27520  18.286  39.329  11.209
55261W        W27521   2.868  30.122  14.861
55262W        W27522  31.497  13.649   3.775
55263W        W27523   9.774  13.214   4.921
55264W        W27524  37.575  38.423  10.717
55265W        W27525   1.935  38.778   0.494
55266W        W27526  44.354  27.821   3.263
55267W        W27527  34.978  24.060  12.560
55268W        W27528   3.608  17.169   4.272
55269W        W27529  20.262  30.860  13.139
55270W        W27530  16.950   9.477   3.141
55271W        W27531  25.932  16.130  14.028
55272W        W27532  30.742  13.348  14.071
55273W        W27533  41.964  27.966  13.238
55274W        W27534  10.128  37.466   3.253
55275W        W27535   9.903  25.137  14.068
55276W        W27536   8.917  19.155   4.042
55277W        W27537  15.561  13.211   4.430
55278W        W27538  28.190  24.392   3.426
55279W        W27539  32.141  15.961  14.532
55280W        W27540  36.042  34.789  11.505
55281W        W27541  11.276  10.264   1.819
55282W        W27542  32.012   9.602   0.724
55283W        W27543  10.403  36.097  11.652
55284W        W27544  16.192  31.491  13.901
55285W        W27545  15.983  24.905  14.343
55286W        W27546  10.458  24.176   0.350
55287W        W27547  11.637  26.717  11.637
55288W        W27548  43.583   6.965   0.314
55289W        W27549  41.559   3.268   3.674
55290W        W27550  18.249  19.601   3.864
55291W        W27551  32.396  39.994  12.102
55292W        W27552  16.190   9.252   1.873
55293W        W27553  35.769  38.278  14.930
55294W        W27554  39.004  41.918   1.679
55295W        W27555   7.649   3.859   3.332
55296W        W27556  29.866  17.462  11.599
55297W        W27557  32.998  24.085   0.203
55298W        W27558  39.073  42.699   1.489
55299W        W27559  28.110  43.107  11.421
55300W        W27560  40.114  21.765  14.235
55301W        W27561   0.687  20.166  14.846
55302W        W27562  28.925  38.342   2.779
55303W        W27563  18.829   8.694   0.333
55304W        W27564   0.757   5.215  12.369
55305W        W27565  11.445  19.430   2.340
55306W        W27566  21.793  17.567  14.345
55307W        W27567  20.737  29.493  13.355
55308W        W27568  27.826  15.300  11.550
55309W        W27569  21.177  36.876  14.352
55310W        W27570   0.895  11.175   4.550
55311W        W27571  33.451  16.086  11.503
55312W        W27572  31.563  17.570   2.716
55313W        W27573  12.222  41.365   3.721
55314W        W27574  40.216   4.801   4.143
55315W        W27575  19.870  30.478  14.343
55316W        W27576  29.478   6.034  12.395
55317W        W27577  19.640  12.678  13.510
55318W        W27578  32.289   1.174  13.040
55319W        W27579  40.756  33.195   0.720
55320W        W27580  16.373  26.116   3.349
55321W        W27581  19.104  30.966   2.702
55322W        W27582  24.967  36.081  13.684
55323W        W27583  13.613  42.811   2.327
55324W        W27584  12.930   2.945  14.989
55325W        W27585  13.691   6.395  11.149
55326W        W27586  30.089  33.658  12.963
55327W        W27587   2.184  15.373   0.831
55328W        W27588   0.468  38.288   2.819
55329W        W27589  11.593  37.967  13.938
55330W        W27590  33.506  16.690   0.310
55331W        W27591   6.825  35.579   4.576
55332W        W27592   4.312  40.127   2.629
55333W        W27593  32.912  12.067   0.387
55334W        W27594   9.288  14.299  11.597
55335W        W27595  38.188  43.011   3.351
55336W        W27596  29.692   3.974  11.734
55337W        W27597   8.257  10.081   0.934
55338W        W27598  19.858  35.211  13.570
55339W        W27599  16.052   1.869  13.119
55340W        W27600  22.165  43.870  12.936
55341W        W27601  24.543  19.999   1.861
55342W        W27602   7.325  12.399   3.159
55343W        W27603  40.572  31.421   0.237
55344W        W27604   0.691  29.000   0.692
55345W        W27605  18.204   3.329  11.951
55346W        W27606  16.756   8.191   3.137
55347W        W27607  35.194  39.944   1.005
55348W        W27608  12.200   9.404  12.986
55349W        W27609  34.615  36.973  10.734
55350W        W27610  12.631   4.772  12.026
55351W        W27611  42.199  29.059   2.882
55352W        W27612  31.089   2.473  13.475
55353W        W27613  30.969  22.589   9.829
55354W        W27614  30.576   5.263   2.449
55355W        W27615  31.995  26.272  10.551
55356W        W27616  30.883   4.385   2.343
55357W        W27617  25.645  22.659   2.617
55358W        W27618   0.456  16.042   4.799
55359W        W27619  24.001  26.293  11.166
55360W        W27620  34.847   6.973   1.221
55361W        W27621  28.563  33.954   4.774
55362W        W27622  16.969  34.160   3.172
55363W        W27623  31.360  39.021   3.673
55364W        W27624  10.637  22.277   0.444
55365W        W27625  39.920  35.542   1.663
55366W        W27626   0.536   5.126  11.003
55367W        W27627   8.394  36.158   1.702
55368W        W27628  14.120  18.155   1.012
55369W        W27629  26.599  41.572   3.778
55370W        W27630  39.959   0.162  12.404
55371W        W27631  34.917  21.571   0.240
55372W        W27632  29.876   6.693   2.188
55373W        W27633  34.430   4.919   0.791
55374W        W27634   2.111   6.675   0.279
55375W        W27635  44.355  14.838  11.990
55376W        W27636  40.109  14.234  13.848
55377W        W27637  15.181  36.099  11.846
55378W        W27638   6.986  11.127  14.073
55379W        W27639  24.398   3.396  11.694
55380W        W27640  24.062  10.350  14.486
55381W        W27641  35.627  12.348  13.021
55382W        W27642   2.782  33.732   1.080
55383W        W27643  39.779  21.583   3.750
55384W        W27644  33.959   8.318   3.324
55385W        W27645  28.377  18.182  13.381
55386W        W27646  41.051  30.188  12.622
55387W        W27647  44.391  14.416  11.660
55388W        W27648  31.127  25.241  11.148
55389W        W27649  41.824  24.748  13.160
55390W        W27650  25.480  21.047  10.267
55391W        W27651  42.261   8.873  12.978
55392W        W27652  22.219  26.938   1.346
55393W        W27653  12.441   2.232   1.834
55394W        W27654  31.449  30.130   2.646
55395W        W27655  44.895  44.281   4.639
55396W        W27656  12.967   9.823   1.520
55397W        W27657   7.718  20.172  13.928
55398W        W27658  24.282  44.731  13.226
55399W        W27659  23.229  35.380  12.974
55400W        W27660  34.936  10.738   3.599
55401W        W27661  16.599  13.373   2.344
55402W        W27662  28.577  42.493  14.781
55403W        W27663   0.355  11.123  12.639
55404W        W27664  15.965  39.658  12.464
55405W        W27665   3.059  30.489   0.243
55406W        W27666  10.801  38.163  13.128
55407W        W27667   3.797  40.413  14.520
55408W        W27668  36.915  27.051  13.922
55409W        W27669  37.944   9.774   0.335
55410W        W27670  22.064  13.281   1.001
55411W        W27671  21.630  38.507   4.067
55412W        W27672  42.100  13.271   2.703
55413W        W27673  37.378  31.614  11.711
55414W        W27674  18.874   6.962  10.253
55415W        W27675  43.337  14.703   3.606
55416W        W27676  21.715   4.776   3.685
55417W        W27677  18.217  26.595  14.575
55418W        W27678  35.476  25.019  12.880
55419W        W27679  30.717  43.943   4.768
55420W        W27680  15.552  37.064  13.658
55421W        W27681  37.917  17.574   1.635
55422W        W27682  20.318  37.021  11.972
55423W        W27683   9.719  36.287   3.535
55424W        W27684  17.451  36.622  11.955
55425W        W27685  36.497  28.243  14.378
55426W        W27686  40.521  20.041  12.465
55427W        W27687  18.696  30.353  12.591
55428W        W27688  34.537  44.528  11.576
55429W        W27689   3.329   6.923  13.018
55430W        W27690   1.165   6.649   1.438
55431W        W27691  34.487   3.391  13.859
55432W        W27692   8.276   7.636   3.257
55433W        W27693  23.061  23.938  11.122
55434W        W27694  19.538   6.690  14.442
55435W        W27695  19.341  18.303  11.129
55436W        W27696   9.722   2.584  12.600
55437W        W27697  14.252   4.333  12.202
55438W        W27698  31.240  27.000  14.863
55439W        W27699  26.644  21.243   3.320
55440W        W27700  15.190  24.184   3.170
55441W        W27701  18.515  27.735   4.812
55442W        W27702  26.888  24.037   5.153
55443W        W27703   6.766   1.535  12.199
55444W        W27704  11.591  18.083  11.226
55445W        W27705   3.476   8.197   1.005
55446W        W27706  25.784  40.378   3.427
55447W        W27707  20.725  10.981  11.096
55448W        W27708  30.439  14.630  13.083
55449W        W27709   8.182  24.403   0.866
55450W        W27710  29.423   1.454  12.550
55451W        W27711  22.990  14.228   3.570
55452W        W27712   9.123  27.399  12.081
55453W        W27713  33.098  16.865  10.346
55454W        W27714  36.521  31.475  11.078
55455W        W27715  40.507   6.620   2.796
55456W        W27716  33.501   1.479   2.733
55457W        W27717   5.983  26.680   4.263
55458W        W27718  25.456  20.500   3.150
55459W        W27719  30.559  26.966   1.962
55460W        W27720  21.512  41.358  11.526
55461W        W27721  33.430  40.489   4.446
55462W        W27722   0.562  33.407  14.983
55463W        W27723  24.218  14.693   3.669
55464W        W27724   6.650  23.123   0.773
55465W        W27725  22.499  38.123   0.835
55466W        W27726  27.985  26.891   4.865
55467W        W27727  33.155  31.085  11.491
55468W        W27728   1.399  10.224   0.033
55469W        W27729  10.303  35.290   0.379
55470W        W27730  38.938  36.122  13.022
55471W        W27731  36.302   4.825  14.460
55472W        W27732  37.070   9.435   4.704
55473W        W27733  39.774  21.085  11.339
55474W        W27734  40.530  28.545  11.053
55475W        W27735  34.090  17.734  10.743
55476W        W27736  18.948   0.391  13.972
55477W        W27737  36.051  16.276  13.402
55478W        W27738  37.318   3.702  12.950
55479W        W27739   8.468  35.424   3.703
55480W        W27740  15.653  37.148  12.460
55481W        W27741  13.484   0.058  13.985
55482W        W27742  42.302  28.177   2.711
55483W        W27743  22.086  25.246  14.169
55484W        W27744   7.881  30.474   1.280
55485W        W27745  21.542  29.021  10.810
55486W        W27746  38.547   4.499  11.928
55487W        W27747  10.831   1.920   1.290
55488W        W27748  16.830  13.745  14.827
55489W        W27749  44.935  29.091  11.551
55490W        W27750   9.270  44.285   0.600
55491W        W27751  26.341  36.985   4.137
55492W        W27752  16.852  17.969   3.628
55493W        W27753   0.850  34.889  14.369
55494W        W27754   2.356  15.404  13.549
55495W        W27755   3.209   8.464  14.469
55496W        W27756  28.933   0.011  10.801
55497W        W27757  10.699  36.941   1.606
55498W        W27758  14.151  40.081   0.808
55499W        W27759   8.395  41.450   0.807
55500W        W27760  26.195  30.373  11.112
55501W        W27761  12.157  17.988  14.829
55502W        W27762  10.387  16.763  11.502
55503W        W27763  26.646  30.640  14.151
55504W        W27764  19.999   6.268  11.074
55505W        W27765   1.574  44.134   1.333
55506W        W27766  15.999  10.483   1.298
55507W        W27767  38.372  19.527   2.210
55508W        W27768  37.160  10.602  14.911
55509W        W27769   5.256   9.784   4.684
55510W        W27770  38.948  16.239  12.055
55511W        W27771  44.660   5.316  11.890
55512W        W27772   2.811  21.612  10.628
55513W        W27773  12.590  40.384   3.430
55514W        W27774  21.569   6.004   4.050
55515W        W27775  31.127  16.792   2.216
55516W        W27776  42.795  14.002  13.850
55517W        W27777  16.061  14.203  14.926
55518W        W27778  14.033   8.227   1.749
55519W        W27779   1.480   3.060   3.730
55520W        W27780  15.716  17.973   2.364
55521W        W27781  38.647  31.589   4.255
55522W        W27782  36.579  27.725  13.232
55523W        W27783   3.809  42.398   3.254
55524W        W27784  41.994  11.217  14.474
55525W        W27785  32.298  21.786   2.799
55526W        W27786  19.606  39.925  12.775
55527W        W27787  41.911  17.315   1.800
55528W        W27788  31.418  38.523   3.710
55529W        W27789  12.409  18.054  12.071
55530W        W27790  33.164  21.715  13.024
55531W        W27791  31.542  10.592   3.822
55532W        W27792  16.052  42.253  11.524
55533W        W27793  10.177  20.978   1.784
55534W        W27794  28.637   7.736  11.938
55535W        W27795  25.653  10.971   3.874
55536W        W27796   0.887  19.276  14.645
55537W        W27797  43.365  12.640  12.874
55538W        W27798  10.875  14.032   2.920
55539W        W27799  39.534  12.800   0.464
55540W        W27800  21.259   5.899   2.352
55541W        W27801  33.410  26.514  12.008
55542W        W27802  31.402  43.333   4.618
55543W        W27803  36.981  35.275   3.782
55544W        W27804  23.144  19.289  12.125
55545W        W27805   4.927  27.340  10.190
55546W        W27806   1.981  40.550  10.729
55547W        W27807  37.147  26.098  12.086
55548W        W27808   6.071  23.013  13.524
55549W        W27809  43.371   2.173   0.404
55550W        W27810   3.101  16.214   3.689
55551W        W27811  32.371  13.989  11.449
55552W        W27812  33.444  35.390   2.537
55553W        W27813  14.713  17.367  12.565
55554W        W27814   9.934   4.785   1.824
55555W        W27815  23.802  25.716   0.784
55556W        W27816  19.889   1.026  11.705
55557W        W27817  40.802   4.321  11.146
55558W        W27818  30.631  24.331   4.259
55559W        W27819  27.166  36.234  13.321
55560W        W27820  22.320  39.374   3.417
55561W        W27821  17.156  12.877  14.792
55562W        W27822   7.356  21.285   2.807
55563W        W27823   4.885   6.274  13.452
55564W        W27824  32.565   4.818  11.097
55565W        W27825  24.634  21.152  12.094
55566W        W27826  34.954   0.721   1.396
55567W        W27827  34.421  23.852  13.985
55568W        W27828  20.675  39.592  13.952
55569W        W27829   9.175  10.968   2.495
55570W        W27830  43.733  34.851   3.281
55571W        W27831  20.482  16.308   3.422
55572W        W27832   1.009  18.616   2.997
55573W        W27833   5.948  14.904  12.495
55574W        W27834   8.262  35.536   4.782
55575W        W27835  22.425   6.028  13.569
55576W        W27836  27.464  35.610  12.989
55577W        W27837  39.875  22.113   4.314
55578W        W27838  43.555  16.115  11.035
55579W        W27839  24.582   6.973  14.836
55580W        W27840  33.635  41.488  11.250
55581W        W27841  26.633   2.939   1.956
55582W        W27842  26.728  29.482  12.125
55583W        W27843  15.532   0.766  14.339
55584W        W27844  26.234  13.358  13.348
55585W        W27845  34.994  14.235   9.975
55586W        W27846  32.536  26.348   4.526
55587W        W27847  31.595  31.739  11.778
55588W        W27848   4.266   2.327   1.283
55589W        W27849   1.206  14.625   1.468
55590W        W27850  26.813   7.565  10.822
55591W        W27851  30.659  39.467   0.956
55592W        W27852   8.840  23.727   1.941
55593W        W27853  17.709   8.971   4.972
55594W        W27854  33.229  40.271  10.455
55595W        W27855  35.435  12.112   3.632
55596W        W27856   8.840  14.716   4.513
55597W        W27857  24.247  21.498  12.358
55598W        W27858   4.753  35.582   0.212
55599W        W27859   4.356   9.453   3.442
55600W        W27860  11.120  43.330  10.735
55601W        W27861  38.791  18.210  12.192
55602W        W27862   2.231   5.606  13.889
55603W        W27863  28.187   1.927  12.021
55604W        W27864   7.213   3.187  10.600
55605W        W27865   7.379  16.195  12.024
55606W        W27866  40.830  36.150  14.499
55607W        W27867  11.947  27.631   1.001
55608W        W27868  14.155  20.532  10.659
55609W        W27869  34.112  23.151  11.523
55610W        W27870   0.433  39.513  11.192
55611W        W27871  20.565  39.655   4.300
55612W        W27872  29.473  41.576   3.646
55613W        W27873   9.279  27.027  11.736
55614W        W27874  44.360  31.169   2.814
55615W        W27875   2.184  39.907  14.389
55616W        W27876  20.562   6.154   0.305
55617W        W27877  42.312  22.885  13.801
55618W        W27878  10.204  16.798  12.772
55619W        W27879  21.042  25.515   1.436
55620W        W27880  25.533  13.600  13.488
55621W        W27881  30.133  41.234  14.282
55622W        W27882  15.626   4.182   1.328
55623W        W27883   8.772  43.155  14.516
55624W        W27884  17.838  24.010   0.309
55625W        W27885  17.863   9.926   1.862
55626W        W27886  24.715   2.494   4.073
55627W        W27887  19.737  29.629  14.906
55628W        W27888   8.603  14.892   4.079
55629W        W27889  14.338   9.363  14.433
55630W        W27890   6.978  38.047   4.056
55631W        W27891  30.151  41.309   0.240
55632W        W27892  32.042  36.702   3.726
55633W        W27893  33.089  41.374   4.695
55634W        W27894  43.471  41.502   5.077
55635W        W27895  12.875  44.318  13.330
55636W        W27896  25.020  30.066   0.638
55637W        W27897  14.172  23.989   2.179
55638W        W27898  21.507  22.012   5.392
55639W        W27899   1.538   1.003   2.406
55640W        W27900  18.034   6.336  12.185
55641W        W27901   6.267   0.665   4.931
55642W        W27902  26.723  13.694  10.476
55643W        W27903  29.857  20.042   1.487
55644W        W27904  19.530  12.022   1.232
55645W        W27905  37.852  23.456   3.730
55646W        W27906  18.217  32.643   3.149
55647W        W27907  38.858   8.916   3.142
55648W        W27908  22.525  17.788   0.735
55649W        W27909  17.888   7.711  12.034
55650W        W27910  38.396  34.593  14.807
55651W        W27911  44.740   2.822  11.453
55652W        W27912  25.248   9.751   2.631
55653W        W27913  10.914   6.729  11.947
55654W        W27914  41.953  33.388   0.788
55655W        W27915  23.516  36.718  13.287
55656W        W27916  40.994   9.190  12.444
55657W        W27917  20.950  27.701   1.726
55658W        W27918   0.201  18.722  14.263
55659W        W27919   3.407  34.843  14.551
55660W        W27920   5.423  44.644   4.578
55661W        W27921   3.221  28.931  11.049
55662W        W27922  42.321  28.193   1.732
55663W        W27923  31.148  26.852   0.734
55664W        W27924   4.504   4.427  11.995
55665W        W27925   6.933  44.057   0.806
55666W        W27926   1.256   0.791   2.790
55667W        W27927  41.201  36.738  14.549
55668W        W27928   8.450   9.109   0.815
55669W        W27929  25.139   7.379   0.500
55670W        W27930  23.793  32.137   3.161
55671W        W27931  10.805  21.354  14.390
55672W        W27932  29.231  35.286  14.491
55673W        W27933  17.584  33.447  12.090
55674W        W27934  18.975   9.680  14.768
55675W        W27935  37.911  13.880  11.014
55676W        W27936  35.059  15.772   3.840
55677W        W27937  29.989  44.270   3.666
55678W        W27938   9.557   6.847  13.058
55679W        W27939   0.232  39.596  14.502
55680W        W27940  13.302  17.523  14.934
55681W        W27941  14.299   7.981   1.364
55682W        W27942  22.027  25.233  11.579
55683W        W27943  26.632  10.857   0.950
55684W        W27944  34.294  36.471  14.433
55685W        W27945  37.978  37.916   4.333
55686W        W27946   6.759  25.509  11.841
55687W        W27947  28.547  27.687  10.900
55688W        W27948   5.742  11.166   4.164
55689W        W27949  39.285  13.231   2.324
55690W        W27950  30.523  22.707   1.285
55691W        W27951   6.184   6.331   1.862
55692W        W27952   9.210   9.764  10.691
55693W        W27953  27.872  34.463   3.546
55694W        W27954  10.319   3.968   0.384
55695W        W27955   6.871  14.167   4.110
55696W        W27956   4.534  12.878   1.891
55697W        W27957  35.459  36.112   2.325
55698W        W27958  17.948  24.082   2.625
55699W        W27959  42.461  37.826  10.687
55700W        W27960   5.800   2.747  14.395
55701W        W27961  28.063  23.773  13.691
55702W        W27962  15.287  11.759   1.706
55703W        W27963  16.045  20.366  13.908
55704W        W27964  30.346  27.445   4.651
55705W        W27965  38.725  44.344  12.741
55706W        W27966  17.196  15.891   4.582
55707W        W27967  30.841   6.458  11.581
55708W        W27968  27.887  36.763  12.527
55709W        W27969  35.189   4.354  14.246
55710W        W27970  37.872  31.456   1.995
55711W        W27971  42.993  41.676  14.073
55712W        W27972  40.315  13.845   2.806
55713W        W27973  37.910  35.291  13.970
55714W        W27974  10.691  19.511  14.580
55715W        W27975  22.807  34.603   1.791
55716W        W27976  19.795  17.665  11.936
55717W        W27977  25.682   5.909   1.975
55718W        W27978   5.446  31.179  12.802
55719W        W27979  29.568   2.829  10.629
55720W        W27980  33.384   1.302   3.226
55721W        W27981  25.089  27.926  10.506
55722W        W27982  39.056   2.668  11.061
55723W        W27983  12.127  39.535   4.372
55724W        W27984   4.886  35.886  14.034
55725W        W27985   3.469   6.115  13.424
55726W        W27986  25.057  41.137  13.245
55727W        W27987  19.068  31.861   1.010
55728W        W27988  23.539  34.574  14.963
55729W        W27989  13.775  41.424  10.910
55730W        W27990   0.504  34.318   3.158
55731W        W27991  24.938  25.676  10.702
55732W        W27992   4.410  24.138  11.866
55733W        W27993  22.830   4.920   3.629
55734W        W27994  18.084  37.754   2.349
55735W        W27995  44.255  21.120  10.980
55736W        W27996  40.977  15.804  12.496
55737W        W27997   2.108  33.453   1.875
55738W        W27998  32.991  30.166  10.818
55739W        W27999   2.052  10.685   4.204
55740W        W28000  14.741   4.222   3.280
55741W        W28001  32.661   0.543  13.605
55742W        W28002  32.885  23.285  13.962
55743W        W28003   0.150  29.049  12.048
55744W        W28004  40.566  44.429  13.850
55745W        W28005  38.874  34.934  13.577
55746W        W28006  42.984  33.439   5.449
55747W        W28007   7.252  26.627  14.305
55748W        W28008  39.453   0.828   2.066
55749W        W28009  36.029  32.565   4.657
55750W        W28010  28.416  33.015  11.848
55751W        W28011  39.563  34.365  13.048
55752W        W28012  34.461  18.549  10.662
55753W        W28013   2.145   9.425  11.495
55754W        W28014   1.257  16.378   4.479
55755W        W28015  40.127  34.577   3.549
55756W        W28016  40.294  29.842  13.869
55757W        W28017  22.762   8.194   3.200
55758W        W28018  38.331  38.367   1.822
55759W        W28019  41.738   0.966  11.058
55760W        W28020  12.693  19.683  12.465
55761W        W28021  40.925   7.643  11.572
55762W        W28022  14.725  41.369   3.680
55763W        W28023  18.299  22.079  11.821
55764W        W28024  42.347  40.626  14.263
55765W        W28025  40.781  36.865   3.564
55766W        W28026  33.027  27.100  11.135
55767W        W28027  15.253  34.510   4.935
55768W        W28028   6.813   3.123  11.155
55769W        W28029  24.494  40.128   1.974
55770W        W28030  32.130  23.053   3.795
55771W        W28031   9.757  17.458  13.341
55772W        W28032  14.238  23.828   1.655
55773W        W28033   2.305  18.312   2.382
55774W        W28034  21.288  15.528  10.678
55775W        W28035  25.660  34.347   2.787
55776W        W28036  28.086  37.530   2.408
55777W        W28037  16.113  33.946   1.997
55778W        W28038  17.530  35.028  12.399
55779W        W28039  32.038  14.156  14.713
55780W        W28040   6.959  38.063  12.823
55781W        W28041  41.061  15.291   0.655
55782W        W28042  29.215  12.910  12.390
55783W        W28043   1.014  16.751  12.796
55784W        W28044  21.811  27.757  13.492
55785W        W28045  38.004  28.864   3.301
55786W        W28046  26.182  37.454   1.666
55787W        W28047  26.433   2.842  14.818
55788W        W28048  44.788  40.515  12.578
55789W        W28049  30.013  18.331  12.657
55790W        W28050  10.655  27.384   2.075
55791W        W28051  40.890   1.274  13.464
55792W        W28052  16.649  23.561  12.659
55793W        W28053  21.407  28.179  12.776
55794W        W28054  15.883  28.107  10.619
55795W        W28055   6.774  29.344  10.700
55796W        W28056   8.917   4.767   1.912
55797W        W28057   8.210  25.583  13.976
55798W        W28058  21.039   5.192   3.133
55799W        W28059  24.727   3.399  13.245
55800W        W28060  15.777  21.086  13.311
55801W        W28061  32.534  24.478   4.330
55802W        W28062  34.437  34.952   3.072
55803W        W28063  39.021  31.536  14.011
55804W        W28064  44.748  20.652  14.710
55805W        W28065  27.739   2.771  10.507
55806W        W28066   0.514  18.148   1.969
55807W        W28067   1.278  38.341   3.787
55808W        W28068  27.097   9.870  13.978
55809W        W28069  34.434  34.841   4.407
55810W        W28070  30.308  17.218   1.228
55811W        W28071  16.688  25.363  11.412
55812W        W28072  22.555  19.660   2.774
55813W        W28073   6.663   4.770   0.228
55814W        W28074  26.963  35.072   2.243
55815W        W28075   3.238   6.418   3.074
55816W        W28076  36.359  29.438   0.797
55817W        W28077  17.648  32.836  13.911
55818W        W28078   4.891  39.153   3.396
55819W        W28079  24.176  34.284  14.512
55820W        W28080  27.051  43.723   2.275
55821W        W28081  25.640  29.471  12.028
55822W        W28082  11.233  19.579   3.764
55823W        W28083   2.758  25.995  11.052
55824W        W28084  14.583  38.990   0.068
55825W        W28085  38.392  36.140   0.333
55826W        W28086  25.575   1.028  10.067
55827W        W28087  44.429  27.731   0.819
55828W        W28088  10.902  30.503  12.082
55829W        W28089  21.354  18.358   4.221
55830W        W28090   5.854  42.500  10.649
55831W        W28091  30.754   3.836  10.663
55832W        W28092   0.754  43.774  14.056
55833W        W28093  35.381  17.815   2.293
55834W        W28094   0.510  26.589  12.734
55835W        W28095   7.464  11.668  12.066
55836W        W28096  25.326   8.611  14.749
55837W        W28097  26.786   1.468  11.505
55838W        W28098  20.823  17.698  12.890
55839W        W28099  13.147   9.361  13.480
55840W        W28100  41.837  39.554   3.708
55841W        W28101  31.986  18.164  13.786
55842W        W28102  38.014  28.219  14.845
55843W        W28103  16.058  27.038   3.675
55844W        W28104  43.742  44.159  10.823
55845W        W28105  11.120   0.286  13.039
55846W        W28106  41.217  17.649  11.457
55847W        W28107  43.841  19.500  14.852
55848W        W28108  38.535   7.343  13.989
55849W        W28109   2.276  29.689  13.426
55850W        W28110  14.639  43.397   0.233
55851W        W28111  41.434   3.465   1.377
55852W        W28112  32.221  18.356  12.033
55853W        W28113  28.143   3.050  10.650
55854W        W28114   4.868  41.449   4.388
55855W        W28115  20.689  19.333   5.041
55856W        W28116  14.712  17.409  10.968
55857W        W28117   2.015  27.743  10.848
55858W        W28118  19.780  39.524  11.179
55859W        W28119  37.168  19.614   9.756
55860W        W28120  24.726  13.034   4.231
55861W        W28121   3.446  35.647   1.397
55862W        W28122  43.050   8.797  11.485
55863W        W28123  39.118  35.519   0.402
55864W        W28124   3.791  40.242   3.676
55865W        W28125  13.022   9.909   0.991
55866W        W28126  35.049   8.589   1.405
55867W        W28127  43.977  14.855   4.757
55868W        W28128  21.110  37.510   1.385
55869W        W28129  30.547  23.776  11.257
55870W        W28130  34.444  17.071  13.373
55871W        W28131  10.169  36.534  14.954
55872W        W28132  25.502  34.861  13.448
55873W        W28133  21.670  30.117   1.994
55874W        W28134  19.560  39.459   2.867
55875W        W28135   8.380  44.017   2.763
55876W        W28136  28.215  40.311   2.793
55877W        W28137   1.228   2.950  14.391
55878W        W28138  19.042  12.086   0.345
55879W        W28139   5.732  17.529   4.297
55880W        W28140   2.288  34.135   0.342
55881W        W28141  29.924  18.079   0.524
55882W        W28142   2.795  36.863  10.703
55883W        W28143  13.607   4.291  10.574
55884W        W28144  18.497  10.223  11.105
55885W        W28145   4.391  22.105  13.105
55886W        W28146  19.692   4.465   3.212
55887W        W28147  40.294  33.595   2.448
55888W        W28148  24.691  38.849   0.673
55889W        W28149  12.927  34.759  13.445
55890W        W28150   1.483   1.335   2.797
55891W        W28151  35.544  27.556  13.125
55892W        W28152   4.983   3.440   1.264
55893W        W28153  35.329  24.926  11.526
55894W        W28154  32.922   7.905  14.282
55895W        W28155  18.221  18.523  10.512
55896W        W28156  22.659  36.438  11.712
55897W        W28157  31.101   7.435  11.478
55898W        W28158  34.508  20.523   5.088
55899W        W28159  35.326  41.038   4.563
55900W        W28160  25.259  35.023  11.213
55901W        W28161   0.995  34.783  12.370
55902W        W28162  27.124  37.830  14.332
55903W        W28163   2.805   6.726   2.591
55904W        W28164  15.544  35.890   3.314
55905W        W28165  27.954  24.830   3.637
55906W        W28166  41.412   0.078   1.375
55907W        W28167  26.568  29.087   1.925
55908W        W28168  44.902  29.375   1.663
55909W        W28169   3.268  10.800  14.418
55910W        W28170   3.850  14.082  12.649
55911W        W28171  44.007  17.433   4.101
55912W        W28172  42.010  15.596   4.322
55913W        W28173  29.884  17.831   0.027
55914W        W28174  42.041  22.122   1.729
55915W        W28175  37.366  36.399  10.673
55916W        W28176  35.161  42.389   3.311
55917W        W28177  38.456  24.479  10.571
55918W        W28178  44.908  29.696   4.335
55919W        W28179  13.064  43.553   4.645
55920W        W28180  23.660  41.778   3.319
55921W        W28181  32.852   7.620   2.224
55922W        W28182   6.485   8.373  14.433
55923W        W28183  13.180  21.755   3.393
55924W        W28184  26.421  31.010  14.467
55925W        W28185  25.066  27.941   2.249
55926W        W28186  23.775  34.971   3.606
55927W        W28187  12.207   4.336  14.127
55928W        W28188   4.948  16.106   0.084
55929W        W28189  38.907   8.743  11.835
55930W        W28190  20.571  28.149   3.692
55931W        W28191  43.025  31.604   3.646
55932W        W28192   6.441  10.272  13.020
55933W        W28193  13.347  15.172   0.396
55934W        W28194  10.898  21.741  11.183
55935W        W28195  15.267  28.719  12.119
55936W        W28196  21.125  25.697   1.914
55937W        W28197   2.442  39.874  10.779
55938W        W28198  29.074  19.541  13.327
55939W        W28199  41.947   0.749  12.956
55940W        W28200  37.772   9.465   5.075
55941W        W28201  31.191   0.647   5.211
55942W        W28202  42.517   6.754  12.569
55943W        W28203  28.056  34.170  10.868
55944W        W28204   0.827  16.867   3.671
55945W        W28205   6.457  21.316   1.903
55946W        W28206   5.387  17.314  14.593
55947W        W28207  29.418   1.888   0.188
55948W        W28208  11.901  44.472   2.659
55949W        W28209  43.562  42.708  10.397
55950W        W28210  38.069  41.322   1.327
55951W        W28211   3.412  13.292   2.599
55952W        W28212  14.886  20.989  14.410
55953W        W28213   6.907  41.932  14.334
55954W        W28214  22.104  10.823   2.326
55955W        W28215  26.042  44.055  13.118
55956W        W28216  14.413  37.567   4.535
55957W        W28217  21.032  15.784   0.922
55958W        W28218  28.497  32.059   9.811
55959W        W28219  43.846  32.960  12.945
55960W        W28220   6.671  25.026   3.304
55961W        W28221  29.053  13.838   2.690
55962W        W28222  39.750  16.986   1.445
55963W        W28223  33.024   0.341   4.154
55964W        W28224  19.754   2.525   5.044
55965W        W28225   0.219  13.422   2.303
55966W        W28226  44.475  40.783  10.356
55967W        W28227  12.303  29.949   1.469
55968W        W28228  31.166  13.249   1.329
55969W        W28229  27.697  27.876   2.405
55970W        W28230  18.257  21.382   4.924
55971W        W28231   4.696  16.893  12.919
55972W        W28232  23.680  20.238  14.809
55973W        W28233  30.220  14.184  13.998
55974W        W28234  19.413  13.830  14.802
55975W        W28235  44.550  23.760   4.216
55976W        W28236  27.215  41.432   1.847
55977W        W28237  27.500  24.223   2.342
55978W        W28238  33.122  38.599   3.215
55979W        W28239   3.580  42.873   3.290
55980W        W28240  13.145   4.647  12.930
55981W        W28241  35.502   5.163  13.017
55982W        W28242   6.904  27.991   0.846
55983W        W28243  10.317  35.803  11.157
55984W        W28244  11.400  25.410   3.821
55985W        W28245  32.482  28.068  12.221
55986W        W28246  19.587  37.973  10.728
55987W        W28247  33.892  43.228  11.560
55988W        W28248  18.754   7.289   2.207
55989W        W28249  32.116  24.521  14.538
55990W        W28250  21.228  30.389  11.176
55991W        W28251  30.748  24.781   4.452
55992W        W28252  34.688   8.667   1.042
55993W        W28253  33.640  38.301   1.339
55994W        W28254  35.433  43.519   1.045
55995W        W28255  19.792   7.741   1.639
55996W        W28256   7.900  40.903   3.099
55997W        W28257   9.208  30.384  10.699
55998W        W28258  25.554  35.499   1.143
55999W        W28259   2.806  33.690   1.597
56000W        W28260   0.016   9.707  14.875
56001W        W28261   0.396  12.914   0.488
56002W        W28262  21.847  21.743   0.326
56003W        W28263  14.148  21.027   1.199
56004W        W28264  41.286  25.118   0.430
56005W        W28265  18.653  32.636  11.358
56006W        W28266   2.428  22.997  13.227
56007W        W28267  13.893  20.088  14.895
56008W        W28268   6.786   0.752   3.399
56009W        W28269  21.602  11.253  12.391
56010W        W28270  31.351  43.410   3.282
56011W        W28271  44.686   8.857  12.995
56012W        W28272  30.532   7.192   1.589
56013W        W28273  20.001   9.222   0.873
56014W        W28274  19.158  12.484   2.294
56015W        W28275   1.260  33.410  10.964
56016W        W28276   4.997  12.089  10.031
56017W        W28277  20.061  22.073  10.884
56018W        W28278  29.089   3.490  11.748
56019W        W28279  20.630   2.139  12.459
56020W        W28280  36.824   3.705  12.056
56021W        W28281  22.039  14.231   3.918
56022W        W28282  31.041  13.060  14.450
56023W        W28283  30.677  18.493   4.687
56024W        W28284  20.465  19.676  12.373
56025W        W28285  34.499  21.576  14.395
56026W        W28286  39.405  25.693  14.522
56027W        W28287  28.605  26.509  13.914
56028W        W28288  29.849  36.467  12.000
56029W        W28289  30.384  43.241  12.485
56030W        W28290  11.957  42.280   4.136
56031W        W28291  27.838  19.243   3.382
56032W        W28292  23.683  24.690   4.569
56033W        W28293  15.271  12.582  13.480
56034W        W28294  22.298  31.558  11.621
56035W        W28295   5.935   9.773   0.160
56036W        W28296  39.319  38.779   0.474
56037W        W28297  19.061  30.196  14.274
56038W        W28298  36.885  42.856   0.397
56039W        W28299  39.850  33.982   1.707
56040W        W28300  42.935  25.117  13.011
56041W        W28301  19.225  16.553  12.338
56042W        W28302  37.026  32.193   2.115
56043W        W28303  41.904  14.194   2.186
56044W        W28304  31.560  28.612   4.533
56045W        W28305  43.424  13.278   0.671
56046W        W28306  28.123   3.570  10.622
56047W        W28307  42.519  38.408  10.462
56048W        W28308  18.034   8.666  11.972
56049W        W28309  25.019   5.378  12.884
56050W        W28310  22.919  37.577  12.030
56051W        W28311  19.321  16.189   1.873
56052W        W28312   7.210   9.855   4.122
56053W        W28313  17.858   6.059  13.058
56054W        W28314   0.775  34.861  10.217
56055W        W28315   6.136  18.674   3.716
56056W        W28316   5.795  36.406   0.345
56057W        W28317   0.841  30.957   1.286
56058W        W28318  32.404  16.638  12.164
56059W        W28319   0.974   2.882  13.472
56060W        W28320  39.848  13.259  11.576
56061W        W28321  15.020   6.907   0.844
56062W        W28322  15.804  25.570  13.506
56063W        W28323  13.075  21.268   4.155
56064W        W28324   6.440   5.213   3.377
56065W        W28325  18.004  27.541   2.728
56066W        W28326  34.289  31.418  13.528
56067W        W28327  44.710   6.372   2.088
56068W        W28328  33.171   7.868  10.729
56069W        W28329  44.729  42.451  14.957
56070W        W28330   1.691  39.044  14.077
56071W        W28331  34.085  30.682  11.514
56072W        W28332  30.083  41.577  14.699
56073W        W28333   7.578  29.639  11.041
56074W        W28334  12.090  40.204   1.826
56075W        W28335  17.623  42.032   0.321
56076W        W28336   3.514  42.839   1.891
56077W        W28337  29.268  29.050  10.589
56078W        W28338  16.621  14.848  13.059
56079W        W28339  43.323  23.727  11.057
56080W        W28340   1.801  25.569  11.489
56081W        W28341  30.600   6.313   0.734
56082W        W28342  34.942  38.294   4.680
56083W        W28343  10.325   1.676  14.980
56084W        W28344  26.478  41.038   5.161
56085W        W28345  29.540  15.598  12.126
56086W        W28346  21.372  44.399  14.786
56087W        W28347  14.800  24.045   2.835
56088W        W28348   3.017  14.836  13.481
56089W        W28349  10.217   1.769  13.573
56090W        W28350   2.302   5.790   3.336
56091W        W28351  40.786   1.388  12.039
56092W        W28352  24.036  43.182  10.985
56093W        W28353  20.895  44.502   2.330
56094W        W28354  33.467  25.995   0.302
56095W        W28355  42.573  15.169   1.444
56096W        W28356  30.014   4.164  11.113
56097W        W28357  40.207   0.954  10.996
56098W        W28358   5.852  22.273   0.382
56099W        W28359  31.957  13.110  12.812
56100W        W28360   6.725  29.182  11.994
56101W        W28361   6.148  33.402   4.124
56102W        W28362  20.789  21.238   9.832
56103W        W28363  13.427  25.483   2.593
56104W        W28364  15.578  29.561  10.671
56105W        W28365  38.521   8.636   2.665
56106W        W28366  41.741  30.992   2.280
56107W        W28367   7.729  15.190   3.039
56108W        W28368  39.751  29.818  13.957
56109W        W28369  43.497  34.645   4.369
56110W        W28370  35.543  36.974   1.916
56111W        W28371  29.199   4.208   4.186
56112W        W28372   4.703  43.491  13.425
56113W        W28373  17.959  42.433  14.869
56114W        W28374  32.077  34.155  11.690
56115W        W28375  26.203  16.715   1.561
56116W        W28376  40.833  12.180   4.322
56117W        W28377   5.242  39.021  13.315
56118W        W28378   6.848  25.494   1.066
56119W        W28379  25.798   1.482   1.729
56120W        W28380   7.910   8.754  11.430
56121W        W28381  44.739   9.850   3.256
56122W        W28382  30.010  23.771   4.405
56123W        W28383   2.429  44.198   4.102
56124W        W28384  28.966   3.227   3.681
56125W        W28385  35.895  42.231   3.720
56126W        W28386  37.060   0.479   3.344
56127W        W28387  19.668  18.819  14.507
56128W        W28388  14.009   9.872  11.002
56129W        W28389  26.694  43.443   1.203
56130W        W28390   2.986  21.184   1.780
56131W        W28391  42.042  19.185  14.019
56132W        W28392   0.072   8.810   4.594
56133W        W28393  24.433  30.602   4.216
56134W        W28394   7.146   1.396  13.839
56135W        W28395  16.004  34.616   4.135
56136W        W28396  44.086   4.877   3.157
56137W        W28397  41.016  31.401   4.661
56138W        W28398  12.447  20.030  14.889
56139W        W28399  25.903  39.597   3.699
56140W        W28400  30.348  25.676   2.214
56141W        W28401  32.500  32.833  10.922
56142W        W28402   6.187  10.294   2.325
56143W        W28403  22.574  15.973   3.009
56144W        W28404  26.897  31.466   0.624
56145W        W28405   1.297  38.411   4.639
56146W        W28406  31.232  10.311   1.245
56147W        W28407  31.502  41.751   1.846
56148W        W28408   5.427   9.715   2.380
56149W        W28409   4.527  10.565   1.635
56150W        W28410  23.499  26.030  14.683
56151W        W28411  43.321  38.870  11.548
56152W        W28412  15.050  36.720   2.841
56153W        W28413  39.886   5.382   2.815
56154W        W28414   4.085   6.248   0.338
56155W        W28415  15.702  28.896  11.329
56156W        W28416  37.570  16.855  12.041
56157W        W28417  38.861  11.506  12.211
56158W        W28418   7.218  33.647   0.568
56159W        W28419  26.483  42.540  13.249
56160W        W28420  28.680  15.870  13.893
56161W        W28421  35.939  14.596  14.261
56162W        W28422   7.339  11.813   1.407
56163W        W28423  42.979  10.696   2.078
56164W        W28424  25.448  26.711   4.424
56165W        W28425  14.203  20.742  12.958
56166W        W28426  22.712  43.685   0.284
56167W        W28427   2.561  38.890  12.432
56168W        W28428  31.993  27.942  12.411
56169W        W28429  43.228  39.561   1.803
56170W        W28430  21.216  30.212  14.979
56171W        W28431   0.150   5.273   1.854
56172W        W28432  41.991  33.594   1.782
56173W        W28433  30.596   4.237   2.769
56174W        W28434  17.905  32.344   2.264
56175W        W28435  11.931  43.394   3.606
56176W        W28436  35.245  27.662   0.695
56177W        W28437  43.998  34.000   4.605
56178W        W28438   6.501   4.960   1.839
56179W        W28439  44.641  13.555  12.000
56180W        W28440  23.605  20.292   1.435
56181W        W28441  29.941   6.697   2.694
56182W        W28442  40.984  40.230   3.104
56183W        W28443  26.173  25.774  14.012
56184W        W28444  15.367   6.041   0.944
56185W        W28445  23.131  25.899   4.669
56186W        W28446  25.053  24.069  10.521
56187W        W28447   8.751  24.173  11.537
56188W        W28448  34.477  19.389   4.568
56189W        W28449  38.132  11.910   4.139
56190W        W28450  10.282   6.732   4.355
56191W        W28451   8.144  12.867   0.310
56192W        W28452  19.075  36.597   5.069
56193W        W28453  37.989  29.710   1.334
56194W        W28454   7.929  16.237   3.780
56195W        W28455   6.654  34.631  13.481
56196W        W28456  34.949  16.300   0.656
56197W        W28457   6.469  39.151  13.472
56198W        W28458  43.042  43.876   3.108
56199W        W28459  21.462  10.158  11.447
56200W        W28460  14.646  35.953   4.361
56201W        W28461  21.735  19.781   1.358
56202W        W28462  31.841  36.941  12.222
56203W        W28463   2.690   3.965   1.593
56204W        W28464  21.566   2.911  14.257
56205W        W28465  29.430   1.921   3.666
56206W        W28466   6.164  36.919   1.390
56207W        W28467  22.010  31.499   1.707
56208W        W28468  26.198  24.067  13.381
56209W        W28469  34.797  10.892  14.657
56210W        W28470  31.921   3.364  13.347
56211W        W28471  24.735  15.783   0.987
56212W        W28472  14.424  22.552  13.586
56213W        W28473  33.970   3.614  13.935
56214W        W28474  20.305  15.824  10.136
56215W        W28475  11.533  19.337  10.769
56216W        W28476  19.570  34.932  11.425
56217W        W28477  17.378  42.891   3.168
56218W        W28478  43.460   6.250  14.824
56219W        W28479  15.180  36.535   1.948
56220W        W28480  16.623   6.817   2.374
56221W        W28481  40.130  23.468  12.856
56222W        W28482  19.988  20.088  10.283
56223W        W28483   0.774   3.562   0.149
56224W        W28484  21.213   1.997   4.184
56225W        W28485  40.554   4.799   1.193
56226W        W28486  19.276  17.984  14.980
56227W        W28487  10.615  21.485   2.763
56228W        W28488  42.157  13.772  11.552
56229W        W28489   8.914  38.135   4.482
56230W        W28490  26.354  13.227   0.540
56231W        W28491   9.742  18.963  11.626
56232W        W28492   8.256  44.715  12.450
56233W        W28493   9.083  24.240  12.883
56234W        W28494  28.852  12.325   0.730
56235W        W28495  10.933  19.508   2.251
56236W        W28496  40.922  38.399   3.638
56237W        W28497  35.139  15.797   2.113
56238W        W28498   9.310  21.607   4.117
56239W        W28499  15.640   8.138  12.288
56240W        W28500  44.187  42.007  12.912
56241W        W28501  42.734  38.322  11.457
56242W        W28502   9.228  42.426   1.477
56243W        W28503  35.416  24.536   2.252
56244W        W28504  20.570   1.894  11.112
56245W        W28505   1.508  36.804   1.792
56246W        W28506  24.313  10.719   2.043
56247W        W28507  39.683  41.045  14.917
56248W        W28508  16.050  21.221   2.242
56249W        W28509  32.939  39.885  14.072
56250W        W28510  22.511   7.795   3.416
56251W        W28511  18.182  20.776  10.523
56252W        W28512  18.277  33.886   1.496
56253W        W28513  27.469  11.068   1.442
56254W        W28514  33.013  18.645   4.565
56255W        W28515   4.791   9.990   0.970
56256W        W28516  29.179  36.649   2.232
56257W        W28517  36.217  20.824  10.996
56258W        W28518  38.594   4.459   9.939
56259W        W28519  30.927   9.094  13.861
56260W        W28520  33.473  13.231   4.683
56261W        W28521  10.689  10.953  12.949
56262W        W28522   6.224   4.493   4.584
56263W        W28523  40.011   8.558   2.253
56264W        W28524  33.628  11.217   2.169
56265W        W28525   9.654  18.133  13.075
56266W        W28526  31.143  34.328   4.966
56267W        W28527  30.143  19.164   3.671
56268W        W28528  36.453  13.170   3.749
56269W        W28529   2.863  15.251  10.717
56270W        W28530  43.001  29.533   5.213
56271W        W28531  41.637  13.906   0.205
56272W        W28532  42.044  36.002   0.156
56273W        W28533  22.531   5.788  12.698
56274W        W28534   5.609  20.988  14.892
56275W        W28535  42.089  20.582  13.034
56276W        W28536  36.381  14.133   2.305
56277W        W28537  26.155  11.719   3.742
56278W        W28538  28.573  17.077  14.245
56279W        W28539   8.438  34.401  13.943
56280W        W28540  18.011  36.981  13.067
56281W        W28541  17.146   1.715   3.312
56282W        W28542  23.404  34.125   3.153
56283W        W28543   0.993  27.726  12.119
56284W        W28544  24.751  21.283   1.218
56285W        W28545  19.678   5.118  11.124
56286W        W28546  34.175  21.763   4.778
56287W        W28547   1.206  22.976  12.888
56288W        W28548   2.447  41.765  14.243
56289W        W28549  10.704  26.970   2.872
56290W        W28550  41.405  30.140  13.057
56291W        W28551  17.315   2.243   4.329
56292W        W28552  39.804   0.924   4.332
56293W        W28553  26.536  42.283   0.731
56294W        W28554  35.328  37.898   3.374
56295W        W28555  28.250  38.768   3.284
56296W        W28556  17.017   7.975  11.649
56297W        W28557  41.925  34.833  14.169
56298W        W28558  16.829  39.856   2.785
56299W        W28559  16.689  22.976   4.660
56300W        W28560   1.327  34.457   1.639
56301W        W28561  37.235  12.878   1.266
56302W        W28562  43.416  38.613  14.376
56303W        W28563  26.566  25.240  12.471
56304W        W28564  42.373   8.170  13.348
56305W        W28565  13.739   6.522  14.920
56306W        W28566  26.528  19.292  14.563
56307W        W28567   7.744  26.781   2.269
56308W        W28568  38.445  19.375  11.883
56309W        W28569  40.113   3.948  13.884
56310W        W28570  21.483   0.568   2.774
56311W        W28571  24.736  24.495   2.764
56312W        W28572  20.485  25.498   0.079
56313W        W28573   6.992  21.794  14.018
56314W        W28574   4.372  44.396  14.780
56315W        W28575  20.563  18.216  10.608
56316W        W28576   1.023  14.883  13.309
56317W        W28577  15.235   1.819   4.604
56318W        W28578  38.084  37.471  11.985
56319W        W28579  11.613  21.091   0.049
56320W        W28580  29.694  33.359  10.221
56321W        W28581  13.462   4.391   4.818
56322W        W28582  16.697   1.395  14.773
56323W        W28583   9.111  23.580  12.415
56324W        W28584   1.874  39.917  11.879
56325W        W28585  27.008   4.810   2.573
56326W        W28586  36.469  15.585   3.488
56327W        W28587  24.057  38.064  13.144
56328W        W28588  16.460   1.175  13.011
56329W        W28589  25.747   1.104  12.570
56330W        W28590  36.617  36.070  13.473
56331W        W28591   5.948  44.720   2.362
56332W        W28592  31.662  10.177   2.735
56333W        W28593  29.504  13.104   2.532
56334W        W28594   0.547  16.733  12.461
56335W        W28595   0.175  15.599   2.474
56336W        W28596  14.618   8.268  11.534
56337W        W28597  20.724  15.796  13.772
56338W        W28598  22.504  41.952   1.816
56339W        W28599  25.874  22.677  13.863
56340W        W28600  27.408   3.270   4.124
56341W        W28601  16.145  29.619  14.808
56342W        W28602  21.650   0.865   1.639
56343W        W28603  42.342   3.796   3.779
56344W        W28604  31.863  10.202  14.993
56345W        W28605  15.103  22.620   3.159
56346W        W28606  23.286  22.427   0.863
56347W        W28607  17.385  36.098   1.355
56348W        W28608  21.653  34.078  10.672
56349W        W28609   5.424  15.014  12.138
56350W        W28610   1.511  23.396   1.459
56351W        W28611  36.435  16.086   4.707
56352W        W28612  30.544  40.786  14.807
56353W        W28613  30.639   4.966   3.592
56354W        W28614  21.052  18.083   1.013
56355W        W28615  14.395   3.345  11.179
56356W        W28616  35.881  17.697   4.566
56357W        W28617   8.074  27.146   3.270
56358W        W28618  26.202   9.098  14.999
56359W        W28619  43.603  12.336  12.505
56360W        W28620  28.096  25.898  12.397
56361W        W28621  30.419   6.153  11.587
56362W        W28622  28.893  28.595   1.291
56363W        W28623  40.037  10.808  12.030
56364W        W28624  37.126  14.401  11.100
56365W        W28625  22.694  10.473   3.581
56366W        W28626  10.731  29.364  11.621
56367W        W28627  11.704  31.401   4.755
56368W        W28628  23.532   5.658  14.795
56369W        W28629  38.066   1.695   0.741
56370W        W28630  19.522  41.630   0.293
56371W        W28631  10.284  22.268   1.524
56372W        W28632  15.306  11.561   4.230
56373W        W28633  13.367  31.459  14.767
56374W        W28634  22.503   7.626  14.819
56375W        W28635  38.692  24.686   1.857
56376W        W28636  30.490  16.513   3.853
56377W        W28637  25.372  36.815   0.781
56378W        W28638  44.885  31.410   4.600
56379W        W28639   1.317  24.640   1.889
56380W        W28640  32.937  44.836   0.324
56381W        W28641  11.914  12.568   2.808
56382W        W28642  20.298  23.730  12.918
56383W        W28643  30.529  18.210   2.208
56384W        W28644  17.088  40.025   2.384
56385W        W28645  28.694   0.826   2.189
56386W        W28646  14.390  11.139   4.836
56387W        W28647   4.748  14.700  12.978
56388W        W28648  44.683  25.207  12.331
56389W        W28649  37.296   2.499  11.200
56390W        W28650  43.449  11.676   1.944
56391W        W28651  28.218  20.582  11.032
56392W        W28652  35.902  14.367   2.322
56393W        W28653   6.287   3.391  13.762
56394W        W28654  36.122  16.075  11.057
56395W        W28655  20.982  32.778  11.670
56396W        W28656  28.212  27.142   1.921
56397W        W28657   8.449  37.259   2.698
56398W        W28658  20.240  25.956   0.095
56399W        W28659  11.802  18.574   2.923
56400W        W28660   9.363  17.310   9.558
56401W        W28661   2.241  36.962  14.609
56402W        W28662  42.961  35.381  12.262
56403W        W28663  10.914  11.309  12.506
56404W        W28664  26.920   2.961  12.236
56405W        W28665  21.162   4.320   2.651
56406W        W28666  14.122  14.358   1.460
56407W        W28667  28.241  21.193   0.812
56408W        W28668  13.332   0.277  12.561
56409W        W28669  35.469  22.652   0.909
56410W        W28670  44.095  43.565  10.771
56411W        W28671  42.858   4.841  13.981
56412W        W28672  27.681  25.379   3.391
56413W        W28673  19.196  27.408   2.685
56414W        W28674  42.457  19.000  10.992
56415W        W28675  20.724  24.766   4.163
56416W        W28676   4.383  29.184   2.550
56417W        W28677   0.994  15.469   4.109
56418W        W28678  20.273  28.779   4.831
56419W        W28679  11.826  17.910  13.492
56420W        W28680  39.592   5.733  11.151
56421W        W28681  26.020   5.974  12.470
56422W        W28682  39.288   2.256   3.562
56423W        W28683  25.128  12.621  13.451
56424W        W28684  29.300  14.831  11.607
56425W        W28685  23.472   6.688  13.944
56426W        W28686   5.323  36.681  13.019
56427W        W28687  29.243   2.366   1.335
56428W        W28688  21.245  26.842   5.687
56429W        W28689  29.514  11.501  11.605
56430W        W28690  28.577  17.771   4.345
56431W        W28691  31.447  18.252   3.256
56432W        W28692   1.007  35.264  12.582
56433W        W28693  21.542  38.993  13.557
56434W        W28694  40.391  39.547   0.801
56435W        W28695  14.683  19.761  11.604
56436W        W28696   3.297  40.702  10.791
56437W        W28697   5.120  33.086  13.969
56438W        W28698  11.635  17.282   2.341
56439W        W28699  13.024  27.206   2.740
56440W        W28700  28.995  38.480  13.251
56441W        W28701  25.493  27.401   1.358
56442W        W28702   6.420   1.546   2.919
56443W        W28703  30.684  10.137   1.355
56444W        W28704  13.241  15.852   4.784
56445W        W28705  29.534  24.966  14.322
56446W        W28706  24.284  40.186   0.910
56447W        W28707  38.616  37.397  11.949
56448W        W28708  40.224   5.772   0.121
56449W        W28709  24.400   1.830  11.847
56450W        W28710  14.039  35.809   1.857
56451W        W28711  10.115  21.927  13.652
56452W        W28712  36.521  34.701  13.365
56453W        W28713   8.717  16.383  14.506
56454W        W28714   4.200  14.596   0.178
56455W        W28715  27.874  44.765  12.479
56456W        W28716   3.825  20.649  12.603
56457W        W28717  29.379  43.242  12.366
56458W        W28718  32.622  33.578  10.931
56459W        W28719  43.733  16.806  12.954
56460W        W28720  31.953  13.161   4.517
56461W        W28721  18.516  43.708  12.521
56462W        W28722  29.608  41.510  12.004
56463W        W28723  14.246  43.004  14.048
56464W        W28724  28.437  33.893   3.090
56465W        W28725  42.099  21.392   1.499
56466W        W28726  37.071  12.967  13.109
56467W        W28727  29.916  41.105   1.106
56468W        W28728  29.638  41.897  12.475
56469W        W28729   6.465  18.905   3.172
56470W        W28730  20.055   1.853  10.205
56471W        W28731   2.191  12.714  11.602
56472W        W28732  15.290  18.087   4.333
56473W        W28733  23.000  40.317  13.841
56474W        W28734  39.683  33.082  14.849
56475W        W28735  28.939   7.752  13.591
56476W        W28736  42.882   7.573  14.383
56477W        W28737   9.447  17.829  14.302
56478W        W28738  41.011  28.911   4.918
56479W        W28739  13.161   7.919  13.337
56480W        W28740  31.439  16.839  13.808
56481W        W28741  18.563  12.122  10.583
56482W        W28742  24.276   0.340   2.642
56483W        W28743  28.623  34.352  11.690
56484W        W28744  10.461  37.385  11.922
56485W        W28745  15.104  25.713  13.373
56486W        W28746  16.422  43.500  14.112
56487W        W28747  20.516  12.611  11.953
56488W        W28748  39.561   7.142   3.844
56489W        W28749  37.896  29.132  10.661
56490W        W28750  26.604  33.865  12.463
56491W        W28751   7.361   0.009   3.917
56492W        W28752  41.419  43.934  10.789
56493W        W28753  10.042  42.170   2.631
56494W        W28754  14.508  18.338  14.733
56495W        W28755  16.349  25.023  12.537
56496W        W28756  28.590  13.866   0.792
56497W        W28757  39.894  23.729  10.980
56498W        W28758   8.157  20.338   1.899
56499W        W28759  12.726   6.302   3.161
56500W        W28760   4.319  27.754  13.780
56501W        W28761  12.804   3.283   2.444
56502W        W28762   4.914  33.965  14.224
56503W        W28763   3.793  33.129  13.355
56504W        W28764  14.715  14.410   0.331
56505W        W28765  15.808   4.800  12.146
56506W        W28766  22.449  22.555  11.690
56507W        W28767  13.097   4.326  14.444
56508W        W28768  30.126  31.475  12.118
56509W        W28769  12.318  29.731   2.239
56510W        W28770   5.604   8.083  12.086
56511W        W28771   7.211  20.000  13.034
56512W        W28772  21.126  17.024  11.583
56513W        W28773  17.326  42.486   2.233
56514W        W28774  27.650  22.047  10.774
56515W        W28775  35.949  32.585  11.117
56516W        W28776   6.424  36.306  11.580
56517W        W28777   1.343  38.558   2.811
56518W        W28778  28.764  22.161   0.319
56519W        W28779   4.310   3.108   2.757
56520W        W28780  25.773   2.827  13.946
56521W        W28781  27.621  29.058   3.161
56522W        W28782   3.681  10.879  12.629
56523W        W28783  23.254  20.736   1.001
56524W        W28784  13.636  15.783  14.932
56525W        W28785  37.540  13.668   2.379
56526W        W28786   7.714  21.255   1.177
56527W        W28787   2.294  44.458   0.836
56528W        W28788  41.857  14.650   4.774
56529W        W28789   2.347  31.216  12.632
56530W        W28790  15.235   0.336   1.892
56531W        W28791  34.384  44.288   3.461
56532W        W28792  30.614  34.631   1.489
56533W        W28793  24.922  34.070  12.893
56534W        W28794  26.509  42.688  10.022
56535W        W28795  42.056   3.318   0.886
56536W        W28796  15.213  35.035   3.629
56537W        W28797   8.719  23.632   0.018
56538W        W28798  33.472  32.270   4.179
56539W        W28799  38.592  34.574   4.216
56540W        W28800  11.229  11.802   3.588
56541W        W28801  35.445  17.837  11.099
56542W        W28802  26.993   0.323   4.053
56543W        W28803  27.613  14.930  10.954
56544W        W28804  10.004   6.851  11.754
56545W        W28805  28.916  29.816  11.053
56546W        W28806  33.477  14.835  11.054
56547W        W28807  43.000  28.033   3.279
56548W        W28808  40.233   4.916   1.612
56549W        W28809   6.718   2.231  12.930
56550W        W28810   0.769   6.145  11.762
56551W        W28811  32.381  26.062   1.753
56552W        W28812  33.836  16.210  13.449
56553W        W28813  15.113  41.025   3.717
56554W        W28814  41.797  28.974   4.649
56555W        W28815  12.854  39.817  13.142
56556W        W28816  37.933  43.227   0.190
56557W        W28817  39.559  33.936  12.184
56558W        W28818   7.678  23.488   1.350
56559W        W28819   1.926   0.731  13.445
56560W        W28820  33.109  20.015   1.225
56561W        W28821  32.492  21.280  13.864
56562W        W28822  21.160  36.537   1.479
56563W        W28823  43.172  21.489   4.619
56564W        W28824  33.700   6.761   2.084
56565W        W28825  11.095  40.560   4.475
56566W        W28826  34.737   1.440   2.641
56567W        W28827  36.029  27.680  13.955
56568W        W28828  17.937  41.882   1.657
56569W        W28829  22.045   7.952   1.172
56570W        W28830  15.167  31.933  10.557
56571W        W28831  18.879   9.905   0.697
56572W        W28832  32.903   7.724  11.557
56573W        W28833  44.548   9.145  12.050
56574W        W28834  11.129   0.094  10.981
56575W        W28835  27.922  12.623  11.774
56576W        W28836  40.848   5.846  12.952
56577W        W28837  42.489  34.785   1.148
56578W        W28838  38.627   8.958   5.136
56579W        W28839   4.647  29.145  14.960
56580W        W28840  39.916  37.107  12.119
56581W        W28841  42.333  26.125   3.648
56582W        W28842   5.315  24.573   0.499
56583W        W28843  14.137  13.619  10.016
56584W        W28844  16.487  21.831   2.727
56585W        W28845  11.006  22.761   3.232
56586W        W28846  31.526  20.697   4.551
56587W        W28847  43.034   3.272   4.019
56588W        W28848  39.823   4.747   1.247
56589W        W28849  13.765  22.189   3.300
56590W        W28850  37.845  12.853   1.934
56591W        W28851  25.479  28.060   1.039
56592W        W28852  30.547   4.835  12.065
56593W        W28853   3.749  21.119  12.411
56594W        W28854  38.721   6.028  12.112
56595W        W28855   9.944  37.874   1.295
56596W        W28856  39.413  34.881  11.113
56597W        W28857  38.716   6.296   4.458
56598W        W28858   5.005  26.625   2.473
56599W        W28859  13.162  41.285   2.909
56600W        W28860  26.524  16.900   2.947
56601W        W28861  12.170   9.585   0.477
56602W        W28862  20.675  12.781   4.440
56603W        W28863  15.841  35.492   3.157
56604W        W28864  27.203  30.431  11.188
56605W        W28865  17.812  43.015  13.008
56606W        W28866  24.097  26.237   3.830
56607W        W28867  30.615   0.355  12.551
56608W        W28868  39.590  13.887   0.867
56609W        W28869  41.790   0.026  12.633
56610W        W28870   1.446  17.192   3.338
56611W        W28871   5.398  42.752  10.659
56612W        W28872  13.503  23.407   1.254
56613W        W28873  22.768  12.907   0.303
56614W        W28874   3.310  31.080   2.378
56615W        W28875   9.160  19.416  11.118
56616W        W28876  44.566  29.777   1.492
56617W        W28877  43.497   7.327   3.194
56618W        W28878   6.649  21.572  13.686
56619W        W28879  40.165  32.972   4.299
56620W        W28880  27.158  16.055   1.716
56621W        W28881  42.289   5.644   0.910
56622W        W28882   5.043  44.339  13.470
56623W        W28883  30.599  34.272  11.214
56624W        W28884  12.350  29.814  13.955
56625W        W28885   7.349   0.744  10.703
56626W        W28886   6.282  40.585  10.463
56627W        W28887  10.888   7.701   0.308
56628W        W28888  32.601  43.897   4.214
56629W        W28889  17.762  13.099  13.527
56630W        W28890  39.953  23.137   2.356
56631W        W28891  41.987  12.453  14.882
56632W        W28892   7.762  14.634   2.211
56633W        W28893  13.332  14.093  14.346
56634W        W28894  26.717  40.674  11.859
56635W        W28895  11.840  38.041   2.401
56636W        W28896   0.410  18.059  10.909
56637W        W28897  16.306  27.471   3.956
56638W        W28898  23.734  10.231   0.802
56639W        W28899  11.917   9.709  12.448
56640W        W28900   1.895  41.752  14.533
56641W        W28901  42.508  34.407  12.490
56642W        W28902  14.224   7.911   2.340
56643W        W28903  44.953  30.174  13.985
56644W        W28904  12.592  27.299  10.176
56645W        W28905   0.021  39.834   1.769
56646W        W28906   3.347  41.907   1.969
56647W        W28907  10.818  24.673   3.859
56648W        W28908  29.691  33.590   4.661
56649W        W28909  14.510  44.507   1.969
56650W        W28910   1.692  20.539   4.221
56651W        W28911  27.968   8.865   4.199
56652W        W28912   6.690  35.137  14.697
56653W        W28913  19.536  26.415  13.014
56654W        W28914  11.010   8.258   3.822
56655W        W28915  19.309  42.013  12.908
56656W        W28916  23.237   1.918  10.667
56657W        W28917  44.389  13.622  11.547
56658W        W28918  20.296  26.572   0.254
56659W        W28919  23.460   1.399   1.279
56660W        W28920  23.565   0.901   0.865
56661W        W28921   7.814  17.781  13.078
56662W        W28922  21.222  21.694  10.693
56663W        W28923  10.778   7.675  11.183
56664W        W28924  34.615  36.548  14.897
56665W        W28925  11.352  20.452   1.312
56666W        W28926  18.179  31.476   1.401
56667W        W28927  37.894  24.834   2.293
56668W        W28928  21.961   3.879   0.724
56669W        W28929   1.814  15.172   4.097
56670W        W28930  44.711  25.736  11.290
56671W        W28931   3.843  21.245   3.115
56672W        W28932   3.012  25.041  13.559
56673W        W28933   3.554  21.187   1.326
56674W        W28934  22.318  15.100  11.462
56675W        W28935   8.154   1.741   2.181
56676W        W28936   1.015  31.459   2.681
56677W        W28937  29.750  32.951   3.419
56678W        W28938   6.217  38.998   0.598
56679W        W28939   5.910  27.993  13.867
56680W        W28940  39.056  31.809   0.295
56681W        W28941  17.197  26.875  14.452
56682W        W28942   4.708   2.870  10.752
56683W        W28943   5.952  21.603  14.267
56684W        W28944  11.738  28.092  12.392
56685W        W28945  36.819   1.351   1.748
56686W        W28946   6.012   3.705   0.548
56687W        W28947   2.187  30.058  13.090
56688W        W28948  17.359  15.499   2.051
56689W        W28949   6.845  12.287   0.029
56690W        W28950   5.534  28.742  12.921
56691W        W28951  36.586  41.835   1.232
56692W        W28952  39.989   7.226   3.203
56693W        W28953  40.078  36.425  10.736
56694W        W28954   7.320  19.080  12.988
56695W        W28955   8.476  15.572   0.988
56696W        W28956  41.787  12.885   4.156
56697W        W28957  27.002  16.887   2.048
56698W        W28958  41.959   2.195   2.913
56699W        W28959  23.721  39.264   1.689
56700W        W28960  34.399  16.278   2.807
56701W        W28961  26.126  27.590  11.039
56702W        W28962  23.884  41.884  10.805
56703W        W28963  18.172   4.891  14.190
56704W        W28964  12.590  21.098   2.804
56705W        W28965  44.186   5.836   2.704
56706W        W28966   0.485  36.843   0.489
56707W        W28967  24.470  13.188   3.804
56708W        W28968  31.017  30.978  11.628
56709W        W28969  14.669  10.812   2.831
56710W        W28970  33.898  40.496  13.761
56711W        W28971  26.404  16.213  12.798
56712W        W28972  20.599  28.650   1.893
56713W        W28973  10.872   5.159   0.656
56714W        W28974  32.192   7.853   1.678
56715W        W28975   9.269  42.959  10.687
56716W        W28976  38.665  27.110   2.368
56717W        W28977  12.261  42.705  12.860
56718W        W28978  10.752  36.078   4.141
56719W        W28979   5.890  27.003  11.588
56720W        W28980  39.391  16.290   3.300
56721W        W28981  39.460  24.556   2.332
56722W        W28982  37.283  32.346  14.508
56723W        W28983  15.805  43.201   3.171
56724W        W28984  17.643  12.721  14.734
56725W        W28985  25.662   2.715   4.450
56726W        W28986  25.024  37.389  10.956
56727W        W28987  24.073  33.549  12.008
56728W        W28988  23.131   8.661   0.192
56729W        W28989  38.379  13.650   0.037
56730W        W28990  40.132  13.544  13.420
56731W        W28991  18.073  37.571   3.212
56732W        W28992  17.513   2.643   4.605
56733W        W28993  14.125  25.552  10.652
56734W        W28994  10.288  34.380   1.445
56735W        W28995   9.803   0.903  14.936
56736W        W28996  11.958  32.512   4.288
56737W        W28997  19.505  12.176  10.707
56738W        W28998  23.064  10.256  12.572
56739W        W28999  38.610   6.890   3.224
56740W        W29000  28.534  23.240  11.548
56741W        W29001  30.152  29.669  13.007
56742W        W29002  25.982   1.190  11.130
56743W        W29003  32.057  39.453   0.640
56744W        W29004   9.209  43.329   0.257
56745W        W29005  21.140  12.606   2.643
56746W        W29006   5.341   9.355  10.814
56747W        W29007   7.912  29.155   0.313
56748W        W29008  38.237   3.461   4.066
56749W        W29009  39.370  42.646  14.553
56750W        W29010  28.085   2.254  14.851
56751W        W29011  16.663  36.516   0.259
56752W        W29012  28.988  15.609  11.952
56753W        W29013  39.179  19.298   5.057
56754W        W29014   4.567   4.806  12.367
56755W        W29015  17.882  21.767  11.051
56756W        W29016  26.545  18.259  11.588
56757W        W29017  36.814  11.208   0.366
56758W        W29018  41.443  29.713   2.328
56759W        W29019  10.694  22.024   4.643
56760W        W29020   4.788  41.612   0.362
56761W        W29021  44.895  33.252  11.622
56762W        W29022  22.697   3.635   1.285
56763W        W29023  27.514  20.541   4.777
56764W        W29024   3.374  27.238   1.720
56765W        W29025  19.510  43.551   1.716
56766W        W29026  17.765  44.621  13.817
56767W        W29027   2.944  30.097   1.344
56768W        W29028  32.560  20.098   5.114
56769W        W29029  39.857   2.488   1.853
56770W        W29030  10.020   4.273  11.185
56771W        W29031  29.022  16.288  11.665
56772W        W29032  18.631  25.448  13.769
56773W        W29033  17.072  15.141   1.835
56774W        W29034  43.769  44.440  14.883
56775W        W29035  38.447   1.331  11.173
56776W        W29036  26.872   1.774  10.799
56777W        W29037   3.163  30.623  12.532
56778W        W29038  43.619   1.746   0.252
56779W        W29039  38.413   6.991  13.632
56780W        W29040  41.939  13.062  11.074
56781W        W29041  21.088  15.838   4.154
56782W        W29042  12.260  21.566   1.349
56783W        W29043  10.196  37.837  11.951
56784W        W29044  39.620  15.111   2.795
56785W        W29045  42.311  42.240  11.203
56786W        W29046   9.255  26.725   3.501
56787W        W29047   2.327  23.585  12.164
56788W        W29048  25.495  11.357  14.991
56789W        W29049  37.947  35.577   2.388
56790W        W29050  28.634  14.041  14.090
56791W        W29051  31.358  25.526  12.073
56792W        W29052  29.768   8.784   4.973
56793W        W29053  15.861  31.585   0.890
56794W        W29054  21.502   2.002   4.610
56795W        W29055  21.079  37.334   2.423
56796W        W29056  24.079  22.596   2.359
56797W        W29057  32.089   9.273   1.401
56798W        W29058  10.737  14.305  12.320
56799W        W29059  36.805  38.546  14.038
56800W        W29060  10.863  36.771  14.456
56801W        W29061   6.128  17.568   1.949
56802W        W29062  25.460   0.058  12.463
56803W        W29063   2.889  19.745   0.881
56804W        W29064  39.926  16.236  11.912
56805W        W29065   6.185  31.092   2.408
56806W        W29066  18.064   3.732   4.265
56807W        W29067   5.643   8.281  11.615
56808W        W29068   4.263  37.790  10.818
56809W        W29069  21.923  32.351  11.032
56810W        W29070  40.293  31.917  13.502
56811W        W29071   5.663   7.873  13.352
56812W        W29072  31.979  28.747  11.971
56813W        W29073  10.357   9.089   2.929
56814W        W29074  21.355  12.531   0.293
56815W        W29075  43.530  26.327  10.446
56816W        W29076  29.780  25.875   3.512
56817W        W29077  27.655   2.979   3.221
56818W        W29078  40.851   1.257   4.616
56819W        W29079   8.909   5.643  10.608
56820W        W29080  14.708  34.162   4.509
56821W        W29081  36.553  35.436   4.527
56822W        W29082  11.873  12.071   0.923
56823W        W29083  27.875  42.413   1.131
56824W        W29084  32.597  31.800  13.974
56825W        W29085  23.641  40.056   0.358
56826W        W29086  12.213  29.938   5.393
56827W        W29087  42.911  20.258  13.528
56828W        W29088  29.960  15.032   1.404
56829W        W29089  13.619  38.590  10.554
56830W        W29090  42.497  30.597   0.781
56831W        W29091  30.048   8.950  14.446
56832W        W29092  11.049  32.674   2.729
56833W        W29093  22.042   7.865  10.485
56834W        W29094  21.491  34.528   3.143
56835W        W29095  31.559   9.668   1.750
56836W        W29096  28.418  10.262  13.551
56837W        W29097  11.891   0.498   2.176
56838W        W29098  11.067  34.759  12.530
56839W        W29099  30.111  37.888   1.472
56840W        W29100   6.248  29.443  10.986
56841W        W29101  10.605  22.709  14.097
56842W        W29102  28.977  17.282  14.469
56843W        W29103  14.329  31.363   2.401
56844W        W29104  27.932  43.342   0.797
56845W        W29105  36.502  12.187  12.570
56846W        W29106  19.636  38.028   1.763
56847W        W29107  11.722  18.402  13.498
56848W        W29108   6.616  41.255  13.621
56849W        W29109  35.646  34.478   0.440
56850W        W29110  38.595  18.542   4.178
56851W        W29111  22.728  17.751  12.464
56852W        W29112  17.223  27.142   4.663
56853W        W29113   7.720  18.304   2.432
56854W        W29114  18.656  28.860  13.016
56855W        W29115  25.444  30.083  11.450
56856W        W29116  40.831  23.588   3.111
56857W        W29117  20.130   5.170   1.731
56858W        W29118  21.856   5.524  14.182
56859W        W29119  22.624   2.832   2.245
56860W        W29120  22.519  40.489   4.069
56861W        W29121  11.879  14.126  14.393
56862W        W29122  43.358  26.024  14.765
56863W        W29123  40.549  16.269  13.383
56864W        W29124  36.162  33.296  11.568
56865W        W29125  29.379  11.841  10.188
56866W        W29126  39.061   5.667  11.995
56867W        W29127  34.152  25.275   4.895
56868W        W29128  25.297  16.811   4.066
56869W        W29129  17.596   9.717  11.210
56870W        W29130  14.745  31.653  10.645
56871W        W29131  27.883  14.809  14.502
56872W        W29132   5.280  10.408  14.213
56873W        W29133  19.338   2.653  13.057
56874W        W29134  18.151   7.693   1.245
56875W        W29135   5.414   8.553   3.114
56876W        W29136  21.288  38.998   2.541
56877W        W29137  17.752  31.630   0.723
56878W        W29138  18.784   1.317   4.929
56879W        W29139   8.285  16.092   0.210
56880W        W29140  34.910  14.575   3.154
56881W        W29141  16.920  26.086  13.029
56882W        W29142  40.944  33.543  14.777
56883W        W29143  17.823  36.212   4.569
56884W        W29144  39.828  44.481   2.417
56885W        W29145   5.970  31.589  13.408
56886W        W29146  36.829   3.451  14.552
56887W        W29147  36.135   9.217   0.293
56888W        W29148  39.480  13.010   2.757
56889W        W29149  40.516   0.103   0.395
56890W        W29150   8.571  43.011  12.823
56891W        W29151  28.632   9.000   4.671
56892W        W29152  36.570  24.621   4.115
56893W        W29153  42.768  23.897   2.373
56894W        W29154  33.442  27.884  10.470
56895W        W29155  20.001  41.577   0.447
56896W        W29156  14.871  43.364   3.107
56897W        W29157  16.781   6.785  12.002
56898W        W29158  16.268  23.721   2.245
56899W        W29159  36.529   0.917   1.822
56900W        W29160  25.753  36.345   4.529
56901W        W29161   8.963  20.619   4.903
56902W        W29162   6.685  29.744   3.222
56903W        W29163  36.334  42.016   3.939
56904W        W29164  31.423  40.481  11.926
56905W        W29165  34.953  33.920   2.016
56906W        W29166  21.008  42.514   3.269
56907W        W29167  26.931  21.644  13.065
56908W        W29168  13.195  36.678   0.002
56909W        W29169  27.766  36.161   2.252
56910W        W29170  23.150  20.481  10.147
56911W        W29171  34.240   3.434   2.673
56912W        W29172  36.838  38.485  11.909
56913W        W29173   1.878   1.218  14.568
56914W        W29174  37.617  10.431   0.018
56915W        W29175  21.450  15.218   2.882
56916W        W29176  35.879  33.941  12.509
56917W        W29177  19.517  35.037  10.413
56918W        W29178   0.501  43.786   0.860
56919W        W29179  18.797   3.788   3.612
56920W        W29180  15.601  24.143  13.965
56921W        W29181  23.523  41.381   2.388
56922W        W29182   0.439  41.165   4.011
56923W        W29183  14.243  27.604   4.219
56924W        W29184  30.358  11.945   4.505
56925W        W29185  24.492  31.644   2.852
56926W        W29186  27.720  16.650   0.818
56927W        W29187   5.943  37.531  12.952
56928W        W29188   1.523  43.453   2.767
56929W        W29189  11.063  30.696  13.471
56930W        W29190  11.119  32.105  12.981
56931W        W29191  41.074  14.849  11.843
56932W        W29192   1.137   1.026   1.190
56933W        W29193  13.665  37.126   4.336
56934W        W29194  20.660  20.665   2.240
56935W        W29195  41.375  29.438   4.099
56936W        W29196  13.049  10.196   1.876
56937W        W29197  32.399  19.998  13.501
56938W        W29198  17.521  20.536  14.384
56939W        W29199  12.731  42.277  10.775
56940W        W29200  11.648  34.850   0.325
56941W        W29201  21.085   9.108  10.723
56942W        W29202  19.791  35.895  14.956
56943W        W29203  36.417  10.742  11.949
56944W        W29204  28.336  26.133   2.909
56945W        W29205  24.686  27.732   1.972
56946W        W29206  37.549  38.906   1.834
56947W        W29207   6.127  18.604   0.697
56948W        W29208  38.375  26.795   5.037
56949W        W29209  41.465   8.337  11.116
56950W        W29210  25.784  36.632  12.045
56951W        W29211  25.186  42.872   4.139
56952W        W29212   1.318  32.454   4.442
56953W        W29213  17.082  38.426   4.922
56954W        W29214  29.069   4.840  14.947
56955W        W29215  27.424  21.060   3.744
56956W        W29216   4.800  18.088   1.878
56957W        W29217   4.962   4.351   0.184
56958W        W29218  27.271  28.760   2.347
56959W        W29219  43.992   3.357  11.983
56960W        W29220  15.573  27.410   1.828
56961W        W29221  34.933   8.203  13.780
56962W        W29222  33.559  38.571   2.663
56963W        W29223   2.726  25.007  14.977
56964W        W29224  37.658  38.379   2.363
56965W        W29225  37.430  33.942  11.633
56966W        W29226   7.282  19.870   3.692
56967W        W29227  16.763  10.876   3.220
56968W        W29228  32.106  35.812  11.100
56969W        W29229   6.728  34.989   2.568
56970W        W29230   8.909  25.540  11.126
56971W        W29231   1.587   4.817   1.413
56972W        W29232  27.069  37.565   0.689
56973W        W29233  25.928  18.240  14.790
56974W        W29234  35.531  37.092  14.304
56975W        W29235   3.830  10.734   3.848
56976W        W29236  25.638  42.375   0.222
56977W        W29237  18.230  35.144  13.916
56978W        W29238   8.671  22.500  12.012
56979W        W29239  19.609  39.893   3.165
56980W        W29240  23.122  36.852  13.890
56981W        W29241  33.857  35.494   0.500
56982W        W29242  22.275   8.780   5.126
56983W        W29243  29.891  41.019  12.944
56984W        W29244  30.894  40.539   2.129
56985W        W29245  43.967  29.088   3.376
56986W        W29246  15.658   1.650   4.874
56987W        W29247   1.753  19.845  13.277
56988W        W29248  33.662  28.537   4.821
56989W        W29249  42.391  16.094  13.199
56990W        W29250   3.896   2.357   3.685
56991W        W29251  21.718  35.441   3.305
56992W        W29252   5.384   3.850  12.363
56993W        W29253   9.096  41.041  13.819
56994W        W29254  12.286  15.310  12.493
56995W        W29255  42.948  26.543   1.924
56996W        W29256   2.768  24.920   5.176
56997W        W29257  19.373  29.035   3.797
56998W        W29258  12.196  43.305  11.573
56999W        W29259  15.056  17.282   2.832
57000W        W29260  29.532   0.400   4.521
57001W        W29261  40.779  15.119   3.780
57002W        W29262  12.070  10.712   4.643
57003W        W29263  14.844  43.212  12.897
57004W        W29264   2.772  15.822  10.733
57005W        W29265  17.818  35.321   3.018
57006W        W29266   1.275  40.530   4.345
57007W        W29267  37.478  18.146   1.726
57008W        W29268  29.299  30.193  11.938
57009W        W29269   0.719   8.397  11.484
57010W        W29270  33.639   4.116  12.676
57011W        W29271  30.182  43.861   1.979
57012W        W29272  39.275  13.259   0.366
57013W        W29273  36.908  43.740  12.590
57014W        W29274  35.872  23.519  12.518
57015W        W29275  28.509   3.472   1.353
57016W        W29276  41.514   2.412   4.066
57017W        W29277  35.953   6.622  14.011
57018W        W29278   5.201  12.208  10.933
57019W        W29279  33.985  27.720   2.335
57020W        W29280   1.122  32.878  13.832
57021W        W29281  15.333  36.481   4.707
57022W        W29282  25.986  15.648  14.221
57023W        W29283  10.698  30.442  10.626
57024W        W29284   8.777  29.869  11.202
57025W        W29285  18.509   9.691  11.048
57026W        W29286  31.367  16.183  13.358
57027W        W29287  31.441  43.678  12.067
57028W        W29288   8.170  22.552  12.041
57029W        W29289  24.784   4.631   0.463
57030W        W29290  13.579  33.928  13.986
57031W        W29291  26.500  22.523  12.824
57032W        W29292  10.849  33.755   2.670
57033W        W29293  30.665  13.355   1.216
57034W        W29294  31.121  17.188   1.838
57035W        W29295  15.629  28.140  11.072
57036W        W29296  28.549  30.901   4.479
57037W        W29297  10.001  43.650  12.053
57038W        W29298  32.894  38.360  13.532
57039W        W29299  30.436   6.797  13.990
57040W        W29300  15.362   1.303   4.617
57041W        W29301  22.714  19.218   0.952
57042W        W29302  40.793  14.803  13.845
57043W        W29303  28.141  36.516   2.249
57044W        W29304  44.428  14.653  10.764
57045W        W29305  37.018   3.267  13.104
57046W        W29306  27.828  24.210  10.584
57047W        W29307  32.743  13.608  12.323
57048W        W29308  20.619  10.153  11.400
57049W        W29309   5.705  24.139   2.679
57050W        W29310   0.949  37.961  13.945
57051W        W29311  16.738   6.370   5.475
57052W        W29312   6.139  23.100  10.690
57053W        W29313   7.767  25.909   5.335
57054W        W29314  39.238  28.473  14.469
57055W        W29315  44.360  23.500  13.470
57056W        W29316   4.884  17.656  13.332
57057W        W29317   1.298  41.221  11.571
57058W        W29318  18.127  23.638   3.416
57059W        W29319  37.960  27.189  14.823
57060W        W29320  31.402  19.711   1.946
57061W        W29321  10.323  10.190   4.821
57062W        W29322  23.736  28.128  10.712
57063W        W29323   5.262   9.408  12.595
57064W        W29324   6.687  33.630  11.948
57065W        W29325  42.791  28.153  12.922
57066W        W29326  31.924  23.744   4.520
57067W        W29327  11.340   6.482  13.503
57068W        W29328  20.736  16.178   4.398
57069W        W29329   8.615  22.842   1.903
57070W        W29330  13.248  41.439   3.391
57071W        W29331   9.141  37.646  12.514
57072W        W29332   4.774  30.128   2.637
57073W        W29333  22.323  41.467   4.662
57074W        W29334  38.529  44.996  11.229
57075W        W29335  17.264  17.295  10.591
57076W        W29336  43.700  11.414  12.631
57077W        W29337  36.681   9.281   2.560
57078W        W29338  24.117  25.555  12.148
57079W        W29339   7.135  35.614   1.411
57080W        W29340  40.088  13.453  14.263
57081W        W29341  30.330  14.322   2.824
57082W        W29342  15.544  21.225  13.748
57083W        W29343   6.572  32.116   5.046
57084W        W29344  41.114   0.041  10.842
57085W        W29345  10.154  23.209  12.535
57086W        W29346  34.540   1.837   2.362
57087W        W29347  27.197  10.741  12.896
57088W        W29348   8.848  38.551   0.557
57089W        W29349  20.751  28.302   4.184
57090W        W29350  16.653  13.360  10.719
57091W        W29351   3.882   8.436   5.038
57092W        W29352   1.476  30.920  14.786
57093W        W29353  30.632   1.729   2.171
57094W        W29354   3.381  23.391  11.406
57095W        W29355  29.509  20.328  13.494
57096W        W29356  38.794  32.168   1.808
57097W        W29357   0.350   7.458  11.705
57098W        W29358  35.902   6.699  12.924
57099W        W29359  43.295   9.892   4.327
57100W        W29360   0.719   2.828   4.933
57101W        W29361   5.302  20.091  11.128
57102W        W29362  29.352   6.528  12.567
57103W        W29363  33.333   2.035   0.324
57104W        W29364  41.274  30.116  14.091
57105W        W29365  37.488  23.459  12.145
57106W        W29366  25.885  36.956  14.375
57107W        W29367   2.131  10.850  14.993
57108W        W29368  31.785  37.867   3.820
57109W        W29369  39.983  20.040   2.629
57110W        W29370   5.990   9.671  11.583
57111W        W29371   4.022  34.309   1.292
57112W        W29372  14.327  32.653  12.395
57113W        W29373  35.476  38.340   2.423
57114W        W29374  15.117   6.434  13.077
57115W        W29375  30.844  32.957  11.392
57116W        W29376  40.933   7.885  12.051
57117W        W29377  25.311  26.565  13.562
57118W        W29378  29.892  34.074   0.549
57119W        W29379  32.557  25.287   1.288
57120W        W29380  26.586  44.587   3.315
57121W        W29381  26.983   5.748   1.138
57122W        W29382   0.416  24.238   2.843
57123W        W29383   9.242   0.734  10.429
57124W        W29384  27.161   2.643  12.571
57125W        W29385  33.142  13.180   1.961
57126W        W29386  22.603   2.446   4.650
57127W        W29387  28.396  15.318  12.114
57128W        W29388  39.327   0.701   2.580
57129W        W29389  22.965  19.703   3.190
57130W        W29390  21.091  27.248  10.671
57131W        W29391  31.578  30.465  10.067
57132W        W29392  18.722  34.855   4.163
57133W        W29393  18.685  39.860  13.745
57134W        W29394  40.920  41.832  13.848
57135W        W29395   5.506  21.510  12.896
57136W        W29396  19.005   9.885  12.517
57137W        W29397  19.086   0.550  10.747
57138W        W29398   6.685  15.475  14.377
57139W        W29399   3.872  23.485  11.496
57140W        W29400  43.593  20.583  14.390
57141W        W29401  42.977  25.599  12.549
57142W        W29402  36.358  12.924   9.986
57143W        W29403   8.191   4.598  13.906
57144W        W29404   7.240  26.005  11.050
57145W        W29405   9.387  39.682  12.502
57146W        W29406  39.058   0.274  11.393
57147W        W29407  38.000  24.939  10.389
57148W        W29408  22.154  32.522   1.777
57149W        W29409  13.108   8.223   2.043
57150W        W29410  33.347  41.043  10.539
57151W        W29411   9.685  43.472   0.396
57152W        W29412  19.693  36.891  13.438
57153W        W29413  43.592  17.816   2.701
57154W        W29414   0.702  38.291  12.501
57155W        W29415  16.287   1.031  14.792
57156W        W29416  27.217  43.239   0.336
57157W        W29417   9.135  43.904  12.105
57158W        W29418  13.380  27.640   0.043
57159W        W29419  19.980  15.061   2.733
57160W        W29420   9.106  27.528  14.357
57161W        W29421  29.187  39.425   4.650
57162W        W29422  35.824  43.026   0.328
57163W        W29423   9.921  31.922  12.273
57164W        W29424  23.922  41.477  12.897
57165W        W29425  29.564  40.363  11.340
57166W        W29426  35.499  42.753  12.873
57167W        W29427  32.756  12.828  11.005
57168W        W29428   1.959  21.063   3.293
57169W        W29429  14.052  29.125  13.065
57170W        W29430  24.508  17.083  12.878
57171W        W29431  39.590   5.792  12.084
57172W        W29432  22.194  28.326   2.812
57173W        W29433  24.469  42.970  11.576
57174W        W29434  10.131  42.539  10.731
57175W        W29435  16.188  38.754   1.262
57176W        W29436  38.156  32.876   3.331
57177W        W29437   5.295   7.494  14.279
57178W        W29438  16.138   0.706  13.859
57179W        W29439  23.239  10.433   2.713
57180W        W29440  29.576  35.392  10.978
57181W        W29441   0.728   4.457  10.231
57182W        W29442   8.781  44.963   0.845
57183W        W29443  38.075  37.037  10.664
57184W        W29444  24.512  33.164   2.390
57185W        W29445  18.291   9.812   0.090
57186W        W29446  16.028  35.952  11.190
57187W        W29447  24.692  36.668  10.739
57188W        W29448  31.280   2.394   2.389
57189W        W29449  20.575  12.281  13.484
57190W        W29450  16.728  25.853  11.570
57191W        W29451  22.656  19.500  12.101
57192W        W29452   2.160  38.871   3.678
57193W        W29453  14.009  18.503  10.562
57194W        W29454  18.090  10.140   0.460
57195W        W29455  27.762  17.002   2.246
57196W        W29456  29.031  15.215   3.223
57197W        W29457  22.167  14.143   0.044
57198W        W29458  27.979  33.896   0.826
57199W        W29459   6.427  42.881   1.760
57200W        W29460  18.218  29.466   2.670
57201W        W29461   6.459  24.812  11.126
57202W        W29462  23.426  30.309   1.463
57203W        W29463   4.286  14.232   2.883
57204W        W29464  36.704  34.158   2.337
57205W        W29465   2.249  31.668  11.865
57206W        W29466  33.347  24.131  12.863
57207W        W29467  13.104  34.476  12.431
57208W        W29468   3.360   4.495   4.142
57209W        W29469  23.460  19.213   1.764
57210W        W29470  16.127   5.403   0.343
57211W        W29471   4.172  15.247  13.406
57212W        W29472   7.194  32.043  11.910
57213W        W29473   2.885  10.058  11.143
57214W        W29474   3.652  25.420   2.851
57215W        W29475  44.810  34.807   2.834
57216W        W29476  19.782  18.087   0.176
57217W        W29477  42.899   7.957   0.045
57218W        W29478  11.310  44.395   4.196
57219W        W29479  17.015  30.566   1.253
57220W        W29480   5.960  41.145   2.145
57221W        W29481  19.214  28.635  13.970
57222W        W29482  37.953  12.613  10.677
57223W        W29483  14.649  10.166   4.179
57224W        W29484  37.406  13.586  12.995
57225W        W29485  42.128  11.007  12.531
57226W        W29486   5.684   2.778   3.532
57227W        W29487   3.875   8.711   3.312
57228W        W29488  32.495  17.774  11.496
57229W        W29489   1.890  41.506   4.578
57230W        W29490  21.555   6.258   0.474
57231W        W29491  26.012  25.289   0.502
57232W        W29492   0.521  43.382  11.057
57233W        W29493  42.488  27.488  11.732
57234W        W29494  30.090  17.258  12.014
57235W        W29495  43.343  27.195  14.044
57236W        W29496  40.893  21.117   2.653
57237W        W29497  27.688  26.506   0.847
57238W        W29498  29.080  18.138   2.707
57239W        W29499  24.539   0.391  13.973
57240W        W29500   3.262   2.278  10.563
57241W        W29501   7.746  22.500   4.655
57242W        W29502  33.128  18.294   0.266
57243W        W29503   3.775  21.154  11.427
57244W        W29504  10.035  30.599   1.573
57245W        W29505  24.147  22.952  10.307
57246W        W29506  33.290  14.806   2.274
57247W        W29507   7.820  39.784   2.247
57248W        W29508  36.523   4.470  14.041
57249W        W29509  36.411  37.541  11.434
57250W        W29510  30.727  39.831   2.783
57251W        W29511  23.397  13.740   0.269
57252W        W29512   5.720  22.045   4.422
57253W        W29513  22.006  31.103  13.437
57254W        W29514  31.192  30.517  14.875
57255W        W29515   2.834   1.642   0.437
57256W        W29516   3.521  25.547   0.241
57257W        W29517  33.823   1.317  14.274
57258W        W29518  42.419   3.512  10.391
57259W        W29519   0.467   5.105   4.231
57260W        W29520  37.561   1.045  13.392
57261W        W29521   2.173  40.556  12.467
57262W        W29522  39.442   5.300  10.715
57263W        W29523   7.975  23.267  13.522
57264W        W29524  36.581  26.048   0.919
57265W        W29525  16.916   0.770   2.301
57266W        W29526  38.125  39.835   0.756
57267W        W29527  42.920   0.232   4.231
57268W        W29528  39.585  40.213   4.485
57269W        W29529   3.254  11.564  14.589
57270W        W29530  21.004  42.087  14.377
57271W        W29531  20.099  30.883   1.654
57272W        W29532  19.056  21.308   1.662
57273W        W29533   9.146  10.588  11.071
57274W        W29534  11.217   8.760  11.636
57275W        W29535   9.410  27.436   3.041
57276W        W29536  25.443   6.340   2.709
57277W        W29537  24.148   2.059  14.713
57278W        W29538  39.997  34.788   0.899
57279W        W29539   5.538   9.435   0.405
57280W        W29540   1.632  37.953  11.779
57281W        W29541   8.659  10.237   4.366
57282W        W29542  40.024  17.955  14.802
57283W        W29543  21.000  21.220   4.185
57284W        W29544   9.766  36.583  12.008
57285W        W29545  36.043  23.516   2.964
57286W        W29546   3.176  32.497   1.334
57287W        W29547  23.479  18.722  10.550
57288W        W29548  17.541  10.258  13.852
57289W        W29549  22.751  32.405  14.849
57290W        W29550  10.928   0.244  12.515
57291W        W29551  23.601  26.918   5.093
57292W        W29552  33.012  31.096   3.962
57293W        W29553  13.358  12.415   0.724
57294W        W29554   3.434  29.292   4.598
57295W        W29555  23.068  20.264  12.511
57296W        W29556   8.207  12.656   0.808
57297W        W29557   5.609  44.838  10.589
57298W        W29558   6.337  40.728   0.881
57299W        W29559  29.608   9.174   2.095
57300W        W29560  31.478  24.170  12.430
57301W        W29561  21.511  15.586   4.378
57302W        W29562  34.664   8.868   2.755
57303W        W29563  34.511   7.645  14.938
57304W        W29564  13.353  15.865  13.945
57305W        W29565  21.800   6.207  12.546
57306W        W29566  35.709  15.897  13.992
57307W        W29567   2.234  36.357  12.481
57308W        W29568  36.826  17.875   0.927
57309W        W29569  25.538  12.797  13.819
57310W        W29570  13.435   0.945  13.894
57311W        W29571   5.920   4.757  11.041
57312W        W29572  22.274  23.254   4.043
57313W        W29573  37.178  42.726  14.986
57314W        W29574   8.106  35.538   2.375
57315W        W29575  33.856  20.522  13.749
57316W        W29576  10.428   0.433  12.447
57317W        W29577  15.327  22.799   3.563
57318W        W29578  20.483  35.914  13.280
57319W        W29579  39.448  40.568  14.845
57320W        W29580  26.999  14.156  10.409
57321W        W29581  40.409  29.051  12.781
57322W        W29582  31.958  43.672  12.052
57323W        W29583  32.532  18.561   4.315
57324W        W29584  36.161  41.509  13.914
57325W        W29585  22.237  22.109   0.349
57326W        W29586   0.782  12.896  14.451
57327W        W29587   3.508  20.219   4.679
57328W        W29588  33.160  31.964  12.378
57329W        W29589  14.501  23.374  11.215
57330W        W29590  29.390  36.374  11.140
57331W        W29591   0.146  12.320  13.350
57332W        W29592  42.381  12.860  12.808
57333W        W29593  13.532   7.985   2.836
57334W        W29594   6.854  19.122  11.318
57335W        W29595  13.525  28.935   1.894
57336W        W29596  31.090  35.386  11.662
57337W        W29597  28.901   8.455  14.677
57338W        W29598  41.279  27.414   4.599
57339W        W29599  15.620   5.823  14.024
57340W        W29600  39.368  39.396   2.641
57341W        W29601  37.059  19.853   0.390
57342W        W29602  40.898  44.462  13.429
57343W        W29603  44.579  14.554  14.729
57344W        W29604  29.900   2.957  13.869
57345W        W29605  28.682  27.353   0.678
57346W        W29606  15.268  40.496  11.265
57347W        W29607   7.276  23.731   4.999
57348W        W29608  37.103  29.427  11.657
57349W        W29609  30.589  44.558  12.239
57350W        W29610  28.494  20.873   3.783
57351W        W29611  41.925  22.627   1.546
57352W        W29612  42.318  35.507  11.436
57353W        W29613  29.751  22.228  13.309
57354W        W29614   5.868  42.542  11.574
57355W        W29615   9.421   7.727   1.411
57356W        W29616   5.308  16.154  13.872
57357W        W29617  19.107  10.454   1.818
57358W        W29618  35.005  33.070   0.409
57359W        W29619   6.800  41.993   1.300
57360W        W29620  11.242  42.817  11.534
57361W        W29621   6.382   5.405  13.321
57362W        W29622  17.141  26.706   1.375
57363W        W29623  26.187   7.666   1.281
57364W        W29624   2.887  22.597   3.206
57365W        W29625   7.228  38.836  14.907
57366W        W29626  23.600  16.115  12.225
57367W        W29627   8.197  40.658  12.128
57368W        W29628  30.662   1.265  12.038
57369W        W29629  28.709  39.960  12.335
57370W        W29630  36.008   2.028   0.291
57371W        W29631   5.997  15.295  12.872
57372W        W29632  18.264   4.330  13.436
57373W        W29633  17.091   4.931  13.778
57374W        W29634   0.870  36.085   2.640
57375W        W29635  16.226  11.653   3.143
57376W        W29636  12.348   0.434  14.336
57377W        W29637  37.465  15.349   1.403
57378W        W29638  30.521  33.460   3.140
57379W        W29639   9.104   8.354  11.997
57380W        W29640  21.089  21.016   1.365
57381W        W29641  36.149   8.335   2.677
57382W        W29642   6.279  44.860   4.343
57383W        W29643  41.093  20.303   3.226
57384W        W29644  22.792  38.342  11.234
57385W        W29645  25.554   2.642   3.113
57386W        W29646  12.269   6.294   0.981
57387W        W29647  12.090  19.747  14.589
57388W        W29648  44.879  41.228  11.492
57389W        W29649   0.683   2.951  14.327
57390W        W29650   9.918  14.006  11.317
57391W        W29651  35.041  27.116   2.691
57392W        W29652  32.793  19.075  10.299
57393W        W29653  17.790  25.053   1.311
57394W        W29654  36.280   9.844  12.546
57395W        W29655   7.541  39.127  11.598
57396W        W29656  28.785  27.496  13.805
57397W        W29657  40.777  35.262  14.244
57398W        W29658  16.619  15.526  11.495
57399W        W29659   9.390  35.531   3.689
57400W        W29660   5.672  23.094  11.462
57401W        W29661   7.696   0.503   4.595
57402W        W29662  39.071  10.286  12.263
57403W        W29663  19.189  38.790  12.512
57404W        W29664   3.327  30.012  12.149
57405W        W29665  38.490   0.975   3.709
57406W        W29666  23.216  20.022   5.114
57407W        W29667  34.910  21.913   5.053
57408W        W29668   8.646  13.709   3.377
57409W        W29669  42.974  27.345  12.363
57410W        W29670  44.180   8.858  12.939
57411W        W29671  11.871  39.271  13.359
57412W        W29672  41.056  14.699  10.885
57413W        W29673  13.607   2.395  10.650
57414W        W29674  28.555   5.391  11.333
57415W        W29675  21.706   3.339   3.321
57416W        W29676   0.639  29.882   0.801
57417W        W29677  33.487   8.773   1.329
57418W        W29678   7.899  26.954   2.807
57419W        W29679  44.591   1.831  11.089
57420W        W29680   1.753   4.901   3.111
57421W        W29681  10.715  20.621   3.550
57422W        W29682  20.066  17.344  13.478
57423W        W29683  20.751   8.823  11.116
57424W        W29684  19.749  23.564   3.372
57425W        W29685  16.020  30.984  13.109
57426W        W29686   6.371  16.293  12.963
57427W        W29687  15.133  25.606   3.709
57428W        W29688  17.983  27.243   2.161
57429W        W29689  38.879  12.185   2.196
57430W        W29690  11.475  30.188   4.266
57431W        W29691   3.506  24.260   0.159
57432W        W29692  40.895  17.539   4.187
57433W        W29693  25.722  15.200  14.318
57434W        W29694  31.889  13.404   3.343
57435W        W29695  44.625  16.789   4.520
57436W        W29696  35.480  30.585   2.952
57437W        W29697  20.013  23.946   2.844
57438W        W29698  16.102  11.305   3.781
57439W        W29699  40.479   7.755  13.556
57440W        W29700  28.713  31.510  14.205
57441W        W29701   7.527  27.649   4.757
57442W        W29702   1.396  22.072  11.165
57443W        W29703  42.270  39.342   2.749
57444W        W29704  34.514   9.617   4.193
57445W        W29705  41.609  11.935   4.353
57446W        W29706  33.947  18.496  10.224
57447W        W29707   3.019   5.765   1.140
57448W        W29708   9.149  20.797  12.635
57449W        W29709   5.434  24.978   2.314
57450W        W29710   4.959  42.779   3.707
57451W        W29711   6.692  36.263   0.865
57452W        W29712  27.020  10.241   4.324
57453W        W29713  17.130  34.582   1.471
57454W        W29714  35.938  27.152  13.892
57455W        W29715  11.081   6.593  10.619
57456W        W29716  13.871  32.596   2.322
57457W        W29717  11.237   5.521  14.014
57458W        W29718  24.747  38.078   0.691
57459W        W29719  26.684   8.689   0.375
57460W        W29720   5.420  28.718   5.781
57461W        W29721  40.921  38.071  14.973
57462W        W29722  21.054   3.316   3.777
57463W        W29723  33.464   3.427  14.217
57464W        W29724  23.002  44.555  12.306
57465W        W29725  30.536  17.118   3.181
57466W        W29726  29.688  37.045  14.874
57467W        W29727   0.790  23.671   0.322
57468W        W29728  11.307   7.332   3.476
57469W        W29729   9.919  13.735   1.299
57470W        W29730  20.712  21.813  10.627
57471W        W29731   7.014  30.661   1.315
57472W        W29732   5.005  22.508   4.681
57473W        W29733  32.030  31.108  12.479
57474W        W29734  16.684   2.496   3.110
57475W        W29735  11.794  39.857  12.015
57476W        W29736  33.679  42.957  13.374
57477W        W29737  17.563  31.965  14.399
57478W        W29738   4.358  16.843  11.112
57479W        W29739   2.646  15.595   0.961
57480W        W29740   5.260  42.504   3.237
57481W        W29741  42.099  15.208  12.042
57482W        W29742   0.828  37.493  12.998
57483W        W29743   1.426  22.022  14.856
57484W        W29744  18.172  38.237   4.115
57485W        W29745  38.508  16.232  14.866
57486W        W29746  38.445  35.163   3.281
57487W        W29747  17.788  38.416   0.399
57488W        W29748   4.564  29.540  11.959
57489W        W29749  15.276  18.744  11.154
57490W        W29750  36.671  37.477  13.365
57491W        W29751  18.428   8.295  12.509
57492W        W29752   8.609  17.710  13.888
57493W        W29753  36.915  14.736   4.649
57494W        W29754  27.150  39.326  12.037
57495W        W29755  21.217   2.022   2.189
57496W        W29756  39.014   3.817   3.846
57497W        W29757  13.175  33.892   2.797
57498W        W29758  37.321  23.056   0.133
57499W        W29759  37.885  33.388   1.132
57500W        W29760  33.035  14.942   0.936
57501W        W29761  30.389  24.904  12.421
57502W        W29762  10.585   6.678  13.530
57503W        W29763   2.772  32.062   0.787
57504W        W29764  32.867  14.530  13.574
57505W        W29765  23.584  33.440   4.521
57506W        W29766  20.714  39.795  12.034
57507W        W29767  18.692  30.426   3.306
57508W        W29768  25.440  22.189   1.264
57509W        W29769   0.856  42.373   3.177
57510W        W29770  21.593  40.027  11.117
57511W        W29771  15.233  20.305  13.362
57512W        W29772  10.751   4.288  13.959
57513W        W29773  14.330  14.783   5.500
57514W        W29774  11.734  41.480  12.425
57515W        W29775  30.540  31.234   2.768
57516W        W29776  21.819   6.737  13.426
57517W        W29777  25.892  25.701  14.474
57518W        W29778  24.090  17.123   0.366
57519W        W29779  43.572  23.481  10.679
57520W        W29780  29.051  10.105   0.291
57521W        W29781  34.771  35.895   9.793
57522W        W29782  23.244  25.299  12.529
57523W        W29783  31.526   5.479   2.758
57524W        W29784   0.470   9.906   0.083
57525W        W29785  29.444  15.061   4.274
57526W        W29786  39.740   6.845  14.450
57527W        W29787  28.585  27.158   1.532
57528W        W29788  25.489  42.367   1.861
57529W        W29789  36.411   8.249   1.288
57530W        W29790  31.409  22.311  14.761
57531W        W29791   9.609  15.645   0.798
57532W        W29792  38.242  11.898  13.328
57533W        W29793  18.016  33.928  14.631
57534W        W29794   8.956  11.879  11.967
57535W        W29795   7.096   3.849  14.428
57536W        W29796  25.955  31.738  11.172
57537W        W29797  30.412   0.037  12.215
57538W        W29798  20.588  13.653   0.395
57539W        W29799   0.757  23.877   2.666
57540W        W29800  22.873  15.736  12.581
57541W        W29801  21.157  18.808  10.441
57542W        W29802  44.442  26.715  12.796
57543W        W29803  30.935   0.027  12.301
57544W        W29804  31.965  18.078  12.386
57545W        W29805   6.939  12.121   2.963
57546W        W29806  10.665   1.749   2.708
57547W        W29807  40.242   7.736   1.804
57548W        W29808  33.487  43.458   1.624
57549W        W29809  22.506   6.632  12.962
57550W        W29810   2.269  44.753   1.403
57551W        W29811  24.541  35.661   0.910
57552W        W29812  38.287  28.951   3.795
57553W        W29813  41.574  30.168   3.361
57554W        W29814  26.625  44.513  14.966
57555W        W29815  36.532  18.982   1.904
57556W        W29816   3.268  33.344   3.672
57557W        W29817  31.718  10.710   4.650
57558W        W29818  12.524  33.331  13.526
57559W        W29819   0.192   6.678   1.272
57560W        W29820  24.298  23.294   4.568
57561W        W29821   0.473   8.454  13.402
57562W        W29822  13.981  36.447  12.915
57563W        W29823  27.237  34.592  11.024
57564W        W29824   5.635  40.079  12.937
57565W        W29825   4.198  32.971  14.055
57566W        W29826  17.821  31.845   2.301
57567W        W29827  13.364  23.219  13.904
57568W        W29828   1.724  20.402  12.028
57569W        W29829  37.533  24.670  14.380
57570W        W29830  29.950  41.042   1.617
57571W        W29831  40.589  20.686  11.112
57572W        W29832   2.468  21.331  11.521
57573W        W29833  16.627  19.134  10.901
57574W        W29834  10.001  22.900   3.257
57575W        W29835  12.168  28.478  12.867
57576W        W29836  15.167  36.362   0.425
57577W        W29837  16.168  15.843  13.947
57578W        W29838   9.834   1.496  13.384
57579W        W29839  33.718  35.425   3.472
57580W        W29840  39.647  43.126   0.852
57581W        W29841   8.176  16.595   0.303
57582W        W29842  22.506  41.519  12.862
57583W        W29843   4.028  42.440  13.573
57584W        W29844  12.724  28.005   4.336
57585W        W29845   0.450  23.271  14.927
57586W        W29846   0.940  23.134   0.898
57587W        W29847  38.045  21.339  10.269
57588W        W29848   4.487  39.331   1.149
57589W        W29849  20.874  34.933   1.348
57590W        W29850  23.107  24.006  14.510
57591W        W29851  41.243  39.592   0.448
57592W        W29852  32.339  41.551  12.091
57593W        W29853   9.252   0.801  14.497
57594W        W29854   7.669  22.962   4.882
57595W        W29855  28.046   0.245  13.373
57596W        W29856  11.682  37.497  14.986
57597W        W29857   3.714  34.091   4.597
57598W        W29858  21.281  22.805  12.470
57599W        W29859  15.943  27.214   2.757
57600W        W29860  31.104   5.474  11.648
57601W        W29861  20.342  16.014  11.846
57602W        W29862   1.276   7.773   2.288
57603W        W29863  36.645  15.593  11.616
57604W        W29864  28.469  18.713   3.283
57605W        W29865  20.070   7.193   3.681
57606W        W29866   7.476  33.229  13.741
57607W        W29867  30.430  15.829  10.691
57608W        W29868  35.977  25.911   4.156
57609W        W29869  25.717  18.174  10.690
57610W        W29870   3.034  26.011  14.564
57611W        W29871  38.965   5.432  13.744
57612W        W29872   9.705  25.889   4.198
57613W        W29873   1.768  19.097   4.757
57614W        W29874   7.405  30.037  11.351
57615W        W29875  26.686  14.084  10.808
57616W        W29876   2.569  36.373  11.542
57617W        W29877  28.561  42.971   1.692
57618W        W29878  44.352   5.342  14.317
57619W        W29879  37.115  39.316  11.091
57620W        W29880  24.466  18.547   0.771
57621W        W29881  10.752  24.642   0.479
57622W        W29882  11.599  33.564   1.787
57623W        W29883  38.854   4.080   4.275
57624W        W29884  19.995   6.116  11.978
57625W        W29885  24.956  39.179  12.267
57626W        W29886  11.628  24.254  12.966
57627W        W29887  20.208  40.695  12.643
57628W        W29888  38.473   6.684  14.644
57629W        W29889  43.187  12.639   4.550
57630W        W29890   3.845  44.413   4.572
57631W        W29891   5.798  21.737  12.442
57632W        W29892  14.202  17.596  12.404
57633W        W29893  43.688  41.014   3.282
57634W        W29894  35.970  34.569   1.044
57635W        W29895   4.709  37.067   2.259
57636W        W29896  15.550  32.654   3.844
57637W        W29897   8.159  38.824   0.479
57638W        W29898  24.028   6.654   3.732
57639W        W29899  21.470  15.673   2.662
57640W        W29900  31.490  26.217   4.338
57641W        W29901   3.891  24.112  14.754
57642W        W29902   7.917  15.536   4.364
57643W        W29903  22.469   1.033  12.891
57644W        W29904  18.979  11.892  10.356
57645W        W29905  38.588  43.874  12.436
57646W        W29906  17.806  19.439   4.138
57647W        W29907  39.058  29.367   1.910
57648W        W29908  29.455   7.702   3.420
57649W        W29909   1.437  32.951  12.016
57650W        W29910  19.059  14.486  14.802
57651W        W29911  31.382   2.823  12.217
57652W        W29912  36.480  24.047   4.517
57653W        W29913  38.469  30.486  12.409
57654W        W29914  33.981   0.355   3.871
57655W        W29915  33.058  26.196   2.834
57656W        W29916  35.613  41.724  10.664
57657W        W29917   8.224  11.386  14.472
57658W        W29918  44.468  32.966   4.154
57659W        W29919  17.135  21.949  11.160
57660W        W29920  25.042  22.616   4.685
57661W        W29921  40.838  40.322  11.039
57662W        W29922  31.963  27.120   0.514
57663W        W29923  22.253   3.146  10.653
57664W        W29924   6.235  11.876  13.012
57665W        W29925  11.039  26.451   4.700
57666W        W29926  29.272  24.419   3.196
57667W        W29927  30.107  10.678   1.713
57668W        W29928  28.700   2.645   0.904
57669W        W29929  23.950  36.564  11.076
57670W        W29930  36.594   0.628   0.668
57671W        W29931  25.908  35.213  13.491
57672W        W29932   9.369  29.457  11.563
57673W        W29933  26.746  27.962   3.315
57674W        W29934   4.854   0.974   3.245
57675W        W29935  39.488  11.156   0.814
57676W        W29936  26.107   4.499  14.822
57677W        W29937   7.177  31.653   2.164
57678W        W29938  13.055   7.393   0.266
57679W        W29939   2.788  27.975  14.927
57680W        W29940  31.363   9.934  12.488
57681W        W29941   3.415  41.877  14.276
57682W        W29942  30.618  44.389   0.940
57683W        W29943  26.131  41.828   3.635
57684W        W29944   6.844   5.215   0.450
57685W        W29945  38.962  37.706   4.167
57686W        W29946  13.174  11.360   4.285
57687W        W29947  23.605   1.359   4.124
57688W        W29948  13.235  40.633  12.944
57689W        W29949  14.726  31.494   0.324
57690W        W29950  34.480  18.889   2.890
57691W        W29951  44.252  21.278  13.434
57692W        W29952  27.111  19.242   2.233
57693W        W29953  24.938   0.486   2.018
57694W        W29954  28.483  36.568  11.955
57695W        W29955   1.702  18.110  14.864
57696W        W29956  29.498  30.499  14.469
57697W        W29957  40.894  41.784  12.041
57698W        W29958  20.077  37.157  13.659
57699W        W29959   8.886  18.537  14.873
57700W        W29960  35.024   6.680   2.154
57701W        W29961  33.964  16.431  12.965
57702W        W29962  19.593   5.081   2.082
57703W        W29963  13.776  22.348  13.758
57704W        W29964  17.697  28.602   4.842
57705W        W29965  29.897  27.086   4.758
57706W        W29966  30.781  41.501   1.216
57707W        W29967  22.205  11.321   1.381
57708W        W29968  19.750   4.223  12.610
57709W        W29969   2.601  24.632  13.508
57710W        W29970  31.987   7.022  14.839
57711W        W29971  25.525  22.455   2.168
57712W        W29972  18.073  27.054  14.383
57713W        W29973  31.425  22.464   3.324
57714W        W29974   3.491  15.063   3.584
57715W        W29975   5.980   1.816  10.525
57716W        W29976  15.159   1.957  12.863
57717W        W29977  23.032  33.447   5.208
57718W        W29978  24.526  10.595  13.227
57719W        W29979  43.407  43.208   1.626
57720W        W29980  42.284  19.082   3.616
57721W        W29981  35.921  22.547  13.533
57722W        W29982  43.770  27.478  11.912
57723W        W29983  39.649   5.346   2.104
57724W        W29984   9.676  16.774  12.636
57725W        W29985  27.748   8.614   4.579
57726W        W29986  16.476   0.904   3.295
57727W        W29987  20.528   3.797  14.416
57728W        W29988  43.751  14.367   2.897
57729W        W29989  29.390  31.138   1.943
57730W        W29990  16.616   9.769  14.192
57731W        W29991  24.503   9.623   1.406
57732W        W29992  37.489   0.048   4.244
57733W        W29993   0.125  19.608   1.354
57734W        W29994  39.819  29.682  11.631
57735W        W29995  40.444  23.147   0.710
57736W        W29996  37.645  28.445  10.755
57737W        W29997  19.258  35.575   0.328
57738W        W29998   5.813  39.582  12.880
57739W        W29999  10.379  33.335  12.929
57740W        W30000  44.262   3.197   2.379
57741W        W30001  20.792   7.432   3.797
57742W        W30002  28.732  12.746   4.307
57743W        W30003  41.823  32.463   3.219
57744W        W30004  34.476  38.288  12.189
57745W        W30005  36.519  18.612  11.017
57746W        W30006  30.522  10.220  13.261
57747W        W30007  40.615  23.064  14.400
57748W        W30008  35.151   8.406   0.836
57749W        W30009   8.029  15.166  11.777
57750W        W30010   3.810   4.362  14.590
57751W        W30011   2.728  16.802   1.496
57752W        W30012   6.647  14.887   1.763
57753W        W30013  22.186  22.836   3.715
57754W        W30014  34.889  10.756  11.993
57755W        W30015  14.342  22.684   4.510
57756W        W30016   1.397  31.433   0.190
57757W        W30017  31.173  39.819  13.978
57758W        W30018  26.587  37.515   1.981
57759W        W30019   3.183  22.670   4.121
57760W        W30020  25.636  24.823   2.772
57761W        W30021   4.300  23.707   3.650
57762W        W30022  18.073  19.407   2.692
57763W        W30023  33.630  18.218  10.966
57764W        W30024  25.677  12.798  11.563
57765W        W30025  44.347   5.640   0.422
57766W        W30026   5.734  41.515  11.494
57767W        W30027  10.333   1.953   3.935
57768W        W30028  39.748   7.623   1.691
57769W        W30029   7.933   6.692  11.541
57770W        W30030  24.647   9.272  14.843
57771W        W30031   7.977  15.826  12.914
57772W        W30032  18.540  24.526   4.264
57773W        W30033  19.217  18.015  12.461
57774W        W30034  37.459   4.858   3.756
57775W        W30035  43.398   0.032  12.972
57776W        W30036   4.284  42.473   0.429
57777W        W30037  33.957  11.854  11.097
57778W        W30038  43.246  42.382   4.561
57779W        W30039  39.233  24.248  11.198
57780W        W30040  41.855   8.194   0.596
57781W        W30041  38.471  43.775   4.875
57782W        W30042  28.625  38.129  12.415
57783W        W30043   1.744  34.587  10.673
57784W        W30044   5.908  26.026   0.487
57785W        W30045  10.740  19.200  10.595
57786W        W30046  30.919  30.464  11.471
57787W        W30047  31.428  20.206  13.293
57788W        W30048  28.434   3.349  13.984
57789W        W30049   4.428   9.451  14.476
57790W        W30050  44.089   0.958  13.353
57791W        W30051  30.155  13.066   3.685
57792W        W30052  27.019  23.944  12.857
57793W        W30053  40.876  25.586   1.427
57794W        W30054  16.314  17.088   4.703
57795W        W30055  17.363  27.207   1.431
57796W        W30056  31.970  36.527   4.503
57797W        W30057   0.345  14.132  13.313
57798W        W30058   3.378  36.803  12.318
57799W        W30059  22.109   5.237  11.527
57800W        W30060  14.167   1.572  12.499
57801W        W30061  15.028  15.645   3.157
57802W        W30062   0.890  24.782  11.080
57803W        W30063  38.758   9.001  13.900
57804W        W30064  22.779  35.972   1.812
57805W        W30065   2.279  19.320   3.744
57806W        W30066  17.113  13.621  11.424
57807W        W30067  37.038  10.711   1.294
57808W        W30068  44.547  33.621  14.979
57809W        W30069  29.531  34.854  14.460
57810W        W30070  22.578  21.091   2.715
57811W        W30071   8.079  23.271   4.743
57812W        W30072   3.761  11.209   4.736
57813W        W30073  36.639  14.312   1.897
57814W        W30074   7.281  37.726  11.882
57815W        W30075  22.754  21.743  14.014
57816W        W30076  14.720  44.426  10.083
57817W        W30077  17.713  39.556  14.500
57818W        W30078  18.268   1.041  11.970
57819W        W30079  43.432   1.052   4.100
57820W        W30080  28.974   1.121   1.165
57821W        W30081   9.221   5.274   2.738
57822W        W30082   2.971  32.954   2.310
57823W        W30083  40.968   3.824  13.406
57824W        W30084  12.847  17.035   2.681
57825W        W30085  16.024  26.411   2.456
57826W        W30086  29.588  27.652  12.616
57827W        W30087  32.640  26.509   5.046
57828W        W30088  43.775   5.782   3.084
57829W        W30089  12.027  22.681   3.086
57830W        W30090   2.542  21.268  10.122
57831W        W30091  22.216   8.150  14.379
57832W        W30092  31.018  32.941   4.902
57833W        W30093  28.998  23.511   3.173
57834W        W30094   5.282  15.470  12.355
57835W        W30095  29.063  38.574  10.615
57836W        W30096  36.905  31.516   0.499
57837W        W30097   0.909   9.583   2.358
57838W        W30098  22.120  29.365  12.045
57839W        W30099  13.265  42.458  12.784
57840W        W30100  32.502  12.133   3.595
57841W        W30101  22.228   4.746   0.082
57842W        W30102   5.500  36.317   1.378
57843W        W30103  20.988  33.007   2.182
57844W        W30104   3.415  30.253  11.706
57845W        W30105   4.549  29.265  10.992
57846W        W30106  18.638  26.237  10.874
57847W        W30107  44.976   0.908   3.297
57848W        W30108  14.235  12.514   1.253
57849W        W30109  25.568   6.401  12.303
57850W        W30110  11.203  42.391   2.367
57851W        W30111  39.490  23.602  14.862
57852W        W30112  38.604  37.137  12.396
57853W        W30113  44.546  31.938   0.016
57854W        W30114  44.471  12.744   9.951
57855W        W30115  14.763   6.212  12.294
57856W        W30116  34.950  43.809   0.530
57857W        W30117   6.051  26.045  11.542
57858W        W30118  37.117   7.834  14.840
57859W        W30119  13.997  17.308   3.968
57860W        W30120  15.084  20.447   3.323
57861W        W30121  12.282  38.632   4.210
57862W        W30122   4.766  18.765  13.502
57863W        W30123  27.492  42.988  10.659
57864W        W30124  21.177  26.985  14.852
57865W        W30125  15.067  16.231  10.701
57866W        W30126  34.807  41.327   3.998
57867W        W30127   5.834  32.134   2.558
57868W        W30128   3.738  10.235  14.672
57869W        W30129   9.252  37.381  12.973
57870W        W30130  16.596  21.297   0.321
57871W        W30131  41.252  37.805   1.750
57872W        W30132   8.836  37.507  11.629
57873W        W30133   5.850   6.787  12.557
57874W        W30134  18.145  16.123  10.925
57875W        W30135  24.599  42.961   2.344
57876W        W30136  35.416  20.450   3.333
57877W        W30137  35.601  44.868   3.456
57878W        W30138  14.591  27.469   3.771
57879W        W30139  30.050   5.413  14.022
57880W        W30140  15.694  22.024  11.930
57881W        W30141  26.565  30.705   1.808
57882W        W30142   3.357  10.819   4.033
57883W        W30143  37.679  44.215   2.294
57884W        W30144  19.660  23.585   0.333
57885W        W30145   8.265   2.045  13.001
57886W        W30146  44.867  28.903   3.729
57887W        W30147  12.071  36.374  10.721
57888W        W30148  20.324   3.471   0.763
57889W        W30149  20.995  14.911  12.930
57890W        W30150  43.558  36.524   1.441
57891W        W30151  14.657  15.787   2.745
57892W        W30152   6.844  44.836  13.389
57893W        W30153  21.502  13.859   1.973
57894W        W30154  26.138   8.635  14.798
57895W        W30155  27.040   8.806  12.370
57896W        W30156  21.640  34.621  10.692
57897W        W30157  27.146  25.053  13.612
57898W        W30158  35.597  35.321  14.844
57899W        W30159  27.683  38.315  12.597
57900W        W30160  36.827  42.961   1.271
57901W        W30161  36.187  24.281   4.938
57902W        W30162  26.030  12.807   1.492
57903W        W30163  26.971  42.856   2.218
57904W        W30164  18.674   1.294   2.735
57905W        W30165  37.937  11.189  13.396
57906W        W30166   6.212  26.175   4.254
57907W        W30167   0.847  15.699   4.603
57908W        W30168  16.091   9.843   2.615
57909W        W30169   2.749  25.581  14.786
57910W        W30170  13.729  41.770   2.402
57911W        W30171  23.532  33.141   4.059
57912W        W30172  36.390   1.728  11.899
57913W        W30173   3.668  12.758  10.774
57914W        W30174  36.638  28.196  13.507
57915W        W30175   3.943  17.005   1.694
57916W        W30176  12.436  14.100  14.416
57917W        W30177  42.808  37.092   9.952
57918W        W30178  43.045  26.415   2.873
57919W        W30179  11.676  21.556  14.820
57920W        W30180  20.497  41.608  11.641
57921W        W30181  31.017  29.519  12.372
57922W        W30182   0.905  32.188   0.542
57923W        W30183  32.974  23.181  13.027
57924W        W30184  26.022  32.488  10.702
57925W        W30185  42.470  10.745  11.869
57926W        W30186  16.853  12.743   4.191
57927W        W30187  31.533  24.980   3.332
57928W        W30188  32.100  40.399   0.197
57929W        W30189   6.368  38.827  14.027
57930W        W30190  27.537  38.571   0.652
57931W        W30191  40.382  10.781   1.194
57932W        W30192  12.871  21.468  12.539
57933W        W30193  38.198  16.652  11.488
57934W        W30194  23.281  43.051   2.692
57935W        W30195  22.500  42.910   4.106
57936W        W30196  18.158  30.991   4.518
57937W        W30197  23.745  24.488  11.106
57938W        W30198  13.175  19.701   0.391
57939W        W30199  43.853  13.289   1.389
57940W        W30200   7.415  19.059  12.053
57941W        W30201  38.195  19.361   0.355
57942W        W30202  18.827   1.847  13.931
57943W        W30203  44.819  16.070   3.347
57944W        W30204  37.034  40.307   2.305
57945W        W30205  40.723  35.910  10.006
57946W        W30206  31.122  23.761  14.954
57947W        W30207  32.504   6.433  13.178
57948W        W30208   9.261  44.072  13.483
57949W        W30209  19.088  30.439   2.722
57950W        W30210   8.186  41.294  12.674
57951W        W30211  16.300  17.269  13.322
57952W        W30212  17.762  20.542   0.848
57953W        W30213   1.380  37.445   1.255
57954W        W30214   6.393  12.274   2.302
57955W        W30215  44.084  38.116  13.793
57956W        W30216  12.861  29.962   2.864
57957W        W30217  27.639  15.049   3.419
57958W        W30218  32.154  12.901  13.479
57959W        W30219  44.885  16.140   1.054
57960W        W30220   2.715  17.707   3.659
57961W        W30221   3.964  23.753   2.807
57962W        W30222  15.243   2.872  13.848
57963W        W30223  10.036   0.423  13.841
57964W        W30224  21.995   5.677  14.671
57965W        W30225  31.201  39.207  12.388
57966W        W30226   4.197   8.619  11.519
57967W        W30227  39.961  15.565   2.690
57968W        W30228   9.642  23.346  14.461
57969W        W30229   2.836  30.959  14.422
57970W        W30230  28.128  32.460  12.785
57971W        W30231  11.601   8.354  14.365
57972W        W30232  39.036  22.829   1.872
57973W        W30233  40.921  10.895   0.024
57974W        W30234  40.428  40.128   0.751
57975W        W30235  19.000  17.318  13.955
57976W        W30236  37.484  35.263  11.610
57977W        W30237  15.647  26.163   0.320
57978W        W30238  13.571   4.851  11.012
57979W        W30239  41.613  39.564   0.810
57980W        W30240  18.492  25.767   3.664
57981W        W30241   1.210  22.179   2.369
57982W        W30242  14.663  36.998   0.410
57983W        W30243  33.982  41.527  13.107
57984W        W30244  25.367   6.619   1.330
57985W        W30245  38.635  41.991  10.727
57986W        W30246  12.848  36.430  11.334
57987W        W30247  35.654  15.432   0.800
57988W        W30248  31.384  17.152  13.375
57989W        W30249  43.037  17.764   3.801
57990W        W30250  17.981  39.625  13.227
57991W        W30251  28.091  16.513   4.172
57992W        W30252   5.535  38.987  11.699
57993W        W30253  34.577  20.669  14.216
57994W        W30254   2.274  30.887   4.890
57995W        W30255   4.178  36.922  10.834
57996W        W30256   1.038   5.369  13.785
57997W        W30257  36.902  10.875   2.218
57998W        W30258   6.789  12.822  10.854
57999W        W30259   0.667  25.119  12.440
58000W        W30260   0.987   3.710  14.729
58001W        W30261  42.647  24.084  14.446
58002W        W30262  39.072  34.011  12.036
58003W        W30263  12.139  43.907   1.383
58004W        W30264  11.456   4.296   2.736
58005W        W30265  36.546  19.710   1.981
58006W        W30266   7.292   2.660  14.443
58007W        W30267  17.753   4.583  11.933
58008W        W30268  44.174  19.198  10.742
58009W        W30269  30.951  16.074   2.779
58010W        W30270  11.686  44.035  13.819
58011W        W30271  12.327   3.164   2.731
58012W        W30272  14.574  39.560  10.707
58013W        W30273  12.152  39.003  11.971
58014W        W30274  13.184  42.014  10.666
58015W        W30275   8.282  12.867   2.418
58016W        W30276   3.450  29.816   4.617
58017W        W30277  12.239   7.189   1.922
58018W        W30278   9.772  23.202   3.750
58019W        W30279   8.769   6.771  14.707
58020W        W30280  29.072  43.306   2.323
58021W        W30281  17.537  20.305   0.429
58022W        W30282  19.249  32.026   4.699
58023W        W30283   2.326   6.373  12.940
58024W        W30284   3.224  32.085   2.092
58025W        W30285  25.284   8.941  13.874
58026W        W30286  42.415  30.719   3.613
58027W        W30287  21.100  20.216   4.170
58028W        W30288  10.225   6.768   3.839
58029W        W30289  37.551  22.088   0.711
58030W        W30290  26.423  14.776  14.575
58031W        W30291  27.910  23.438   4.280
58032W        W30292  29.777  19.758   2.169
58033W        W30293  31.424  43.917  14.586
58034W        W30294  20.610  12.506   2.649
58035W        W30295  11.011  42.002   2.790
58036W        W30296  24.263  30.764  11.421
58037W        W30297  26.994   0.844   1.334
58038W        W30298  36.824  38.326   1.889
58039W        W30299   0.356   1.397  12.037
58040W        W30300   5.755  15.383  14.926
58041W        W30301  16.710  22.666   0.725
58042W        W30302  17.335  36.454  11.137
58043W        W30303   7.645  19.657   0.476
58044W        W30304  36.419  41.458   0.478
58045W        W30305  37.136  38.399   2.372
58046W        W30306   8.942  42.810  11.931
58047W        W30307  44.096  32.747  14.488
58048W        W30308   4.678  43.452   3.320
58049W        W30309  15.026  13.280  12.274
58050W        W30310  36.310   8.176  14.847
58051W        W30311  35.519   5.789   1.462
58052W        W30312  12.838  16.249  14.411
58053W        W30313  25.712  36.640  13.399
58054W        W30314  41.516  26.013   3.383
58055W        W30315  18.559  33.261  12.480
58056W        W30316  18.594  36.575  10.614
58057W        W30317   4.759  23.638   1.243
58058W        W30318  36.556  27.361  12.856
58059W        W30319   3.008  36.826  11.960
58060W        W30320  24.097  24.155  10.870
58061W        W30321  12.358  10.234   4.638
58062W        W30322   2.306  12.301   4.072
58063W        W30323   5.212  15.063  10.760
58064W        W30324  40.049  29.045   1.872
58065W        W30325  33.905  30.035  11.125
58066W        W30326   1.807   4.203   0.877
58067W        W30327   8.207  14.886   2.353
58068W        W30328  18.159  12.224  14.443
58069W        W30329  23.208   8.910  12.862
58070W        W30330  13.661   3.251   2.259
58071W        W30331  38.354  17.400  13.918
58072W        W30332  31.401  34.966  12.522
58073W        W30333  16.227  27.914  14.789
58074W        W30334  25.118  22.727   2.002
58075W        W30335  41.839  26.621  10.224
58076W        W30336   9.020  26.966  12.406
58077W        W30337  28.937  34.593   2.779
58078W        W30338  39.347  21.616  13.304
58079W        W30339  24.256   7.577   4.566
58080W        W30340  17.775  26.609  10.851
58081W        W30341  44.813  24.162   4.052
58082W        W30342   9.015  44.299  10.689
58083W        W30343  14.583  16.319   2.736
58084W        W30344  27.396   7.222  13.045
58085W        W30345  36.577  20.834   9.631
58086W        W30346  35.583  30.095   4.544
58087W        W30347  32.229  13.040  11.298
58088W        W30348  34.854   1.274  14.580
58089W        W30349   2.235  13.961  14.506
58090W        W30350   8.085  18.659   0.864
58091W        W30351  34.605  27.826   0.402
58092W        W30352  42.638  21.844   3.825
58093W        W30353  36.008  42.549   0.352
58094W        W30354   7.816  10.577  11.450
58095W        W30355  13.041   4.085  14.945
58096W        W30356  43.335  20.083   4.336
58097W        W30357  29.468  25.958  12.894
58098W        W30358  40.430  10.553  14.011
58099W        W30359   1.955  29.048   1.687
58100W        W30360  40.482  17.266  14.719
58101W        W30361   4.376  44.421  11.135
58102W        W30362  27.014  15.870   2.244
58103W        W30363  11.490   8.088   0.916
58104W        W30364  30.694   1.524  13.468
58105W        W30365  33.175  26.601   1.396
58106W        W30366  23.740  17.097   3.109
58107W        W30367  22.582  29.011  14.975
58108W        W30368  23.134  43.486   2.969
58109W        W30369  10.175  30.204   3.324
58110W        W30370  21.492  17.556   0.719
58111W        W30371   6.906  12.230  12.519
58112W        W30372  39.020   8.583   4.179
58113W        W30373  14.962   1.747   3.276
58114W        W30374   9.143   0.230   1.805
58115W        W30375   6.379   6.015  12.063
58116W        W30376  21.741  30.741  12.099
58117W        W30377  25.134   4.633   9.942
58118W        W30378  24.628  43.910  14.742
58119W        W30379  29.105  12.308  13.875
58120W        W30380   3.632  19.518   3.594
58121W        W30381  38.477   6.172  10.930
58122W        W30382  39.269  40.796   1.780
58123W        W30383  10.760   5.169  13.452
58124W        W30384   0.173  38.985   4.190
58125W        W30385   8.868  18.837  12.094
58126W        W30386   9.535   9.342  13.531
58127W        W30387  38.580  25.975  11.525
58128W        W30388   8.175   8.820   3.192
58129W        W30389  42.033  20.542  14.310
58130W        W30390  24.881  21.014  12.549
58131W        W30391  26.710   8.166  11.954
58132W        W30392  19.952  33.429  14.820
58133W        W30393  16.263  37.411   1.894
58134W        W30394  34.862  20.499   4.538
58135W        W30395  25.286   2.334   2.716
58136W        W30396   4.805   8.275  12.710
58137W        W30397  16.514  28.563   2.258
58138W        W30398  12.759   1.709  12.816
58139W        W30399  24.059   9.597   3.819
58140W        W30400  30.175  26.956  14.730
58141W        W30401  26.683  36.710  12.113
58142W        W30402  11.258  13.272   1.910
58143W        W30403   9.457   9.396   0.058
58144W        W30404  43.067   7.859  11.738
58145W        W30405  29.939   2.176   2.145
58146W        W30406  35.420  38.864   1.228
58147W        W30407  41.309  34.640   4.162
58148W        W30408  44.247   5.333   3.383
58149W        W30409  44.883  42.988   1.464
58150W        W30410   4.936  30.565   0.816
58151W        W30411  25.449  23.630   0.738
58152W        W30412  31.193  30.262  12.777
58153W        W30413  13.766  40.085  14.301
58154W        W30414  16.733   6.921   5.448
58155W        W30415  35.480  36.550   0.638
58156W        W30416  43.990  41.790   0.653
58157W        W30417  42.373   2.164   4.641
58158W        W30418  27.887  26.561  14.330
58159W        W30419  25.174  35.191   3.719
58160W        W30420   9.798  20.574   3.271
58161W        W30421  19.536  29.195  11.934
58162W        W30422  39.689   7.269  12.864
58163W        W30423  34.006  42.813   5.022
58164W        W30424  44.362  39.445  14.454
58165W        W30425   1.907  13.877   3.725
58166W        W30426  38.212  22.611   0.216
58167W        W30427   5.596  33.465  14.813
58168W        W30428   6.434  34.693  14.486
58169W        W30429  22.772  23.601  13.909
58170W        W30430  10.493  18.652  14.267
58171W        W30431  36.772  11.780   4.343
58172W        W30432   8.130   3.299   4.676
58173W        W30433   9.493  28.871   4.049
58174W        W30434  36.967   2.936  11.618
58175W        W30435   1.477  39.559   3.846
58176W        W30436  36.351  21.274   2.767
58177W        W30437  15.277   4.155   2.269
58178W        W30438  25.712  20.265  13.272
58179W        W30439  36.910  26.905   2.691
58180W        W30440  24.654  39.275   4.172
58181W        W30441  32.393  26.053   4.914
58182W        W30442  23.055  29.827   4.167
58183W        W30443   4.864  33.682   0.292
58184W        W30444  41.003  40.754   3.255
58185W        W30445  20.550  18.030   4.690
58186W        W30446  35.924  22.297  11.498
58187W        W30447  38.523  35.255  13.364
58188W        W30448  23.382  17.979  10.010
58189W        W30449   0.286  26.482   2.003
58190W        W30450  14.378  14.400  11.027
58191W        W30451   8.233  43.015   4.654
58192W        W30452  11.710  27.447  12.870
58193W        W30453   7.625   7.943   1.238
58194W        W30454  28.445  14.227  11.834
58195W        W30455  21.658   7.227  12.868
58196W        W30456  17.150   8.834   1.495
58197W        W30457  40.557  18.329  13.850
58198W        W30458  10.176  17.761  12.172
58199W        W30459  10.593  40.574   2.831
58200W        W30460  11.103  29.988   5.175
58201W        W30461  14.719  41.475  12.584
58202W        W30462  13.134  27.172  11.339
58203W        W30463  38.525  29.294   1.771
58204W        W30464  28.294  15.029  13.938
58205W        W30465   0.844  33.654  10.737
58206W        W30466  27.578   8.914  14.979
58207W        W30467  22.855  15.622   3.260
58208W        W30468   3.275  38.951   4.769
58209W        W30469  31.825  10.397   4.261
58210W        W30470  37.404   2.893   4.311
58211W        W30471  17.389  36.456  14.777
58212W        W30472  11.823  38.759  14.669
58213W        W30473  19.273  40.468   3.860
58214W        W30474  37.552   9.926   0.032
58215W        W30475   5.199   8.900  14.036
58216W        W30476   1.975  21.178  11.564
58217W        W30477   2.422  39.357   3.682
58218W        W30478  21.999  32.107   4.391
58219W        W30479  43.216  12.704   3.220
58220W        W30480  30.661  14.869   2.211
58221W        W30481  39.380   1.918   3.196
58222W        W30482  14.419  10.179   4.827
58223W        W30483  14.057  21.251   5.030
58224W        W30484   8.167  16.108   3.163
58225W        W30485   6.870  10.109   5.086
58226W        W30486  38.064   2.773  10.996
58227W        W30487  15.314   3.545   3.118
58228W        W30488  24.596  43.718   1.903
58229W        W30489  28.412  12.085  12.025
58230W        W30490  13.063   4.188  13.932
58231W        W30491  13.857   7.743  14.547
58232W        W30492   7.597  28.688   1.620
58233W        W30493  19.781  18.604   5.115
58234W        W30494  11.693  35.616  13.557
58235W        W30495  28.032  43.797  14.945
58236W        W30496  44.450  38.104   3.702
58237W        W30497   2.929  39.713  11.628
58238W        W30498  11.441  10.005  11.328
58239W        W30499  10.391  15.677   3.886
58240W        W30500  36.056  44.219  13.763
58241W        W30501   8.035  17.591   2.689
58242W        W30502  12.385  44.601   2.815
58243W        W30503  22.348  25.606  13.337
58244W        W30504  30.383  11.729   0.339
58245W        W30505  37.364   1.508  13.226
58246W        W30506  26.683  41.483   4.646
58247W        W30507  41.879  28.106   0.316
58248W        W30508   2.276  40.946   2.802
58249W        W30509   6.459   3.611   1.442
58250W        W30510  23.604  11.281  14.479
58251W        W30511  23.587  28.138   0.203
58252W        W30512   6.659  41.011  13.170
58253W        W30513  21.843  33.488   4.126
58254W        W30514   5.963  31.068  12.159
58255W        W30515  20.578   9.168   0.263
58256W        W30516   6.693  26.654   3.066
58257W        W30517  30.611  43.905  11.586
58258W        W30518  44.200  16.546   2.811
58259W        W30519   1.957  17.061   2.261
58260W        W30520  27.387  27.416   4.884
58261W        W30521   0.424   3.869   0.370
58262W        W30522   5.122  40.942  13.815
58263W        W30523  35.611  43.471   1.515
58264W        W30524  37.447  40.332  13.034
58265W        W30525  30.415  21.487  14.498
58266W        W30526  22.881  21.306  12.535
58267W        W30527   8.118   8.671  14.989
58268W        W30528  25.462  10.442  13.862
58269W        W30529  35.266   5.012   9.695
58270W        W30530  20.674  10.366  12.402
58271W        W30531  32.579  14.564   1.776
58272W        W30532   8.024  42.765  10.285
58273W        W30533  18.512  39.540  12.509
58274W        W30534  44.029   8.641   0.929
58275W        W30535  24.943  31.078   1.768
58276W        W30536  31.612  11.870  14.729
58277W        W30537  29.478  20.990   5.014
58278W        W30538   2.870  44.217   4.650
58279W        W30539  11.067   2.009   1.852
58280W        W30540  10.527  35.324  14.665
58281W        W30541  24.134  43.387   2.662
58282W        W30542   1.782  22.017  13.928
58283W        W30543  17.137   8.505  10.608
58284W        W30544   4.164  39.051  13.480
58285W        W30545   0.938  41.892   1.805
58286W        W30546  36.442  22.246  12.359
58287W        W30547  24.971  25.903  12.307
58288W        W30548  11.364   8.688  12.518
58289W        W30549  41.714  42.404  14.905
58290W        W30550  30.091  37.334   0.014
58291W        W30551   3.327  16.451  14.927
58292W        W30552  30.931  19.081   0.078
58293W        W30553   0.453   1.907   1.435
58294W        W30554  36.983  44.329   1.229
58295W        W30555   2.700  19.600  13.887
58296W        W30556  21.056  23.050   0.583
58297W        W30557  37.462  23.983   2.179
58298W        W30558  27.642  11.713   0.649
58299W        W30559  31.613  24.478  10.815
58300W        W30560   7.355  31.520  10.685
58301W        W30561  15.850   6.466   3.368
58302W        W30562  16.501  19.629  14.384
58303W        W30563  12.137   4.462   1.539
58304W        W30564  36.380  39.995  11.108
58305W        W30565  42.869   0.660   0.946
58306W        W30566  37.380   6.450  10.705
58307W        W30567   3.688   5.998   3.689
58308W        W30568  25.406   8.176  12.582
58309W        W30569  26.531  35.367   2.390
58310W        W30570  35.698  28.566   4.863
58311W        W30571  33.587  30.004   3.708
58312W        W30572  18.163  16.199   0.801
58313W        W30573  29.113  32.711   2.720
58314W        W30574  44.970  34.545   1.322
58315W        W30575  32.640   8.192  12.395
58316W        W30576  20.038  25.537   4.111
58317W        W30577  11.871   5.490  14.422
58318W        W30578  23.567  26.703  14.788
58319W        W30579   3.846   3.944   2.869
58320W        W30580  34.090   4.839  12.473
58321W        W30581   4.995  42.050  13.980
58322W        W30582  13.457   0.375  11.585
58323W        W30583  40.278  13.589  10.772
58324W        W30584  15.627  21.957   0.882
58325W        W30585  19.014  14.233   2.017
58326W        W30586   2.526  40.043   2.444
58327W        W30587  30.859  34.215   2.207
58328W        W30588   2.397  12.659   0.691
58329W        W30589  18.807   1.068   3.771
58330W        W30590  38.079   7.953  12.492
58331W        W30591  27.125   8.227   2.422
58332W        W30592   4.229  17.627  11.994
58333W        W30593   4.154  33.347  10.544
58334W        W30594   8.306  23.526  14.716
58335W        W30595   4.721  40.022  14.260
58336W        W30596  18.758  44.770  10.553
58337W        W30597  26.453   9.158   0.445
58338W        W30598  32.085   0.467  11.600
58339W        W30599   3.027  14.631  12.351
58340W        W30600  44.944  16.316   4.691
58341W        W30601   5.622  20.623   2.597
58342W        W30602  38.075  42.426   2.654
58343W        W30603  26.270  22.107   1.593
58344W        W30604   3.779  23.219  13.985
58345W        W30605   2.140  33.633   0.457
58346W        W30606  19.627   3.483   3.237
58347W        W30607   6.896  42.660  13.981
58348W        W30608  38.990  43.459   5.067
58349W        W30609   0.256  27.172  13.484
58350W        W30610  26.601  37.340   3.402
58351W        W30611   8.242  10.163   4.060
58352W        W30612  23.595  25.054   3.893
58353W        W30613  14.579  40.897   3.788
58354W        W30614  39.788  38.428  11.006
58355W        W30615  18.104  33.670   1.052
58356W        W30616  14.175  19.076   1.842
58357W        W30617  23.630  38.602   0.542
58358W        W30618  43.026  23.680  10.618
58359W        W30619  18.846   7.632   4.696
58360W        W30620  11.561  40.854   1.519
58361W        W30621  13.175   0.100   4.605
58362W        W30622  14.570  44.966  12.338
58363W        W30623   8.866  16.992   0.769
58364W        W30624  35.077   2.275   0.698
58365W        W30625  12.616  10.480  14.802
58366W        W30626   1.330  30.959   3.660
58367W        W30627  20.982  36.700   5.098
58368W        W30628  14.088  17.762  13.031
58369W        W30629  38.483  12.857  12.948
58370W        W30630  13.833  18.634  13.445
58371W        W30631   9.020  16.028  11.099
58372W        W30632  28.705   1.421   3.857
58373W        W30633  13.111  44.227  11.199
58374W        W30634   9.913   2.215   1.155
58375W        W30635  25.220  24.555  11.286
58376W        W30636   5.927  30.931  11.152
58377W        W30637  37.983  24.780   0.751
58378W        W30638   6.364  15.162   0.239
58379W        W30639  23.960  25.915  14.922
58380W        W30640  24.463  30.480  10.760
58381W        W30641  17.681  27.447   4.622
58382W        W30642  37.102  25.379  11.679
58383W        W30643  44.166  22.077   2.859
58384W        W30644  24.697  30.132  13.521
58385W        W30645  34.352  36.836  12.060
58386W        W30646  18.907  37.513   0.248
58387W        W30647  38.967  23.108  13.564
58388W        W30648   1.910   3.733  14.838
58389W        W30649  33.034   1.242   1.774
58390W        W30650  38.637  43.203  11.998
58391W        W30651  24.888  31.772  12.395
58392W        W30652  16.301   1.689   0.412
58393W        W30653   6.928   4.572   1.031
58394W        W30654  37.740  11.825   3.742
58395W        W30655   0.747  44.831  10.866
58396W        W30656  40.029  31.422   2.669
58397W        W30657  30.347  27.064   1.475
58398W        W30658  12.107  30.842   2.599
58399W        W30659  36.076  24.453   1.673
58400W        W30660  12.518  25.198  13.692
58401W        W30661  30.187  28.814  10.643
58402W        W30662  40.555  11.291   0.300
58403W        W30663   4.175   4.811   3.181
58404W        W30664   9.400  40.480  10.724
58405W        W30665  18.810  30.560  11.192
58406W        W30666  33.965  43.384   1.859
58407W        W30667  31.749  21.510  11.010
58408W        W30668  26.598  12.547   2.234
58409W        W30669  34.528  37.713  14.149
58410W        W30670  38.733   7.317  11.998
58411W        W30671  15.500  42.596  12.344
58412W        W30672   8.121  41.470  14.461
58413W        W30673  15.936   8.641   1.957
58414W        W30674  37.565   7.217   3.663
58415W        W30675  33.911  33.067   3.715
58416W        W30676  18.663  44.034   4.225
58417W        W30677  27.221  20.567   3.801
58418W        W30678  34.431   2.459  11.345
58419W        W30679  43.271  33.763  13.073
58420W        W30680  20.122  17.284   0.059
58421W        W30681   4.340  20.004  14.353
58422W        W30682  10.566  33.328   4.521
58423W        W30683   6.983  31.318   2.520
58424W        W30684  12.209  28.088   0.092
58425W        W30685  16.987  28.717  10.084
58426W        W30686  42.384   5.227   2.357
58427W        W30687   2.788   2.508  13.893
58428W        W30688  15.254   3.970   0.392
58429W        W30689  32.417  16.240   4.246
58430W        W30690  31.371  33.022  11.467
58431W        W30691   2.362  22.613   2.474
58432W        W30692  34.637  25.212   4.097
58433W        W30693  38.626  40.521  12.420
58434W        W30694  35.360   1.870   0.509
58435W        W30695  31.573  42.238   3.581
58436W        W30696   9.348  40.974   3.530
58437W        W30697  23.532   3.362   2.651
58438W        W30698  38.841   1.456   0.614
58439W        W30699  31.442  33.850  14.593
58440W        W30700  33.362  12.400   4.201
58441W        W30701  30.945  44.962   2.393
58442W        W30702  38.113  36.943  14.957
58443W        W30703  43.740  16.021  11.506
58444W        W30704  36.719  15.798   1.699
58445W        W30705  35.891  18.161  11.863
58446W        W30706  24.770  23.531  12.695
58447W        W30707   1.823   7.163   3.655
58448W        W30708  18.050  23.591   1.658
58449W        W30709   1.495  21.717  12.037
58450W        W30710   5.981   8.350   0.909
58451W        W30711   7.908  13.693  12.493
58452W        W30712   8.481  27.074  12.511
58453W        W30713  39.471  32.540  13.413
58454W        W30714  22.292   6.565   4.115
58455W        W30715  11.179  31.922   4.076
58456W        W30716  22.015  11.744  13.837
58457W        W30717   4.156  38.125   3.663
58458W        W30718   2.773  28.081  12.946
58459W        W30719  16.215  30.602  12.829
58460W        W30720  19.606   7.612   3.062
58461W        W30721   3.888  11.223   2.079
58462W        W30722   6.690  25.034  14.904
58463W        W30723  13.383  34.956  10.714
58464W        W30724  25.449  30.921   4.336
58465W        W30725   0.686  10.318  10.130
58466W        W30726   9.559  10.939  11.947
58467W        W30727  16.212  27.088  13.026
58468W        W30728   1.219  17.311   4.899
58469W        W30729  12.551  30.050  11.191
58470W        W30730  19.476   2.184   2.375
58471W        W30731  31.426  40.561   0.402
58472W        W30732  11.073   6.823   3.296
58473W        W30733  25.994  13.716  13.692
58474W        W30734  19.773  32.101   1.195
58475W        W30735  14.596  15.328   0.272
58476W        W30736  30.947  27.072   0.312
58477W        W30737  39.031  24.114  12.552
58478W        W30738  38.879   7.408  10.046
58479W        W30739   4.815  12.781  13.749
58480W        W30740   9.616   9.141  12.086
58481W        W30741   3.901   9.417   2.652
58482W        W30742  35.243  10.880   2.275
58483W        W30743  38.739  33.700  11.342
58484W        W30744  31.954  34.084  13.961
58485W        W30745  43.792   4.802   2.753
58486W        W30746  35.593  32.882  12.966
58487W        W30747  16.931  16.650   9.846
58488W        W30748  44.325  24.071  13.659
58489W        W30749  16.727  37.727  12.353
58490W        W30750  20.083  34.361   1.287
58491W        W30751  30.138  29.625   1.948
58492W        W30752   6.336  19.341  10.678
58493W        W30753  19.461  38.455  12.176
58494W        W30754  26.842  24.921  11.178
58495W        W30755   8.608  20.393  12.099
58496W        W30756  37.823  36.511   3.887
58497W        W30757  39.957   2.725  11.597
58498W        W30758  24.186  32.432   3.297
58499W        W30759  41.873  11.445  11.912
58500W        W30760   0.218   1.988  14.482
58501W        W30761  17.596  29.968   0.268
58502W        W30762  33.545  11.442  14.585
58503W        W30763   8.397  22.696  14.876
58504W        W30764  12.955  41.476  11.209
58505W        W30765  41.359   9.242   0.961
58506W        W30766  31.468  15.431   1.473
58507W        W30767  23.604   6.617   0.096
58508W        W30768   8.464   2.398   1.028
58509W        W30769  10.029   1.320  12.378
58510W        W30770   7.325  21.201  11.027
58511W        W30771  30.630  34.121   4.954
58512W        W30772  16.671  37.206   3.629
58513W        W30773  27.463   6.294   4.725
58514W        W30774  14.735  29.204   3.720
58515W        W30775  39.095   1.913   2.663
58516W        W30776  44.298   5.145  11.555
58517W        W30777  15.338  29.976  13.971
58518W        W30778  25.543  34.070  11.968
58519W        W30779  23.937  12.591   1.765
58520W        W30780  24.641  24.039  13.475
58521W        W30781  38.641  39.287   2.039
58522W        W30782  39.063  19.832   0.004
58523W        W30783  15.774  38.544  11.812
58524W        W30784   4.175  37.019   4.502
58525W        W30785  28.586  22.387  13.446
58526W        W30786  24.038   9.878   1.080
58527W        W30787  24.903   3.497  11.611
58528W        W30788  30.643  15.640   4.588
58529W        W30789  29.974  27.805  12.968
58530W        W30790  25.581  37.331   0.140
58531W        W30791  42.592   6.846   0.502
58532W        W30792  41.465  42.167  12.066
58533W        W30793  37.652   8.835  14.425
58534W        W30794   9.659   4.554   0.767
58535W        W30795   7.267   2.958   1.288
58536W        W30796  18.269   0.324   4.218
58537W        W30797   2.319  31.017  14.532
58538W        W30798   3.827  27.158   0.728
58539W        W30799  11.143  43.871  14.463
58540W        W30800  16.101  13.051  14.386
58541W        W30801  13.631   3.423   5.038
58542W        W30802   7.188   0.038   1.021
58543W        W30803  34.967  13.435  11.146
58544W        W30804  22.599  13.392  11.192
58545W        W30805  23.656   5.462   0.261
58546W        W30806  44.754  15.712   2.035
58547W        W30807  18.826   8.617   2.175
58548W        W30808  37.299  20.429  12.462
58549W        W30809  17.219  34.446  11.806
58550W        W30810  37.998  42.175   3.540
58551W        W30811  37.929  27.460  14.396
58552W        W30812  12.340  29.875  14.871
58553W        W30813  22.656   3.710  12.039
58554W        W30814  19.125  30.702   3.162
58555W        W30815   6.855  12.712   1.504
58556W        W30816  32.751   5.164   1.818
58557W        W30817  34.481  15.697  13.396
58558W        W30818   5.258  29.482   1.256
58559W        W30819   1.587  31.271  11.807
58560W        W30820  33.865   7.399  12.902
58561W        W30821  35.830  43.824  12.058
58562W        W30822   3.201  18.589  11.234
58563W        W30823  26.027  39.660   3.214
58564W        W30824  22.903  13.621  10.840
58565W        W30825  10.411  30.225  14.429
58566W        W30826  32.125  19.497   2.681
58567W        W30827   8.203   6.195  12.740
58568W        W30828  28.709   3.719   2.308
58569W        W30829  19.268   0.037   4.683
58570W        W30830   3.049  34.082  12.884
58571W        W30831  35.408  14.532   2.439
58572W        W30832  16.224  14.647   3.590
58573W        W30833  21.554   3.118   3.784
58574W        W30834  33.694  22.148  13.380
58575W        W30835  11.237  36.100   0.210
58576W        W30836  23.172   9.163  13.304
58577W        W30837  32.672   3.867  12.509
58578W        W30838  33.487  27.469  12.958
58579W        W30839  31.689  43.176  12.121
58580W        W30840   3.924   7.618  11.821
58581W        W30841   7.686  20.042  11.416
58582W        W30842  31.508  26.452   3.207
58583W        W30843  13.148  14.172   0.350
58584W        W30844  16.373  38.704  12.378
58585W        W30845  22.100  40.096  11.077
58586W        W30846  37.401  40.314   3.098
58587W        W30847   8.115  24.023   2.638
58588W        W30848  11.667  43.053  14.250
58589W        W30849  22.485   7.629  12.658
58590W        W30850  28.559   8.797   1.866
58591W        W30851   9.276  31.178  14.706
58592W        W30852   2.447  37.581   0.436
58593W        W30853  24.227   3.571   3.184
58594W        W30854  26.932  24.588  10.704
58595W        W30855   6.701  12.078   3.783
58596W        W30856   5.409  31.905   3.834
58597W        W30857  40.427  31.900  14.352
58598W        W30858  16.746  24.132   0.560
58599W        W30859  32.653   4.367   2.771
58600W        W30860  34.694  43.323  14.883
58601W        W30861  28.487   3.442  12.913
58602W        W30862   3.788  31.968   4.165
58603W        W30863   2.322  14.054   2.196
58604W        W30864  26.137  14.235  13.428
58605W        W30865  33.893  42.318   3.768
58606W        W30866  11.128  27.378   1.846
58607W        W30867  22.146  23.217  12.817
58608W        W30868   2.351  28.764  13.271
58609W        W30869  44.421  30.114  10.530
58610W        W30870   8.439   8.843   1.267
58611W        W30871  33.248  39.554   4.800
58612W        W30872  42.827  30.899   4.358
58613W        W30873  19.732  11.232  13.993
58614W        W30874  14.278  19.781   2.203
58615W        W30875  25.741  18.737  14.836
58616W        W30876  14.474   9.717  13.299
58617W        W30877   5.865  34.037   3.006
58618W        W30878  38.035  44.895  11.424
58619W        W30879  15.063   3.830  11.838
58620W        W30880   7.945   3.219  13.526
58621W        W30881  18.358  37.956  11.596
58622W        W30882  37.105  27.888   1.717
58623W        W30883  40.433  13.903  11.139
58624W        W30884  10.344  23.134  11.129
58625W        W30885  37.019  13.160   0.882
58626W        W30886  26.233  39.135   9.521
58627W        W30887  24.144  24.166  12.340
58628W        W30888   3.948  13.519   1.234
58629W        W30889  19.980  32.946   2.479
58630W        W30890  28.714   3.013   2.900
58631W        W30891  44.353   0.747  12.069
58632W        W30892   0.011   2.753  11.015
58633W        W30893  23.104  29.759   5.062
58634W        W30894  38.512  22.157   0.178
58635W        W30895   9.199  23.191  11.468
58636W        W30896   3.426  22.214   4.120
58637W        W30897  31.153   8.515   0.856
58638W        W30898   7.253  20.075   1.290
58639W        W30899  20.724  34.616  10.489
58640W        W30900  32.868  36.732   1.183
58641W        W30901  11.229  44.369  12.049
58642W        W30902   0.243  16.656  13.907
58643W        W30903  37.356  19.252   0.399
58644W        W30904  15.766   2.709   1.736
58645W        W30905  27.989  11.405   2.719
58646W        W30906  29.699  13.137  12.467
58647W        W30907   1.750  41.761  13.171
58648W        W30908  34.866   7.219  12.521
58649W        W30909  37.298  25.129  10.698
58650W        W30910  44.497  40.431  14.335
58651W        W30911  26.935   2.595   2.796
58652W        W30912   2.641  30.381   3.625
58653W        W30913  10.564  19.981  14.787
58654W        W30914  29.646  30.587  12.018
58655W        W30915  22.692   5.436  11.077
58656W        W30916  21.277  14.626   1.294
58657W        W30917  16.290   1.200  12.479
58658W        W30918  38.176  22.614   3.944
58659W        W30919  43.713  16.813  12.121
58660W        W30920   1.866   7.211   0.923
58661W        W30921  19.650  41.880   5.044
58662W        W30922  17.608  41.279   3.358
58663W        W30923  35.925  30.881  11.144
58664W        W30924  22.825  28.612   0.879
58665W        W30925  40.233  39.526  13.901
58666W        W30926  16.694  21.312  11.563
58667W        W30927  16.805   4.831  10.636
58668W        W30928   7.415  23.040   1.299
58669W        W30929  11.216  39.906   1.378
58670W        W30930  37.013  16.845  14.921
58671W        W30931  20.847   1.209   0.805
58672W        W30932  38.269   0.972   0.048
58673W        W30933  22.182  20.222  14.977
58674W        W30934  20.413  17.244   1.418
58675W        W30935   5.691   3.844  14.931
58676W        W30936  22.451   0.498   1.969
58677W        W30937   6.678  42.261  13.079
58678W        W30938   1.903  18.528   3.572
58679W        W30939  35.318   7.784  11.598
58680W        W30940  16.276  23.146  11.526
58681W        W30941   9.754  16.067  14.485
58682W        W30942  37.116  38.598   0.937
58683W        W30943  36.074  42.972   1.725
58684W        W30944  12.164  39.246  12.434
58685W        W30945   4.181  19.306  13.894
58686W        W30946  11.457   9.185   2.626
58687W        W30947  16.142  34.037   2.957
58688W        W30948  33.215  42.396   1.528
58689W        W30949   5.779  15.463  13.519
58690W        W30950  25.593  32.090  11.110
58691W        W30951   7.931  35.489  11.457
58692W        W30952  32.497   0.103   0.407
58693W        W30953  12.146  24.362   3.680
58694W        W30954  18.304  36.789   0.039
58695W        W30955  12.218  33.641   3.745
58696W        W30956  22.270  36.126   4.768
58697W        W30957  23.205  41.766   2.575
58698W        W30958  10.487  40.251   2.399
58699W        W30959  27.077  34.305  13.791
58700W        W30960   5.288  30.537  12.657
58701W        W30961  44.942  15.158  11.939
58702W        W30962   1.851  25.466  10.176
58703W        W30963  10.799   7.175  12.645
58704W        W30964   2.208   9.864  13.004
58705W        W30965  11.457  25.368  14.189
58706W        W30966   3.066  41.001  12.005
58707W        W30967   3.292  43.047  12.705
58708W        W30968  24.613  20.187   2.747
58709W        W30969  22.108  43.723   1.000
58710W        W30970  26.499  12.775   3.113
58711W        W30971  12.926  29.398  13.456
58712W        W30972   1.485  13.575  11.169
58713W        W30973  21.288  32.626   1.673
58714W        W30974  44.460  25.903   1.311
58715W        W30975  42.527  12.930   3.778
58716W        W30976  16.567  24.468   1.740
58717W        W30977  21.073  19.887   2.717
58718W        W30978  29.772   2.057   2.634
58719W        W30979  13.722  38.335  13.367
58720W        W30980  42.284   3.978   4.254
58721W        W30981   7.985  43.103   2.445
58722W        W30982  34.208  30.362  14.447
58723W        W30983   0.051  43.834  12.180
58724W        W30984   0.043  26.156  13.393
58725W        W30985  35.623   3.991   1.705
58726W        W30986  41.956  30.364  13.879
58727W        W30987  23.390  12.579  12.759
58728W        W30988  25.452  28.657   4.299
58729W        W30989  14.043  16.734   5.492
58730W        W30990  37.154   1.066  11.132
58731W        W30991  16.290  23.405  13.976
58732W        W30992  11.314   0.588   3.127
58733W        W30993  14.729  13.776   4.689
58734W        W30994  22.217   3.321   0.388
58735W        W30995   9.788  27.703  11.187
58736W        W30996  37.793  24.531  11.161
58737W        W30997   4.788  44.216   3.024
58738W        W30998   9.970  11.714   2.787
58739W        W30999   9.665  32.523  12.907
58740W        W31000  43.538  32.588   2.708
58741W        W31001  12.251  25.931  11.189
58742W        W31002  15.845  15.808   0.682
58743W        W31003  42.709   3.341   4.418
58744W        W31004  15.057   0.954  11.159
58745W        W31005  36.440  25.700   4.107
58746W        W31006  14.144   2.426  13.608
58747W        W31007  39.426  27.769  13.891
58748W        W31008  27.496  10.722  12.453
58749W        W31009  26.150  23.243  14.349
58750W        W31010   1.205  28.098   0.856
58751W        W31011   1.990   2.689   0.690
58752W        W31012   9.326  19.848  12.511
58753W        W31013  12.127  38.790   1.755
58754W        W31014   6.931  14.129  11.048
58755W        W31015  38.579   9.511   2.857
58756W        W31016   0.899  30.438   1.345
58757W        W31017  14.402  28.466   3.272
58758W        W31018  12.363  34.952   1.263
58759W        W31019  15.303  26.437  14.388
58760W        W31020  15.160  43.514   4.026
58761W        W31021  10.448   7.576   1.691
58762W        W31022  38.099  25.067   1.453
58763W        W31023  26.390   5.626   0.329
58764W        W31024   1.245  14.871  11.650
58765W        W31025  23.227  21.066   3.221
58766W        W31026  29.854  37.776  14.836
58767W        W31027   0.313  21.021  10.544
58768W        W31028  35.804  27.005  13.390
58769W        W31029   7.905  11.833   2.729
58770W        W31030  25.081  44.984  12.835
58771W        W31031   7.908  36.335   1.616
58772W        W31032  33.124  35.841   3.188
58773W        W31033  31.111  31.936   0.923
58774W        W31034  44.004  42.810  14.307
58775W        W31035  25.857  28.789   4.003
58776W        W31036  24.997   1.473  11.184
58777W        W31037  17.731  29.458   2.780
58778W        W31038  18.036  15.081  11.820
58779W        W31039  25.199  44.597  12.003
58780W        W31040  21.591   7.879  11.033
58781W        W31041  22.663   6.901   3.384
58782W        W31042  32.119  19.120  13.454
58783W        W31043  35.073  30.489  11.690
58784W        W31044  38.311   5.804   1.940
58785W        W31045  41.072   0.803  13.388
58786W        W31046  36.556  39.784  10.687
58787W        W31047  29.107  44.773   1.364
58788W        W31048   4.579   7.506   0.241
58789W        W31049  29.040   7.590   3.090
58790W        W31050  10.082  28.741  12.337
58791W        W31051  10.793  10.095   1.796
58792W        W31052   4.896  21.472   1.207
58793W        W31053   1.370   8.943  11.022
58794W        W31054   7.151  40.383   3.228
58795W        W31055  39.001  36.312   0.808
58796W        W31056  44.332  40.779   1.229
58797W        W31057  12.339   0.667   4.230
58798W        W31058  18.289  36.997   2.379
58799W        W31059  35.128  41.889  14.880
58800W        W31060  17.690  40.562  13.426
58801W        W31061  18.144  42.031   4.587
58802W        W31062  30.377   1.313  11.584
58803W        W31063  17.165  15.558  11.521
58804W        W31064  21.148  19.007  12.885
58805W        W31065  35.814  23.904  10.576
58806W        W31066   2.708   0.409  12.919
58807W        W31067  38.560  10.527  10.232
58808W        W31068  37.836  41.579  12.518
58809W        W31069   3.525  21.640   3.947
58810W        W31070  11.427  18.019  10.720
58811W        W31071  39.889  22.471  11.378
58812W        W31072   2.843  28.317   1.160
58813W        W31073  37.471  29.728   4.477
58814W        W31074  20.787  18.634   2.981
58815W        W31075  43.409  10.679   2.765
58816W        W31076  38.015  19.962  12.234
58817W        W31077   6.118  36.514   1.758
58818W        W31078  23.581   8.375   1.840
58819W        W31079  11.837   5.192   0.396
58820W        W31080  10.833  16.997  13.869
58821W        W31081  20.986  21.471  13.475
58822W        W31082  19.177  28.133  14.790
58823W        W31083  37.512  13.875   4.629
58824W        W31084  16.204  19.685   1.699
58825W        W31085  31.204  18.826   0.504
58826W        W31086   6.700  32.562   1.191
58827W        W31087  27.674  32.088  13.956
58828W        W31088   4.267   9.082  11.680
58829W        W31089   4.084  38.137   0.267
58830W        W31090  15.086  39.886   2.622
58831W        W31091  43.472   1.325  14.915
58832W        W31092  26.618  37.928   1.273
58833W        W31093   7.395  18.218  10.536
58834W        W31094  27.446  31.706   3.656
58835W        W31095  36.050   6.757  12.056
58836W        W31096  21.679  27.646   0.337
58837W        W31097  23.219  30.692  12.006
58838W        W31098  44.510  29.665   3.999
58839W        W31099  22.219  37.965   1.264
58840W        W31100  32.398   0.897  11.620
58841W        W31101  10.689  22.188  12.033
58842W        W31102   3.489  35.484   0.260
58843W        W31103  35.428  38.088   4.676
58844W        W31104  25.016   5.800  11.701
58845W        W31105  26.203  41.048   3.160
58846W        W31106  24.995  13.718   1.296
58847W        W31107   5.951  24.106   2.220
58848W        W31108  14.757  40.686   2.356
58849W        W31109  14.297  29.458   3.563
58850W        W31110  22.159  42.731   1.105
58851W        W31111  19.807  39.987  10.592
58852W        W31112  40.333  41.974   3.843
58853W        W31113  36.712   4.853   2.249
58854W        W31114  26.728   4.024   1.306
58855W        W31115  43.172  16.618   3.614
58856W        W31116  37.020   6.695  12.891
58857W        W31117   9.186  24.076  13.381
58858W        W31118  36.966  27.687   4.172
58859W        W31119  32.468  10.531  12.064
58860W        W31120  38.395  40.945  12.589
58861W        W31121  22.520   6.739   4.868
58862W        W31122  38.220   3.252   2.670
58863W        W31123  39.805  34.201  14.535
58864W        W31124   3.930  35.956   4.281
58865W        W31125  32.192  34.029   0.264
58866W        W31126  32.954  15.886   0.834
58867W        W31127  41.763   8.855  12.936
58868W        W31128  44.412  25.451  14.901
58869W        W31129  24.474  38.345  13.319
58870W        W31130   9.760  27.176  13.612
58871W        W31131   1.127   3.590   0.951
58872W        W31132  12.504  30.731   1.223
58873W        W31133  44.300  31.042   1.917
58874W        W31134  34.478  15.340   4.563
58875W        W31135  35.696  13.419  11.488
58876W        W31136  16.520  42.077   0.285
58877W        W31137  12.789  17.391  10.140
58878W        W31138  13.569  24.730  12.457
58879W        W31139  11.352  44.218  11.053
58880W        W31140  27.728  15.915   1.777
58881W        W31141   7.679  20.298   2.112
58882W        W31142   6.355   1.428   3.895
58883W        W31143  36.164  19.975  13.582
58884W        W31144  31.227  38.463   1.869
58885W        W31145  40.663  37.390   3.193
58886W        W31146  12.915  10.774  13.544
58887W        W31147  22.233   4.219  11.442
58888W        W31148  23.677  37.747   0.532
58889W        W31149   8.550  37.442   4.340
58890W        W31150   1.326   9.408   3.106
58891W        W31151   2.104   9.338  12.000
58892W        W31152  18.590  15.190  14.120
58893W        W31153  18.170  35.094   0.715
58894W        W31154  44.524  18.887   2.988
58895W        W31155  18.840  23.464   0.954
58896W        W31156  12.428  25.553   3.713
58897W        W31157  42.918  30.328   3.684
58898W        W31158   7.365  12.053   0.890
58899W        W31159  36.337  28.663  12.428
58900W        W31160  29.999  26.649  11.279
58901W        W31161  29.173  39.318   3.669
58902W        W31162   7.442   0.964  11.158
58903W        W31163  24.732  26.972  10.626
58904W        W31164   1.292   9.929  11.144
58905W        W31165   5.931  17.187  10.775
58906W        W31166  31.450   9.218  13.840
58907W        W31167   4.507  37.613   2.797
58908W        W31168  25.271  42.563  12.545
58909W        W31169  16.235   6.763  11.987
58910W        W31170  30.470  26.267  12.125
58911W        W31171  40.355  44.525  11.171
58912W        W31172  16.868  19.189   1.865
58913W        W31173  32.957  40.675  10.678
58914W        W31174  39.255  37.567   3.765
58915W        W31175  34.576  32.918   3.198
58916W        W31176  41.358   1.828  10.585
58917W        W31177   5.941  25.122  14.325
58918W        W31178  21.248   8.877  12.517
58919W        W31179  38.323  22.638   2.813
58920W        W31180   7.883  14.333   3.102
58921W        W31181  29.541  31.918  12.028
58922W        W31182  36.493  23.687  12.290
58923W        W31183  15.653   9.109  10.816
58924W        W31184  40.218  38.634   1.985
58925W        W31185   6.237  44.915  10.616
58926W        W31186   3.340   1.763   3.082
58927W        W31187  41.340   1.353   0.389
58928W        W31188   6.276   3.058   4.745
58929W        W31189  36.845  10.435  14.526
58930W        W31190  35.661  26.566   1.314
58931W        W31191  21.269   0.496  13.441
58932W        W31192  11.411  39.404  14.075
58933W        W31193  25.708  26.154   0.702
58934W        W31194  19.657  44.800   2.610
58935W        W31195  28.161  18.165   4.330
58936W        W31196  23.067   9.658   0.791
58937W        W31197  32.614  22.248   0.407
58938W        W31198  16.537   7.236  12.020
58939W        W31199  31.418  42.812   4.551
58940W        W31200   7.355  28.246  13.518
58941W        W31201  34.891  32.280   0.951
58942W        W31202  27.207  38.455   4.115
58943W        W31203  20.697  10.295  13.445
58944W        W31204  21.973  43.936  12.067
58945W        W31205   4.390  38.848   1.898
58946W        W31206  38.596  17.589   4.152
58947W        W31207  33.157  23.921  11.073
58948W        W31208  35.120   7.853  14.621
58949W        W31209  31.537  44.796  14.525
58950W        W31210   5.120  38.486   2.144
58951W        W31211  19.081  11.864  10.850
58952W        W31212  11.785  19.810  10.686
58953W        W31213   8.204   3.685  12.529
58954W        W31214  24.603  18.345  10.921
58955W        W31215   9.173  39.440   4.395
58956W        W31216  29.536  31.476  13.686
58957W        W31217  28.954  44.230  12.891
58958W        W31218  26.590   4.228  13.023
58959W        W31219   8.900   4.362  12.408
58960W        W31220  12.604  44.713   1.212
58961W        W31221  22.828  11.672   2.163
58962W        W31222  14.354  28.717  12.888
58963W        W31223   9.036  28.176   1.735
58964W        W31224  14.311  24.208  11.540
58965W        W31225  25.981   7.514  11.962
58966W        W31226  31.971  38.033  10.753
58967W        W31227   6.244  25.132  12.552
58968W        W31228  16.090  26.268  11.934
58969W        W31229   6.348  24.114  12.590
58970W        W31230  13.735  22.620  12.924
58971W        W31231  26.374  44.424  13.314
58972W        W31232  19.028  33.569   2.595
58973W        W31233   1.217  16.587  11.076
58974W        W31234  22.306  38.854   1.909
58975W        W31235  18.093  33.128   0.980
58976W        W31236  33.776   2.262   1.896
58977W        W31237  32.582  19.588   3.923
58978W        W31238   4.745  17.364  13.881
58979W        W31239  25.043   8.426  11.620
58980W        W31240  27.157  31.113  11.611
58981W        W31241  25.407  22.054  14.899
58982W        W31242   4.293  32.956  14.571
58983W        W31243  10.714   0.836   0.247
58984W        W31244  34.542  13.737  12.877
58985W        W31245   5.039  32.296  12.186
58986W        W31246  21.706  18.730   2.166
58987W        W31247   0.521   9.608  12.688
58988W        W31248  17.834  15.976  12.985
58989W        W31249  44.252  28.515   4.485
58990W        W31250  13.179  19.712   3.128
58991W        W31251  29.107  43.002  11.528
58992W        W31252  17.803   2.944   4.249
58993W        W31253  26.411  19.172   0.983
58994W        W31254  42.776  44.226   2.235
58995W        W31255  13.580   0.418   4.598
58996W        W31256  27.224  42.976   4.723
58997W        W31257  22.767   7.249  11.420
58998W        W31258   3.215   0.034  10.535
58999W        W31259   4.121  28.779   3.706
59000W        W31260  27.681  12.258   1.894
59001W        W31261  24.386  41.791   5.014
59002W        W31262  30.611  10.406   4.631
59003W        W31263  44.725   7.756  11.092
59004W        W31264  26.612  10.022   1.325
59005W        W31265   0.990   5.941   2.615
59006W        W31266   1.973  15.808  12.601
59007W        W31267  28.466  36.158  11.493
59008W        W31268  13.773  31.208   1.289
59009W        W31269  35.015  29.794  10.662
59010W        W31270  28.994  19.014   3.715
59011W        W31271  14.635  10.862   4.472
59012W        W31272  38.628  16.396  13.782
59013W        W31273  20.679  17.077  14.449
59014W        W31274  26.004  40.181  13.136
59015W        W31275  43.834  31.987  12.922
59016W        W31276  19.679  33.502   3.184
59017W        W31277  15.662  21.578   2.892
59018W        W31278  25.083  29.254   1.502
59019W        W31279  27.617  11.782   2.056
59020W        W31280  40.827  41.041  10.333
59021W        W31281  27.936   3.155   4.060
59022W        W31282  11.156  19.855  10.778
59023W        W31283  40.839  10.812   3.345
59024W        W31284  13.787   2.649  11.118
59025W        W31285  44.921  17.852  13.545
59026W        W31286  32.123  26.163   3.615
59027W        W31287   2.202  33.888  12.503
59028W        W31288  11.722   0.799   0.311
59029W        W31289  35.424  41.051   3.232
59030W        W31290   9.735  26.899  11.447
59031W        W31291  38.115  43.217  11.945
59032W        W31292  33.327  19.380  12.800
59033W        W31293  34.535  32.285  11.091
59034W        W31294  16.362  26.843  13.523
59035W        W31295  30.888   3.306  12.419
59036W        W31296  19.831  26.141   0.352
59037W        W31297   0.510  42.930  14.844
59038W        W31298  13.386  40.934   3.269
59039W        W31299  28.522  39.928  12.821
59040W        W31300  10.090  17.570  12.635
59041W        W31301  39.802  37.969  10.755
59042W        W31302  29.646   0.780   2.426
59043W        W31303  11.400  20.303  10.654
59044W        W31304  33.837   6.553  14.930
59045W        W31305  23.909  23.746  12.559
59046W        W31306  16.813  15.390  12.470
59047W        W31307   9.160   0.202  12.638
59048W        W31308  44.787  40.520   1.478
59049W        W31309  40.960  10.472   1.821
59050W        W31310  27.186  31.369  14.225
59051W        W31311   8.654  10.707   3.111
59052W        W31312  29.168  40.871   4.768
59053W        W31313  42.013  14.432  12.516
59054W        W31314   1.862  14.415  11.173
59055W        W31315  37.137  40.494  14.337
59056W        W31316   8.449  27.039  11.109
59057W        W31317  34.882  42.609   3.723
59058W        W31318  35.001  35.360  11.953
59059W        W31319  12.211  24.735   3.114
59060W        W31320  36.139  31.845   4.101
59061W        W31321  28.268  37.444  12.905
59062W        W31322  21.126   9.699  11.226
59063W        W31323  16.539  30.073  10.716
59064W        W31324  15.559  25.882   3.804
59065W        W31325  13.747   5.213   4.481
59066W        W31326  28.096  26.418  12.632
59067W        W31327  28.046   8.646   1.805
59068W        W31328  13.721   0.943  10.804
59069W        W31329  12.181  17.020  11.170
59070W        W31330   5.701  34.206  14.327
59071W        W31331  18.153  33.048  13.994
59072W        W31332   5.404  36.471  10.626
59073W        W31333  19.601  23.493  14.398
59074W        W31334  17.669  19.593  12.424
59075W        W31335  21.707  40.122  14.124
59076W        W31336  10.135  33.873  14.865
59077W        W31337  40.120   5.174   2.395
59078W        W31338  15.588  32.025   5.002
59079W        W31339  38.846   4.739  10.308
59080W        W31340  38.101  11.462  13.843
59081W        W31341  20.703  37.098  14.473
59082W        W31342  25.718  26.923   4.033
59083W        W31343   2.421   6.570  11.899
59084W        W31344  19.997  40.336  11.779
59085W        W31345   7.497   6.275   2.277
59086W        W31346   1.125  24.663   2.912
59087W        W31347  29.714  43.032  11.136
59088W        W31348   8.495  15.695   3.192
59089W        W31349  38.108  17.389   2.208
59090W        W31350  12.227  41.327  11.550
59091W        W31351  17.884  40.821  11.668
59092W        W31352  30.174  32.525  10.420
59093W        W31353   6.149  36.490  14.520
59094W        W31354  41.567   3.425   0.850
59095W        W31355  15.898  22.582  13.561
59096W        W31356  26.236  28.954   3.255
59097W        W31357  13.811  35.056   3.394
59098W        W31358  13.147  28.844   1.002
59099W        W31359  38.028  42.419   1.277
59100W        W31360  12.258  28.687   3.204
59101W        W31361  41.201  18.416   3.722
59102W        W31362  40.715  21.192   4.580
59103W        W31363  23.568  17.168   0.272
59104W        W31364   6.803  30.179  11.961
59105W        W31365  26.007  24.545   1.060
59106W        W31366  41.015  29.594  13.321
59107W        W31367  19.777  18.723  13.399
59108W        W31368  24.406  15.619  13.339
59109W        W31369  11.825   9.327  14.359
59110W        W31370   7.894  13.699   4.117
59111W        W31371  40.976  13.353  12.311
59112W        W31372  23.299  17.606  11.288
59113W        W31373  33.459   5.766  10.775
59114W        W31374  16.641  12.273   4.106
59115W        W31375   8.838   2.198  12.004
59116W        W31376  30.150  27.566  12.538
59117W        W31377  16.318  19.683  11.060
59118W        W31378  25.636  16.555  13.348
59119W        W31379   0.959  12.931   4.995
59120W        W31380  21.305  29.667   3.311
59121W        W31381  42.863  11.879   2.770
59122W        W31382  16.805  20.602  12.360
59123W        W31383  26.150   4.659  11.087
59124W        W31384  23.673  15.259   1.721
59125W        W31385  15.049  38.937   3.617
59126W        W31386  14.076  35.427  12.482
59127W        W31387   0.314  21.183   0.697
59128W        W31388  31.138   4.683  11.401
59129W        W31389  27.722  40.354  14.764
59130W        W31390  33.552   2.473  13.400
59131W        W31391  41.940   1.853   2.496
59132W        W31392  17.961  40.479  14.633
59133W        W31393   8.150  10.574   0.008
59134W        W31394  36.416  35.596  13.323
59135W        W31395  18.182  26.447  12.165
59136W        W31396  39.018   9.434  12.311
59137W        W31397  28.150  28.075   4.438
59138W        W31398  43.979  42.840   0.854
59139W        W31399  12.152  33.198   0.838
59140W        W31400  16.290  21.043  11.390
59141W        W31401  32.595   7.308  14.903
59142W        W31402  13.829  26.901  12.029
59143W        W31403   6.063  24.748   4.853
59144W        W31404  32.907  13.840   0.852
59145W        W31405  17.602   5.008   3.786
59146W        W31406  41.893  44.993   0.301
59147W        W31407  26.552  17.127  12.525
59148W        W31408  34.384   0.779  14.017
59149W        W31409   6.177  14.873   0.924
59150W        W31410  30.099   6.673  11.127
59151W        W31411  27.222  35.223  14.165
59152W        W31412  18.145  20.023   1.934
59153W        W31413  32.877  13.118   0.383
59154W        W31414  43.291  18.332  12.289
59155W        W31415  25.920  10.599  12.352
59156W        W31416  17.623  30.977   4.394
59157W        W31417  29.945  35.383  10.616
59158W        W31418  19.640   8.935  14.448
59159W        W31419  20.781  33.381   3.221
59160W        W31420  20.423  37.385   3.851
59161W        W31421  38.588   1.221  14.645
59162W        W31422  11.202  38.344   2.614
59163W        W31423  41.284   4.329  11.362
59164W        W31424   3.787  19.835  11.660
59165W        W31425  43.240  34.651   3.376
59166W        W31426  24.056  23.972  14.541
59167W        W31427  14.169   8.624   2.649
59168W        W31428   7.190  16.047   3.361
59169W        W31429  16.528  22.798  12.875
59170W        W31430  37.126  37.063   3.008
59171W        W31431  19.192   4.672   0.308
59172W        W31432  20.131  43.391  11.421
59173W        W31433  18.003  31.473  13.810
59174W        W31434  23.243   0.450   2.606
59175W        W31435  11.129  37.842  10.930
59176W        W31436  16.365  14.640  10.275
59177W        W31437  16.276  18.069   4.512
59178W        W31438   2.719   1.224  12.528
59179W        W31439  12.387  12.860  12.398
59180W        W31440   0.807  40.389   4.508
59181W        W31441  26.195  33.094  12.509
59182W        W31442  40.019  14.718   4.262
59183W        W31443  34.640  28.378   2.915
59184W        W31444  37.070  35.769   1.438
59185W        W31445  25.039  13.847   4.187
59186W        W31446   1.762   0.366  14.972
59187W        W31447  39.763  12.313  12.899
59188W        W31448  39.057  38.923  11.896
59189W        W31449  35.054  44.731  14.193
59190W        W31450  21.105   8.108  12.170
59191W        W31451  16.728   7.850  14.055
59192W        W31452   7.814  16.733   3.865
59193W        W31453  14.180  33.514  11.406
59194W        W31454   0.689  22.169   2.351
59195W        W31455  40.303  16.563   0.327
59196W        W31456  13.696  13.209   3.705
59197W        W31457  11.120   4.234  12.522
59198W        W31458  29.903  34.941  12.472
59199W        W31459   9.806  13.036   0.826
59200W        W31460   4.713  31.834  10.296
59201W        W31461   1.887  36.459   2.304
59202W        W31462  30.858  21.235   3.566
59203W        W31463  12.167  18.783   0.323
59204W        W31464  13.616   4.704   4.425
59205W        W31465  12.285  12.145   4.612
59206W        W31466   9.358  43.056  11.173
59207W        W31467  12.015  31.961   3.813
59208W        W31468  16.310  40.833  14.890
59209W        W31469  34.438  27.906   2.901
59210W        W31470   0.647  37.945  12.090
59211W        W31471  16.016  29.188  12.612
59212W        W31472  29.055  39.139   1.227
59213W        W31473  19.134   9.378   2.769
59214W        W31474   1.048  31.181   2.226
59215W        W31475   7.819  21.597   4.373
59216W        W31476  22.582  33.382  12.416
59217W        W31477   8.792   4.897  11.751
59218W        W31478  31.434  11.627   3.661
59219W        W31479  28.186  38.042   2.521
59220W        W31480  11.839  23.369   9.937
59221W        W31481  26.626  15.228   3.665
59222W        W31482  37.854  17.546   2.674
59223W        W31483  18.847   4.963   3.164
59224W        W31484  34.844  17.279   2.648
59225W        W31485  17.511  14.314   4.901
59226W        W31486  36.173  22.080   1.043
59227W        W31487  32.918  33.047  14.886
59228W        W31488  11.861  10.273  13.065
59229W        W31489  40.300  25.715  12.481
59230W        W31490  37.254  10.386  10.584
59231W        W31491  34.051  28.115  13.739
59232W        W31492  34.361  13.312   4.466
59233W        W31493  10.370  43.824   0.736
59234W        W31494  21.623  35.330  12.380
59235W        W31495  11.241  21.836   4.103
59236W        W31496  10.684  35.766  13.439
59237W        W31497  42.893  14.252  14.825
59238W        W31498  27.268   6.788   4.737
59239W        W31499  15.403   1.496  12.004
59240W        W31500  39.403  38.873   3.740
59241W        W31501  11.150   1.993  13.888
59242W        W31502  37.955   9.722  11.037
59243W        W31503  37.862  44.837   3.244
59244W        W31504  40.887  29.474   1.944
59245W        W31505  37.585  12.234  11.613
59246W        W31506  38.101  17.708  12.022
59247W        W31507  37.002  32.811   0.422
59248W        W31508  27.269  25.232   4.028
59249W        W31509  17.807  19.384  13.005
59250W        W31510  36.521  11.643  12.397
59251W        W31511  27.478  27.427   3.326
59252W        W31512  32.616  22.807  12.975
59253W        W31513  39.605  30.878  13.306
59254W        W31514   9.685   3.308  14.998
59255W        W31515  37.093  13.309  14.586
59256W        W31516   6.765  11.184   4.262
59257W        W31517  14.171  22.294  10.609
59258W        W31518  27.344  30.399  10.143
59259W        W31519  36.564  25.970   2.334
59260W        W31520  39.485  33.527   4.575
59261W        W31521   4.030  18.336   1.241
59262W        W31522  32.922  40.834  12.128
59263W        W31523  27.934  28.380  13.320
59264W        W31524  30.943  13.725  10.649
59265W        W31525   1.470   4.870   0.303
59266W        W31526  27.590  38.826   3.992
59267W        W31527  22.070  19.175  13.675
59268W        W31528  20.672  14.061  12.980
59269W        W31529  11.854  29.304  10.322
59270W        W31530  14.885  31.793  13.450
59271W        W31531  12.298  32.170   2.459
59272W        W31532  39.996  27.672  14.383
59273W        W31533  38.934   0.516  12.126
59274W        W31534  40.363  33.876  13.094
59275W        W31535  39.093  15.273  10.666
59276W        W31536  29.523   3.625   0.009
59277W        W31537  17.782  38.685   0.873
59278W        W31538  30.144   1.822   2.940
59279W        W31539  35.915  39.368   0.709
59280W        W31540  26.543  25.175  14.771
59281W        W31541  25.931   0.309  11.069
59282W        W31542  41.493  40.578   3.192
59283W        W31543  42.228   7.820   1.382
59284W        W31544  23.432   6.305  14.320
59285W        W31545  18.031  29.104  11.944
59286W        W31546  29.123  37.321   1.041
59287W        W31547  39.465   5.015  13.160
59288W        W31548  41.803  43.579   4.105
59289W        W31549   7.205  23.130   3.622
59290W        W31550  18.307  24.052  11.130
59291W        W31551  30.937   5.993  10.762
59292W        W31552  37.238  30.912  14.296
59293W        W31553  17.306  31.251   1.788
59294W        W31554   8.799  41.827  14.995
59295W        W31555  31.178  42.048  10.866
59296W        W31556   0.071  20.652  12.383
59297W        W31557  38.347  42.047   2.289
59298W        W31558   7.909   6.548   2.412
59299W        W31559  30.000  21.606  14.751
59300W        W31560  42.280   3.801   2.136
59301W        W31561  11.714  25.515   3.387
59302W        W31562  11.791   8.212   3.290
59303W        W31563  42.930  15.211   4.758
59304W        W31564  32.186  42.263   1.331
59305W        W31565  15.852  20.018   3.622
59306W        W31566   0.211  28.391   3.263
59307W        W31567  28.185  36.084  14.307
59308W        W31568  28.731  12.102   1.767
59309W        W31569  22.805  36.129  13.069
59310W        W31570  25.915  26.041  12.470
59311W        W31571  19.646  36.991   0.320
59312W        W31572  32.308  31.181  12.944
59313W        W31573  19.573  42.986  12.157
59314W        W31574   9.654   5.746  13.495
59315W        W31575  31.768  24.883   4.580
59316W        W31576  35.870  44.356   2.732
59317W        W31577  39.106  29.681   4.802
59318W        W31578  43.401   2.655   0.041
59319W        W31579  19.487  40.331   2.907
59320W        W31580  32.212  17.570  13.392
59321W        W31581   8.936  22.274   1.218
59322W        W31582   3.275   0.411   4.563
59323W        W31583   1.791  18.161   2.702
59324W        W31584  28.545  34.269  13.047
59325W        W31585  27.086  32.641  10.743
59326W        W31586  23.826  33.294  11.582
59327W        W31587  19.253   8.038  12.098
59328W        W31588  40.279   1.464  11.928
59329W        W31589  21.736   5.139   0.354
59330W        W31590  41.822  32.579   4.531
59331W        W31591  28.727  17.584  12.152
59332W        W31592  16.248  22.986   1.832
59333W        W31593  15.636   2.858   1.277
59334W        W31594  30.173  40.409   2.812
59335W        W31595  11.042  31.356  14.665
59336W        W31596  20.545  17.705  11.639
59337W        W31597  41.331  31.066  13.027
59338W        W31598  18.441  33.326  14.813
59339W        W31599  44.071  30.997   2.425
59340W        W31600  36.942  25.178  13.425
59341W        W31601  29.068  17.158  10.887
59342W        W31602  23.547  36.988  10.422
59343W        W31603  39.389  16.607  13.844
59344W        W31604   0.060  23.652  14.839
59345W        W31605  33.840   9.316   2.857
59346W        W31606   2.844  24.333   5.063
59347W        W31607  12.670   8.906   2.880
59348W        W31608   5.709  15.557  11.024
59349W        W31609  18.173  43.450  10.925
59350W        W31610   8.937   7.926   4.396
59351W        W31611   5.312  11.363  13.873
59352W        W31612  27.084   1.315   1.169
59353W        W31613  40.847   0.064  12.472
59354W        W31614  14.260   2.521  14.989
59355W        W31615  43.022  16.025  10.991
59356W        W31616  13.696  27.092  11.200
59357W        W31617   8.598  20.131   4.173
59358W        W31618  40.054   8.781   4.952
59359W        W31619   9.978  25.721  11.104
59360W        W31620   7.182  40.476  12.291
59361W        W31621  35.133  17.074   2.267
59362W        W31622  32.414   1.433  11.628
59363W        W31623  36.484  16.761  10.729
59364W        W31624  30.066  11.197   4.814
59365W        W31625   0.792  40.927   3.720
59366W        W31626   8.910  20.800  12.047
59367W        W31627   5.408  26.907   0.188
59368W        W31628   7.988  34.649  13.880
59369W        W31629   3.164  25.293  14.959
59370W        W31630  33.397  39.558  11.580
59371W        W31631  44.333  33.213  11.664
59372W        W31632  34.146  20.055   3.477
59373W        W31633  24.903  17.561   1.197
59374W        W31634  23.904   8.595   3.974
59375W        W31635  16.115  20.815  11.951
59376W        W31636  36.070  43.305   4.560
59377W        W31637  23.415   4.580   0.306
59378W        W31638  17.603  24.720  12.092
59379W        W31639  28.282  21.285  14.998
59380W        W31640  10.416   4.437  12.144
59381W        W31641  17.726  12.365  12.900
59382W        W31642   8.188  39.028  12.600
59383W        W31643  35.043   5.573  14.306
59384W        W31644  29.254  12.806   4.237
59385W        W31645  42.974  32.053  14.422
59386W        W31646  39.774  39.015   0.346
59387W        W31647  16.579  37.942   0.308
59388W        W31648   7.393  34.317  13.054
59389W        W31649   5.996  24.576   0.432
59390W        W31650   8.744   8.791  13.048
59391W        W31651  23.497  30.141   0.952
59392W        W31652   8.318  44.331   0.282
59393W        W31653  22.100  38.927  14.524
59394W        W31654   0.818  11.225   1.483
59395W        W31655  44.445  24.610  13.632
59396W        W31656  32.676  35.028  14.917
59397W        W31657  35.034   9.241   2.849
59398W        W31658  19.162  43.114  10.686
59399W        W31659  41.728  18.661  14.870
59400W        W31660  36.623  20.324  13.527
59401W        W31661  21.805  26.041   3.191
59402W        W31662  35.972  43.262   3.664
59403W        W31663  28.441   8.214   0.343
59404W        W31664  34.909  36.585   3.999
59405W        W31665   8.595  28.759   4.931
59406W        W31666  33.892   1.359  13.373
59407W        W31667  24.001   3.955  13.434
59408W        W31668  26.975  32.146  10.851
59409W        W31669   6.050  34.401   1.339
59410W        W31670  40.193  33.231  11.608
59411W        W31671  31.708  13.334   4.099
59412W        W31672  35.520  18.243   4.216
59413W        W31673   7.839  26.688   4.982
59414W        W31674  41.532  40.637   4.069
59415W        W31675  18.282  30.452   1.376
59416W        W31676  30.291  13.301  13.164
59417W        W31677  14.177  17.776  13.996
59418W        W31678   3.974  36.684  13.336
59419W        W31679   0.423   5.897   1.876
59420W        W31680  19.022  27.256  13.515
59421W        W31681   4.291   3.294   0.281
59422W        W31682  31.503  12.590  10.683
59423W        W31683   6.837  39.911  11.547
59424W        W31684   9.445   9.175   3.926
59425W        W31685   1.680   7.379  13.359
59426W        W31686  33.560  38.585  14.006
59427W        W31687  39.663  26.578  12.343
59428W        W31688   6.900   9.878   3.691
59429W        W31689  36.985  18.371  10.237
59430W        W31690   1.332  11.914  13.539
59431W        W31691   7.659  24.322  13.223
59432W        W31692  13.324  38.587  11.018
59433W        W31693  14.217  17.993  10.523
59434W        W31694  26.268  16.698   0.262
59435W        W31695  35.511  20.235  14.410
59436W        W31696  31.122  31.509   1.923
59437W        W31697  30.443  41.941  12.932
59438W        W31698  23.805  39.204  14.443
59439W        W31699   0.931  17.191   3.218
59440W        W31700  24.424  30.957  10.974
59441W        W31701  32.139  13.628   0.008
59442W        W31702  14.611  33.027  10.910
59443W        W31703  19.981  14.256  11.500
59444W        W31704  24.319   3.863   2.730
59445W        W31705  32.172  38.920  13.933
59446W        W31706  11.092  19.739  13.873
59447W        W31707   9.708  11.414  10.584
59448W        W31708  34.287  20.595   3.753
59449W        W31709  11.439  20.063   3.709
59450W        W31710  17.219   0.844   1.417
59451W        W31711   0.997   6.347  12.861
59452W        W31712  10.722  19.570  12.200
59453W        W31713  35.497  11.798   4.135
59454W        W31714  37.540   2.773   0.704
59455W        W31715  22.752  12.270  11.117
59456W        W31716  43.301  10.862  12.430
59457W        W31717  39.739   0.872  11.179
59458W        W31718   1.512  43.191  11.191
59459W        W31719   3.543   5.667  14.224
59460W        W31720  42.453   1.918  14.682
59461W        W31721  27.730  29.018   3.659
59462W        W31722  26.631  37.785  12.542
59463W        W31723  42.302  18.587   3.425
59464W        W31724  34.430   6.616   1.480
59465W        W31725  30.190   6.264  13.018
59466W        W31726  20.805  20.537  11.010
59467W        W31727   7.009  36.661   3.719
59468W        W31728  14.066   4.141   3.649
59469W        W31729   1.862  38.335  10.351
59470W        W31730  22.184  28.215   9.708
59471W        W31731   6.862  30.507   4.589
59472W        W31732  22.742  28.856   2.398
59473W        W31733   8.336  18.283  12.497
59474W        W31734  23.188  42.009   1.286
59475W        W31735  36.347  12.687  14.313
59476W        W31736  30.130   0.870  11.472
59477W        W31737  14.595   8.772   1.229
59478W        W31738  17.737  20.190   1.261
59479W        W31739  35.598  20.714   1.755
59480W        W31740  41.614  11.183   1.879
59481W        W31741  44.132   8.658   2.434
59482W        W31742  25.555  11.469   3.776
59483W        W31743  15.104  33.999   3.368
59484W        W31744   6.149  39.476  11.008
59485W        W31745  11.351   7.930  12.349
59486W        W31746   6.311  33.188  12.436
59487W        W31747  22.227   8.300  13.548
59488W        W31748  18.280  38.375  14.207
59489W        W31749  25.000  34.566  10.453
59490W        W31750  38.882  39.350  10.488
59491W        W31751  16.367  31.840   1.188
59492W        W31752  17.143   0.918  13.887
59493W        W31753  35.421  18.760   4.287
59494W        W31754   5.955  44.333   0.379
59495W        W31755  10.305  17.677  11.684
59496W        W31756  24.569  28.445   4.889
59497W        W31757   2.833  38.745   4.961
59498W        W31758  43.662  19.571  12.717
59499W        W31759   7.609   7.499   4.959
59500W        W31760   6.637   5.194   3.959
59501W        W31761  17.559  23.787  11.001
59502W        W31762  40.481  22.019  11.992
59503W        W31763  37.955  39.474  12.684
59504W        W31764  26.706  15.429  12.580
59505W        W31765  10.720  14.287  10.365
59506W        W31766  24.167  26.957   9.799
59507W        W31767   5.389  10.840   0.510
59508W        W31768   8.369  16.566   3.106
59509W        W31769  25.709   4.411  12.595
59510W        W31770   1.500  15.587   4.208
59511W        W31771  25.086  32.031  13.044
59512W        W31772   3.790  36.935  10.466
59513W        W31773  37.885  40.793   3.831
59514W        W31774  26.763   0.936   2.397
59515W        W31775  42.737  18.296   2.685
59516W        W31776  41.924  12.256   4.736
59517W        W31777  16.703  12.474  12.377
59518W        W31778   2.660  19.256   0.797
59519W        W31779  40.121   4.717  12.786
59520W        W31780  10.903  41.844   1.507
59521W        W31781  19.060  27.464   0.336
59522W        W31782  12.410  23.603  10.714
59523W        W31783  26.731  20.357  12.996
59524W        W31784  39.887  27.983  10.670
59525W        W31785  12.196  14.227   1.579
59526W        W31786  20.199  10.202   4.720
59527W        W31787  11.441   8.208  13.106
59528W        W31788  20.353  20.194  13.533
59529W        W31789  19.046  21.023  10.701
59530W        W31790  22.479   0.544   4.181
59531W        W31791  16.010   1.407  13.378
59532W        W31792  34.464  24.761   1.853
59533W        W31793  36.981  17.224  12.657
59534W        W31794  14.310   8.899  13.096
59535W        W31795  35.527  11.259  13.085
59536W        W31796  19.716   0.770   4.699
59537W        W31797  15.224   9.394  10.634
59538W        W31798  39.438  28.290  14.049
59539W        W31799  10.347   2.814   4.026
59540W        W31800  20.227  10.268   3.740
59541W        W31801  35.113   2.656   2.271
59542W        W31802   1.310  10.640  14.764
59543W        W31803  25.470  26.083  14.249
59544W        W31804  42.821  20.288  14.030
59545W        W31805  18.529  34.034  13.844
59546W        W31806   3.334  16.427   1.480
59547W        W31807  26.982  25.383   0.936
59548W        W31808  27.155  29.186  10.719
59549W        W31809  40.953   8.992   2.709
59550W        W31810  43.228  14.167   4.207
59551W        W31811  41.259  10.214  12.119
59552W        W31812  13.688  13.935  10.662
59553W        W31813   3.162  42.221  14.569
59554W        W31814  10.218  15.310  14.325
59555W        W31815  42.307  40.328  12.119
59556W        W31816  31.653  25.084  12.078
59557W        W31817   1.399   0.343  11.409
59558W        W31818  15.846   4.203  12.409
59559W        W31819  24.641   2.316   3.248
59560W        W31820  14.512  42.771   2.606
59561W        W31821  16.139  26.133  11.016
59562W        W31822  17.844   7.484   4.452
59563W        W31823  23.009  34.995   4.778
59564W        W31824  31.510  26.704   4.125
59565W        W31825  28.659  29.367   3.629
59566W        W31826  37.857  27.903  12.781
59567W        W31827  13.905   7.323   3.178
59568W        W31828  25.241  44.763  10.473
59569W        W31829  42.377  20.234  12.249
59570W        W31830  25.568  20.457   0.414
59571W        W31831  33.564  36.878  11.595
59572W        W31832  16.244  22.755  11.135
59573W        W31833  23.143  19.207   5.311
59574W        W31834  33.044  27.673  11.451
59575W        W31835  22.245  25.039  14.623
59576W        W31836  23.957  18.804   0.723
59577W        W31837  32.557   9.476   5.043
59578W        W31838  29.055  41.965   3.925
59579W        W31839   4.900  29.469   3.973
59580W        W31840  22.792  44.983  14.975
59581W        W31841  23.865  20.991  12.438
59582W        W31842  30.650   9.146   2.450
59583W        W31843  24.102  41.433  10.716
59584W        W31844  30.230  40.768   0.207
59585W        W31845  14.988   4.261  12.157
59586W        W31846  21.084  25.696   0.568
59587W        W31847  10.832  32.878   0.410
59588W        W31848  12.693  18.196   3.839
59589W        W31849  35.898   9.693  14.312
59590W        W31850  17.112   7.744  14.797
59591W        W31851  13.161  31.072   3.435
59592W        W31852   1.874   2.488   4.194
59593W        W31853  19.516  44.414  13.749
59594W        W31854  42.883  37.487  14.021
59595W        W31855  10.850  35.583   1.951
59596W        W31856  36.064  23.573  13.543
59597W        W31857   2.926  41.415  13.323
59598W        W31858  11.886  34.377   5.059
59599W        W31859  21.708  42.775   2.570
59600W        W31860  43.395  29.471   1.114
59601W        W31861  34.311  15.715   0.906
59602W        W31862  19.639   4.337   0.340
59603W        W31863   8.322   1.956   4.056
59604W        W31864  10.538  23.767   2.353
59605W        W31865  30.582  39.358   4.389
59606W        W31866  28.403  19.689   4.549
59607W        W31867   6.981  34.376   1.830
59608W        W31868  20.781  22.670  14.814
59609W        W31869   2.527   6.381   0.425
59610W        W31870  33.084   8.415  14.225
59611W        W31871  26.678   8.317   0.728
59612W        W31872  37.030  21.141   4.655
59613W        W31873  26.436  20.492  11.586
59614W        W31874  41.222  36.639   3.703
59615W        W31875  37.587  21.182  12.922
59616W        W31876  21.796  11.680  14.746
59617W        W31877  31.396  43.391  13.395
59618W        W31878  16.643  23.671   2.584
59619W        W31879  13.595  35.025  11.350
59620W        W31880  36.841   4.827  14.297
59621W        W31881   3.912  13.234  14.146
59622W        W31882  17.244  41.794  12.956
59623W        W31883   7.192   9.582   2.741
59624W        W31884  34.615  15.230  11.621
59625W        W31885   9.506  36.503   2.788
59626W        W31886   3.255   6.243  11.867
59627W        W31887  36.942  16.254  14.501
59628W        W31888  26.668  36.188  12.114
59629W        W31889  43.953   2.709  12.390
59630W        W31890   6.990   2.820  13.426
59631W        W31891  10.582  10.722   2.596
59632W        W31892  16.377  43.592  11.421
59633W        W31893   8.791   6.521   3.898
59634W        W31894  34.824  36.990   2.169
59635W        W31895  23.332  35.895   3.637
59636W        W31896  41.985  42.923   3.339
59637W        W31897  16.899  27.200  11.906
59638W        W31898   9.207   2.425  12.437
59639W        W31899  19.002  12.869  14.997
59640W        W31900   9.175   9.290  13.000
59641W        W31901  18.576   4.450  12.072
59642W        W31902  42.269   8.680   1.173
59643W        W31903  19.758  12.647  14.558
59644W        W31904   8.905  30.936  13.753
59645W        W31905   1.967   3.235   3.683
59646W        W31906   2.253  42.758  11.203
59647W        W31907  35.465  14.655   0.544
59648W        W31908  42.208  19.762  12.030
59649W        W31909  28.965  44.288  14.978
59650W        W31910  27.213   7.421  12.105
59651W        W31911  44.750   0.391   4.079
59652W        W31912   6.155   8.389   4.305
59653W        W31913  30.138  26.883   2.790
59654W        W31914  28.414  26.024   4.182
59655W        W31915   9.307  12.068   4.570
59656W        W31916  23.607   0.715   0.357
59657W        W31917  18.432  41.582   2.335
59658W        W31918  40.559   9.444  12.594
59659W        W31919  44.445   7.403   1.215
59660W        W31920  17.559   3.516  13.456
59661W        W31921  16.662  25.524   0.864
59662W        W31922   6.002  38.022  11.534
59663W        W31923  20.666  21.128  13.742
59664W        W31924  11.669  35.487  10.753
59665W        W31925  21.449  27.982   0.693
59666W        W31926   4.601  26.209  10.357
59667W        W31927  44.583  42.395   0.477
59668W        W31928  12.053  23.679  13.805
59669W        W31929  38.013  18.363   0.339
59670W        W31930  19.230   8.774  11.554
59671W        W31931  26.974  17.323  13.447
59672W        W31932  27.014  40.142   0.771
59673W        W31933  43.035   6.442   2.862
59674W        W31934  18.391  22.651   1.404
59675W        W31935   4.644  16.859  10.694
59676W        W31936  29.986  27.372   0.468
59677W        W31937  38.513   3.818  14.396
59678W        W31938  28.077  33.908  11.704
59679W        W31939  36.977  34.933   0.380
59680W        W31940  20.355  27.087  13.012
59681W        W31941  16.241  36.101  14.827
59682W        W31942  42.409  18.214  11.552
59683W        W31943   8.926   7.917  10.811
59684W        W31944  18.614  42.388  11.657
59685W        W31945  30.090  40.572   1.775
59686W        W31946   2.346  28.238   2.837
59687W        W31947  35.384  41.104  11.684
59688W        W31948  33.568   4.623   0.914
59689W        W31949  29.579   4.940   0.340
59690W        W31950  13.281  27.795   9.759
59691W        W31951  13.602   2.971   3.162
59692W        W31952  15.149  16.757  10.684
59693W        W31953  12.612  21.026   4.257
59694W        W31954  14.646  39.793   2.896
59695W        W31955  19.186  22.046   4.550
59696W        W31956  43.466  37.919   3.702
59697W        W31957   7.592  17.058   4.193
59698W        W31958  35.602  27.223   1.945
59699W        W31959  15.841   2.362  12.453
59700W        W31960  15.258  16.576   3.189
59701W        W31961   2.365   7.302   1.751
59702W        W31962  44.347   3.323   1.873
59703W        W31963   8.151  32.128   5.202
59704W        W31964  39.135  42.823   4.319
59705W        W31965  11.341  14.205   4.152
59706W        W31966  43.952  27.420   1.742
59707W        W31967  43.272  21.006  13.309
59708W        W31968  43.538  28.534  14.517
59709W        W31969  41.136  23.046   3.319
59710W        W31970  34.080   4.519   0.848
59711W        W31971  16.507  10.333  10.967
59712W        W31972  28.628  30.630   0.635
59713W        W31973  36.159  33.167  12.059
59714W        W31974   1.446  38.122   2.571
59715W        W31975  35.827  12.750   2.309
59716W        W31976  18.701  10.266   4.596
59717W        W31977  26.591  10.087   3.619
59718W        W31978  15.878   8.900   3.535
59719W        W31979  34.401   3.865  10.657
59720W        W31980  19.474   7.404  13.450
59721W        W31981  20.988  39.821   1.329
59722W        W31982  17.801  16.352   3.224
59723W        W31983   6.338  34.986  11.296
59724W        W31984  14.218  12.719  12.875
59725W        W31985   0.239  40.294  12.970
59726W        W31986  11.859  24.945   0.427
59727W        W31987  26.675  40.073  12.425
59728W        W31988  23.694  23.787   0.750
59729W        W31989  41.410   4.176  12.363
59730W        W31990  22.660  15.136  10.581
59731W        W31991  16.087   3.487   0.020
59732W        W31992  41.768  16.606  13.772
59733W        W31993   2.705  33.197  13.773
59734W        W31994   5.306  16.092  12.857
59735W        W31995  17.103  16.812   3.337
59736W        W31996  36.163  39.162   1.955
59737W        W31997  38.930  26.662   3.137
59738W        W31998  28.592  15.648   4.265
59739W        W31999  13.588  40.224   4.578
59740W        W32000   8.670  26.308   0.994
59741W        W32001  41.446   0.973   1.338
59742W        W32002  15.070   0.499   2.696
59743W        W32003  27.895  18.776   0.903
59744W        W32004  44.486  41.547  11.604
59745W        W32005  36.494  43.750   4.752
59746W        W32006   6.277   7.927   9.945
59747W        W32007  21.569   4.689   2.651
59748W        W32008  19.067   4.250  11.966
59749W        W32009  26.174   6.803   1.000
59750W        W32010   3.929  39.475  10.885
59751W        W32011  16.777  41.401   3.853
59752W        W32012  31.631  16.620  10.660
59753W        W32013   8.613  21.622  11.917
59754W        W32014  40.625  40.021   0.286
59755W        W32015  42.589  18.833   1.313
59756W        W32016  36.577  22.321   1.258
59757W        W32017  42.945   0.298   0.001
59758W        W32018  16.920  14.394  13.574
59759W        W32019  17.023  27.104  12.412
59760W        W32020  16.382   7.339  13.392
59761W        W32021  30.513  18.129   0.411
59762W        W32022   6.249  33.376   3.133
59763W        W32023  21.184  29.617  10.799
59764W        W32024   3.900  21.153  13.458
59765W        W32025   2.515  14.068   5.061
59766W        W32026  25.675  20.280  12.408
59767W        W32027   2.884  14.673   2.882
59768W        W32028  26.105  13.742   2.770
59769W        W32029  16.817  44.550  12.926
59770W        W32030  10.421  17.127  13.587
59771W        W32031   6.051  39.462   0.756
59772W        W32032  27.515  20.976   0.295
59773W        W32033  35.055  33.992   2.518
59774W        W32034  28.536   1.870   1.714
59775W        W32035  16.601  30.987   1.804
59776W        W32036  22.263   0.491  11.086
59777W        W32037   9.162  21.479   1.148
59778W        W32038   5.044  26.981  11.981
59779W        W32039  18.442   2.087   3.500
59780W        W32040  44.779  31.173  10.855
59781W        W32041  15.711  38.551   2.828
59782W        W32042   5.797  22.038  13.370
59783W        W32043  25.144  43.179  11.589
59784W        W32044  10.094  18.817  12.209
59785W        W32045   3.646  41.251   3.833
59786W        W32046   5.976  11.151   3.670
59787W        W32047  20.629  19.427  13.975
59788W        W32048  13.712  25.738  12.547
59789W        W32049  19.889  12.285  12.713
59790W        W32050  30.617  44.574   3.238
59791W        W32051  35.581  23.172   0.192
59792W        W32052  23.692   6.350  13.429
59793W        W32053  23.118  44.390   0.685
59794W        W32054  14.496  10.209  10.273
59795W        W32055  32.540  44.241   3.280
59796W        W32056   9.446  30.644   3.762
59797W        W32057  27.774  41.369   5.431
59798W        W32058   7.334   6.902  12.800
59799W        W32059  32.960  29.357  12.380
59800W        W32060  18.687  18.701  11.413
59801W        W32061  34.790   5.229   1.149
59802W        W32062  27.395   9.090   2.918
59803W        W32063  14.006  33.108   4.757
59804W        W32064   0.974  18.051  12.631
59805W        W32065  43.793  37.631  10.571
59806W        W32066  33.434  20.276   4.708
59807W        W32067  44.006  36.996   0.225
59808W        W32068  31.164   2.520  14.406
59809W        W32069  32.540  36.953  11.543
59810W        W32070   9.953  26.396  14.433
59811W        W32071   3.689  25.617  13.876
59812W        W32072  21.769  23.578   0.018
59813W        W32073  20.428  35.992  10.803
59814W        W32074  34.900  21.508  12.461
59815W        W32075  18.822  44.520   4.171
59816W        W32076   5.724   9.193   2.611
59817W        W32077   8.926  44.990  14.434
59818W        W32078  38.425   9.013  10.194
59819W        W32079  33.237  36.561  12.712
59820W        W32080   6.524  22.072  13.908
59821W        W32081  35.589  38.330  12.854
59822W        W32082   6.903  37.439  12.415
59823W        W32083  23.190   9.802  14.347
59824W        W32084  32.192  38.029   1.184
59825W        W32085  16.860  21.201   1.681
59826W        W32086  13.510   0.475  14.973
59827W        W32087  18.381  27.339  12.329
59828W        W32088  31.370  25.705  11.224
59829W        W32089  16.442  28.911  13.819
59830W        W32090  41.520  38.311   5.228
59831W        W32091  33.047  12.826   3.692
59832W        W32092  22.129  30.854   3.308
59833W        W32093  33.503  14.709  14.571
59834W        W32094  13.630  34.986   0.501
59835W        W32095  18.506  21.934   2.411
59836W        W32096  32.409  27.595  12.049
59837W        W32097   5.235   0.902   0.844
59838W        W32098  11.272  35.134   3.937
59839W        W32099  28.127  39.603  11.869
59840W        W32100  44.045  43.450  13.584
59841W        W32101  36.967  22.723  12.568
59842W        W32102  27.936   7.695  10.457
59843W        W32103  24.550  19.042   3.828
59844W        W32104   2.438   6.070  11.007
59845W        W32105   9.738  13.634  12.672
59846W        W32106  42.935   5.594   3.643
59847W        W32107   3.153  16.814   3.568
59848W        W32108  40.244  23.985   2.153
59849W        W32109  27.584   0.531   1.491
59850W        W32110  34.222  44.938   4.135
59851W        W32111   7.910  19.003  13.751
59852W        W32112  15.187  33.849  14.961
59853W        W32113  13.717  18.826   1.929
59854W        W32114   2.814  40.737   2.196
59855W        W32115   2.415   8.446  12.102
59856W        W32116   3.483  16.901   0.209
59857W        W32117   6.314  12.867  11.081
59858W        W32118  13.014  15.608  12.060
59859W        W32119  44.765  20.337  12.076
59860W        W32120  43.240  24.998   5.117
59861W        W32121  30.533  26.702  14.431
59862W        W32122  14.301  11.191  13.963
59863W        W32123  11.450  10.458  11.122
59864W        W32124  34.021  40.566   3.189
59865W        W32125   3.726   0.351   2.776
59866W        W32126  25.610  17.224   1.914
59867W        W32127   7.274   2.522  14.948
59868W        W32128   9.156  16.105  13.677
59869W        W32129   9.867  33.201   0.674
59870W        W32130  11.211  28.509   4.980
59871W        W32131  34.064  30.390   2.855
59872W        W32132  40.728  36.950  13.789
59873W        W32133   4.231   1.997  12.986
59874W        W32134   8.360  17.222  12.214
59875W        W32135  34.367   4.975  13.955
59876W        W32136   6.164  18.030   3.134
59877W        W32137  41.460  14.713   0.041
59878W        W32138  37.345  23.942  11.947
59879W        W32139  13.296  20.260   1.933
59880W        W32140   5.490   9.870  12.436
59881W        W32141  20.798  15.612   2.268
59882W        W32142  15.643  26.399   3.706
59883W        W32143  20.240  37.505  13.295
59884W        W32144  25.023  15.383   4.221
59885W        W32145  35.608   5.311   0.526
59886W        W32146  38.693  22.849  11.124
59887W        W32147  35.163  18.224   1.074
59888W        W32148  27.695  18.040   4.023
59889W        W32149  40.928  25.212   4.450
59890W        W32150  39.890  40.859   0.982
59891W        W32151  17.832   9.699  12.114
59892W        W32152   1.591   4.288  13.478
59893W        W32153  15.909  17.294  14.120
59894W        W32154  23.197   9.237  11.084
59895W        W32155  37.789  15.883   1.248
59896W        W32156  44.570  42.259  13.167
59897W        W32157  21.488  36.117  11.985
59898W        W32158  44.348  25.965  14.912
59899W        W32159  16.968  32.216   1.919
59900W        W32160  41.172  12.885   1.452
59901W        W32161  35.642  33.556  11.105
59902W        W32162  18.137   3.983   2.420
59903W        W32163   5.827   1.284   4.113
59904W        W32164   2.240   5.783   4.622
59905W        W32165  27.391  31.659  13.836
59906W        W32166  22.505  29.351  10.066
59907W        W32167  18.266  17.869  11.167
59908W        W32168   3.770  44.942  13.343
59909W        W32169   9.719   0.376   0.928
59910W        W32170   0.792   5.732   0.420
59911W        W32171  41.855  28.202  10.867
59912W        W32172   9.260   6.545  11.486
59913W        W32173  12.680  26.305  12.955
59914W        W32174  23.716  42.771   4.804
59915W        W32175  35.505  21.689   9.829
59916W        W32176  21.769   5.903   2.377
59917W        W32177  43.705  33.455  13.139
59918W        W32178   9.963  41.494   0.846
59919W        W32179  12.750  16.710  11.520
59920W        W32180  16.283  43.474  10.906
59921W        W32181   5.769  23.584  12.925
59922W        W32182  40.898   6.368  12.918
59923W        W32183   8.514   9.584  12.026
59924W        W32184  13.229  20.837  13.218
59925W        W32185  37.394  20.940  13.336
59926W        W32186  15.262  33.470   4.088
59927W        W32187   1.299  14.344  11.647
59928W        W32188  44.383  16.212  14.280
59929W        W32189   1.552  35.359   1.696
59930W        W32190  26.173  15.531  12.792
59931W        W32191  33.957  39.080  13.804
59932W        W32192  20.281  44.981  13.013
59933W        W32193  26.227  39.453   4.520
59934W        W32194   4.353  22.127   3.157
59935W        W32195   4.760   5.942   1.876
59936W        W32196  44.914  26.456  13.796
59937W        W32197   7.756   9.696  13.022
59938W        W32198   5.953  23.477   4.296
59939W        W32199   2.814  32.867  14.373
59940W        W32200  10.889  31.542   4.716
59941W        W32201  24.110  31.588  10.918
59942W        W32202  34.526  25.439  12.054
59943W        W32203  22.968  28.529  13.651
59944W        W32204   7.673  31.372   0.346
59945W        W32205   4.986  30.647  10.050
59946W        W32206  11.226  35.250  10.587
59947W        W32207  10.209  14.154   1.973
59948W        W32208  39.353  38.769  14.104
59949W        W32209  36.996  31.547  10.905
59950W        W32210  15.065  16.573  13.497
59951W        W32211  29.386   3.969   1.453
59952W        W32212  29.842  19.734   4.586
59953W        W32213  16.156  44.830   2.132
59954W        W32214  11.875  28.881   0.498
59955W        W32215   1.308  40.018   0.435
59956W        W32216  25.663  43.724  12.897
59957W        W32217  12.255  23.415   3.529
59958W        W32218  35.164  20.974  13.030
59959W        W32219  18.759  29.826  14.025
59960W        W32220  26.461   3.407   1.752
59961W        W32221  18.786  12.903   2.193
59962W        W32222  12.728   9.019   0.938
59963W        W32223  33.062  40.855   4.582
59964W        W32224  11.006  22.655   0.437
59965W        W32225  18.045  19.644   2.259
59966W        W32226  39.026  29.041  13.165
59967W        W32227   8.402   4.875   1.739
59968W        W32228  19.673  24.458   4.864
59969W        W32229  27.435   9.854  12.346
59970W        W32230  39.091  25.273   1.314
59971W        W32231   0.694  25.812  11.935
59972W        W32232  14.553   1.770   0.037
59973W        W32233  24.447  41.256   4.147
59974W        W32234  39.241  19.176   4.151
59975W        W32235   7.452   0.745  14.306
59976W        W32236  34.544  12.297  12.580
59977W        W32237   3.996  23.986  11.552
59978W        W32238   9.895  17.692   4.605
59979W        W32239   5.639  36.890  12.623
59980W        W32240  43.772  34.667   0.603
59981W        W32241  18.866  10.238  11.468
59982W        W32242   5.397   2.967  14.188
59983W        W32243   8.843  19.364  12.067
59984W        W32244  25.097   2.952   0.815
59985W        W32245   1.818  42.361   2.216
59986W        W32246  33.187  39.958   1.889
59987W        W32247   1.631  13.135   0.648
59988W        W32248  35.927   3.141  12.112
59989W        W32249  38.360  24.047   4.254
59990W        W32250  44.403  40.265  11.300
59991W        W32251  44.239   0.437  13.207
59992W        W32252  13.102  11.297  13.415
59993W        W32253  36.544   8.372   0.278
59994W        W32254  30.779  16.658  14.939
59995W        W32255   3.761  33.482  12.027
59996W        W32256  10.161   5.350   1.266
59997W        W32257  24.153  41.012  11.208
59998W        W32258   1.069  44.399   2.638
59999W        W32259  14.302  15.702  10.491
60000W        W32260  23.025  39.239  11.999
60001W        W32261  34.534  33.575   1.432
60002W        W32262  41.511  12.953  14.230
60003W        W32263   3.634  30.802   0.399
60004W        W32264  31.955   4.651  12.505
60005W        W32265  42.259  10.593  12.845
60006W        W32266  26.387   2.406   0.764
60007W        W32267  34.951   6.423   1.263
60008W        W32268  17.023   3.756   4.239
60009W        W32269  10.915  36.455  12.147
60010W        W32270  24.731   5.409   0.797
60011W        W32271  29.662  41.713   1.927
60012W        W32272   3.126   6.678   2.190
60013W        W32273   5.987  40.102   4.099
60014W        W32274   4.119  31.570  11.037
60015W        W32275  15.800  19.114   3.720
60016W        W32276   3.854   7.389   1.073
60017W        W32277   9.719  19.253  12.997
60018W        W32278  19.639  25.971   0.816
60019W        W32279   7.909  31.035   2.723
60020W        W32280   3.963  29.693  14.792
60021W        W32281   9.312  11.666  13.506
60022W        W32282  42.661  29.056  10.209
60023W        W32283  24.351  18.714  11.192
60024W        W32284  30.150   3.490   4.389
60025W        W32285   6.985  32.195  13.774
60026W        W32286  15.242  41.972   2.155
60027W        W32287  25.917   0.787   1.291
60028W        W32288  30.869  17.187  13.395
60029W        W32289  41.714  21.652  11.681
60030W        W32290  31.573  30.103   0.203
60031W        W32291  30.950  36.023   2.132
60032W        W32292  17.744   8.979   3.001
60033W        W32293  32.716  43.878  12.466
60034W        W32294  43.963  25.669  14.717
60035W        W32295   1.523   5.831   4.027
60036W        W32296  26.555  32.831   0.772
60037W        W32297  17.273   3.229  12.110
60038W        W32298  26.934  43.014   0.723
60039W        W32299  17.300  39.917   3.748
60040W        W32300   9.394  12.796  10.730
60041W        W32301  39.814  40.489  11.626
60042W        W32302  18.400  37.061  14.605
60043W        W32303  42.783   5.474   2.572
60044W        W32304  25.005  23.549   1.006
60045W        W32305  11.896  35.573  14.949
60046W        W32306  26.690  40.500  13.470
60047W        W32307  18.649  30.700   5.208
60048W        W32308   6.696  17.971   3.248
60049W        W32309  38.536  22.481  11.459
60050W        W32310  32.607  13.095   0.816
60051W        W32311   7.861   7.379  11.276
60052W        W32312  21.681  32.558  10.621
60053W        W32313  21.539  23.061   2.332
60054W        W32314   0.553  35.052  12.380
60055W        W32315  20.767  35.020  12.388
60056W        W32316  42.262  19.798  10.318
60057W        W32317  16.071  38.284  10.516
60058W        W32318  12.685  37.970  12.802
60059W        W32319   7.139  15.015  10.779
60060W        W32320  28.204   7.449  11.934
60061W        W32321  34.654   9.121   3.231
60062W        W32322  13.141   1.538  13.111
60063W        W32323   9.428  33.365   0.425
60064W        W32324  33.863  34.095   0.997
60065W        W32325   3.926   4.063   0.464
60066W        W32326  29.906  36.085  12.564
60067W        W32327  14.553  21.153  14.840
60068W        W32328   3.890  33.169   2.789
60069W        W32329  37.505   3.926   2.823
60070W        W32330  29.200  19.030  14.858
60071W        W32331  16.718  22.078   4.665
60072W        W32332  34.162   8.885   1.801
60073W        W32333   9.318  40.328  12.040
60074W        W32334  43.476  28.233   1.778
60075W        W32335  37.651   9.183   5.495
60076W        W32336  27.250  34.611   3.190
60077W        W32337   9.817  28.400   2.385
60078W        W32338   2.620   6.824   4.464
60079W        W32339  29.892  38.956   4.260
60080W        W32340   7.716  44.398   3.655
60081W        W32341  16.745   3.931   4.633
60082W        W32342  31.128  33.727  12.864
60083W        W32343  23.802  11.827   3.064
60084W        W32344  22.609  22.558   3.829
60085W        W32345  27.363  37.047  14.623
60086W        W32346   5.368  30.667   3.216
60087W        W32347  18.597  40.398  11.852
60088W        W32348  27.715  10.956  12.904
60089W        W32349   8.208  36.775   0.505
60090W        W32350   2.661  44.815   2.312
60091W        W32351   2.006   0.742   1.272
60092W        W32352  13.146  24.931  12.649
60093W        W32353   8.132  16.067  13.743
60094W        W32354  23.474  28.527  13.760
60095W        W32355  16.191  37.767   4.443
60096W        W32356  22.896  14.658  11.590
60097W        W32357  40.472  25.496   4.516
60098W        W32358  12.682   3.920  13.157
60099W        W32359  33.064   0.228  14.874
60100W        W32360  33.397  28.528   4.362
60101W        W32361  27.166  41.802   5.086
60102W        W32362  20.300  22.053  14.455
60103W        W32363  35.556  31.057   3.218
60104W        W32364  17.274  40.543  13.867
60105W        W32365   9.746  29.220   2.713
60106W        W32366  36.937   5.127  12.053
60107W        W32367  41.634  29.570   0.375
60108W        W32368   5.930  21.992   1.728
60109W        W32369   8.244   4.008  12.084
60110W        W32370  17.303  17.254  12.411
60111W        W32371   4.941   1.486  12.862
60112W        W32372  15.231   0.258  14.260
60113W        W32373  31.260  28.575   2.182
60114W        W32374  35.056  43.799   2.869
60115W        W32375  31.644  33.681  12.737
60116W        W32376  22.626  13.284   4.779
60117W        W32377  32.452  24.234   2.400
60118W        W32378  22.675   1.755  10.718
60119W        W32379  25.035   1.736   4.401
60120W        W32380  33.398  30.014  11.084
60121W        W32381  15.205  32.818   4.593
60122W        W32382   1.983  13.213   2.610
60123W        W32383  17.766  10.161  10.571
60124W        W32384   4.874  23.599  12.544
60125W        W32385  31.385  18.564  10.714
60126W        W32386  21.176  25.659  11.876
60127W        W32387   2.055  34.494  10.267
60128W        W32388  40.379  17.074   4.721
60129W        W32389   2.737   5.364  14.403
60130W        W32390   3.742  28.685   0.872
60131W        W32391  24.173  15.532  12.009
60132W        W32392  13.794  10.479   4.270
60133W        W32393   5.674   4.923   2.207
60134W        W32394  39.387  33.004   4.598
60135W        W32395   8.773  35.631   0.054
60136W        W32396  34.638  12.110   2.433
60137W        W32397  24.107  20.833  14.015
60138W        W32398   2.915  19.558  14.377
60139W        W32399  21.475  10.147   1.258
60140W        W32400  38.601  31.126   1.770
60141W        W32401  16.359  39.300  10.727
60142W        W32402   1.771  19.999   4.234
60143W        W32403  16.653  24.524  11.394
60144W        W32404  19.159  36.931   2.765
60145W        W32405  12.098   0.363  11.957
60146W        W32406  30.171  23.510   1.916
60147W        W32407  37.354  41.875   0.411
60148W        W32408  40.903  36.348   4.513
60149W        W32409  17.806  10.283   4.893
60150W        W32410  22.023   3.136  14.763
60151W        W32411  22.522  23.561  11.655
60152W        W32412  11.820  22.246   4.762
60153W        W32413  28.570  17.591  14.338
60154W        W32414   2.151  20.054  12.031
60155W        W32415  41.288  20.517  13.894
60156W        W32416  42.383  32.585   4.518
60157W        W32417   8.168  14.572   4.037
60158W        W32418  36.504   4.474  10.727
60159W        W32419  20.555  42.052   2.658
60160W        W32420  44.329  23.932   9.953
60161W        W32421  29.912  44.590   2.841
60162W        W32422  40.038  10.974   3.792
60163W        W32423   7.406  30.384   1.585
60164W        W32424  42.235  17.689   0.990
60165W        W32425   2.483  12.833   1.894
60166W        W32426  40.498   9.744   0.719
60167W        W32427  16.462  35.280  14.903
60168W        W32428  24.692  15.128  14.301
60169W        W32429   3.680   4.784   3.312
60170W        W32430  29.491  25.527  10.715
60171W        W32431  10.501  11.154  14.475
60172W        W32432   5.468   8.901   0.379
60173W        W32433   1.893  20.782   3.732
60174W        W32434  14.633  31.701  11.654
60175W        W32435  24.030  14.694   1.470
60176W        W32436   4.546   6.672   4.591
60177W        W32437  23.962   5.684  13.022
60178W        W32438   6.338  21.126   1.398
60179W        W32439   2.428  10.145   2.337
60180W        W32440   5.637  18.133   2.186
60181W        W32441  31.528   6.427  12.891
60182W        W32442   7.909   7.727  14.039
60183W        W32443  13.985   2.727  14.439
60184W        W32444   5.177  40.331  11.137
60185W        W32445  37.452   7.973  14.488
60186W        W32446  35.676   5.916  13.294
60187W        W32447  40.472  31.016   2.793
60188W        W32448  30.473  23.685   0.425
60189W        W32449   5.161   6.449   2.763
60190W        W32450  27.949   6.329  12.530
60191W        W32451  14.884   5.165  10.751
60192W        W32452  41.380  41.466   0.498
60193W        W32453  34.995  17.801   2.739
60194W        W32454  41.165  40.743  12.032
60195W        W32455  24.986  19.179  11.709
60196W        W32456  13.301  34.459  13.787
60197W        W32457  32.937  27.299  13.954
60198W        W32458   9.438  32.343   1.858
60199W        W32459  27.469  28.024  13.607
60200W        W32460  31.276  44.328  11.583
60201W        W32461  15.679  38.753   4.530
60202W        W32462   9.878   1.537   0.332
60203W        W32463  24.437  19.610  11.052
60204W        W32464  29.577  29.800  14.769
60205W        W32465  38.100   5.375  14.857
60206W        W32466  31.681   9.226   2.371
60207W        W32467  33.578  41.277   0.389
60208W        W32468  36.709   9.437  14.319
60209W        W32469  12.263  40.455   0.045
60210W        W32470  38.418   3.413  13.467
60211W        W32471   5.724  34.457  11.149
60212W        W32472  26.023  25.030  12.511
60213W        W32473   8.687   7.659  13.579
60214W        W32474  11.547  36.502  10.767
60215W        W32475  24.465  39.081  13.946
60216W        W32476  33.685  30.557  12.258
60217W        W32477   6.988  28.688   0.686
60218W        W32478  22.800  21.731   2.131
60219W        W32479  34.552  29.632   1.689
60220W        W32480  30.547  19.497  11.494
60221W        W32481  43.706  33.896   1.295
60222W        W32482  36.358  12.683   0.238
60223W        W32483  16.243  10.324   3.914
60224W        W32484   6.284   5.905  14.418
60225W        W32485   2.300   6.906   2.734
60226W        W32486  40.357  43.578  11.163
60227W        W32487  43.034  38.918   5.421
60228W        W32488  10.910  11.096   1.634
60229W        W32489  43.834  14.767   0.361
60230W        W32490  30.553  14.082   3.742
60231W        W32491  16.070   9.510  12.074
60232W        W32492  27.129   5.290  14.391
60233W        W32493  40.322  40.876   2.403
60234W        W32494  37.559   0.960   0.707
60235W        W32495  19.802  11.711   2.239
60236W        W32496  41.870  25.977   1.346
60237W        W32497  40.832  39.859   2.134
60238W        W32498   2.286  12.062  13.051
60239W        W32499   3.363  30.957   3.735
60240W        W32500   8.139  24.135  13.347
60241W        W32501  38.602   7.753  13.493
60242W        W32502  30.915  32.484   9.685
60243W        W32503   1.166  33.467   4.233
60244W        W32504  38.437  38.278  13.365
60245W        W32505   4.953  28.196  14.332
60246W        W32506   0.256  23.570   0.326
60247W        W32507  17.463  17.723   1.566
60248W        W32508  42.780   3.640  11.291
60249W        W32509   6.202  19.126  12.021
60250W        W32510  25.164  42.126  14.897
60251W        W32511  32.989   1.304  14.206
60252W        W32512   9.621  36.511   0.888
60253W        W32513   9.674  37.236   0.080
60254W        W32514  23.968   6.599   0.801
60255W        W32515   9.263  30.941   2.380
60256W        W32516  35.107  16.437   4.118
60257W        W32517  18.172  21.055   4.535
60258W        W32518   5.954   1.319   2.770
60259W        W32519  23.238  25.765   1.873
60260W        W32520  27.718  28.502   2.425
60261W        W32521  24.946  43.654   4.214
60262W        W32522  30.591  28.772   3.664
60263W        W32523  11.695  17.257  13.820
60264W        W32524  12.748  13.147  14.943
60265W        W32525   6.896  32.628  14.719
60266W        W32526  29.549  31.564  10.335
60267W        W32527   3.194  27.050  14.769
60268W        W32528  19.188  22.448  14.891
60269W        W32529  29.023  28.704  11.371
60270W        W32530  21.165  28.264  10.925
60271W        W32531  21.100  23.071  14.572
60272W        W32532   9.677  34.479   3.275
60273W        W32533  28.580  28.914   1.856
60274W        W32534   2.205   1.285   4.004
60275W        W32535   4.354  44.090  13.279
60276W        W32536  11.135  38.345  11.611
60277W        W32537  12.160  24.053   2.118
60278W        W32538  23.249  43.882   0.840
60279W        W32539  39.829   2.875  10.765
60280W        W32540  38.058  24.938   3.727
60281W        W32541  14.926  31.697   3.229
60282W        W32542  38.268  42.399   4.855
60283W        W32543  37.461   1.164  13.931
60284W        W32544  30.601  28.370   0.809
60285W        W32545  40.849  33.545   0.323
60286W        W32546   4.154  40.973   4.693
60287W        W32547   0.948  28.637  11.975
60288W        W32548  11.963  35.910   0.854
60289W        W32549  20.098  26.077   1.023
60290W        W32550  21.535   1.852  13.206
60291W        W32551   5.793  33.975  14.814
60292W        W32552   0.276  26.648   3.713
60293W        W32553  16.034   3.313   5.013
60294W        W32554  29.964  16.966   1.510
60295W        W32555  23.369   0.472   3.228
60296W        W32556  26.155  38.365  10.640
60297W        W32557  18.119  15.500   0.433
60298W        W32558  34.738  33.501   3.846
60299W        W32559   2.005   4.295   4.369
60300W        W32560   2.386  30.268   4.204
60301W        W32561  28.939  15.150   0.248
60302W        W32562  18.752  40.368  13.751
60303W        W32563  42.684  14.716   4.763
60304W        W32564  32.110  42.543   2.396
60305W        W32565  18.627   9.388   2.773
60306W        W32566   0.227   5.757   3.416
60307W        W32567  44.443  41.962   4.433
60308W        W32568  41.704  12.057  11.112
60309W        W32569   6.833  15.734   3.812
60310W        W32570  22.533  23.162  12.074
60311W        W32571  23.791  33.477   2.191
60312W        W32572  39.104  17.739   2.310
60313W        W32573  32.181  32.546   0.933
60314W        W32574  18.170  40.576  13.673
60315W        W32575  23.484  42.495   1.814
60316W        W32576  34.171  17.512   0.866
60317W        W32577  29.638  43.557  13.294
60318W        W32578  18.781  19.278  14.860
60319W        W32579   0.817  39.035   5.015
60320W        W32580  22.416   7.115   0.911
60321W        W32581  18.633   3.195   2.168
60322W        W32582   7.694  32.334  11.198
60323W        W32583  13.405  36.976   1.287
60324W        W32584   5.732  13.255   4.367
60325W        W32585   2.900  14.294   3.279
60326W        W32586  13.135   5.120  10.814
60327W        W32587   9.290   0.670   0.938
60328W        W32588  15.746  10.711  14.425
60329W        W32589  11.271  33.368  12.360
60330W        W32590  30.518  18.612  13.865
60331W        W32591  19.113   7.596   2.850
60332W        W32592  42.544  30.222   3.216
60333W        W32593  33.620  13.352   0.394
60334W        W32594  19.534  14.212   1.927
60335W        W32595  42.752   9.226  11.498
60336W        W32596  12.787  26.099   4.299
60337W        W32597  12.993   4.270  11.361
60338W        W32598  25.504  40.573  10.860
60339W        W32599  29.595  43.836  11.771
60340W        W32600  26.378  30.609  11.557
60341W        W32601  27.610  15.562  10.084
60342W        W32602  22.240  24.582  14.400
60343W        W32603  10.400  21.751  11.154
60344W        W32604  30.414  31.504  13.431
60345W        W32605  15.239  12.390   0.931
60346W        W32606   6.308  20.392  11.595
60347W        W32607  38.854  24.969   4.169
60348W        W32608   6.293   9.379   4.305
60349W        W32609   2.381  34.382  12.584
60350W        W32610  18.905  27.525  12.397
60351W        W32611  26.914  26.716   2.817
60352W        W32612   9.229   5.840  10.953
60353W        W32613   4.806   9.236   4.198
60354W        W32614  37.352  15.216   4.164
60355W        W32615  24.282  32.090   2.380
60356W        W32616  24.137  28.694  13.072
60357W        W32617  19.045   8.016   5.023
60358W        W32618  28.636  16.154  12.562
60359W        W32619  24.616   1.143  11.008
60360W        W32620  16.593  24.553  10.514
60361W        W32621  25.542  24.813  12.491
60362W        W32622  35.082   5.339   1.865
60363W        W32623   3.314  28.506   0.066
60364W        W32624  20.984  36.815   4.194
60365W        W32625  20.005  22.520  13.562
60366W        W32626  19.844  36.604   4.038
60367W        W32627  19.632   5.780   0.789
60368W        W32628  16.696  35.069  11.145
60369W        W32629   2.463  28.639   1.038
60370W        W32630  37.374  16.571  11.135
60371W        W32631  19.171  39.859   1.828
60372W        W32632  42.004   9.332   1.811
60373W        W32633   3.764  25.934   2.853
60374W        W32634   2.699  12.028   3.865
60375W        W32635  15.335   4.814  10.088
60376W        W32636  25.805   3.914  12.431
60377W        W32637  16.687  19.316   2.348
60378W        W32638  37.967   4.265   3.257
60379W        W32639  10.925  42.843   0.539
60380W        W32640  18.468  31.402  11.705
60381W        W32641  34.623  40.705  12.223
60382W        W32642  25.892   3.408   2.547
60383W        W32643  39.808   3.353   0.549
60384W        W32644  42.825  18.892  12.960
60385W        W32645  22.502  12.513  10.040
60386W        W32646  41.962  26.632   1.439
60387W        W32647  30.607   7.152   3.077
60388W        W32648  20.604  27.493  14.303
60389W        W32649  14.724  16.310  12.038
60390W        W32650  26.704  15.199   2.244
60391W        W32651  12.311  24.881  11.997
60392W        W32652  29.946  38.890  14.954
60393W        W32653  43.812   6.870   4.100
60394W        W32654   8.489  14.990  11.606
60395W        W32655  11.868  35.560   2.739
60396W        W32656   7.751  26.047  11.527
60397W        W32657  25.630  42.342   0.758
60398W        W32658   4.100  19.173   4.676
60399W        W32659   9.094  20.313  12.046
60400W        W32660  23.781  23.370  12.238
60401W        W32661  23.919  27.041   1.837
60402W        W32662   4.860  37.201   9.693
60403W        W32663  11.070  43.811   0.440
60404W        W32664  26.405  30.114   3.944
60405W        W32665  26.611  28.223  11.582
60406W        W32666  37.933  10.654   1.284
60407W        W32667  19.794  19.175   2.890
60408W        W32668  27.915  34.775   2.266
60409W        W32669  23.225  15.471  11.651
60410W        W32670  41.972   4.417   2.362
60411W        W32671  33.664  28.533  14.848
60412W        W32672  11.485  41.061   2.715
60413W        W32673  17.751   7.635  13.575
60414W        W32674  19.761  17.109   1.913
60415W        W32675  16.534  12.051   1.794
60416W        W32676  31.050  12.090   3.405
60417W        W32677   0.683  19.166  10.789
60418W        W32678  12.277  42.460  12.402
60419W        W32679  29.381  20.129   2.462
60420W        W32680  34.114  39.793   1.855
60421W        W32681  13.410  14.220  13.503
60422W        W32682  12.664  19.531   3.373
60423W        W32683   8.793   0.668  10.752
60424W        W32684  17.366  30.105  12.543
60425W        W32685  26.607  25.420   4.726
60426W        W32686  18.529  29.101   0.356
60427W        W32687  41.854  28.119  11.368
60428W        W32688  13.283  13.190   1.837
60429W        W32689  29.470   3.419  10.975
60430W        W32690  39.098  37.409   2.374
60431W        W32691  19.671  10.278  14.590
60432W        W32692  15.908  40.954   2.741
60433W        W32693  25.174   1.801  14.329
60434W        W32694   6.931  25.065  12.001
60435W        W32695  41.988  35.013  13.675
60436W        W32696   1.831  30.851   3.622
60437W        W32697  37.012  29.385   4.556
60438W        W32698  44.741  37.141   4.166
60439W        W32699  40.538  12.127   3.697
60440W        W32700  43.191   3.918  12.430
60441W        W32701  33.344  25.663   1.080
60442W        W32702  30.200  22.438   2.595
60443W        W32703  36.413  21.799   2.875
60444W        W32704  43.834  36.421  14.377
60445W        W32705  19.491  28.989  11.458
60446W        W32706  25.253  42.926  12.976
60447W        W32707  17.351  26.053   4.023
60448W        W32708  32.004  24.688  13.288
60449W        W32709  40.254   6.964  14.520
60450W        W32710  24.791  39.662   2.827
60451W        W32711  16.685  16.948   5.086
60452W        W32712  14.284   6.788  10.490
60453W        W32713  18.087  25.018   1.779
60454W        W32714  34.312  43.020   2.631
60455W        W32715  37.882  13.110   4.977
60456W        W32716  18.387  43.313   2.666
60457W        W32717  24.101   4.905   3.182
60458W        W32718  24.608   2.250  10.890
60459W        W32719   4.429   9.713   4.764
60460W        W32720  15.309  20.089   0.984
60461W        W32721  15.384   0.001   0.940
60462W        W32722  33.476  29.676   2.784
60463W        W32723  22.742   6.883  13.350
60464W        W32724  22.745  44.522   1.779
60465W        W32725  22.668   7.189   2.665
60466W        W32726  10.653  44.276  13.769
60467W        W32727  10.269   2.230  11.010
60468W        W32728   8.469   7.753  13.102
60469W        W32729  23.922  13.119   2.170
60470W        W32730  10.344   7.246   3.180
60471W        W32731  34.561  21.578   1.008
60472W        W32732  41.205  26.035   0.506
60473W        W32733  27.357  20.626   1.702
60474W        W32734  29.567   9.281   1.596
60475W        W32735  40.433   7.894  14.569
60476W        W32736  26.960   7.878  10.448
60477W        W32737  29.011  30.176  11.403
60478W        W32738  36.903  11.276   1.228
60479W        W32739   9.720   1.342   2.622
60480W        W32740  26.921  24.646  11.956
60481W        W32741  37.191  22.610   3.741
60482W        W32742  38.167  25.748  13.866
60483W        W32743   5.953  33.903   1.366
60484W        W32744  13.675  12.264   4.460
60485W        W32745  43.368  33.629  11.857
60486W        W32746   5.204  19.748  12.530
60487W        W32747   7.448  20.178  10.443
60488W        W32748  15.332  22.610  12.923
60489W        W32749  10.294   7.166   4.673
60490W        W32750   7.337   6.869   4.355
60491W        W32751  30.157  39.438  12.456
60492W        W32752  38.271  32.120  11.155
60493W        W32753  41.289  44.931   4.218
60494W        W32754   7.615  14.370  13.903
60495W        W32755  35.413   8.538  11.209
60496W        W32756  19.222   0.269  14.859
60497W        W32757  20.046  11.700  11.968
60498W        W32758  20.358  41.760  12.522
60499W        W32759  28.656  23.079  14.421
60500W        W32760  14.841  37.001   3.603
60501W        W32761  44.787  43.734   3.709
60502W        W32762  11.848  31.602  10.841
60503W        W32763   9.696  33.557   4.392
60504W        W32764  15.080  41.416   1.837
60505W        W32765  30.334  24.002   1.899
60506W        W32766   5.655   6.293   1.867
60507W        W32767  29.110  26.206   4.453
60508W        W32768  13.236  28.321   9.805
60509W        W32769   6.257  21.274  12.000
60510W        W32770  11.727   9.682   3.657
60511W        W32771  34.669  12.098   4.229
60512W        W32772  18.706  34.357   2.859
60513W        W32773  13.314  27.074  10.304
60514W        W32774   5.273  35.932  14.390
60515W        W32775   6.938   0.391  12.812
60516W        W32776  15.051  32.007  12.815
60517W        W32777  35.076  27.200   1.764
60518W        W32778  36.737   1.268  10.711
60519W        W32779  41.329  43.743  14.414
60520W        W32780  35.518  20.250   1.352
60521W        W32781  40.024   6.528  11.656
60522W        W32782  43.667  31.120   4.409
60523W        W32783   6.978  43.533   3.376
60524W        W32784   1.693  32.642  14.447
60525W        W32785  39.962  28.590   2.093
60526W        W32786  26.528  16.117   1.934
60527W        W32787  38.488   5.162  12.567
60528W        W32788  28.421  28.174  11.647
60529W        W32789  36.456  39.692  11.919
60530W        W32790   0.961  16.258  13.995
60531W        W32791   2.719  10.133   2.812
60532W        W32792  15.634  35.094   2.896
60533W        W32793  44.336   9.656   2.716
60534W        W32794  13.431  37.338  11.594
60535W        W32795  25.292  43.077   2.717
60536W        W32796  10.761  20.507   4.080
60537W        W32797  41.426  20.489   1.646
60538W        W32798   4.789  20.078   2.875
60539W        W32799   0.258  20.814   0.313
60540W        W32800  41.439   7.001   2.857
60541W        W32801  31.893   0.318  14.886
60542W        W32802   1.759  29.833  11.474
60543W        W32803   3.356  11.399  11.652
60544W        W32804   2.051  31.928  10.166
60545W        W32805  37.553  15.699   1.989
60546W        W32806   7.322  35.464   4.624
60547W        W32807  30.584  34.738   0.992
60548W        W32808  29.591  10.294   5.205
60549W        W32809  19.046  23.114  10.615
60550W        W32810  17.247   6.762   1.080
60551W        W32811  23.584  25.105   0.093
60552W        W32812  17.600  28.123  11.127
60553W        W32813  42.959  28.271   0.010
60554W        W32814  28.581  17.736   0.616
60555W        W32815  39.354  25.782  12.035
60556W        W32816  10.029  16.910   1.421
60557W        W32817  30.561  38.374   2.659
60558W        W32818  24.730   8.818  11.487
60559W        W32819  20.049  39.491  10.743
60560W        W32820   5.657  34.257   1.673
60561W        W32821   8.158   7.942   3.661
60562W        W32822   7.431  33.797   3.623
60563W        W32823  42.740  19.160   3.860
60564W        W32824  44.768  39.038   0.843
60565W        W32825  22.418  37.406   1.448
60566W        W32826   0.432  16.791   1.684
60567W        W32827  14.898   1.363  12.056
60568W        W32828  43.009  38.252   1.253
60569W        W32829   2.295  10.349   1.869
60570W        W32830  25.146  36.471  10.504
60571W        W32831  30.815   2.516  12.943
60572W        W32832  33.881  24.667  12.232
60573W        W32833  17.311  37.970  11.268
60574W        W32834  19.986  19.059   4.552
60575W        W32835  37.953  22.739  11.580
60576W        W32836  41.939  26.540  12.496
60577W        W32837   8.364   3.722  11.606
60578W        W32838   8.815  10.662  14.456
60579W        W32839  32.053  21.250   2.371
60580W        W32840  26.939  23.680  14.266
60581W        W32841  40.006  35.407   4.592
60582W        W32842  37.244  22.035  14.395
60583W        W32843  11.900   3.718   1.853
60584W        W32844  30.418  29.042  12.420
60585W        W32845  11.696  14.269   0.805
60586W        W32846  28.171   7.773   3.397
60587W        W32847  35.156  24.753  12.043
60588W        W32848  14.700  37.535   2.679
60589W        W32849   0.798  11.911  12.798
60590W        W32850  13.088  17.769   4.940
60591W        W32851  23.041  27.586   3.873
60592W        W32852  13.067  19.224   3.188
60593W        W32853   6.447   3.478   5.058
60594W        W32854  14.299  37.060   3.586
60595W        W32855  39.790   7.891  10.366
60596W        W32856  13.089  36.544  11.905
60597W        W32857  15.873  42.752   0.523
60598W        W32858  38.972  18.619  13.346
60599W        W32859  31.861  28.666  13.782
60600W        W32860  14.169  41.239  14.783
60601W        W32861  42.356  35.735   3.119
60602W        W32862   8.222  30.287  12.823
60603W        W32863  25.490  20.827  11.548
60604W        W32864  21.021  23.559  14.406
60605W        W32865  41.841   8.085   4.310
60606W        W32866  36.224   9.275  14.401
60607W        W32867  16.534  11.875  14.543
60608W        W32868  11.275  23.565  12.113
60609W        W32869   9.888  27.237   3.778
60610W        W32870  20.015  33.086   3.620
60611W        W32871   6.842  11.746   0.154
60612W        W32872  38.586  41.217   0.482
60613W        W32873   3.720  38.570  14.537
60614W        W32874  34.973  35.864  11.952
60615W        W32875  27.010  20.774  11.947
60616W        W32876  39.951  37.321  14.810
60617W        W32877  11.711  38.489   4.825
60618W        W32878  13.213  29.193   3.277
60619W        W32879  27.715  10.931  12.011
60620W        W32880  30.116  25.182  11.137
60621W        W32881   8.689  20.391   1.895
60622W        W32882   4.898  34.867  11.113
60623W        W32883  29.149  12.713   0.901
60624W        W32884  12.141  11.222  12.114
60625W        W32885  38.709  23.373   0.847
60626W        W32886   9.598  38.023  11.935
60627W        W32887  20.661  20.638  12.684
60628W        W32888  19.529   5.745   2.917
60629W        W32889   7.323  27.460  12.992
60630W        W32890   5.301   6.423   0.868
60631W        W32891  39.494  25.559   1.453
60632W        W32892  44.802  26.771  11.058
60633W        W32893  32.547  15.817   1.157
60634W        W32894  31.097  26.126  11.131
60635W        W32895  38.151  21.042  12.901
60636W        W32896  36.406  26.381  11.864
60637W        W32897  39.562   5.473   1.543
60638W        W32898  29.753  34.136  14.537
60639W        W32899  30.984  18.036   3.374
60640W        W32900  35.411  35.926   1.803
60641W        W32901  13.970  27.394  12.150
60642W        W32902  26.278  30.575   2.751
60643W        W32903  42.385  15.279   3.128
60644W        W32904  29.132  10.656   1.657
60645W        W32905   9.226  11.824   4.110
60646W        W32906  32.089  29.475  13.446
60647W        W32907  36.132  37.110  12.610
60648W        W32908  10.645  14.265   2.269
60649W        W32909  42.617  16.086   1.446
60650W        W32910   3.876  31.082   3.709
60651W        W32911  20.120  41.959  14.737
60652W        W32912  24.612   4.910   0.895
60653W        W32913  20.815  20.323   5.127
60654W        W32914  12.091  27.437   1.476
60655W        W32915  38.123  28.067   1.710
60656W        W32916  43.762  16.216   0.059
60657W        W32917  31.244  25.588  14.745
60658W        W32918  23.152  21.700   3.715
60659W        W32919   3.827  16.017   2.797
60660W        W32920   9.790   6.725   4.143
60661W        W32921  25.618  41.105   3.868
60662W        W32922  33.581  18.079   4.180
60663W        W32923  36.635  41.855  10.504
60664W        W32924  29.511  23.002   2.174
60665W        W32925  26.682  35.875  12.565
60666W        W32926  19.083   6.268   2.485
60667W        W32927   1.867  19.561   2.529
60668W        W32928   0.581  38.004   2.352
60669W        W32929   7.122   8.181   2.682
60670W        W32930  21.287   8.280  10.464
60671W        W32931   4.666  42.487   1.472
60672W        W32932  23.149  11.255   1.745
60673W        W32933  24.338   1.957   2.685
60674W        W32934   5.315  41.115   1.400
60675W        W32935  42.378   5.380   1.336
60676W        W32936  44.544   1.145  13.517
60677W        W32937  40.302  35.637  10.642
60678W        W32938  15.643  41.209   3.162
60679W        W32939  27.681  20.084  11.621
60680W        W32940  38.084  12.232  14.243
60681W        W32941  36.314  26.000  14.021
60682W        W32942  41.461  26.544   4.070
60683W        W32943  32.472  19.089   4.165
60684W        W32944   8.994   7.021   1.607
60685W        W32945   7.326  11.604   2.784
60686W        W32946  11.633  14.642  14.318
60687W        W32947   7.114  32.698  13.869
60688W        W32948   8.137  31.087   1.742
60689W        W32949   0.782  35.313  14.092
60690W        W32950  14.772  42.443   1.349
60691W        W32951  29.989  29.569  10.434
60692W        W32952  18.651  34.875  13.996
60693W        W32953  25.169  42.303   0.480
60694W        W32954   2.454  43.175   1.877
60695W        W32955  40.883  17.128  12.212
60696W        W32956  21.966  26.730  14.463
60697W        W32957   3.254  13.615  10.750
60698W        W32958  28.083   9.730   2.442
60699W        W32959   3.022   5.761  13.325
60700W        W32960   1.473   9.870  13.599
60701W        W32961  35.845  19.002   4.127
60702W        W32962   2.489   2.761   2.576
60703W        W32963  36.721  40.943  10.496
60704W        W32964  31.352  19.865  14.842
60705W        W32965   5.981  30.010  14.416
60706W        W32966  25.170   7.250   3.258
60707W        W32967  36.420   6.394   0.287
60708W        W32968  35.428  28.967  11.147
60709W        W32969  30.981  16.006  12.008
60710W        W32970   3.346  14.107  10.919
60711W        W32971  39.071  26.931   0.361
60712W        W32972   4.732  28.245   4.238
60713W        W32973   5.415   1.772  10.502
60714W        W32974   1.828  29.646   3.793
60715W        W32975  15.460  28.489  14.884
60716W        W32976  35.441  11.834   3.174
60717W        W32977  43.912  37.699  11.066
60718W        W32978   3.014  27.827  11.585
60719W        W32979   8.118  36.048  12.847
60720W        W32980  12.893  43.585   3.640
60721W        W32981  44.218  38.961   3.899
60722W        W32982  16.309  28.480  13.095
60723W        W32983  28.998  39.043   1.729
60724W        W32984  23.601   2.997  13.307
60725W        W32985  20.760  34.952   3.094
60726W        W32986  29.231  14.196   2.348
60727W        W32987  34.790  25.597  11.617
60728W        W32988  31.512  13.312   2.997
60729W        W32989  27.142  41.768   1.414
60730W        W32990  38.980   9.107  10.163
60731W        W32991  39.361   9.815   3.236
60732W        W32992  19.378  41.506   2.741
60733W        W32993  30.859  23.535   3.036
60734W        W32994  33.041  22.920  11.099
60735W        W32995  11.768  14.641  10.685
60736W        W32996   1.355  44.844   2.627
60737W        W32997  29.571  31.545   4.989
60738W        W32998  10.717  18.564   5.070
60739W        W32999  13.629  38.602   0.539
60740W        W33000  43.078  33.266  11.067
60741W        W33001   8.190  29.633   4.167
60742W        W33002  36.057   3.376  12.546
60743W        W33003   2.921  40.859   2.733
60744W        W33004  28.590  24.399  13.106
60745W        W33005   0.771  31.989   1.964
60746W        W33006  28.980  23.017  11.745
60747W        W33007  35.599  36.328  13.995
60748W        W33008  38.831  25.666  10.727
60749W        W33009  30.088  28.434   2.780
60750W        W33010  13.868   9.152  14.417
60751W        W33011  14.200  12.670   0.191
60752W        W33012   7.976  25.921   4.574
60753W        W33013  30.735  37.867   2.645
60754W        W33014  30.061  38.578   3.872
60755W        W33015   7.168   9.321  12.861
60756W        W33016   6.861   1.722  12.944
60757W        W33017  28.859  20.658   0.287
60758W        W33018  28.416  41.316   0.334
60759W        W33019   3.822  41.914  10.762
60760W        W33020  39.416  43.026   1.307
60761W        W33021  17.230  21.352   2.674
60762W        W33022  29.076  34.886  14.192
60763W        W33023  19.016  29.264   0.367
60764W        W33024  41.935   2.506   3.359
60765W        W33025  23.537  35.618   3.068
60766W        W33026   6.004  44.520   4.670
60767W        W33027  36.051  41.765  13.459
60768W        W33028  13.673  36.829  14.909
60769W        W33029   5.377  13.760  13.550
60770W        W33030   4.468  42.152  13.759
60771W        W33031   2.528  24.738   1.837
60772W        W33032  29.430  27.135  13.388
60773W        W33033  17.670  43.964  11.472
60774W        W33034  43.001  17.572   5.011
60775W        W33035  10.617  11.083  12.048
60776W        W33036  18.394  25.113  12.531
60777W        W33037  14.815  35.964   1.367
60778W        W33038  42.779  22.714   4.367
60779W        W33039  43.551  35.139  12.986
60780W        W33040  26.177  18.815  11.106
60781W        W33041  26.728  34.781   3.205
60782W        W33042  17.114  32.463   4.528
60783W        W33043  26.212  26.142  14.428
60784W        W33044   2.641  30.062   2.157
60785W        W33045  15.563   6.191   1.794
60786W        W33046  41.187  34.636  12.516
60787W        W33047  44.654   6.694  12.393
60788W        W33048  22.579  26.719  13.490
60789W        W33049  35.118   9.438  12.010
60790W        W33050  33.358  30.832  11.872
60791W        W33051   1.883   1.562  11.068
60792W        W33052   8.073  10.869  12.087
60793W        W33053  21.811   3.400   2.803
60794W        W33054  30.560   7.918   4.914
60795W        W33055  21.108  15.633  11.639
60796W        W33056  28.705  30.631   3.122
60797W        W33057  13.630   6.295   3.654
60798W        W33058  29.695  18.307   4.706
60799W        W33059  28.443   0.899   1.190
60800W        W33060  31.944  14.281  11.377
60801W        W33061   6.775  11.243   3.251
60802W        W33062  41.930  26.999  14.285
60803W        W33063  25.080  32.977   0.224
60804W        W33064  12.282  26.688  13.325
60805W        W33065   4.613  36.080  14.867
60806W        W33066  12.156  38.114   0.271
60807W        W33067  16.786  10.678  14.638
60808W        W33068  14.512  11.691   1.026
60809W        W33069  35.671  44.359  11.055
60810W        W33070  19.462  30.452  14.006
60811W        W33071  23.068  20.313  14.467
60812W        W33072  42.573  33.534   1.967
60813W        W33073  41.846  24.594   0.858
60814W        W33074  30.134  30.891  13.988
60815W        W33075  10.826  24.691   4.890
60816W        W33076  10.710   8.916   4.123
60817W        W33077  30.244  24.275   1.014
60818W        W33078  25.721   0.804   1.781
60819W        W33079  32.909  41.680  10.980
60820W        W33080  14.027   0.510   2.357
60821W        W33081  43.211  14.884   2.173
60822W        W33082  40.008  43.987   0.910
60823W        W33083  26.435  24.299   1.329
60824W        W33084  37.045  39.564  13.790
60825W        W33085  41.468  22.517   3.908
60826W        W33086   9.301  14.779  11.420
60827W        W33087  40.635   8.616   5.036
60828W        W33088  27.113  41.413  11.331
60829W        W33089   6.797  43.080   3.182
60830W        W33090  30.687   5.745   2.287
60831W        W33091  31.984  28.311  14.548
60832W        W33092  13.083  42.830  10.011
60833W        W33093  14.609  26.263  12.886
60834W        W33094  23.096  24.481   3.780
60835W        W33095  35.432  16.258   2.852
60836W        W33096  35.834  28.271  10.754
60837W        W33097  11.568  25.783  12.142
60838W        W33098   8.613   2.753  10.747
60839W        W33099  24.701  11.610  12.118
60840W        W33100  10.384  12.590  13.337
60841W        W33101   1.383  18.349   4.789
60842W        W33102  12.140  36.337  13.345
60843W        W33103   8.913  35.598   2.786
60844W        W33104  10.653  34.342   0.661
60845W        W33105  13.625  37.418   3.092
60846W        W33106   6.405   2.809  11.109
60847W        W33107  19.163  34.159   4.468
60848W        W33108  44.557  31.589   2.574
60849W        W33109  16.053  35.981   3.213
60850W        W33110  32.356  37.625  10.824
60851W        W33111  30.674  40.283   3.552
60852W        W33112   3.146  15.946  12.648
60853W        W33113   8.408   5.748  10.618
60854W        W33114  16.796  10.834  12.655
60855W        W33115   5.237  42.499  13.836
60856W        W33116   0.787  21.112  12.878
60857W        W33117  22.671  23.561   2.739
60858W        W33118  30.006  42.309   2.605
60859W        W33119   1.096   8.828   3.808
60860W        W33120  24.236  26.208   3.081
60861W        W33121  20.091  42.379   4.772
60862W        W33122   7.983  25.122   3.058
60863W        W33123  44.016  14.742  12.392
60864W        W33124  16.735  27.178  11.023
60865W        W33125  26.844  11.555  14.395
60866W        W33126   7.922  32.396  12.005
60867W        W33127  12.682  11.058  12.724
60868W        W33128   7.613  41.540  14.546
60869W        W33129  39.077  41.029  10.732
60870W        W33130  24.196  42.216  10.606
60871W        W33131  42.477  31.245   3.662
60872W        W33132  35.501  44.768   1.962
60873W        W33133  27.021  33.554   1.182
60874W        W33134  17.026  38.848  14.837
60875W        W33135  27.987  30.119   0.278
60876W        W33136  21.719  33.996   0.736
60877W        W33137  32.546   4.286  10.521
60878W        W33138   4.817  10.049  12.946
60879W        W33139  25.006   3.741   4.372
60880W        W33140   6.633  44.519   3.978
60881W        W33141  15.766  33.180   0.086
60882W        W33142  28.223  33.496   3.362
60883W        W33143  13.439   2.351  13.786
60884W        W33144   0.738  42.885   0.316
60885W        W33145  34.031   8.760  14.360
60886W        W33146  16.127  23.119  12.897
60887W        W33147  19.309  28.524  11.198
60888W        W33148   9.870  15.705   1.742
60889W        W33149  20.409   1.946  14.084
60890W        W33150  12.346  22.077  10.481
60891W        W33151  21.460  13.764   2.828
60892W        W33152  16.500   9.426  12.857
60893W        W33153  14.280  36.152  11.634
60894W        W33154  35.968   2.649  10.737
60895W        W33155  24.106  29.685   0.311
60896W        W33156  31.251  26.435  11.915
60897W        W33157   1.034  29.214  13.110
60898W        W33158   5.936   9.804   2.369
60899W        W33159  14.631   3.665   4.200
60900W        W33160  37.719  19.847   5.076
60901W        W33161  28.939   1.030   1.680
60902W        W33162   2.363  32.082   4.571
60903W        W33163   1.343  41.262  11.067
60904W        W33164   4.865  43.538   2.807
60905W        W33165  15.873  34.081  10.975
60906W        W33166  37.882  18.153   2.703
60907W        W33167  38.520  41.321   2.717
60908W        W33168   1.265   4.434   3.605
60909W        W33169   2.571   5.789   2.121
60910W        W33170  28.966  41.762   3.456
60911W        W33171  21.643  21.793   1.276
60912W        W33172  27.079  19.867  14.959
60913W        W33173   6.611  31.058   0.474
60914W        W33174  36.248   8.342  10.091
60915W        W33175  15.205  36.604  11.661
60916W        W33176  12.856  27.541   3.096
60917W        W33177  41.436  26.961   3.319
60918W        W33178  14.497  16.776  11.916
60919W        W33179  43.852  17.582  13.382
60920W        W33180  11.717  11.891   0.364
60921W        W33181  36.081  30.921  11.649
60922W        W33182  14.761  44.968   1.783
60923W        W33183   4.947  43.036   2.692
60924W        W33184   7.901  42.367  12.931
60925W        W33185  36.101  37.931  14.650
60926W        W33186  24.041  11.347   4.230
60927W        W33187  33.455  44.077  14.411
60928W        W33188  15.299  25.465  14.690
60929W        W33189  30.957  17.995  14.796
60930W        W33190   6.070  21.509   1.620
60931W        W33191  36.500  22.631  10.796
60932W        W33192   9.002  13.553  11.567
60933W        W33193  39.558  18.535  11.711
60934W        W33194  41.869  35.591  14.854
60935W        W33195  14.894  39.944  13.503
60936W        W33196  15.900  24.734  11.197
60937W        W33197  17.537  21.434  14.507
60938W        W33198   8.194  22.365   3.917
60939W        W33199  35.879  34.952  10.554
60940W        W33200  21.422  43.929  13.460
60941W        W33201   2.472  29.160  10.679
60942W        W33202   3.265   9.664  12.045
60943W        W33203  26.942  26.638  13.807
60944W        W33204  42.393  24.289  14.053
60945W        W33205  23.688  21.251   2.253
60946W        W33206  29.760   1.529   2.688
60947W        W33207   7.228  35.981   2.808
60948W        W33208  23.426  42.336  11.109
60949W        W33209   2.190  29.196  13.467
60950W        W33210  40.035  21.135   0.738
60951W        W33211  11.872  36.930  14.213
60952W        W33212  16.152  30.009  13.003
60953W        W33213   2.338   9.878  14.804
60954W        W33214   1.966  26.265  10.466
60955W        W33215  29.149  25.152   0.926
60956W        W33216  15.251  37.935  10.925
60957W        W33217  34.099  26.230  14.897
60958W        W33218   3.888   5.058   3.700
60959W        W33219  11.479  13.840  14.211
60960W        W33220  41.510  15.688  10.254
60961W        W33221  21.110  16.582   0.581
60962W        W33222   6.424  32.829   0.392
60963W        W33223  13.084  11.568  13.841
60964W        W33224   8.153  25.787   1.277
60965W        W33225  36.863  10.868   0.826
60966W        W33226   3.830  13.120   2.340
60967W        W33227  29.538  37.029   1.345
60968W        W33228  26.709  28.410  11.101
60969W        W33229  33.797  24.955   1.768
60970W        W33230  34.468   6.022  13.221
60971W        W33231   4.348  17.313   1.942
60972W        W33232  18.034  24.594  13.957
60973W        W33233   5.499  43.861   3.343
60974W        W33234  33.928  23.334   4.155
60975W        W33235   1.842  30.664   3.113
60976W        W33236   4.766  11.899   1.282
60977W        W33237  36.572   3.715  12.514
60978W        W33238  44.458   1.552   4.305
60979W        W33239  27.081  13.854   3.085
60980W        W33240  38.505   9.728   1.943
60981W        W33241  26.408   7.809  11.727
60982W        W33242  44.232  35.407  12.438
60983W        W33243  15.764  28.263   2.601
60984W        W33244   2.276  17.780  11.887
60985W        W33245  12.965   4.835   1.337
60986W        W33246   5.867  36.638   2.304
60987W        W33247   5.939  22.506  14.273
60988W        W33248  38.809   8.702   4.659
60989W        W33249   9.699  42.821  13.879
60990W        W33250  15.920  30.469   0.211
60991W        W33251   4.919   4.193   4.577
60992W        W33252   6.171  32.103   4.155
60993W        W33253  44.369  30.354  11.414
60994W        W33254  10.898   6.430  13.047
60995W        W33255  30.729  21.285  11.131
60996W        W33256  38.468  13.777   3.902
60997W        W33257  41.153  33.075   4.198
60998W        W33258  23.588  25.657   4.666
60999W        W33259   9.245  37.292   3.247
61000W        W33260  36.429   5.770  14.347
61001W        W33261  44.521   4.947   4.911
61002W        W33262  34.891  17.017  12.078
61003W        W33263   8.016   3.455  13.081
61004W        W33264   3.430  29.473  13.024
61005W        W33265   7.947  26.015  14.905
61006W        W33266  18.243  24.612  14.873
61007W        W33267  37.597   8.677  13.414
61008W        W33268   7.471  35.439   1.066
61009W        W33269  14.098  24.982  14.116
61010W        W33270  33.336  26.839   0.370
61011W        W33271  34.078  43.871   4.295
61012W        W33272  33.363   5.347   3.122
61013W        W33273  34.486  38.495   4.833
61014W        W33274   3.602  39.581  12.440
61015W        W33275  34.331  34.928   1.874
61016W        W33276  19.782   2.969  11.953
61017W        W33277  27.436  33.118  11.938
61018W        W33278   1.573  20.849  14.269
61019W        W33279  35.993  35.125   4.166
61020W        W33280  36.032  37.142   1.985
61021W        W33281  40.485  12.175   0.793
61022W        W33282   4.902  29.208  11.716
61023W        W33283  35.072  24.224   3.603
61024W        W33284   7.335  24.211  14.004
61025W        W33285   9.216   4.921   2.339
61026W        W33286  32.656  40.471   1.427
61027W        W33287  23.965   3.763   0.837
61028W        W33288  29.544   2.471  13.452
61029W        W33289  27.381  42.482   1.272
61030W        W33290  43.030  32.875  13.197
61031W        W33291  28.936  21.783  13.045
61032W        W33292  24.755  11.818   3.231
61033W        W33293   9.438  33.386  12.906
61034W        W33294   0.922  42.285   4.570
61035W        W33295  28.745  17.878   1.818
61036W        W33296  35.627  19.231   1.782
61037W        W33297  40.321   0.899   1.524
61038W        W33298  39.680  35.456   2.653
61039W        W33299  26.027  10.788  13.800
61040W        W33300  11.095  28.555  14.929
61041W        W33301  25.227  33.151   4.153
61042W        W33302  10.763  39.556   1.428
61043W        W33303  18.931   4.959   2.657
61044W        W33304  26.337  44.683  13.818
61045W        W33305  42.915   7.545   1.706
61046W        W33306  11.934  10.824  14.657
61047W        W33307  39.279  44.349   4.676
61048W        W33308  15.576  19.668   1.743
61049W        W33309   0.685  21.585   4.769
61050W        W33310  16.617   6.658   3.389
61051W        W33311  42.996  12.420  10.637
61052W        W33312   2.476  21.004   1.603
61053W        W33313  42.474   1.501  14.378
61054W        W33314  26.656   9.954  14.795
61055W        W33315  41.549  10.874   2.841
61056W        W33316   0.534  23.135   4.958
61057W        W33317  38.947  23.681  10.679
61058W        W33318  16.279  30.162   1.864
61059W        W33319  36.600  42.338   2.856
61060W        W33320   0.805  11.172  13.717
61061W        W33321  34.536   4.601   1.814
61062W        W33322  12.308  37.014   4.149
61063W        W33323  43.793   2.803  14.285
61064W        W33324  27.704   2.882  11.024
61065W        W33325  38.533  16.521  10.695
61066W        W33326  37.904  30.968   2.363
61067W        W33327  35.121   5.788   1.125
61068W        W33328  30.625   1.925   3.263
61069W        W33329  20.151  27.607   3.923
61070W        W33330   7.134   7.665   2.708
61071W        W33331  36.438  16.034   3.768
61072W        W33332  38.148  13.077   3.349
61073W        W33333   3.657  18.513  12.025
61074W        W33334  37.292  40.950   1.568
61075W        W33335  38.948  15.239  14.505
61076W        W33336  41.914  39.252   2.373
61077W        W33337  44.570  20.767  12.506
61078W        W33338   5.384  20.557  14.686
61079W        W33339  29.182  34.452  12.491
61080W        W33340  15.783  37.215   1.914
61081W        W33341  37.683   7.740   4.912
61082W        W33342  37.208   0.308  14.524
61083W        W33343  10.125  38.517  13.580
61084W        W33344  16.410  20.833  12.598
61085W        W33345  19.641  11.024   1.477
61086W        W33346  15.920   7.125  11.204
61087W        W33347  17.637   3.814   2.144
61088W        W33348  38.562  20.882   2.236
61089W        W33349   2.724  43.624   0.995
61090W        W33350   7.896  39.855  13.437
61091W        W33351   0.360  24.492  14.552
61092W        W33352  15.193  20.542   1.195
61093W        W33353  31.948   1.139   3.372
61094W        W33354  39.981  35.814  12.366
61095W        W33355  10.763  23.949   1.932
61096W        W33356   2.280  30.932  14.027
61097W        W33357  29.378  17.054   4.113
61098W        W33358  43.888  43.382  13.096
61099W        W33359  43.950  31.470  12.854
61100W        W33360  26.185  33.434   1.819
61101W        W33361  41.876  25.204   2.350
61102W        W33362  29.988  24.165  12.535
61103W        W33363  26.984  34.191  14.849
61104W        W33364  19.496  36.588   3.616
61105W        W33365  44.230   6.934  12.616
61106W        W33366  36.914  25.488   0.326
61107W        W33367  14.047   4.433   3.221
61108W        W33368  10.038  12.826  13.007
61109W        W33369  40.954  10.677  14.023
61110W        W33370  14.705   9.665  11.528
61111W        W33371  25.085  42.056   4.040
61112W        W33372  33.155  21.608  14.559
61113W        W33373  15.182  35.804  13.322
61114W        W33374  35.621  26.164  12.289
61115W        W33375  41.956  33.686  10.017
61116W        W33376  21.709  33.178  12.043
61117W        W33377  22.003  17.974   3.791
61118W        W33378  34.190  35.914   0.369
61119W        W33379   4.094  29.448  11.104
61120W        W33380  14.591  15.783  12.077
61121W        W33381  15.108  26.804   3.148
61122W        W33382   6.528  31.912  10.702
61123W        W33383   1.427  19.834   3.302
61124W        W33384  12.174  41.914  12.432
61125W        W33385  17.132  38.003  12.771
61126W        W33386  40.002   9.040   5.390
61127W        W33387  14.911  32.121  11.809
61128W        W33388   3.596  10.976   0.772
61129W        W33389  25.401  34.509   1.452
61130W        W33390  18.073  13.541  10.441
61131W        W33391  19.950  15.552   1.836
61132W        W33392  29.990  14.004   1.257
61133W        W33393  22.083  11.116  12.929
61134W        W33394  27.915  31.403   0.772
61135W        W33395   5.426  37.230   1.632
61136W        W33396  39.660  24.076   1.181
61137W        W33397   6.783   1.997   0.476
61138W        W33398  27.041  42.437  14.291
61139W        W33399   7.320   7.911   0.503
61140W        W33400  16.096  10.620  14.028
61141W        W33401  29.213  12.287   1.601
61142W        W33402  17.746  32.652   1.752
61143W        W33403  12.196  12.215   3.161
61144W        W33404  37.808  17.690  12.484
61145W        W33405   6.753  43.658  13.851
61146W        W33406  39.315   8.927  13.848
61147W        W33407  40.371   1.834   3.381
61148W        W33408  34.830  27.123  14.349
61149W        W33409  30.023  34.901   5.049
61150W        W33410  18.526   4.004   4.202
61151W        W33411  25.689  22.124  13.047
61152W        W33412  39.899   0.733  14.845
61153W        W33413  33.530  28.982   0.782
61154W        W33414  17.249   4.058   0.822
61155W        W33415   4.022  33.485  12.472
61156W        W33416  18.088  21.256   3.267
61157W        W33417  27.039  32.881   0.385
61158W        W33418  44.252   5.801  14.559
61159W        W33419   5.706   8.409   0.415
61160W        W33420  42.835  21.738   3.300
61161W        W33421  21.670  29.941  12.399
61162W        W33422  21.273  24.778  14.051
61163W        W33423  37.917   1.814  12.478
61164W        W33424  35.688  18.474   0.538
61165W        W33425  13.815   8.243  13.885
61166W        W33426   3.437  43.929   4.504
61167W        W33427  30.877  24.744  11.138
61168W        W33428   4.680  38.508  14.222
61169W        W33429  13.364  22.575   1.372
61170W        W33430  31.474  39.001  11.682
61171W        W33431  15.046  30.349  14.831
61172W        W33432  17.119  37.749  14.460
61173W        W33433  35.785  37.958  13.279
61174W        W33434  40.041  39.442   4.630
61175W        W33435  21.028  21.513   4.651
61176W        W33436   7.706  37.787   3.247
61177W        W33437   1.950  26.106   2.367
61178W        W33438  40.002  10.807   2.827
61179W        W33439   8.855   9.971  13.906
61180W        W33440  36.130  22.176   2.654
61181W        W33441  34.632  32.879  14.487
61182W        W33442  30.821  37.177  11.092
61183W        W33443  27.450  12.685  14.539
61184W        W33444   4.638  17.857   3.652
61185W        W33445  21.783   1.794   0.156
61186W        W33446  19.121  17.499   1.460
61187W        W33447  22.078  21.065  14.718
61188W        W33448   7.649  39.032   1.764
61189W        W33449  35.262  31.464   0.051
61190W        W33450   1.719  19.597  13.728
61191W        W33451  10.694  41.542   4.826
61192W        W33452   7.632  38.132  11.903
61193W        W33453   6.331  33.184  11.922
61194W        W33454  38.085   3.522  14.428
61195W        W33455  42.530  38.537  12.820
61196W        W33456  19.311  36.601   4.112
61197W        W33457  32.400  42.561   4.644
61198W        W33458  43.407   9.652   1.248
61199W        W33459  25.591   9.740   0.577
61200W        W33460  13.466  12.823  13.283
61201W        W33461  42.559  11.121   1.357
61202W        W33462  16.518  38.929   0.857
61203W        W33463  10.756  35.469  10.692
61204W        W33464  18.571   1.135  12.537
61205W        W33465  35.436  39.341   1.004
61206W        W33466  17.401  21.825  13.253
61207W        W33467   1.689  34.845   2.797
61208W        W33468  18.848  28.219   0.244
61209W        W33469  26.845  14.712   3.603
61210W        W33470  14.550   8.833   2.980
61211W        W33471  43.909  19.574   3.704
61212W        W33472  10.285   3.441   1.288
61213W        W33473   2.452  42.048   1.278
61214W        W33474  35.050  25.267   4.922
61215W        W33475  23.052  26.153  11.459
61216W        W33476  39.301  27.068  13.413
61217W        W33477  17.459  20.302   4.575
61218W        W33478  41.134  23.531   3.510
61219W        W33479  21.110  17.379  14.327
61220W        W33480  15.052   3.834   3.933
61221W        W33481   2.204  14.681   1.841
61222W        W33482   7.387   4.812   1.002
61223W        W33483  35.536  37.555   0.687
61224W        W33484  39.006   9.803   1.902
61225W        W33485  19.132   7.690   0.098
61226W        W33486   0.951  24.262   1.684
61227W        W33487  38.436   0.910  11.500
61228W        W33488  22.225   2.426  12.163
61229W        W33489  35.820   7.503   2.726
61230W        W33490  43.013  42.900  14.687
61231W        W33491  38.836  16.192   4.130
61232W        W33492   2.247  42.429   4.303
61233W        W33493   2.902   4.015   4.143
61234W        W33494  39.828   8.440   4.609
61235W        W33495  18.733  20.689  11.563
61236W        W33496  25.599  24.271   1.893
61237W        W33497  36.828  41.718   1.698
61238W        W33498   0.114  35.211   1.854
61239W        W33499  15.346  20.222   3.795
61240W        W33500  33.072  14.643  13.090
61241W        W33501  16.823  31.448   1.792
61242W        W33502  44.794   5.521   0.670
61243W        W33503  26.729  13.169  14.697
61244W        W33504  36.091  11.625  13.809
61245W        W33505  42.984  41.438  12.989
61246W        W33506  12.594  10.719   4.667
61247W        W33507  28.067  12.039  10.572
61248W        W33508   7.651  42.413   1.675
61249W        W33509   4.443   4.608   0.849
61250W        W33510  34.233  15.210  14.355
61251W        W33511  42.033  17.938   1.444
61252W        W33512   2.425  38.207  11.928
61253W        W33513  20.939   6.895   0.802
61254W        W33514   4.955  20.444  11.838
61255W        W33515  44.989  28.577   1.254
61256W        W33516  20.061  13.984  11.930
61257W        W33517  13.135  21.595  10.707
61258W        W33518   0.452  38.586  11.643
61259W        W33519   4.732   0.292   1.182
61260W        W33520  23.762  35.577  13.837
61261W        W33521  34.139  25.852   2.200
61262W        W33522  19.447  30.996  11.620
61263W        W33523  20.449  14.813  13.525
61264W        W33524   4.636  24.735  12.011
61265W        W33525  43.360  14.629   3.109
61266W        W33526   9.633  32.123   4.857
61267W        W33527  14.873  13.592   3.344
61268W        W33528  26.753   9.860  10.429
61269W        W33529  24.709  19.262  13.077
61270W        W33530  40.961  38.389   3.109
61271W        W33531  25.956  26.512   1.724
61272W        W33532   4.395  39.820   1.388
61273W        W33533   4.861  31.661   1.752
61274W        W33534  33.004  11.312   3.293
61275W        W33535  15.109  40.479   1.809
61276W        W33536  29.501  30.506   4.569
61277W        W33537  11.236  10.346  10.636
61278W        W33538  39.323  22.855  10.703
61279W        W33539   2.497  27.651  13.966
61280W        W33540  44.408  23.263   4.294
61281W        W33541   4.754  35.581   4.133
61282W        W33542  13.441   3.890   0.220
61283W        W33543   6.338  26.695  13.075
61284W        W33544  30.957  42.903   0.434
61285W        W33545  15.339   5.348   4.288
61286W        W33546   8.654  11.595   1.299
61287W        W33547  29.411  12.818  11.509
61288W        W33548  38.246  25.024  13.330
61289W        W33549  35.766  18.412  12.460
61290W        W33550   1.106  40.341   0.841
61291W        W33551  24.936   4.972   2.702
61292W        W33552  35.268  17.098  12.523
61293W        W33553  27.634  29.501  11.120
61294W        W33554   6.779  34.278  10.436
61295W        W33555  36.190  14.322   2.747
61296W        W33556  33.628  42.992  12.462
61297W        W33557  34.396  43.212  12.047
61298W        W33558  11.523   6.126   1.841
61299W        W33559  16.123  41.401   4.864
61300W        W33560  22.498  44.601   5.102
61301W        W33561  33.170  12.357   2.327
61302W        W33562  44.669  36.488   0.490
61303W        W33563  44.221  24.680   4.312
61304W        W33564  10.211  21.242   2.442
61305W        W33565  27.063   9.602  14.628
61306W        W33566  37.023  44.763  10.715
61307W        W33567  38.924  13.019   4.656
61308W        W33568  27.426   7.787  10.688
61309W        W33569  37.861  17.771  10.654
61310W        W33570  41.592  44.478  13.877
61311W        W33571  42.391  35.239   3.227
61312W        W33572  35.395   5.331   2.479
61313W        W33573  31.204  42.489   2.152
61314W        W33574  22.349  33.902  11.608
61315W        W33575  30.028  32.295  14.229
61316W        W33576  43.815   4.404   3.157
61317W        W33577  40.725  20.007   1.899
61318W        W33578  22.782  41.912   0.961
61319W        W33579   0.174  22.114   2.420
61320W        W33580   2.328   9.117   2.307
61321W        W33581   5.433   4.933  14.349
61322W        W33582  40.668  25.694   2.471
61323W        W33583   5.290  36.617   0.994
61324W        W33584  35.005  31.025   2.940
61325W        W33585   7.664  13.145   1.410
61326W        W33586  28.114   9.856  13.733
61327W        W33587  37.930  44.665  12.284
61328W        W33588   6.089  44.466   1.880
61329W        W33589  23.470   2.883   2.856
61330W        W33590  12.063   8.943   3.645
61331W        W33591   0.450  12.056  10.622
61332W        W33592  28.405  14.758   3.788
61333W        W33593  25.246  12.720  10.767
61334W        W33594   2.319  10.647   4.906
61335W        W33595   1.584   4.210  11.172
61336W        W33596  42.589   0.964  10.760
61337W        W33597  11.689  43.000   3.841
61338W        W33598  29.407  37.263   4.243
61339W        W33599   6.409  38.026  14.473
61340W        W33600  10.054   9.228  13.406
61341W        W33601  23.234  11.216  14.851
61342W        W33602   7.661  14.334  12.270
61343W        W33603   4.913  32.911  13.343
61344W        W33604  42.525  43.913  11.159
61345W        W33605  37.069   6.289   2.978
61346W        W33606  32.181  13.818   4.646
61347W        W33607  19.249  34.678  12.533
61348W        W33608  40.676  40.578  12.065
61349W        W33609  14.177  38.196   2.604
61350W        W33610  32.645  22.106   2.484
61351W        W33611  14.666  14.093   3.274
61352W        W33612   0.190  24.187  14.950
61353W        W33613  22.780  34.397   3.648
61354W        W33614  24.983  32.609   1.352
61355W        W33615  32.475  22.513  11.602
61356W        W33616  34.023  11.268  14.510
61357W        W33617   9.149  19.181   3.416
61358W        W33618  20.797  35.812   3.376
61359W        W33619  44.884  17.829  11.196
61360W        W33620  35.839  40.366  14.881
61361W        W33621  31.339   7.316  14.510
61362W        W33622  17.086  42.842  13.137
61363W        W33623   0.870  43.523   4.099
61364W        W33624  16.044  23.721   3.364
61365W        W33625  43.904  37.540   3.356
61366W        W33626  20.069  43.321  14.817
61367W        W33627  34.122   7.992  11.121
61368W        W33628  24.228  27.520  13.552
61369W        W33629  31.089  25.095   1.167
61370W        W33630  12.765  19.945  13.129
61371W        W33631  16.226  27.923   4.185
61372W        W33632  42.137  36.105   4.088
61373W        W33633  20.645  40.864  12.867
61374W        W33634  12.794  25.002   4.732
61375W        W33635  38.445  11.465  11.220
61376W        W33636  35.494  16.478  11.759
61377W        W33637   5.256  13.833   4.271
61378W        W33638  32.606  21.463   1.908
61379W        W33639  35.095  40.374  14.291
61380W        W33640  19.735  35.837   0.823
61381W        W33641  28.548   1.372   3.374
61382W        W33642  14.800  44.232  13.998
61383W        W33643  13.359  30.663   3.693
61384W        W33644  31.432  36.036   1.638
61385W        W33645  29.398  22.476   3.899
61386W        W33646   2.563  37.943  11.467
61387W        W33647  27.156  30.071   4.631
61388W        W33648  23.102   4.501   3.150
61389W        W33649   0.042  17.115   3.545
61390W        W33650   7.903  39.450  12.485
61391W        W33651  28.180   5.119   2.395
61392W        W33652   9.149  34.942  10.523
61393W        W33653   3.673   3.349  13.321
61394W        W33654  16.247  16.441   1.883
61395W        W33655  38.453  30.981   0.040
61396W        W33656  19.723  11.129   4.561
61397W        W33657  38.481   3.010   0.792
61398W        W33658  31.158  43.895   3.988
61399W        W33659   3.921   4.961   2.752
61400W        W33660  35.655  40.854  10.701
61401W        W33661  39.468  26.005   3.144
61402W        W33662   6.266   6.963   4.500
61403W        W33663   5.385  18.651  13.021
61404W        W33664  38.452   7.852   4.265
61405W        W33665  31.694   9.696  12.956
61406W        W33666  43.831  44.914  12.388
61407W        W33667  34.545  31.107   4.516
61408W        W33668  33.909  12.730  13.832
61409W        W33669   5.965  38.580  12.946
61410W        W33670  39.769   8.210   1.861
61411W        W33671   0.211  34.896   4.925
61412W        W33672  34.465  20.140   2.151
61413W        W33673  35.024   1.190  13.559
61414W        W33674  44.293   8.247   4.744
61415W        W33675   0.918  20.286  11.600
61416W        W33676   5.243  17.734  12.927
61417W        W33677  39.610  14.815   3.260
61418W        W33678  12.158  40.030   2.298
61419W        W33679  43.471   3.172   3.798
61420W        W33680  12.874   8.042  13.759
61421W        W33681  36.226  19.461  14.494
61422W        W33682   9.886  26.461   0.318
61423W        W33683  41.821  33.835   1.268
61424W        W33684   2.569  37.562   4.022
61425W        W33685  15.731  43.849  10.844
61426W        W33686   4.711  13.607  14.139
61427W        W33687  36.127  15.697   0.618
61428W        W33688  38.291  28.421   4.650
61429W        W33689  26.112   3.935  11.556
61430W        W33690  29.095  21.088   0.514
61431W        W33691  24.260  19.935   4.214
61432W        W33692  33.685  40.809   0.543
61433W        W33693  27.473  40.285  10.641
61434W        W33694  18.204   9.896  10.671
61435W        W33695  34.769   1.550   4.105
61436W        W33696  35.568  30.652  10.833
61437W        W33697  31.708  19.264   1.225
61438W        W33698  23.618  31.721  10.756
61439W        W33699  23.992  25.916   4.970
61440W        W33700  14.222  14.254  12.076
61441W        W33701  23.533  14.612  14.056
61442W        W33702   4.310  26.589  14.375
61443W        W33703  42.430   6.170   0.008
61444W        W33704  11.642   1.789  11.945
61445W        W33705  25.531  37.605   2.856
61446W        W33706   0.727  31.908  10.445
61447W        W33707   9.655  12.782   3.224
61448W        W33708  33.351  20.029   3.789
61449W        W33709  17.781   8.275   1.783
61450W        W33710   4.264   7.173   1.856
61451W        W33711  37.050  25.216  11.189
61452W        W33712  30.066  26.078   2.360
61453W        W33713  33.738  41.472  12.241
61454W        W33714  17.037  39.471   3.678
61455W        W33715  20.504  26.926  11.859
61456W        W33716  43.065  12.885  10.401
61457W        W33717   8.684  30.065   0.427
61458W        W33718   1.320  30.572  10.369
61459W        W33719  15.670  19.295  12.430
61460W        W33720  32.535  13.069  14.961
61461W        W33721  16.020   1.401  12.866
61462W        W33722  41.382  23.243   4.268
61463W        W33723  43.551   8.631   4.554
61464W        W33724  16.825  44.449  13.779
61465W        W33725  20.036   8.266   5.059
61466W        W33726  26.980  17.358  14.847
61467W        W33727  31.007   4.678   0.343
61468W        W33728   4.694   7.080   0.537
61469W        W33729  42.795  12.322  14.015
61470W        W33730  44.877  33.388  10.265
61471W        W33731   4.960  36.956  11.195
61472W        W33732  35.490  42.237  10.607
61473W        W33733  34.229  18.432   2.916
61474W        W33734  12.692  29.488  12.015
61475W        W33735  25.501  23.773  10.822
61476W        W33736   8.123  21.764  11.186
61477W        W33737  14.309  22.137  11.475
61478W        W33738   6.202  18.844  10.662
61479W        W33739   1.383  36.516   2.255
61480W        W33740  21.007  27.051   4.294
61481W        W33741   2.781   9.094   4.270
61482W        W33742  37.737  28.824  12.147
61483W        W33743  18.501  24.755  10.782
61484W        W33744  19.144  21.163  12.603
61485W        W33745  24.841  29.532  11.644
61486W        W33746  14.014  42.361   1.913
61487W        W33747  38.930   2.766   1.391
61488W        W33748  30.735  11.202   1.033
61489W        W33749  17.055  37.368   1.363
61490W        W33750  27.369  40.515  12.965
61491W        W33751  36.842  30.378   1.821
61492W        W33752  23.558   2.523  10.768
61493W        W33753  26.110   6.999   3.828
61494W        W33754  21.646  14.634   3.594
61495W        W33755  25.631  11.450   1.347
61496W        W33756  28.212  12.673   4.390
61497W        W33757  40.169  34.008   2.731
61498W        W33758  15.641  35.989  12.044
61499W        W33759  39.240  24.125   2.103
61500W        W33760   4.703  24.261   2.773
61501W        W33761  20.774  44.709   1.862
61502W        W33762  37.056  17.831  14.044
61503W        W33763  13.195  11.703   4.685
61504W        W33764  23.948   4.173  11.948
61505W        W33765  34.160  17.756  14.415
61506W        W33766  28.045  41.082  11.598
61507W        W33767  35.591  39.576  12.458
61508W        W33768  15.622  28.970   3.280
61509W        W33769  33.933  29.823  13.304
61510W        W33770   2.835  44.375  10.570
61511W        W33771  22.474  27.917   5.093
61512W        W33772   2.339  15.376   2.835
61513W        W33773  35.602  17.300  12.892
61514W        W33774  20.562   4.751  12.945
61515W        W33775   3.301  42.823  10.408
61516W        W33776   8.656   7.014   3.968
61517W        W33777   0.521   0.266   3.636
61518W        W33778  18.943   9.216   4.631
61519W        W33779  14.887   0.512  13.921
61520W        W33780  33.238  36.710   9.884
61521W        W33781  35.539  35.778  13.017
61522W        W33782  37.965  24.992  14.628
61523W        W33783   2.728  40.885  13.996
61524W        W33784  31.644   9.619  11.645
61525W        W33785   5.144  43.785  12.357
61526W        W33786   2.723  24.464   2.234
61527W        W33787  26.367  20.842   1.943
61528W        W33788  25.125  20.028   1.474
61529W        W33789  24.668  25.194  14.904
61530W        W33790  16.815  44.311   1.741
61531W        W33791  28.466   4.868  10.606
61532W        W33792  31.204   1.519  13.412
61533W        W33793  16.762  21.969   2.306
61534W        W33794   6.722  16.251   2.010
61535W        W33795   3.187   4.945   2.180
61536W        W33796  33.880  34.727   1.012
61537W        W33797  29.118  35.538   4.100
61538W        W33798  11.842  36.817   4.014
61539W        W33799  21.984  32.596   3.721
61540W        W33800   7.638  20.634   2.672
61541W        W33801  27.591  16.562   4.473
61542W        W33802  36.919  15.537  10.649
61543W        W33803  42.577  11.843  14.916
61544W        W33804  21.462  41.931   3.918
61545W        W33805  25.763  33.892  12.609
61546W        W33806  19.148  42.339  14.344
61547W        W33807  13.110   9.806  14.447
61548W        W33808  21.068  43.247   3.958
61549W        W33809  24.707  14.707   0.972
61550W        W33810  13.879  21.101  12.617
61551W        W33811  25.137  42.881   0.373
61552W        W33812  27.071  36.618   4.675
61553W        W33813  15.805  16.224   1.624
61554W        W33814  18.610  29.925  11.752
61555W        W33815  17.508  43.482   1.129
61556W        W33816   6.228  18.495   4.232
61557W        W33817   8.359  26.458   1.873
61558W        W33818  32.960  44.074   2.251
61559W        W33819   7.455   0.425   3.611
61560W        W33820  10.258  38.504   4.999
61561W        W33821  44.280  27.005  11.905
61562W        W33822   8.427   6.170  14.447
61563W        W33823  27.178  10.690   1.713
61564W        W33824  31.487  43.314  10.709
61565W        W33825  21.089  40.296  12.914
61566W        W33826  27.890  19.541  11.126
61567W        W33827  31.408  18.449   2.760
61568W        W33828  22.933  24.131  14.018
61569W        W33829   4.976  20.979  11.184
61570W        W33830  42.529   6.148   1.810
61571W        W33831   3.789  42.975  12.035
61572W        W33832  38.490  31.743   0.940
61573W        W33833  10.775   8.447  10.632
61574W        W33834  42.025   6.397  14.733
61575W        W33835  12.739  18.514   3.095
61576W        W33836  31.031  38.414  13.957
61577W        W33837  44.882   0.200  11.528
61578W        W33838  15.697  29.360  11.137
61579W        W33839  41.230  16.357  11.072
61580W        W33840  24.418  41.698  14.436
61581W        W33841  20.566   6.442  12.544
61582W        W33842  32.205  28.931  13.468
61583W        W33843  36.591  40.588   2.479
61584W        W33844  36.032  12.241  14.301
61585W        W33845   5.539  41.364  12.504
61586W        W33846   6.927   5.121   3.553
61587W        W33847   7.897   9.425  14.013
61588W        W33848  30.167  26.678   4.442
61589W        W33849  36.748  35.417   0.496
61590W        W33850   1.003  30.747  11.154
61591W        W33851   4.293  11.653   1.321
61592W        W33852  33.971  15.845  10.712
61593W        W33853  32.378   5.620  13.573
61594W        W33854  21.100  12.290  11.532
61595W        W33855  31.870  22.056   2.916
61596W        W33856  34.245  10.175   1.911
61597W        W33857  25.475  16.619  12.526
61598W        W33858  22.710  41.264   3.654
61599W        W33859  33.201  33.313   5.000
61600W        W33860  20.875  22.537   2.278
61601W        W33861  23.022  33.554   1.784
61602W        W33862   7.181  12.080  12.102
61603W        W33863   3.263  11.103   4.883
61604W        W33864   9.693  44.706  11.123
61605W        W33865  33.337  23.575  11.554
61606W        W33866  33.054  17.599   2.803
61607W        W33867  23.226   7.066  10.516
61608W        W33868   1.788  37.468  11.627
61609W        W33869  10.280   6.319   1.306
61610W        W33870   4.991  26.489   3.978
61611W        W33871  39.451   2.680  11.617
61612W        W33872  19.996  21.496   4.800
61613W        W33873  29.114  15.155  14.225
61614W        W33874  39.363  25.078   4.130
61615W        W33875  28.415  13.361  12.219
61616W        W33876   1.493  17.397  10.753
61617W        W33877  33.546  13.065  11.618
61618W        W33878  12.472  30.521  11.024
61619W        W33879  34.332  35.395   0.669
61620W        W33880  26.098   2.929  11.641
61621W        W33881  24.110   9.095  12.633
61622W        W33882  32.609  40.281   0.945
61623W        W33883   8.728  16.724  10.622
61624W        W33884  19.661  28.741   2.315
61625W        W33885   8.687   9.388   1.167
61626W        W33886  11.059  23.722   2.331
61627W        W33887  11.721   8.963  13.953
61628W        W33888   2.340   8.359  13.867
61629W        W33889  41.956  29.120  12.458
61630W        W33890  30.469  40.608  11.444
61631W        W33891   4.464  35.748   4.922
61632W        W33892  18.547  37.864  10.701
61633W        W33893   0.819   4.282  12.108
61634W        W33894  20.563  10.027  14.726
61635W        W33895   4.334  11.258  11.449
61636W        W33896  24.006  28.187   2.239
61637W        W33897   1.634  17.503   0.527
61638W        W33898   0.405  12.436  11.566
61639W        W33899  15.853  30.212   2.228
61640W        W33900  14.349  23.126   1.918
61641W        W33901  39.765  10.640   2.392
61642W        W33902  40.000  12.377   0.838
61643W        W33903  11.233   6.168  10.344
61644W        W33904  41.809  36.113  14.137
61645W        W33905  12.374  17.777   2.073
61646W        W33906  22.463   4.853   1.667
61647W        W33907   4.453  10.316   2.876
61648W        W33908  21.456   2.222  12.020
61649W        W33909  39.317   5.242   3.588
61650W        W33910   9.283  32.669  10.969
61651W        W33911  42.221  24.971  13.426
61652W        W33912  15.210  41.403  12.798
61653W        W33913   7.934   0.489   0.370
61654W        W33914   7.006  44.500   1.833
61655W        W33915  36.499  37.920  10.633
61656W        W33916   6.920  20.647   4.842
61657W        W33917   6.209  26.519   3.828
61658W        W33918   6.586  37.122   2.767
61659W        W33919  19.829  24.107  11.183
61660W        W33920  27.274   2.973   2.865
61661W        W33921  42.264  18.938  12.271
61662W        W33922  12.320  23.891   2.586
61663W        W33923  37.544  24.996   3.716
61664W        W33924  18.764  34.510  12.411
61665W        W33925  12.767  10.956   4.246
61666W        W33926  24.942  41.453  12.063
61667W        W33927   7.652  23.390  11.223
61668W        W33928  10.897  14.936  11.182
61669W        W33929   6.309   8.135   3.434
61670W        W33930  14.118   7.085  11.845
61671W        W33931  27.889  14.748   3.756
61672W        W33932  27.683  38.520  13.376
61673W        W33933  15.000  43.786  11.284
61674W        W33934  43.278  21.508   3.152
61675W        W33935  35.881  35.560  13.349
61676W        W33936  16.081  33.513  10.528
61677W        W33937  39.341  41.540   1.795
61678W        W33938  27.071  37.546   2.271
61679W        W33939  44.175  15.215   3.754
61680W        W33940  29.647  10.283   2.835
61681W        W33941  41.054  39.533  12.964
61682W        W33942  16.357   9.434  13.376
61683W        W33943  29.064  39.478  14.167
61684W        W33944  34.424  37.318   3.773
61685W        W33945  40.893  30.248  11.110
61686W        W33946  25.620  26.136  13.258
61687W        W33947  42.013  36.799   4.628
61688W        W33948  42.374  42.808   2.399
61689W        W33949  12.533   9.152   3.819
61690W        W33950  14.024  17.059   0.308
61691W        W33951  24.083  35.418  10.723
61692W        W33952  43.555   5.351   4.164
61693W        W33953  41.842  33.224   0.293
61694W        W33954  27.918   2.417  14.381
61695W        W33955   0.240  33.658  13.026
61696W        W33956   2.438  17.310  11.644
61697W        W33957  37.388  16.756   0.276
61698W        W33958   7.796  27.675   1.677
61699W        W33959  10.775   2.681  10.727
61700W        W33960   5.338   2.935  11.101
61701W        W33961   1.520  31.479   0.687
61702W        W33962  32.955  23.883   3.190
61703W        W33963  29.674  44.902   4.706
61704W        W33964  21.177  36.412  12.610
61705W        W33965  42.313   8.743   2.411
61706W        W33966  35.095  13.787  14.702
61707W        W33967  25.043  17.105   3.733
61708W        W33968   8.147  39.637   3.802
61709W        W33969  36.535   7.153  11.300
61710W        W33970  14.150   2.538   1.247
61711W        W33971  32.097  11.201  14.841
61712W        W33972   3.396  40.627   2.776
61713W        W33973  13.518  44.059   3.227
61714W        W33974  42.421  19.603  11.097
61715W        W33975   4.290  44.505   3.655
61716W        W33976  28.161  28.699   2.094
61717W        W33977  13.709  15.768  12.147
61718W        W33978  19.087  22.812   0.253
61719W        W33979  29.899  23.321   2.345
61720W        W33980   8.141  10.155  14.710
61721W        W33981  15.316   0.983  14.779
61722W        W33982  21.172   7.903   4.659
61723W        W33983  42.251  41.003   1.776
61724W        W33984  22.404   5.294   4.511
61725W        W33985  27.530  11.934  13.051
61726W        W33986  43.433   7.651  12.084
61727W        W33987  37.454  36.804  11.589
61728W        W33988  44.867  16.285  13.491
61729W        W33989  21.670  38.019  12.815
61730W        W33990  28.440  25.029  13.377
61731W        W33991  34.029  15.005  12.863
61732W        W33992   1.227  11.411  13.467
61733W        W33993  42.766  40.918  14.215
61734W        W33994   0.437   6.766  10.899
61735W        W33995  14.881  18.495   3.619
61736W        W33996  35.955  32.560   0.177
61737W        W33997  13.572  24.705  10.572
61738W        W33998   7.051   0.945   4.178
61739W        W33999  30.956  25.425  12.896
61740W        W34000  23.931  14.152  12.071
61741W        W34001  24.688  32.635  12.435
61742W        W34002  33.177  16.247  13.835
61743W        W34003   8.882  38.488   1.426
61744W        W34004  43.530  15.218  14.401
61745W        W34005  16.220  15.699   2.801
61746W        W34006  15.040  19.575  14.419
61747W        W34007  20.452  37.935   4.636
61748W        W34008  13.025  42.571   0.811
61749W        W34009  30.083  17.659   1.496
61750W        W34010  37.850  36.713  12.235
61751W        W34011  26.535  43.309   2.791
61752W        W34012   1.515  26.458   4.235
61753W        W34013   5.848  14.934   2.739
61754W        W34014  32.437   3.206  11.370
61755W        W34015  38.556  16.215   3.403
61756W        W34016   2.010   4.925   0.522
61757W        W34017  39.694  27.438   1.728
61758W        W34018  38.632   0.528  12.540
61759W        W34019  42.596  13.598   0.449
61760W        W34020  30.587  19.247   4.198
61761W        W34021  26.741  30.479   0.881
61762W        W34022  27.645   8.243   3.742
61763W        W34023   2.505  29.072   0.407
61764W        W34024  27.602   0.008   1.437
61765W        W34025   4.725   1.472  11.016
61766W        W34026  32.367  27.959   3.628
61767W        W34027  26.183  40.771   0.407
61768W        W34028  10.000  12.142  12.485
61769W        W34029  30.519  31.023   0.795
61770W        W34030   3.509   9.752   0.305
61771W        W34031   1.999  28.610  12.882
61772W        W34032  10.602  31.149  12.791
61773W        W34033  32.314  22.307   2.814
61774W        W34034   7.801  42.611  13.807
61775W        W34035   4.657  12.698   0.732
61776W        W34036   7.763  24.195  13.722
61777W        W34037  25.783  44.131  11.101
61778W        W34038   4.614   0.405   2.157
61779W        W34039  14.418  24.668  14.951
61780W        W34040  21.567  26.149  12.326
61781W        W34041  35.743   1.775  10.647
61782W        W34042  17.015  36.328   2.432
61783W        W34043  29.574  17.939  10.342
61784W        W34044  38.345   1.958  11.182
61785W        W34045  41.511  37.401   4.217
61786W        W34046   1.497  36.942   4.566
61787W        W34047  23.349  23.599  14.783
61788W        W34048  12.373  37.875  14.400
61789W        W34049  20.929   5.473   3.594
61790W        W34050   2.437   4.171  13.353
61791W        W34051  38.557  25.024   3.055
61792W        W34052  30.528  33.154  14.094
61793W        W34053  35.113   8.774  14.517
61794W        W34054  12.865  28.864   0.167
61795W        W34055  28.640   0.811  12.851
61796W        W34056  30.155   6.886   1.809
61797W        W34057  12.522  32.131  14.675
61798W        W34058  17.003  13.879  13.488
61799W        W34059  44.876  44.201  10.541
61800W        W34060  17.602  39.074   2.138
61801W        W34061  25.898   4.872   3.470
61802W        W34062   1.778   4.544   2.738
61803W        W34063  27.554  44.772   1.932
61804W        W34064  28.470  29.337   4.521
61805W        W34065  11.647  42.281  14.903
61806W        W34066  39.448   5.415  13.527
61807W        W34067  13.805  11.239  12.046
61808W        W34068  25.536  18.375  12.983
61809W        W34069   0.452   7.018  13.539
61810W        W34070  43.528  28.493   2.681
61811W        W34071  18.389  13.746  14.959
61812W        W34072   9.162  26.122  11.136
61813W        W34073  41.542  29.628  13.301
61814W        W34074  23.644  35.073  12.965
61815W        W34075  30.347  37.348   5.016
61816W        W34076  21.419  34.445   2.224
61817W        W34077  37.875  23.991   1.802
61818W        W34078  39.736   4.585   4.194
61819W        W34079   9.115  28.077   3.868
61820W        W34080  27.556  18.879  13.967
61821W        W34081  44.488  15.697   3.278
61822W        W34082   5.474  14.853  14.292
61823W        W34083  44.574  31.977   4.162
61824W        W34084  10.409  13.178  12.374
61825W        W34085  23.640  30.089  14.207
61826W        W34086  23.144  13.645  14.793
61827W        W34087  29.186  33.672   3.076
61828W        W34088  17.417  10.607   4.667
61829W        W34089  18.274   7.179   3.103
61830W        W34090  26.710  44.391  11.117
61831W        W34091  37.937  33.448   3.713
61832W        W34092   0.783  41.848  13.024
61833W        W34093  12.123   4.015   0.094
61834W        W34094  37.283  32.621  10.612
61835W        W34095   8.382   8.230   0.843
61836W        W34096  23.150  36.332  13.863
61837W        W34097  38.236   3.941   0.687
61838W        W34098  40.942  14.855  11.349
61839W        W34099  39.800  19.728  14.513
61840W        W34100   4.490  24.146  12.538
61841W        W34101  44.966   1.273  11.268
61842W        W34102   0.598  31.950  14.966
61843W        W34103  34.464  40.397   1.325
61844W        W34104  40.578  30.334   1.703
61845W        W34105  16.546   4.945  13.648
61846W        W34106  41.969   7.659   2.463
61847W        W34107  17.454  12.953  11.029
61848W        W34108  14.869   9.865  12.955
61849W        W34109   4.220  43.569  13.296
61850W        W34110   0.769   7.943  13.412
61851W        W34111  31.325  16.833  12.113
61852W        W34112   6.480  43.289   4.702
61853W        W34113  42.524   6.446   1.346
61854W        W34114   8.885  42.304  11.930
61855W        W34115  19.044  13.816  10.692
61856W        W34116   5.739  39.127  11.242
61857W        W34117  12.357   0.725  13.352
61858W        W34118  33.665   0.350   4.735
61859W        W34119   2.792  28.506   2.652
61860W        W34120  25.234  38.630   4.471
61861W        W34121   7.767  31.477  13.940
61862W        W34122  31.031  10.360  10.723
61863W        W34123  29.983  13.306   4.581
61864W        W34124  36.455  35.150  12.551
61865W        W34125  28.891   2.174   0.990
61866W        W34126   9.455   6.586   4.513
61867W        W34127  41.474  43.978  12.087
61868W        W34128  13.656  23.751  12.631
61869W        W34129  26.269  38.354  12.952
61870W        W34130  27.624  40.962   3.460
61871W        W34131  41.910  15.581   3.235
61872W        W34132  24.800  37.065   2.800
61873W        W34133  23.803  37.994  12.140
61874W        W34134  11.000  13.622  12.836
61875W        W34135   3.345   4.091  12.375
61876W        W34136  23.936  15.758   2.300
61877W        W34137  27.576  43.952   0.976
61878W        W34138   5.243   9.198   2.413
61879W        W34139  19.826  43.309   4.925
61880W        W34140  26.542  35.070  12.861
61881W        W34141  17.521  17.661   0.557
61882W        W34142  10.329   2.000   1.417
61883W        W34143  14.852  21.384  11.543
61884W        W34144   9.658  20.262   1.848
61885W        W34145  16.142   8.623  13.835
61886W        W34146  23.103  32.094   2.388
61887W        W34147  41.427  12.147   2.340
61888W        W34148  16.513  25.027   0.711
61889W        W34149  23.725   8.188  11.933
61890W        W34150  38.538  44.708   1.962
61891W        W34151   9.384  22.453   1.414
61892W        W34152  31.540   8.230  11.678
61893W        W34153  29.501  32.582   3.647
61894W        W34154  37.455  38.423  11.214
61895W        W34155  28.106   9.906   0.226
61896W        W34156  31.486  37.535   2.933
61897W        W34157  15.555  19.604   3.612
61898W        W34158  36.975  10.404  11.489
61899W        W34159  13.818  36.563  10.644
61900W        W34160  14.360  21.995  14.594
61901W        W34161   9.431  44.841  14.450
61902W        W34162   6.695  19.209  13.969
61903W        W34163  13.924  12.301   3.063
61904W        W34164  36.506  11.272  12.771
61905W        W34165  34.837  34.002   3.617
61906W        W34166  10.869  12.432   0.303
61907W        W34167  32.357  37.841  12.489
61908W        W34168  42.419  14.537  10.965
61909W        W34169  31.052  33.292   3.050
61910W        W34170   9.789  37.319   3.691
61911W        W34171  31.147  42.231  11.475
61912W        W34172   9.231  14.280  12.609
61913W        W34173  16.454  26.121  14.851
61914W        W34174  43.727  17.246   1.142
61915W        W34175  29.117  37.547   3.939
61916W        W34176  29.513  39.552   2.429
61917W        W34177  39.428   2.203   1.938
61918W        W34178   7.829  18.324  13.121
61919W        W34179  22.661  28.112  13.805
61920W        W34180  22.825  23.638   0.674
61921W        W34181  21.847  30.701  13.134
61922W        W34182  37.432  34.684   2.380
61923W        W34183   8.291  31.401  12.097
61924W        W34184  19.097  33.855   4.064
61925W        W34185   2.336  16.561   4.546
61926W        W34186  12.211  20.567   2.284
61927W        W34187  44.257  26.743   4.043
61928W        W34188  44.153  43.962  11.095
61929W        W34189   2.988  29.293  12.377
61930W        W34190  44.281  24.018   3.616
61931W        W34191   4.801  33.043   2.095
61932W        W34192  29.112  20.614   0.748
61933W        W34193   2.760   9.160  13.914
61934W        W34194   7.465  41.420   3.666
61935W        W34195  11.306   9.114  14.723
61936W        W34196  38.620  39.991  14.904
61937W        W34197  14.952  29.275   3.149
61938W        W34198  24.307  16.059   0.933
61939W        W34199  29.079  13.622   0.883
61940W        W34200   9.660  13.427   4.119
61941W        W34201  13.743  11.900  14.902
61942W        W34202  34.387   7.444  12.671
61943W        W34203  22.301  39.153   1.054
61944W        W34204   6.805  18.794  13.032
61945W        W34205  24.162  42.488  11.523
61946W        W34206  34.448  21.218  12.548
61947W        W34207  21.162  36.980   1.773
61948W        W34208  23.469  43.741   1.316
61949W        W34209  31.684  38.947  14.140
61950W        W34210  43.774  19.485   3.202
61951W        W34211  35.388   4.392   0.476
61952W        W34212   6.386  25.906  14.728
61953W        W34213   3.507  44.213   4.088
61954W        W34214   4.224  40.482   3.509
61955W        W34215  43.713   0.284   2.315
61956W        W34216  24.995   3.226   4.358
61957W        W34217  18.956  36.344   1.753
61958W        W34218  36.030  23.446   0.308
61959W        W34219  24.527  10.088  13.179
61960W        W34220   4.910  33.358   0.695
61961W        W34221  12.250   8.170  13.410
61962W        W34222  30.562  43.467  13.873
61963W        W34223  16.350  14.184  11.013
61964W        W34224  35.621  40.770  13.127
61965W        W34225  25.027  13.671   3.299
61966W        W34226   8.856  27.292   0.677
61967W        W34227   5.947  27.454  12.518
61968W        W34228  15.986  24.430   0.843
61969W        W34229  35.481   6.229   0.222
61970W        W34230  13.125  20.287  13.803
61971W        W34231  43.488  39.040  13.003
61972W        W34232  10.719  31.397   0.078
61973W        W34233   2.039  10.795  11.589
61974W        W34234  42.731   1.027   3.744
61975W        W34235  34.760  32.114   4.482
61976W        W34236  24.234  36.948   1.386
61977W        W34237  25.005  40.342   0.344
61978W        W34238  14.266  12.651  14.682
61979W        W34239  18.649  12.771  10.282
61980W        W34240  34.079   3.413   3.824
61981W        W34241  30.527  18.281   3.340
61982W        W34242  15.953   0.206   1.327
61983W        W34243  35.816  30.114   0.314
61984W        W34244  41.893   1.386   1.652
61985W        W34245   8.393  21.952   4.155
61986W        W34246  30.146  37.977  13.975
61987W        W34247  19.556   8.746  12.754
61988W        W34248   2.827  25.391   3.332
61989W        W34249  33.753   0.805  12.647
61990W        W34250  23.231   1.850  12.921
61991W        W34251  16.822  27.924   0.251
61992W        W34252  18.777  42.866   2.859
61993W        W34253   9.223  14.845  13.255
61994W        W34254  31.463  27.024  13.582
61995W        W34255  40.476   7.790  13.038
61996W        W34256  25.990  31.853   4.149
61997W        W34257   4.234  17.717  11.103
61998W        W34258  35.453  41.075  12.183
61999W        W34259  34.558  41.402   3.024
62000W        W34260   5.525  19.259   3.284
62001W        W34261  19.281   7.574  14.190
62002W        W34262  38.935  29.124  14.179
62003W        W34263  25.227   8.030   2.428
62004W        W34264  42.248  29.323  12.083
62005W        W34265   3.794  36.927   2.811
62006W        W34266   7.938  30.295  12.394
62007W        W34267   1.374  20.745  13.392
62008W        W34268  22.534  16.355  12.352
62009W        W34269  33.918  18.546   4.653
62010W        W34270  34.970  44.289   1.637
62011W        W34271  35.088  17.466   0.013
62012W        W34272  24.550  36.113  12.942
62013W        W34273  41.937   2.910  14.103
62014W        W34274  14.603  12.992   3.429
62015W        W34275   2.309   5.359   0.483
62016W        W34276  37.821  11.157  14.359
62017W        W34277  31.852  34.298   2.859
62018W        W34278  13.891  15.737   0.933
62019W        W34279  12.630  43.016   2.267
62020W        W34280  11.149  19.213  12.636
62021W        W34281  25.060  11.808   2.129
62022W        W34282  43.884  30.442   3.224
62023W        W34283  18.277  21.982  13.528
62024W        W34284  44.949  27.775  14.205
62025W        W34285  23.930  21.628   2.920
62026W        W34286  25.129  39.450   1.732
62027W        W34287  21.690   3.956   1.170
62028W        W34288  15.008  16.773  11.928
62029W        W34289  34.078  38.270  10.650
62030W        W34290   9.273   0.346  10.754
62031W        W34291  14.294   2.770   3.718
62032W        W34292  33.593  20.294  12.813
62033W        W34293  22.812  40.914  11.644
62034W        W34294  11.843  19.802   4.724
62035W        W34295   2.656  21.137  13.380
62036W        W34296  14.151  18.744  10.993
62037W        W34297  42.271  16.492  11.022
62038W        W34298  12.228  14.623   0.317
62039W        W34299  32.651  40.997  12.965
62040W        W34300  12.747   8.990  12.342
62041W        W34301  36.070  43.017   4.116
62042W        W34302   9.338  39.153   1.071
62043W        W34303  22.748   9.681  10.638
62044W        W34304  41.820   6.736   1.941
62045W        W34305  38.121  29.062   0.840
62046W        W34306  21.113  29.473  14.059
62047W        W34307   0.033  39.880  11.954
62048W        W34308  36.089   7.770  14.610
62049W        W34309  31.948  21.408   2.862
62050W        W34310  25.577   2.553  12.461
62051W        W34311  22.092   0.512  12.302
62052W        W34312  24.152  15.034   1.837
62053W        W34313  34.955   9.666   1.345
62054W        W34314  36.365  38.678  11.814
62055W        W34315  44.406  41.001  11.571
62056W        W34316   4.949  29.519   0.815
62057W        W34317  12.806  37.957   2.893
62058W        W34318  13.234  30.106   9.843
62059W        W34319  25.058  15.868  11.595
62060W        W34320   1.795  28.132   3.990
62061W        W34321  12.119  23.648  14.339
62062W        W34322   6.312  28.373  13.811
62063W        W34323   9.240  36.603  13.387
62064W        W34324  42.547  18.671   3.887
62065W        W34325   0.902  26.167  14.477
62066W        W34326   3.796  29.064   1.221
62067W        W34327  24.713  22.560   1.178
62068W        W34328   7.115  32.157  14.806
62069W        W34329  19.785  39.813   3.654
62070W        W34330   5.995  21.639  12.920
62071W        W34331  36.029  23.571  13.021
62072W        W34332  29.186  13.691   4.123
62073W        W34333  31.980   8.175   1.334
62074W        W34334  41.949   3.414  10.597
62075W        W34335  27.033  42.314  14.988
62076W        W34336   1.333   5.279   4.711
62077W        W34337  19.006  28.939  11.214
62078W        W34338  15.691  23.954  13.020
62079W        W34339  31.166   4.369  13.873
62080W        W34340  18.060   7.494   1.755
62081W        W34341   8.204   2.654  14.772
62082W        W34342  22.623  36.503   4.921
62083W        W34343  20.064  44.719  11.582
62084W        W34344  23.888  16.485  11.954
62085W        W34345  20.596  38.954   4.678
62086W        W34346  11.977  19.764  12.527
62087W        W34347  31.287   4.197   3.747
62088W        W34348  21.722   3.669   1.687
62089W        W34349  43.542   4.295  12.540
62090W        W34350  32.312  42.021  13.848
62091W        W34351   0.684  41.121   0.013
62092W        W34352  28.220  38.525  12.113
62093W        W34353  21.500   8.945  12.056
62094W        W34354  14.769  21.458  12.604
62095W        W34355  11.588  35.154  14.900
62096W        W34356   5.348   6.733   1.743
62097W        W34357   9.584  32.499   1.385
62098W        W34358   5.795   4.172   4.604
62099W        W34359  42.747  32.347   2.278
62100W        W34360  37.522   7.254   2.193
62101W        W34361  29.795  32.593  10.766
62102W        W34362  13.640   2.748   0.335
62103W        W34363   2.843   2.876  14.281
62104W        W34364   8.867  32.026   2.934
62105W        W34365  30.046  39.047   2.847
62106W        W34366   6.656  41.888  11.180
62107W        W34367  38.003   0.356   3.145
62108W        W34368  31.916  39.027   1.809
62109W        W34369   5.235  22.095  14.552
62110W        W34370  23.450  21.774  13.234
62111W        W34371  39.367  36.537   1.918
62112W        W34372  38.374   2.747   4.448
62113W        W34373  18.019   1.279   0.513
62114W        W34374  33.615  29.294   4.997
62115W        W34375  31.863   7.810  11.708
62116W        W34376  37.301  18.373  11.186
62117W        W34377  34.188   0.122  10.460
62118W        W34378  38.687  33.457   4.911
62119W        W34379  16.487  27.226   1.803
62120W        W34380  26.399   3.332   2.637
62121W        W34381  15.571  11.134  13.456
62122W        W34382  31.667   8.214  11.192
62123W        W34383  23.582  38.755   2.748
62124W        W34384  17.201  40.694   3.214
62125W        W34385  32.726   3.840  10.704
62126W        W34386  37.117  24.220  11.550
62127W        W34387  30.410  23.170  11.849
62128W        W34388   6.614  31.000   2.700
62129W        W34389   0.651  41.402   0.467
62130W        W34390  12.249   7.851  14.299
62131W        W34391  22.122  39.962   0.637
62132W        W34392   3.783  11.142   3.097
62133W        W34393  33.152  44.277   1.802
62134W        W34394  12.864  29.182  14.739
62135W        W34395  38.458  13.748  13.090
62136W        W34396  32.710  25.564  13.430
62137W        W34397  40.383  22.454   5.020
62138W        W34398   0.519   9.376  13.569
62139W        W34399  40.565   0.061   2.367
62140W        W34400  30.622  40.311   3.038
62141W        W34401  26.628  41.334   3.311
62142W        W34402  42.547  24.104   2.788
62143W        W34403  30.933  28.275  13.862
62144W        W34404  21.110  21.281  14.845
62145W        W34405  13.814  26.155   2.336
62146W        W34406   2.842  38.872  11.423
62147W        W34407  19.778   5.899   1.422
62148W        W34408  18.739  40.187  11.405
62149W        W34409  34.582  35.002  10.960
62150W        W34410  32.548  24.317   1.490
62151W        W34411  24.681  41.319   5.019
62152W        W34412  11.156  34.440   1.402
62153W        W34413  11.277  13.323  10.913
62154W        W34414   2.989  17.615  10.619
62155W        W34415   9.103   0.363  13.840
62156W        W34416  16.267  18.775   2.860
62157W        W34417  24.186  25.707   0.420
62158W        W34418  11.882  18.072  12.154
62159W        W34419  18.603  33.989  10.655
62160W        W34420  16.268  30.070  14.004
62161W        W34421  11.192  19.668   0.283
62162W        W34422   4.940  44.248   0.868
62163W        W34423  26.206  12.231  13.854
62164W        W34424  22.596  26.436  14.866
62165W        W34425  41.269  22.124  10.690
62166W        W34426   6.977  10.204  13.052
62167W        W34427  34.111  41.669  14.559
62168W        W34428  20.648  22.780   0.714
62169W        W34429  24.237  37.030  14.572
62170W        W34430  24.629  38.752   4.951
62171W        W34431  39.522  17.455   2.204
62172W        W34432  21.850  30.892   0.138
62173W        W34433  18.836  35.389   4.158
62174W        W34434  31.437   7.420   1.974
62175W        W34435  30.391  13.076   0.869
62176W        W34436  11.702  13.095  12.636
62177W        W34437  25.672  23.469  13.162
62178W        W34438  42.072   6.673  13.048
62179W        W34439  12.867  27.026  10.538
62180W        W34440  34.819  44.540  12.016
62181W        W34441   7.334   3.965   4.574
62182W        W34442  39.569  39.488  12.674
62183W        W34443  18.475  43.764  11.633
62184W        W34444   5.893  25.728  14.953
62185W        W34445  34.421  35.668   2.294
62186W        W34446  41.386   0.209   3.385
62187W        W34447   4.821  23.443   0.699
62188W        W34448  34.361  44.029  14.484
62189W        W34449  19.820  24.797  14.084
62190W        W34450  14.683  17.587   1.354
62191W        W34451  41.610   6.968  13.989
62192W        W34452   1.999  40.972   1.930
62193W        W34453  16.114   3.957  10.910
62194W        W34454  23.278  35.602  12.035
62195W        W34455  44.050  24.532  13.314
62196W        W34456  25.229  44.799   3.705
62197W        W34457   8.685  31.188   1.720
62198W        W34458  21.843   0.508   4.160
62199W        W34459  22.969  18.482  11.067
62200W        W34460   4.388  18.784  13.889
62201W        W34461  29.649  29.643  13.371
62202W        W34462  22.977  36.349   2.949
62203W        W34463  35.092  38.562   2.165
62204W        W34464  34.825  15.081   3.246
62205W        W34465  23.188  31.133   1.795
62206W        W34466  43.697   2.520   4.126
62207W        W34467  43.899   2.732  13.759
62208W        W34468  11.377  25.432  11.115
62209W        W34469  30.090  20.137  11.781
62210W        W34470   9.167   0.279  11.754
62211W        W34471   2.308  21.238   1.161
62212W        W34472   0.438  42.996   1.849
62213W        W34473   2.959  43.993  11.545
62214W        W34474  44.313  40.822   2.792
62215W        W34475  28.368   4.266  11.306
62216W        W34476  40.447  11.113   2.793
62217W        W34477  14.799   8.406  13.549
62218W        W34478  31.427  30.881   9.792
62219W        W34479   7.029  20.528  12.132
62220W        W34480  29.655   8.827  13.399
62221W        W34481  38.841  22.623  10.671
62222W        W34482  10.853  28.527   3.566
62223W        W34483  16.399  17.556   9.793
62224W        W34484  12.984   7.432   5.032
62225W        W34485  22.709  26.443   2.079
62226W        W34486  34.747  40.735  14.276
62227W        W34487   6.622  32.242   2.720
62228W        W34488  37.746   8.697   2.071
62229W        W34489  37.910  37.737   3.320
62230W        W34490   2.182  22.455  10.640
62231W        W34491   3.224  34.054  13.869
62232W        W34492   4.531   8.616   2.647
62233W        W34493  29.437  36.866  11.973
62234W        W34494  26.432   0.768  10.473
62235W        W34495  37.754  11.466   4.115
62236W        W34496  14.789  25.521   0.307
62237W        W34497  30.988  22.156   3.144
62238W        W34498  32.958  24.223   4.544
62239W        W34499  28.617  19.862   0.845
62240W        W34500  19.036  24.022   4.619
62241W        W34501  38.691  34.601  11.603
62242W        W34502  22.233  18.755   4.187
62243W        W34503  11.889  28.329   9.918
62244W        W34504  24.018  37.511  12.039
62245W        W34505  12.354  13.055  12.896
62246W        W34506  29.944   5.121  14.435
62247W        W34507  27.500   0.048   2.388
62248W        W34508  43.922  23.871   0.321
62249W        W34509   7.972   0.943   4.983
62250W        W34510  20.196  13.754  14.525
62251W        W34511  22.772  36.091  13.585
62252W        W34512   5.659  34.385  12.599
62253W        W34513  40.388  13.634   0.236
62254W        W34514  30.102  28.821  13.304
62255W        W34515  29.379  25.644   0.931
62256W        W34516  22.031  41.338  13.018
62257W        W34517  12.563  23.422  13.490
62258W        W34518  44.394  21.255   0.768
62259W        W34519  22.622  25.675   3.163
62260W        W34520   5.848   3.720  11.141
62261W        W34521   1.650  26.996  13.115
62262W        W34522  14.944   0.564   0.382
62263W        W34523  24.842   8.732   0.693
62264W        W34524  42.984   4.590   3.836
62265W        W34525   2.660  25.953  12.548
62266W        W34526  37.006  34.651  14.342
62267W        W34527  38.381  19.991  13.096
62268W        W34528  25.748  33.891  13.113
62269W        W34529   2.389  32.831   0.901
62270W        W34530  35.408  15.175   0.423
62271W        W34531  14.052  22.574   0.737
62272W        W34532   4.289  41.156  10.613
62273W        W34533  29.169  38.817   0.354
62274W        W34534  29.486  35.414   3.129
62275W        W34535  27.191  18.920   1.321
62276W        W34536  22.295  42.843  10.694
62277W        W34537   7.435   8.364   4.091
62278W        W34538   6.156  32.572  13.652
62279W        W34539  14.878  20.826   0.845
62280W        W34540  38.130  26.799  11.065
62281W        W34541  24.524  35.471  13.299
62282W        W34542  35.342  23.010  11.982
62283W        W34543  29.927  11.388  13.090
62284W        W34544  16.823  27.644   1.954
62285W        W34545  21.119  40.425   4.070
62286W        W34546  34.932  24.710   4.745
62287W        W34547  41.094  16.314   4.868
62288W        W34548  18.958  44.219   4.638
62289W        W34549   8.398  23.949   1.753
62290W        W34550  10.886  42.393  13.536
62291W        W34551  44.871  11.085  13.384
62292W        W34552  25.205  10.295  11.995
62293W        W34553  35.249   8.775  10.752
62294W        W34554  40.590  44.777  14.993
62295W        W34555  12.810  13.843  14.048
62296W        W34556  11.292  41.555   4.163
62297W        W34557   5.149  24.876  13.387
62298W        W34558  28.959  38.179   1.324
62299W        W34559  26.412  28.580  13.481
62300W        W34560  19.068  21.946  14.850
62301W        W34561   3.170   9.049   0.945
62302W        W34562  31.872  15.371   1.151
62303W        W34563  37.877  13.545   3.624
62304W        W34564  33.473  13.593  13.982
62305W        W34565  38.081   8.325   1.944
62306W        W34566  41.279  11.066   4.169
62307W        W34567  17.772  20.717  12.506
62308W        W34568   8.910  42.794  11.036
62309W        W34569  10.895  26.561  13.143
62310W        W34570  13.648  40.416   2.631
62311W        W34571  27.502  28.417  12.793
62312W        W34572   7.952   3.369   2.007
62313W        W34573   3.572   4.910  12.183
62314W        W34574  41.432  21.014  12.424
62315W        W34575  33.641  40.396  14.255
62316W        W34576  36.110   1.291  12.106
62317W        W34577  20.204  19.889   9.821
62318W        W34578  30.837  31.494  14.959
62319W        W34579   6.871   0.490   4.451
62320W        W34580   2.363  27.593  10.474
62321W        W34581  31.697  30.677   1.505
62322W        W34582  26.781  34.985  13.868
62323W        W34583  13.662  33.406  11.363
62324W        W34584  33.930  17.542  13.990
62325W        W34585  29.073  27.563   2.869
62326W        W34586  28.049  38.576   3.958
62327W        W34587  43.524   9.629  12.127
62328W        W34588  29.970  25.448   3.752
62329W        W34589  31.150  41.542   5.232
62330W        W34590   5.008  37.064   0.292
62331W        W34591  32.536   3.661  11.625
62332W        W34592  36.052  44.524  10.466
62333W        W34593  30.004  20.119  13.506
62334W        W34594  35.022  13.764  13.095
62335W        W34595  15.109  24.039   3.663
62336W        W34596   0.715  23.918   3.740
62337W        W34597  20.034  11.360   3.250
62338W        W34598  41.060  41.649   1.640
62339W        W34599  24.141  41.738  11.921
62340W        W34600   3.957  18.762  11.687
62341W        W34601  40.947   6.331  12.020
62342W        W34602  18.152   3.635   2.809
62343W        W34603   1.923   2.940   3.261
62344W        W34604  17.324  29.436   4.559
62345W        W34605  17.589  28.576  13.435
62346W        W34606  39.553   5.805   2.372
62347W        W34607  18.228  41.515   0.741
62348W        W34608   6.822   4.242   2.254
62349W        W34609   8.984  30.888   3.741
62350W        W34610  32.117  31.094  14.184
62351W        W34611   5.703  42.992   1.991
62352W        W34612  24.108  31.737  11.406
62353W        W34613  23.819  38.453   4.077
62354W        W34614   3.748  39.211  13.782
62355W        W34615  39.427  41.474  14.798
62356W        W34616   4.518  32.455   0.271
62357W        W34617  11.391  34.979   4.936
62358W        W34618  24.498   8.367  14.747
62359W        W34619  29.020  26.071  10.878
62360W        W34620  28.966   6.253  11.651
62361W        W34621  36.537  24.231   2.791
62362W        W34622  17.609  10.191  12.370
62363W        W34623  43.261  23.124  14.232
62364W        W34624  31.998   8.292   3.733
62365W        W34625  17.540  22.020  12.496
62366W        W34626  12.822   2.646   1.803
62367W        W34627  12.069   9.663   1.967
62368W        W34628   0.577  26.072   1.895
62369W        W34629  41.976  14.554  11.230
62370W        W34630  23.312  39.068   0.652
62371W        W34631  13.161  13.188  11.905
62372W        W34632  23.539  43.306  11.034
62373W        W34633  17.828   8.122  10.185
62374W        W34634  39.789  25.120   0.337
62375W        W34635  15.716  17.050   0.795
62376W        W34636   8.906  39.341  12.147
62377W        W34637   0.292  19.552  10.825
62378W        W34638  20.485  19.099   4.634
62379W        W34639  38.781  33.368  12.314
62380W        W34640  26.553   1.900   4.421
62381W        W34641   1.710   3.355   4.126
62382W        W34642   2.838  34.953   3.220
62383W        W34643  21.244   3.274   4.986
62384W        W34644  11.933  22.657   4.098
62385W        W34645   9.436   0.479   2.740
62386W        W34646  29.996   7.235   3.347
62387W        W34647   6.775  14.220  14.172
62388W        W34648  38.316  21.086  13.602
62389W        W34649  29.618   3.358   3.194
62390W        W34650  24.499  43.899  12.307
62391W        W34651  30.103  11.828   3.268
62392W        W34652  20.971  29.979   3.660
62393W        W34653  26.658   0.697   0.924
62394W        W34654   1.509  23.075   3.216
62395W        W34655  28.610   7.222  13.729
62396W        W34656  13.669   8.257   1.352
62397W        W34657   2.690  17.495   2.246
62398W        W34658  17.143  14.707  13.937
62399W        W34659  22.196   1.700   3.222
62400W        W34660  37.521   0.664  13.806
62401W        W34661  30.089  29.001  13.804
62402W        W34662  37.431   2.980   3.806
62403W        W34663  17.325  40.495   2.370
62404W        W34664  20.117  41.005   2.282
62405W        W34665  10.009  16.564  11.801
62406W        W34666  37.648  34.507  10.669
62407W        W34667   2.009  41.220   0.912
62408W        W34668  36.522  32.821   3.658
62409W        W34669   0.367  39.487  11.718
62410W        W34670  33.877  27.433   3.145
62411W        W34671  12.784  14.053   3.325
62412W        W34672  34.122   8.158  11.614
62413W        W34673  30.737  17.131  13.921
62414W        W34674  42.823  33.633  12.117
62415W        W34675  36.094  26.428  14.476
62416W        W34676  17.675  20.992  10.642
62417W        W34677   4.173  14.174  13.489
62418W        W34678  19.744  31.900  12.851
62419W        W34679   1.820  15.384   5.074
62420W        W34680  32.254  12.844  13.977
62421W        W34681  16.807  13.659   4.625
62422W        W34682  21.544  23.202   1.845
62423W        W34683  18.801  36.927   3.148
62424W        W34684  21.486  24.077   3.731
62425W        W34685  15.199  21.517   4.117
62426W        W34686  22.211  24.487   1.521
62427W        W34687  12.693   6.732   1.781
62428W        W34688  18.099  36.769  14.293
62429W        W34689  42.409   2.795  13.920
62430W        W34690  33.687  41.760   2.213
62431W        W34691  27.943  17.167  11.567
62432W        W34692  44.910  15.774  13.697
62433W        W34693  18.138  26.225  13.708
62434W        W34694  39.319   9.875   9.756
62435W        W34695  38.001  30.419  10.601
62436W        W34696  30.543   7.218   4.093
62437W        W34697  19.597  25.040   3.805
62438W        W34698   3.704   9.443  14.010
62439W        W34699  36.070  36.335   4.961
62440W        W34700  31.528  15.500  11.474
62441W        W34701   0.260  43.902   4.699
62442W        W34702   3.337  22.106   1.256
62443W        W34703  32.797   2.514  13.764
62444W        W34704  41.012  19.529  14.354
62445W        W34705  21.769  11.991   0.686
62446W        W34706   7.769  39.104  14.034
62447W        W34707  31.709  43.301   0.203
62448W        W34708  30.982  13.355  12.918
62449W        W34709  33.988  22.895  14.389
62450W        W34710  41.055   2.058  11.582
62451W        W34711  44.759  25.091  14.714
62452W        W34712  31.474  15.137   3.753
62453W        W34713  42.271  12.066   0.338
62454W        W34714  22.226  26.540   2.127
62455W        W34715  21.594  23.992   4.599
62456W        W34716  40.099   7.247   1.819
62457W        W34717   6.724   2.620   3.195
62458W        W34718   1.504  32.646   2.296
62459W        W34719  31.844  21.250   1.443
62460W        W34720  41.815   2.230  12.066
62461W        W34721  22.952   6.665  10.700
62462W        W34722  28.007  10.881  14.026
62463W        W34723   1.965   9.417  14.313
62464W        W34724  12.734  28.208   3.847
62465W        W34725  44.892  26.551   0.048
62466W        W34726  38.876  43.372   2.046
62467W        W34727   5.940   7.214   4.849
62468W        W34728   9.168  11.316   4.202
62469W        W34729  36.399  42.746   5.052
62470W        W34730  28.443  42.470   4.192
62471W        W34731  33.423  29.279  12.562
62472W        W34732  13.697  38.274  12.866
62473W        W34733  33.899  14.598  12.127
62474W        W34734  12.503   8.681   3.416
62475W        W34735  26.686  23.134   0.406
62476W        W34736  31.657  24.027  11.026
62477W        W34737  32.512  43.200   1.327
62478W        W34738  41.294   9.250   4.699
62479W        W34739  26.503  26.031  11.035
62480W        W34740  44.923  36.039  12.582
62481W        W34741   5.160  16.656   2.866
62482W        W34742  17.359  23.710  11.452
62483W        W34743  24.653  34.749  14.918
62484W        W34744  25.152  39.541   4.443
62485W        W34745  34.082   6.926   0.691
62486W        W34746  26.494  38.889   4.554
62487W        W34747   9.682  28.706  10.968
62488W        W34748  15.157   2.903   1.908
62489W        W34749  22.700  20.239  14.827
62490W        W34750  26.237  32.931  14.839
62491W        W34751  41.841  15.811  11.548
62492W        W34752  22.330   6.403   1.884
62493W        W34753   4.014  10.168  14.224
62494W        W34754   5.502   2.453   0.018
62495W        W34755  28.927  33.594  12.033
62496W        W34756  27.380  25.061   0.892
62497W        W34757  16.808   3.873  12.989
62498W        W34758  26.412  39.908   0.167
62499W        W34759  35.923  31.915  13.432
62500W        W34760  39.778  44.313  14.826
62501W        W34761  24.276  43.359   1.635
62502W        W34762  36.919   6.295   0.417
62503W        W34763  14.073  39.819  14.638
62504W        W34764  31.914  31.241  13.724
62505W        W34765  22.615  13.132  11.641
62506W        W34766  27.374  44.341   4.759
62507W        W34767  19.097   2.801   3.603
62508W        W34768  30.653  24.180   2.304
62509W        W34769   0.437  28.178   4.344
62510W        W34770  29.518  37.396  13.594
62511W        W34771   7.965  14.566  13.584
62512W        W34772  13.247  26.756   2.869
62513W        W34773  11.634  13.491   9.994
62514W        W34774  29.180  10.834   3.020
62515W        W34775  25.652  16.119  10.422
62516W        W34776   1.101  10.663  13.690
62517W        W34777  23.407  36.799   0.812
62518W        W34778   7.483   5.785  11.457
62519W        W34779  30.460  44.908   4.377
62520W        W34780  16.827  20.991   2.662
62521W        W34781  24.687  36.007  14.375
62522W        W34782  15.781  25.493  14.992
62523W        W34783   4.980   1.883   3.122
62524W        W34784  33.908  44.723  10.677
62525W        W34785  33.974   3.103  13.858
62526W        W34786  13.549  25.678   1.946
62527W        W34787  24.496  41.496   1.922
62528W        W34788   4.885  12.153   2.256
62529W        W34789  25.672  24.231  13.432
62530W        W34790  15.611  44.562  11.442
62531W        W34791  25.562  29.173  14.141
62532W        W34792  16.565   5.251  10.814
62533W        W34793  25.225  36.858  14.241
62534W        W34794  36.492  20.351   9.822
62535W        W34795  29.363  11.381   4.190
62536W        W34796   1.204  20.301  14.816
62537W        W34797  17.609  38.905  12.114
62538W        W34798  24.126   9.435  13.029
62539W        W34799  11.790  16.548   0.844
62540W        W34800  38.612  25.172   1.535
62541W        W34801  11.892  43.046  13.767
62542W        W34802  13.865  12.339   0.908
62543W        W34803  17.966  32.249   1.469
62544W        W34804  19.020   9.836  13.423
62545W        W34805  22.233   2.331  11.122
62546W        W34806  12.195   3.946   1.503
62547W        W34807  21.788  39.012  11.606
62548W        W34808  12.095  17.495   2.445
62549W        W34809  40.949  11.859   2.613
62550W        W34810   6.799  25.940  12.109
62551W        W34811   6.972  11.639  11.941
62552W        W34812  20.005  24.303  14.394
62553W        W34813  13.762  22.855  12.433
62554W        W34814  33.504  32.647   2.853
62555W        W34815  33.395  16.067  10.665
62556W        W34816  36.785  23.024   1.973
62557W        W34817  32.935  26.913   4.901
62558W        W34818  38.280  23.711   4.666
62559W        W34819  10.786  20.848  14.703
62560W        W34820   7.966  40.561   1.822
62561W        W34821   3.524   4.975   4.052
62562W        W34822  38.924  23.252  14.073
62563W        W34823  23.082  13.128  10.924
62564W        W34824  40.283  42.529   0.331
62565W        W34825  20.237  11.864  12.410
62566W        W34826  26.203  22.679   4.174
62567W        W34827   9.088  24.628   0.445
62568W        W34828  16.666  16.741   1.992
62569W        W34829  28.445   2.813   1.350
62570W        W34830  35.455  13.225   0.148
62571W        W34831  24.672  42.337   4.862
62572W        W34832  21.774  26.209  11.861
62573W        W34833   0.410  28.010  10.757
62574W        W34834  43.905  33.998  14.910
62575W        W34835  28.479  31.514  14.664
62576W        W34836   1.471   3.225   0.784
62577W        W34837   9.557  38.614   0.258
62578W        W34838  25.040  26.568  14.596
62579W        W34839  44.330  32.283  14.493
62580W        W34840  17.610  42.260   1.833
62581W        W34841  19.288  26.311   1.439
62582W        W34842  39.573  41.289  13.901
62583W        W34843  17.851   0.760  11.866
62584W        W34844  14.293  28.925  14.417
62585W        W34845  20.669  31.825  12.113
62586W        W34846  35.530  21.352   0.753
62587W        W34847  12.809  39.825  11.014
62588W        W34848  11.749  27.618   5.003
62589W        W34849  24.609  34.331   4.492
62590W        W34850  42.768  17.597  11.468
62591W        W34851  40.855   0.987   1.276
62592W        W34852  32.973   0.776  14.988
62593W        W34853  43.215  22.509   3.842
62594W        W34854  26.216  39.466  14.969
62595W        W34855  42.938  29.215  13.797
62596W        W34856  42.633  25.078   0.825
62597W        W34857  39.788  10.697   4.158
62598W        W34858   6.154  28.600   4.683
62599W        W34859  19.956  28.495   4.160
62600W        W34860  16.207   8.999  12.029
62601W        W34861  17.112  42.521  10.724
62602W        W34862  23.478  25.145   4.388
62603W        W34863  11.681  11.216  12.840
62604W        W34864  41.012  25.717   3.613
62605W        W34865  18.655  16.849  12.483
62606W        W34866   4.012  32.578   2.404
62607W        W34867  31.077  25.060   4.120
62608W        W34868  34.818  33.052  12.438
62609W        W34869  17.086   5.702   4.293
62610W        W34870   8.299  17.765   1.893
62611W        W34871  34.466  23.030  11.166
62612W        W34872  33.416  17.614  14.351
62613W        W34873  40.526  26.984   0.318
62614W        W34874   1.280  24.422  14.793
62615W        W34875  40.080  28.943  14.134
62616W        W34876   0.720  12.496   3.112
62617W        W34877   8.764   7.130  13.604
62618W        W34878  38.271  44.830  13.918
62619W        W34879   3.814  12.327   1.762
62620W        W34880  20.956  30.888   1.358
62621W        W34881  33.035  37.497  12.116
62622W        W34882  32.481  22.569   1.718
62623W        W34883  19.033  27.626   4.660
62624W        W34884  32.415  16.176  14.895
62625W        W34885  43.047  34.499   2.901
62626W        W34886   1.238  29.796  13.937
62627W        W34887  39.932  17.284  12.090
62628W        W34888  41.609  33.873  14.937
62629W        W34889   8.664  18.802  10.731
62630W        W34890  25.957   0.348   4.412
62631W        W34891  25.985  31.045   0.319
62632W        W34892  24.891  22.052  14.877
62633W        W34893  32.582  25.964   2.819
62634W        W34894  35.337  43.854  14.743
62635W        W34895  20.256  39.505  12.089
62636W        W34896   2.908  41.788   0.488
62637W        W34897  21.070  25.151  10.598
62638W        W34898  38.731  23.045   2.730
62639W        W34899   7.917   0.860  11.537
62640W        W34900  31.030  23.551  14.469
62641W        W34901  12.409  22.051   3.717
62642W        W34902  37.489  36.793   0.954
62643W        W34903   6.418  32.673  12.100
62644W        W34904  33.751  28.507  11.196
62645W        W34905  11.137   7.791   3.287
62646W        W34906   8.438  21.751  12.432
62647W        W34907  42.096  16.243   4.519
62648W        W34908  29.939  21.783   2.384
62649W        W34909  23.536  29.873  11.944
62650W        W34910  22.849   6.168  10.622
62651W        W34911  10.207  30.069  11.654
62652W        W34912  20.571  10.391   1.222
62653W        W34913  28.606  34.999   0.580
62654W        W34914   1.921  26.642   1.719
62655W        W34915  17.508  10.292   1.287
62656W        W34916  40.050  36.530   3.297
62657W        W34917  21.456   6.987  13.788
62658W        W34918   5.290  43.845   4.182
62659W        W34919  10.372  33.982   0.372
62660W        W34920  17.711  36.055   0.959
62661W        W34921  15.153  34.871   0.052
62662W        W34922  26.957  37.058   2.417
62663W        W34923  17.196  38.333  14.887
62664W        W34924  21.588  41.699   4.350
62665W        W34925  12.316  27.171   4.761
62666W        W34926  40.934  14.205  14.952
62667W        W34927   3.262  11.671  12.698
62668W        W34928  27.465   7.951   0.775
62669W        W34929  38.118   7.787  11.905
62670W        W34930  20.418  13.209   4.611
62671W        W34931  24.967  21.037  14.947
62672W        W34932   5.126  36.975  12.555
62673W        W34933  25.539  29.535   2.259
62674W        W34934  11.978  33.684  10.221
62675W        W34935  33.144  38.068   2.356
62676W        W34936  13.204  34.236   4.140
62677W        W34937  42.516  35.026  11.623
62678W        W34938   1.408  18.529   3.756
62679W        W34939  41.200   2.833  12.528
62680W        W34940  35.130  16.663   2.745
62681W        W34941   9.883   7.976   4.662
62682W        W34942  24.434   4.159  12.090
62683W        W34943  37.482  44.482  12.411
62684W        W34944  29.107  40.883   2.743
62685W        W34945  39.956   3.195  13.644
62686W        W34946  37.603  20.348  12.052
62687W        W34947  14.356  26.577   1.262
62688W        W34948  13.665  21.303  13.915
62689W        W34949  44.830  32.386  14.892
62690W        W34950   7.998  31.998   0.834
62691W        W34951   5.967  30.032   3.844
62692W        W34952  14.196  39.908  12.823
62693W        W34953   0.227  38.886  13.920
62694W        W34954  20.648  43.429  11.457
62695W        W34955  23.908  36.902   0.968
62696W        W34956  17.319  28.065   0.399
62697W        W34957   9.763  26.705  14.042
62698W        W34958  25.203  23.268  13.968
62699W        W34959  33.950   4.121  13.891
62700W        W34960  12.405   5.355   2.724
62701W        W34961  43.408  23.745  12.466
62702W        W34962  39.547  43.457  11.896
62703W        W34963  22.193  31.143  13.915
62704W        W34964  29.765  24.359   0.750
62705W        W34965  27.703  36.432  10.634
62706W        W34966  27.972   5.789   1.222
62707W        W34967  38.905  24.698   0.010
62708W        W34968   6.789  16.862  10.298
62709W        W34969   3.579  39.016  10.198
62710W        W34970  18.046  15.998  14.308
62711W        W34971   7.488  28.752   0.727
62712W        W34972  28.956  19.627   1.773
62713W        W34973  24.873  41.777   1.643
62714W        W34974   0.759   1.172  14.852
62715W        W34975   1.922  24.502  12.506
62716W        W34976   9.310   0.022   4.529
62717W        W34977  13.676  43.162  10.662
62718W        W34978   2.254  13.949  10.721
62719W        W34979  19.781  31.425   0.686
62720W        W34980  27.723  32.470  12.437
62721W        W34981  12.620  13.194  13.431
62722W        W34982  42.291  38.551  13.839
62723W        W34983  35.750  29.115  11.626
62724W        W34984  24.325  11.792   0.809
62725W        W34985  14.158  12.213  12.952
62726W        W34986  39.986  18.315   1.953
62727W        W34987  28.405  16.574   0.463
62728W        W34988  26.003  10.201  13.056
62729W        W34989  11.668  35.082   2.604
62730W        W34990  44.498  34.904   0.944
62731W        W34991  39.495   1.311  12.224
62732W        W34992  29.202  31.905   4.626
62733W        W34993  42.997  41.777  11.696
62734W        W34994  10.735  13.103  14.207
62735W        W34995   4.016  43.107  11.138
62736W        W34996  39.357  36.889  14.311
62737W        W34997   5.163   4.642  10.651
62738W        W34998  14.394  23.246   1.406
62739W        W34999  38.550  44.697  14.336
62740W        W35000  42.097  17.710  13.957
62741W        W35001  15.806   2.807   3.086
62742W        W35002  20.050  41.058   0.335
62743W        W35003  32.505  11.888  12.817
62744W        W35004   6.726  26.275   2.703
62745W        W35005  10.477  27.602  11.507
62746W        W35006   1.304  26.631  12.223
62747W        W35007   8.272  29.033   2.858
62748W        W35008  44.135  15.409   1.187
62749W        W35009  35.474   3.302   0.049
62750W        W35010  12.828   6.837   3.158
62751W        W35011  16.259   1.966  14.609
62752W        W35012  13.354  36.760  12.321
62753W        W35013  41.404  15.038  13.567
62754W        W35014  10.866  23.657  11.154
62755W        W35015   1.155  39.316   4.685
62756W        W35016   9.933  10.187  11.040
62757W        W35017  42.444  42.875   3.577
62758W        W35018  42.421  28.383   2.200
62759W        W35019   6.235  37.934  12.578
62760W        W35020  43.566   1.047  11.095
62761W        W35021  19.821   4.627   2.308
62762W        W35022  33.107  32.488   1.464
62763W        W35023  24.431  30.961   3.811
62764W        W35024   6.714   4.625  12.935
62765W        W35025  27.654  27.033  14.453
62766W        W35026  34.011  14.087   3.451
62767W        W35027  39.609  24.736  11.109
62768W        W35028  38.498   3.001  14.876
62769W        W35029   2.023  35.479  14.086
62770W        W35030  13.034  36.304   2.431
62771W        W35031  41.056   4.787  11.106
62772W        W35032  14.104  20.767   0.533
62773W        W35033   1.054  41.700   2.269
62774W        W35034  10.959  17.479  11.180
62775W        W35035   8.868  13.216   2.118
62776W        W35036  10.315  24.894  12.029
62777W        W35037  15.588  26.417  14.832
62778W        W35038  27.086  37.551  12.337
62779W        W35039  12.339  43.400  13.572
62780W        W35040  41.828   2.867   0.995
62781W        W35041  21.289   8.422   4.832
62782W        W35042  26.289  24.620  11.153
62783W        W35043  16.450  31.297   0.288
62784W        W35044  19.758  36.047  14.006
62785W        W35045  25.025  20.298  11.224
62786W        W35046  32.067  30.070   5.108
62787W        W35047  38.794  44.932   2.828
62788W        W35048  29.088  26.084  12.551
62789W        W35049  27.590  36.142  12.162
62790W        W35050  26.633  27.448  11.128
62791W        W35051  27.439  27.615   4.407
62792W        W35052  43.852  44.173   0.354
62793W        W35053  31.072  12.851   3.610
62794W        W35054  16.646  16.207   9.786
62795W        W35055  37.121   9.078   5.544
62796W        W35056  31.991  30.402   4.669
62797W        W35057  38.064  10.118  14.990
62798W        W35058   5.472  37.907   4.071
62799W        W35059   2.923   4.748   1.799
62800W        W35060  43.231  28.380   3.689
62801W        W35061  38.738  31.445   3.328
62802W        W35062  19.250   2.787   0.242
62803W        W35063   6.349  40.309   2.859
62804W        W35064  32.065  25.517  14.269
62805W        W35065  37.819  27.957  14.438
62806W        W35066  35.262  32.643   2.194
62807W        W35067  15.900  44.019   5.039
62808W        W35068  24.774  10.575  11.548
62809W        W35069   4.071  41.303   5.068
62810W        W35070   0.035   1.389  12.997
62811W        W35071  12.610  40.745  10.689
62812W        W35072   1.496  41.290   0.834
62813W        W35073  17.994  13.287   2.918
62814W        W35074  24.948  33.597  12.433
62815W        W35075   6.782  34.867   1.624
62816W        W35076  11.354  31.602   4.436
62817W        W35077  18.150  29.571   3.226
62818W        W35078  21.769  16.182  12.944
62819W        W35079   3.453  42.000  12.004
62820W        W35080  32.366   4.758  10.629
62821W        W35081   3.258  28.906   0.898
62822W        W35082  10.210  18.108  13.955
62823W        W35083  16.378   5.775  12.940
62824W        W35084  17.538  39.578  10.982
62825W        W35085  15.515  11.099  12.547
62826W        W35086  10.156  10.040  13.538
62827W        W35087  15.622  17.339   2.705
62828W        W35088   7.253   7.328  14.125
62829W        W35089  23.890  15.086   0.317
62830W        W35090  32.933  31.136  11.977
62831W        W35091   8.848  14.020   1.659
62832W        W35092  39.212  23.518   0.841
62833W        W35093   0.783   7.168  13.957
62834W        W35094  30.575  44.324  14.868
62835W        W35095  14.663  14.038  14.353
62836W        W35096  18.193  31.459  10.748
62837W        W35097   6.665   9.779  14.439
62838W        W35098  19.753  36.163   2.674
62839W        W35099  29.391  10.080  11.150
62840W        W35100  36.360   7.338   1.424
62841W        W35101  14.400  13.890  11.779
62842W        W35102  18.576  18.060   2.268
62843W        W35103  44.743   4.321   3.591
62844W        W35104  41.448  19.253  14.369
62845W        W35105   8.849  26.757   2.742
62846W        W35106  29.727   7.509   4.371
62847W        W35107  43.799  35.358  13.425
62848W        W35108  29.967   1.065   0.168
62849W        W35109  26.094  15.627   0.758
62850W        W35110  31.043  22.798  13.914
62851W        W35111   0.250   8.665   0.308
62852W        W35112  13.822  16.556  10.465
62853W        W35113  20.899   2.953  12.431
62854W        W35114  25.171   4.774  12.046
62855W        W35115  25.233  15.223  13.400
62856W        W35116  21.915  23.981   1.302
62857W        W35117  41.270  20.135   0.503
62858W        W35118  13.610   3.378  10.690
62859W        W35119  16.450  15.568   5.249
62860W        W35120  41.146  31.921   4.625
62861W        W35121  34.654  22.549  12.093
62862W        W35122  37.908  27.630  13.539
62863W        W35123  11.598   2.285  10.475
62864W        W35124  17.089  25.219   9.780
62865W        W35125  34.774  11.979   0.648
62866W        W35126  16.278   7.815  14.353
62867W        W35127  32.942   7.720  12.505
62868W        W35128   5.571  31.075   1.782
62869W        W35129  29.475  42.659  10.266
62870W        W35130   1.457  23.711   2.945
62871W        W35131  18.009  33.071  11.023
62872W        W35132  43.767  18.692   0.707
62873W        W35133  30.126  28.006   4.658
62874W        W35134  40.382  42.465   3.179
62875W        W35135  23.573  24.151  10.743
62876W        W35136  23.174  25.538   4.277
62877W        W35137   2.164  37.120  11.196
62878W        W35138  19.049  22.819   3.285
62879W        W35139  27.815   2.186  13.256
62880W        W35140  34.916  14.926   1.733
62881W        W35141   3.007   2.989  13.770
62882W        W35142  26.117  30.976   1.669
62883W        W35143  13.195  33.982  12.283
62884W        W35144  36.016  10.453   2.299
62885W        W35145  19.647   3.173  11.055
62886W        W35146  15.593  40.476   3.699
62887W        W35147  39.264  27.613  11.955
62888W        W35148   6.261  17.832  14.450
62889W        W35149  30.972  35.142   4.167
62890W        W35150  16.249   1.235   3.001
62891W        W35151  35.940  23.081  13.418
62892W        W35152  44.056   9.349   3.452
62893W        W35153  39.888   3.293  13.128
62894W        W35154   4.710  36.266  14.384
62895W        W35155  36.365   6.371   1.247
62896W        W35156   1.825  42.379  12.521
62897W        W35157  32.859  41.300  11.697
62898W        W35158  42.703  15.622   1.213
62899W        W35159   2.909  40.314  14.724
62900W        W35160  26.637  41.546  11.096
62901W        W35161   5.213   0.944  14.409
62902W        W35162  42.464  36.873   4.376
62903W        W35163  17.329   9.166  12.530
62904W        W35164  25.007  36.862  11.618
62905W        W35165  40.453  34.409  11.086
62906W        W35166  14.265  39.562   3.380
62907W        W35167  15.501  44.910  12.065
62908W        W35168  38.926  30.384   1.942
62909W        W35169  41.496   3.826  13.159
62910W        W35170  20.577  42.541  14.500
62911W        W35171  21.815  20.816  10.180
62912W        W35172   4.758  19.635   1.160
62913W        W35173   6.770   1.340   2.169
62914W        W35174   6.167   8.814  14.404
62915W        W35175  25.689  40.987   0.869
62916W        W35176  37.002  30.548   0.422
62917W        W35177  15.563  16.334  10.909
62918W        W35178  39.788  27.521  10.481
62919W        W35179  20.071  35.442  14.897
62920W        W35180  27.234  22.239  11.127
62921W        W35181  38.976  22.578  14.360
62922W        W35182  29.633   4.286  13.897
62923W        W35183  39.119   8.055  12.931
62924W        W35184  41.836  25.107   1.319
62925W        W35185  22.625   6.174   4.130
62926W        W35186  11.841  41.383  13.444
62927W        W35187  28.473  14.324  11.332
62928W        W35188  44.041  27.310   3.138
62929W        W35189   7.108  10.583   3.686
62930W        W35190   0.236  36.287   1.886
62931W        W35191  11.154  20.832   0.322
62932W        W35192  44.680  42.478  11.203
62933W        W35193  44.346  24.501  12.803
62934W        W35194  28.431  14.282   9.903
62935W        W35195  38.252  28.709  12.870
62936W        W35196  23.712  11.212  12.103
62937W        W35197  15.437  29.652  13.579
62938W        W35198  37.110  31.618  10.404
62939W        W35199  13.886  40.380  13.443
62940W        W35200  38.952   0.039  11.891
62941W        W35201  27.241  32.294   3.702
62942W        W35202  26.654  34.146   3.852
62943W        W35203  15.178  21.632  12.876
62944W        W35204  18.737   3.107   1.360
62945W        W35205  30.648  10.736  10.653
62946W        W35206  10.472   5.164  14.421
62947W        W35207  42.642  31.550   1.335
62948W        W35208   7.883  41.014  14.372
62949W        W35209  30.845  24.597  12.052
62950W        W35210   8.816  23.592  12.848
62951W        W35211   9.180  31.388   1.622
62952W        W35212   9.797  14.101  11.821
62953W        W35213  30.366  24.437   3.705
62954W        W35214  14.368  27.092  14.413
62955W        W35215  44.319  40.271   1.398
62956W        W35216  41.854  38.661  13.585
62957W        W35217  29.996  22.227   0.933
62958W        W35218   3.336  14.411   2.980
62959W        W35219   8.431   0.066  13.132
62960W        W35220  12.060  23.553   2.211
62961W        W35221  23.163  30.869   3.306
62962W        W35222  16.238  28.123  11.521
62963W        W35223  41.376  28.511   0.730
62964W        W35224   3.886  15.234  11.863
62965W        W35225  32.916  43.353  11.426
62966W        W35226  18.013  41.275   2.344
62967W        W35227  29.801  16.550  12.473
62968W        W35228   0.354  28.479  11.379
62969W        W35229   4.276  23.926  10.943
62970W        W35230  12.338  36.455   4.383
62971W        W35231  43.358  20.834  14.799
62972W        W35232  35.767  24.661  11.491
62973W        W35233  36.662  26.051  12.275
62974W        W35234  37.757   6.183  14.267
62975W        W35235  17.130  36.440  12.334
62976W        W35236  25.166  24.736  13.946
62977W        W35237   1.794  11.776   0.257
62978W        W35238  12.667  20.574   2.063
62979W        W35239  29.369  14.221  11.301
62980W        W35240  37.302  29.099   0.276
62981W        W35241  35.382   3.950  13.861
62982W        W35242  11.222   4.153  10.727
62983W        W35243  12.077   0.549   4.695
62984W        W35244   9.272  41.977  14.832
62985W        W35245  29.512  23.585   1.394
62986W        W35246   0.247  19.153  12.945
62987W        W35247  15.150  40.752   4.147
62988W        W35248  22.809   6.194   1.861
62989W        W35249   0.040   2.850   3.318
62990W        W35250  29.429  24.697  11.022
62991W        W35251  12.242  17.043   0.026
62992W        W35252  43.284  17.459   1.760
62993W        W35253  34.089   4.951   2.662
62994W        W35254  33.658  35.047  13.593
62995W        W35255  18.094  21.818  13.091
62996W        W35256  43.794   3.229  10.912
62997W        W35257  40.891  16.729   1.757
62998W        W35258  41.257  10.758  10.939
62999W        W35259  26.237  20.445   2.224
63000W        W35260  32.494  25.164  14.494
63001W        W35261  18.126  32.622  13.024
63002W        W35262  39.059   9.705   1.381
63003W        W35263  17.567  32.165  10.950
63004W        W35264  25.140  42.985  10.538
63005W        W35265  24.059  12.597   4.470
63006W        W35266  34.879  26.212   1.669
63007W        W35267  44.863  15.769  10.130
63008W        W35268   2.397   9.152   0.946
63009W        W35269   4.467   6.512   3.344
63010W        W35270   9.246  33.480   1.293
63011W        W35271   2.697  27.065  14.885
63012W        W35272  14.171  25.374  13.724
63013W        W35273  33.921  29.407   0.591
63014W        W35274   6.285   9.728   1.457
63015W        W35275  17.057   2.317  10.193
63016W        W35276  40.954  16.881   0.855
63017W        W35277  17.501   3.065  11.013
63018W        W35278  23.826  18.288  13.896
63019W        W35279  31.995   6.865  12.103
63020W        W35280  12.768   4.437   2.858
63021W        W35281   5.316   5.698  14.770
63022W        W35282  26.854  20.505   0.113
63023W        W35283  21.136  41.079  12.111
63024W        W35284  29.535  27.213   0.239
63025W        W35285   5.435   3.944   1.414
63026W        W35286  17.265  20.764  11.510
63027W        W35287  25.553  11.810   5.119
63028W        W35288   2.641   4.816   1.343
63029W        W35289   7.973  27.707   5.006
63030W        W35290  27.569   1.883   2.837
63031W        W35291   5.749  35.043   3.214
63032W        W35292   6.488  13.850  12.792
63033W        W35293  29.273   8.274   0.014
63034W        W35294  30.852  29.149   1.861
63035W        W35295  36.628  40.386  14.291
63036W        W35296  34.090   4.684   4.650
63037W        W35297  10.705  25.149   4.056
63038W        W35298  22.212  33.800   3.237
63039W        W35299   7.269  19.228   3.008
63040W        W35300   8.305  31.582  14.534
63041W        W35301   1.997   2.400  12.986
63042W        W35302   1.376  35.619  12.443
63043W        W35303  35.865   7.245   4.568
63044W        W35304  14.408  34.484  12.883
63045W        W35305  26.355  38.773  12.318
63046W        W35306   0.642  28.781   3.298
63047W        W35307  40.348  32.587  12.298
63048W        W35308  11.773   8.829   2.383
63049W        W35309  41.334  28.605   3.644
63050W        W35310  30.619   6.355  14.713
63051W        W35311  31.363  39.702   3.383
63052W        W35312  38.620  32.081  11.564
63053W        W35313  17.366  20.972  10.202
63054W        W35314  33.850   3.620   2.412
63055W        W35315   0.332  16.064   3.357
63056W        W35316  11.251   6.852   2.692
63057W        W35317  34.208  43.863   1.336
63058W        W35318  13.752  11.236   3.186
63059W        W35319  32.654  14.372  11.045
63060W        W35320  20.228  16.871  11.670
63061W        W35321  12.489  42.550  14.415
63062W        W35322   1.729   2.520  11.464
63063W        W35323   0.532  34.538   0.376
63064W        W35324  10.254  36.051  13.337
63065W        W35325  20.680  23.755   3.302
63066W        W35326   5.299  25.034   4.520
63067W        W35327   4.223  35.347  12.341
63068W        W35328   6.435  41.735   0.531
63069W        W35329  15.666  15.405  12.517
63070W        W35330  15.719  13.635  12.887
63071W        W35331  26.015  31.382   0.703
63072W        W35332  17.113  16.256  12.053
63073W        W35333  44.915  16.052   2.446
63074W        W35334  42.559  36.368  10.636
63075W        W35335  37.907  13.358   0.063
63076W        W35336  15.806  37.300   4.137
63077W        W35337  43.264  20.324  14.796
63078W        W35338  43.737  21.776  10.700
63079W        W35339  35.946  17.753  11.523
63080W        W35340  10.365   5.705   1.925
63081W        W35341  18.780   1.580  11.216
63082W        W35342  25.263   8.321   1.971
63083W        W35343   9.334  26.245   4.404
63084W        W35344  42.537   7.422   1.322
63085W        W35345  25.042  19.173  12.216
63086W        W35346  14.659  34.764  10.653
63087W        W35347  18.721  11.807  11.725
63088W        W35348   0.389  35.247  11.923
63089W        W35349  22.491   4.846   2.654
63090W        W35350  18.802   3.461   1.756
63091W        W35351  42.939  31.391   0.643
63092W        W35352  20.713   4.224  12.909
63093W        W35353  29.845  21.671  10.514
63094W        W35354  20.980   2.134   0.343
63095W        W35355   1.757  41.863  12.667
63096W        W35356  38.510  21.535   1.477
63097W        W35357  12.740  18.241  12.446
63098W        W35358   0.779  34.373  13.959
63099W        W35359  11.935  17.462  14.298
63100W        W35360  25.194  38.512  10.519
63101W        W35361   2.049  28.406  13.485
63102W        W35362  44.300  12.202  11.668
63103W        W35363   9.927  35.011  11.098
63104W        W35364  44.778  34.456   3.696
63105W        W35365  27.254   0.397  10.767
63106W        W35366  42.831  31.079  14.230
63107W        W35367  29.058   8.813  13.097
63108W        W35368  19.770  41.243  13.123
63109W        W35369   7.875  26.533  11.659
63110W        W35370  28.425  16.680   3.369
63111W        W35371  21.102  39.440   2.746
63112W        W35372  18.307  42.034  14.834
63113W        W35373  33.926  38.799   1.756
63114W        W35374  20.347  32.614  12.732
63115W        W35375  39.997  21.096  13.545
63116W        W35376  22.537  23.515  12.523
63117W        W35377   9.261  11.220   0.198
63118W        W35378  11.366  42.765   2.020
63119W        W35379  21.751  35.999   0.808
63120W        W35380  31.162   3.385  11.990
63121W        W35381   3.736  39.926  12.091
63122W        W35382  28.570  17.854  10.993
63123W        W35383  13.640  25.945   1.189
63124W        W35384   8.859  38.036  11.629
63125W        W35385  10.687   5.393   1.218
63126W        W35386  25.690  31.336   3.401
63127W        W35387   9.629  15.885  13.564
63128W        W35388  27.030   1.721   3.291
63129W        W35389  11.421  11.800  11.115
63130W        W35390   9.247  22.578  14.263
63131W        W35391  28.126   3.288   4.524
63132W        W35392  40.205  18.731  11.925
63133W        W35393  19.756  11.394   0.474
63134W        W35394  10.030  30.889  12.075
63135W        W35395  32.961  30.942  14.521
63136W        W35396  26.374  39.811  10.280
63137W        W35397   5.706  42.469  14.001
63138W        W35398  32.530  40.076   4.610
63139W        W35399  21.037   8.899  11.634
63140W        W35400  20.324   1.230  10.595
63141W        W35401  15.935  23.314   2.091
63142W        W35402  32.445  38.125  14.858
63143W        W35403   7.301   2.945  11.033
63144W        W35404   7.992  29.993  14.362
63145W        W35405  28.723  25.591   4.081
63146W        W35406  16.107  35.909   4.510
63147W        W35407  40.776   0.292  11.982
63148W        W35408  20.001  37.361  12.852
63149W        W35409  38.535  24.978   3.552
63150W        W35410  27.529  33.902  12.358
63151W        W35411   5.694  15.120   3.591
63152W        W35412  12.678  13.860  11.516
63153W        W35413  39.091  33.839  13.706
63154W        W35414  20.699  16.671   4.225
63155W        W35415   1.243  24.069  12.555
63156W        W35416  17.646  26.547  14.953
63157W        W35417  39.992  11.645  11.621
63158W        W35418   5.353  41.284   3.656
63159W        W35419  32.989  25.578  12.932
63160W        W35420  34.478  33.419  13.566
63161W        W35421   9.457   1.794   2.615
63162W        W35422   6.239   7.877   4.319
63163W        W35423  24.649  31.485   0.981
63164W        W35424  38.166  16.596  13.822
63165W        W35425  32.085  15.177  11.820
63166W        W35426   8.301  35.651  11.143
63167W        W35427  27.503  41.002   4.585
63168W        W35428  44.718  26.303  14.533
63169W        W35429  39.881  37.048   0.272
63170W        W35430  14.771  30.257   5.473
63171W        W35431  29.287  27.404  10.996
63172W        W35432  39.715  24.221  11.033
63173W        W35433   0.912  37.462  12.146
63174W        W35434   2.384   9.426   0.507
63175W        W35435  24.209  39.425  14.725
63176W        W35436  19.202   6.146   4.671
63177W        W35437   4.871  15.752  10.948
63178W        W35438  10.253  33.549  11.401
63179W        W35439   4.520  11.338  14.533
63180W        W35440  42.532  15.726  13.597
63181W        W35441  38.341  19.636   2.752
63182W        W35442  33.585  18.185  10.442
63183W        W35443  36.632  12.256   4.191
63184W        W35444  38.985  37.833   2.064
63185W        W35445  39.771   7.343  10.214
63186W        W35446   1.557  17.708   2.753
63187W        W35447  23.034  17.795   0.872
63188W        W35448  40.237  28.685  14.577
63189W        W35449  40.593  21.561   4.185
63190W        W35450  17.041  28.095  14.066
63191W        W35451  41.628   7.331  11.898
63192W        W35452  11.912  32.955   3.123
63193W        W35453  42.762  11.345   4.183
63194W        W35454  43.245  18.126  13.332
63195W        W35455  33.088  17.681   0.029
63196W        W35456  17.630  11.779   1.328
63197W        W35457  12.369  12.657  11.403
63198W        W35458  41.006  14.703   3.998
63199W        W35459  28.967  16.128  12.961
63200W        W35460  15.172  25.651   4.708
63201W        W35461   9.091  12.041  14.974
63202W        W35462  35.985   8.622   4.385
63203W        W35463  33.453  22.960   1.331
63204W        W35464  15.270   7.606  14.546
63205W        W35465   9.258  41.584  11.860
63206W        W35466  27.564   0.330   1.005
63207W        W35467  24.686  44.309   2.812
63208W        W35468  41.028  15.906  10.304
63209W        W35469  24.682  41.045   3.724
63210W        W35470  24.256   9.842   0.355
63211W        W35471   4.401   3.316  13.919
63212W        W35472  19.834  15.299   4.079
63213W        W35473  15.610  23.695  12.532
63214W        W35474   4.417  13.252   3.358
63215W        W35475  40.009  29.872   0.937
63216W        W35476  35.197  20.688  10.179
63217W        W35477  27.472  35.076   3.002
63218W        W35478   3.427  14.119  13.995
63219W        W35479  15.602   9.149   4.890
63220W        W35480   3.314  44.471   4.513
63221W        W35481  14.996   0.871   3.270
63222W        W35482  37.525  16.366   3.693
63223W        W35483  41.126  33.993  13.496
63224W        W35484  16.144  40.070   1.101
63225W        W35485  17.597  41.723  12.090
63226W        W35486  19.379   1.049   3.320
63227W        W35487  38.883   0.875  11.753
63228W        W35488  16.171  43.732   0.365
63229W        W35489  24.582  14.715  12.590
63230W        W35490  23.782  34.473   3.744
63231W        W35491  18.488  18.560   4.133
63232W        W35492  14.730  12.594  11.717
63233W        W35493  36.277   7.914  11.161
63234W        W35494  31.118  18.034  11.599
63235W        W35495   4.212  24.058  12.999
63236W        W35496  42.420  39.314   3.717
63237W        W35497  21.555  32.868   1.233
63238W        W35498   3.693  41.542  13.839
63239W        W35499   1.314   1.989   4.696
63240W        W35500   2.824  17.850   4.149
63241W        W35501   6.380  16.578  11.145
63242W        W35502   1.774  17.704  12.941
63243W        W35503  31.721  18.918   1.719
63244W        W35504  10.317   4.130  14.872
63245W        W35505   5.119  14.452   3.642
63246W        W35506   7.223  13.881   2.920
63247W        W35507  14.581  10.660   4.972
63248W        W35508  43.467   6.208   3.080
63249W        W35509  14.686  24.620  14.123
63250W        W35510   3.070  38.488   1.863
63251W        W35511  10.767  11.249  14.932
63252W        W35512  42.395  15.711   3.393
63253W        W35513  16.358  32.250  13.577
63254W        W35514   6.193  35.012  13.801
63255W        W35515   9.188  36.917   0.162
63256W        W35516  18.351  23.590  14.844
63257W        W35517  24.997  36.614   4.607
63258W        W35518   7.671  35.136   3.072
63259W        W35519   6.916   3.333   1.377
63260W        W35520  21.665  28.325   9.702
63261W        W35521   9.662  25.138   3.786
63262W        W35522  19.669  32.466  10.616
63263W        W35523  38.893  21.740  14.798
63264W        W35524   1.775   0.465   4.211
63265W        W35525  43.211  10.540  13.348
63266W        W35526   8.210  30.967  13.582
63267W        W35527   9.872  26.909  14.526
63268W        W35528  38.325  25.455   2.848
63269W        W35529   1.051  36.499  11.563
63270W        W35530  44.521  20.226   3.086
63271W        W35531  12.675  35.186   1.748
63272W        W35532  33.600  19.002  13.635
63273W        W35533  31.401  17.743   4.614
63274W        W35534  10.152  26.581  14.869
63275W        W35535  38.012   0.911   3.410
63276W        W35536  26.890  37.977   0.393
63277W        W35537  21.150  11.376  12.904
63278W        W35538  33.374  15.834   3.182
63279W        W35539  41.908  38.714   3.276
63280W        W35540  14.785  38.094   1.522
63281W        W35541  39.106  35.023  11.787
63282W        W35542  42.024  43.126   1.273
63283W        W35543  40.076  22.499   9.865
63284W        W35544  35.497  43.956   0.772
63285W        W35545  30.910  19.579  12.599
63286W        W35546  34.361  31.940  12.501
63287W        W35547  21.270   1.294   1.101
63288W        W35548  13.633  15.797   0.471
63289W        W35549  11.410  26.267  11.475
63290W        W35550  42.869  43.225  12.992
63291W        W35551  36.277  27.988   0.996
63292W        W35552  21.305  10.551   4.162
63293W        W35553  41.274   8.828  12.866
63294W        W35554  24.504   9.365   2.242
63295W        W35555   5.761  34.946   0.991
63296W        W35556  15.175  30.039  11.838
63297W        W35557   3.188  17.255   0.464
63298W        W35558  18.269  37.111   2.878
63299W        W35559  11.213  26.413   1.789
63300W        W35560  17.589  26.099   4.828
63301W        W35561  21.517  31.006   0.527
63302W        W35562  17.812   8.384  11.580
63303W        W35563  38.026  29.333   9.791
63304W        W35564  10.641  13.814   3.813
63305W        W35565   5.430  35.060   3.754
63306W        W35566   7.923  23.587  10.817
63307W        W35567  27.026   0.740  12.628
63308W        W35568  31.641   9.037  14.292
63309W        W35569  23.526  33.659   4.059
63310W        W35570  30.802  32.555   5.764
63311W        W35571   2.576  36.395  10.692
63312W        W35572  23.946  32.125  10.072
63313W        W35573   7.751  22.596  13.328
63314W        W35574  44.902   4.171  11.979
63315W        W35575   8.833  28.180   4.462
63316W        W35576  28.558  26.572   1.169
63317W        W35577  11.162  21.595   3.645
63318W        W35578   8.102   3.735  13.495
63319W        W35579  24.335  15.712  10.710
63320W        W35580   4.702   7.350   2.856
63321W        W35581  42.780  22.517   0.423
63322W        W35582   2.872   0.707   4.730
63323W        W35583   7.791  40.279  13.113
63324W        W35584  17.025  36.915  12.551
63325W        W35585  43.287  32.741   3.134
63326W        W35586  20.977  10.249  10.578
63327W        W35587  42.579   4.848  11.136
63328W        W35588  42.360  15.006  11.182
63329W        W35589  10.602  14.519  11.259
63330W        W35590  38.047  40.803   1.275
63331W        W35591   2.580  30.063  13.566
63332W        W35592  21.761   5.777  12.075
63333W        W35593  44.582   0.946   0.218
63334W        W35594  23.696  21.985  12.394
63335W        W35595  16.038  31.664  10.979
63336W        W35596  34.068  44.276  11.565
63337W        W35597  29.409  37.948  11.953
63338W        W35598  11.936  32.083  11.034
63339W        W35599  10.814   4.881  10.167
63340W        W35600  34.394  18.378   4.643
63341W        W35601  37.865   3.950  13.939
63342W        W35602   2.316  29.978  11.095
63343W        W35603   9.226  25.927   3.069
63344W        W35604  25.218  31.364   3.159
63345W        W35605  20.202  38.494   1.291
63346W        W35606   6.777  22.217   0.263
63347W        W35607  26.100  17.757  13.096
63348W        W35608   8.275  28.177   2.774
63349W        W35609  36.909  18.886   0.725
63350W        W35610  41.142  44.906  13.461
63351W        W35611  41.915  25.896  13.474
63352W        W35612  28.952   9.247  12.243
63353W        W35613  44.255  16.641  11.233
63354W        W35614   2.562  34.830  12.381
63355W        W35615  23.495  16.285   3.641
63356W        W35616  29.855  36.042  13.435
63357W        W35617  11.601  24.098  12.030
63358W        W35618  24.663  34.143   2.832
63359W        W35619   0.501  44.368  10.129
63360W        W35620  12.321   6.906   4.574
63361W        W35621   8.760  27.507   3.658
63362W        W35622  27.061   6.174  11.540
63363W        W35623  22.361   3.188  12.928
63364W        W35624  13.840  41.566  12.422
63365W        W35625  36.805   7.154   1.842
63366W        W35626  42.395  27.328   0.986
63367W        W35627   8.113  16.240  12.485
63368W        W35628   2.252  15.780  10.970
63369W        W35629  22.001  43.547  11.187
63370W        W35630  38.909  22.521   1.247
63371W        W35631  42.041  25.220  10.347
63372W        W35632  24.687  27.796   5.887
63373W        W35633   3.330   9.391  11.577
63374W        W35634  27.084  18.038  13.978
63375W        W35635  41.560   9.607   1.835
63376W        W35636  42.003  12.084  13.570
63377W        W35637  37.397  41.358   0.371
63378W        W35638   6.940   0.283   2.751
63379W        W35639  33.451   0.902   2.897
63380W        W35640   7.861  44.072   0.350
63381W        W35641  25.042   9.862   4.404
63382W        W35642  19.577  26.128  13.897
63383W        W35643  13.775  39.871   3.399
63384W        W35644   5.334  33.844  14.524
63385W        W35645   8.891  29.066  14.326
63386W        W35646  17.359  44.303  12.925
63387W        W35647  21.517   5.427  13.792
63388W        W35648  23.553  16.409   1.632
63389W        W35649  15.798  13.315   1.319
63390W        W35650   0.834  14.025  10.635
63391W        W35651  18.238  24.809   1.304
63392W        W35652  19.515  13.663   2.712
63393W        W35653  20.602  26.832   4.060
63394W        W35654   8.335   4.074  13.841
63395W        W35655  25.406  30.968   0.932
63396W        W35656  44.494   7.721   2.724
63397W        W35657  14.285  27.395  10.641
63398W        W35658  43.016   7.258   1.299
63399W        W35659   1.756   4.600   3.576
63400W        W35660  27.714  36.057   1.753
63401W        W35661  15.178  37.972  11.850
63402W        W35662  34.654  43.452   2.786
63403W        W35663  19.250  29.030  13.630
63404W        W35664  21.494  18.644   3.118
63405W        W35665   7.249  29.894   3.324
63406W        W35666  32.179  42.054  10.674
63407W        W35667   4.415  18.842   1.625
63408W        W35668  28.269  35.563  14.377
63409W        W35669  23.653  41.404  13.321
63410W        W35670  42.351  43.448  10.853
63411W        W35671  15.247   9.636   4.381
63412W        W35672  43.100  38.913   3.021
63413W        W35673  26.216   9.722  13.539
63414W        W35674   6.680  33.640   2.938
63415W        W35675  27.448  36.151  11.687
63416W        W35676  11.865  29.911  13.862
63417W        W35677   0.466  31.424  14.087
63418W        W35678  33.566   2.236  12.923
63419W        W35679   4.298   5.012  10.164
63420W        W35680  23.073  30.366   4.234
63421W        W35681  27.987  19.026  12.959
63422W        W35682   4.918  40.893  14.295
63423W        W35683   7.786  40.782   2.253
63424W        W35684  37.528  43.342   5.068
63425W        W35685  43.168  14.834  12.731
63426W        W35686   2.787   8.193  10.862
63427W        W35687  26.892  13.462  11.544
63428W        W35688  21.771  13.412   1.954
63429W        W35689  24.453  20.534   3.106
63430W        W35690  15.179  37.550  11.561
63431W        W35691   6.445  12.858  12.894
63432W        W35692   1.246  10.953  11.945
63433W        W35693  19.157  18.490  12.605
63434W        W35694  44.149  36.543   0.508
63435W        W35695  19.197  33.930   1.613
63436W        W35696  34.396  20.233   2.648
63437W        W35697   5.044  17.048   4.904
63438W        W35698  11.217  38.104  14.335
63439W        W35699  16.939  17.619   1.719
63440W        W35700  10.716  18.283   4.609
63441W        W35701  21.567  39.058  12.973
63442W        W35702  34.621   2.443  13.839
63443W        W35703   1.984  12.655  13.413
63444W        W35704  42.003  40.367  12.575
63445W        W35705  11.605  14.648  13.394
63446W        W35706  31.497   9.680   2.727
63447W        W35707  31.434   6.993  12.175
63448W        W35708  18.479  37.109  10.479
63449W        W35709   1.293  11.740  14.978
63450W        W35710  34.540  22.508  11.160
63451W        W35711   3.924  22.722  14.153
63452W        W35712  32.401  22.177   0.911
63453W        W35713   6.162   4.932   2.422
63454W        W35714   2.419   0.956   3.663
63455W        W35715   6.820  40.546   2.285
63456W        W35716  26.399   6.850   2.363
63457W        W35717   3.166  35.198  14.923
63458W        W35718  30.099   7.709  11.097
63459W        W35719  34.171  12.247  11.638
63460W        W35720  29.271  19.062   4.502
63461W        W35721  33.041  17.105   4.161
63462W        W35722  43.413  13.628  10.560
63463W        W35723  28.993   3.773   4.394
63464W        W35724  22.595  32.708  10.786
63465W        W35725  38.056   4.425  14.061
63466W        W35726  35.279  42.207  13.799
63467W        W35727  17.436   0.808   2.308
63468W        W35728  25.198  39.908  13.014
63469W        W35729   9.996  10.802   0.727
63470W        W35730  41.423  10.701   1.722
63471W        W35731   0.110  15.746  12.656
63472W        W35732  17.765  26.976  13.951
63473W        W35733   5.315  12.539   1.554
63474W        W35734  34.531  44.982  14.791
63475W        W35735  23.242  42.852  10.324
63476W        W35736  32.020  26.638   2.808
63477W        W35737  24.968  43.843   1.456
63478W        W35738  22.161  17.000  12.914
63479W        W35739   5.919   6.642  11.930
63480W        W35740   4.527  33.477  12.490
63481W        W35741  20.217  35.489  13.098
63482W        W35742  25.460  25.029   3.232
63483W        W35743   0.922   7.552   3.172
63484W        W35744  18.079  14.716  13.551
63485W        W35745  38.089  31.695  13.847
63486W        W35746  28.863   9.285  14.328
63487W        W35747  29.388  33.188   1.773
63488W        W35748  28.109  13.290   0.708
63489W        W35749  41.917  39.261  12.461
63490W        W35750  23.477  10.784   2.322
63491W        W35751  39.264  26.711  14.832
63492W        W35752  18.738  35.395  12.057
63493W        W35753  44.089  42.737  10.293
63494W        W35754   0.340   7.108   2.736
63495W        W35755  36.468  44.248  12.953
63496W        W35756  23.474  13.624  13.048
63497W        W35757  38.429  34.333   0.326
63498W        W35758  35.162  41.072   2.350
63499W        W35759   3.793   2.147   1.388
63500W        W35760  25.066  12.925   4.693
63501W        W35761   0.274   0.465  12.080
63502W        W35762  24.990  42.055   3.547
63503W        W35763  13.606   4.342  12.894
63504W        W35764  26.374  23.393   0.062
63505W        W35765  25.112  38.438   3.488
63506W        W35766  28.390  29.466   1.769
63507W        W35767  16.223  13.609   1.275
63508W        W35768   1.406   9.797   3.835
63509W        W35769  30.217  11.827  12.402
63510W        W35770   4.707  30.669  11.403
63511W        W35771  18.709  42.269   1.437
63512W        W35772   0.203  29.893   0.288
63513W        W35773  32.377  31.084  11.090
63514W        W35774  17.341  16.777  11.171
63515W        W35775  21.883  21.141   9.731
63516W        W35776   0.250  31.936   0.814
63517W        W35777  17.536  37.426   3.601
63518W        W35778  37.847  30.524  11.123
63519W        W35779  36.061  31.178   2.446
63520W        W35780  24.839  44.151  11.180
63521W        W35781   1.682  42.763  13.883
63522W        W35782   4.350  33.881  14.881
63523W        W35783  14.984   9.597   0.883
63524W        W35784  23.037  35.120   0.524
63525W        W35785  14.142  30.983  14.273
63526W        W35786   5.824  14.739   4.730
63527W        W35787   3.248  33.455  12.060
63528W        W35788  20.156  15.557  12.064
63529W        W35789  43.201   2.887   4.732
63530W        W35790  43.854  16.540   2.422
63531W        W35791  22.636  36.363   2.118
63532W        W35792   9.872   6.984  14.955
63533W        W35793  25.940  24.086   4.060
63534W        W35794  27.129  21.526  10.601
63535W        W35795  22.512   0.893   4.556
63536W        W35796  41.618  13.790   2.367
63537W        W35797  15.578  35.987  10.687
63538W        W35798  13.841  37.356   3.565
63539W        W35799   7.284   4.758  12.964
63540W        W35800  44.435  14.758   0.231
63541W        W35801  15.823  19.201  12.923
63542W        W35802   4.594  38.111   0.321
63543W        W35803   4.309   1.330  12.558
63544W        W35804  31.142  16.142  13.877
63545W        W35805  33.024  15.772  13.937
63546W        W35806  12.064  40.956   4.556
63547W        W35807  43.241  43.304  14.462
63548W        W35808  24.276  37.967  14.491
63549W        W35809   3.140  14.739   3.351
63550W        W35810  34.179   8.627  12.819
63551W        W35811  40.402   5.689  13.927
63552W        W35812  36.409  25.489  10.771
63553W        W35813  39.355   5.835  11.603
63554W        W35814  26.207   8.854   2.364
63555W        W35815   0.188   2.525   4.333
63556W        W35816   1.558  28.575   4.153
63557W        W35817  41.500   8.775  14.329
63558W        W35818  33.635  22.548  12.066
63559W        W35819  39.260  30.182   4.978
63560W        W35820   8.833  34.661  13.142
63561W        W35821  27.597  29.405  14.877
63562W        W35822  20.250   2.872  13.036
63563W        W35823   5.635  10.217  13.855
63564W        W35824  27.501  11.192   2.735
63565W        W35825  44.878  27.095  11.507
63566W        W35826   3.470  23.079   3.957
63567W        W35827  29.575  15.093   2.364
63568W        W35828  22.261  41.770  11.529
63569W        W35829  15.315   4.457  10.617
63570W        W35830  12.883  19.780  14.967
63571W        W35831  15.386  16.407  13.120
63572W        W35832  13.344  14.794  11.133
63573W        W35833   7.297  27.256   5.053
63574W        W35834   1.857  24.659   0.224
63575W        W35835  30.931  19.013   2.165
63576W        W35836  28.403  32.657   3.201
63577W        W35837   4.369   4.272   1.269
63578W        W35838   5.306  35.123  13.572
63579W        W35839  28.979   9.196  10.753
63580W        W35840  12.849  19.077   4.180
63581W        W35841  37.950  14.406   2.773
63582W        W35842   4.503  43.296  12.855
63583W        W35843  16.990  19.254   4.154
63584W        W35844  12.829  28.277  12.867
63585W        W35845  30.966  33.519  13.350
63586W        W35846  40.302  11.840  10.365
63587W        W35847  16.850  11.690   2.708
63588W        W35848  36.574   5.221   4.941
63589W        W35849   6.599  16.494  11.694
63590W        W35850  39.233  32.978  11.208
63591W        W35851  19.770  12.268  13.898
63592W        W35852  39.978   8.334   2.773
63593W        W35853  14.076  19.818   2.691
63594W        W35854  22.095   7.699  10.962
63595W        W35855  11.776   8.269   0.309
63596W        W35856  21.990  32.908   3.122
63597W        W35857  37.379  29.511  14.905
63598W        W35858   4.760  38.791  14.719
63599W        W35859  37.994  17.170   3.135
63600W        W35860   2.840  11.206   4.561
63601W        W35861   2.664  43.881  10.544
63602W        W35862   6.123  29.747  13.547
63603W        W35863  15.598   6.814  10.593
63604W        W35864  30.550   9.951  11.239
63605W        W35865  36.897   4.209   2.429
63606W        W35866  28.882  38.898  12.895
63607W        W35867  16.730  40.323   0.495
63608W        W35868  31.383  37.534  14.905
63609W        W35869  17.675   7.952   4.655
63610W        W35870  42.805   9.949  11.035
63611W        W35871   5.931   6.687   4.187
63612W        W35872  20.242  40.627  13.398
63613W        W35873  18.912  25.223  12.454
63614W        W35874  38.906  27.530   1.185
63615W        W35875  27.947  10.307  10.904
63616W        W35876  35.516  31.807  12.109
63617W        W35877  29.631  34.395   3.234
63618W        W35878   1.307   4.795   4.484
63619W        W35879  24.434  41.520   5.448
63620W        W35880  14.761  19.956  12.091
63621W        W35881  29.949   6.627  13.326
63622W        W35882  32.997   6.654  10.452
63623W        W35883  44.920  37.928   4.564
63624W        W35884  18.099  37.624  13.926
63625W        W35885  38.947  12.264   4.100
63626W        W35886  32.406   9.223  14.978
63627W        W35887  18.387   7.330   3.700
63628W        W35888  18.130   4.793  13.194
63629W        W35889  12.595  30.432   0.745
63630W        W35890  26.481  12.642   1.266
63631W        W35891   1.927  10.622  13.414
63632W        W35892  28.218  36.537  10.640
63633W        W35893  39.700  13.336  12.950
63634W        W35894  36.611  34.132   0.485
63635W        W35895  29.333  21.240  10.693
63636W        W35896  23.807   9.121   0.322
63637W        W35897   2.012   0.017   1.049
63638W        W35898  26.104  36.128   1.453
63639W        W35899   7.135   8.716   1.793
63640W        W35900  38.111  26.268  13.832
63641W        W35901  27.451  30.433   1.434
63642W        W35902  40.226  38.659  14.766
63643W        W35903  21.512  21.821   2.591
63644W        W35904   8.237  33.305  14.783
63645W        W35905  41.993   2.316   0.251
63646W        W35906  22.502  31.105  14.536
63647W        W35907   8.162  24.469  10.702
63648W        W35908  20.058   0.459   2.600
63649W        W35909  37.560  23.592   4.129
63650W        W35910  26.715  11.061  13.813
63651W        W35911   2.768   2.341   3.716
63652W        W35912  18.690  26.685   3.719
63653W        W35913  10.812   4.338   0.024
63654W        W35914  22.959  38.905   5.068
63655W        W35915  19.728  26.712  11.650
63656W        W35916   9.215  25.608   2.677
63657W        W35917  25.088  36.562   3.676
63658W        W35918  16.845  16.185  12.898
63659W        W35919   8.941  37.902   4.954
63660W        W35920  32.604   2.412   1.019
63661W        W35921   8.582  13.697   2.860
63662W        W35922  17.189  22.765   2.074
63663W        W35923   7.249  24.540  11.624
63664W        W35924   7.799   6.035   2.660
63665W        W35925   2.732  10.883  13.925
63666W        W35926  31.629  24.471   3.224
63667W        W35927  38.656  38.471   0.434
63668W        W35928  26.215  35.924   3.713
63669W        W35929  28.973  29.727  10.192
63670W        W35930   4.405  33.328  10.985
63671W        W35931  16.115  13.905   4.711
63672W        W35932  36.307  19.692   4.672
63673W        W35933   5.276  33.987   1.962
63674W        W35934  14.366  25.496  11.973
63675W        W35935  23.894  44.979   3.907
63676W        W35936  18.790   7.692   5.344
63677W        W35937   2.250  31.407  10.606
63678W        W35938  15.596   4.780   1.926
63679W        W35939  27.002  33.831  14.001
63680W        W35940  14.114  18.577  13.948
63681W        W35941  14.264  43.449   4.070
63682W        W35942   6.538  19.739   5.154
63683W        W35943  35.987  32.921  13.355
63684W        W35944  17.036  31.926   3.655
63685W        W35945  35.004   9.981  12.878
63686W        W35946  10.841  13.757   0.989
63687W        W35947  19.719   7.681   3.619
63688W        W35948   4.649  25.618  14.293
63689W        W35949  34.164  40.857  12.017
63690W        W35950  37.436  26.092  10.503
63691W        W35951  40.764  26.138   3.791
63692W        W35952  33.080   9.226   3.396
63693W        W35953  29.221  28.523  12.655
63694W        W35954  27.944  11.303  11.729
63695W        W35955  11.055  22.115  13.303
63696W        W35956  32.067  18.671   3.564
63697W        W35957  22.527  10.204  13.190
63698W        W35958  33.904  40.833  14.152
63699W        W35959   9.939  38.981  11.946
63700W        W35960   0.369  33.429   2.217
63701W        W35961   5.739  39.347   4.708
63702W        W35962   7.906  11.419  11.180
63703W        W35963  35.743   0.972  10.614
63704W        W35964  10.309  31.947   3.563
63705W        W35965  10.574  15.243   0.799
63706W        W35966  13.059  25.195  13.958
63707W        W35967  12.052   2.518  10.796
63708W        W35968  27.470  42.497   0.744
63709W        W35969  36.631  11.227   4.793
63710W        W35970  30.221  19.288   1.431
63711W        W35971  37.333  43.028  11.625
63712W        W35972   2.442  35.868  12.413
63713W        W35973   3.206  19.411  13.935
63714W        W35974  27.566  14.930  14.118
63715W        W35975   4.293   7.438  10.963
63716W        W35976  37.969  40.296   3.820
63717W        W35977  11.093   9.828   4.360
63718W        W35978  15.392  19.210   1.018
63719W        W35979  32.692   5.512  12.038
63720W        W35980  35.489  23.480   4.514
63721W        W35981  19.380  14.372   3.336
63722W        W35982   2.838  41.478  11.955
63723W        W35983   5.812  44.232  13.918
63724W        W35984  33.990  17.530   4.705
63725W        W35985  38.049  16.843   2.200
63726W        W35986   1.540  10.711   4.307
63727W        W35987  13.128  43.719  14.745
63728W        W35988  31.819  42.613  13.028
63729W        W35989   6.255  15.782   4.526
63730W        W35990   7.281  15.563   0.511
63731W        W35991  29.612  41.594  11.163
63732W        W35992   6.688  17.118  12.171
63733W        W35993  14.729  16.841   2.721
63734W        W35994   3.203  15.314   3.959
63735W        W35995   0.703  35.583  14.529
63736W        W35996  29.089  21.667   4.698
63737W        W35997  32.349  40.502   4.140
63738W        W35998  35.311   5.005  11.885
63739W        W35999  23.767  12.736  11.955
63740W        W36000  43.803  28.062   2.596
63741W        W36001  43.584  17.578  14.806
63742W        W36002  27.886  30.991   1.784
63743W        W36003  31.651   0.201   0.335
63744W        W36004  17.726  15.232   1.781
63745W        W36005  31.525  10.173  12.932
63746W        W36006   1.907   1.527  12.570
63747W        W36007  37.306  17.659  14.476
63748W        W36008  41.968  41.086   2.708
63749W        W36009  23.489  20.806   1.496
63750W        W36010  27.724   9.341   0.825
63751W        W36011   6.864   3.343   3.428
63752W        W36012   4.824   6.981   0.043
63753W        W36013  34.884  41.318  11.568
63754W        W36014  22.764  14.232  13.078
63755W        W36015  17.282  43.996   1.917
63756W        W36016  20.688  16.036  14.392
63757W        W36017  35.043  34.353   1.265
63758W        W36018  25.574  16.126  10.936
63759W        W36019  39.273  33.757   2.846
63760W        W36020  16.194  24.436   4.030
63761W        W36021  34.423  30.915  11.085
63762W        W36022  15.155   9.597  13.920
63763W        W36023  28.580  43.338  10.723
63764W        W36024   4.538  28.452   1.444
63765W        W36025   0.991   1.840   2.136
63766W        W36026  10.291  20.179  13.561
63767W        W36027  33.566  26.137   1.430
63768W        W36028  31.675  42.014  10.706
63769W        W36029   3.215   4.589  12.360
63770W        W36030  20.158  33.203   0.276
63771W        W36031  35.507  10.845   0.341
63772W        W36032   1.121   5.216  12.732
63773W        W36033   2.701   0.789  13.939
63774W        W36034   3.858  30.169   1.217
63775W        W36035  17.585  19.180   1.283
63776W        W36036  30.001   4.520  12.564
63777W        W36037   3.628  10.355  10.691
63778W        W36038  42.527   9.748   4.569
63779W        W36039  34.650  24.815  13.818
63780W        W36040  20.202   1.536   4.184
63781W        W36041  33.598  31.574   4.058
63782W        W36042  15.533   6.242   3.838
63783W        W36043  13.865  40.294  14.809
63784W        W36044  30.054  43.629  11.601
63785W        W36045  13.180  35.331   1.962
63786W        W36046  22.259  15.901  10.396
63787W        W36047  27.271  14.337   2.272
63788W        W36048  32.779  12.120  14.532
63789W        W36049  38.291  33.653  12.561
63790W        W36050  39.908  44.765   0.256
63791W        W36051  36.453  14.490  13.137
63792W        W36052  43.212  44.814   0.556
63793W        W36053  14.030   6.323  14.328
63794W        W36054  17.234  18.690  14.582
63795W        W36055   9.637  20.801  12.764
63796W        W36056   4.844  33.393   3.287
63797W        W36057  11.414  15.181  12.142
63798W        W36058  22.126  19.054   5.010
63799W        W36059  39.996  36.704  11.157
63800W        W36060   7.788  28.686   0.142
63801W        W36061   3.267  13.746  13.074
63802W        W36062   2.316  35.832   4.179
63803W        W36063  21.221   4.032   3.672
63804W        W36064   6.461   8.176   3.944
63805W        W36065   7.734   8.317  13.247
63806W        W36066  44.980  17.128  13.964
63807W        W36067  31.965  33.053  11.578
63808W        W36068  43.730  41.302  12.487
63809W        W36069   6.604  11.078   2.797
63810W        W36070  35.321  38.548   2.872
63811W        W36071  11.316  14.327   2.799
63812W        W36072  10.790  14.164   1.340
63813W        W36073  43.323  30.001   3.642
63814W        W36074  22.470  44.839  14.575
63815W        W36075  11.618  37.830  11.183
63816W        W36076   4.858  25.518   2.315
63817W        W36077  25.318  34.777  13.940
63818W        W36078  42.262  42.409   3.586
63819W        W36079   1.718  35.755  13.742
63820W        W36080  24.654  20.772   1.331
63821W        W36081  34.586   9.111  11.083
63822W        W36082  33.095  42.306   1.033
63823W        W36083  18.058  13.663  14.479
63824W        W36084  30.646  35.226   2.194
63825W        W36085  30.282  32.061  10.217
63826W        W36086  16.166  34.131  11.517
63827W        W36087  16.691  11.160   4.471
63828W        W36088  16.801  43.410  11.627
63829W        W36089   7.804  27.219   4.982
63830W        W36090  16.163  25.671   4.602
63831W        W36091  10.261  41.002  14.904
63832W        W36092  28.596  41.547   4.551
63833W        W36093  29.635  19.609   1.263
63834W        W36094  10.877  19.815  11.215
63835W        W36095   4.755  33.542   5.550
63836W        W36096  36.152   3.916   1.896
63837W        W36097  44.754   5.297   1.538
63838W        W36098   6.184   8.352   2.475
63839W        W36099  18.219  33.807   0.576
63840W        W36100  10.380   0.398   3.122
63841W        W36101  21.319  11.862   2.333
63842W        W36102   0.977  25.721   4.080
63843W        W36103  30.675  36.096  13.897
63844W        W36104  30.177  10.919   4.371
63845W        W36105   1.487   9.192   4.617
63846W        W36106  15.024  37.998   1.963
63847W        W36107  15.308  12.371  12.006
63848W        W36108  31.076  14.266  12.349
63849W        W36109  32.893   0.828   0.530
63850W        W36110   7.133  35.658  11.179
63851W        W36111  18.008  28.628   3.163
63852W        W36112  29.929  15.113  11.163
63853W        W36113  29.462   4.211  14.385
63854W        W36114  25.169   9.165   0.938
63855W        W36115  17.265  23.367   1.325
63856W        W36116   5.856  43.038   0.959
63857W        W36117   1.739  32.585   4.152
63858W        W36118  21.130  35.001  11.537
63859W        W36119  11.190  36.169   3.835
63860W        W36120  13.227  23.689  10.350
63861W        W36121   8.956   9.198   0.743
63862W        W36122  20.122  28.276   0.762
63863W        W36123   4.077   7.526   1.504
63864W        W36124  14.983   8.258   4.208
63865W        W36125  24.248  10.290   0.838
63866W        W36126  34.354  19.853   4.418
63867W        W36127   8.502  28.031   2.313
63868W        W36128  27.102  25.220  12.593
63869W        W36129  22.226   3.630  14.847
63870W        W36130  18.272  43.806  14.417
63871W        W36131  35.621  28.022   3.694
63872W        W36132  28.797  39.521   0.048
63873W        W36133  39.786   4.168  13.360
63874W        W36134  35.372   1.382  12.888
63875W        W36135   1.324  15.099  14.679
63876W        W36136   4.208  13.316   1.919
63877W        W36137  16.121  40.977   2.196
63878W        W36138  44.570  19.183   0.726
63879W        W36139   4.414  21.575   0.417
63880W        W36140   1.350  33.594   1.300
63881W        W36141   5.489  18.195   1.671
63882W        W36142  27.113  43.535  10.916
63883W        W36143  38.036   2.779   1.721
63884W        W36144  16.971  26.226  14.986
63885W        W36145  21.280   4.953  11.799
63886W        W36146  21.498   6.228   4.538
63887W        W36147  31.716  10.941   4.165
63888W        W36148  16.514  12.864   0.547
63889W        W36149  30.399  23.698  14.485
63890W        W36150  27.512  26.640  12.068
63891W        W36151  23.063  34.056  13.461
63892W        W36152  30.461  27.977  12.965
63893W        W36153  19.201  11.223   4.617
63894W        W36154  31.694  19.574   3.677
63895W        W36155   7.897  36.968   4.665
63896W        W36156  33.393  24.705  12.149
63897W        W36157   2.388  36.961  12.142
63898W        W36158   4.824   1.196   0.803
63899W        W36159  35.795  40.294   1.142
63900W        W36160  26.117  13.362   2.374
63901W        W36161  26.081   9.938  11.691
63902W        W36162  28.625  25.735  11.736
63903W        W36163  18.750   9.181   1.407
63904W        W36164  34.061  30.635  14.019
63905W        W36165  15.568  26.221   2.683
63906W        W36166  25.706  22.772   4.228
63907W        W36167  22.680   6.691   2.871
63908W        W36168  43.558  28.037  11.235
63909W        W36169   4.611  33.901  12.783
63910W        W36170  24.715  28.061  11.225
63911W        W36171  40.452  10.836  11.647
63912W        W36172  16.717  22.698   3.748
63913W        W36173  20.090  30.839   3.702
63914W        W36174  30.664  18.305  11.948
63915W        W36175  26.593  25.463  14.000
63916W        W36176   9.750  38.930  12.418
63917W        W36177  13.164  26.594  10.718
63918W        W36178  29.155  40.622  13.290
63919W        W36179   6.204  39.897  12.803
63920W        W36180  42.379  21.093   3.159
63921W        W36181  29.623  37.450   0.975
63922W        W36182  32.874  26.117   0.330
63923W        W36183  29.505  30.959  11.171
63924W        W36184   7.144   2.251  14.166
63925W        W36185  31.424  31.259  10.143
63926W        W36186   8.218  37.037  13.913
63927W        W36187   2.571  13.071  10.821
63928W        W36188  23.983  42.324  11.077
63929W        W36189  11.855  41.604  10.701
63930W        W36190   0.053  28.044  11.119
63931W        W36191   3.405  16.280   2.941
63932W        W36192  23.131  19.247   3.384
63933W        W36193   7.668  29.593   3.256
63934W        W36194  33.524   4.498   2.535
63935W        W36195  29.724   2.970   2.828
63936W        W36196  36.233  37.797  11.040
63937W        W36197  36.403  30.055   1.925
63938W        W36198  21.985  15.835  13.504
63939W        W36199   1.039   6.440   5.541
63940W        W36200   7.450  14.259  12.738
63941W        W36201  37.369   3.798  14.709
63942W        W36202  13.098  41.511   3.897
63943W        W36203  39.336  40.311  13.020
63944W        W36204  38.789  14.202   0.644
63945W        W36205  25.062  22.238  11.366
63946W        W36206  13.394  20.980   0.775
63947W        W36207   0.658  21.915   3.895
63948W        W36208  37.541  36.998   2.702
63949W        W36209  32.727  32.388  10.955
63950W        W36210  31.887  13.304   0.682
63951W        W36211  22.744  44.075   0.862
63952W        W36212  27.391  17.043  13.551
63953W        W36213   2.483  26.874   5.153
63954W        W36214  38.525  14.423   4.652
63955W        W36215  34.131   1.220  11.164
63956W        W36216  41.160  22.322   1.332
63957W        W36217  26.710   3.383   2.229
63958W        W36218  15.035  35.250  12.406
63959W        W36219  38.803  16.531   1.299
63960W        W36220  27.159   1.227  14.412
63961W        W36221  30.699   6.233   3.064
63962W        W36222  37.296  13.286   1.596
63963W        W36223  12.174  35.130   3.704
63964W        W36224  36.537  28.911  12.025
63965W        W36225  38.444   9.193   2.466
63966W        W36226  25.623  29.508  11.147
63967W        W36227  32.752  40.243   1.883
63968W        W36228   0.033  21.713  13.950
63969W        W36229   5.344  40.067   1.005
63970W        W36230  43.853   0.764   2.274
63971W        W36231  41.437  14.205   3.563
63972W        W36232  40.857  11.170  10.769
63973W        W36233  29.857   7.386  14.436
63974W        W36234   5.189  22.611   2.005
63975W        W36235  30.432  30.839  10.806
63976W        W36236  28.082  20.686   1.694
63977W        W36237  23.461  38.998  14.764
63978W        W36238   6.712  26.576  12.024
63979W        W36239   9.845  34.411   3.774
63980W        W36240  31.119  35.496  13.341
63981W        W36241  12.871  15.637  10.634
63982W        W36242   8.636  29.686   3.249
63983W        W36243  42.487  11.857   0.779
63984W        W36244   0.024  16.639   0.840
63985W        W36245  24.643   1.720  12.874
63986W        W36246   7.371   9.358   4.122
63987W        W36247   6.931  39.476  14.112
63988W        W36248  20.288   0.071  14.367
63989W        W36249  22.792  35.017  14.724
63990W        W36250  34.140  10.666   3.293
63991W        W36251  23.282  23.591   3.909
63992W        W36252   2.364  19.659  14.425
63993W        W36253   3.241  25.039  14.043
63994W        W36254   6.258  31.391   3.723
63995W        W36255  20.739  41.390  12.559
63996W        W36256  21.010  11.446  10.317
63997W        W36257  24.087  13.895  13.893
63998W        W36258  24.645  28.444   0.897
63999W        W36259  29.710   9.303   0.688
64000W        W36260  17.946  18.777  13.969
64001W        W36261  23.591  30.378   3.702
64002W        W36262  33.080  17.267   2.375
64003W        W36263  42.506   8.747   0.288
64004W        W36264  31.907   4.656  11.988
64005W        W36265  25.001  41.977  13.930
64006W        W36266  10.998  32.643  11.256
64007W        W36267  17.727   0.742  10.368
64008W        W36268  17.275   9.952   3.584
64009W        W36269   9.904  26.155  12.371
64010W        W36270  29.735  35.320  14.557
64011W        W36271   4.852  36.422  11.870
64012W        W36272  12.768  34.530  11.709
64013W        W36273  21.492  24.611   3.802
64014W        W36274  39.774  25.615  12.509
64015W        W36275  13.245  28.006  12.736
64016W        W36276   3.658  37.905   4.600
64017W        W36277   3.778   5.375  12.079
64018W        W36278  14.573  43.937  10.648
64019W        W36279  38.985  31.733   5.032
64020W        W36280  43.271   8.372  13.929
64021W        W36281  11.417  38.331  12.202
64022W        W36282  28.884   3.594  13.941
64023W        W36283  42.187   9.229   2.297
64024W        W36284  42.741  18.119   4.062
64025W        W36285  13.170  15.381   1.846
64026W        W36286   9.821  13.047   2.345
64027W        W36287  10.684  15.213   3.870
64028W        W36288  43.048  27.545   0.730
64029W        W36289  12.651  37.587  13.643
64030W        W36290  12.243  18.813   4.684
64031W        W36291  17.654  29.105  14.830
64032W        W36292   7.787  27.915   3.740
64033W        W36293  10.651  40.452   1.563
64034W        W36294   7.694  22.597   1.419
64035W        W36295   6.693  26.273  10.277
64036W        W36296  39.000   6.311  10.982
64037W        W36297  37.753  27.131  12.636
64038W        W36298  11.182  33.755   3.237
64039W        W36299  35.533  20.911   2.626
64040W        W36300  23.084  28.475  11.551
64041W        W36301  36.659  39.338  13.509
64042W        W36302   2.769   3.047   3.403
64043W        W36303   4.438   1.277   2.292
64044W        W36304  11.666  32.411  14.932
64045W        W36305   9.195  30.470  11.614
64046W        W36306   6.307  33.835  13.778
64047W        W36307  28.452  39.464  11.193
64048W        W36308   8.586  17.803  10.655
64049W        W36309  14.674  26.154  10.922
64050W        W36310  24.765  36.963  12.064
64051W        W36311  42.812  20.241   0.390
64052W        W36312  31.683  18.080   0.790
64053W        W36313  12.774  16.077   4.869
64054W        W36314  18.673  27.212   4.673
64055W        W36315   1.816  12.109   4.105
64056W        W36316  41.085  25.386  13.107
64057W        W36317  32.517  18.561   2.681
64058W        W36318  22.153  24.267  12.707
64059W        W36319  40.487  31.335   1.838
64060W        W36320  22.199  35.173   0.793
64061W        W36321   8.179  36.038  10.855
64062W        W36322   3.171  42.118  12.437
64063W        W36323  38.123  41.867  14.889
64064W        W36324  40.377  13.543   0.755
64065W        W36325  30.292   1.819  11.568
64066W        W36326  31.928   9.358  14.030
64067W        W36327  25.530   6.775  11.594
64068W        W36328  41.590  31.576   0.315
64069W        W36329  22.172  11.604   4.160
64070W        W36330  20.784  14.649  13.890
64071W        W36331   7.926  20.344  11.073
64072W        W36332  44.821  17.075  12.549
64073W        W36333  10.682  21.526  14.863
64074W        W36334  17.897  19.549  11.959
64075W        W36335  44.442  21.615  11.076
64076W        W36336  44.901   2.273  12.197
64077W        W36337  19.734   9.335   0.066
64078W        W36338  32.403  16.310  13.527
64079W        W36339  27.576  14.905  12.307
64080W        W36340  31.048  19.835  14.370
64081W        W36341  18.437  37.801   4.564
64082W        W36342  43.412  39.233   1.265
64083W        W36343  14.890  25.042  10.767
64084W        W36344  35.916   0.926  11.556
64085W        W36345  11.338  23.695  13.519
64086W        W36346  10.650  36.478   0.880
64087W        W36347  14.420   9.448   2.312
64088W        W36348  15.748   4.922  13.086
64089W        W36349   1.662   8.230  12.592
64090W        W36350  37.095  10.875  14.444
64091W        W36351  23.222  30.586   1.042
64092W        W36352   0.933  43.413  14.377
64093W        W36353   5.772   9.652  10.746
64094W        W36354  13.685   5.832   4.298
64095W        W36355  39.535  25.435   2.392
64096W        W36356  38.605  35.821  12.797
64097W        W36357  15.246  40.366   2.762
64098W        W36358  14.762  19.118  14.397
64099W        W36359  34.865  19.557   4.875
64100W        W36360  38.416  11.652   3.752
64101W        W36361  37.047  18.764   1.222
64102W        W36362  23.591  29.379  13.482
64103W        W36363  22.326  44.240   0.008
64104W        W36364  42.549  31.745   3.543
64105W        W36365  20.104   0.759   4.021
64106W        W36366  42.197  27.738  10.362
64107W        W36367  32.637  14.580  11.537
64108W        W36368  34.012   3.645  14.821
64109W        W36369  34.830  11.621  10.765
64110W        W36370  39.996  41.685   4.108
64111W        W36371  12.362  39.980  14.298
64112W        W36372   6.145  41.393   0.283
64113W        W36373  34.977  25.688   1.649
64114W        W36374  35.159  39.068   2.226
64115W        W36375   8.908  33.057   4.090
64116W        W36376  21.363  14.317  10.638
64117W        W36377  35.527  21.313   0.232
64118W        W36378  38.778  42.375   1.764
64119W        W36379  26.511  34.863  12.380
64120W        W36380  11.231   2.154  12.647
64121W        W36381  13.637  44.894   4.752
64122W        W36382  42.522  21.656   1.354
64123W        W36383  25.944  36.582   1.295
64124W        W36384  35.942   8.387  12.642
64125W        W36385  24.241  28.883  11.448
64126W        W36386  40.915  20.271   2.347
64127W        W36387  43.156  26.560   1.012
64128W        W36388  21.110  44.298  11.964
64129W        W36389  29.317  16.008  11.965
64130W        W36390  17.158   2.305   2.901
64131W        W36391  22.707  31.697  10.473
64132W        W36392  40.901  34.846   3.908
64133W        W36393  12.322   5.901   4.635
64134W        W36394  19.514  23.086   3.319
64135W        W36395  15.154  11.883   0.387
64136W        W36396  31.600   0.595  13.490
64137W        W36397  22.618  37.955   4.553
64138W        W36398  20.257   3.182   1.425
64139W        W36399   6.434   0.832  10.675
64140W        W36400  29.613  36.897   3.462
64141W        W36401  17.192  22.090   4.879
64142W        W36402  44.288   1.692  12.490
64143W        W36403  35.553  14.906  10.515
64144W        W36404  17.705  21.050   1.023
64145W        W36405  28.010  36.658   0.298
64146W        W36406  38.333   2.795  14.382
64147W        W36407  43.878  18.204  12.905
64148W        W36408  41.994  25.712  14.830
64149W        W36409  10.638   1.896  11.610
64150W        W36410   0.942  40.048   3.636
64151W        W36411  21.192  28.914  10.360
64152W        W36412  29.317   7.828   4.083
64153W        W36413  24.402  36.028   0.184
64154W        W36414   9.336   8.238   3.289
64155W        W36415   5.998  10.755  11.475
64156W        W36416  30.538  44.405   1.470
64157W        W36417   6.894   6.395  11.142
64158W        W36418  41.501  21.211  14.917
64159W        W36419   8.825  12.485   0.028
64160W        W36420   4.460  10.820  11.691
64161W        W36421  41.526  15.090   0.769
64162W        W36422  43.413  18.177   1.435
64163W        W36423  19.184   2.934   1.167
64164W        W36424  24.027  41.960  13.828
64165W        W36425  42.651  33.259  13.468
64166W        W36426   6.622   7.857  12.397
64167W        W36427  38.333  27.480   1.960
64168W        W36428   1.394  34.473  13.213
64169W        W36429  12.308   2.389   3.143
64170W        W36430  40.527   6.941   2.373
64171W        W36431   5.743  32.514  10.387
64172W        W36432  36.466  44.899  11.809
64173W        W36433  10.921   0.922  11.484
64174W        W36434  39.984  11.305   2.909
64175W        W36435  28.549  40.865   1.466
64176W        W36436   5.807   5.413   1.523
64177W        W36437   4.169  24.327   1.481
64178W        W36438  39.971  40.392   0.775
64179W        W36439  42.015   6.635  13.984
64180W        W36440   1.271   7.279   1.549
64181W        W36441  19.603  18.984  11.974
64182W        W36442  41.841   3.899   2.417
64183W        W36443   6.423   1.432   9.833
64184W        W36444  30.799  41.273   3.252
64185W        W36445  36.872  25.627   2.842
64186W        W36446  26.229  22.695  10.699
64187W        W36447   6.903  22.649  12.720
64188W        W36448  43.909  33.954  11.856
64189W        W36449  22.662   4.667  12.781
64190W        W36450   9.371  41.539  13.453
64191W        W36451  39.844  34.900  10.732
64192W        W36452  10.357  44.585  11.965
64193W        W36453   5.321   4.166  10.649
64194W        W36454   2.446   9.959   4.299
64195W        W36455  38.922  14.316  12.460
64196W        W36456  20.250  30.926  10.653
64197W        W36457  40.036   7.764  14.890
64198W        W36458  44.719  38.528   0.815
64199W        W36459  11.590  34.079   3.567
64200W        W36460   6.224   4.717  13.049
64201W        W36461  19.100  25.910   2.942
64202W        W36462  18.637  26.737  10.987
64203W        W36463  16.762  22.175   3.638
64204W        W36464   9.590  21.522   0.803
64205W        W36465  18.217  34.221  13.131
64206W        W36466   6.347  31.298   1.938
64207W        W36467  14.240  39.490  11.968
64208W        W36468  29.412  11.269  10.751
64209W        W36469  27.489   0.212  12.116
64210W        W36470   2.249   6.794   1.636
64211W        W36471  18.330  19.764  13.918
64212W        W36472  22.438  31.968   4.121
64213W        W36473  26.177  20.830  11.252
64214W        W36474  11.841  35.109  13.029
64215W        W36475  44.412  37.707  13.820
64216W        W36476  16.845  16.682  11.084
64217W        W36477  32.826  10.679   2.763
64218W        W36478  30.388  43.852  14.701
64219W        W36479  20.548   2.859  14.386
64220W        W36480  38.010  28.515  12.427
64221W        W36481  41.229  12.477  12.487
64222W        W36482  12.343  16.268   4.595
64223W        W36483  16.125   6.331   0.485
64224W        W36484   4.916  22.690  12.608
64225W        W36485   0.740   2.914   1.306
64226W        W36486  36.525  26.842  12.844
64227W        W36487  24.073  34.051  13.476
64228W        W36488  15.286  13.070  14.676
64229W        W36489  14.145   3.414   4.875
64230W        W36490   6.305  42.873   1.260
64231W        W36491  25.981  22.087  13.967
64232W        W36492  44.805  38.190   0.424
64233W        W36493  11.862   5.153   2.714
64234W        W36494   5.910   7.442  13.800
64235W        W36495  36.493  20.755   4.182
64236W        W36496  37.372  30.456  14.552
64237W        W36497  29.861  34.996   0.307
64238W        W36498  22.694  43.139  14.663
64239W        W36499   3.789   2.214   2.146
64240W        W36500  33.534  20.392   2.511
64241W        W36501   4.191  29.576   2.274
64242W        W36502  28.205  41.282  11.106
64243W        W36503  28.299  39.282   3.261
64244W        W36504   5.162  40.534  13.456
64245W        W36505  12.096  11.326   3.451
64246W        W36506  10.056  12.770   4.735
64247W        W36507  41.758  31.498   3.238
64248W        W36508  31.175  24.677  12.452
64249W        W36509  21.660  41.017   2.289
64250W        W36510  24.736  38.075   2.712
64251W        W36511  19.585  17.714   1.319
64252W        W36512  22.443  31.649   3.684
64253W        W36513  27.510  25.002  14.861
64254W        W36514  30.509   0.345  14.833
64255W        W36515  24.592   6.077  11.151
64256W        W36516  17.134  16.360   2.683
64257W        W36517  42.771   0.468   1.427
64258W        W36518   1.665  43.886   0.053
64259W        W36519   3.406  13.228  12.410
64260W        W36520  44.436  38.900  14.450
64261W        W36521  22.921  27.763  12.143
64262W        W36522  41.963  10.969  14.950
64263W        W36523  18.486  44.963   0.955
64264W        W36524  44.971  41.856  12.419
64265W        W36525  27.212  22.774  11.119
64266W        W36526  25.252   5.846   2.282
64267W        W36527  37.329  44.749   1.354
64268W        W36528  39.455   6.884  14.886
64269W        W36529   0.194  13.179  12.988
64270W        W36530  12.571  37.490   2.139
64271W        W36531  23.440  36.669  12.265
64272W        W36532  15.251  10.035   4.737
64273W        W36533  18.563  21.191  10.528
64274W        W36534  37.816  33.006   1.857
64275W        W36535  30.611  14.292   3.261
64276W        W36536   1.169  18.527  11.229
64277W        W36537   4.450  25.009   0.357
64278W        W36538   7.756  19.180  10.579
64279W        W36539  19.432  30.658   9.592
64280W        W36540  44.939  30.104  11.552
64281W        W36541   1.810  22.060   1.357
64282W        W36542  36.335   4.011  13.063
64283W        W36543  41.335   4.403  11.909
64284W        W36544  26.968  13.290  12.386
64285W        W36545  30.884  20.618  13.340
64286W        W36546  19.432  31.479  13.402
64287W        W36547  11.231  29.718   1.235
64288W        W36548  31.893  23.213  11.481
64289W        W36549   6.228  42.851  11.316
64290W        W36550  16.125  11.793  13.835
64291W        W36551  18.664  19.733  11.582
64292W        W36552  19.005  28.652  13.403
64293W        W36553  28.249   5.377   1.503
64294W        W36554  12.714  19.114  13.867
64295W        W36555   8.220   5.378  12.365
64296W        W36556  42.799  42.167  10.994
64297W        W36557  30.299   1.638  11.076
64298W        W36558  41.607   2.735  12.865
64299W        W36559  38.837  27.573   4.704
64300W        W36560  24.304  37.334   1.850
64301W        W36561  36.168  27.303  10.704
64302W        W36562  22.090   6.934  12.978
64303W        W36563  33.888  32.856   2.193
64304W        W36564   6.907  39.545  12.587
64305W        W36565  12.805  31.155  13.907
64306W        W36566  30.548   9.329   0.976
64307W        W36567   2.952  17.647  12.434
64308W        W36568  39.690   1.770  11.408
64309W        W36569  36.354  21.102   2.207
64310W        W36570   7.765  22.230  14.274
64311W        W36571  12.340  20.007  12.833
64312W        W36572   0.510  25.976  13.295
64313W        W36573  30.194  16.086  13.732
64314W        W36574  11.386  37.897   1.383
64315W        W36575  18.546  43.488   4.370
64316W        W36576  16.847  25.179   1.341
64317W        W36577  38.327  35.468   2.817
64318W        W36578  37.403  30.563  13.639
64319W        W36579  18.538   4.478  12.984
64320W        W36580  38.607   3.479   3.110
64321W        W36581  22.673  25.098  14.961
64322W        W36582  11.429  29.170   2.752
64323W        W36583  37.337  10.401  11.845
64324W        W36584  35.628  32.772  12.448
64325W        W36585  36.739   9.203   4.334
64326W        W36586  30.627  21.467  12.408
64327W        W36587  41.416  14.363  14.181
64328W        W36588  43.408  28.972  14.731
64329W        W36589  41.265  31.562   3.140
64330W        W36590   3.914  43.172   2.000
64331W        W36591   6.649  35.608  14.483
64332W        W36592  14.178   3.327  14.757
64333W        W36593  10.566  42.839  14.517
64334W        W36594  22.027   3.548  13.910
64335W        W36595   7.989  33.256   1.887
64336W        W36596  40.896  19.669   1.460
64337W        W36597  23.655  13.708   1.287
64338W        W36598   2.341  26.206  14.017
64339W        W36599  39.797  40.691   1.795
64340W        W36600  38.895  16.599  14.898
64341W        W36601  38.009   0.688  10.682
64342W        W36602  23.602  28.609   1.330
64343W        W36603  13.066  28.584   1.862
64344W        W36604  40.605   8.082   5.035
64345W        W36605   9.737   2.356  12.125
64346W        W36606  25.710  31.839  14.369
64347W        W36607  18.789  22.621   1.089
64348W        W36608  38.064  37.973   2.868
64349W        W36609  37.031  17.526   3.313
64350W        W36610   5.652  18.196   3.186
64351W        W36611   1.854   9.177   4.233
64352W        W36612  29.571   7.200   5.125
64353W        W36613  19.294  40.762   3.139
64354W        W36614  38.484  37.969   2.141
64355W        W36615  28.627  28.993  11.573
64356W        W36616  26.179   3.175   0.329
64357W        W36617  40.924  37.332   4.644
64358W        W36618  41.136  41.378  10.786
64359W        W36619  35.979  44.213  13.265
64360W        W36620  11.930  32.325   0.364
64361W        W36621  18.438  18.125  14.927
64362W        W36622   0.391  41.044  11.605
64363W        W36623  40.352  15.704  10.707
64364W        W36624  27.486  19.609   2.163
64365W        W36625   7.223  25.141  12.842
64366W        W36626  10.811   6.361  14.910
64367W        W36627  35.812  30.467   0.780
64368W        W36628   9.717  29.102   3.590
64369W        W36629  22.700  41.113   2.280
64370W        W36630  16.375  36.089  13.846
64371W        W36631   7.888  29.121  14.236
64372W        W36632  17.840  15.625  13.369
64373W        W36633   5.205  43.454   3.200
64374W        W36634  26.075  28.537   2.977
64375W        W36635  43.070  32.552  10.805
64376W        W36636  34.577  34.585  11.597
64377W        W36637  34.594  32.935  13.948
64378W        W36638  10.874  22.987   2.794
64379W        W36639  35.521  44.538   3.839
64380W        W36640  16.662  19.297  13.946
64381W        W36641  19.796  43.756   1.300
64382W        W36642  16.137   6.227   0.994
64383W        W36643  37.295  14.577  13.187
64384W        W36644   8.173  38.031   4.138
64385W        W36645  14.595  18.676   2.747
64386W        W36646   4.441  10.775   2.622
64387W        W36647   3.938   3.859  14.456
64388W        W36648   0.972  41.555   2.748
64389W        W36649  43.114  27.382  14.473
64390W        W36650  32.351   8.623  12.433
64391W        W36651  30.604   0.839  12.378
64392W        W36652   7.379  28.241   0.763
64393W        W36653  16.855  24.077  10.651
64394W        W36654   3.961   9.179  14.390
64395W        W36655  41.020   1.517  12.492
64396W        W36656  33.049  12.368  13.869
64397W        W36657  24.298  22.657  12.069
64398W        W36658  34.573  28.848   0.668
64399W        W36659   8.757  23.125   0.887
64400W        W36660  36.365  39.014  11.297
64401W        W36661  35.989  36.022   2.438
64402W        W36662  14.810   4.267  14.312
64403W        W36663  20.480  10.673   2.883
64404W        W36664  12.646   8.483  12.522
64405W        W36665  41.669  38.694  10.684
64406W        W36666  12.813   5.652   1.920
64407W        W36667  22.710  33.893  14.935
64408W        W36668  16.745  11.396   0.425
64409W        W36669   1.239  36.438  12.063
64410W        W36670  14.267  36.928  10.865
64411W        W36671  34.183  31.137   3.300
64412W        W36672  42.080  33.357  12.903
64413W        W36673  13.233  17.790   3.473
64414W        W36674  36.129  15.190   1.617
64415W        W36675   7.678  21.105   4.616
64416W        W36676   7.719  28.697  13.916
64417W        W36677  38.441  16.976   0.499
64418W        W36678   4.673  36.935  14.912
64419W        W36679  16.230  18.010   2.348
64420W        W36680  24.811  35.249   0.014
64421W        W36681  13.913  36.108   0.987
64422W        W36682  10.811  15.938   3.711
64423W        W36683  38.820  24.091   3.332
64424W        W36684  35.032   4.937   3.555
64425W        W36685  11.396  27.704  12.563
64426W        W36686  10.698   9.441  14.017
64427W        W36687  34.934  24.279   3.093
64428W        W36688  33.850  17.103   0.399
64429W        W36689  10.194  25.800   3.210
64430W        W36690  24.663  43.995  13.766
64431W        W36691   3.802  11.588   2.848
64432W        W36692  42.187  44.853  11.737
64433W        W36693   9.370  13.743  13.390
64434W        W36694   3.175   0.893   4.341
64435W        W36695  31.387  44.901   3.329
64436W        W36696  42.956  27.305  11.865
64437W        W36697  11.647  33.972   4.066
64438W        W36698  16.279  27.035  14.988
64439W        W36699  26.699  21.617  12.057
64440W        W36700  21.805  11.066   2.697
64441W        W36701   2.467  32.959   0.031
64442W        W36702  21.476   9.820  13.475
64443W        W36703  38.093  35.520   1.439
64444W        W36704  23.401   7.831   3.540
64445W        W36705  36.415  42.488  13.912
64446W        W36706   3.225  11.545   0.191
64447W        W36707  31.385  10.088  11.514
64448W        W36708   7.862  28.451  13.464
64449W        W36709   3.647  25.842   1.762
64450W        W36710  20.598  27.575  11.505
64451W        W36711  35.512  25.149  11.955
64452W        W36712  32.982  32.358  11.424
64453W        W36713  21.584  13.176   1.266
64454W        W36714   7.964  39.945   4.226
64455W        W36715  40.277   8.942  10.320
64456W        W36716  23.969  19.142   1.720
64457W        W36717  15.644   5.468   2.499
64458W        W36718  27.744   9.410   2.718
64459W        W36719  15.613  28.548  14.365
64460W        W36720  33.519  26.973   0.855
64461W        W36721   7.931   1.024  11.040
64462W        W36722  19.006  32.815   0.776
64463W        W36723   0.416  39.050  11.416
64464W        W36724  13.103  23.472  12.537
64465W        W36725   9.631  39.820  13.943
64466W        W36726   4.697  36.920   1.252
64467W        W36727  36.362   5.879   0.336
64468W        W36728  14.777  43.045   3.511
64469W        W36729  37.944  15.828  14.393
64470W        W36730  14.152   4.436   1.864
64471W        W36731  21.457  40.687   1.937
64472W        W36732  42.443   4.714   2.143
64473W        W36733  20.558  10.549  14.866
64474W        W36734  23.031  21.562   3.233
64475W        W36735   2.771  27.900   2.981
64476W        W36736   4.097   1.029   4.075
64477W        W36737  29.195   0.811   2.154
64478W        W36738  12.850  34.996  14.348
64479W        W36739  12.806  26.190  14.271
64480W        W36740   9.628  13.209  11.956
64481W        W36741  17.233  27.727  14.972
64482W        W36742  30.445  17.173   1.733
64483W        W36743  20.795  32.624   0.911
64484W        W36744  36.820   2.717  10.524
64485W        W36745   2.060  21.315   4.575
64486W        W36746  42.805  19.671  14.414
64487W        W36747  23.179  21.846  10.618
64488W        W36748  25.066  29.985   2.656
64489W        W36749   3.310  21.238   3.306
64490W        W36750  22.705   8.681  13.998
64491W        W36751  30.552  27.608   2.676
64492W        W36752  18.272  19.517   1.811
64493W        W36753  34.033  26.996   0.838
64494W        W36754   4.855  33.939  14.730
64495W        W36755  30.590  37.845   4.387
64496W        W36756  22.799  15.915  14.320
64497W        W36757  23.964  40.815  14.873
64498W        W36758  35.108  17.469   3.126
64499W        W36759   7.151   5.867   3.276
64500W        W36760  17.008  10.334   1.203
64501W        W36761  14.413  26.718  10.005
64502W        W36762   8.451  10.279  10.529
64503W        W36763  20.456  24.875   1.275
64504W        W36764  36.291  26.494  10.742
64505W        W36765  26.093  11.306   1.171
64506W        W36766  38.463  14.783  10.838
64507W        W36767  20.231  36.320   3.833
64508W        W36768   2.595  11.186  10.666
64509W        W36769  35.649  12.413  13.927
64510W        W36770  19.994  26.059   3.214
64511W        W36771  20.227  41.582  13.040
64512W        W36772  43.751  39.770   3.808
64513W        W36773  13.143  36.214  14.268
64514W        W36774  39.007  11.669  10.632
64515W        W36775  18.218   5.989   5.068
64516W        W36776   6.421  24.499  10.693
64517W        W36777   7.906   9.735  11.193
64518W        W36778   4.748  23.290   3.733
64519W        W36779  26.232  15.063   3.311
64520W        W36780  16.608  34.138   1.846
64521W        W36781  21.723   2.717  12.981
64522W        W36782  18.536  36.591   2.185
64523W        W36783  26.635  33.826  11.078
64524W        W36784  10.919  29.442   0.129
64525W        W36785  29.426  39.061  14.915
64526W        W36786  41.567  44.279  11.148
64527W        W36787   4.273  25.296   3.657
64528W        W36788   0.702  13.701   1.805
64529W        W36789  11.787  43.001   3.292
64530W        W36790   1.467   9.336  13.501
64531W        W36791  37.238  39.023   1.227
64532W        W36792   0.428  29.166   3.042
64533W        W36793  37.288  19.739  11.094
64534W        W36794  12.362  31.464  13.391
64535W        W36795  37.588  42.214  14.283
64536W        W36796   2.828   5.699  10.894
64537W        W36797  17.281  11.224  12.009
64538W        W36798  28.972  29.466  10.628
64539W        W36799  36.250  16.270  12.010
64540W        W36800  33.162   2.723   3.828
64541W        W36801  15.055  27.613   0.016
64542W        W36802   3.828  23.443   3.854
64543W        W36803   7.731  11.287   4.692
64544W        W36804  38.216  39.086   4.719
64545W        W36805  24.068  44.014  12.547
64546W        W36806  15.012   2.335   4.539
64547W        W36807  36.565  15.600  13.926
64548W        W36808  33.112  17.716  13.477
64549W        W36809  12.618  36.436  14.895
64550W        W36810  29.262  33.419  12.379
64551W        W36811   2.792  16.640   0.794
64552W        W36812  19.502  39.811   0.301
64553W        W36813  25.094  31.255   4.132
64554W        W36814  33.089  14.450  11.767
64555W        W36815   4.934  36.473  14.886
64556W        W36816  35.533   6.086  14.731
64557W        W36817  34.906   0.833  11.730
64558W        W36818  33.233  41.205  13.059
64559W        W36819  11.189   3.425   2.449
64560W        W36820   6.295  23.802  11.147
64561W        W36821  11.054  41.536  14.990
64562W        W36822  35.404  27.984  10.760
64563W        W36823  33.527  30.293   1.274
64564W        W36824  26.102  43.877  14.006
64565W        W36825  31.847  12.911   3.073
64566W        W36826   4.927  17.284   4.456
64567W        W36827  26.850  11.421   3.211
64568W        W36828  34.084  38.561  11.066
64569W        W36829  17.041  12.047  11.563
64570W        W36830  20.160   1.014  14.421
64571W        W36831  13.255   7.030   2.660
64572W        W36832  42.860  23.067  13.831
64573W        W36833  13.236  17.034  12.006
64574W        W36834  36.388  38.874  10.797
64575W        W36835  13.310  42.052   1.637
64576W        W36836   4.658  19.731  10.261
64577W        W36837  16.856  25.942  12.059
64578W        W36838  25.737  20.005  12.833
64579W        W36839  38.914  19.884  14.213
64580W        W36840  12.028  37.585   0.368
64581W        W36841  36.893  43.797   2.836
64582W        W36842  19.796  28.203   1.470
64583W        W36843  23.776   5.845   1.686
64584W        W36844  40.080  21.721   3.355
64585W        W36845  10.384   1.529   0.484
64586W        W36846  25.167  24.962  14.402
64587W        W36847  36.050  18.104   1.418
64588W        W36848  16.958  28.848  13.790
64589W        W36849  18.862  31.587   3.688
64590W        W36850  24.758  15.718   3.822
64591W        W36851  16.069  22.223   0.039
64592W        W36852  26.762  31.925   2.323
64593W        W36853  34.164  33.102  14.766
64594W        W36854   8.689  40.302  11.240
64595W        W36855   1.216  31.916  12.921
64596W        W36856  35.523  22.163   1.805
64597W        W36857  18.779  22.052   1.947
64598W        W36858  22.531  19.146  11.405
64599W        W36859  31.056  26.625   1.197
64600W        W36860  22.436  16.659  10.588
64601W        W36861  15.213  36.938  10.870
64602W        W36862  37.443  15.208   0.533
64603W        W36863   1.337  42.513   3.317
64604W        W36864  34.637  19.154  14.447
64605W        W36865  43.897  39.617   2.149
64606W        W36866  24.702  38.312  11.977
64607W        W36867  17.689  35.595  14.780
64608W        W36868   7.353  27.847   2.820
64609W        W36869  36.048  25.177  13.619
64610W        W36870  24.589  33.492   1.707
64611W        W36871  39.504  37.095   4.488
64612W        W36872  26.209   4.823  11.875
64613W        W36873   3.976  12.528  12.026
64614W        W36874  13.274  21.741  12.201
64615W        W36875   5.863  40.555  12.994
64616W        W36876   8.669  40.982   4.050
64617W        W36877  38.657  13.834  11.712
64618W        W36878  36.221  20.454   5.532
64619W        W36879  13.019  26.514   1.278
64620W        W36880  34.194  32.161  14.889
64621W        W36881  14.214  23.228  14.869
64622W        W36882   4.736  17.667  11.936
64623W        W36883  36.825  33.045   0.914
64624W        W36884  29.671  21.017   4.518
64625W        W36885   2.449  41.527   3.337
64626W        W36886  13.229  39.808   2.751
64627W        W36887   7.288  42.797   3.444
64628W        W36888   9.049  21.078   5.114
64629W        W36889   8.212  42.241   1.382
64630W        W36890  11.025  38.826   2.556
64631W        W36891   8.690   5.154  13.112
64632W        W36892  18.076   4.840   4.373
64633W        W36893  34.757  30.693  12.050
64634W        W36894  29.179   9.330   2.430
64635W        W36895   6.868  44.256   1.386
64636W        W36896  21.637   6.666  11.573
64637W        W36897  16.614  29.461   2.153
64638W        W36898  29.872  17.203  14.408
64639W        W36899  44.830   8.152  10.741
64640W        W36900   5.656   0.829  13.605
64641W        W36901  16.184   1.845   3.667
64642W        W36902   9.106  39.778  11.241
64643W        W36903  16.219  39.983   4.539
64644W        W36904  17.128   8.729   0.991
64645W        W36905   3.921  11.886  13.934
64646W        W36906   3.907  33.755  13.322
64647W        W36907  15.818  13.819   2.663
64648W        W36908  11.827  31.526  13.401
64649W        W36909   9.231  15.858   4.811
64650W        W36910  31.027  11.345   1.934
64651W        W36911  20.123   6.841   0.310
64652W        W36912  27.035  35.889   1.209
64653W        W36913  34.832  16.853   1.425
64654W        W36914   3.919  39.436  11.939
64655W        W36915  22.207  16.758  12.453
64656W        W36916  29.419  44.756   2.148
64657W        W36917   6.590   7.325  12.452
64658W        W36918  16.613  43.933  13.887
64659W        W36919  43.299  36.936   2.681
64660W        W36920  12.113  31.161   4.486
64661W        W36921  32.512  43.890  14.326
64662W        W36922   0.488  37.350   1.844
64663W        W36923  31.989  25.535   3.804
64664W        W36924  19.277  25.469  12.165
64665W        W36925  34.294  41.287   0.908
64666W        W36926  21.532   4.580   0.288
64667W        W36927  15.276  30.083   5.524
64668W        W36928  24.118  28.360  12.693
64669W        W36929  10.027  26.733  13.558
64670W        W36930  31.695   6.316  13.802
64671W        W36931  32.664  30.634  11.226
64672W        W36932   5.857  30.259  12.024
64673W        W36933  43.977  23.046   3.703
64674W        W36934  22.919  35.911   0.963
64675W        W36935  20.700  24.239  14.912
64676W        W36936  29.444  15.573   2.146
64677W        W36937   9.724  37.841   1.827
64678W        W36938  40.095  44.825  13.366
64679W        W36939  11.964  25.126  10.461
64680W        W36940  15.678  23.357  10.802
64681W        W36941  14.111  31.815   4.240
64682W        W36942   5.632   8.743   0.854
64683W        W36943   3.219  35.321   3.264
64684W        W36944  20.589  13.718   4.943
64685W        W36945  31.834  26.723  14.279
64686W        W36946  20.229  40.384  10.815
64687W        W36947  40.453   0.507  11.005
64688W        W36948  43.789  41.879   2.096
64689W        W36949  43.334   8.788  14.676
64690W        W36950  27.009  15.772  13.609
64691W        W36951  28.742  37.851   4.128
64692W        W36952  24.270   4.504  10.513
64693W        W36953  31.245   6.418  10.748
64694W        W36954   8.805  39.098  14.854
64695W        W36955   8.450   6.301  11.964
64696W        W36956  16.045   0.877  14.344
64697W        W36957  18.715   3.414  12.028
64698W        W36958   8.377   7.381   3.703
64699W        W36959  12.628  26.873  12.014
64700W        W36960  44.862  30.905   2.726
64701W        W36961   1.726  23.611  10.944
64702W        W36962  14.119   8.413  11.430
64703W        W36963  37.620  29.442   2.319
64704W        W36964  13.332  26.569   0.243
64705W        W36965   8.998  23.970  11.113
64706W        W36966  12.733   4.959   0.854
64707W        W36967  25.310  35.644  11.997
64708W        W36968  11.572  43.529  14.992
64709W        W36969  31.227  32.059   1.444
64710W        W36970  37.355  29.796  13.207
64711W        W36971   5.650   6.419  11.534
64712W        W36972  23.126  25.740  12.763
64713W        W36973  12.299  43.960  10.696
64714W        W36974  30.441  25.152  13.414
64715W        W36975  22.231   2.436  14.559
64716W        W36976   5.642  35.290  10.767
64717W        W36977   7.660  39.981  10.889
64718W        W36978  44.277  24.034   5.029
64719W        W36979  44.391  32.131   4.650
64720W        W36980   9.245   0.824  10.946
64721W        W36981  18.241   4.197  11.287
64722W        W36982   4.490   3.986  12.297
64723W        W36983   9.920  27.175  11.040
64724W        W36984   7.892  17.838   3.589
64725W        W36985  19.267  31.362  14.362
64726W        W36986  19.459  37.161  11.028
64727W        W36987  42.850  22.724   3.432
64728W        W36988  11.250  24.811   0.500
64729W        W36989  29.044  42.907   0.966
64730W        W36990  28.751  15.258  13.032
64731W        W36991   5.690   1.324  11.115
64732W        W36992  27.070   7.244   4.410
64733W        W36993   6.679  41.740  13.022
64734W        W36994  13.665   8.326   3.748
64735W        W36995  31.203  15.563  11.078
64736W        W36996  20.960  44.810  10.623
64737W        W36997  13.763  33.507  10.859
64738W        W36998   1.738  25.955   2.815
64739W        W36999  28.359  39.814   3.168
64740W        W37000  31.638   4.493   1.876
64741W        W37001  16.818   5.255   2.732
64742W        W37002  44.619  11.804   2.882
64743W        W37003  25.584   6.061  11.034
64744W        W37004  20.099  40.534   4.535
64745W        W37005  44.223  31.348   4.018
64746W        W37006  29.880  13.505   3.750
64747W        W37007  22.516   6.189   2.841
64748W        W37008  17.745  11.632   4.271
64749W        W37009  34.632  15.311   0.734
64750W        W37010  23.902   1.354   3.687
64751W        W37011  35.498   1.405   1.744
64752W        W37012   0.996  37.671   0.250
64753W        W37013  39.994  24.158  11.913
64754W        W37014  30.503  26.563   3.172
64755W        W37015  23.564  31.184   3.227
64756W        W37016   3.044  24.558   2.732
64757W        W37017   1.483  29.441  11.150
64758W        W37018  20.540   0.755   1.798
64759W        W37019  24.973  11.565  13.370
64760W        W37020  17.372  11.740   2.655
64761W        W37021  12.063  18.208   0.294
64762W        W37022   6.208  38.686  13.513
64763W        W37023   7.431  25.238  10.995
64764W        W37024   4.471  31.413   4.146
64765W        W37025  15.371  17.384  10.255
64766W        W37026  17.062  20.947  13.555
64767W        W37027   9.961  30.183   4.123
64768W        W37028  10.918  31.738   1.327
64769W        W37029  41.439  10.188   1.304
64770W        W37030  30.941  37.589  14.578
64771W        W37031  42.318  10.737  13.348
64772W        W37032  33.168  18.430  10.996
64773W        W37033  36.460  15.300   0.477
64774W        W37034  44.042  11.632  13.818
64775W        W37035  25.072  21.752  11.889
64776W        W37036   1.876   3.852   3.124
64777W        W37037  33.171  12.153  11.481
64778W        W37038   5.457   4.556  11.079
64779W        W37039  41.839  33.185  11.480
64780W        W37040  21.040  10.718   3.746
64781W        W37041   5.972  18.572  13.929
64782W        W37042  16.178   8.372  10.749
64783W        W37043  29.408   2.270  11.157
64784W        W37044  19.707  33.000  14.988
64785W        W37045  35.529  22.228  11.191
64786W        W37046  11.444  18.750  14.794
64787W        W37047  32.159   6.098  13.522
64788W        W37048  13.285   5.390  11.979
64789W        W37049  39.849  15.102  11.161
64790W        W37050  40.121  26.419   1.856
64791W        W37051   7.952  42.198  14.796
64792W        W37052  24.305  37.850  14.001
64793W        W37053  39.375  36.579   2.793
64794W        W37054  23.997  13.200  13.032
64795W        W37055  10.635  29.174   1.858
64796W        W37056  15.692   1.791  14.943
64797W        W37057  32.142  39.681  14.170
64798W        W37058  21.411   2.838  12.569
64799W        W37059   3.754  43.994  12.143
64800W        W37060  30.194  33.111  11.954
64801W        W37061   3.089  31.970  14.306
64802W        W37062   0.677  13.726  11.957
64803W        W37063   2.068   4.478  13.551
64804W        W37064   3.020   7.775   4.239
64805W        W37065   9.635  17.220   4.487
64806W        W37066  37.686  15.306   4.652
64807W        W37067  36.091  17.233  14.386
64808W        W37068  43.903  13.370   1.940
64809W        W37069  42.962  25.679  11.647
64810W        W37070  25.967  32.354  14.207
64811W        W37071  20.743  42.777  14.941
64812W        W37072  22.787  24.293   3.415
64813W        W37073  14.777   7.348  13.565
64814W        W37074  41.475  29.144   3.658
64815W        W37075  15.642  20.573  11.950
64816W        W37076  35.150  34.534  10.594
64817W        W37077  32.170  44.668  11.736
64818W        W37078  38.082  40.544  10.708
64819W        W37079   0.880  30.648  12.102
64820W        W37080   4.492  19.592  13.584
64821W        W37081  26.179   1.721   3.692
64822W        W37082   1.447  36.012  13.379
64823W        W37083  43.163  42.930   4.668
64824W        W37084  23.984  13.316   3.941
64825W        W37085  42.091  29.512  11.646
64826W        W37086  13.860  32.664  13.697
64827W        W37087  32.582  11.595  10.330
64828W        W37088   6.425   5.977   3.658
64829W        W37089  14.294  38.281  13.959
64830W        W37090  29.000   1.774  10.785
64831W        W37091  21.755   0.290  13.404
64832W        W37092  21.697  24.464  10.626
64833W        W37093   5.230  32.158  13.954
64834W        W37094  20.178  18.668  13.890
64835W        W37095  16.346  42.989   0.983
64836W        W37096  11.319  39.149   1.611
64837W        W37097  25.148  11.849  13.820
64838W        W37098  18.564  41.501  13.112
64839W        W37099  30.616   3.025  13.777
64840W        W37100  35.038  19.051   0.773
64841W        W37101  33.739  30.434  10.360
64842W        W37102  40.274  35.419   2.492
64843W        W37103  18.052   5.869   4.593
64844W        W37104   8.196  16.605  14.407
64845W        W37105  44.442  36.306   0.062
64846W        W37106   2.791  24.217  11.660
64847W        W37107  10.370  42.087  12.696
64848W        W37108  40.817  16.381  11.688
64849W        W37109   7.787  29.638  12.488
64850W        W37110   8.230  23.279  10.533
64851W        W37111  35.465  32.298  14.470
64852W        W37112  41.695  42.778  14.349
64853W        W37113  11.710  28.494   4.654
64854W        W37114  14.595   7.860   2.691
64855W        W37115  20.026  16.192  11.479
64856W        W37116  34.575  26.821   0.260
64857W        W37117  20.036  38.116  13.950
64858W        W37118   4.858   5.139   4.424
64859W        W37119  31.715  19.701  11.113
64860W        W37120  19.994   3.813   1.697
64861W        W37121  29.019  23.861   2.267
64862W        W37122  40.096  23.113  14.442
64863W        W37123  15.766  38.585  11.279
64864W        W37124  20.049  17.555  13.953
64865W        W37125  24.205  36.514   0.808
64866W        W37126  42.983  40.772  12.543
64867W        W37127  25.578  29.353   4.844
64868W        W37128  24.596  22.325   0.243
64869W        W37129   5.206  14.038   3.306
64870W        W37130  16.870   5.007   1.350
64871W        W37131  14.214  26.703   0.765
64872W        W37132   2.741   5.904  12.354
64873W        W37133  38.187   9.488  10.253
64874W        W37134  12.188  40.880  14.716
64875W        W37135  42.170  18.254   1.906
64876W        W37136  38.773  23.205   3.645
64877W        W37137   6.424  18.483   1.120
64878W        W37138  41.108   4.321   2.265
64879W        W37139  14.011  15.645   1.415
64880W        W37140  30.262  26.254  14.337
64881W        W37141  41.553  30.898   0.956
64882W        W37142  38.638  21.728   1.941
64883W        W37143  32.240  40.675   5.042
64884W        W37144  35.003   9.688   4.393
64885W        W37145  44.410  31.376  13.042
64886W        W37146  43.077  29.587   0.721
64887W        W37147   2.339  17.490   4.490
64888W        W37148  42.981  39.901  10.945
64889W        W37149  18.714  37.884   2.585
64890W        W37150  42.708  21.276   1.849
64891W        W37151  15.288  42.302  13.087
64892W        W37152  26.025  29.014   1.712
64893W        W37153  21.175  36.393   0.987
64894W        W37154  27.201  33.007   4.251
64895W        W37155  16.752   2.292   0.892
64896W        W37156  22.039  14.252  11.485
64897W        W37157  34.124  43.293   3.553
64898W        W37158   8.593  28.598   2.653
64899W        W37159  17.066   7.722   4.838
64900W        W37160  15.610   1.772  13.368
64901W        W37161   7.401  25.929   2.245
64902W        W37162  31.482   9.442  12.584
64903W        W37163  25.036  39.927   0.005
64904W        W37164  22.445  44.858   4.667
64905W        W37165  14.685  19.518  13.468
64906W        W37166  20.013  22.563   1.203
64907W        W37167  29.959   5.783  13.053
64908W        W37168  35.903   7.282   2.215
64909W        W37169  26.495  40.495   2.354
64910W        W37170  23.123  21.106  11.150
64911W        W37171  16.687  43.491   4.601
64912W        W37172  30.490  13.904  14.466
64913W        W37173   3.702  34.539  13.536
64914W        W37174  10.169   4.832  12.395
64915W        W37175  20.466  27.941  11.181
64916W        W37176  40.285  10.679   0.700
64917W        W37177  42.955  30.982  12.286
64918W        W37178  20.989   7.576  12.116
64919W        W37179  19.457  13.145   3.593
64920W        W37180   0.296  21.608  12.551
64921W        W37181   9.832  31.437   0.216
64922W        W37182   1.918  38.762  13.063
64923W        W37183  12.293  34.947  13.188
64924W        W37184  44.641  24.723  11.510
64925W        W37185  16.610   9.308   3.960
64926W        W37186  33.177  21.601   1.273
64927W        W37187  44.320   8.818   5.092
64928W        W37188  29.340  30.125  12.890
64929W        W37189   8.229  37.036   1.489
64930W        W37190  24.208  25.560  13.547
64931W        W37191  10.548  25.530  12.418
64932W        W37192  11.430  24.030   0.319
64933W        W37193  31.069  36.973   1.839
64934W        W37194  31.021  41.961   1.761
64935W        W37195  37.865  16.656   4.906
64936W        W37196  29.816  17.304   1.879
64937W        W37197   5.827  23.494   3.792
64938W        W37198   4.323  35.848  12.398
64939W        W37199   3.228  43.278  11.697
64940W        W37200  13.327  24.208  13.951
64941W        W37201   6.717  37.870   0.912
64942W        W37202  18.343   3.816  13.408
64943W        W37203  36.999  39.410   4.553
64944W        W37204   3.402  30.661  13.500
64945W        W37205  17.191  38.517   1.751
64946W        W37206   6.500  26.993  12.201
64947W        W37207  13.539  42.283  11.936
64948W        W37208  26.731  43.463   4.520
64949W        W37209   1.726  41.471   1.261
64950W        W37210   4.909  21.655   4.293
64951W        W37211  13.804  28.899  13.456
64952W        W37212   6.798  21.193  12.500
64953W        W37213  39.004  25.186  10.372
64954W        W37214  22.005  28.786   1.889
64955W        W37215  16.990  19.600   0.387
64956W        W37216  21.173  26.998  11.157
64957W        W37217  18.431   2.943  12.579
64958W        W37218  42.108  13.627  12.621
64959W        W37219  41.851   6.993  13.436
64960W        W37220  24.116   1.225   4.243
64961W        W37221  26.858  44.402  12.131
64962W        W37222  28.560  18.011   1.222
64963W        W37223   5.255  28.409  14.892
64964W        W37224  34.832  32.939  10.665
64965W        W37225   3.284  27.523   1.283
64966W        W37226  16.213  27.605  11.590
64967W        W37227   9.583  36.898   0.516
64968W        W37228  16.370   8.818   2.183
64969W        W37229  43.260  14.862  11.472
64970W        W37230   0.713  35.024  13.353
64971W        W37231   7.714  25.551  14.772
64972W        W37232  43.688   8.664  12.837
64973W        W37233  20.671   8.642   1.869
64974W        W37234   4.634  24.597   2.326
64975W        W37235   9.393   6.268  13.457
64976W        W37236  26.924  39.065   0.958
64977W        W37237  15.383  14.758  10.642
64978W        W37238  24.629  14.806   2.733
64979W        W37239  30.540   0.348  13.927
64980W        W37240  16.122  37.967  14.454
64981W        W37241   7.408  30.423   1.061
64982W        W37242  13.222  25.316   3.528
64983W        W37243  42.022  42.798   3.837
64984W        W37244  42.211  12.659  12.343
64985W        W37245   1.811  16.817  13.092
64986W        W37246  18.442  27.855   0.964
64987W        W37247   1.181   5.986  11.247
64988W        W37248   7.677   7.393   0.523
64989W        W37249  38.329  40.060   2.144
64990W        W37250  14.790  39.414   4.097
64991W        W37251  34.744   8.879   5.051
64992W        W37252  29.200  18.242  10.542
64993W        W37253   2.342  32.557   4.360
64994W        W37254  38.569  40.483  14.472
64995W        W37255  39.445  19.521  14.816
64996W        W37256  32.661   2.045   2.900
64997W        W37257  33.688  12.797  12.072
64998W        W37258  42.969  44.216  12.863
64999W        W37259   2.202  10.285  10.462
65000W        W37260  18.510  35.657   2.390
65001W        W37261  31.031   5.201  14.446
65002W        W37262  29.223  23.683  13.023
65003W        W37263  39.615  19.635   0.817
65004W        W37264  19.494  29.478   0.403
65005W        W37265  21.118  44.722  13.869
65006W        W37266  26.751  37.524  11.551
65007W        W37267  31.217  42.041   3.205
65008W        W37268  33.741   2.225   0.048
65009W        W37269  16.069  29.373   4.560
65010W        W37270  26.889  40.651  10.155
65011W        W37271  31.551   5.925   1.806
65012W        W37272  32.380  26.307   0.252
65013W        W37273   2.457   5.816  11.446
65014W        W37274  39.063   9.698  10.162
65015W        W37275  41.292  29.690  12.837
65016W        W37276  19.214  12.947   3.189
65017W        W37277  27.849  13.446  12.256
65018W        W37278  19.183  37.082   5.251
65019W        W37279   1.734  35.954  11.630
65020W        W37280  39.866  35.625   2.185
65021W        W37281  21.680  29.884  11.564
65022W        W37282  40.144  42.295  12.334
65023W        W37283   2.724  18.343  11.595
65024W        W37284  33.440  18.316   4.625
65025W        W37285   9.340  21.813   0.276
65026W        W37286  19.670  14.812   2.415
65027W        W37287   6.650  40.355   3.282
65028W        W37288  15.101  10.959   1.297
65029W        W37289  17.573  29.699  12.087
65030W        W37290  39.315  28.186   1.522
65031W        W37291  18.774  27.023  10.099
65032W        W37292  38.380  42.313   0.001
65033W        W37293  34.811  33.099   2.793
65034W        W37294  23.454  10.113   0.359
65035W        W37295  38.904  29.647   0.918
65036W        W37296  12.233  26.191   0.003
65037W        W37297  38.383  31.242   2.226
65038W        W37298  43.248   1.181  11.882
65039W        W37299  38.931  27.907   0.255
65040W        W37300  38.506   5.184   4.477
65041W        W37301  39.191  27.921  14.325
65042W        W37302  22.543  41.472   0.838
65043W        W37303   7.446   6.287   3.191
65044W        W37304   7.399   3.465   1.302
65045W        W37305  42.310   7.689   0.870
65046W        W37306  28.101  35.066  14.250
65047W        W37307   1.420  24.781  11.207
65048W        W37308  12.694  14.258   0.890
65049W        W37309  44.633  14.784   4.415
65050W        W37310   2.945  33.459  13.390
65051W        W37311  16.312  15.825   4.790
65052W        W37312  12.872  33.558  10.851
65053W        W37313  38.379  14.091  14.749
65054W        W37314  23.836  43.206   0.206
65055W        W37315  39.510  33.335   1.764
65056W        W37316  23.113   8.348   4.412
65057W        W37317  29.177  38.053  11.494
65058W        W37318  32.751  37.128  12.959
65059W        W37319  18.936  20.158  14.938
65060W        W37320  22.465  29.000  11.964
65061W        W37321  23.289  34.782   1.502
65062W        W37322   7.267  27.220  11.562
65063W        W37323   6.684   4.716   3.762
65064W        W37324   4.729  34.463   1.869
65065W        W37325   4.940   4.194  12.181
65066W        W37326   8.559  18.952  14.898
65067W        W37327   3.925  31.456   4.118
65068W        W37328  16.158  10.246  14.774
65069W        W37329   7.156  24.153  12.432
65070W        W37330  33.969  32.204  14.410
65071W        W37331  23.985  34.849   4.052
65072W        W37332  44.410  36.348  11.930
65073W        W37333  29.485   9.326  10.925
65074W        W37334   6.911   9.808   4.578
65075W        W37335  14.506  32.758  12.869
65076W        W37336  30.425  13.584  10.646
65077W        W37337   4.997  34.053   4.238
65078W        W37338   6.078  41.486  14.767
65079W        W37339   5.241  30.347   2.818
65080W        W37340  41.176  23.773  14.090
65081W        W37341  18.055   8.755   0.719
65082W        W37342  41.396  42.863   2.561
65083W        W37343   7.797  35.922   4.093
65084W        W37344  44.841   4.869  12.666
65085W        W37345  44.987  15.520   0.260
65086W        W37346   3.083   1.860  11.505
65087W        W37347  34.892  20.191   0.197
65088W        W37348  21.459  21.502   3.201
65089W        W37349  40.862  19.135  11.828
65090W        W37350  38.728   1.528  12.351
65091W        W37351  23.191  33.672  14.989
65092W        W37352   8.409  38.972  11.300
65093W        W37353   5.151  38.934   3.811
65094W        W37354  21.653   4.154  11.008
65095W        W37355   7.143  23.282  14.907
65096W        W37356  13.336   6.629  10.463
65097W        W37357  25.685  38.714   4.252
65098W        W37358  31.571  13.625  12.919
65099W        W37359   9.278  15.572   3.427
65100W        W37360   4.469  25.817  14.750
65101W        W37361  42.892  21.193  13.003
65102W        W37362  15.245   9.385   1.479
65103W        W37363  10.966  35.049  13.951
65104W        W37364  14.558  24.745   2.376
65105W        W37365  24.680  39.156   2.747
65106W        W37366   3.776  10.876  14.006
65107W        W37367  28.510  30.393  13.344
65108W        W37368  30.484  15.132   1.329
65109W        W37369   6.935   0.705  11.849
65110W        W37370   1.805  32.127  13.744
65111W        W37371  15.181  18.608  12.978
65112W        W37372  23.075  16.389  14.643
65113W        W37373  35.041  31.122  13.843
65114W        W37374  37.635  34.398  11.556
65115W        W37375  29.442  44.765   0.912
65116W        W37376  33.562  20.085   4.241
65117W        W37377   6.894  34.928  14.273
65118W        W37378  19.662  40.515   1.500
65119W        W37379  42.448  37.022   3.868
65120W        W37380  20.776  28.230   3.218
65121W        W37381  26.596  21.109  12.045
65122W        W37382   6.298  31.802   1.869
65123W        W37383  36.866   2.411   0.504
65124W        W37384  41.865  29.518   3.968
65125W        W37385  17.508  36.052   0.484
65126W        W37386  29.824   0.837  11.064
65127W        W37387  27.358  41.028  13.013
65128W        W37388  44.880   3.177   5.003
65129W        W37389  44.197   3.845   1.969
65130W        W37390  10.809  35.209  11.142
65131W        W37391  21.015   9.972  11.665
65132W        W37392  17.373   4.494  13.845
65133W        W37393  17.717   8.071   3.361
65134W        W37394  36.481   0.199   0.325
65135W        W37395  40.475  27.410  11.219
65136W        W37396  13.710  35.793  10.273
65137W        W37397  16.250  10.299  12.846
65138W        W37398   8.287  16.109   1.178
65139W        W37399  10.563  38.297  12.115
65140W        W37400  44.397   0.099  11.338
65141W        W37401  32.118  39.875   0.345
65142W        W37402  13.723  31.623   3.035
65143W        W37403  40.044  39.922   3.265
65144W        W37404  21.538  18.983   0.805
65145W        W37405  37.764   6.923   2.872
65146W        W37406  25.758  21.650   0.019
65147W        W37407  14.567   7.842   0.893
65148W        W37408  31.642  41.157  12.975
65149W        W37409   1.497  35.481   2.216
65150W        W37410  16.761   0.847  11.323
65151W        W37411  33.140  32.007   1.248
65152W        W37412  30.567  11.614   1.799
65153W        W37413  26.848  18.677   4.192
65154W        W37414   8.884  26.694   5.097
65155W        W37415   3.695  22.081  12.493
65156W        W37416  13.695   4.949   3.999
65157W        W37417  20.070  10.677   0.761
65158W        W37418   6.631  24.535  14.904
65159W        W37419   8.913  14.259   3.126
65160W        W37420  19.134   3.790  11.020
65161W        W37421  19.330   7.328  11.471
65162W        W37422  37.116  38.904  13.376
65163W        W37423   8.825  40.855  13.408
65164W        W37424  23.037  17.232  10.424
65165W        W37425  17.816  25.197  14.983
65166W        W37426  14.323  44.001   0.845
65167W        W37427   9.685   5.468   1.937
65168W        W37428  20.454  32.479  14.065
65169W        W37429  26.475  39.049   0.226
65170W        W37430  23.546  10.198  14.368
65171W        W37431  28.038  16.256  14.895
65172W        W37432  43.352  32.612  13.791
65173W        W37433  29.138  17.098   3.668
65174W        W37434  25.228  27.311  14.435
65175W        W37435  19.543  21.281   1.815
65176W        W37436  33.241   5.894   5.064
65177W        W37437  29.504  33.121  13.463
65178W        W37438  14.109  27.917  11.937
65179W        W37439  18.564   4.233   3.736
65180W        W37440  17.351  26.660   2.758
65181W        W37441  25.475   9.985   3.630
65182W        W37442  22.807  32.418   4.160
65183W        W37443  22.018  30.034   0.634
65184W        W37444   8.220  36.073  11.414
65185W        W37445  12.277  31.332   2.755
65186W        W37446  27.979  11.356  12.244
65187W        W37447  37.477  20.641  12.917
65188W        W37448  32.945  31.517   1.251
65189W        W37449  43.700  37.887  14.716
65190W        W37450   7.790  25.759  10.499
65191W        W37451  39.467   4.201   1.656
65192W        W37452  26.776   8.594   9.925
65193W        W37453  22.799  40.471   0.824
65194W        W37454  31.934   7.883   0.242
65195W        W37455  29.092  18.619  13.148
65196W        W37456  12.797  30.813   2.212
65197W        W37457  20.309   8.351   1.250
65198W        W37458  16.073  26.387   1.249
65199W        W37459   1.251   4.036  10.802
65200W        W37460  34.615  40.841  13.048
65201W        W37461   9.353  20.938  14.418
65202W        W37462   3.501  28.074   0.273
65203W        W37463  39.672   0.403  11.452
65204W        W37464  39.602   8.807  13.410
65205W        W37465  29.732  28.695  11.967
65206W        W37466  19.219   3.171   4.858
65207W        W37467  39.610  12.662   5.057
65208W        W37468  26.040  28.937   2.666
65209W        W37469  19.870  42.291   4.285
65210W        W37470  39.857  11.468   3.783
65211W        W37471  37.400  38.094  13.520
65212W        W37472  13.263  21.742  12.720
65213W        W37473  35.152  16.209   2.404
65214W        W37474   2.975  35.098  12.549
65215W        W37475  36.702   0.817  10.988
65216W        W37476   4.268   5.606   3.220
65217W        W37477  13.204  20.240   0.425
65218W        W37478  28.166  14.518   4.202
65219W        W37479  14.343  21.619   2.874
65220W        W37480  18.034  24.661   4.300
65221W        W37481  13.706   0.523  14.065
65222W        W37482  29.621  36.366   4.170
65223W        W37483  33.449  43.970   3.097
65224W        W37484  19.510  18.033  11.570
65225W        W37485   7.421  30.610   2.052
65226W        W37486  40.540   7.258  13.392
65227W        W37487  23.711   4.965   4.164
65228W        W37488  37.514  18.555  13.809
65229W        W37489   4.640  24.162  14.288
65230W        W37490   1.800   1.286   0.557
65231W        W37491   2.314   6.020   5.064
65232W        W37492  16.599  30.156   4.801
65233W        W37493   9.909  15.763  10.727
65234W        W37494  38.612  19.015   0.440
65235W        W37495  38.505  16.017   0.408
65236W        W37496  14.518  43.847   2.215
65237W        W37497  21.601  44.331   0.278
65238W        W37498  22.196  18.109   3.341
65239W        W37499  14.278  42.745  11.227
65240W        W37500   7.714  36.387  13.032
65241W        W37501  26.213  13.846  14.143
65242W        W37502  32.954   6.718  12.852
65243W        W37503  41.080  22.515  14.810
65244W        W37504   8.175  41.483   0.319
65245W        W37505  24.195  21.283  14.263
65246W        W37506  31.310  33.087  13.335
65247W        W37507  28.924  32.939   2.290
65248W        W37508  30.224  10.983  10.448
65249W        W37509  40.030  19.601   0.517
65250W        W37510   3.427  40.388  14.889
65251W        W37511   7.423  41.817  14.968
65252W        W37512  24.818  17.691  11.512
65253W        W37513   2.761  43.294   4.324
65254W        W37514  33.942  17.269   1.350
65255W        W37515   7.700   7.390  14.384
65256W        W37516  27.974  21.023   3.734
65257W        W37517  19.032  33.193  12.938
65258W        W37518  41.451  28.410  11.119
65259W        W37519  42.089  30.005   3.350
65260W        W37520  27.813  44.584  13.773
65261W        W37521  27.527   5.902  11.574
65262W        W37522  14.289  44.728   2.370
65263W        W37523  29.258  22.156  10.871
65264W        W37524  35.606  29.679  12.909
65265W        W37525  36.126  22.580   2.328
65266W        W37526  11.172  23.509   3.601
65267W        W37527  24.431  44.308   2.359
65268W        W37528  10.721  21.210  13.873
65269W        W37529  44.704   9.559  14.061
65270W        W37530  29.980  25.552   4.650
65271W        W37531  39.300  20.636   3.258
65272W        W37532   0.481  10.783   4.480
65273W        W37533  27.671  40.645   9.820
65274W        W37534  20.542  28.025  12.928
65275W        W37535   1.293  16.692   3.541
65276W        W37536  24.116  32.454  14.268
65277W        W37537  23.198  22.165   0.419
65278W        W37538  30.370  29.499  13.775
65279W        W37539  13.054  35.316   4.429
65280W        W37540  25.554  24.130   0.589
65281W        W37541  17.194  29.129  14.148
65282W        W37542   9.142  34.877  11.455
65283W        W37543  40.783  34.514   0.850
65284W        W37544  33.210  30.982  13.036
65285W        W37545  41.982   0.952   1.945
65286W        W37546   0.716  36.446   1.934
65287W        W37547  35.283   5.491  11.670
65288W        W37548   5.827  20.521  14.412
65289W        W37549  10.266  40.669  12.970
65290W        W37550  27.144  11.219  14.127
65291W        W37551  14.778  29.447  11.531
65292W        W37552   2.260   6.525  13.468
65293W        W37553  32.980  42.344  14.444
65294W        W37554   3.426  33.178  11.650
65295W        W37555  11.633  42.008   0.429
65296W        W37556  42.389   4.035  14.079
65297W        W37557  32.034  44.141  13.952
65298W        W37558   9.705  24.539  11.686
65299W        W37559  15.573   1.026  12.934
65300W        W37560   7.173  35.621  14.514
65301W        W37561   7.489  15.939  14.715
65302W        W37562  43.848  25.909   2.908
65303W        W37563  41.779   4.163  11.986
65304W        W37564  23.495  27.207  13.957
65305W        W37565  23.282  37.165  13.481
65306W        W37566  23.154   0.374  10.807
65307W        W37567  23.046  25.485   2.284
65308W        W37568  22.690  41.861   4.709
65309W        W37569   1.823  32.651  13.051
65310W        W37570   6.810  13.572   1.523
65311W        W37571   3.687   0.128   3.270
65312W        W37572  29.444   7.689  14.282
65313W        W37573  40.868  37.448  13.852
65314W        W37574  33.016   8.334   3.694
65315W        W37575  16.762  31.036   2.835
65316W        W37576  26.701  32.927   1.264
65317W        W37577  43.333  17.593  13.462
65318W        W37578  28.851   7.174   1.383
65319W        W37579  28.154  23.227   0.855
65320W        W37580  16.340  33.328   1.144
65321W        W37581   9.795  18.521  11.885
65322W        W37582  17.365   1.877  13.096
65323W        W37583  39.465   9.099   2.760
65324W        W37584   2.252   9.244   1.426
65325W        W37585  24.164  28.613  10.163
65326W        W37586  40.396   2.937  13.805
65327W        W37587   2.448  33.785  10.047
65328W        W37588  24.333  35.543   1.653
65329W        W37589  27.132  16.152  12.102
65330W        W37590  25.460  41.580   1.525
65331W        W37591  13.482  35.132   4.194
65332W        W37592  32.093  16.042   3.913
65333W        W37593  25.231   5.408  14.473
65334W        W37594  43.474  32.601   1.820
65335W        W37595  22.780   9.235  14.952
65336W        W37596  15.269   1.758   3.714
65337W        W37597  29.132  19.071   1.756
65338W        W37598  26.798  28.036  14.254
65339W        W37599  32.317  36.436   4.114
65340W        W37600   4.256  34.364   2.837
65341W        W37601  44.479   2.557  13.062
65342W        W37602  25.487  21.830   4.041
65343W        W37603  33.045  30.888   4.446
65344W        W37604  37.403  16.737   1.214
65345W        W37605  13.812  10.066  14.450
65346W        W37606  33.576  43.967   4.126
65347W        W37607   1.706   2.151  14.945
65348W        W37608   1.919  20.760  11.155
65349W        W37609  44.880  13.356  14.335
65350W        W37610  35.294  23.665  14.057
65351W        W37611  40.376  17.829   2.068
65352W        W37612   2.281  27.223   2.675
65353W        W37613  23.613  28.868  13.334
65354W        W37614  28.396  15.334  11.145
65355W        W37615  39.926   8.617   1.303
65356W        W37616   8.315  31.569   1.694
65357W        W37617   8.847  15.229  14.874
65358W        W37618  37.883  43.254   4.341
65359W        W37619  27.553  43.497  10.645
65360W        W37620  29.752  14.616   4.197
65361W        W37621  14.612   0.196   2.639
65362W        W37622  41.337  36.097  14.342
65363W        W37623   4.412  40.837   0.216
65364W        W37624  35.468  41.226  14.007
65365W        W37625  18.579  20.254  13.926
65366W        W37626  40.685  21.383  11.616
65367W        W37627  37.041   5.935  12.469
65368W        W37628   7.343   5.361   2.187
65369W        W37629  41.043  34.542  11.576
65370W        W37630   5.621  24.695  11.564
65371W        W37631  35.099  13.694  13.622
65372W        W37632  10.756  37.467  10.225
65373W        W37633  15.724  17.333   1.228
65374W        W37634  10.597  36.571  11.611
65375W        W37635  35.356   2.936  12.986
65376W        W37636  38.392  13.634   4.455
65377W        W37637  33.632   1.465  11.174
65378W        W37638  32.104   4.261   0.113
65379W        W37639  44.875   1.999   3.066
65380W        W37640   0.418  43.687   4.265
65381W        W37641  15.886   0.773   2.355
65382W        W37642   5.438  11.351   2.302
65383W        W37643  42.863  27.004   4.616
65384W        W37644  38.852  42.236  11.119
65385W        W37645  11.784   4.806  12.540
65386W        W37646  28.215  34.022   3.801
65387W        W37647  33.950  38.648  14.965
65388W        W37648  38.129  39.993   2.616
65389W        W37649  19.533  34.373  14.876
65390W        W37650  24.904  33.343  14.394
65391W        W37651  26.939  29.792   3.193
65392W        W37652  39.103  34.989  14.055
65393W        W37653  24.138  40.927   5.356
65394W        W37654  43.874  27.196   2.224
65395W        W37655  36.069  33.807  11.571
65396W        W37656  21.086  32.677   4.640
65397W        W37657  38.838  32.902   0.197
65398W        W37658  34.452   0.840   1.324
65399W        W37659  31.516  13.077   0.351
65400W        W37660   0.410   3.539  14.753
65401W        W37661  12.254   2.508  12.125
65402W        W37662   5.401  43.907   2.460
65403W        W37663  18.899  20.059   4.913
65404W        W37664  11.179  42.458  13.018
65405W        W37665  23.157  23.940   3.330
65406W        W37666   0.462   0.756  14.894
65407W        W37667  27.740  38.281   0.257
65408W        W37668  12.723  11.820   1.042
65409W        W37669   7.930   5.763  12.612
65410W        W37670  32.184  44.351   0.649
65411W        W37671   4.924  11.945  11.938
65412W        W37672   4.906  38.316   1.201
65413W        W37673  26.020  16.725   3.104
65414W        W37674   6.665  28.391   2.316
65415W        W37675  35.949  42.757  12.467
65416W        W37676   6.952  11.631  11.123
65417W        W37677  29.983  22.487  12.916
65418W        W37678  24.460  41.415  11.136
65419W        W37679  26.553  25.117   0.753
65420W        W37680   0.616  18.121   9.984
65421W        W37681  16.763  41.597  13.058
65422W        W37682   2.401   9.630   2.313
65423W        W37683  14.627  33.634   1.789
65424W        W37684  13.837   1.908   4.144
65425W        W37685  26.985  36.250  11.211
65426W        W37686  34.503  24.215  10.453
65427W        W37687  34.036   9.573  12.917
65428W        W37688  18.174  28.973  14.427
65429W        W37689  29.630  18.251   2.815
65430W        W37690  14.778  40.922  14.301
65431W        W37691   9.772  10.635   2.258
65432W        W37692  27.048  38.061  12.445
65433W        W37693   8.387  19.079  12.047
65434W        W37694  28.398  19.421  11.088
65435W        W37695  27.554  39.782  14.636
65436W        W37696  19.193  32.121  12.007
65437W        W37697   9.301  15.846  12.946
65438W        W37698  11.287  15.656   1.853
65439W        W37699  17.630  43.516   3.640
65440W        W37700   2.275  39.817   0.881
65441W        W37701  25.047  18.521  10.722
65442W        W37702  18.223  30.994  10.974
65443W        W37703  20.175   2.785   3.737
65444W        W37704  21.898  22.182  12.982
65445W        W37705  44.714   2.777  14.394
65446W        W37706  41.720  28.893  13.080
65447W        W37707  13.614   6.653   4.804
65448W        W37708  18.792  14.326   0.537
65449W        W37709   0.844  27.537   3.316
65450W        W37710  12.246  26.978   1.305
65451W        W37711   7.127  39.446  12.060
65452W        W37712  36.378  37.960   1.436
65453W        W37713   7.889  29.535   3.725
65454W        W37714  25.565   9.480   3.557
65455W        W37715  21.312  30.554   0.354
65456W        W37716  34.678  15.775   1.885
65457W        W37717  12.137  40.866   0.732
65458W        W37718  19.181   5.643  10.569
65459W        W37719  42.369  40.822  12.009
65460W        W37720  35.359  43.488   4.643
65461W        W37721  20.824  16.741  12.818
65462W        W37722  40.400   3.906   1.705
65463W        W37723  23.064   9.448   2.725
65464W        W37724  35.631  20.709   0.800
65465W        W37725  24.191  41.194  10.271
65466W        W37726   2.668   8.839   4.770
65467W        W37727  18.277  20.870  13.060
65468W        W37728  42.953   8.435   2.589
65469W        W37729   7.915  13.728   0.267
65470W        W37730  28.689   4.403   2.913
65471W        W37731   0.334   3.484   4.190
65472W        W37732  27.150  12.634   0.889
65473W        W37733  39.652  14.468   1.759
65474W        W37734  28.610  40.357   3.197
65475W        W37735  44.242  14.645   0.705
65476W        W37736  14.771  40.982   3.313
65477W        W37737  16.053  44.704   1.278
65478W        W37738  19.213   7.781  11.633
65479W        W37739   8.827  29.985  13.913
65480W        W37740   6.697  15.412   1.660
65481W        W37741  44.534   0.887  13.066
65482W        W37742  36.277   2.272  14.233
65483W        W37743  10.612  34.109  13.913
65484W        W37744  18.598  10.486  11.864
65485W        W37745  27.444  19.313  11.109
65486W        W37746  12.580  41.637   4.029
65487W        W37747  43.440  26.305   5.093
65488W        W37748   9.302  35.328  13.829
65489W        W37749  40.308  44.597   3.111
65490W        W37750  10.269  11.575  13.409
65491W        W37751  39.424  16.655  12.853
65492W        W37752   7.223  31.675  12.648
65493W        W37753  23.625   1.367   3.186
65494W        W37754  11.739   4.769   1.717
65495W        W37755  10.455  17.534   2.531
65496W        W37756  24.267  26.753  11.058
65497W        W37757   5.326  20.831   1.734
65498W        W37758   6.049  44.036   4.486
65499W        W37759  18.204  40.948  14.889
65500W        W37760  34.574  34.643   2.220
65501W        W37761  25.168  21.047   4.101
65502W        W37762  44.491  30.033  12.879
65503W        W37763  16.641   4.516  11.980
65504W        W37764  22.023  25.219  13.149
65505W        W37765   8.141  43.428  14.320
65506W        W37766  22.846  11.831  12.006
65507W        W37767  33.117  31.930  13.768
65508W        W37768  34.503   6.315  11.147
65509W        W37769  31.604  39.403   1.977
65510W        W37770  27.890   6.625   2.274
65511W        W37771  37.590   9.299   3.663
65512W        W37772  34.052  34.621   4.700
65513W        W37773  24.988  33.051   2.226
65514W        W37774  40.397   2.440   0.518
65515W        W37775   5.499   8.393   4.649
65516W        W37776   6.422  32.452   4.459
65517W        W37777   4.525  42.950   3.209
65518W        W37778  21.169   8.239  14.514
65519W        W37779  30.359   6.289   4.591
65520W        W37780  11.333   2.135  14.386
65521W        W37781   9.589  20.643   0.938
65522W        W37782  27.390   2.482   1.004
65523W        W37783  16.987  11.606  11.857
65524W        W37784  21.100   5.480   1.623
65525W        W37785   6.249  34.941   2.762
65526W        W37786   8.216  13.382   3.260
65527W        W37787   8.635  43.897   3.191
65528W        W37788   7.486  34.612  13.915
65529W        W37789  16.459  23.126   0.874
65530W        W37790  22.299  20.878  11.138
65531W        W37791   9.695  16.854  13.960
65532W        W37792   3.361  44.044   1.080
65533W        W37793  17.244  44.981   2.084
65534W        W37794  15.795  32.712  10.762
65535W        W37795  34.110   1.909   0.841
65536W        W37796   8.966  14.284  14.969
65537W        W37797  33.479   1.494   1.813
65538W        W37798  13.740  14.398  14.778
65539W        W37799  27.866   8.136  13.123
65540W        W37800  18.963  44.190   2.457
65541W        W37801  25.678  19.362   1.670
65542W        W37802  13.484  41.754  12.025
65543W        W37803  13.161  21.697   0.782
65544W        W37804   0.343  44.953   2.767
65545W        W37805   7.487  28.075   9.648
65546W        W37806  31.047   0.360  10.687
65547W        W37807  22.458   8.390  12.915
65548W        W37808  27.331  26.568  13.479
65549W        W37809  19.459  12.782   0.840
65550W        W37810  10.635  44.927   0.851
65551W        W37811  21.210  43.825  12.598
65552W        W37812  28.974  22.927  14.050
65553W        W37813  43.464  29.301  11.621
65554W        W37814  40.526  41.407   0.381
65555W        W37815  24.334   0.311   0.742
65556W        W37816  31.471   4.883  14.518
65557W        W37817  33.191  10.587  12.802
65558W        W37818   0.969  19.055   0.114
65559W        W37819  33.915   3.121  11.143
65560W        W37820  42.338  36.992   1.363
65561W        W37821   0.667   6.602  14.613
65562W        W37822  39.828  25.184  13.540
65563W        W37823  44.978  23.705  12.117
65564W        W37824  38.860  28.770  11.529
65565W        W37825  33.441  39.976  14.038
65566W        W37826  29.893  17.542  12.892
65567W        W37827  15.171  24.497  13.981
65568W        W37828  30.431  21.541  13.300
65569W        W37829  27.301  44.866  14.471
65570W        W37830  11.474  10.145   5.078
65571W        W37831  18.651  19.198   4.288
65572W        W37832   2.192  24.247  14.929
65573W        W37833   6.389  21.525   4.836
65574W        W37834   6.354  42.337  11.450
65575W        W37835  33.211  44.279   2.639
65576W        W37836  20.347  42.933   1.767
65577W        W37837  21.857  22.267   1.189
65578W        W37838  20.977  42.536  13.557
65579W        W37839   5.817   2.296   4.109
65580W        W37840  31.031  40.312  13.829
65581W        W37841   3.213  38.426   2.364
65582W        W37842  41.364  40.863   3.636
65583W        W37843  35.976   1.770   3.715
65584W        W37844  26.622  34.474   1.437
65585W        W37845   0.345  12.976   3.681
65586W        W37846  13.644  34.330   2.280
65587W        W37847   4.975  42.458   0.483
65588W        W37848  27.118  27.180  14.522
65589W        W37849  19.653  39.761   4.148
65590W        W37850  35.412  42.007   0.875
65591W        W37851  19.769  23.164  13.425
65592W        W37852  39.969  30.260  13.840
65593W        W37853   2.543  42.888   3.251
65594W        W37854  13.278  42.257   2.724
65595W        W37855  43.386   4.462   2.189
65596W        W37856  39.052  20.014   4.966
65597W        W37857   6.984  13.704   4.337
65598W        W37858  44.820  35.551   3.802
65599W        W37859  17.126  35.308  11.644
65600W        W37860  11.055  43.872  12.188
65601W        W37861  36.384  31.879  11.513
65602W        W37862  40.733  38.953  14.796
65603W        W37863  10.870  33.476  13.023
65604W        W37864  33.621  37.502  10.384
65605W        W37865   5.163  25.704   9.456
65606W        W37866   1.251  20.670   2.211
65607W        W37867   6.219  15.691  10.726
65608W        W37868  25.126  41.729  11.658
65609W        W37869   2.495  25.144  13.585
65610W        W37870  32.468  41.984   2.646
65611W        W37871  33.127   1.013  11.978
65612W        W37872  11.911   7.209   1.135
65613W        W37873   7.807   4.795   4.323
65614W        W37874  22.630  29.345  10.955
65615W        W37875   2.462   2.415  11.056
65616W        W37876  10.943  37.850   4.144
65617W        W37877  37.663  43.708   2.298
65618W        W37878   8.035  36.494  11.623
65619W        W37879  44.585  14.255   3.636
65620W        W37880  23.088  22.333  10.630
65621W        W37881  25.564  44.778  12.879
65622W        W37882  40.303  35.820  11.946
65623W        W37883  23.085  22.665  13.672
65624W        W37884  13.161  23.290   4.139
65625W        W37885  35.278  18.717  10.556
65626W        W37886  28.177  19.698   2.687
65627W        W37887  23.598  25.063  14.556
65628W        W37888  43.152   1.926   1.122
65629W        W37889  20.669  16.545  14.369
65630W        W37890   2.301  30.051  12.503
65631W        W37891   4.848  40.468   1.877
65632W        W37892  16.411  37.504  11.989
65633W        W37893  41.076  36.575   3.226
65634W        W37894  31.769  18.570   2.125
65635W        W37895  14.639  18.666  13.027
65636W        W37896   8.191  40.439  11.307
65637W        W37897  17.120   1.284  10.278
65638W        W37898   4.361  40.188   1.017
65639W        W37899  31.157  40.458   0.843
65640W        W37900  33.894   9.721   0.267
65641W        W37901  26.459  10.519   1.292
65642W        W37902  44.246  35.026   1.401
65643W        W37903  31.596  41.527  13.435
65644W        W37904  11.232  21.112  11.160
65645W        W37905   7.633  31.985  12.175
65646W        W37906  33.038   4.774  12.193
65647W        W37907  24.693  40.990   0.906
65648W        W37908  42.790   8.681  10.622
65649W        W37909   3.815  29.651  13.325
65650W        W37910  40.061  15.077   2.471
65651W        W37911  33.390  25.119  12.925
65652W        W37912  36.822  21.026  10.571
65653W        W37913  23.865  20.231   4.549
65654W        W37914  40.908  31.279  14.863
65655W        W37915   1.861  14.675   4.616
65656W        W37916  39.793  27.678   2.608
65657W        W37917   3.061  38.141   2.789
65658W        W37918  26.068  19.155  13.743
65659W        W37919  40.771   1.013  13.035
65660W        W37920   8.813   6.790  13.991
65661W        W37921  28.535  26.948   3.325
65662W        W37922  20.843  18.268   4.276
65663W        W37923  28.954  20.630  14.257
65664W        W37924   4.272  37.800   1.913
65665W        W37925  18.545  38.896  11.183
65666W        W37926  29.527  22.738  11.620
65667W        W37927  35.479   3.204  11.191
65668W        W37928  26.551  42.788   1.893
65669W        W37929  40.542  36.065  11.548
65670W        W37930   7.656   3.906  13.244
65671W        W37931   3.337  18.463  12.413
65672W        W37932   3.019  39.450  14.466
65673W        W37933  37.178  18.756   3.671
65674W        W37934  36.502  33.336   3.610
65675W        W37935   5.999   9.785  12.520
65676W        W37936  29.053  42.219  14.068
65677W        W37937  27.987  18.926  13.676
65678W        W37938   3.478  34.059   0.266
65679W        W37939  28.697  26.695  11.542
65680W        W37940  23.644  35.071   1.745
65681W        W37941   5.372  35.315  13.080
65682W        W37942  23.819   4.668   1.397
65683W        W37943   3.891  23.568  10.970
65684W        W37944  19.391  17.064  11.378
65685W        W37945  21.802  18.180  13.622
65686W        W37946  23.029  13.926  11.237
65687W        W37947   6.466   0.922  11.176
65688W        W37948   1.985  24.014  10.746
65689W        W37949  15.337  11.145  14.948
65690W        W37950  38.462  19.867  12.018
65691W        W37951   3.862  40.337   4.935
65692W        W37952  20.554  39.067  13.950
65693W        W37953  33.379  14.958  13.803
65694W        W37954  29.274  29.731   4.244
65695W        W37955  25.041   6.864  14.606
65696W        W37956  14.418  22.692   2.207
65697W        W37957   3.279  44.448   2.823
65698W        W37958  43.257  41.571   1.202
65699W        W37959  38.638  27.969   5.125
65700W        W37960   8.371  37.798   0.502
65701W        W37961  28.397  35.533   0.760
65702W        W37962  38.891  21.015  11.640
65703W        W37963  27.906  41.092   1.353
65704W        W37964  35.335  34.126   3.763
65705W        W37965   3.811  20.955   0.016
65706W        W37966  27.950  15.996   2.271
65707W        W37967  22.260   8.306   2.946
65708W        W37968  28.255  44.732  14.268
65709W        W37969  42.787   1.248   2.737
65710W        W37970  12.214  42.446   1.258
65711W        W37971   7.286   9.057   3.711
65712W        W37972   8.918  41.978   1.389
65713W        W37973  27.477  32.720  12.860
65714W        W37974   4.665   5.140   4.908
65715W        W37975  35.901  35.362   4.608
65716W        W37976   0.754  43.901   0.382
65717W        W37977  28.447  30.380  10.668
65718W        W37978  27.446  36.759   3.300
65719W        W37979   7.717  30.115   3.197
65720W        W37980  27.129  18.323  13.544
65721W        W37981  20.534   8.180   1.672
65722W        W37982   0.482  39.030   4.595
65723W        W37983   5.694  20.816  13.430
65724W        W37984  14.013   0.772   3.399
65725W        W37985  18.112  37.983   0.438
65726W        W37986  33.165  30.985  13.554
65727W        W37987  31.268  36.165   4.589
65728W        W37988   1.384  17.220  14.265
65729W        W37989   7.738  30.878   4.489
65730W        W37990  16.837  14.402  10.162
65731W        W37991  26.189  24.462   0.183
65732W        W37992  13.753  38.917  10.924
65733W        W37993   4.799  16.231  13.732
65734W        W37994  28.062  13.033  12.032
65735W        W37995  35.604  33.520   3.972
65736W        W37996  37.018   5.038  10.175
65737W        W37997  27.562  18.193  14.473
65738W        W37998  28.884   9.873   4.688
65739W        W37999   3.696   6.746   0.469
65740W        W38000   9.294  11.266  13.839
65741W        W38001  24.098  11.570  12.506
65742W        W38002  13.739  33.119  10.483
65743W        W38003  32.927  31.364  12.834
65744W        W38004  28.576  19.204   1.681
65745W        W38005  30.920  15.949   0.739
65746W        W38006   9.281  25.467   3.982
65747W        W38007  17.556  14.227  10.691
65748W        W38008  17.504  44.696   0.788
65749W        W38009  41.890  20.610   1.882
65750W        W38010  43.350  13.657   4.129
65751W        W38011  40.151   3.891   3.600
65752W        W38012   1.304  36.794  11.223
65753W        W38013   2.429  43.687   3.572
65754W        W38014  25.750  17.526  14.275
65755W        W38015   6.874  11.761   1.190
65756W        W38016   4.153   9.671  14.034
65757W        W38017  24.276  10.231  14.932
65758W        W38018  13.895  37.856  10.979
65759W        W38019  34.703  39.026   4.150
65760W        W38020  32.620  29.872   3.251
65761W        W38021  10.286   1.586   4.286
65762W        W38022  29.780  12.220   3.780
65763W        W38023  23.580  19.192  10.207
65764W        W38024   5.608  40.288  13.401
65765W        W38025  10.223  37.062   1.748
65766W        W38026   6.891  20.759  13.885
65767W        W38027   7.832  19.313  11.892
65768W        W38028  16.341  36.836   1.166
65769W        W38029   0.597  30.182  11.771
65770W        W38030  17.634   4.477  12.429
65771W        W38031  44.255  32.902   1.751
65772W        W38032  29.063  33.388   0.809
65773W        W38033  13.315  41.467   0.440
65774W        W38034  27.171   6.064  12.033
65775W        W38035  26.911  21.948  11.531
65776W        W38036  26.776   3.421  14.428
65777W        W38037  39.548   3.657   1.680
65778W        W38038   3.934  17.575   4.185
65779W        W38039  15.671  10.392   3.193
65780W        W38040  27.384   3.266  13.083
65781W        W38041   7.460  29.682  13.220
65782W        W38042   7.717  17.777  11.695
65783W        W38043  10.584  25.056  10.571
65784W        W38044  39.359  23.499  11.958
65785W        W38045  25.097   0.445  12.598
65786W        W38046  11.319   3.289  10.393
65787W        W38047  33.134   4.422  13.332
65788W        W38048  14.603  38.131  13.564
65789W        W38049  44.544  27.402   4.739
65790W        W38050   6.361  34.066  11.380
65791W        W38051  39.441  12.222  12.486
65792W        W38052   9.637  17.849   3.300
65793W        W38053  22.769  32.463   0.856
65794W        W38054   9.080   7.090   2.699
65795W        W38055  24.682  35.262  12.445
65796W        W38056  27.624  25.203  11.766
65797W        W38057  44.012  36.406   1.263
65798W        W38058  11.102   3.859  13.430
65799W        W38059  33.047  37.574   2.309
65800W        W38060  17.410   2.394   2.149
65801W        W38061   8.106  22.059   2.107
65802W        W38062  15.591  37.786   4.211
65803W        W38063  42.607   9.874  11.835
65804W        W38064  20.045  23.768  14.363
65805W        W38065  20.658   8.627   2.419
65806W        W38066  34.040  42.171  14.437
65807W        W38067  29.343   3.281  12.579
65808W        W38068  12.372  43.077  12.071
65809W        W38069  19.059   1.299  12.543
65810W        W38070  42.278  22.151   3.992
65811W        W38071  37.557  25.078  14.964
65812W        W38072  21.883  39.752   4.284
65813W        W38073  14.231  21.772   4.631
65814W        W38074  12.271  28.983  12.460
65815W        W38075  43.226  35.398  11.394
65816W        W38076  32.366  15.313  12.667
65817W        W38077  19.845  41.597   2.993
65818W        W38078  37.462  37.389  13.147
65819W        W38079  35.528  25.564   3.247
65820W        W38080  11.827  13.305   1.286
65821W        W38081  40.906  23.920  11.588
65822W        W38082  12.073  25.517   1.286
65823W        W38083   0.321  44.330   3.305
65824W        W38084   6.681  38.733   4.122
65825W        W38085  41.054   3.365   0.841
65826W        W38086  12.284  32.033   0.138
65827W        W38087   4.084   2.503  12.893
65828W        W38088  40.493  35.068   0.894
65829W        W38089  29.603  20.196  11.584
65830W        W38090  44.176   4.422   2.780
65831W        W38091   2.750  14.977  12.907
65832W        W38092  29.403  40.381  14.092
65833W        W38093  39.987  32.852  14.083
65834W        W38094   2.709   1.417  12.046
65835W        W38095  17.995  26.711   4.463
65836W        W38096   0.626  38.918   1.724
65837W        W38097  13.910  22.332   3.778
65838W        W38098  35.123  34.134  14.480
65839W        W38099  25.190  23.056   4.359
65840W        W38100   8.158  22.977   1.729
65841W        W38101  22.303  24.108   4.586
65842W        W38102   0.003  12.253  14.247
65843W        W38103   4.028  28.579   1.309
65844W        W38104  42.212   6.514   3.953
65845W        W38105  38.024  42.757  11.164
65846W        W38106  32.240  31.231   2.686
65847W        W38107   3.507  32.153   1.659
65848W        W38108  41.588  24.039  11.520
65849W        W38109  20.734  21.680   1.342
65850W        W38110  32.142   6.202   1.229
65851W        W38111   0.300  36.946   1.429
65852W        W38112  10.207   9.192  12.904
65853W        W38113   9.625   8.172  13.921
65854W        W38114  21.214  23.965   2.134
65855W        W38115  36.550  43.338   0.115
65856W        W38116  29.490  40.887   3.104
65857W        W38117  40.085   6.526  12.332
65858W        W38118  42.011  39.502  10.680
65859W        W38119  44.227  20.029  11.198
65860W        W38120  33.340  34.463  11.094
65861W        W38121   2.696  17.487   0.414
65862W        W38122  29.965   0.329   2.395
65863W        W38123  38.383  29.156  12.360
65864W        W38124  44.214  10.017   1.877
65865W        W38125  30.562  32.511  11.422
65866W        W38126   0.323  24.592   2.475
65867W        W38127  18.667  35.576   1.902
65868W        W38128  15.934  41.984   0.025
65869W        W38129  12.784  12.909  11.657
65870W        W38130  14.120  42.499   2.789
65871W        W38131  38.355  41.015   3.855
65872W        W38132  25.735  43.872   2.682
65873W        W38133  37.567   9.241  11.646
65874W        W38134  14.875  27.020   3.573
65875W        W38135   1.222  35.438  14.463
65876W        W38136  26.717  22.122   4.481
65877W        W38137   3.598  11.261   3.904
65878W        W38138  15.604  37.636  11.260
65879W        W38139   3.933   1.962  13.428
65880W        W38140   8.309   0.695  11.109
65881W        W38141  24.730  39.119   1.670
65882W        W38142  36.552  27.510   3.081
65883W        W38143  43.147   6.744   2.465
65884W        W38144  21.503  14.610  12.611
65885W        W38145   7.412  10.229  14.295
65886W        W38146   4.162   1.476   3.146
65887W        W38147   7.948  20.426  12.828
65888W        W38148   8.355   0.240   0.950
65889W        W38149  10.875  27.391   3.132
65890W        W38150  43.042  17.554  11.043
65891W        W38151   7.896  30.607  11.971
65892W        W38152  32.636   1.134  12.009
65893W        W38153   9.160  33.812  13.924
65894W        W38154   9.238  20.608  11.646
65895W        W38155  26.155   8.181   4.047
65896W        W38156  35.755  19.473   1.211
65897W        W38157  25.269  17.167  12.119
65898W        W38158  30.009  24.120   4.821
65899W        W38159  20.622  23.993   4.601
65900W        W38160  35.807  29.445  11.208
65901W        W38161  10.141  36.519   0.852
65902W        W38162  21.001   5.485   4.570
65903W        W38163  32.112  22.975  13.337
65904W        W38164  17.202  11.136   0.522
65905W        W38165  34.516  34.081  10.480
65906W        W38166   2.224   5.663  13.377
65907W        W38167  10.935   4.433  12.077
65908W        W38168   4.911  28.595  10.426
65909W        W38169   9.875  17.155  12.333
65910W        W38170  30.587  32.173   2.619
65911W        W38171  35.291  32.410   3.045
65912W        W38172  38.248  27.689  14.035
65913W        W38173  15.834  32.839  13.053
65914W        W38174  30.607  32.676   1.749
65915W        W38175  28.537  30.088  12.054
65916W        W38176  38.955  10.265   2.562
65917W        W38177  13.090  16.100   0.789
65918W        W38178   5.371   2.761   1.665
65919W        W38179  26.920  17.262   2.402
65920W        W38180  34.668  44.544   3.801
65921W        W38181  13.005  41.887   3.312
65922W        W38182  30.224   8.226   2.248
65923W        W38183  35.344  17.159   2.738
65924W        W38184  24.620  22.041  10.693
65925W        W38185  17.662   5.913  11.428
65926W        W38186  26.694   1.476  14.473
65927W        W38187  28.400   7.100  11.589
65928W        W38188  44.377  16.040   1.836
65929W        W38189  37.950  36.995   4.571
65930W        W38190  29.330  40.320   4.993
65931W        W38191  42.023  31.120   2.893
65932W        W38192  25.717  43.457  10.949
65933W        W38193  31.305  34.138   3.216
65934W        W38194  27.197  32.519  12.469
65935W        W38195  19.888  34.424   0.784
65936W        W38196  36.592  14.806   1.284
65937W        W38197  10.626  33.062  14.562
65938W        W38198   2.458  32.052  13.458
65939W        W38199  35.525  35.373  11.146
65940W        W38200  28.440  30.341   0.201
65941W        W38201  32.691  22.466  11.144
65942W        W38202  18.152  17.730   3.425
65943W        W38203  30.916  20.093   2.699
65944W        W38204  26.108  22.585  12.503
65945W        W38205  38.369   2.456   4.014
65946W        W38206  28.023  22.155   0.857
65947W        W38207  17.700  21.137   0.527
65948W        W38208   4.631  14.521   0.856
65949W        W38209  23.605  23.122  14.852
65950W        W38210  26.734  42.649  13.937
65951W        W38211  25.609  10.455   3.852
65952W        W38212  42.111  20.134   1.748
65953W        W38213  29.357  26.797   2.362
65954W        W38214  18.866   9.754   4.607
65955W        W38215  38.406  17.703   4.820
65956W        W38216  27.063   3.160  12.692
65957W        W38217  18.517  16.611   3.831
65958W        W38218  36.334  29.980   0.228
65959W        W38219  10.162  17.602  14.034
65960W        W38220   9.945  42.753   3.241
65961W        W38221  34.907  38.104  14.933
65962W        W38222  25.420  22.719   3.758
65963W        W38223  43.868  10.444   2.881
65964W        W38224  44.360   5.674  10.699
65965W        W38225  44.121  19.510   5.110
65966W        W38226  40.717  10.811   0.483
65967W        W38227  22.754  42.966  12.053
65968W        W38228  29.544  43.322  12.852
65969W        W38229  11.349  25.936  14.879
65970W        W38230  27.674  23.213  14.451
65971W        W38231  42.563   8.657   2.870
65972W        W38232  34.154  12.607  10.751
65973W        W38233  14.183   1.271   3.277
65974W        W38234  43.882   2.832  11.859
65975W        W38235  27.731  27.222   2.913
65976W        W38236  23.433  41.275  13.801
65977W        W38237  25.435   7.120   1.290
65978W        W38238  39.131  44.521   0.729
65979W        W38239  22.136  40.031   2.173
65980W        W38240  21.668   7.239  13.374
65981W        W38241   0.408  29.988   4.362
65982W        W38242   7.394  21.001  13.008
65983W        W38243  31.920  30.582   3.312
65984W        W38244  36.476   4.317   1.651
65985W        W38245   3.924  14.258  12.165
65986W        W38246   2.666  27.918  14.409
65987W        W38247   4.717   3.432   0.668
65988W        W38248  11.396  19.832   3.144
65989W        W38249  37.140  30.432   2.262
65990W        W38250  20.119  10.182   0.954
65991W        W38251  44.030   4.687   3.647
65992W        W38252  32.489  26.567   1.639
65993W        W38253  29.907  21.428  11.979
65994W        W38254  35.826  28.066   1.225
65995W        W38255  11.183   9.871   2.832
65996W        W38256  25.916  41.324   1.236
65997W        W38257  39.293  39.853  14.439
65998W        W38258   0.795  11.477   3.214
65999W        W38259  21.722  44.345  13.536
66000W        W38260  24.690  25.008   0.773
66001W        W38261  35.069   9.818   4.898
66002W        W38262  44.693   4.197  10.798
66003W        W38263   9.730  26.256  12.833
66004W        W38264  41.602  30.865  12.103
66005W        W38265  10.075  25.998  10.638
66006W        W38266  12.607  13.334   2.194
66007W        W38267  27.938  29.044  11.120
66008W        W38268   3.765  21.257  14.428
66009W        W38269  34.886  18.120   4.723
66010W        W38270   9.924  14.865   3.760
66011W        W38271  13.338  38.959   4.714
66012W        W38272  24.082   6.884  14.309
66013W        W38273  18.668  44.271  11.814
66014W        W38274  16.277  33.692   0.178
66015W        W38275  38.350   6.859  13.142
66016W        W38276  25.522  41.364   5.108
66017W        W38277  38.350  22.415  10.724
66018W        W38278  42.596  13.376   1.687
66019W        W38279  33.909   0.750   2.700
66020W        W38280  13.268  37.309   4.002
66021W        W38281  14.773  27.259  12.830
66022W        W38282  31.438  28.329  13.086
66023W        W38283  44.447   8.839  13.893
66024W        W38284  37.354  32.190  13.167
66025W        W38285   3.312  12.542  14.386
66026W        W38286   8.183  28.168  13.171
66027W        W38287  40.450  23.955  12.092
66028W        W38288  38.311  42.324   4.352
66029W        W38289  13.873   7.912  11.496
66030W        W38290  12.405   9.296   2.664
66031W        W38291  22.595  13.781   2.857
66032W        W38292  38.274  20.860   0.059
66033W        W38293  20.100   3.453   2.913
66034W        W38294  38.429  26.786  13.951
66035W        W38295  26.016  10.589  14.825
66036W        W38296  11.829  19.187   2.082
66037W        W38297  30.617  21.717   2.714
66038W        W38298  33.675   8.750  12.889
66039W        W38299  41.078  31.582  14.412
66040W        W38300  43.548  36.128   1.048
66041W        W38301   6.952   8.835  13.003
66042W        W38302  19.239  15.904  10.777
66043W        W38303  44.870  41.895   4.150
66044W        W38304  18.893  23.107  14.877
66045W        W38305  31.551  19.984   2.339
66046W        W38306  39.359  40.793  11.585
66047W        W38307  20.346  16.820   3.260
66048W        W38308  11.427   5.203  11.193
66049W        W38309  23.781  44.786  13.081
66050W        W38310  30.582  39.368   0.249
66051W        W38311  43.248  24.568   4.841
66052W        W38312   8.922   0.333   4.377
66053W        W38313  12.052  20.726   0.298
66054W        W38314  39.838  40.504  12.954
66055W        W38315  41.694  40.630  10.441
66056W        W38316  22.051  37.462   4.632
66057W        W38317  37.704  31.294   3.310
66058W        W38318  30.577  42.287   0.820
66059W        W38319   2.729   8.427   1.830
66060W        W38320  44.190  37.126   3.373
66061W        W38321  14.209  11.765  14.681
66062W        W38322   0.247   3.699   1.794
66063W        W38323  35.521  25.723   1.759
66064W        W38324   1.923  10.109   0.257
66065W        W38325  38.105  41.742   3.247
66066W        W38326  34.518   0.344   4.068
66067W        W38327  22.264  12.798  14.380
66068W        W38328   2.364  22.158  12.023
66069W        W38329   8.959   5.638   3.658
66070W        W38330  38.173  34.899  14.221
66071W        W38331  25.754  31.888   1.318
66072W        W38332  19.721  16.326  11.097
66073W        W38333  11.313  18.177   3.919
66074W        W38334  22.824  23.338   4.013
66075W        W38335  21.402   7.712  13.380
66076W        W38336  21.940  13.685  14.124
66077W        W38337   9.904  40.191   1.806
66078W        W38338  12.570  44.980   3.118
66079W        W38339   7.848  30.070  14.865
66080W        W38340  28.414  25.166   1.583
66081W        W38341  17.224  38.963   3.645
66082W        W38342  42.363   1.872   2.202
66083W        W38343  38.576  14.768   0.836
66084W        W38344  14.578   8.090   0.192
66085W        W38345  18.254   4.784   0.204
66086W        W38346  18.661  23.991   2.224
66087W        W38347  18.241   7.192  10.720
66088W        W38348  33.423   9.159   0.962
66089W        W38349  27.994  42.917  13.448
66090W        W38350  37.318  25.652   4.578
66091W        W38351  28.409  36.467  13.275
66092W        W38352  21.657  37.583  11.673
66093W        W38353  26.225   0.256  11.582
66094W        W38354  32.486  12.265  12.069
66095W        W38355  31.973  24.525   4.211
66096W        W38356  19.113  27.959  11.044
66097W        W38357  13.787  17.856   0.690
66098W        W38358   9.653   9.478  10.592
66099W        W38359  12.867  17.659   0.268
66100W        W38360  43.918  39.777   0.263
66101W        W38361  14.720   9.102   2.025
66102W        W38362  33.542   9.134  13.241
66103W        W38363  40.269   8.607   3.705
66104W        W38364   6.740  26.644  14.003
66105W        W38365   4.365  28.272  11.039
66106W        W38366  39.670  27.569  12.891
66107W        W38367   9.147  32.159  13.445
66108W        W38368  26.917  44.240  12.610
66109W        W38369  18.797   6.455   3.460
66110W        W38370  18.187   5.333  14.469
66111W        W38371  21.110   4.228   3.186
66112W        W38372  20.105  29.503   4.254
66113W        W38373  44.772   6.980   2.778
66114W        W38374  22.910  37.438  12.952
66115W        W38375  20.359  10.688   1.609
66116W        W38376  26.573  40.939   2.136
66117W        W38377  27.735   0.318   3.738
66118W        W38378   2.268  34.153   4.745
66119W        W38379  21.318   5.823  10.912
66120W        W38380  10.796  11.627  10.760
66121W        W38381  24.518   3.830   4.582
66122W        W38382   3.980   9.694   3.709
66123W        W38383  28.183   9.134   1.787
66124W        W38384  38.912   2.138   3.089
66125W        W38385  14.659  13.178   4.295
66126W        W38386  11.626  16.083   1.807
66127W        W38387  11.315   2.779  14.467
66128W        W38388  25.808  11.098   0.329
66129W        W38389  21.255  30.300   3.983
66130W        W38390   5.929  41.308   4.691
66131W        W38391  18.001  39.752   0.309
66132W        W38392  21.697   5.240  13.341
66133W        W38393  27.898  10.159   4.675
66134W        W38394  12.277  13.217   4.717
66135W        W38395   1.846  21.291   3.739
66136W        W38396   8.197  21.255  14.823
66137W        W38397   3.729  33.982  10.690
66138W        W38398  22.037   1.710   3.722
66139W        W38399   9.156   8.875  12.058
66140W        W38400  14.078  16.603   0.739
66141W        W38401  35.393   0.391  11.904
66142W        W38402  39.510   9.616   2.751
66143W        W38403  34.676  24.585   3.392
66144W        W38404  32.156  33.783  10.902
66145W        W38405  34.143  38.925   0.430
66146W        W38406  25.282  12.323  14.904
66147W        W38407  20.712  33.445   2.260
66148W        W38408  44.460  34.557   1.322
66149W        W38409   3.018  23.585  12.570
66150W        W38410  44.242  16.702  12.086
66151W        W38411  27.743   7.747  13.979
66152W        W38412   5.870  13.850   1.535
66153W        W38413   0.255  26.218   0.225
66154W        W38414  38.773  34.912  12.172
66155W        W38415   6.642  20.757   2.828
66156W        W38416  33.379  43.735  12.940
66157W        W38417  42.316  14.757  12.923
66158W        W38418  43.720   2.807  12.842
66159W        W38419  31.800   0.909   0.402
66160W        W38420  17.649  21.495   4.187
66161W        W38421  15.835  32.580   3.210
66162W        W38422  37.452  18.769  14.272
66163W        W38423  13.147  28.162  13.719
66164W        W38424  13.585  36.571  14.011
66165W        W38425   9.597  39.302   1.808
66166W        W38426  33.488  43.594   4.719
66167W        W38427  15.759   3.292   3.810
66168W        W38428  19.205   4.421  13.840
66169W        W38429  10.179  14.337   3.393
66170W        W38430   2.975   5.318  11.655
66171W        W38431  10.898  39.087  11.077
66172W        W38432  33.909  43.429  13.526
66173W        W38433  36.969  33.722   2.315
66174W        W38434   6.415  19.105  12.526
66175W        W38435  24.519  41.250   2.760
66176W        W38436  14.963  15.699  10.654
66177W        W38437   2.096  33.097  13.762
66178W        W38438   9.643  17.329  11.411
66179W        W38439  34.866  23.837  10.419
66180W        W38440  44.180  11.534   0.668
66181W        W38441  18.798  25.600  10.898
66182W        W38442   6.661  33.591   3.453
66183W        W38443  24.120  24.986  13.405
66184W        W38444  37.593  13.619  12.082
66185W        W38445  14.250   4.726  14.411
66186W        W38446  44.066  11.089  14.332
66187W        W38447  39.436   7.241   5.543
66188W        W38448   1.887  25.791  12.189
66189W        W38449  15.116   2.096  13.386
66190W        W38450  11.633  40.045   2.645
66191W        W38451  42.817  26.410  13.426
66192W        W38452  27.623  30.377   4.692
66193W        W38453   4.936  10.616  10.791
66194W        W38454  44.000  33.551  14.114
66195W        W38455  36.834   2.683  11.059
66196W        W38456  26.589  32.658   1.997
66197W        W38457  21.210  23.269   1.441
66198W        W38458  13.563  27.385   0.489
66199W        W38459  16.170  27.017   4.169
66200W        W38460  18.683  22.716  12.309
66201W        W38461  19.156  21.022   4.565
66202W        W38462  10.861  26.549  14.405
66203W        W38463  34.788  43.775   2.418
66204W        W38464  20.070  23.238   0.219
66205W        W38465  35.961  20.196   2.245
66206W        W38466  31.835  10.721  14.973
66207W        W38467  29.469  42.289  11.673
66208W        W38468  29.614  10.828   1.650
66209W        W38469  26.648   8.446   2.279
66210W        W38470  18.673  35.779  12.409
66211W        W38471  30.288  31.490  14.241
66212W        W38472  44.715  27.571   0.284
66213W        W38473  41.102  37.573   2.287
66214W        W38474   1.330  15.885   4.606
66215W        W38475  17.713  11.478  14.514
66216W        W38476   6.832  41.013   4.354
66217W        W38477  25.616  19.924  13.774
66218W        W38478  21.753  27.148   5.073
66219W        W38479  11.120   9.351  13.740
66220W        W38480  27.654  15.783  11.580
66221W        W38481  43.415  12.733   0.778
66222W        W38482   4.400   4.267  11.521
66223W        W38483  37.825  28.898  13.074
66224W        W38484   2.595  20.494   1.304
66225W        W38485  41.910  25.893  11.006
66226W        W38486  44.897  24.457  13.844
66227W        W38487  43.065  39.852   0.676
66228W        W38488  25.483  11.695  13.435
66229W        W38489  26.548  19.619   0.763
66230W        W38490  35.788  19.664   4.648
66231W        W38491   3.922  39.650  13.964
66232W        W38492  17.079  16.745   1.368
66233W        W38493   2.047   7.348  13.003
66234W        W38494  22.487  18.536  10.730
66235W        W38495   1.473  28.786   4.639
66236W        W38496  21.001  18.278  13.349
66237W        W38497  37.985   6.462  13.885
66238W        W38498  36.506  21.870  13.681
66239W        W38499  29.162   9.359   1.927
66240W        W38500  41.100  12.589   0.404
66241W        W38501  24.729  19.704   1.463
66242W        W38502   6.335  40.341   3.783
66243W        W38503  27.924  23.699  14.552
66244W        W38504  41.528  19.020   2.666
66245W        W38505  35.931   5.936   0.046
66246W        W38506   6.731  40.812  10.595
66247W        W38507  36.359  25.668   2.725
66248W        W38508  23.017  12.606   2.773
66249W        W38509  15.359  13.845  10.266
66250W        W38510  18.137  43.385   1.818
66251W        W38511  23.550  17.108  12.388
66252W        W38512  37.618   1.821  12.894
66253W        W38513  23.576  27.228  14.860
66254W        W38514  42.350  18.226  13.549
66255W        W38515  36.893  24.950   1.625
66256W        W38516  11.891   1.004   0.764
66257W        W38517  25.245  43.271  11.073
66258W        W38518   3.948  24.477   0.770
66259W        W38519  18.605  32.590  11.887
66260W        W38520  32.130  14.164  11.874
66261W        W38521   2.820  18.654   3.295
66262W        W38522   1.811  15.216   2.860
66263W        W38523  24.091  12.383  11.579
66264W        W38524  31.408  30.638   3.503
66265W        W38525   6.302  28.036   2.094
66266W        W38526   5.545  38.773   2.856
66267W        W38527  37.035  42.492  11.208
66268W        W38528   4.944  19.560  12.908
66269W        W38529  10.170  26.073   0.507
66270W        W38530  37.092  27.743  14.952
66271W        W38531   1.456  23.595  12.424
66272W        W38532   2.680  32.509   1.730
66273W        W38533   9.609  11.306  12.874
66274W        W38534  10.080  30.490  13.390
66275W        W38535   5.955  16.252   3.807
66276W        W38536  19.664  41.266   2.139
66277W        W38537   0.240  14.337   2.740
66278W        W38538  33.293  18.645   1.867
66279W        W38539  35.142   7.689   0.979
66280W        W38540   0.721  13.372   3.682
66281W        W38541  22.279  10.836   1.210
66282W        W38542  42.921  17.056  11.192
66283W        W38543  30.976   6.749  12.045
66284W        W38544  24.517  11.859   3.698
66285W        W38545  15.861   7.439   4.179
66286W        W38546  28.251  17.811   5.099
66287W        W38547  27.011  14.295  12.402
66288W        W38548   6.979  11.953   4.768
66289W        W38549  35.287  19.832   4.647
66290W        W38550   5.460  17.169   2.268
66291W        W38551  41.792  20.257  13.924
66292W        W38552   1.442  20.299  11.590
66293W        W38553  26.667   8.653  11.570
66294W        W38554  30.572  12.671   0.220
66295W        W38555  19.624   1.444   3.552
66296W        W38556   4.374  16.801   1.929
66297W        W38557  30.774  30.865  11.186
66298W        W38558  35.435  32.476  14.954
66299W        W38559  26.738   4.407   1.859
66300W        W38560  14.127  10.631  11.503
66301W        W38561  25.764  41.947   9.843
66302W        W38562   8.650  44.722   0.391
66303W        W38563   5.684   9.665   2.829
66304W        W38564  41.982   8.592   3.333
66305W        W38565  30.576  32.649  12.332
66306W        W38566  19.750   1.477  13.611
66307W        W38567   8.820  37.776   2.346
66308W        W38568  25.062  30.639   1.303
66309W        W38569  41.339  21.970   1.724
66310W        W38570  13.907  35.260  14.724
66311W        W38571  22.219  22.977  13.474
66312W        W38572  20.025   8.178  14.433
66313W        W38573   1.512   3.612   2.781
66314W        W38574  25.469   8.821   1.213
66315W        W38575  16.495  10.646   3.597
66316W        W38576  16.769  20.690  13.936
66317W        W38577  35.247  29.181  11.573
66318W        W38578  37.297  24.288   3.164
66319W        W38579  27.630   1.023   3.635
66320W        W38580  28.686  18.774  14.004
66321W        W38581  28.546   6.228  13.879
66322W        W38582  23.432  21.474   4.715
66323W        W38583   9.886  24.405  10.780
66324W        W38584  25.521  32.547  12.704
66325W        W38585  30.186  27.997  11.033
66326W        W38586  25.413   5.189  13.164
66327W        W38587  30.123  24.676   2.908
66328W        W38588  16.748  32.930   0.376
66329W        W38589  10.892  25.484  11.490
66330W        W38590   4.698  37.145   4.226
66331W        W38591  32.890  41.783   1.662
66332W        W38592  38.144  15.286   4.976
66333W        W38593  24.640  18.573   2.982
66334W        W38594  14.010   1.083  11.212
66335W        W38595   0.441   7.757  14.116
66336W        W38596  37.458  34.509  12.014
66337W        W38597  16.482  26.635   4.636
66338W        W38598   8.409  40.750  12.661
66339W        W38599   5.767  43.247  14.674
66340W        W38600  21.644   7.401  14.669
66341W        W38601  43.430  39.100  14.459
66342W        W38602   4.524  28.865  11.626
66343W        W38603  30.640  31.454   0.447
66344W        W38604  14.750  42.775   1.744
66345W        W38605  26.827   3.894   2.171
66346W        W38606   6.312   1.338   4.371
66347W        W38607   0.716  30.475   1.882
66348W        W38608   7.458  41.978  14.299
66349W        W38609   1.735   0.408   0.791
66350W        W38610   2.205   0.191  12.908
66351W        W38611  24.009   9.370   3.057
66352W        W38612  13.239   0.108   1.957
66353W        W38613  32.506  37.598  13.999
66354W        W38614  18.173  24.631   0.829
66355W        W38615  38.414  37.436  12.869
66356W        W38616   8.160  20.721   1.023
66357W        W38617  20.168  12.753  13.384
66358W        W38618  22.478   8.732   4.208
66359W        W38619   6.906  28.268   0.404
66360W        W38620  23.211  29.526   0.264
66361W        W38621  24.582  20.655  12.328
66362W        W38622  18.085  22.150   2.198
66363W        W38623   6.331  36.934   0.883
66364W        W38624  25.735  25.158   5.013
66365W        W38625  11.336  32.241   2.850
66366W        W38626  31.937  44.289   1.698
66367W        W38627  28.466  24.740   4.783
66368W        W38628  29.244  40.984  14.324
66369W        W38629   3.790  16.814   3.602
66370W        W38630  29.932  37.053  11.246
66371W        W38631  32.392  38.262   0.734
66372W        W38632  14.338  19.559  13.863
66373W        W38633   1.812  24.041  11.238
66374W        W38634  16.252  38.790   3.677
66375W        W38635  22.203   9.165  14.432
66376W        W38636  43.910  26.034  10.678
66377W        W38637  39.490  26.014  10.714
66378W        W38638  34.108  15.674  14.500
66379W        W38639  36.030  41.713   1.270
66380W        W38640  23.703   3.509  13.404
66381W        W38641  40.879  11.915  12.953
66382W        W38642   5.445  19.313  10.714
66383W        W38643   4.516  36.128   0.689
66384W        W38644  42.748  12.241   0.303
66385W        W38645   5.019  13.044   4.176
66386W        W38646  13.267  14.589   1.333
66387W        W38647  24.266  19.692  12.430
66388W        W38648  12.121   9.885  12.873
66389W        W38649  38.802  35.877  11.223
66390W        W38650  31.315  21.624  14.410
66391W        W38651  16.947  18.074  14.982
66392W        W38652  43.770  38.872   1.897
66393W        W38653  38.962  40.006  11.578
66394W        W38654  26.937  16.234  11.600
66395W        W38655   2.307  39.656  12.100
66396W        W38656  29.722  16.242   0.329
66397W        W38657  14.836  18.007   2.232
66398W        W38658  43.500  28.020   3.382
66399W        W38659   6.236   1.503  13.368
66400W        W38660   9.434  30.017  14.360
66401W        W38661  28.130  37.047  10.710
66402W        W38662   6.859  12.387   3.401
66403W        W38663  40.846  35.719   1.509
66404W        W38664  33.428   9.163   4.668
66405W        W38665   2.206  41.373  11.205
66406W        W38666  41.094  12.930   2.293
66407W        W38667  20.645   8.874   3.434
66408W        W38668  29.053  15.826  11.473
66409W        W38669  21.272  12.235  13.929
66410W        W38670  35.683   7.174  11.102
66411W        W38671  11.716  18.703   1.904
66412W        W38672  41.283  28.678  13.265
66413W        W38673  34.681  34.219   0.445
66414W        W38674  30.721  42.633  14.259
66415W        W38675  37.486  40.136  14.457
66416W        W38676  23.998  12.316   4.039
66417W        W38677  37.526   7.823   2.948
66418W        W38678  10.847  28.921   0.205
66419W        W38679  33.938  13.511   1.863
66420W        W38680  17.143  34.279  10.848
66421W        W38681   5.737   5.933  13.073
66422W        W38682  30.718  33.508  12.581
66423W        W38683  30.898  43.203   2.287
66424W        W38684   1.501  12.573  12.181
66425W        W38685  30.981  31.393   2.413
66426W        W38686  18.044  24.126  13.396
66427W        W38687  24.775  15.983  13.389
66428W        W38688  11.656  13.314   0.754
66429W        W38689  39.434  33.860  11.697
66430W        W38690   9.837   9.095  13.859
66431W        W38691  33.525  28.457   3.828
66432W        W38692  17.254  28.963   1.698
66433W        W38693  43.878  18.298   4.136
66434W        W38694  16.579  29.067  10.860
66435W        W38695  11.318   2.248   2.311
66436W        W38696   6.182  21.111   4.617
66437W        W38697  23.797  18.145  13.404
66438W        W38698  39.522  42.982  12.057
66439W        W38699  29.535  11.177   2.826
66440W        W38700  41.647  35.057   4.939
66441W        W38701  13.737   4.516  14.349
66442W        W38702   9.395  38.898  11.948
66443W        W38703  14.970   5.366  12.051
66444W        W38704  27.477  28.184   2.770
66445W        W38705   9.297  21.983  14.439
66446W        W38706  22.708  35.263   0.160
66447W        W38707   5.836  17.706  10.655
66448W        W38708  22.002  40.324  12.012
66449W        W38709  14.364   8.286  13.847
66450W        W38710  31.272  19.616   3.390
66451W        W38711  29.472  28.017   9.859
66452W        W38712  36.431  29.406  13.963
66453W        W38713  19.181  23.615   3.831
66454W        W38714  19.310  27.625  14.851
66455W        W38715   8.781  18.700   3.830
66456W        W38716  43.548  33.556   2.802
66457W        W38717   5.496  37.503   4.436
66458W        W38718  26.896   3.162  13.202
66459W        W38719  21.597   1.378   2.377
66460W        W38720  17.512   5.503  11.705
66461W        W38721  24.584  10.162  14.500
66462W        W38722  26.751  31.985   1.394
66463W        W38723  24.505  17.979   1.898
66464W        W38724  42.305  22.187  12.975
66465W        W38725  33.342  40.769  12.470
66466W        W38726  14.234  28.937   2.395
66467W        W38727  12.634  38.494   1.887
66468W        W38728  20.320   7.680  13.351
66469W        W38729  30.171   6.373  14.056
66470W        W38730  41.853  23.631  11.091
66471W        W38731  40.713   1.918  12.407
66472W        W38732  15.573  24.304  13.436
66473W        W38733   6.269  32.843   3.200
66474W        W38734  22.618  22.517  10.651
66475W        W38735  21.337  34.595   0.653
66476W        W38736  37.321  13.262   0.095
66477W        W38737  10.779  23.229  11.387
66478W        W38738  39.863   0.457  11.976
66479W        W38739  12.126  18.351  14.458
66480W        W38740   5.057  19.644  14.372
66481W        W38741  41.815  31.171  11.324
66482W        W38742  23.799  35.547   1.621
66483W        W38743  26.386   7.730   3.649
66484W        W38744   3.357   2.896  13.325
66485W        W38745  28.277  26.695   0.255
66486W        W38746  42.953   7.671   2.221
66487W        W38747  39.514   8.318  14.521
66488W        W38748  19.249  34.594  10.610
66489W        W38749   9.046  43.386  11.874
66490W        W38750   2.130  20.749   1.276
66491W        W38751  29.164  44.467  13.301
66492W        W38752   4.362  19.274   1.012
66493W        W38753  33.582  27.086   3.841
66494W        W38754  26.264   6.519  14.958
66495W        W38755  37.547  18.396  12.879
66496W        W38756   2.019   2.824  12.676
66497W        W38757  10.799   2.626  12.079
66498W        W38758  25.541  13.973   5.034
66499W        W38759   7.164   9.599   1.858
66500W        W38760   2.367  36.171  11.120
66501W        W38761   2.118  41.582   0.408
66502W        W38762  38.114   2.369  12.213
66503W        W38763  34.027  44.035   3.792
66504W        W38764  20.697  40.697   4.261
66505W        W38765  28.562  24.228   0.276
66506W        W38766  40.308  25.978  12.018
66507W        W38767  11.777   6.347   2.227
66508W        W38768  35.934  17.374  13.918
66509W        W38769  18.305   0.121  12.487
66510W        W38770   8.142  32.724  12.412
66511W        W38771   1.401  12.435   1.355
66512W        W38772  17.800   3.949   3.853
66513W        W38773  33.047  38.981  12.830
66514W        W38774  25.562  16.128   1.449
66515W        W38775   3.714  37.940  14.981
66516W        W38776  14.043  28.594   1.734
66517W        W38777   8.840  19.021  11.165
66518W        W38778  23.796  31.422  11.679
66519W        W38779   0.914   4.162   2.395
66520W        W38780  22.635   9.937  11.913
66521W        W38781   9.623   0.648   3.216
66522W        W38782  17.633  17.642  12.207
66523W        W38783  32.826  23.247  11.438
66524W        W38784   8.111   7.215   1.225
66525W        W38785  31.416  31.989   1.959
66526W        W38786  20.915  43.934  13.594
66527W        W38787  27.059  22.581   1.216
66528W        W38788  27.307  14.309   3.166
66529W        W38789  16.056  23.002   2.645
66530W        W38790  16.644  44.966  14.379
66531W        W38791  18.294  42.606  10.398
66532W        W38792  31.715   7.337  13.962
66533W        W38793  28.668   9.313   1.803
66534W        W38794   4.365  38.411   1.251
66535W        W38795  25.654  16.030  13.372
66536W        W38796  18.869   6.050  11.462
66537W        W38797  26.162  34.539   4.827
66538W        W38798   6.967  40.852  13.551
66539W        W38799  40.052  14.795  14.938
66540W        W38800  28.596  23.458  11.084
66541W        W38801   1.406  43.926  11.627
66542W        W38802   7.956   6.682   1.311
66543W        W38803   0.709  43.551  13.607
66544W        W38804  34.845  25.728  13.923
66545W        W38805  12.332  20.641  11.639
66546W        W38806  14.764  37.541   1.372
66547W        W38807   8.108  20.138  10.640
66548W        W38808  12.482   4.695   1.233
66549W        W38809  39.522  40.361  10.102
66550W        W38810  36.512  30.941   2.616
66551W        W38811   8.107  10.566   0.829
66552W        W38812  23.127  14.222  14.506
66553W        W38813   0.780  11.394  12.752
66554W        W38814  29.777   3.371   5.075
66555W        W38815  34.997   9.517   3.321
66556W        W38816  12.090  39.791   2.742
66557W        W38817  12.336  42.651   4.099
66558W        W38818  39.105   3.494   3.447
66559W        W38819  30.404  30.557  12.629
66560W        W38820  15.352  40.272  12.176
66561W        W38821  30.074   4.771   0.385
66562W        W38822   5.720   9.311  14.930
66563W        W38823  44.091   8.141   0.816
66564W        W38824  22.728  20.116   3.336
66565W        W38825   5.192  22.162  12.117
66566W        W38826  27.150  30.849   3.306
66567W        W38827  14.918  33.204   1.857
66568W        W38828  12.823   6.109   4.776
66569W        W38829  24.211  39.919  11.585
66570W        W38830  21.075  10.551   5.130
66571W        W38831  14.547  13.622  12.973
66572W        W38832  13.189  19.122   0.318
66573W        W38833  24.637   6.166   1.579
66574W        W38834   0.327  24.668  14.074
66575W        W38835  39.345   5.243  12.080
66576W        W38836   2.663  16.323  11.446
66577W        W38837  42.454  25.630  12.331
66578W        W38838  30.935  41.003  13.025
66579W        W38839  25.230  39.199  10.038
66580W        W38840   6.839  17.196  11.230
66581W        W38841  23.291  27.154   3.735
66582W        W38842  38.012  10.930  11.302
66583W        W38843  22.612   7.119  12.846
66584W        W38844  22.744  22.505  12.696
66585W        W38845   2.284  32.552   1.338
66586W        W38846  31.053  41.289  12.180
66587W        W38847  42.456  38.998  13.629
66588W        W38848  36.799  12.238   0.987
66589W        W38849  10.810  36.012   1.626
66590W        W38850  14.243  12.125   2.671
66591W        W38851  21.315  26.225   3.657
66592W        W38852   8.260   2.683   0.655
66593W        W38853  35.579   2.355   3.313
66594W        W38854  33.016  17.004  11.233
66595W        W38855   3.692   8.819  12.855
66596W        W38856  20.700  38.555  11.163
66597W        W38857   6.669  15.443   4.531
66598W        W38858  32.391   9.860   3.834
66599W        W38859  10.699   1.310   0.007
66600W        W38860   0.945   9.125   0.803
66601W        W38861  27.929  28.847   4.114
66602W        W38862  32.367  35.986   0.658
66603W        W38863  21.418   5.235  12.383
66604W        W38864  19.558  38.989   1.840
66605W        W38865  15.581   8.709   4.496
66606W        W38866  37.558  41.345  11.964
66607W        W38867  19.320  18.053   4.148
66608W        W38868  18.032  27.222  10.452
66609W        W38869   4.658  18.330   2.324
66610W        W38870  17.710  24.030   1.222
66611W        W38871  27.073   1.649  12.408
66612W        W38872  43.327  20.819   0.724
66613W        W38873  26.635   8.167  11.426
66614W        W38874  14.070  30.630   0.757
66615W        W38875  34.347  22.625   3.307
66616W        W38876  40.763   0.463  14.611
66617W        W38877   9.253  40.383   3.896
66618W        W38878  27.158  42.066  10.449
66619W        W38879  30.507  40.240  14.915
66620W        W38880  21.227  20.125   2.256
66621W        W38881  44.755  37.991  14.808
66622W        W38882  35.331   0.157  14.533
66623W        W38883  40.938  39.338   2.039
66624W        W38884   7.885  29.634   0.528
66625W        W38885  31.978   4.135  12.133
66626W        W38886  34.444  31.285   3.700
66627W        W38887  22.178   1.111   0.870
66628W        W38888  25.756   4.872  12.897
66629W        W38889  33.842   2.088  11.157
66630W        W38890   0.021   6.217   3.090
66631W        W38891  14.916  25.746  11.143
66632W        W38892  43.307  18.284   2.730
66633W        W38893  33.585   7.621   0.006
66634W        W38894  32.893  32.411  12.334
66635W        W38895  29.129  38.876   3.407
66636W        W38896   7.479   3.461   2.241
66637W        W38897  10.319  24.339  11.087
66638W        W38898  41.581  17.843   0.516
66639W        W38899  33.145  14.113  10.987
66640W        W38900  10.791   8.857  11.336
66641W        W38901  40.311  24.671   5.100
66642W        W38902   7.779  19.504   5.041
66643W        W38903  28.092  20.920   2.353
66644W        W38904   5.442   1.866  12.463
66645W        W38905  36.544  13.823  11.898
66646W        W38906  10.338  12.301   4.711
66647W        W38907  40.020  13.598  11.221
66648W        W38908  33.484  43.992   3.614
66649W        W38909   9.306   0.467   4.035
66650W        W38910  12.069  30.174   3.487
66651W        W38911  37.209  16.225   1.163
66652W        W38912  30.631   8.630   2.437
66653W        W38913  21.508  40.867  14.826
66654W        W38914   1.951  23.237  14.015
66655W        W38915  14.368   7.820   1.857
66656W        W38916   1.546  32.676  11.589
66657W        W38917  26.175  12.164   4.623
66658W        W38918  10.366  20.231   2.306
66659W        W38919  27.578   9.067   3.945
66660W        W38920  43.582  36.457   3.795
66661W        W38921  33.433  19.427   2.325
66662W        W38922  34.514  25.659   1.895
66663W        W38923  27.670  19.182   0.075
66664W        W38924  26.636   5.315   2.388
66665W        W38925   2.941  23.482  11.149
66666W        W38926  18.050  39.122  14.523
66667W        W38927  28.958  28.050   1.013
66668W        W38928  37.821   8.767  13.908
66669W        W38929   4.242   1.257  10.799
66670W        W38930  38.957  30.779   1.455
66671W        W38931  30.073   1.217   3.615
66672W        W38932  34.432  43.386   1.345
66673W        W38933  21.177  28.441   4.466
66674W        W38934  34.952  44.768   2.850
66675W        W38935  18.808   8.303  11.235
66676W        W38936  12.156  21.908   3.266
66677W        W38937  41.903  14.729  12.071
66678W        W38938  32.934  41.828  14.727
66679W        W38939  43.554  41.455   4.559
66680W        W38940   4.115  23.692   2.288
66681W        W38941  26.581  18.018   1.212
66682W        W38942  36.787  28.954  10.051
66683W        W38943  13.226  27.374   4.145
66684W        W38944   0.327  15.728  14.021
66685W        W38945  31.333  36.336   2.320
66686W        W38946  10.369  14.212   5.097
66687W        W38947  17.134   8.706  12.439
66688W        W38948  35.556   3.647  11.917
66689W        W38949  22.690   4.473  11.532
66690W        W38950  21.640  41.590   2.340
66691W        W38951  44.498  36.561  10.510
66692W        W38952  23.244   0.745  11.657
66693W        W38953  13.362  10.618  14.971
66694W        W38954   9.113  13.622   0.820
66695W        W38955  38.556  23.006   1.904
66696W        W38956  27.135  28.878   3.232
66697W        W38957  25.523  41.591   2.896
66698W        W38958  43.295  36.200   1.772
66699W        W38959  38.340   1.269   0.508
66700W        W38960  31.833   9.427   4.164
66701W        W38961  33.436  19.874  13.816
66702W        W38962   2.826  24.528  12.086
66703W        W38963  13.357   4.780  12.417
66704W        W38964  38.938  38.071  11.176
66705W        W38965   3.860   8.241   3.168
66706W        W38966  21.456  30.118   3.505
66707W        W38967   2.228  11.658  14.634
66708W        W38968   8.623  21.814  14.077
66709W        W38969  33.267  22.948  14.045
66710W        W38970  12.140  20.938  13.737
66711W        W38971  37.869  19.967   3.292
66712W        W38972  41.032   7.770   0.239
66713W        W38973  38.924   8.165  13.432
66714W        W38974   4.307  28.062  10.537
66715W        W38975   3.452  16.547   2.125
66716W        W38976  29.997   4.467   4.060
66717W        W38977   0.000  14.546  12.575
66718W        W38978  41.461   6.137  13.543
66719W        W38979  40.243  36.928  14.012
66720W        W38980   4.350  28.230   1.915
66721W        W38981  17.062  38.934   2.716
66722W        W38982   5.843  41.803   4.614
66723W        W38983  34.011  13.264   2.416
66724W        W38984  35.827  19.224   3.161
66725W        W38985   4.303   4.782  11.627
66726W        W38986  18.988  38.555   4.140
66727W        W38987   7.437  38.947  12.077
66728W        W38988  19.999  20.780  11.041
66729W        W38989   6.978  29.973  12.398
66730W        W38990  17.389  39.552   1.935
66731W        W38991  37.490   6.764   0.292
66732W        W38992  33.753   6.258  10.730
66733W        W38993  12.677   5.230  13.398
66734W        W38994  12.808  25.628  13.800
66735W        W38995  15.111  28.127  12.951
66736W        W38996  30.422  27.869   0.789
66737W        W38997  24.826  37.453   1.805
66738W        W38998  44.540  41.498   5.026
66739W        W38999  19.734  22.883   3.752
66740W        W39000  43.090   6.097  12.135
66741W        W39001  25.104  29.554  13.087
66742W        W39002  33.392   9.890  11.011
66743W        W39003  22.503  10.146  13.745
66744W        W39004  12.545  26.568  11.598
66745W        W39005  22.132  34.817   4.412
66746W        W39006  44.857  32.537  13.816
66747W        W39007  15.835  30.102  14.297
66748W        W39008  11.263  23.311  12.619
66749W        W39009  29.806  15.939  10.099
66750W        W39010  18.422  21.774   0.348
66751W        W39011  30.398  28.882  11.533
66752W        W39012  22.213  42.894  12.907
66753W        W39013  26.565  18.405   4.733
66754W        W39014  29.711  33.550  12.607
66755W        W39015   4.051  24.928  14.433
66756W        W39016   1.946  40.138   3.714
66757W        W39017  41.825  13.093   3.217
66758W        W39018  34.108  18.317   4.209
66759W        W39019   6.346  34.534  12.057
66760W        W39020  30.952  41.905  13.011
66761W        W39021  12.602  26.607  10.677
66762W        W39022  27.735  22.493  11.931
66763W        W39023  36.625   4.990  13.874
66764W        W39024   5.242   9.800  11.088
66765W        W39025   7.882  38.817   3.334
66766W        W39026  41.781  14.567  12.957
66767W        W39027  11.108  27.656   4.512
66768W        W39028  12.760   2.322   4.581
66769W        W39029  33.217  21.876   0.795
66770W        W39030  32.507  11.135   4.567
66771W        W39031  22.993  24.772  13.874
66772W        W39032  44.417   0.224  10.777
66773W        W39033  32.041  15.596  13.571
66774W        W39034  15.219  13.963   3.343
66775W        W39035  27.043  42.887   1.694
66776W        W39036  31.484  23.067  12.534
66777W        W39037  29.594  10.349  14.879
66778W        W39038   7.259  32.162   1.255
66779W        W39039   0.473  37.680   0.171
66780W        W39040  37.927  32.489   1.905
66781W        W39041  22.932  12.917  13.599
66782W        W39042  43.844   7.370  11.407
66783W        W39043  27.324  25.804   2.807
66784W        W39044  16.342  35.818   2.279
66785W        W39045  14.288   6.580   2.725
66786W        W39046  41.819  25.242  11.609
66787W        W39047  20.526   8.430   4.300
66788W        W39048  26.649  40.022   2.112
66789W        W39049  31.088  30.674   5.042
66790W        W39050  42.966  44.955   1.364
66791W        W39051  35.891   5.130  14.272
66792W        W39052   0.040   2.294   3.900
66793W        W39053  27.003   1.871   4.164
66794W        W39054   9.977   7.425   1.870
66795W        W39055  12.605  16.061   1.732
66796W        W39056  28.814  17.801  13.937
66797W        W39057  18.706  14.565  10.416
66798W        W39058  43.230  42.740   3.789
66799W        W39059  32.041  19.661  10.695
66800W        W39060  40.403  33.493  10.785
66801W        W39061   1.575   3.937   0.270
66802W        W39062   5.110  37.486  13.322
66803W        W39063  16.833   5.285  13.350
66804W        W39064   2.318  35.081   3.322
66805W        W39065  25.976   1.773  11.148
66806W        W39066   5.389  42.762  11.538
66807W        W39067  12.751  13.383   1.312
66808W        W39068   0.413  20.730   3.901
66809W        W39069   3.842  14.306   5.174
66810W        W39070   4.340  19.058  13.421
66811W        W39071  44.921  31.340   1.187
66812W        W39072  43.348   4.788  14.875
66813W        W39073  44.853  10.015  12.044
66814W        W39074  44.318   1.492  11.408
66815W        W39075  29.904  32.963   9.957
66816W        W39076   2.728  23.672  11.824
66817W        W39077   9.149  35.380   2.365
66818W        W39078  31.261   2.576   4.706
66819W        W39079   4.743  19.123  11.942
66820W        W39080  28.523  35.454   2.401
66821W        W39081  33.845  16.586   2.293
66822W        W39082  22.801  35.993  14.889
66823W        W39083  16.692  33.959  13.229
66824W        W39084  29.150   4.805   3.762
66825W        W39085  33.720  28.263   1.406
66826W        W39086  44.322  20.755   3.311
66827W        W39087  23.000   8.382  12.850
66828W        W39088  44.370  39.514   0.429
66829W        W39089  31.116  24.141   3.725
66830W        W39090  40.989  27.539   4.160
66831W        W39091  18.693   0.309  14.849
66832W        W39092  42.959  30.059  11.934
66833W        W39093   5.217  14.635  14.707
66834W        W39094  10.258  34.596  12.871
66835W        W39095  37.354  27.986   2.168
66836W        W39096  18.646   0.263  10.688
66837W        W39097  24.025  29.759  11.467
66838W        W39098  25.955  30.244  11.554
66839W        W39099  10.456   8.288   0.866
66840W        W39100  36.160  19.339   1.936
66841W        W39101  30.467   5.464   3.716
66842W        W39102  34.342   2.181  14.485
66843W        W39103  19.265  18.921   4.980
66844W        W39104   1.445  11.384  12.109
66845W        W39105  37.931   4.306  13.540
66846W        W39106  41.959  40.312   3.211
66847W        W39107  40.401  38.093   0.887
66848W        W39108  39.959  23.628  12.407
66849W        W39109  21.831  39.418   3.238
66850W        W39110  36.884  21.739  12.627
66851W        W39111  18.105   8.308   5.479
66852W        W39112  30.123  11.920   1.920
66853W        W39113  34.040  14.472   2.002
66854W        W39114  28.203   7.794  14.702
66855W        W39115  21.860  26.973   3.284
66856W        W39116   8.255  33.234   4.514
66857W        W39117  25.835   5.197  13.438
66858W        W39118  25.573  26.641  13.102
66859W        W39119  14.200  14.665  11.436
66860W        W39120  34.507  21.736   3.583
66861W        W39121  17.619  10.684  14.112
66862W        W39122  42.403  24.721   2.650
66863W        W39123  33.162  42.942  13.281
66864W        W39124  43.370  12.638   4.072
66865W        W39125  11.799  12.748   2.183
66866W        W39126  22.606  12.716   3.645
66867W        W39127   5.160  14.999   3.942
66868W        W39128  40.465  40.932  13.836
66869W        W39129  11.676  26.964   3.223
66870W        W39130   0.380  15.311  11.689
66871W        W39131  36.800  37.078  13.931
66872W        W39132   8.667  26.700  13.971
66873W        W39133  20.264  14.282   0.345
66874W        W39134  40.790  20.677  13.856
66875W        W39135  41.970  39.587   1.274
66876W        W39136  31.524   6.373   4.363
66877W        W39137  17.182  23.249  12.021
66878W        W39138  16.751   4.741   2.370
66879W        W39139  34.877  41.901  13.868
66880W        W39140   7.899  27.946  12.378
66881W        W39141  10.778   0.721  11.928
66882W        W39142   6.165   0.296  12.118
66883W        W39143   8.290   6.244   2.625
66884W        W39144  31.890  25.686  11.181
66885W        W39145   5.698  27.001  10.147
66886W        W39146  30.896  39.436  13.764
66887W        W39147  31.611  25.216   0.398
66888W        W39148   9.627   5.145   3.317
66889W        W39149  35.567  43.219   3.330
66890W        W39150   8.395   3.217  11.625
66891W        W39151   1.291   9.661   4.369
66892W        W39152   0.346  18.452  13.822
66893W        W39153  39.881   7.380   2.716
66894W        W39154  27.100  35.083   3.361
66895W        W39155  27.579  40.864   2.447
66896W        W39156  35.125  24.062  14.428
66897W        W39157  36.442  10.806  12.970
66898W        W39158  23.092  26.133  14.375
66899W        W39159  16.955  38.634   0.767
66900W        W39160   0.420  22.418  14.393
66901W        W39161  35.539   7.954   0.805
66902W        W39162  24.097  13.205   3.453
66903W        W39163  38.707  30.925  10.421
66904W        W39164  40.245  17.593   3.335
66905W        W39165   5.752  36.552   4.098
66906W        W39166   8.108  26.546   5.407
66907W        W39167  38.077   5.907   1.494
66908W        W39168  35.826  24.688   3.517
66909W        W39169   6.151  21.664  13.792
66910W        W39170  18.632   5.492  14.175
66911W        W39171  26.583  27.439  13.650
66912W        W39172  21.212  26.020   2.350
66913W        W39173  16.732  20.628   3.848
66914W        W39174  38.446   1.768   0.391
66915W        W39175   2.288  30.919  11.711
66916W        W39176  10.156  44.519  13.795
66917W        W39177  44.611  39.835   1.392
66918W        W39178  24.622  14.693  14.067
66919W        W39179  13.123   1.217   3.269
66920W        W39180  44.290  40.912  14.371
66921W        W39181  28.346  28.003   1.374
66922W        W39182  23.056  24.614  10.368
66923W        W39183  40.186  31.321  11.142
66924W        W39184   4.864  13.767   2.733
66925W        W39185  31.936   9.432   2.831
66926W        W39186  38.815   6.834  12.450
66927W        W39187  39.817   2.148  14.919
66928W        W39188  42.527  20.557   3.686
66929W        W39189  13.845  22.382   1.353
66930W        W39190   2.860  15.932   3.248
66931W        W39191   6.925   1.242   4.664
66932W        W39192   8.304  22.298  10.584
66933W        W39193  17.857  37.975  11.438
66934W        W39194  38.517  21.244  11.197
66935W        W39195  29.655  32.481  12.386
66936W        W39196  32.848  31.548  12.353
66937W        W39197  29.661  10.316   1.428
66938W        W39198  28.186   4.082  10.770
66939W        W39199  30.026  38.978   2.306
66940W        W39200  10.288  21.247  14.418
66941W        W39201  12.618  36.903  13.905
66942W        W39202  13.618  29.697   1.440
66943W        W39203  13.330  27.712   3.296
66944W        W39204  42.317  31.184   4.560
66945W        W39205   4.299  38.983  12.568
66946W        W39206  10.251   7.385  13.947
66947W        W39207  34.117  20.262   4.175
66948W        W39208  26.061   3.160  11.106
66949W        W39209  18.969   2.906  14.280
66950W        W39210  28.609  40.987   4.464
66951W        W39211   9.862  33.463  13.580
66952W        W39212  37.885  10.626  13.791
66953W        W39213   6.701  37.923  12.361
66954W        W39214  13.736  15.437  11.629
66955W        W39215   0.732  24.427   4.588
66956W        W39216  29.407  27.906   2.306
66957W        W39217  17.547  35.942  12.518
66958W        W39218  14.549  24.541   3.176
66959W        W39219  29.933  40.609  12.636
66960W        W39220  27.104   8.843   1.236
66961W        W39221  29.906  44.735   3.827
66962W        W39222   8.253   0.531  14.056
66963W        W39223  16.731  15.855  13.269
66964W        W39224  22.827  19.760   2.008
66965W        W39225   9.858  39.423  12.222
66966W        W39226  23.560   7.825  13.490
66967W        W39227  27.639  32.037  11.529
66968W        W39228   0.976  22.473   1.398
66969W        W39229  31.099  10.495  11.205
66970W        W39230   5.880  21.440   3.158
66971W        W39231  13.883  17.859   0.187
66972W        W39232   1.045   4.845   1.463
66973W        W39233  39.190  23.583   4.132
66974W        W39234   2.664   4.456  11.929
66975W        W39235   1.483  13.180  14.763
66976W        W39236  35.325   8.288  14.326
66977W        W39237   7.925  27.850  14.833
66978W        W39238  20.716  40.275  10.692
66979W        W39239  32.467   3.995  13.819
66980W        W39240  40.846   8.234   0.058
66981W        W39241   6.502  14.309   3.126
66982W        W39242   6.911  34.988   0.138
66983W        W39243  10.314  41.905   3.600
66984W        W39244  27.835  37.065   1.023
66985W        W39245  25.281  42.875  12.098
66986W        W39246  34.668   4.217  14.278
66987W        W39247  42.193  30.916  11.653
66988W        W39248  26.684  33.329  12.429
66989W        W39249  19.787   7.935  12.352
66990W        W39250  19.646   8.033   2.730
66991W        W39251  21.781  32.856  11.057
66992W        W39252  18.101  20.776   9.977
66993W        W39253  16.182  19.186  11.165
66994W        W39254  22.230  24.802  11.348
66995W        W39255  22.006   9.832  13.315
66996W        W39256  13.838  13.733  13.850
66997W        W39257   5.513  39.887   2.337
66998W        W39258  14.574  33.368   2.239
66999W        W39259   4.934   7.029   3.261
67000W        W39260  32.835  44.046  11.163
67001W        W39261  21.900  21.687  13.066
67002W        W39262  19.321  23.309  13.118
67003W        W39263  38.651  17.765   0.886
67004W        W39264  18.534  35.364  14.871
67005W        W39265  43.726  29.608  10.449
67006W        W39266  41.477  38.968   2.622
67007W        W39267  39.028  30.300   2.848
67008W        W39268  30.973  34.961   4.655
67009W        W39269   7.388  17.429   2.281
67010W        W39270   7.284   0.012  13.606
67011W        W39271  34.543  39.373   1.279
67012W        W39272  15.690   2.713  14.090
67013W        W39273  17.113  13.141   1.564
67014W        W39274  33.396  16.202   2.801
67015W        W39275   6.530  29.489  12.861
67016W        W39276  38.425  41.943   3.757
67017W        W39277  11.687  43.335   0.878
67018W        W39278   5.152   3.279   0.361
67019W        W39279  20.256  22.983  14.791
67020W        W39280  26.556  23.661   3.593
67021W        W39281  13.645  20.256  13.910
67022W        W39282  18.609  41.315   3.161
67023W        W39283  34.618  19.554   3.562
67024W        W39284  26.764   3.322  11.895
67025W        W39285   4.510  14.663  12.499
67026W        W39286  28.703   3.648   0.838
67027W        W39287  26.903  10.113   4.817
67028W        W39288  36.963  11.980  12.817
67029W        W39289  28.618  36.436   0.811
67030W        W39290  19.185   9.983   3.228
67031W        W39291  44.729  14.051  14.951
67032W        W39292  20.122   7.038  11.988
67033W        W39293   3.512  44.508  11.142
67034W        W39294  32.924  44.846   4.783
67035W        W39295  16.295  15.027  12.067
67036W        W39296  25.730  42.522  11.470
67037W        W39297  41.863  18.002  12.409
67038W        W39298  11.157   8.751   1.698
67039W        W39299   2.455  25.926   3.275
67040W        W39300  40.144  32.593  11.245
67041W        W39301   3.737  33.704  14.763
67042W        W39302  15.720  15.790  14.592
67043W        W39303  35.116  35.967  13.315
67044W        W39304  41.450   7.709  13.628
67045W        W39305  35.615  28.212  11.553
67046W        W39306   8.741  44.218  11.994
67047W        W39307  43.984  25.137  11.844
67048W        W39308  44.984  23.822  12.644
67049W        W39309  27.045  30.674   5.084
67050W        W39310  37.154  15.655  11.505
67051W        W39311   9.176  17.659  12.537
67052W        W39312  13.701   8.356   0.777
67053W        W39313   7.032  18.784  11.664
67054W        W39314   6.303  34.456   0.480
67055W        W39315  11.254  24.486  12.003
67056W        W39316  28.032  15.285   2.951
67057W        W39317  22.131  35.396  10.662
67058W        W39318   6.970  35.423   0.901
67059W        W39319  38.299  25.058   0.430
67060W        W39320   1.214   8.199  10.664
67061W        W39321   5.041   8.361   3.380
67062W        W39322  37.137  22.688   2.142
67063W        W39323  14.324  26.585   0.266
67064W        W39324  20.008  29.752  11.148
67065W        W39325  12.627  37.460  14.135
67066W        W39326  37.023  16.780   1.784
67067W        W39327  44.231  44.285  14.987
67068W        W39328  18.183   7.081  12.865
67069W        W39329   0.515  35.608   1.030
67070W        W39330  35.180  33.689  14.213
67071W        W39331  14.223  41.914  11.721
67072W        W39332  42.784  35.336   3.687
67073W        W39333  33.871   8.148   0.952
67074W        W39334  29.653  37.054  12.869
67075W        W39335  23.259  19.479  11.634
67076W        W39336  37.073  32.148  13.884
67077W        W39337  23.095   6.422   0.828
67078W        W39338   5.809  42.280  11.121
67079W        W39339   6.999  42.372   0.393
67080W        W39340   4.796  17.933  12.890
67081W        W39341  13.732  17.209  14.865
67082W        W39342  15.336  31.500   2.234
67083W        W39343   4.208  42.134   3.451
67084W        W39344  30.450  22.024   4.542
67085W        W39345  37.438  19.338   4.887
67086W        W39346  28.656   8.302  12.831
67087W        W39347   9.936  29.121   0.284
67088W        W39348  25.187  23.440  14.473
67089W        W39349  11.259  12.137   3.074
67090W        W39350  14.886  28.906   5.030
67091W        W39351  14.045  12.373   4.089
67092W        W39352  13.671  26.689  14.017
67093W        W39353   6.345  31.114   1.025
67094W        W39354  29.543  21.565   1.992
67095W        W39355  36.975  31.996   4.611
67096W        W39356  30.538   9.230  11.584
67097W        W39357  21.437  23.310   0.352
67098W        W39358  34.447  31.697   2.740
67099W        W39359  38.411   2.633  13.895
67100W        W39360  29.433  18.947  13.903
67101W        W39361  35.887  43.772  13.532
67102W        W39362  39.561  31.075  11.872
67103W        W39363  29.889  11.590   1.249
67104W        W39364  11.464   4.826   0.168
67105W        W39365  15.148  37.441  11.050
67106W        W39366  37.468  14.089  12.281
67107W        W39367  11.816  44.347   4.085
67108W        W39368   4.448  21.722  14.928
67109W        W39369  40.447   2.883   0.215
67110W        W39370   9.225  20.587   1.882
67111W        W39371  42.320   9.946  10.891
67112W        W39372   1.062  22.777  11.544
67113W        W39373   3.893  31.784   0.381
67114W        W39374  10.233  20.596   4.194
67115W        W39375  13.012   5.663  12.339
67116W        W39376  26.797  22.428  13.765
67117W        W39377   4.826  16.128   3.298
67118W        W39378  21.699  14.813   2.698
67119W        W39379   2.825  22.508   2.265
67120W        W39380  16.190  29.666  12.555
67121W        W39381  32.921  17.617   4.159
67122W        W39382  43.990   0.002  10.559
67123W        W39383  41.295  14.852  14.031
67124W        W39384  14.350   1.311  12.061
67125W        W39385   4.386  16.586  14.077
67126W        W39386  19.153  32.278   3.289
67127W        W39387  34.339  15.701   4.196
67128W        W39388   7.464  34.517   0.953
67129W        W39389  32.019  29.383   4.527
67130W        W39390   1.195  42.530   4.183
67131W        W39391  28.861  19.286   2.160
67132W        W39392  22.845  27.745  10.761
67133W        W39393  40.330  38.456  12.012
67134W        W39394   4.350  16.292   1.955
67135W        W39395  35.063  42.372  10.869
67136W        W39396  25.243  31.371  12.360
67137W        W39397  22.601  23.299   3.168
67138W        W39398  38.096   6.325   3.767
67139W        W39399   1.421  33.886  11.127
67140W        W39400  15.479  17.681   3.623
67141W        W39401  44.496  37.882  10.117
67142W        W39402  37.197  30.017  10.737
67143W        W39403  43.022  31.446  12.539
67144W        W39404  44.216  15.332  14.856
67145W        W39405  25.234  20.076   4.287
67146W        W39406  19.481  38.880   1.331
67147W        W39407  20.039  18.991   1.599
67148W        W39408  30.141  27.125  10.663
67149W        W39409  15.716  44.517  13.624
67150W        W39410  11.658  33.875   3.085
67151W        W39411  38.973  13.616   1.303
67152W        W39412   0.902  37.331   1.085
67153W        W39413  18.696  43.432  14.960
67154W        W39414   9.369  31.907   2.166
67155W        W39415  28.358  28.602  11.394
67156W        W39416  40.422  15.092  11.928
67157W        W39417  19.715  28.759  13.994
67158W        W39418  22.538  10.075   3.300
67159W        W39419  13.090   9.657   3.330
67160W        W39420  13.834  30.634   4.995
67161W        W39421  17.270  32.859   0.230
67162W        W39422  29.143   6.393   2.905
67163W        W39423  11.149  32.663  13.037
67164W        W39424   2.490  20.722  12.420
67165W        W39425  23.957   5.071   4.982
67166W        W39426   0.570  10.243   4.414
67167W        W39427  13.718  15.302   0.720
67168W        W39428  13.307  31.544  11.884
67169W        W39429   0.450  16.652  11.517
67170W        W39430   8.942  33.955   0.510
67171W        W39431  15.783   1.294  14.818
67172W        W39432  23.972  11.243   3.290
67173W        W39433  35.149  43.335   1.718
67174W        W39434  29.739  24.637   2.590
67175W        W39435  37.827  22.987   0.275
67176W        W39436  26.833  42.809   5.029
67177W        W39437  41.073  24.471  12.622
67178W        W39438   4.925  11.318   4.872
67179W        W39439  16.307  17.628  11.231
67180W        W39440  22.406   0.974  11.157
67181W        W39441  11.812  41.391  10.233
67182W        W39442  13.195  14.127  10.700
67183W        W39443  43.510  34.070   1.835
67184W        W39444   0.296  32.055  11.254
67185W        W39445  28.956  22.563  10.484
67186W        W39446  26.132   9.828   1.467
67187W        W39447  13.647  33.047  13.963
67188W        W39448   3.742   3.812   0.876
67189W        W39449  22.455  23.009   0.316
67190W        W39450  33.643   8.205   1.839
67191W        W39451  19.592  38.134   2.850
67192W        W39452  21.797  22.567  14.982
67193W        W39453  44.688  15.329  13.927
67194W        W39454  41.226  28.661  11.596
67195W        W39455  12.359  22.038  11.912
67196W        W39456  40.931  30.997  11.565
67197W        W39457  36.457  28.598  11.467
67198W        W39458   6.239  36.148  12.052
67199W        W39459   7.389  41.062  13.353
67200W        W39460   3.489  41.146   2.582
67201W        W39461  14.034  28.020  10.176
67202W        W39462   4.472  43.026  13.307
67203W        W39463  35.460   0.870   0.405
67204W        W39464   4.394  17.149   4.625
67205W        W39465  23.614  39.786   4.118
67206W        W39466  31.535  39.313  10.786
67207W        W39467   6.475  22.274   0.716
67208W        W39468  14.597  39.049  10.633
67209W        W39469  10.050  42.019   4.015
67210W        W39470  41.459  42.318  14.372
67211W        W39471  34.376  25.470   1.386
67212W        W39472  27.309  33.988   1.300
67213W        W39473  42.023   4.883  14.295
67214W        W39474  20.285  28.586   3.774
67215W        W39475  23.946   0.766  13.134
67216W        W39476  10.192   2.345  12.447
67217W        W39477  18.015   2.474   1.473
67218W        W39478  14.090  44.869   1.239
67219W        W39479  30.909  38.518   3.618
67220W        W39480  16.574  33.694   3.081
67221W        W39481  15.177  12.737  11.010
67222W        W39482  44.246  16.179  12.127
67223W        W39483   2.692  38.002  10.650
67224W        W39484   5.872   0.751   3.211
67225W        W39485   6.149  11.793  11.533
67226W        W39486   0.218  41.871   3.560
67227W        W39487  21.737  21.701  10.622
67228W        W39488  11.439   0.523   1.368
67229W        W39489  22.122  13.834   3.610
67230W        W39490   3.420  41.101   0.311
67231W        W39491  39.016  14.229  13.892
67232W        W39492  10.109  15.558  11.892
67233W        W39493  32.980   1.297   0.757
67234W        W39494  24.782   9.034   1.784
67235W        W39495   5.612  36.784   2.745
67236W        W39496  41.835  21.902   3.359
67237W        W39497  21.469  14.523  12.094
67238W        W39498  25.047  38.437  14.936
67239W        W39499  34.658  34.582   0.078
67240W        W39500  17.049   6.336   1.257
67241W        W39501   4.460  21.677   0.975
67242W        W39502  38.769  43.493  13.365
67243W        W39503  22.307  37.052   4.928
67244W        W39504  38.024  22.735   3.243
67245W        W39505  42.029  28.139  13.737
67246W        W39506  20.155  32.188  12.937
67247W        W39507  37.882   8.829   3.055
67248W        W39508  43.078  13.997  13.010
67249W        W39509  14.197  31.958  11.599
67250W        W39510  23.658   5.800   4.627
67251W        W39511  19.982  17.273   4.291
67252W        W39512  42.840   4.874  12.405
67253W        W39513  13.551  31.509   0.305
67254W        W39514  36.890   5.926  11.579
67255W        W39515  13.216   4.407   1.663
67256W        W39516   7.938  17.183  12.528
67257W        W39517  33.043  43.668   0.975
67258W        W39518  39.135   0.338   9.891
67259W        W39519  25.604  34.901  12.407
67260W        W39520   3.749  37.504  14.245
67261W        W39521  28.746   0.114   1.250
67262W        W39522  32.151  43.211  11.901
67263W        W39523  15.476   2.274   4.357
67264W        W39524   5.818  14.646  12.026
67265W        W39525  31.403   2.849   1.173
67266W        W39526  20.058  21.236  11.618
67267W        W39527  33.963  29.450   0.085
67268W        W39528  41.085  10.337  13.489
67269W        W39529   7.484  16.177   4.706
67270W        W39530   2.870  44.794   2.824
67271W        W39531  42.842  15.030  13.964
67272W        W39532  32.561   9.964  10.142
67273W        W39533  28.677   6.305  12.987
67274W        W39534   9.759  16.051  13.096
67275W        W39535  41.746   6.358   3.190
67276W        W39536  20.894  29.060   2.725
67277W        W39537   3.704  16.685  14.311
67278W        W39538  39.181  15.647  13.009
67279W        W39539  16.739  22.965  12.025
67280W        W39540  41.502  12.349  13.442
67281W        W39541  35.793  36.819  13.911
67282W        W39542  26.775  24.152  13.286
67283W        W39543  29.567  16.411   4.660
67284W        W39544   9.657  37.556   4.519
67285W        W39545   1.988   4.694  14.021
67286W        W39546  32.006  19.682  10.181
67287W        W39547  33.118  39.239   0.530
67288W        W39548  44.925   4.804   0.044
67289W        W39549  19.607  22.620  11.679
67290W        W39550  14.363   5.222  12.890
67291W        W39551  25.186  42.642  14.921
67292W        W39552  24.874  29.462  14.308
67293W        W39553  26.162  43.459   3.624
67294W        W39554  42.268   4.167  12.697
67295W        W39555  23.875   6.431   3.274
67296W        W39556  22.990  26.740   3.824
67297W        W39557   4.452  39.327  14.932
67298W        W39558  11.049   0.476  13.967
67299W        W39559   1.925   5.070   3.692
67300W        W39560  15.139   5.799   4.454
67301W        W39561   5.754   4.541  11.570
67302W        W39562   1.350   6.835  10.732
67303W        W39563   2.812  14.085   1.285
67304W        W39564  23.620  24.536  12.080
67305W        W39565  26.808   2.467   3.561
67306W        W39566  10.828  14.756  12.947
67307W        W39567  31.495  24.518   2.740
67308W        W39568   2.014  15.050  13.356
67309W        W39569   9.774  15.069  14.461
67310W        W39570  16.116  10.186  11.660
67311W        W39571  12.165  39.699   1.466
67312W        W39572  20.004  38.345   3.797
67313W        W39573  13.626   3.148  11.566
67314W        W39574  43.138  20.759   2.730
67315W        W39575   4.198  31.171  12.149
67316W        W39576  42.863   2.889   1.758
67317W        W39577  42.797  20.520   1.792
67318W        W39578  24.390   7.692   0.960
67319W        W39579  37.472  11.718   0.813
67320W        W39580   5.426  42.747   0.892
67321W        W39581  37.025   5.928  13.500
67322W        W39582  33.832  25.684   5.035
67323W        W39583  14.308   1.926  13.503
67324W        W39584  25.541  38.612  11.908
67325W        W39585  37.461  20.126  13.832
67326W        W39586   0.215  35.569  14.771
67327W        W39587  37.317  15.016   2.360
67328W        W39588  20.990  30.975  11.973
67329W        W39589  44.700  27.018   0.187
67330W        W39590  28.647  19.605  14.055
67331W        W39591  19.524  33.679   2.733
67332W        W39592  41.833  37.550  12.140
67333W        W39593   4.961   3.421   2.188
67334W        W39594  13.740  36.959  12.604
67335W        W39595  40.404   8.468  11.537
67336W        W39596  13.820   2.136  11.040
67337W        W39597  22.147  27.024  13.490
67338W        W39598  19.065   5.832  14.002
67339W        W39599  25.649  43.796   0.274
67340W        W39600   1.616  26.243   0.096
67341W        W39601  22.316  24.590   4.303
67342W        W39602  37.804  24.096  13.096
67343W        W39603  20.253  42.138  11.627
67344W        W39604  27.399  19.993   4.787
67345W        W39605  31.702  14.708   4.180
67346W        W39606   6.259  42.921   0.304
67347W        W39607  42.534  39.798   1.421
67348W        W39608  10.562  16.119  14.927
67349W        W39609   9.073  23.160   4.315
67350W        W39610   5.530  12.221  11.303
67351W        W39611  44.043  16.267   3.641
67352W        W39612  37.770  33.540   0.625
67353W        W39613  32.088   5.969   1.712
67354W        W39614  19.221  39.121  11.543
67355W        W39615  36.853  13.070   2.861
67356W        W39616  16.723  15.574  14.828
67357W        W39617  40.111  42.899   0.830
67358W        W39618  32.185  13.392   4.990
67359W        W39619  11.059  22.673   1.898
67360W        W39620   1.700  36.262  14.428
67361W        W39621  42.930   1.367  14.143
67362W        W39622  25.456   3.527  12.475
67363W        W39623  28.675  39.442   1.925
67364W        W39624  24.298  35.960  10.897
67365W        W39625   8.384  11.654   1.819
67366W        W39626  29.460  41.577   0.938
67367W        W39627  34.809  17.220   4.462
67368W        W39628  18.317  40.166  13.959
67369W        W39629  35.791  11.247   0.433
67370W        W39630  36.070   6.765   2.180
67371W        W39631  20.808  39.899   3.862
67372W        W39632   0.791  22.916   3.702
67373W        W39633   8.874  22.975  12.047
67374W        W39634  20.715  28.950  11.167
67375W        W39635  39.806  14.115   3.745
67376W        W39636  14.200   5.469   1.761
67377W        W39637  31.900  15.871   2.467
67378W        W39638  15.610  32.021  10.276
67379W        W39639  13.443  11.597  12.955
67380W        W39640  32.271   4.782  11.551
67381W        W39641  40.840  19.064   2.778
67382W        W39642  23.183  19.949   4.133
67383W        W39643  15.770  15.409   2.677
67384W        W39644   8.411   0.364   2.977
67385W        W39645  26.661  15.903  10.115
67386W        W39646  23.247  16.272   4.451
67387W        W39647  35.677  37.339  12.505
67388W        W39648  22.767  13.758  13.788
67389W        W39649  23.122  42.806  12.388
67390W        W39650  21.289  27.484   4.563
67391W        W39651  25.435   7.619  14.454
67392W        W39652  33.464  25.593  12.002
67393W        W39653  36.017  33.056  14.256
67394W        W39654   2.912  30.481   0.765
67395W        W39655   1.979  18.582  12.484
67396W        W39656  20.158  22.620   3.092
67397W        W39657  31.787  32.592   0.434
67398W        W39658  23.538   7.340  13.303
67399W        W39659  27.469   0.369  14.493
67400W        W39660  20.786   2.654   0.324
67401W        W39661  36.380   8.445   2.229
67402W        W39662  31.570   2.426  12.475
67403W        W39663  39.617  10.152   0.920
67404W        W39664  27.791  21.539  11.447
67405W        W39665  28.895  13.664   0.403
67406W        W39666  33.549  22.755   2.285
67407W        W39667  13.546  24.174  12.197
67408W        W39668   5.662  20.123  14.102
67409W        W39669   3.321  37.390  12.381
67410W        W39670  33.492   3.173   1.205
67411W        W39671  32.949   3.210   2.409
67412W        W39672   5.375   2.440  14.502
67413W        W39673  44.809  31.044   1.895
67414W        W39674   8.222  20.177   3.822
67415W        W39675  39.906   0.673  13.522
67416W        W39676  31.882  14.782  12.085
67417W        W39677  39.118  29.463   4.306
67418W        W39678  27.110   5.954  14.846
67419W        W39679  40.247  20.840  13.938
67420W        W39680  36.550  12.851   4.561
67421W        W39681  44.070  27.059  14.630
67422W        W39682  21.579  39.471   3.693
67423W        W39683  16.063   4.417  14.802
67424W        W39684  40.664   5.337  10.389
67425W        W39685   4.794  16.536   1.768
67426W        W39686  28.525  18.547   4.379
67427W        W39687  12.276   3.407   3.170
67428W        W39688   0.446  19.172  14.363
67429W        W39689   5.291  43.893  12.872
67430W        W39690  15.121  32.905   1.356
67431W        W39691  44.440  21.175   1.289
67432W        W39692  36.076   9.636  10.652
67433W        W39693   1.016  36.951  12.144
67434W        W39694   0.874  34.252   2.768
67435W        W39695   2.923  20.564  12.710
67436W        W39696  21.523  15.722   1.777
67437W        W39697  12.298  27.570  12.817
67438W        W39698  25.805  27.762  12.623
67439W        W39699  14.296  20.741   4.625
67440W        W39700   0.826  43.294  10.640
67441W        W39701  38.411   4.411  12.810
67442W        W39702  20.122  19.520   4.693
67443W        W39703  42.552  41.537  14.325
67444W        W39704  39.797  11.159  10.705
67445W        W39705  42.289   9.651  13.301
67446W        W39706  38.037   1.206  13.577
67447W        W39707  33.709  34.445  14.758
67448W        W39708   0.773  15.348  13.444
67449W        W39709  22.407  14.686   4.134
67450W        W39710  19.956   7.000  11.486
67451W        W39711   2.913  19.510  10.531
67452W        W39712  34.564  24.000   4.539
67453W        W39713  35.520  31.107  13.264
67454W        W39714  27.711   8.177   0.382
67455W        W39715  33.017  12.873  14.941
67456W        W39716  19.585  41.939  11.947
67457W        W39717  33.926  15.048   3.210
67458W        W39718   6.147  42.490  13.755
67459W        W39719  28.164  42.266   4.581
67460W        W39720   2.132  17.666  10.932
67461W        W39721  31.667  41.548   2.324
67462W        W39722  32.812  31.019   1.070
67463W        W39723  38.158  13.191  13.764
67464W        W39724  14.332  44.287  13.770
67465W        W39725  28.293  28.106  10.719
67466W        W39726  17.206  41.434  13.761
67467W        W39727  29.304   0.392  14.441
67468W        W39728   9.320  16.918   5.022
67469W        W39729   3.269  37.033  12.770
67470W        W39730  31.640  14.521  11.697
67471W        W39731  37.778  11.688  13.391
67472W        W39732   7.380  22.288  12.051
67473W        W39733  32.623  23.578   4.282
67474W        W39734  19.595  30.694   3.777
67475W        W39735   8.333   4.755   4.295
67476W        W39736  39.535  20.210  10.615
67477W        W39737  12.303  12.786  14.777
67478W        W39738  24.599  28.352   3.775
67479W        W39739  15.840  24.583  14.733
67480W        W39740  33.818  35.874  12.906
67481W        W39741  14.350  37.631  14.840
67482W        W39742  36.358   3.824   4.843
67483W        W39743   2.165  42.275  11.949
67484W        W39744  36.460   5.325   4.404
67485W        W39745  13.516   2.145  12.428
67486W        W39746   9.971   2.820  12.202
67487W        W39747   6.317  33.078  14.944
67488W        W39748   8.664  14.281  13.558
67489W        W39749  12.419  40.127   1.437
67490W        W39750   2.213  10.740  12.974
67491W        W39751  26.929  16.718  14.273
67492W        W39752  33.234   0.961   3.590
67493W        W39753  32.742  38.570  12.099
67494W        W39754  30.880  23.070   3.266
67495W        W39755  33.212   0.409   1.264
67496W        W39756  13.432   7.932   1.690
67497W        W39757  24.171   2.738  13.054
67498W        W39758  17.782  27.499  13.915
67499W        W39759  40.352  36.389  14.809
67500W        W39760  15.799  15.127  12.100
67501W        W39761  24.766  10.918  12.844
67502W        W39762  23.799  10.717   1.878
67503W        W39763  14.577  23.633  14.945
67504W        W39764  41.978  33.772   4.402
67505W        W39765  14.074  19.628   3.590
67506W        W39766  32.027  12.508   3.912
67507W        W39767  14.760   4.818  14.465
67508W        W39768  19.292  33.341   4.101
67509W        W39769  42.990   6.442  11.523
67510W        W39770  18.789  34.065  12.096
67511W        W39771   2.596  24.220  14.105
67512W        W39772  13.307   2.159  13.315
67513W        W39773  41.912   3.495   3.305
67514W        W39774  43.272  44.524   4.232
67515W        W39775  33.348  10.658   3.677
67516W        W39776  13.168  26.509   3.869
67517W        W39777  22.818  44.969  12.046
67518W        W39778  32.447   4.798   4.131
67519W        W39779   0.740  14.434   1.267
67520W        W39780   2.838   7.142  14.894
67521W        W39781  18.043  44.109   4.621
67522W        W39782   9.783  19.242   5.015
67523W        W39783  10.328  20.013  14.085
67524W        W39784  14.274  26.177   0.590
67525W        W39785   2.034   0.273   2.972
67526W        W39786  12.086   1.029   4.496
67527W        W39787  36.547  11.670  10.615
67528W        W39788  14.740  16.561   3.156
67529W        W39789   2.059  28.596   1.450
67530W        W39790   5.290  27.127  13.845
67531W        W39791  16.592  26.827   0.770
67532W        W39792  39.391  28.894   4.076
67533W        W39793  34.874  23.751  10.934
67534W        W39794  39.752  44.393  11.960
67535W        W39795   4.255   8.184  13.586
67536W        W39796  31.200  10.600   4.574
67537W        W39797  17.763   5.178   1.059
67538W        W39798  15.470  29.741   4.214
67539W        W39799  38.313   2.902  13.457
67540W        W39800   7.949  23.963   2.124
67541W        W39801  13.176   4.801   4.667
67542W        W39802  17.214  32.318   0.426
67543W        W39803   8.004  35.624   3.734
67544W        W39804  18.293  44.426  12.138
67545W        W39805  30.160  20.258   0.402
67546W        W39806  41.489   0.832   1.868
67547W        W39807   7.176  32.672  12.525
67548W        W39808  25.148  30.537   3.719
67549W        W39809   7.123  42.311  11.910
67550W        W39810  27.886  22.227   1.369
67551W        W39811   6.700  11.690  12.359
67552W        W39812   3.218   9.880  12.909
67553W        W39813  31.192  12.137  11.601
67554W        W39814   7.922   6.302  14.499
67555W        W39815  39.907  25.730   3.191
67556W        W39816  40.509  41.576   4.096
67557W        W39817  22.619  32.770  13.450
67558W        W39818  39.427  44.308  12.981
67559W        W39819  24.518  27.162  13.783
67560W        W39820  10.865  15.108  13.630
67561W        W39821  32.460  31.793   0.327
67562W        W39822  12.305  34.232   2.613
67563W        W39823  28.935  24.998   0.477
67564W        W39824   8.654  27.724   2.706
67565W        W39825  39.707  19.730  10.664
67566W        W39826  20.795  44.659  11.074
67567W        W39827   1.090  31.709  13.421
67568W        W39828  14.520  43.758  13.853
67569W        W39829  42.830  20.821  10.548
67570W        W39830  12.664   5.450   0.805
67571W        W39831  12.844  26.566   2.569
67572W        W39832  10.900  31.504   3.145
67573W        W39833   6.806  40.492   0.777
67574W        W39834   5.473  34.632   0.702
67575W        W39835  20.039   1.331  12.902
67576W        W39836  33.585  15.836  11.073
67577W        W39837  43.407  33.553   4.619
67578W        W39838  21.790  11.791  10.668
67579W        W39839  26.097  26.810  13.855
67580W        W39840  39.913  28.125   2.296
67581W        W39841   0.153  41.859  14.018
67582W        W39842  30.984   9.207   0.299
67583W        W39843  29.434  42.235   4.127
67584W        W39844  44.349  36.417  11.020
67585W        W39845  39.196  28.997   2.249
67586W        W39846   7.773  43.733  14.876
67587W        W39847  41.505  29.077  13.519
67588W        W39848  29.051  13.307   4.964
67589W        W39849  35.096  14.191  13.955
67590W        W39850   5.277  26.536   3.556
67591W        W39851  34.510   6.203   1.096
67592W        W39852  17.761  26.179   3.315
67593W        W39853  32.934  38.257  11.629
67594W        W39854  36.984   8.741   5.178
67595W        W39855  20.119  27.313   4.862
67596W        W39856  22.772  16.232   2.612
67597W        W39857  29.541  31.692   1.958
67598W        W39858  24.220  28.111  13.891
67599W        W39859   2.855  35.365  13.019
67600W        W39860  43.257  18.552  10.715
67601W        W39861   4.497  23.692  14.491
67602W        W39862  38.866  35.362  14.861
67603W        W39863  34.227  34.696  12.483
67604W        W39864   7.902  23.944  12.929
67605W        W39865  19.673  32.456  13.477
67606W        W39866  33.465  22.810   0.825
67607W        W39867   0.456  19.183   2.689
67608W        W39868  36.904  21.679  13.421
67609W        W39869  38.099  10.267  10.181
67610W        W39870  34.510   9.612  14.983
67611W        W39871   1.922  31.813   4.642
67612W        W39872  37.004  16.257   1.669
67613W        W39873  20.280  14.054   4.485
67614W        W39874  14.264  39.328   0.345
67615W        W39875  14.641  26.049   3.000
67616W        W39876  23.647  24.610   3.606
67617W        W39877   5.359  35.610   4.136
67618W        W39878   0.432  27.890  13.961
67619W        W39879  13.285  14.735  13.117
67620W        W39880  25.654   3.117   3.321
67621W        W39881  23.948  28.540   3.286
67622W        W39882  33.468   3.963  14.933
67623W        W39883  18.791  16.706   1.301
67624W        W39884  33.952  18.528   0.887
67625W        W39885  31.877  35.428   4.280
67626W        W39886  20.912   5.228  11.552
67627W        W39887   5.485  25.038  11.920
67628W        W39888  28.896  44.209   3.127
67629W        W39889  39.429  23.618   1.366
67630W        W39890  15.089  14.458   3.346
67631W        W39891  18.032   5.361   4.636
67632W        W39892  36.627  28.633  10.580
67633W        W39893   0.143  24.175   0.788
67634W        W39894  44.076  22.852   4.175
67635W        W39895  32.549   0.475  11.337
67636W        W39896   1.886  10.381   2.194
67637W        W39897   2.487  26.933   3.358
67638W        W39898  14.805  26.190  11.463
67639W        W39899  10.129  27.922   3.292
67640W        W39900  38.442  14.713  11.826
67641W        W39901  33.475  12.320   1.470
67642W        W39902  19.124  26.497   0.054
67643W        W39903  32.328  35.358  11.159
67644W        W39904  35.980  44.536   0.718
67645W        W39905  10.077  20.109   4.122
67646W        W39906   7.427   5.471  14.809
67647W        W39907  44.817  14.748   2.151
67648W        W39908  27.893  19.232   4.340
67649W        W39909   0.031   0.861   4.857
67650W        W39910  14.848   2.394   0.791
67651W        W39911  41.759  12.586   3.318
67652W        W39912  12.157  23.376   4.026
67653W        W39913  26.963  17.623   2.778
67654W        W39914  24.766   7.132   2.328
67655W        W39915  39.266  36.873  12.956
67656W        W39916  18.062  18.489   2.920
67657W        W39917   8.548  36.587  11.566
67658W        W39918  21.890  22.501  11.587
67659W        W39919   5.489  21.096   3.233
67660W        W39920  22.245   7.111  13.446
67661W        W39921  43.992   1.980   1.255
67662W        W39922   0.475  16.461   3.058
67663W        W39923   8.150  14.236   4.903
67664W        W39924  36.194   6.052   1.974
67665W        W39925   8.080  10.185   9.797
67666W        W39926  33.556  18.507   2.681
67667W        W39927  20.512  17.595   0.256
67668W        W39928  22.473  21.078   9.711
67669W        W39929  27.823  26.804   0.449
67670W        W39930  11.862  44.519  11.178
67671W        W39931  28.364   8.084  13.216
67672W        W39932  17.678   2.257  10.921
67673W        W39933   0.867   8.840   4.258
67674W        W39934  20.105  30.765  12.288
67675W        W39935  37.352   7.724  13.004
67676W        W39936  10.615  30.945   0.336
67677W        W39937   7.587  28.388  14.765
67678W        W39938  23.865  23.678  13.891
67679W        W39939  16.674  30.345  11.128
67680W        W39940   9.912  21.956   0.799
67681W        W39941  15.257  32.908  13.834
67682W        W39942   8.642  25.011  12.632
67683W        W39943   5.905  20.291   2.235
67684W        W39944  35.196  10.165  10.838
67685W        W39945  18.032  31.226  11.941
67686W        W39946  38.341  25.990  13.461
67687W        W39947  36.460   2.659  13.305
67688W        W39948  24.504  40.552   3.669
67689W        W39949   7.842  13.129  13.347
67690W        W39950   7.316  26.292  11.468
67691W        W39951  22.873  43.247  12.487
67692W        W39952   7.149  13.880   1.271
67693W        W39953   5.421  21.473   0.011
67694W        W39954   3.447  20.270  12.435
67695W        W39955  32.162  42.985  12.894
67696W        W39956  34.961  36.258   1.697
67697W        W39957  40.570  14.163   1.709
67698W        W39958  12.349  22.821   2.697
67699W        W39959  36.740  14.869  11.940
67700W        W39960  40.639  42.129  14.777
67701W        W39961   5.363  22.541  11.238
67702W        W39962  43.488  23.038   4.604
67703W        W39963  35.277  15.018   2.273
67704W        W39964  38.882  19.444   1.482
67705W        W39965  36.684  10.338   4.153
67706W        W39966   2.709  15.632   1.580
67707W        W39967  21.792  42.089   2.469
67708W        W39968  10.988  11.857  12.948
67709W        W39969  33.914  20.166   2.929
67710W        W39970  25.467  17.071  11.033
67711W        W39971   6.273   5.474  11.070
67712W        W39972   8.822   2.635   0.466
67713W        W39973   2.527  17.251   1.372
67714W        W39974  15.864  31.826  12.050
67715W        W39975   4.584  11.898   0.787
67716W        W39976  34.395  29.378  13.439
67717W        W39977  23.390  42.896   3.687
67718W        W39978  19.485  35.387   0.794
67719W        W39979   2.481  21.142   2.616
67720W        W39980  23.822   6.379  11.645
67721W        W39981  30.418   0.075   3.194
67722W        W39982  17.802  44.352  10.543
67723W        W39983  32.260  41.586  12.930
67724W        W39984   4.381  12.256  14.981
67725W        W39985   9.854   7.679  11.757
67726W        W39986  34.895  11.844  13.739
67727W        W39987  41.258  36.130  11.026
67728W        W39988   5.497  32.511  12.115
67729W        W39989   5.459  17.325  10.995
67730W        W39990   4.822  44.954  14.348
67731W        W39991  23.684  31.519  13.842
67732W        W39992  43.992  10.232  13.776
67733W        W39993  43.889  43.385   0.031
67734W        W39994  27.117  32.981  13.129
67735W        W39995  25.628  30.696  14.921
67736W        W39996  21.014  27.963   4.819
67737W        W39997  20.545  21.295  13.271
67738W        W39998  34.193  44.946  12.442
67739W        W39999  24.653  23.524  13.305
67740W        W40000  12.716  27.680   1.692
67741W        W40001  29.899   4.181   3.143
67742W        W40002  27.001  38.797  12.924
67743W        W40003  21.070   7.353   1.959
67744W        W40004  33.059  11.232   0.842
67745W        W40005  15.731  18.971  11.032
67746W        W40006  38.053  23.133   1.976
67747W        W40007  13.996  38.383   0.233
67748W        W40008  33.168  16.572  11.522
67749W        W40009  26.586   0.836  12.872
67750W        W40010  18.127  11.393   3.990
67751W        W40011  39.052   7.674   1.171
67752W        W40012  23.693  10.141  11.091
67753W        W40013  39.417  26.948   3.136
67754W        W40014  15.382  10.644  13.409
67755W        W40015   8.927  13.864   0.357
67756W        W40016  39.342   2.382  14.204
67757W        W40017   0.352  44.807   1.674
67758W        W40018  42.992  12.189  14.861
67759W        W40019  44.466  13.710  13.282
67760W        W40020  34.061  29.024   0.919
67761W        W40021  38.891   4.962  13.984
67762W        W40022  23.258  17.544  13.171
67763W        W40023  16.227  33.477   1.797
67764W        W40024  16.945   2.752   4.385
67765W        W40025  24.159  29.709   3.854
67766W        W40026  26.707  12.598  11.955
67767W        W40027  12.646  23.724   3.551
67768W        W40028  40.951  16.253   1.484
67769W        W40029  27.983  28.987   1.690
67770W        W40030  11.628  16.614   1.771
67771W        W40031  36.829  42.816   4.560
67772W        W40032  12.178  38.899   3.693
67773W        W40033   4.172  40.921   0.762
67774W        W40034  38.410  29.051  14.300
67775W        W40035  39.145  24.162  13.456
67776W        W40036  37.776  32.125  12.894
67777W        W40037  38.583  18.599  11.461
67778W        W40038  26.621  43.685  13.932
67779W        W40039  20.461   4.681  11.612
67780W        W40040  44.827   8.948   5.041
67781W        W40041  31.626  26.561   5.188
67782W        W40042   3.936  38.351  11.513
67783W        W40043   2.937  29.525  12.846
67784W        W40044   8.327  16.106  14.711
67785W        W40045  34.084  42.776   3.643
67786W        W40046  44.247  34.577  10.763
67787W        W40047  19.005  42.002   0.800
67788W        W40048  16.185  15.696  11.250
67789W        W40049   8.885  10.037   0.238
67790W        W40050  43.494  34.959  10.657
67791W        W40051  10.602  16.326   0.413
67792W        W40052  38.348  43.360   4.561
67793W        W40053   7.121  33.446   1.509
67794W        W40054  33.867  29.001  14.812
67795W        W40055  30.399  38.828   1.739
67796W        W40056  20.509  22.245   3.227
67797W        W40057   4.156  17.990   3.219
67798W        W40058   4.446   8.428  11.114
67799W        W40059  44.516   2.819  10.661
67800W        W40060  27.538  25.478   1.800
67801W        W40061  24.482  31.316  12.087
67802W        W40062  25.022  23.920   3.632
67803W        W40063   2.332  39.477   1.765
67804W        W40064   7.406  39.558  12.471
67805W        W40065  20.753  27.719   1.149
67806W        W40066  26.157  20.561   3.595
67807W        W40067  19.013   9.053   1.849
67808W        W40068  30.949  29.947   1.951
67809W        W40069  42.513  12.277  10.723
67810W        W40070  13.321   6.942   0.216
67811W        W40071  43.073  30.661   5.279
67812W        W40072  33.510   6.663  10.499
67813W        W40073  15.172  19.155   0.544
67814W        W40074  40.270  28.741  10.649
67815W        W40075  27.917  40.046  11.547
67816W        W40076  38.630  33.184  13.337
67817W        W40077  41.050   1.811  12.041
67818W        W40078  43.296  33.904   0.436
67819W        W40079  25.014  10.240  14.068
67820W        W40080   0.351  40.025   4.396
67821W        W40081  34.389  10.350  13.772
67822W        W40082  10.777  16.981  14.763
67823W        W40083   8.196  19.982  13.801
67824W        W40084  33.484   4.854   0.460
67825W        W40085  39.283   0.412   3.584
67826W        W40086  37.558  31.709   2.355
67827W        W40087  12.641  36.556   0.793
67828W        W40088  16.050  34.182  13.947
67829W        W40089  12.186  42.224  14.716
67830W        W40090   8.780  39.286   2.297
67831W        W40091  12.871  15.673  12.946
67832W        W40092  22.205  43.352  13.191
67833W        W40093  29.659  10.540  13.418
67834W        W40094  33.285  44.760  14.919
67835W        W40095   4.444   5.373  13.775
67836W        W40096  12.610  16.087  10.671
67837W        W40097  36.177  28.644  10.855
67838W        W40098  22.795  27.036  14.281
67839W        W40099   3.926  22.548  11.285
67840W        W40100  25.204  40.598  12.481
67841W        W40101   8.643  16.876   0.274
67842W        W40102  10.197  22.532  10.418
67843W        W40103  28.527  21.337   4.532
67844W        W40104  27.924  18.450   2.693
67845W        W40105  41.952  32.182  11.573
67846W        W40106  29.463  27.471  12.118
67847W        W40107  28.538   4.724   4.592
67848W        W40108  15.211  28.857  10.372
67849W        W40109   1.439  14.085   3.602
67850W        W40110  29.604  20.518   3.084
67851W        W40111  17.144   8.893  11.977
67852W        W40112  40.282   4.712   3.218
67853W        W40113  13.659   7.985  12.421
67854W        W40114  34.520  19.792   3.117
67855W        W40115  44.251   4.612  10.644
67856W        W40116   5.453  34.431   4.719
67857W        W40117  21.799   2.577  11.929
67858W        W40118  11.864  38.305  14.894
67859W        W40119  38.031  25.312   0.044
67860W        W40120  20.566   5.212   3.332
67861W        W40121  19.707  37.816   0.737
67862W        W40122  21.220  24.401   0.814
67863W        W40123  24.855  18.852   0.004
67864W        W40124  16.139   3.326   4.150
67865W        W40125  23.304  34.586  14.227
67866W        W40126  41.189   7.868  11.155
67867W        W40127  25.691  31.045  11.659
67868W        W40128  27.821  34.639  14.484
67869W        W40129  43.229  30.989  10.790
67870W        W40130  41.945  17.997  13.307
67871W        W40131  41.857  28.685  12.177
67872W        W40132  27.176   8.260   1.890
67873W        W40133   1.389   6.222  13.492
67874W        W40134  23.236  26.432   2.882
67875W        W40135  26.344  23.059   2.690
67876W        W40136  19.650  40.289   1.031
67877W        W40137  10.513  28.265  13.010
67878W        W40138   2.855  31.449   3.332
67879W        W40139  34.403  23.518  13.543
67880W        W40140  26.212  12.824  11.645
67881W        W40141  22.453  31.065   2.962
67882W        W40142   1.701  22.666   0.054
67883W        W40143  34.865  22.495   2.006
67884W        W40144  27.181   3.997  14.946
67885W        W40145  43.353   9.187   0.978
67886W        W40146  42.774   2.710   0.806
67887W        W40147  25.874  41.868  10.754
67888W        W40148  36.588  28.839   3.226
67889W        W40149  39.544  17.787  10.697
67890W        W40150  40.110  29.270  11.167
67891W        W40151  18.200  44.846   1.954
67892W        W40152  43.827  13.907   3.912
67893W        W40153  44.290  13.085  12.861
67894W        W40154  30.111  24.472   1.867
67895W        W40155  36.454  27.962  13.945
67896W        W40156  33.487  42.191  12.146
67897W        W40157  37.664   5.240   1.704
67898W        W40158  23.009  10.718  14.835
67899W        W40159  39.943  33.128  12.968
67900W        W40160  42.856  43.733   2.118
67901W        W40161  17.181  40.182  14.247
67902W        W40162  16.620   8.274   0.419
67903W        W40163   6.938  37.492   1.251
67904W        W40164   1.133  37.717   4.078
67905W        W40165  23.732  37.015  12.020
67906W        W40166   2.557   7.157  14.460
67907W        W40167  34.837   1.914   4.644
67908W        W40168  19.375  40.939   1.368
67909W        W40169   9.194   8.134   1.197
67910W        W40170  19.527   2.911   0.771
67911W        W40171  24.302   3.668  13.042
67912W        W40172  13.385  12.575   3.148
67913W        W40173   8.088   4.251   1.714
67914W        W40174  15.321  13.752   0.888
67915W        W40175  40.695  44.008  13.543
67916W        W40176  26.730  10.138  12.649
67917W        W40177  29.110  18.812   2.209
67918W        W40178  33.914  32.634  11.561
67919W        W40179  15.569   7.521   3.749
67920W        W40180   4.584  37.525  13.437
67921W        W40181  31.676  17.633  13.384
67922W        W40182  21.334  11.155   3.688
67923W        W40183  14.262   6.241  11.595
67924W        W40184  38.311   8.174   2.934
67925W        W40185  24.158  20.973  12.009
67926W        W40186  31.450  11.895  13.340
67927W        W40187  27.097  16.082  11.130
67928W        W40188   3.483  34.379  12.768
67929W        W40189  31.178  10.528  14.325
67930W        W40190  28.918  23.732   3.644
67931W        W40191  33.030  10.177   3.529
67932W        W40192  26.218  17.721  14.088
67933W        W40193  21.724   8.891  11.195
67934W        W40194  40.418  43.723   0.757
67935W        W40195   1.051  36.842  13.973
67936W        W40196   0.398  29.563  11.145
67937W        W40197  16.784  18.685  12.111
67938W        W40198  20.127  43.078   0.713
67939W        W40199   0.976   6.807  13.607
67940W        W40200  20.625  24.486  11.558
67941W        W40201   6.264  39.916  12.274
67942W        W40202  14.303  21.794   1.947
67943W        W40203   9.155  39.099  13.895
67944W        W40204   9.796   3.291   4.268
67945W        W40205  32.999   8.774   2.693
67946W        W40206  42.299  13.638  10.466
67947W        W40207   0.445  20.635  12.909
67948W        W40208  10.446  31.351   2.696
67949W        W40209   6.282  36.038  11.147
67950W        W40210   5.635  17.684   1.812
67951W        W40211  36.174   5.615   2.256
67952W        W40212   2.264  10.333  11.515
67953W        W40213   4.125   8.448   4.198
67954W        W40214   0.979   3.170  11.609
67955W        W40215  13.887  11.649   1.797
67956W        W40216  19.250   8.550   3.798
67957W        W40217  31.483  41.515  12.422
67958W        W40218   9.509  11.317  14.715
67959W        W40219  12.164  14.263   3.085
67960W        W40220  15.858  22.040  14.272
67961W        W40221   3.482   3.183  12.447
67962W        W40222   4.468  21.464  12.896
67963W        W40223  28.722  35.162   4.151
67964W        W40224  12.578  36.077  13.047
67965W        W40225  12.402   8.686  13.291
67966W        W40226  28.902  32.137  12.917
67967W        W40227  29.470  37.744   3.079
67968W        W40228  25.080  11.623  14.794
67969W        W40229  27.739  14.762   1.378
67970W        W40230  36.653  21.464   1.957
67971W        W40231  28.111  25.222  13.008
67972W        W40232  20.256  13.794   0.040
67973W        W40233   3.502  22.585   0.414
67974W        W40234  25.103  18.009   3.740
67975W        W40235  27.693  17.081   3.613
67976W        W40236   8.086   4.727   4.745
67977W        W40237  24.493   7.391  13.598
67978W        W40238  15.318  28.351  10.236
67979W        W40239  42.390  32.390   4.056
67980W        W40240  16.737  27.903  11.517
67981W        W40241  38.480  31.754   5.098
67982W        W40242   9.278   6.469   0.417
67983W        W40243  23.599  26.147   1.796
67984W        W40244  33.922   7.373   1.551
67985W        W40245  17.280  20.643  10.637
67986W        W40246  42.231  42.345  13.087
67987W        W40247  39.522  10.282  12.533
67988W        W40248  36.411  44.692   0.451
67989W        W40249  40.826  28.988   4.438
67990W        W40250  41.221  41.893   3.648
67991W        W40251  22.625  31.877   2.722
67992W        W40252  39.471  36.559   4.534
67993W        W40253  29.075  30.006   1.337
67994W        W40254  28.915  19.129  12.561
67995W        W40255  18.065   5.839  11.097
67996W        W40256  14.211   0.587  11.192
67997W        W40257  28.219  24.541   2.432
67998W        W40258  30.757   5.513  14.755
67999W        W40259  26.043  11.809   1.259
68000W        W40260   5.115  19.764   2.625
68001W        W40261  33.317  33.461  14.924
68002W        W40262  33.211   3.467  11.995
68003W        W40263  36.104   1.976   3.262
68004W        W40264  28.367   8.648  12.009
68005W        W40265  39.819  20.246  11.916
68006W        W40266  33.463   5.219   0.840
68007W        W40267   4.005  23.571   4.298
68008W        W40268  17.123  44.736   3.046
68009W        W40269  39.046  41.234   1.392
68010W        W40270  21.617  18.630   1.272
68011W        W40271  28.513  38.529   3.708
68012W        W40272  10.580   6.675  10.543
68013W        W40273  16.233  20.634   4.692
68014W        W40274   5.653  23.785   4.629
68015W        W40275  34.362  15.619  10.423
68016W        W40276  34.145  26.217  11.094
68017W        W40277  44.214   3.876   0.543
68018W        W40278  29.709  31.791   4.542
68019W        W40279   0.867   5.420  13.292
68020W        W40280  28.562   2.390   0.060
68021W        W40281  27.564   8.392  14.879
68022W        W40282  31.714  42.739  13.851
68023W        W40283  19.711  23.059  12.877
68024W        W40284  39.125   7.905   0.332
68025W        W40285   0.703  23.087  12.820
68026W        W40286   7.851  14.460  13.079
68027W        W40287  13.560  30.200   5.046
68028W        W40288  40.508  26.959  11.989
68029W        W40289  41.382  21.469  13.858
68030W        W40290  18.623   9.463   0.987
68031W        W40291   0.261  15.259  14.890
68032W        W40292  13.844  39.723  12.441
68033W        W40293   4.449  13.180  14.026
68034W        W40294  29.941   8.435  12.583
68035W        W40295  16.881  38.280  14.462
68036W        W40296  26.281  32.731  14.368
68037W        W40297  28.644  24.004  11.037
68038W        W40298   5.432  10.090   2.759
68039W        W40299  26.989  17.121   2.900
68040W        W40300  13.275   2.463   3.870
68041W        W40301  42.513  14.841  10.573
68042W        W40302  38.551   0.778   2.684
68043W        W40303  40.893  16.260   2.005
68044W        W40304  32.065  31.744   5.077
68045W        W40305  37.342  42.410  10.816
68046W        W40306  16.075  32.839  14.833
68047W        W40307  34.623  43.737   4.255
68048W        W40308   0.954  39.795  12.650
68049W        W40309  30.472  30.993   3.252
68050W        W40310  24.097   0.339  11.728
68051W        W40311  36.998   2.243  12.555
68052W        W40312  38.812  26.626  10.727
68053W        W40313  23.773   6.708  11.155
68054W        W40314  20.768  38.574  13.961
68055W        W40315  41.461  34.474  11.282
68056W        W40316  22.238  16.279   4.691
68057W        W40317  27.347  26.248  11.371
68058W        W40318  39.403   3.883   2.618
68059W        W40319  16.494   6.268  14.925
68060W        W40320  31.543  19.702   4.174
68061W        W40321  30.571  24.521   2.699
68062W        W40322  15.128   5.390   3.352
68063W        W40323  32.451  25.062   4.983
68064W        W40324  36.067  18.861  10.089
68065W        W40325   9.127   2.798  13.252
68066W        W40326   0.822   0.014   4.245
68067W        W40327  11.540   5.339  10.718
68068W        W40328   9.858  30.091  11.286
68069W        W40329  13.799  21.474   4.631
68070W        W40330  41.327  37.958  13.549
68071W        W40331  10.179   7.073   9.969
68072W        W40332   4.184  43.960  10.989
68073W        W40333  13.359  40.402  14.479
68074W        W40334  43.457  43.768  13.471
68075W        W40335   4.752   4.809   0.409
68076W        W40336  28.601  33.356  14.068
68077W        W40337  14.593  18.321   3.167
68078W        W40338  37.551  24.533  14.920
68079W        W40339  24.248  44.578   3.762
68080W        W40340  35.821  15.185   4.261
68081W        W40341  21.358  26.959   0.835
68082W        W40342  38.410  29.172   3.352
68083W        W40343   2.827  35.520  10.681
68084W        W40344  21.684  36.480  10.717
68085W        W40345  19.217  33.094   1.236
68086W        W40346   4.715  23.940  10.650
68087W        W40347   8.346   5.427   1.610
68088W        W40348  30.592  11.806  10.941
68089W        W40349  14.098  11.606   3.607
68090W        W40350  13.389   7.884  12.873
68091W        W40351  29.208  44.541  11.569
68092W        W40352  22.683  33.417  14.702
68093W        W40353  31.908  40.365   3.224
68094W        W40354  20.270  29.555  10.729
68095W        W40355   9.187  25.676   0.753
68096W        W40356  27.205   5.911   4.501
68097W        W40357  24.520  29.159   2.835
68098W        W40358  24.553  32.399  13.978
68099W        W40359   8.850  37.630  14.174
68100W        W40360  28.538  32.453  10.626
68101W        W40361  43.902  27.689   4.105
68102W        W40362  22.500  19.057   1.866
68103W        W40363   1.776   2.304  13.610
68104W        W40364  27.407  14.586  14.470
68105W        W40365   0.464  14.352  13.798
68106W        W40366  23.148  17.751  10.448
68107W        W40367  35.078   7.244   4.188
68108W        W40368  30.093  15.355  13.121
68109W        W40369  40.059  43.282   4.889
68110W        W40370  19.823  32.353  12.026
68111W        W40371  39.475   9.287  11.451
68112W        W40372  33.328  30.462   2.162
68113W        W40373  34.093   0.944   3.649
68114W        W40374  33.384  41.361  11.691
68115W        W40375  43.213  12.880  12.414
68116W        W40376  12.824  20.659   2.570
68117W        W40377  36.915  10.251   5.055
68118W        W40378  42.802  36.326  14.368
68119W        W40379  27.729   1.473   3.854
68120W        W40380  39.334  40.676   3.128
68121W        W40381   3.383  36.178  14.050
68122W        W40382  23.422  13.780  14.381
68123W        W40383   4.234  20.000   4.110
68124W        W40384  35.672   5.819   2.366
68125W        W40385  31.547  20.630  11.046
68126W        W40386  19.334  37.096   4.040
68127W        W40387   9.351  15.518  12.532
68128W        W40388  13.628  31.093  14.449
68129W        W40389  34.446  20.117  13.506
68130W        W40390   1.804  11.119   1.409
68131W        W40391   8.938   8.819   2.332
68132W        W40392   5.289  44.715  14.261
68133W        W40393  11.643  44.978  14.185
68134W        W40394  19.561  19.591   2.325
68135W        W40395  26.779  22.946   9.893
68136W        W40396  30.239  25.530  14.993
68137W        W40397  36.690  39.790   3.630
68138W        W40398  42.869  17.135  13.167
68139W        W40399  19.598  12.674   3.435
68140W        W40400  31.556  30.333  14.526
68141W        W40401  41.576   0.207  13.531
68142W        W40402  14.738   0.527  11.195
68143W        W40403  11.288  40.878   3.183
68144W        W40404   1.932  33.377   3.809
68145W        W40405  19.247   8.271  11.585
68146W        W40406  31.580  44.177  12.050
68147W        W40407   3.239  39.845   0.481
68148W        W40408   3.917   0.953   4.886
68149W        W40409  37.582  33.252   2.253
68150W        W40410   4.762   9.825  13.791
68151W        W40411  42.535  20.021   3.830
68152W        W40412  42.783  14.778  14.862
68153W        W40413  34.308  33.459   3.334
68154W        W40414   1.227  34.034  11.582
68155W        W40415  40.107  10.355   3.262
68156W        W40416  19.660  27.198  11.374
68157W        W40417  14.670  43.038  13.344
68158W        W40418  42.007  30.857  14.001
68159W        W40419  34.404  18.031   1.619
68160W        W40420   5.983  20.962   3.395
68161W        W40421  23.293  44.319  10.973
68162W        W40422  35.394  20.229   1.871
68163W        W40423  13.031   5.328   3.080
68164W        W40424   1.736  37.897   4.595
68165W        W40425  31.533  37.828  13.408
68166W        W40426  12.802   8.254   3.257
68167W        W40427   9.245  36.033   3.682
68168W        W40428  38.855  35.574   4.224
68169W        W40429   0.908  24.481   1.197
68170W        W40430  19.204  15.628   0.456
68171W        W40431  36.564  34.418   1.907
68172W        W40432  16.545  41.538   1.930
68173W        W40433  23.204  13.551  12.468
68174W        W40434  44.935  32.335   1.635
68175W        W40435   5.374   5.044   2.633
68176W        W40436  38.914   1.390  14.242
68177W        W40437   5.894  17.564  11.145
68178W        W40438  20.042  18.857  11.547
68179W        W40439   2.454  15.880   2.917
68180W        W40440  13.852  20.083   2.302
68181W        W40441  36.988   8.708  11.124
68182W        W40442  24.206  28.919   1.486
68183W        W40443  38.872  35.651  13.314
68184W        W40444   7.721   5.384  12.174
68185W        W40445   0.486  27.552   0.031
68186W        W40446  16.791  31.854   1.474
68187W        W40447   1.292  37.849   3.596
68188W        W40448  43.759  38.963  13.843
68189W        W40449  31.700   6.979  14.347
68190W        W40450  44.068  25.333   3.228
68191W        W40451   5.793  18.562   1.867
68192W        W40452  39.194  42.630  11.026
68193W        W40453  15.810  22.266  11.493
68194W        W40454  13.538  35.921   4.870
68195W        W40455  36.159  30.001  14.358
68196W        W40456  18.551  21.009   3.282
68197W        W40457   6.955  19.814  11.981
68198W        W40458  29.719  25.972   4.042
68199W        W40459  16.263  10.566  11.972
68200W        W40460   4.125  16.983  11.538
68201W        W40461  34.217  25.420  11.099
68202W        W40462   8.262  28.619   0.350
68203W        W40463   6.741  37.666   2.527
68204W        W40464  30.698  12.621   0.762
68205W        W40465  41.682   0.945   0.379
68206W        W40466  33.911  20.691  12.032
68207W        W40467  31.505  22.142  13.178
68208W        W40468   3.150  37.571  11.925
68209W        W40469  14.279  18.853  10.295
68210W        W40470  41.641   7.469  14.058
68211W        W40471   4.194  25.825   3.679
68212W        W40472  18.853  23.581  10.766
68213W        W40473  35.154  16.673   3.642
68214W        W40474  36.430  21.653   0.894
68215W        W40475   7.736  40.404  12.218
68216W        W40476  29.084  16.120   1.763
68217W        W40477   7.098  13.833  11.490
68218W        W40478   9.623   9.865   0.990
68219W        W40479   6.582   0.121  13.047
68220W        W40480  25.773  43.388  10.327
68221W        W40481  17.765  35.896  10.638
68222W        W40482  25.456  34.622  10.188
68223W        W40483  17.822  25.088  14.020
68224W        W40484  35.165   3.027  12.467
68225W        W40485  18.746  24.222  13.260
68226W        W40486  42.556  12.581  11.550
68227W        W40487  32.148  11.104   0.809
68228W        W40488   5.711  23.244   1.340
68229W        W40489  12.159   9.804   0.941
68230W        W40490  23.277  35.441   1.696
68231W        W40491  30.378  13.386  13.697
68232W        W40492   3.385  33.353  14.935
68233W        W40493  11.100  22.154   0.271
68234W        W40494  21.165  22.962  11.978
68235W        W40495  13.587   8.267   4.734
68236W        W40496  17.181  21.272  11.439
68237W        W40497  22.307  41.826  12.483
68238W        W40498  38.872  31.523   0.692
68239W        W40499  11.713  11.064   3.795
68240W        W40500  14.663  18.553   1.347
68241W        W40501  27.985  35.864  11.965
68242W        W40502   0.935   7.645   1.793
68243W        W40503  39.928  15.159   3.492
68244W        W40504   2.965  20.707   0.830
68245W        W40505   6.398  28.342  11.956
68246W        W40506   3.862   6.366   0.816
68247W        W40507  31.865   0.824  10.345
68248W        W40508  26.972   4.871   1.725
68249W        W40509  10.450   1.773  11.143
68250W        W40510  17.273  18.639  10.391
68251W        W40511  17.198  32.290  11.536
68252W        W40512   3.700  14.787  11.590
68253W        W40513  44.947  15.356  12.954
68254W        W40514  24.452  17.099  11.873
68255W        W40515   1.443  35.098  14.865
68256W        W40516  44.622  15.759  12.840
68257W        W40517   8.214  26.667   2.470
68258W        W40518  29.858  18.733   3.742
68259W        W40519  38.846  12.827  14.445
68260W        W40520   1.374  17.998  12.087
68261W        W40521   9.684  10.357   3.027
68262W        W40522   3.916   4.748  11.262
68263W        W40523  41.337  28.135  11.533
68264W        W40524  44.754  39.805   3.702
68265W        W40525  14.780  44.958   3.606
68266W        W40526  25.063   4.742   3.167
68267W        W40527   2.808  31.696  14.945
68268W        W40528  22.701  20.229  10.366
68269W        W40529   3.810  30.899   2.342
68270W        W40530  36.006  31.694   4.729
68271W        W40531  36.469   1.405  14.962
68272W        W40532  41.437  23.067   4.751
68273W        W40533   2.023  14.585  12.513
68274W        W40534   7.357  20.688  14.959
68275W        W40535  38.089  42.769  14.971
68276W        W40536  31.013   6.127   0.440
68277W        W40537  30.429  27.531  13.924
68278W        W40538  42.745  22.347   3.954
68279W        W40539   4.419  15.256   1.370
68280W        W40540  35.867  35.445  10.759
68281W        W40541   3.739  35.622   2.712
68282W        W40542  43.173   4.638   0.863
68283W        W40543  22.938   4.774  10.611
68284W        W40544  13.239  25.043  10.790
68285W        W40545  40.958  14.278  12.407
68286W        W40546  28.511  34.349  13.932
68287W        W40547  19.600  37.926  14.218
68288W        W40548  21.280  25.029  14.754
68289W        W40549  37.494   5.872   4.638
68290W        W40550  21.743  15.754   2.237
68291W        W40551  20.964  42.411   0.778
68292W        W40552  38.853  27.163  10.681
68293W        W40553   3.933   9.593  13.494
68294W        W40554  36.877  11.811   2.222
68295W        W40555  36.108  23.909  14.422
68296W        W40556  27.463  34.898   0.426
68297W        W40557  25.741  27.068  12.116
68298W        W40558  18.068  30.131  11.083
68299W        W40559  29.685  38.233   3.163
68300W        W40560   6.123  10.780  12.408
68301W        W40561   6.653  30.001   1.827
68302W        W40562  29.212  21.054  13.877
68303W        W40563  30.574  30.417   2.186
68304W        W40564  20.522   8.844  10.654
68305W        W40565  35.649  10.159  13.626
68306W        W40566  29.373   9.236  13.057
68307W        W40567  10.139  31.009   4.572
68308W        W40568  12.661  27.817   4.858
68309W        W40569  13.273  44.380   2.858
68310W        W40570  27.113   3.700  12.665
68311W        W40571  11.006  21.175  12.794
68312W        W40572  21.340   9.585   1.756
68313W        W40573   5.762  28.183  14.880
68314W        W40574  32.393  18.623  10.676
68315W        W40575  39.856  32.099   0.447
68316W        W40576  31.517  18.345  13.995
68317W        W40577  39.036  40.666   2.253
68318W        W40578   7.308   0.222   4.401
68319W        W40579  37.026  26.938   0.399
68320W        W40580  43.326  44.946   0.084
68321W        W40581  22.165  12.305   0.735
68322W        W40582   2.935   2.667  12.594
68323W        W40583  30.852  28.574   0.265
68324W        W40584  32.711   3.534  12.093
68325W        W40585  21.154  41.424  11.142
68326W        W40586  40.110   4.260   4.379
68327W        W40587   3.663  11.125   2.554
68328W        W40588   4.603  37.226  14.474
68329W        W40589  41.412   9.421  10.775
68330W        W40590  36.892  36.442  10.474
68331W        W40591  15.933   2.827  11.665
68332W        W40592  30.838  35.626   3.263
68333W        W40593  16.664  16.200  14.360
68334W        W40594  42.490  27.454  10.705
68335W        W40595  40.753  10.189  13.865
68336W        W40596  22.722  44.308   3.813
68337W        W40597   4.246  39.449   3.220
68338W        W40598  43.282  11.220  13.888
68339W        W40599  20.947  18.286  12.364
68340W        W40600   7.138   7.711  12.406
68341W        W40601  32.301  38.593   0.267
68342W        W40602  17.483  11.709  11.929
68343W        W40603   3.227  23.633   1.824
68344W        W40604  34.984  17.642  11.260
68345W        W40605  34.995  31.707  12.114
68346W        W40606   7.725   9.211   2.301
68347W        W40607  28.488  18.111   4.731
68348W        W40608  42.381  11.663   3.971
68349W        W40609  21.034  22.924   1.097
68350W        W40610  41.596  37.684   2.225
68351W        W40611   5.615  24.545  12.075
68352W        W40612  25.614  41.096  14.565
68353W        W40613  17.728   8.381   4.242
68354W        W40614  27.524  17.074   4.336
68355W        W40615  38.940  16.503  13.062
68356W        W40616  42.025   1.915   4.900
68357W        W40617  30.621  18.665  14.365
68358W        W40618  29.959  30.149  13.030
68359W        W40619  42.926  18.367  10.358
68360W        W40620  20.097  22.542  12.062
68361W        W40621   0.019  12.163   3.580
68362W        W40622  37.353  38.412   1.895
68363W        W40623  12.848  15.567   2.629
68364W        W40624  31.952  15.481   4.978
68365W        W40625  22.663  27.411   5.074
68366W        W40626  10.358   5.772   1.010
68367W        W40627  22.870  14.828   2.276
68368W        W40628  38.018  10.164   3.322
68369W        W40629  35.102   7.767   1.474
68370W        W40630  40.821   7.726  14.236
68371W        W40631  30.140   8.122  13.971
68372W        W40632  14.650  38.498  14.882
68373W        W40633  24.089  22.937   3.247
68374W        W40634  18.742   2.462   2.703
68375W        W40635  39.135   2.534  13.423
68376W        W40636  20.321  20.132  10.681
68377W        W40637  26.492   2.863  13.366
68378W        W40638  28.640   4.682   0.297
68379W        W40639   0.392   9.938   0.967
68380W        W40640  17.258  22.539   0.261
68381W        W40641  30.523  10.929   0.218
68382W        W40642  19.314  42.233  13.457
68383W        W40643  40.362  16.714   4.339
68384W        W40644  13.334   0.417   4.120
68385W        W40645   2.506  11.738   3.229
68386W        W40646  34.245  19.342  13.132
68387W        W40647  31.045  14.737  10.673
68388W        W40648  11.398  23.086  14.153
68389W        W40649  31.056  17.092   2.902
68390W        W40650  14.952  42.792   5.020
68391W        W40651  19.585  39.818  14.168
68392W        W40652   3.991  12.660  12.848
68393W        W40653   5.310  30.105   1.945
68394W        W40654  19.302  36.225  13.823
68395W        W40655   3.672  25.630   4.878
68396W        W40656  36.853  44.460   4.226
68397W        W40657   8.627  23.411  12.228
68398W        W40658  35.260  36.041   1.305
68399W        W40659   1.947   8.861  12.151
68400W        W40660  18.705  38.828  13.931
68401W        W40661   6.934   7.428   2.194
68402W        W40662  36.412  34.221  14.957
68403W        W40663  41.953   2.774  14.589
68404W        W40664   3.419  39.506   2.728
68405W        W40665  20.390   1.262   3.237
68406W        W40666   5.720  22.185  10.511
68407W        W40667  14.196  30.023  11.938
68408W        W40668   9.100  12.759   2.857
68409W        W40669  18.477  10.749   4.566
68410W        W40670   1.643  18.686  12.045
68411W        W40671   9.927  44.605   2.896
68412W        W40672   4.932   8.248  14.875
68413W        W40673  11.710  16.914  11.528
68414W        W40674  27.906   1.116  10.271
68415W        W40675  36.819  10.192   1.848
68416W        W40676  25.177  33.533   4.975
68417W        W40677  19.468   8.059   0.201
68418W        W40678   3.435  44.031   1.593
68419W        W40679  12.123   3.364   0.436
68420W        W40680  20.436  32.116  12.489
68421W        W40681   9.941   9.299   3.207
68422W        W40682  29.186  37.072  14.930
68423W        W40683  10.209   9.873  11.632
68424W        W40684  17.171   8.705  14.786
68425W        W40685  14.618  28.023  11.887
68426W        W40686  41.573  25.104   1.800
68427W        W40687  21.730  17.253  13.030
68428W        W40688  17.368  20.269  11.623
68429W        W40689  28.563  15.621   1.190
68430W        W40690  16.313  22.024  13.316
68431W        W40691  10.148   1.839  12.977
68432W        W40692  13.188  20.798  11.975
68433W        W40693  27.903  18.925  11.953
68434W        W40694  28.887  18.185  13.357
68435W        W40695  24.009   7.996   4.718
68436W        W40696  27.379  44.919  12.559
68437W        W40697  40.880  38.326   0.885
68438W        W40698  41.358  30.886   2.656
68439W        W40699  43.551  44.841  11.937
68440W        W40700  31.175  43.246  12.091
68441W        W40701  27.957  38.915   0.061
68442W        W40702  40.680  20.632   3.311
68443W        W40703   4.713   2.769   4.897
68444W        W40704  25.471  22.534  11.458
68445W        W40705   7.391  15.314   1.358
68446W        W40706  22.750  39.478   1.208
68447W        W40707   1.420  40.444   1.260
68448W        W40708  11.188  30.996   0.731
68449W        W40709  31.104  25.458  11.622
68450W        W40710  41.375  30.163   4.615
68451W        W40711   6.721  24.469  12.904
68452W        W40712   0.904  31.128  11.893
68453W        W40713   3.553  23.198   3.071
68454W        W40714  22.998   7.299  11.868
68455W        W40715  34.660  30.114   3.610
68456W        W40716  24.922  37.111  13.898
68457W        W40717  25.069  27.897   0.746
68458W        W40718   9.800   6.179  12.492
68459W        W40719  34.472  41.876   4.147
68460W        W40720  32.642  18.448   3.375
68461W        W40721   9.411   7.816  11.991
68462W        W40722  31.940  35.889   1.982
68463W        W40723  28.477  25.571  13.300
68464W        W40724  21.001  10.662   2.847
68465W        W40725  40.421  20.073  13.453
68466W        W40726  19.778  14.049  14.478
68467W        W40727  18.228   2.740   4.064
68468W        W40728  11.155  40.966  12.047
68469W        W40729   1.223   8.751  13.367
68470W        W40730   3.334  28.571  13.497
68471W        W40731   8.444  39.442  11.642
68472W        W40732  22.816  30.827   2.571
68473W        W40733  20.650  26.214  14.888
68474W        W40734  23.201  40.051   3.377
68475W        W40735  17.223  44.888   1.583
68476W        W40736  30.988   4.987  12.398
68477W        W40737   9.121  34.776   3.301
68478W        W40738   7.000  23.829  14.122
68479W        W40739   7.888  21.630  12.635
68480W        W40740  27.563   8.723   1.993
68481W        W40741  21.553  20.656   1.905
68482W        W40742  31.434  33.475  13.766
68483W        W40743  32.086   5.337  13.208
68484W        W40744  38.906   7.440   0.267
68485W        W40745   3.485  26.428   0.767
68486W        W40746  34.384  44.224  11.993
68487W        W40747  33.875   4.350  11.004
68488W        W40748   2.840  13.206  14.759
68489W        W40749   4.754  15.130   0.000
68490W        W40750  28.556  10.222  12.994
68491W        W40751  30.043  36.425   0.998
68492W        W40752   8.801   7.282  14.849
68493W        W40753  20.205  10.584  14.444
68494W        W40754   6.385   8.887  11.957
68495W        W40755  29.903  43.111  14.955
68496W        W40756  14.694  31.505   5.124
68497W        W40757  29.225  33.314   4.559
68498W        W40758  39.725  25.158   4.905
68499W        W40759  39.434  27.510  12.435
68500W        W40760  12.098  22.838   1.694
68501W        W40761  15.062  11.222  10.728
68502W        W40762  21.238  31.086   4.543
68503W        W40763  42.834  14.200  11.279
68504W        W40764  44.352   6.994  13.103
68505W        W40765  41.985  29.411  14.211
68506W        W40766  18.964  35.388   0.744
68507W        W40767   9.635   1.753  12.958
68508W        W40768  15.049  24.034  12.042
68509W        W40769  38.925  43.930   0.955
68510W        W40770  17.769  40.092  13.188
68511W        W40771  26.572  18.281  12.878
68512W        W40772   6.265  27.147   3.109
68513W        W40773  37.865  20.757  13.596
68514W        W40774  27.175  40.201  10.232
68515W        W40775  17.745  10.655  13.560
68516W        W40776  24.131  23.718  12.061
68517W        W40777  22.344  31.026   2.460
68518W        W40778  13.581  28.558   0.945
68519W        W40779  39.498  27.480  14.319
68520W        W40780   0.239  40.909   4.426
68521W        W40781  41.292  27.894   3.911
68522W        W40782  28.041   4.567   3.625
68523W        W40783   1.855  37.803   0.262
68524W        W40784  20.544  32.485   0.021
68525W        W40785  20.553  41.047  10.913
68526W        W40786   7.242  23.717   4.367
68527W        W40787  30.357  10.437   4.175
68528W        W40788  42.413   7.258  12.654
68529W        W40789  35.210  39.229  11.892
68530W        W40790  33.427  34.117  13.943
68531W        W40791  14.261  26.588   3.049
68532W        W40792  18.258  27.505  14.759
68533W        W40793   1.729  25.809  14.841
68534W        W40794  22.280  32.916  13.877
68535W        W40795   4.361  11.217   3.986
68536W        W40796   4.465  32.925   0.065
68537W        W40797   8.376  14.633  13.307
68538W        W40798  36.403  14.267   0.464
68539W        W40799  30.897  41.437  14.057
68540W        W40800  34.562  27.815  12.596
68541W        W40801   6.958  35.482  11.639
68542W        W40802  18.220  36.277   3.259
68543W        W40803  39.970  14.746  10.674
68544W        W40804   1.931   8.298   2.880
68545W        W40805  30.084  37.085  14.535
68546W        W40806  23.717   3.337  10.897
68547W        W40807  22.170  17.418   2.510
68548W        W40808  19.509  11.279  14.471
68549W        W40809  21.485  32.472   3.753
68550W        W40810   4.997  31.554   4.574
68551W        W40811  32.360  33.844  14.806
68552W        W40812  21.189  32.084  13.009
68553W        W40813  34.090  18.740   2.536
68554W        W40814   5.728  22.262   1.319
68555W        W40815  18.808  16.204  10.776
68556W        W40816  32.026  34.693  14.496
68557W        W40817   4.639  11.288  10.133
68558W        W40818  13.136  26.750  13.973
68559W        W40819  14.165   1.232  12.934
68560W        W40820  40.211  11.885  14.693
68561W        W40821  24.291  27.807   2.664
68562W        W40822  17.911  44.761   0.032
68563W        W40823  39.336  36.966   1.191
68564W        W40824  22.758  36.906   4.575
68565W        W40825  37.614  14.012  10.299
68566W        W40826  24.736  38.933  14.357
68567W        W40827  17.240   3.939   0.301
68568W        W40828   9.140   6.664  10.494
68569W        W40829   7.142   5.302   2.708
68570W        W40830  20.001   0.442   3.506
68571W        W40831  41.084   6.856  12.887
68572W        W40832  19.301  43.474   4.225
68573W        W40833  16.990  44.783  12.081
68574W        W40834  13.062  30.586   9.993
68575W        W40835   5.344   6.930   0.803
68576W        W40836  42.043  41.463   1.931
68577W        W40837  40.479   3.901   2.633
68578W        W40838  27.453  12.752   1.771
68579W        W40839  41.033   1.068  11.582
68580W        W40840  11.649  37.639   0.820
68581W        W40841   1.570  19.903  12.813
68582W        W40842  11.627  16.525  13.405
68583W        W40843  11.680   0.952  13.454
68584W        W40844  41.007  19.163  14.822
68585W        W40845   6.194  10.851  13.942
68586W        W40846  41.272   2.882   4.802
68587W        W40847  19.587   5.314   0.516
68588W        W40848  30.942   6.187   2.274
68589W        W40849   7.383  29.859  14.832
68590W        W40850  14.839  30.759  11.317
68591W        W40851  17.182  27.521  12.692
68592W        W40852   9.213  27.193   4.348
68593W        W40853  26.038  31.479  12.605
68594W        W40854  23.318  32.317   3.274
68595W        W40855  23.688  38.290   1.806
68596W        W40856  41.448  17.630  12.744
68597W        W40857  32.145  17.279   1.939
68598W        W40858  30.198  15.348   4.778
68599W        W40859  38.531  20.126   4.985
68600W        W40860   6.918  24.146   4.392
68601W        W40861  28.537  16.079   3.138
68602W        W40862  21.680  18.112  12.078
68603W        W40863  38.884  33.514   1.202
68604W        W40864   1.004   0.741  14.689
68605W        W40865   3.222   3.472  11.104
68606W        W40866  25.167  41.125  12.373
68607W        W40867  28.174  20.222   3.132
68608W        W40868   8.427   2.678  11.660
68609W        W40869  19.209  24.098   2.205
68610W        W40870   3.932  22.718  12.888
68611W        W40871  35.167  36.065   2.790
68612W        W40872  35.197  31.985   0.018
68613W        W40873  39.383  15.882  12.107
68614W        W40874  24.491  26.373   1.742
68615W        W40875  35.045   6.247  14.809
68616W        W40876  22.124  20.454  14.408
68617W        W40877  34.548   4.471  14.931
68618W        W40878  12.194   8.952  11.033
68619W        W40879   8.826  17.247  11.478
68620W        W40880   5.226  25.511   1.452
68621W        W40881  31.509  25.470   0.880
68622W        W40882  26.564  25.642   1.574
68623W        W40883  39.389   0.583   3.101
68624W        W40884  35.418  29.676   3.219
68625W        W40885  14.119  12.350   2.210
68626W        W40886  13.196  44.947  11.618
68627W        W40887  23.228  42.035   0.752
68628W        W40888  10.361  18.621  11.103
68629W        W40889  35.455   0.074   0.879
68630W        W40890  41.898  24.481   4.123
68631W        W40891   9.201  38.571  13.883
68632W        W40892   4.413  33.959  13.259
68633W        W40893   6.374  10.081  13.489
68634W        W40894   9.823  32.582  11.650
68635W        W40895  44.439   3.866   4.661
68636W        W40896  23.085  36.802  11.121
68637W        W40897  28.723  37.033  12.672
68638W        W40898  27.133  31.520   1.627
68639W        W40899  40.555  26.380   3.134
68640W        W40900  12.900  43.512   2.358
68641W        W40901  32.245  39.933  10.242
68642W        W40902  20.751  11.797  12.327
68643W        W40903  27.780  16.775  11.187
68644W        W40904  31.075  32.044   2.373
68645W        W40905   9.705   8.634  14.369
68646W        W40906  18.347   6.861   4.753
68647W        W40907  31.950   5.350   3.053
68648W        W40908  33.093  26.900  13.431
68649W        W40909   4.535  33.939  13.830
68650W        W40910  43.891  13.786   4.883
68651W        W40911  33.049  40.506   1.072
68652W        W40912  13.398  11.856   4.214
68653W        W40913  37.935  35.359   1.915
68654W        W40914  16.107   0.758  11.070
68655W        W40915  39.525  39.879   2.508
68656W        W40916  31.969  29.926  14.346
68657W        W40917  21.269  27.600  13.558
68658W        W40918  23.072   5.275  10.510
68659W        W40919  39.541  35.936  13.801
68660W        W40920  14.114  13.166  11.440
68661W        W40921  28.858  24.776   1.397
68662W        W40922  19.077   4.934   2.158
68663W        W40923  27.481   0.547   3.368
68664W        W40924  25.036  32.768   3.817
68665W        W40925  11.007  31.619  11.177
68666W        W40926  21.893  28.823  10.502
68667W        W40927  28.895  10.323  12.481
68668W        W40928   5.367  21.515   1.013
68669W        W40929  34.442  41.886   3.198
68670W        W40930   6.430  37.569   1.257
68671W        W40931  18.950  38.393  12.127
68672W        W40932   4.892   1.732  11.457
68673W        W40933  42.432  37.363  11.448
68674W        W40934  30.455   3.257  14.417
68675W        W40935  18.681  25.491   2.261
68676W        W40936   9.817  29.871   1.789
68677W        W40937  17.597  35.319  11.958
68678W        W40938  20.932  39.488  12.433
68679W        W40939  27.905  24.007  13.094
68680W        W40940   0.824  21.501   1.382
68681W        W40941  18.242  41.957  13.939
68682W        W40942  16.616  19.885   4.486
68683W        W40943  41.280  17.150  11.520
68684W        W40944  19.842  31.437  11.540
68685W        W40945  13.879   9.249   2.335
68686W        W40946  42.233   0.224   2.027
68687W        W40947  14.786  29.086  14.585
68688W        W40948  38.324  10.762   4.226
68689W        W40949  13.830  17.205   1.418
68690W        W40950   0.972   5.342   3.811
68691W        W40951  39.796  12.575   2.706
68692W        W40952  36.531   3.947   3.844
68693W        W40953  41.806  16.379   2.710
68694W        W40954  12.270  33.818   2.927
68695W        W40955  30.145  18.184  10.547
68696W        W40956  30.876   0.697   4.815
68697W        W40957   0.649  32.496  12.933
68698W        W40958  20.534  38.140  13.784
68699W        W40959  21.323   7.194   2.477
68700W        W40960   0.485  16.189  13.818
68701W        W40961  18.365  35.969  14.502
68702W        W40962  22.137  12.324  11.500
68703W        W40963  32.423  22.761   2.568
68704W        W40964  22.199   5.659   3.236
68705W        W40965  15.231  26.232  11.145
68706W        W40966  29.699  27.089  11.177
68707W        W40967  26.681  37.647  11.046
68708W        W40968  29.135  18.571  14.133
68709W        W40969  39.300   1.693  11.094
68710W        W40970   1.878  33.358   4.614
68711W        W40971   9.609   3.664  10.569
68712W        W40972  14.034  12.407  12.473
68713W        W40973   9.269   9.843  11.698
68714W        W40974   3.991  21.693  12.684
68715W        W40975  28.176  29.582   3.687
68716W        W40976  26.693  15.245  14.573
68717W        W40977  41.484  22.640  14.509
68718W        W40978  35.960  13.793  13.086
68719W        W40979   3.911  29.425  14.348
68720W        W40980   5.825  25.512  13.143
68721W        W40981  22.898  15.871  11.595
68722W        W40982  17.694   1.962   4.045
68723W        W40983  39.264  12.390   0.287
68724W        W40984  39.872   2.327   0.438
68725W        W40985  15.124  33.432  12.546
68726W        W40986  10.911   3.387   4.582
68727W        W40987  11.512   1.462   3.197
68728W        W40988  26.237  25.045  13.325
68729W        W40989  36.238  13.604  14.458
68730W        W40990   7.718  44.921  13.305
68731W        W40991  44.805  41.495   3.131
68732W        W40992  20.863  12.684   0.385
68733W        W40993   3.167  25.009  10.736
68734W        W40994   4.145  37.199  13.355
68735W        W40995  27.761  36.935   1.930
68736W        W40996  17.042  28.548  12.565
68737W        W40997  21.201  36.009  10.157
68738W        W40998  36.440  28.311  13.037
68739W        W40999   0.530  29.579   2.345
68740W        W41000  21.923  41.872   3.662
68741W        W41001  23.526  38.162   0.838
68742W        W41002  32.443  19.936   2.702
68743W        W41003  28.287  11.309   3.173
68744W        W41004  17.599  16.297   1.743
68745W        W41005  33.670  13.610   3.585
68746W        W41006  36.170  17.154   2.319
68747W        W41007  18.259  18.374  11.431
68748W        W41008  40.912  14.822   2.193
68749W        W41009  25.438  44.485   4.431
68750W        W41010  17.267   7.874  11.185
68751W        W41011  36.909  24.074  14.536
68752W        W41012   8.014  34.056  10.410
68753W        W41013  37.331  22.156   1.749
68754W        W41014  18.067  15.283  10.400
68755W        W41015   9.385   3.945   1.904
68756W        W41016   2.401  12.982  11.978
68757W        W41017  24.059   1.967   0.202
68758W        W41018   3.168  30.474   3.627
68759W        W41019  11.192  34.948  11.728
68760W        W41020  25.034  34.204  12.002
68761W        W41021  41.248  27.539   1.287
68762W        W41022  39.541  21.058  10.517
68763W        W41023  25.080   0.946   3.300
68764W        W41024  35.572  17.121   4.581
68765W        W41025   3.966  20.224  10.721
68766W        W41026   9.360  12.530  11.185
68767W        W41027  19.469  17.294  12.164
68768W        W41028   5.368   9.968  14.498
68769W        W41029  23.618   5.466  11.221
68770W        W41030  39.382   1.414   3.329
68771W        W41031   1.021  17.823   5.099
68772W        W41032   2.905  40.823  14.507
68773W        W41033  31.719  24.930  12.856
68774W        W41034  36.902  25.700  13.496
68775W        W41035  31.222  41.453  13.068
68776W        W41036   8.968  39.865   0.250
68777W        W41037   2.784  26.484  13.048
68778W        W41038  24.983  42.357   1.887
68779W        W41039  14.271  25.300   3.971
68780W        W41040   2.707   1.162   0.238
68781W        W41041   1.427  21.209  12.007
68782W        W41042  30.780  41.048   1.496
68783W        W41043  35.005   7.960   0.584
68784W        W41044   5.372  38.486  12.175
68785W        W41045  28.608  13.031  13.342
68786W        W41046  35.065   2.671  13.992
68787W        W41047  25.748   3.023  10.685
68788W        W41048  41.250  20.646  12.066
68789W        W41049  36.125   0.039   1.912
68790W        W41050  17.191  36.950   0.878
68791W        W41051   1.835   8.797   0.980
68792W        W41052  41.085   8.962  13.325
68793W        W41053  39.887  13.053  13.367
68794W        W41054  20.657   0.566  13.798
68795W        W41055  28.923  33.830  10.576
68796W        W41056   2.961  34.685  14.748
68797W        W41057   4.864  40.583   0.240
68798W        W41058  32.550  37.225   1.657
68799W        W41059  26.610  13.838   2.861
68800W        W41060   9.106  41.327  12.951
68801W        W41061  27.538  10.337   3.630
68802W        W41062  15.576  16.831   1.249
68803W        W41063  39.534  37.039  14.771
68804W        W41064   1.691  34.334  11.116
68805W        W41065  28.280  21.971  10.625
68806W        W41066  18.979  30.527  13.861
68807W        W41067  37.089  24.586   4.092
68808W        W41068  32.412  11.820  13.306
68809W        W41069   6.082  30.909   4.590
68810W        W41070   9.176  36.021  11.089
68811W        W41071  27.931  16.367   3.691
68812W        W41072  13.692  16.644   4.292
68813W        W41073  35.030   9.597   0.359
68814W        W41074  22.305  30.363   3.261
68815W        W41075   5.328  18.329   4.082
68816W        W41076  13.647  15.325   4.612
68817W        W41077  40.775  39.308   0.539
68818W        W41078  22.192  36.603  11.504
68819W        W41079  44.814  36.396  11.268
68820W        W41080   6.655  32.958   4.543
68821W        W41081  11.171  34.983   2.658
68822W        W41082  22.691  29.148  13.465
68823W        W41083  26.145  21.288   4.078
68824W        W41084  16.541  33.500  10.749
68825W        W41085  14.191  42.928   4.009
68826W        W41086  15.225  39.445   4.369
68827W        W41087   5.610  44.921   2.764
68828W        W41088   4.172  30.927   0.502
68829W        W41089  22.524  43.412  11.079
68830W        W41090  37.400   1.888   3.688
68831W        W41091  20.122  26.202  12.066
68832W        W41092  22.202  22.642  13.976
68833W        W41093  17.276  31.675  12.929
68834W        W41094  21.382  39.125  14.038
68835W        W41095   6.305  43.299   3.154
68836W        W41096   4.487  22.328   3.755
68837W        W41097  34.413  24.497   0.063
68838W        W41098  22.766  15.361   4.587
68839W        W41099  12.650   1.307  10.903
68840W        W41100  13.618  16.639  12.948
68841W        W41101  38.629  11.397   0.263
68842W        W41102  11.089  40.728   1.678
68843W        W41103  16.637   3.373   3.823
68844W        W41104  12.679  24.671  12.567
68845W        W41105  10.299   3.963  13.957
68846W        W41106  15.146   7.050   3.803
68847W        W41107  40.590  43.748   1.709
68848W        W41108  44.466   1.789  13.742
68849W        W41109  15.783   7.729  11.959
68850W        W41110  21.219  43.875  11.667
68851W        W41111  40.756  39.421  11.134
68852W        W41112  39.845  19.122  12.017
68853W        W41113  35.922  35.026  11.063
68854W        W41114  11.428  28.327  14.469
68855W        W41115  21.173  20.270  13.923
68856W        W41116  40.010  10.672  10.716
68857W        W41117  41.217   9.783  12.909
68858W        W41118  20.618  13.132  10.409
68859W        W41119   7.977  25.617  11.393
68860W        W41120  29.844  22.965  11.201
68861W        W41121  32.138  20.431  10.272
68862W        W41122  24.038  20.769  13.495
68863W        W41123  35.280  17.539   1.291
68864W        W41124  22.202  43.992  13.852
68865W        W41125  35.079  26.674   1.773
68866W        W41126  17.035   2.459  11.517
68867W        W41127  39.937  16.696  11.653
68868W        W41128  36.676  33.898   1.879
68869W        W41129  43.568  17.508  12.368
68870W        W41130   2.635  21.783  14.934
68871W        W41131  42.043  20.169   0.945
68872W        W41132  33.572   2.787   4.128
68873W        W41133   4.401  44.971  11.279
68874W        W41134  15.562  19.551   0.307
68875W        W41135  36.004  31.512   1.649
68876W        W41136   4.884  40.293   0.870
68877W        W41137   1.020  32.928  11.079
68878W        W41138   9.017  27.225  13.481
68879W        W41139  33.541  32.866  12.831
68880W        W41140   3.792   7.138  12.164
68881W        W41141   8.909   6.147  13.331
68882W        W41142   3.792  14.059   2.173
68883W        W41143  32.663  12.137  13.611
68884W        W41144   9.860  20.177  13.925
68885W        W41145  17.917  27.855  13.545
68886W        W41146   0.793   9.615   0.886
68887W        W41147  41.530   5.630   0.376
68888W        W41148  11.907  43.317  12.018
68889W        W41149   3.646  14.817  12.908
68890W        W41150   6.995  43.163  11.124
68891W        W41151   5.360  40.878  11.941
68892W        W41152  35.393  42.392   2.205
68893W        W41153  21.982  16.341  13.394
68894W        W41154  23.600  41.587   2.850
68895W        W41155  17.648  42.338   0.770
68896W        W41156  10.402  25.998  12.543
68897W        W41157   2.214   6.791  14.378
68898W        W41158  20.737   8.404  13.674
68899W        W41159  16.549  21.271  12.852
68900W        W41160  13.096  17.318   5.179
68901W        W41161  12.922   9.283  10.691
68902W        W41162   5.454  35.828   4.604
68903W        W41163  37.027  34.997  12.140
68904W        W41164  34.999   4.226   4.570
68905W        W41165   9.605  15.245  10.688
68906W        W41166  38.828  27.397   0.325
68907W        W41167   1.267  20.233   4.195
68908W        W41168  25.685   9.475   0.096
68909W        W41169  35.370  16.732   0.301
68910W        W41170  25.449  35.307  13.742
68911W        W41171  39.080  13.841   0.861
68912W        W41172  18.740  15.477  14.811
68913W        W41173  19.133  35.415   1.255
68914W        W41174  14.270   9.734   1.906
68915W        W41175  36.389  19.252  11.800
68916W        W41176  12.490  28.242   5.106
68917W        W41177  26.666  42.925   1.323
68918W        W41178  30.155  10.509  10.641
68919W        W41179  18.484   9.012   9.661
68920W        W41180  29.979  11.002   0.420
68921W        W41181  20.989  26.846  14.341
68922W        W41182  20.480  26.249  11.069
68923W        W41183   5.268  17.652   2.620
68924W        W41184  11.666  37.409   2.946
68925W        W41185  38.191   5.333   1.754
68926W        W41186  13.367   3.894   1.554
68927W        W41187  24.861  16.822  12.051
68928W        W41188  30.100  19.989  12.276
68929W        W41189  35.790  25.190  11.510
68930W        W41190  24.673   0.426   4.224
68931W        W41191  33.471  14.935  13.283
68932W        W41192  25.996  38.480  11.637
68933W        W41193   9.683  44.844   4.230
68934W        W41194  19.006   6.283  11.915
68935W        W41195   0.377  14.770  10.681
68936W        W41196  11.737  20.917  14.070
68937W        W41197  44.408  28.152  12.896
68938W        W41198   0.740  10.366  12.052
68939W        W41199  36.639  11.632   1.761
68940W        W41200  34.125  14.786  14.082
68941W        W41201  32.111  30.459  13.402
68942W        W41202   8.219  11.866   3.165
68943W        W41203  41.285  24.686   1.751
68944W        W41204  17.805  26.378   2.768
68945W        W41205  32.422   5.457   0.413
68946W        W41206  12.953  34.082  10.956
68947W        W41207   9.709  29.623   0.359
68948W        W41208  28.069   4.980   3.923
68949W        W41209  35.606  39.785   0.712
68950W        W41210  28.937  31.449   4.244
68951W        W41211  27.351  24.233  13.106
68952W        W41212  33.146  40.729   4.075
68953W        W41213   0.988  39.015  14.531
68954W        W41214  44.762  18.988  14.316
68955W        W41215  30.000  41.327  13.776
68956W        W41216  39.335  38.812  14.606
68957W        W41217  32.440  30.660  10.746
68958W        W41218  15.738  18.754   4.598
68959W        W41219  21.071  17.480   0.347
68960W        W41220   7.834  24.272   0.383
68961W        W41221  14.213   0.794   1.346
68962W        W41222  16.295  20.075  12.883
68963W        W41223  35.127  10.372   3.159
68964W        W41224  17.752  38.843  11.518
68965W        W41225  38.835  27.505   3.146
68966W        W41226  31.372  32.207   5.123
68967W        W41227  31.934  23.939   4.007
68968W        W41228  30.013  41.296   2.825
68969W        W41229  17.710  40.804  14.968
68970W        W41230  30.299  16.016   3.761
68971W        W41231   5.329   2.981   3.199
68972W        W41232  18.086  16.289   3.658
68973W        W41233  18.355  31.092  13.907
68974W        W41234  24.743  39.075   3.664
68975W        W41235  25.159  23.491  13.052
68976W        W41236  44.855  41.739   4.666
68977W        W41237  14.521  16.655   3.605
68978W        W41238  19.352  35.951   2.960
68979W        W41239  19.491  10.589  10.798
68980W        W41240  37.418  17.776   0.378
68981W        W41241   1.184  31.541   4.401
68982W        W41242  18.964   9.739  11.568
68983W        W41243   1.880   1.237   1.068
68984W        W41244  17.623  32.616   0.589
68985W        W41245  15.095  12.392   0.392
68986W        W41246  43.001  24.893  14.547
68987W        W41247  23.014   0.430   1.186
68988W        W41248  19.870  15.075   0.185
68989W        W41249   1.764  14.047   0.771
68990W        W41250   4.398  23.278  12.135
68991W        W41251  37.335  21.522   2.843
68992W        W41252  17.097  19.891   2.713
68993W        W41253  18.817  33.519  10.979
68994W        W41254  21.714   9.464   0.773
68995W        W41255  28.126  11.653  10.906
68996W        W41256  14.874  40.806  11.183
68997W        W41257  34.525   8.390   4.564
68998W        W41258  30.296   3.058  10.562
68999W        W41259  41.621   9.299  14.540
69000W        W41260  28.673  27.649  12.887
69001W        W41261  43.977   9.810   3.707
69002W        W41262   3.096  20.277   2.796
69003W        W41263   3.979  44.202  12.895
69004W        W41264   2.844  39.389  11.247
69005W        W41265  30.434  26.414   0.308
69006W        W41266  16.123  43.254  12.378
69007W        W41267  11.639   5.751   4.674
69008W        W41268  24.602  24.497   3.439
69009W        W41269  15.664  42.234  12.680
69010W        W41270   5.961   2.194  11.163
69011W        W41271  34.850  12.251   1.796
69012W        W41272   6.389  41.847  11.619
69013W        W41273  25.063  29.678   4.160
69014W        W41274  27.270   2.312  13.349
69015W        W41275  24.981  41.397   0.705
69016W        W41276   2.962  29.781  14.454
69017W        W41277  37.076  43.781   0.010
69018W        W41278  41.833  19.068   4.378
69019W        W41279  42.751  24.632  13.034
69020W        W41280  25.123   6.717  10.764
69021W        W41281   3.843  36.055   3.002
69022W        W41282  12.725  25.912  10.981
69023W        W41283  14.573  40.534  11.644
69024W        W41284  28.007  14.625  12.224
69025W        W41285   3.288  43.354   4.379
69026W        W41286  40.363  14.910  12.426
69027W        W41287  11.827  36.408   2.208
69028W        W41288  15.305   3.951  10.758
69029W        W41289   1.368   0.018  12.222
69030W        W41290  17.048  12.167   2.815
69031W        W41291   5.468  34.981   4.315
69032W        W41292   1.313  29.436   1.946
69033W        W41293  38.434  43.117  11.090
69034W        W41294  20.567  23.997   3.736
69035W        W41295  25.602  17.234   0.013
69036W        W41296   7.595   3.864  14.318
69037W        W41297  16.131  10.864  11.552
69038W        W41298  32.787  23.175  14.954
69039W        W41299  34.402   6.855  14.346
69040W        W41300  20.982  23.131  14.068
69041W        W41301  32.554   0.044  14.287
69042W        W41302  43.317  13.142  13.028
69043W        W41303  30.837  13.001   2.197
69044W        W41304  13.706   0.629  11.213
69045W        W41305   3.000  12.857   1.927
69046W        W41306  39.571  17.280  11.175
69047W        W41307  16.948  30.482   3.495
69048W        W41308  19.771  27.194  13.871
69049W        W41309  34.907  29.217  13.406
69050W        W41310  37.510   5.476   4.948
69051W        W41311  16.249  43.432  12.899
69052W        W41312  18.366  43.082  10.607
69053W        W41313   6.415  34.546   3.750
69054W        W41314  17.723  35.181   3.741
69055W        W41315  11.846   0.389  14.438
69056W        W41316   8.404  18.556  12.057
69057W        W41317   7.129   8.753   0.900
69058W        W41318  18.739  14.251  13.602
69059W        W41319  36.481  18.510   3.328
69060W        W41320  32.792  21.625   2.555
69061W        W41321   2.225  41.973   4.625
69062W        W41322  43.976   1.403   0.110
69063W        W41323  27.937  42.376   0.291
69064W        W41324  43.361   6.937  11.087
69065W        W41325  37.380  32.997   2.687
69066W        W41326  39.727   0.217  13.342
69067W        W41327   3.854  15.015   2.671
69068W        W41328  13.884   0.022   2.277
69069W        W41329  10.797  15.619  13.039
69070W        W41330  25.603   2.050  12.386
69071W        W41331  42.735  26.783   5.074
69072W        W41332  17.632  22.865   4.632
69073W        W41333  14.354  43.956   3.611
69074W        W41334   0.841   8.136  14.051
69075W        W41335  33.724   2.756   2.068
69076W        W41336   5.776  16.222   1.888
69077W        W41337   1.257  26.506  11.721
69078W        W41338  44.041  15.096  14.423
69079W        W41339  42.951   4.603  10.846
69080W        W41340   8.514  10.077  13.090
69081W        W41341  21.053  32.634  11.165
69082W        W41342   8.464  38.687  11.776
69083W        W41343   3.398  14.122   3.403
69084W        W41344   7.161  35.967  13.760
69085W        W41345   0.170  17.787   0.636
69086W        W41346  21.035  32.864   1.296
69087W        W41347  33.951   6.438  10.289
69088W        W41348   5.892  39.045   1.045
69089W        W41349  36.534  10.022  11.046
69090W        W41350  29.433  40.014   3.180
69091W        W41351  27.551  24.639  13.845
69092W        W41352  37.494  30.292  10.395
69093W        W41353  44.047  36.652   3.699
69094W        W41354   2.831  20.738   2.631
69095W        W41355   5.206  36.914  14.821
69096W        W41356  26.576   1.353  11.043
69097W        W41357  29.554  40.555   4.613
69098W        W41358  36.001  40.954   0.471
69099W        W41359  29.865  42.709   4.809
69100W        W41360  19.969  17.579  13.016
69101W        W41361  16.542  33.350  14.457
69102W        W41362  31.064  13.914   3.712
69103W        W41363  19.727  10.833   2.335
69104W        W41364   3.768  33.643   4.349
69105W        W41365  23.487  44.141   3.404
69106W        W41366   0.337  16.236   0.719
69107W        W41367   7.512  20.731  12.100
69108W        W41368   8.508  30.046   4.029
69109W        W41369  31.149  16.382  12.905
69110W        W41370  38.987  37.896  14.073
69111W        W41371  24.339  22.088   2.302
69112W        W41372  19.064  18.256   3.733
69113W        W41373  17.465  19.670  14.264
69114W        W41374  31.229   1.008   2.547
69115W        W41375  35.420   4.218  14.971
69116W        W41376  27.125  18.221   2.052
69117W        W41377  13.682   3.871   4.197
69118W        W41378  26.677   8.587   1.162
69119W        W41379  32.000  21.712   3.270
69120W        W41380  25.171   2.821   2.706
69121W        W41381   8.915  39.933   0.770
69122W        W41382   8.003   9.501  12.116
69123W        W41383  36.901  21.177  11.488
69124W        W41384  31.652  30.112  10.433
69125W        W41385  21.735  16.261   0.962
69126W        W41386  23.117  19.874  14.175
69127W        W41387   2.017  26.703   3.379
69128W        W41388  27.879  24.433  12.397
69129W        W41389   9.224  39.003   1.594
69130W        W41390  15.801   0.795  14.802
69131W        W41391  17.242  44.703  11.599
69132W        W41392   7.743  34.914   4.124
69133W        W41393  42.349  24.115   4.357
69134W        W41394  13.164   8.886  12.047
69135W        W41395  11.288  42.708   0.173
69136W        W41396  39.896  14.150   4.264
69137W        W41397  35.542  15.125   2.707
69138W        W41398  35.137   3.408  13.336
69139W        W41399   4.235  33.476  14.587
69140W        W41400  15.088   3.350  11.625
69141W        W41401  16.887   1.374  11.172
69142W        W41402  16.122   1.384  11.567
69143W        W41403   5.937   8.339  13.449
69144W        W41404  23.502  30.990   0.326
69145W        W41405  34.023  12.481  12.472
69146W        W41406  11.823  20.316   4.708
69147W        W41407  23.207  39.866   3.845
69148W        W41408  38.474   8.219   3.625
69149W        W41409  20.639  43.817   2.303
69150W        W41410  17.841  36.016   2.294
69151W        W41411  36.942  21.699  11.726
69152W        W41412  17.413  23.166  11.559
69153W        W41413  24.569  20.221  14.976
69154W        W41414  31.949  24.759   1.803
69155W        W41415  31.879  42.275  14.002
69156W        W41416  15.045  14.343  10.625
69157W        W41417  21.495  12.884  12.635
69158W        W41418  15.517  21.714  10.665
69159W        W41419  16.907  38.993   3.221
69160W        W41420  18.841   7.263  14.143
69161W        W41421  40.464  11.614   3.663
69162W        W41422   6.804  23.260   4.452
69163W        W41423   7.757  38.742  13.025
69164W        W41424  12.845  30.628   1.635
69165W        W41425  18.528   1.380  13.066
69166W        W41426  27.099  20.074  12.712
69167W        W41427  43.494  40.854  12.505
69168W        W41428  16.563  28.197  11.126
69169W        W41429  32.896  16.194  10.639
69170W        W41430  19.336  40.607  10.675
69171W        W41431  25.150  25.664  14.104
69172W        W41432  38.068   6.147   2.791
69173W        W41433  43.765  36.991  14.764
69174W        W41434   1.231   7.316  11.411
69175W        W41435   8.277   2.792   2.812
69176W        W41436   8.244  13.639   3.720
69177W        W41437  41.041  17.914  13.216
69178W        W41438  13.045  25.638   1.677
69179W        W41439   8.619  37.178   0.777
69180W        W41440  36.005  21.135   1.472
69181W        W41441   0.000  24.937  11.184
69182W        W41442  12.621  38.249   3.286
69183W        W41443  32.029  23.217  13.784
69184W        W41444   6.867   2.235   4.888
69185W        W41445  16.165  40.821  11.676
69186W        W41446  12.130  18.360   1.772
69187W        W41447   4.701   7.604  10.222
69188W        W41448  29.703  40.899   2.638
69189W        W41449  43.501  17.787  11.105
69190W        W41450  31.959  11.656  11.537
69191W        W41451  10.597  25.033   2.637
69192W        W41452  42.887  19.923   4.524
69193W        W41453  15.291  44.293   3.744
69194W        W41454  17.153  30.602  11.119
69195W        W41455  13.162  11.266  11.851
69196W        W41456  35.358  34.382   1.737
69197W        W41457  36.962  34.897   4.136
69198W        W41458  44.369  36.548  14.560
69199W        W41459  33.100  13.603  11.097
69200W        W41460  13.793  30.732   4.196
69201W        W41461  19.506   2.389   0.010
69202W        W41462  32.483  16.677   2.021
69203W        W41463   8.077  24.724   0.491
69204W        W41464  15.300  42.410  13.933
69205W        W41465   0.884  34.437   1.383
69206W        W41466  18.945  41.951   1.776
69207W        W41467  12.823  17.348   4.099
69208W        W41468  19.368  24.915  13.781
69209W        W41469  28.048  38.888  10.028
69210W        W41470   3.698  19.587   1.320
69211W        W41471  26.574  30.014   2.403
69212W        W41472  23.685  10.293  14.882
69213W        W41473   8.125  42.621   2.349
69214W        W41474   3.418  15.058  12.078
69215W        W41475  10.667  26.709  14.859
69216W        W41476  34.925  35.761   1.866
69217W        W41477  17.299  39.964   1.648
69218W        W41478  18.379  44.515  13.033
69219W        W41479  28.027  29.485  10.806
69220W        W41480  31.385   9.523  12.099
69221W        W41481   3.322  31.792  10.761
69222W        W41482  11.624  39.545   2.890
69223W        W41483  44.403  38.931  12.780
69224W        W41484  41.304  36.168   0.254
69225W        W41485  18.558  23.720   2.772
69226W        W41486  21.240  13.853   1.135
69227W        W41487  11.041  24.100  13.435
69228W        W41488  35.492  14.673  14.523
69229W        W41489   4.094  26.520   4.030
69230W        W41490  36.018  21.419  14.350
69231W        W41491  14.717  35.366  14.506
69232W        W41492   9.656  38.495  11.171
69233W        W41493  16.614  20.621   2.932
69234W        W41494  25.304  23.414   2.705
69235W        W41495  22.527  32.889  11.615
69236W        W41496  33.872  36.944  11.176
69237W        W41497   8.825  41.800  12.051
69238W        W41498   5.950   5.429  11.476
69239W        W41499  21.146  44.863  12.022
69240W        W41500  34.777  32.439   3.097
69241W        W41501  41.276  40.966  11.166
69242W        W41502  44.044   0.806   3.303
69243W        W41503  31.728  42.916  12.593
69244W        W41504  33.838  13.382  13.404
69245W        W41505  28.850  36.913   0.853
69246W        W41506  15.128   1.855   2.234
69247W        W41507  43.042  29.070  14.337
69248W        W41508   9.764  13.633  12.164
69249W        W41509  34.609  20.174  10.665
69250W        W41510  18.878  22.376  10.200
69251W        W41511  41.381  21.480   1.884
69252W        W41512  24.289   1.431   2.747
69253W        W41513  40.479  42.547  12.020
69254W        W41514  44.033  29.215   2.876
69255W        W41515  36.630  37.890   3.655
69256W        W41516  24.704  23.448  14.287
69257W        W41517  37.518  19.598   1.647
69258W        W41518  37.503   8.811   1.642
69259W        W41519  37.447  39.825  10.774
69260W        W41520  41.671   2.964  12.391
69261W        W41521  34.986   4.234   0.741
69262W        W41522  19.674  40.317   0.509
69263W        W41523  17.994  13.064   2.443
69264W        W41524  44.810   4.363  14.746
69265W        W41525  12.671  39.787   4.790
69266W        W41526  13.037   5.691  14.846
69267W        W41527  29.603  20.011  14.503
69268W        W41528  14.745   4.977   3.706
69269W        W41529  42.025  20.275  10.417
69270W        W41530   7.552  42.844  12.882
69271W        W41531  17.867  14.465  11.047
69272W        W41532  22.485  36.928  12.526
69273W        W41533  12.648  40.624   3.878
69274W        W41534  15.862  36.010   3.703
69275W        W41535  31.073   1.830   2.972
69276W        W41536   7.874   2.945   1.733
69277W        W41537  23.573  27.096   2.768
69278W        W41538  19.531  27.609  12.165
69279W        W41539  22.007   5.840  13.812
69280W        W41540  40.223  44.420   1.479
69281W        W41541  25.851   9.163  10.612
69282W        W41542  32.075   8.454   2.377
69283W        W41543  34.015  37.426   5.064
69284W        W41544  29.005   3.230   4.561
69285W        W41545  31.557   7.223   0.907
69286W        W41546  32.159   2.437  12.525
69287W        W41547  43.231  10.627  14.369
69288W        W41548  44.786  38.054   4.079
69289W        W41549  19.550  13.299   0.872
69290W        W41550  18.728  17.289  10.698
69291W        W41551  12.988  30.225   4.294
69292W        W41552   7.345  42.869  13.786
69293W        W41553  14.062  41.264   2.385
69294W        W41554  15.404  20.035   3.329
69295W        W41555  32.767  33.129   2.745
69296W        W41556  39.040   7.458  13.948
69297W        W41557  32.463  13.561  10.664
69298W        W41558  22.038  38.387  12.685
69299W        W41559  23.050  27.515  11.719
69300W        W41560  43.913   2.164  12.528
69301W        W41561  13.330   0.512  13.019
69302W        W41562  28.468  21.447  10.835
69303W        W41563  20.678   4.515   0.832
69304W        W41564  31.156  41.984   0.853
69305W        W41565  19.443  33.225  14.570
69306W        W41566  22.009  42.047   0.316
69307W        W41567  24.566   8.476  13.789
69308W        W41568  16.093   1.866  13.630
69309W        W41569   7.358  37.359  14.254
69310W        W41570   9.804  19.290   1.652
69311W        W41571  40.262  31.383   0.767
69312W        W41572  36.602  29.088   4.668
69313W        W41573  10.526  12.807   0.347
69314W        W41574  15.118  24.620  11.628
69315W        W41575  25.035  22.269  11.904
69316W        W41576  33.090  17.103  13.732
69317W        W41577   3.752   3.375   4.857
69318W        W41578  31.392  39.963  12.111
69319W        W41579  21.427  44.579  10.702
69320W        W41580   9.931   1.018   2.978
69321W        W41581  19.269  23.104   2.881
69322W        W41582  37.988  23.070  12.972
69323W        W41583  24.937  13.715  14.475
69324W        W41584  16.655  16.949  10.230
69325W        W41585  19.287  23.779   3.343
69326W        W41586  12.786   0.415   2.897
69327W        W41587  26.750  27.499   1.650
69328W        W41588  41.861  33.050  14.749
69329W        W41589  19.167  12.518   4.809
69330W        W41590  11.688  10.538  11.606
69331W        W41591  22.226  15.985  13.058
69332W        W41592  16.458  32.865   2.123
69333W        W41593  29.234   8.415  11.998
69334W        W41594  43.982  27.491   0.817
69335W        W41595  21.854  11.124   3.599
69336W        W41596   3.932  16.158  11.049
69337W        W41597  31.009  21.967  12.988
69338W        W41598  39.642   7.778   0.270
69339W        W41599  25.039   0.087  14.979
69340W        W41600  33.594   4.807  13.486
69341W        W41601  21.752   3.385   0.676
69342W        W41602  28.367  30.510   2.703
69343W        W41603  44.362  41.010   4.943
69344W        W41604   0.913  28.699   2.205
69345W        W41605  19.799  18.071  11.127
69346W        W41606  21.129  14.782  14.525
69347W        W41607   3.905  12.367  13.728
69348W        W41608   0.506  12.417   2.307
69349W        W41609  37.494  19.711  10.151
69350W        W41610  38.477  36.070  11.656
69351W        W41611  18.536   0.809   4.155
69352W        W41612   8.865  23.122  12.578
69353W        W41613  26.123   0.745   4.085
69354W        W41614   7.652  34.000   1.847
69355W        W41615  28.643  40.042   2.753
69356W        W41616   0.026   3.677   2.283
69357W        W41617  19.171  43.180   3.218
69358W        W41618  42.410  34.942   0.309
69359W        W41619  21.952  41.957   1.094
69360W        W41620  39.532  34.895  13.060
69361W        W41621   0.193  24.071   3.697
69362W        W41622  20.845   7.689  13.389
69363W        W41623   1.871  39.630   2.009
69364W        W41624   8.141   2.338  13.983
69365W        W41625  17.322  25.284   2.726
69366W        W41626   9.239  28.140   0.906
69367W        W41627  30.918  31.572   4.343
69368W        W41628  37.228   2.208  13.838
69369W        W41629  19.746   0.178   0.840
69370W        W41630   0.241   7.440  14.918
69371W        W41631  34.607   7.359   3.693
69372W        W41632  36.376  41.733   3.495
69373W        W41633  39.850  35.343  13.846
69374W        W41634   4.182  16.965  13.747
69375W        W41635  35.654  31.556  11.015
69376W        W41636  24.683  11.087  12.017
69377W        W41637  30.345  41.369   0.878
69378W        W41638   3.825  30.054   0.665
69379W        W41639  42.040  35.850  11.137
69380W        W41640  38.209  29.170  14.770
69381W        W41641   7.435  30.381  14.983
69382W        W41642  12.659   2.854   4.431
69383W        W41643  27.685  13.315  13.377
69384W        W41644  11.112  13.675   4.389
69385W        W41645  16.770  10.372  12.842
69386W        W41646  27.694  31.135   4.176
69387W        W41647  27.623  12.244  10.735
69388W        W41648   5.888  18.588  13.042
69389W        W41649  44.473   2.900  13.464
69390W        W41650  40.510  42.682  10.245
69391W        W41651  11.690  12.345  13.597
69392W        W41652  17.741  19.199   4.615
69393W        W41653   2.512  38.122  14.305
69394W        W41654  29.306  12.559  14.876
69395W        W41655  10.226  13.069  13.995
69396W        W41656  30.107  29.853  13.487
69397W        W41657  28.979   7.992   2.746
69398W        W41658  11.704  14.400  14.787
69399W        W41659  15.605   3.731   1.745
69400W        W41660  42.825  32.304  13.025
69401W        W41661  18.010  40.338  11.119
69402W        W41662  11.740  28.387   1.432
69403W        W41663  33.314  35.980   1.292
69404W        W41664  20.955  27.211  11.958
69405W        W41665  36.080  21.007   3.943
69406W        W41666  16.757  42.862  11.190
69407W        W41667  24.968  15.466  12.480
69408W        W41668  27.477  36.962  11.723
69409W        W41669   1.317  13.337   0.214
69410W        W41670  12.145  35.067  14.893
69411W        W41671  40.984  18.160   2.945
69412W        W41672   7.718  22.744  10.104
69413W        W41673  36.038  19.152  10.509
69414W        W41674  30.736   3.112  14.875
69415W        W41675  31.201   3.713   3.027
69416W        W41676   9.580  19.634   2.312
69417W        W41677  25.543   8.346   4.879
69418W        W41678   7.618  37.409   1.674
69419W        W41679   4.069  28.500  13.931
69420W        W41680  25.708  26.404   4.091
69421W        W41681  34.431  13.700  13.965
69422W        W41682  31.426  25.032   2.816
69423W        W41683  32.214  37.534   3.083
69424W        W41684  44.872  42.943  10.657
69425W        W41685  12.327  35.976   1.659
69426W        W41686  24.524  35.963  13.434
69427W        W41687  13.187  35.000   0.206
69428W        W41688  40.457   4.532  10.575
69429W        W41689  31.116  21.717  12.518
69430W        W41690  35.329  16.758  14.353
69431W        W41691  17.529  23.708   1.646
69432W        W41692  33.157   6.221   0.427
69433W        W41693  12.332  32.948   1.760
69434W        W41694   1.886  36.925   0.824
69435W        W41695  11.739  34.938   4.015
69436W        W41696  11.608  27.632  12.092
69437W        W41697   4.997  24.796   3.671
69438W        W41698  40.330   9.438  11.743
69439W        W41699  28.225  21.190   1.611
69440W        W41700   0.857  27.431   2.792
69441W        W41701  11.835  33.819   0.254
69442W        W41702   0.463  31.617  10.804
69443W        W41703  39.162  14.172  12.886
69444W        W41704  30.034  32.441   9.914
69445W        W41705  21.816  15.682   3.180
69446W        W41706  33.783  23.365  12.869
69447W        W41707   7.767  38.143  12.397
69448W        W41708  29.925  32.019   1.846
69449W        W41709  42.839  10.324   1.751
69450W        W41710  13.748  41.071  12.622
69451W        W41711  35.192  19.267  14.365
69452W        W41712   8.020   2.772  12.537
69453W        W41713   4.387  16.102   4.579
69454W        W41714  33.043  21.144   2.540
69455W        W41715  40.598  40.001  10.369
69456W        W41716   9.176  30.475   2.017
69457W        W41717  21.989  44.801  13.312
69458W        W41718   3.363   2.373  11.051
69459W        W41719  37.425  29.997  11.197
69460W        W41720  26.017  36.438  10.415
69461W        W41721  43.570  19.195  13.961
69462W        W41722  33.709  31.276   3.138
69463W        W41723  39.492  20.131  14.082
69464W        W41724  25.253  44.044  12.539
69465W        W41725  13.917  35.577  13.397
69466W        W41726  44.793  44.903  12.504
69467W        W41727  10.750   7.116   0.785
69468W        W41728  43.542   0.318  12.554
69469W        W41729  24.990  13.858   2.127
69470W        W41730  29.516   2.953  14.227
69471W        W41731   3.924  17.674  13.345
69472W        W41732  14.874  41.851   3.642
69473W        W41733  23.069  15.686  13.905
69474W        W41734  13.796   8.827  13.026
69475W        W41735  16.252  15.826   0.361
69476W        W41736  25.742  13.303  13.127
69477W        W41737  23.620  31.891  11.436
69478W        W41738   2.059   0.326   0.407
69479W        W41739  37.514  42.548  11.614
69480W        W41740  20.335  23.838  10.638
69481W        W41741  23.633  21.743   3.882
69482W        W41742  43.999  37.309   2.889
69483W        W41743   6.639  29.050   0.819
69484W        W41744   5.513   8.713   2.556
69485W        W41745   5.663   9.161   1.253
69486W        W41746   9.607  13.865  10.880
69487W        W41747  33.353   9.759   3.763
69488W        W41748  19.158  40.040  13.026
69489W        W41749  22.785  18.000   4.167
69490W        W41750  30.456  30.304  11.544
69491W        W41751  40.480  17.017  11.300
69492W        W41752  31.570  43.924   2.688
69493W        W41753  40.981   5.894   4.107
69494W        W41754   5.031  26.639  14.906
69495W        W41755  29.839  43.279   2.903
69496W        W41756  40.049  20.421   3.716
69497W        W41757  17.219   1.441   1.614
69498W        W41758  23.447  41.926   3.779
69499W        W41759  27.050   6.698   3.750
69500W        W41760  37.396  36.081  13.431
69501W        W41761  22.636  40.785   0.446
69502W        W41762  38.339  22.076  12.224
69503W        W41763  15.108  39.836   3.144
69504W        W41764  19.367  28.523   1.743
69505W        W41765   7.990   5.837  11.511
69506W        W41766  20.553  39.437   3.839
69507W        W41767  36.206  10.679  14.703
69508W        W41768  16.976  25.727   2.703
69509W        W41769  17.656  32.981   4.920
69510W        W41770  43.345  40.687  11.625
69511W        W41771  12.787  26.813  13.043
69512W        W41772  10.169  34.665  12.368
69513W        W41773  30.944   4.447  13.387
69514W        W41774  41.815  27.185  12.844
69515W        W41775  37.092  22.396  11.032
69516W        W41776  43.451  23.567  13.517
69517W        W41777  43.157   3.072   0.216
69518W        W41778  17.692   3.873  13.907
69519W        W41779  38.536   1.257  11.940
69520W        W41780  35.813  18.718   3.328
69521W        W41781   2.567  33.413  11.556
69522W        W41782  28.765  25.550   1.578
69523W        W41783  40.045  41.215  12.087
69524W        W41784   9.395  14.255  12.097
69525W        W41785  30.626  11.199  11.223
69526W        W41786  29.093  40.706  11.996
69527W        W41787  12.302   4.968  11.460
69528W        W41788  26.993  38.828   2.814
69529W        W41789   5.464  31.611  11.469
69530W        W41790  22.518  16.756   4.682
69531W        W41791  18.449   5.836  10.751
69532W        W41792   1.904   3.510   0.324
69533W        W41793  41.472  21.194  10.616
69534W        W41794  16.391  28.599  10.872
69535W        W41795  16.346  28.551   1.754
69536W        W41796   9.598  17.621  14.759
69537W        W41797  43.215  23.493  11.488
69538W        W41798  28.973  18.804   3.233
69539W        W41799  30.386   2.789  14.658
69540W        W41800  16.356  22.566   4.736
69541W        W41801   1.927  12.814  11.181
69542W        W41802  21.934  21.975   0.778
69543W        W41803  38.695  38.128  11.638
69544W        W41804   7.798  31.142  11.673
69545W        W41805  22.248  27.232  11.676
69546W        W41806   2.733  36.949   4.757
69547W        W41807   5.461  23.842  14.056
69548W        W41808  13.440   3.470  13.417
69549W        W41809  32.451  42.685   1.231
69550W        W41810  36.512  17.648   3.211
69551W        W41811  42.190  44.354   1.176
69552W        W41812   1.933  10.246   4.984
69553W        W41813   5.849  27.682   4.163
69554W        W41814  23.284  13.373   3.412
69555W        W41815  34.574  14.330  10.594
69556W        W41816  12.083  11.261  11.203
69557W        W41817   1.086  39.455  13.348
69558W        W41818   6.840   4.244  12.532
69559W        W41819   6.165  18.060  12.041
69560W        W41820  24.024  41.347   1.186
69561W        W41821  11.782  43.635  11.535
69562W        W41822   9.636  30.590   1.233
69563W        W41823   4.533   0.700  10.669
69564W        W41824  24.977   0.972  11.939
69565W        W41825  28.955  11.926  13.283
69566W        W41826  19.238  32.733   3.016
69567W        W41827   0.450  34.950   3.320
69568W        W41828   4.407  19.265  12.448
69569W        W41829  26.154  32.911   4.384
69570W        W41830  15.285  12.500   2.437
69571W        W41831  32.094   2.700   0.455
69572W        W41832  44.804   9.816   4.745
69573W        W41833  34.957  13.532  11.989
69574W        W41834  35.466   5.336  14.074
69575W        W41835  38.873  23.132  11.610
69576W        W41836   7.291  12.646   4.557
69577W        W41837  39.509  29.783   3.629
69578W        W41838  39.785  31.669  12.561
69579W        W41839  11.790   0.959   1.337
69580W        W41840  19.930  39.484  13.451
69581W        W41841  19.142  28.774  14.461
69582W        W41842   7.793  26.910   0.031
69583W        W41843   8.535   8.381  14.844
69584W        W41844  13.249  30.168   0.519
69585W        W41845   3.211  32.023  14.821
69586W        W41846  31.912  38.741  12.433
69587W        W41847  42.963  42.625  10.735
69588W        W41848   9.235  34.106   2.268
69589W        W41849  43.340   2.956  12.517
69590W        W41850  26.951  13.619  12.775
69591W        W41851   3.439  37.143  11.933
69592W        W41852  34.965  14.003  12.405
69593W        W41853  32.062  42.987   3.343
69594W        W41854  37.615  25.119  12.543
69595W        W41855  17.225  22.760  12.113
69596W        W41856  37.808  29.945   1.871
69597W        W41857  28.553  26.709  14.841
69598W        W41858  42.413  34.530  14.378
69599W        W41859  11.859  20.729  11.797
69600W        W41860  40.944  13.954  11.093
69601W        W41861  36.781   9.312   1.951
69602W        W41862  31.660  34.481  14.803
69603W        W41863  42.979   6.577   3.825
69604W        W41864  40.741   3.349   4.209
69605W        W41865  29.362  19.101  11.226
69606W        W41866  29.160  27.497   3.871
69607W        W41867  33.599   2.914   4.703
69608W        W41868  22.875   1.973  14.333
69609W        W41869  21.063  22.699   2.785
69610W        W41870   9.281  43.778   0.512
69611W        W41871  11.861  13.821  12.436
69612W        W41872  21.081  18.655   3.399
69613W        W41873  24.205  22.076   2.815
69614W        W41874  23.263   7.721  13.053
69615W        W41875  32.643  43.022  12.165
69616W        W41876  23.207   9.642   0.264
69617W        W41877  24.509  21.033  10.209
69618W        W41878  35.444  16.910   0.784
69619W        W41879  33.071   4.718   2.847
69620W        W41880  23.027  25.105   1.806
69621W        W41881   0.029  19.838   4.137
69622W        W41882  31.181  30.423  11.914
69623W        W41883  41.477  21.292   3.234
69624W        W41884  20.129  34.136   0.382
69625W        W41885  31.876  25.497  13.782
69626W        W41886   5.289  33.140  10.450
69627W        W41887  12.614  14.833   0.025
69628W        W41888  23.877  15.717  12.413
69629W        W41889   3.449  16.759   0.728
69630W        W41890  35.092  13.084  10.797
69631W        W41891  35.358  42.561  12.348
69632W        W41892  40.603  38.521   1.650
69633W        W41893  17.378  40.883   2.756
69634W        W41894  28.147  24.218   5.445
69635W        W41895  24.490  41.484   0.873
69636W        W41896   5.737  11.585   3.443
69637W        W41897  27.153   6.512   0.772
69638W        W41898   3.254  43.120   1.543
69639W        W41899   2.125  19.359   3.253
69640W        W41900  21.008  28.118   0.934
69641W        W41901  34.425  21.951   5.480
69642W        W41902   5.712  36.873   3.723
69643W        W41903   4.622  41.871   3.568
69644W        W41904  38.085  23.289  12.497
69645W        W41905   6.262  22.736  14.820
69646W        W41906   5.738  25.029  12.376
69647W        W41907  24.482  44.398  10.671
69648W        W41908  35.526  25.208  13.418
69649W        W41909  29.105  43.895  13.842
69650W        W41910  32.188  42.585  14.962
69651W        W41911   4.657   9.723   1.941
69652W        W41912   2.224  11.565  10.547
69653W        W41913  31.882  22.628  10.625
69654W        W41914  28.908   8.098   4.346
69655W        W41915  23.325  23.954   4.647
69656W        W41916  10.880  36.538  13.048
69657W        W41917  31.449  25.938   3.102
69658W        W41918  43.072  31.987   0.458
69659W        W41919  34.664  20.143   4.121
69660W        W41920  40.476  27.815   4.145
69661W        W41921  31.836  20.244   3.763
69662W        W41922  42.522  32.997   4.253
69663W        W41923  34.855  39.006  13.032
69664W        W41924   3.368  41.441  11.951
69665W        W41925   2.787  19.173   3.171
69666W        W41926   0.505  23.157  14.059
69667W        W41927   0.196  40.818  12.956
69668W        W41928   4.336   5.797   0.360
69669W        W41929   9.630  27.598  14.468
69670W        W41930  32.111  37.375  11.192
69671W        W41931  18.862   1.809  13.123
69672W        W41932  41.488   0.539   4.830
69673W        W41933  30.646  21.070  13.304
69674W        W41934   7.410  12.176  14.344
69675W        W41935   0.963  28.164   2.214
69676W        W41936  27.699  39.651   9.776
69677W        W41937  12.859  33.056  12.585
69678W        W41938  34.616  18.426   5.090
69679W        W41939   4.293  30.537   3.660
69680W        W41940  26.069  37.362   0.246
69681W        W41941  21.765  38.985  14.950
69682W        W41942  40.888  14.583   1.732
69683W        W41943  15.844  36.124  13.897
69684W        W41944  44.332  35.355  14.688
69685W        W41945  36.450  40.043   4.016
69686W        W41946   0.744  40.582  15.000
69687W        W41947  43.835  34.560  11.089
69688W        W41948   3.278   2.524  13.675
69689W        W41949   2.382  17.261  11.140
69690W        W41950  14.678  14.827   9.916
69691W        W41951   1.800  25.698  13.112
69692W        W41952  10.424  31.440   4.477
69693W        W41953  40.935   8.146   1.481
69694W        W41954   2.411   6.427   2.596
69695W        W41955   4.858   1.510   0.396
69696W        W41956  31.148  14.742  12.556
69697W        W41957   8.263  14.129  13.172
69698W        W41958  21.516  36.807   2.794
69699W        W41959  43.218  42.914  13.589
69700W        W41960  44.790  25.782   1.693
69701W        W41961  41.670  22.214   1.363
69702W        W41962  21.563  41.178  12.829
69703W        W41963  20.571  15.215   0.029
69704W        W41964   6.320  11.347   4.919
69705W        W41965  19.337  44.017  12.024
69706W        W41966  36.134  33.961   0.298
69707W        W41967  22.139   6.749   2.266
69708W        W41968  27.572  15.758  13.903
69709W        W41969  16.047   9.349  14.839
69710W        W41970  18.738  38.548  14.383
69711W        W41971   6.443  29.570  13.931
69712W        W41972  39.286  25.199  14.623
69713W        W41973  12.415   9.268  12.000
69714W        W41974  25.238  10.897   4.664
69715W        W41975  24.387  42.799   3.620
69716W        W41976  19.732  36.165   3.743
69717W        W41977  44.734   3.759  12.510
69718W        W41978  28.713  43.784   0.315
69719W        W41979  25.918  11.666   1.739
69720W        W41980  16.016   8.266  11.484
69721W        W41981  43.037  33.044   1.412
69722W        W41982  23.722  39.425  14.894
69723W        W41983   2.418  28.908   1.920
69724W        W41984  40.618  14.438  10.249
69725W        W41985  42.462  23.549  12.203
69726W        W41986  39.918  18.904  11.543
69727W        W41987  27.585  24.458   3.652
69728W        W41988  11.353  20.016   4.630
69729W        W41989   4.317  25.892  10.694
69730W        W41990  38.395  26.671   2.243
69731W        W41991  12.680   5.160  12.784
69732W        W41992  23.546  12.652  14.886
69733W        W41993  42.984   5.082  11.400
69734W        W41994  18.851  26.612   1.428
69735W        W41995   2.382  16.242   4.111
69736W        W41996  40.788  44.585   2.340
69737W        W41997  13.378  39.851  12.654
69738W        W41998  13.673   2.392   4.211
69739W        W41999  33.964  10.875  13.315
69740W        W42000   4.527  42.536   3.563
69741W        W42001  10.782  36.652  11.150
69742W        W42002  36.806  37.789   4.141
69743W        W42003   3.140   5.405   0.772
69744W        W42004  16.092  25.074  14.882
69745W        W42005  14.378  41.439   2.785
69746W        W42006  38.522  14.939   4.756
69747W        W42007  36.614  17.243   4.293
69748W        W42008  18.677  22.328   3.782
69749W        W42009  26.402  27.611   1.299
69750W        W42010  13.752  42.559  11.480
69751W        W42011  36.619  32.930  13.796
69752W        W42012  31.510  33.214  12.857
69753W        W42013  40.634  22.709  11.027
69754W        W42014  33.424  24.306   0.958
69755W        W42015  14.829  11.185   3.609
69756W        W42016   8.250   2.772  14.262
69757W        W42017   5.801  29.494  10.222
69758W        W42018  15.045  28.483  10.680
69759W        W42019  29.922   0.855  13.609
69760W        W42020  23.936  25.307   4.565
69761W        W42021  14.974  29.929   4.198
69762W        W42022  39.547  14.216  11.639
69763W        W42023  32.034   1.761   0.473
69764W        W42024  14.480  43.751  14.865
69765W        W42025  23.221  44.798   0.368
69766W        W42026  11.388  16.543  11.743
69767W        W42027  40.408  41.203   5.069
69768W        W42028  12.797  23.988   1.820
69769W        W42029   3.481   7.166  13.482
69770W        W42030  22.732  20.157  11.867
69771W        W42031  30.119  10.095   0.889
69772W        W42032  31.018   4.930   1.377
69773W        W42033  38.026  35.240  11.959
69774W        W42034  25.914   7.349  13.009
69775W        W42035   2.656   9.856   0.841
69776W        W42036   5.757   0.208   2.338
69777W        W42037  27.052  13.876  11.787
69778W        W42038  41.265  12.574   3.393
69779W        W42039   7.737   6.806  10.613
69780W        W42040  34.713   0.023  10.528
69781W        W42041  33.132   0.530  11.132
69782W        W42042  18.350  41.383   4.139
69783W        W42043  13.641  29.115  14.421
69784W        W42044   9.847   4.935   3.745
69785W        W42045   3.373   2.147  14.631
69786W        W42046   1.219  19.413  12.530
69787W        W42047  28.665  39.911  13.918
69788W        W42048   7.804   3.760  10.574
69789W        W42049   0.740  17.280  11.118
69790W        W42050  23.717  13.879  11.566
69791W        W42051  31.572  18.084  10.785
69792W        W42052   8.459   6.427   0.672
69793W        W42053  16.197   1.560  14.928
69794W        W42054  39.271  17.260  12.047
69795W        W42055  32.446  21.231  14.383
69796W        W42056  31.943   4.097   0.588
69797W        W42057  30.728  28.198  14.428
69798W        W42058  32.690   6.885   1.887
69799W        W42059  23.925  11.241  13.492
69800W        W42060  21.500  22.655   1.247
69801W        W42061   9.166  12.942   3.333
69802W        W42062  34.110  43.138   4.055
69803W        W42063  25.222   9.728   1.579
69804W        W42064  27.683  24.020   2.772
69805W        W42065  16.744  25.514  13.368
69806W        W42066  34.989  26.298   4.905
69807W        W42067  40.138   0.491   4.608
69808W        W42068  11.656  26.329  10.672
69809W        W42069  28.577  28.461   0.800
69810W        W42070  36.471  13.722   4.313
69811W        W42071  30.419  18.037   1.281
69812W        W42072  23.734  16.783   3.762
69813W        W42073   5.822  35.285   4.053
69814W        W42074  10.822  44.267  11.108
69815W        W42075  22.226   9.864  11.592
69816W        W42076  17.471   9.743  11.745
69817W        W42077  22.281  43.500  11.993
69818W        W42078  19.820  38.504   4.252
69819W        W42079  31.169  10.296   2.674
69820W        W42080  13.649   7.248  11.965
69821W        W42081  38.194   2.630  13.052
69822W        W42082  44.546  28.066   0.412
69823W        W42083  31.051  15.608  13.833
69824W        W42084  21.505   2.170   0.368
69825W        W42085   6.241  11.244   1.440
69826W        W42086  10.786  44.232   1.689
69827W        W42087   7.439  25.038  14.274
69828W        W42088  21.598  13.367   0.395
69829W        W42089  34.442  35.366   4.162
69830W        W42090  12.326  23.751   1.731
69831W        W42091   7.105   6.915   0.340
69832W        W42092  37.530   3.867  11.999
69833W        W42093  38.303  36.004   3.158
69834W        W42094  37.890  39.526   4.935
69835W        W42095  11.754  31.052  13.607
69836W        W42096  25.486  23.389  14.891
69837W        W42097   5.410  31.001  11.107
69838W        W42098  23.586  34.147  10.609
69839W        W42099  31.565  41.165  10.752
69840W        W42100  24.724  20.453   2.290
69841W        W42101  25.475  32.327  11.568
69842W        W42102  42.015  18.729   3.882
69843W        W42103   0.490  39.585   2.947
69844W        W42104  10.718  36.266  14.411
69845W        W42105   4.238   4.706  14.816
69846W        W42106  23.660   9.168  12.862
69847W        W42107  43.242   8.903  12.860
69848W        W42108  35.063  36.439   3.120
69849W        W42109   2.805  24.281   0.431
69850W        W42110  11.161  26.887   0.053
69851W        W42111  31.542  23.305  14.442
69852W        W42112  28.389  42.314   1.226
69853W        W42113  10.713  16.001  13.732
69854W        W42114  18.629  17.566   0.817
69855W        W42115  36.614  38.427  10.638
69856W        W42116  39.143  22.809   3.635
69857W        W42117   7.426   5.710   0.783
69858W        W42118   2.036  43.458   0.259
69859W        W42119  41.779  33.405  13.365
69860W        W42120   7.097  26.982   0.497
69861W        W42121  31.436  39.633  12.517
69862W        W42122  25.977  34.661   0.136
69863W        W42123  11.061   6.751  11.455
69864W        W42124  16.071  24.728   3.154
69865W        W42125  16.129  32.881   4.500
69866W        W42126   8.371  16.361  13.378
69867W        W42127  39.476  10.753   1.760
69868W        W42128  44.674  19.476   4.135
69869W        W42129  16.979   1.375  13.039
69870W        W42130   1.936  20.456  10.715
69871W        W42131  43.694   9.396  11.703
69872W        W42132  13.140  23.205  12.077
69873W        W42133   7.076  23.177  11.087
69874W        W42134  20.561  26.332   4.061
69875W        W42135   2.833  28.333  12.486
69876W        W42136  20.569  27.979   4.568
69877W        W42137  23.391  41.932  10.689
69878W        W42138  12.322  27.109   2.248
69879W        W42139  14.620  18.756   0.874
69880W        W42140  36.827  16.068  11.649
69881W        W42141  28.238  27.079   2.906
69882W        W42142  12.741   3.531   3.353
69883W        W42143  12.294  15.355   4.435
69884W        W42144  14.271  42.237   0.029
69885W        W42145   7.970  43.248  14.789
69886W        W42146  35.789   5.403   3.263
69887W        W42147   1.014  31.495  11.078
69888W        W42148  38.398  12.229   3.090
69889W        W42149  37.593   3.493   1.471
69890W        W42150  41.842   0.532   2.211
69891W        W42151  13.568  19.131   5.024
69892W        W42152  13.298  32.093  11.137
69893W        W42153  36.511  44.245  10.652
69894W        W42154  16.683  25.904  10.732
69895W        W42155   9.723   6.652  13.545
69896W        W42156  40.351   9.134  13.836
69897W        W42157  25.692  15.525  13.391
69898W        W42158  13.839  42.548   3.249
69899W        W42159  43.944  38.820   0.497
69900W        W42160  29.975  32.076   2.848
69901W        W42161  10.746   6.863   4.529
69902W        W42162  19.547  25.078   3.318
69903W        W42163  31.934  29.902   1.978
69904W        W42164  33.943   7.230  10.598
69905W        W42165  37.708  12.610  14.449
69906W        W42166   2.362  30.091   2.603
69907W        W42167  12.164  30.314  13.983
69908W        W42168   6.449  33.552   0.837
69909W        W42169   2.770  20.034   3.747
69910W        W42170  23.001   2.729   2.914
69911W        W42171  36.336   0.441   3.808
69912W        W42172  14.717  24.147  12.895
69913W        W42173  14.052  42.759  13.146
69914W        W42174  21.553  29.713   3.823
69915W        W42175   7.294  10.338  13.429
69916W        W42176  12.236  20.072  13.347
69917W        W42177  13.273  44.432  10.726
69918W        W42178   7.726   5.777  14.516
69919W        W42179   4.925  10.619   2.378
69920W        W42180  15.820   4.623  10.101
69921W        W42181  42.816  20.479  10.092
69922W        W42182  44.174  35.889  11.832
69923W        W42183  30.500   5.565  11.536
69924W        W42184  33.603  17.149   3.325
69925W        W42185  32.470  13.425  14.614
69926W        W42186  11.607  44.829   3.428
69927W        W42187   6.682  23.088   3.686
69928W        W42188  18.727  22.266  13.454
69929W        W42189  41.042  38.913   3.710
69930W        W42190  19.717  13.897   3.259
69931W        W42191  17.563  31.258  12.964
69932W        W42192  19.981  35.388   0.964
69933W        W42193  17.128  17.655   0.227
69934W        W42194   6.270  26.246  11.099
69935W        W42195  27.207   7.250   2.486
69936W        W42196   8.837  26.028  14.482
69937W        W42197  25.421  32.858  11.420
69938W        W42198  38.114  32.188   0.212
69939W        W42199  33.954  23.759  12.343
69940W        W42200   9.098  35.509   1.831
69941W        W42201  16.736  27.557  12.452
69942W        W42202   8.647  24.151   5.055
69943W        W42203  25.065   0.797   4.586
69944W        W42204  36.008  17.691  12.074
69945W        W42205   2.212  19.591   4.200
69946W        W42206  36.112  10.326  12.419
69947W        W42207  29.134  10.541  13.506
69948W        W42208   6.844  41.036   2.220
69949W        W42209   5.159  39.456   1.801
69950W        W42210   4.204  30.647  11.498
69951W        W42211   3.271  39.895  14.967
69952W        W42212  23.234   6.624  13.406
69953W        W42213  11.495   5.192  13.132
69954W        W42214  24.057  23.224   3.700
69955W        W42215  14.036  19.110   3.309
69956W        W42216  38.330  38.521  12.360
69957W        W42217  28.668  20.860   0.773
69958W        W42218  11.234  17.642   2.450
69959W        W42219  12.936  27.093  14.488
69960W        W42220  19.025  21.765  12.873
69961W        W42221  43.541  18.741  11.099
69962W        W42222  10.715  36.121   5.046
69963W        W42223  27.378  26.872   1.051
69964W        W42224  30.511  29.587  10.435
69965W        W42225  14.966  34.593  10.252
69966W        W42226  42.671  19.768  10.643
69967W        W42227  42.895  24.916   2.609
69968W        W42228  40.791  41.567  12.490
69969W        W42229   1.051  23.973   4.610
69970W        W42230  41.367  14.711   1.996
69971W        W42231  37.847  43.402  13.305
69972W        W42232  14.449   8.482  11.031
69973W        W42233  24.516  31.062   2.905
69974W        W42234  37.090  26.525   1.218
69975W        W42235  13.291  27.871  12.252
69976W        W42236  28.008  43.343  14.080
69977W        W42237  16.421  14.655  14.395
69978W        W42238  43.781  44.966   1.868
69979W        W42239  26.461  27.702  14.088
69980W        W42240  12.597  24.264  12.976
69981W        W42241  27.943  37.893   0.560
69982W        W42242  25.158  13.613  12.546
69983W        W42243  38.823  40.214  11.119
69984W        W42244  40.648  34.950   5.121
69985W        W42245  26.730  13.711   3.853
69986W        W42246  36.363  24.418  11.051
69987W        W42247  40.526  22.040   0.181
69988W        W42248  12.844   0.673  13.128
69989W        W42249  30.908  42.952   3.611
69990W        W42250  25.390  23.714  10.303
69991W        W42251   9.908  23.242   2.898
69992W        W42252   8.958  44.730   1.824
69993W        W42253  19.310  36.264  13.264
69994W        W42254   1.438  14.389   3.170
69995W        W42255   1.700   0.332   1.307
69996W        W42256  25.260  42.942  13.882
69997W        W42257   5.804   3.510  13.370
69998W        W42258  31.100  34.120  12.005
69999W        W42259   5.361  28.961  12.473
70000W        W42260  44.528  44.693   0.096
70001W        W42261   4.796  41.581  12.982
70002W        W42262  13.321  44.969  10.670
70003W        W42263  27.470   5.431   0.341
70004W        W42264   9.572  26.842   2.189
70005W        W42265  42.963   9.244  14.029
70006W        W42266  38.553  10.240  12.354
70007W        W42267  19.655   9.183  13.558
70008W        W42268   5.884  38.999   2.363
70009W        W42269  15.305  23.189  11.636
70010W        W42270  23.419   1.719  11.953
70011W        W42271   1.481  33.540  13.436
70012W        W42272  32.930  44.783  13.951
70013W        W42273  11.217   8.727   2.623
70014W        W42274  35.411   1.289  11.376
70015W        W42275  22.023   2.718  10.866
70016W        W42276   4.314  16.095   4.074
70017W        W42277  17.747   6.277   5.103
70018W        W42278  39.010  42.022  13.308
70019W        W42279  41.440  20.504   2.682
70020W        W42280  19.466  22.611   3.035
70021W        W42281   4.741  27.388  13.030
70022W        W42282  39.890  15.898  10.718
70023W        W42283   3.265  25.919   2.713
70024W        W42284  22.611  27.691   4.630
70025W        W42285  35.062  19.728  10.211
70026W        W42286   6.749  24.967   1.228
70027W        W42287  33.962  35.108   4.519
70028W        W42288  35.397  37.747   4.246
70029W        W42289  29.692  12.225   1.815
70030W        W42290  15.557   1.349   0.731
70031W        W42291   7.889  15.760  14.079
70032W        W42292  37.336  14.181  13.573
70033W        W42293   3.563  18.730   5.063
70034W        W42294  15.776   1.744   0.449
70035W        W42295  33.413  39.542   3.109
70036W        W42296  26.983   4.367   2.316
70037W        W42297  10.214  18.266  14.477
70038W        W42298  33.023  33.570   1.248
70039W        W42299  24.934   6.373   2.930
70040W        W42300  23.002   2.665  11.160
70041W        W42301  30.082   7.124  13.344
70042W        W42302  10.663  17.505  13.893
70043W        W42303  37.891  20.933  14.092
70044W        W42304  43.711  30.107  14.010
70045W        W42305  43.343  19.873  13.015
70046W        W42306   7.191  19.550   4.090
70047W        W42307   8.310   3.195   1.649
70048W        W42308  26.119  27.145   3.833
70049W        W42309   4.399  27.800   3.636
70050W        W42310   0.814  39.213  13.717
70051W        W42311   2.281  38.564  14.201
70052W        W42312  44.557  10.812  12.577
70053W        W42313  13.075  39.481   4.570
70054W        W42314  31.673   7.333  11.005
70055W        W42315  20.075  33.387   1.224
70056W        W42316  25.073  20.023  11.647
70057W        W42317  40.943  22.103   3.246
70058W        W42318  13.831  11.110   0.526
70059W        W42319   7.190  20.645  14.299
70060W        W42320  19.622  21.185  13.888
70061W        W42321  32.679  42.742  14.977
70062W        W42322   6.771   3.086   4.910
70063W        W42323  36.467  36.335  14.430
70064W        W42324  42.355  31.502   4.144
70065W        W42325  17.627  14.121   0.071
70066W        W42326  18.665  13.799   0.426
70067W        W42327   6.414   4.322  11.667
70068W        W42328  33.628  15.595  11.534
70069W        W42329  10.583  34.947  13.618
70070W        W42330  29.427  40.098  13.027
70071W        W42331  37.467   0.924   2.813
70072W        W42332  25.756   9.610   2.619
70073W        W42333  22.463  42.064   0.080
70074W        W42334  24.550   8.234   1.043
70075W        W42335  27.161  38.779   3.678
70076W        W42336  14.297  20.272   2.041
70077W        W42337  43.389  26.798   4.762
70078W        W42338  19.702  29.526  14.391
70079W        W42339  44.529  31.805  13.332
70080W        W42340  20.612  18.827   5.128
70081W        W42341  16.615   4.931   4.276
70082W        W42342  35.565   9.359   4.228
70083W        W42343  14.850   1.261  14.804
70084W        W42344  40.288  18.281   0.658
70085W        W42345  40.508  34.874  14.467
70086W        W42346   6.219  13.136   1.131
70087W        W42347  17.251  25.499   3.590
70088W        W42348   0.909  31.147   3.117
70089W        W42349   0.479  11.619   1.039
70090W        W42350   7.224  18.707   0.559
70091W        W42351  35.944  10.458   3.883
70092W        W42352   8.785  13.739   3.884
70093W        W42353  23.084  41.559   3.044
70094W        W42354   7.703  34.492  13.442
70095W        W42355  42.812  12.713   0.526
70096W        W42356  12.317  19.753  11.589
70097W        W42357   9.625  17.667  13.846
70098W        W42358   0.682  21.216   3.629
70099W        W42359   7.148  30.181  14.032
70100W        W42360   9.363  20.031  13.876
70101W        W42361  19.225  23.984   1.669
70102W        W42362  29.290  37.368  12.036
70103W        W42363  28.721  16.751   2.463
70104W        W42364  11.019   1.345   3.595
70105W        W42365   4.420  36.139  11.999
70106W        W42366  21.793  31.681  11.607
70107W        W42367  37.534   1.688   2.413
70108W        W42368  17.997  13.183  11.185
70109W        W42369  19.087  21.804   0.914
70110W        W42370  19.607   4.881  12.452
70111W        W42371  43.438  24.990  14.824
70112W        W42372  10.940  42.013  14.496
70113W        W42373  29.985  43.611  14.946
70114W        W42374  14.513   4.368   0.698
70115W        W42375  17.659  32.109   2.818
70116W        W42376  27.981  32.742  11.008
70117W        W42377  33.614  39.687   1.720
70118W        W42378  34.367  26.856  14.429
70119W        W42379   3.406  36.383  12.652
70120W        W42380   9.626  40.926  10.848
70121W        W42381  20.078  16.359   1.434
70122W        W42382   1.682   3.314  11.130
70123W        W42383  30.694   6.695   3.281
70124W        W42384  24.041  22.699  11.623
70125W        W42385  22.109  29.690  13.027
70126W        W42386   9.784  43.891   0.729
70127W        W42387  41.844   8.681   1.463
70128W        W42388  13.054  18.040  12.898
70129W        W42389  23.660  13.585  14.835
70130W        W42390  30.434  22.438  14.718
70131W        W42391   3.376   8.282   2.975
70132W        W42392  39.559  26.983   0.184
70133W        W42393  25.881  20.990   3.717
70134W        W42394  41.768  41.096   1.673
70135W        W42395  12.365  19.044   1.295
70136W        W42396  11.910  11.879   1.776
70137W        W42397   2.157  11.069  10.399
70138W        W42398  39.064  25.816  11.582
70139W        W42399  27.373  26.589  14.372
70140W        W42400  25.228  23.566  11.846
70141W        W42401  35.152  32.959  14.861
70142W        W42402   5.880  44.830   0.470
70143W        W42403  36.097  21.038   3.334
70144W        W42404  22.700  19.904   1.538
70145W        W42405  29.481  44.216  12.145
70146W        W42406   1.818  31.788  11.108
70147W        W42407   1.351  36.948  10.530
70148W        W42408  20.302   2.326   1.937
70149W        W42409  34.034  20.529   1.881
70150W        W42410  42.462  16.649  11.515
70151W        W42411  18.566   8.352   5.048
70152W        W42412  41.988  41.838  11.232
70153W        W42413  18.604  34.748   5.157
70154W        W42414  14.195  39.514   2.329
70155W        W42415  37.850  28.386  12.916
70156W        W42416  43.735  31.684  13.809
70157W        W42417  12.973  27.785  10.641
70158W        W42418   5.465  17.630  11.448
70159W        W42419  44.459  33.998   0.799
70160W        W42420   9.798  31.895  14.982
70161W        W42421   2.918  13.123   4.990
70162W        W42422  40.600  38.510   0.135
70163W        W42423   7.283  12.837   1.263
70164W        W42424  21.653  43.773   2.839
70165W        W42425  14.342   5.721   2.811
70166W        W42426  41.550  32.030   0.649
70167W        W42427  33.283  27.521  10.976
70168W        W42428  38.616   7.908  11.811
70169W        W42429  43.475  29.803  11.763
70170W        W42430  40.753   7.780   1.791
70171W        W42431  27.136  41.386  10.067
70172W        W42432  36.805  28.167   4.363
70173W        W42433  22.923  23.949   3.814
70174W        W42434  38.603  35.510   1.273
70175W        W42435  41.301  12.619  11.144
70176W        W42436  42.274  33.520  14.393
70177W        W42437  23.658  35.912   2.336
70178W        W42438  26.630  30.079  13.748
70179W        W42439  12.856  33.611  14.878
70180W        W42440   1.388  31.876  11.993
70181W        W42441  18.538  27.005   4.104
70182W        W42442  38.027   8.406   0.909
70183W        W42443  39.676   9.785   4.979
70184W        W42444  44.961  28.984   0.269
70185W        W42445  11.185  12.383   1.665
70186W        W42446   1.578  26.229  14.539
70187W        W42447   2.178   5.173  11.300
70188W        W42448  25.595   2.748  13.083
70189W        W42449  44.066  14.322   3.699
70190W        W42450  17.611   8.604  10.228
70191W        W42451  20.529  34.472   3.491
70192W        W42452  31.846   4.175  12.665
70193W        W42453  22.663   6.880   3.901
70194W        W42454   1.377   1.753  11.356
70195W        W42455  16.161  23.200  14.977
70196W        W42456  17.104  31.579  14.770
70197W        W42457   4.394  37.337   3.210
70198W        W42458  23.577  11.282   2.475
70199W        W42459  44.247  23.666   3.249
70200W        W42460  23.284  18.756   3.110
70201W        W42461  39.728  38.638   1.794
70202W        W42462  19.100  17.321   0.857
70203W        W42463  17.198   6.260  12.512
70204W        W42464  22.433   3.917   0.928
70205W        W42465   1.675  39.879  11.418
70206W        W42466  20.557  43.283   0.038
70207W        W42467   0.402  26.972  14.106
70208W        W42468   3.809  27.481  11.086
70209W        W42469  23.230  13.115  13.988
70210W        W42470   3.199  20.772   2.112
70211W        W42471  26.705   2.282   5.083
70212W        W42472  37.306  14.838  11.289
70213W        W42473   6.144  17.211   1.026
70214W        W42474  29.346   8.747  11.614
70215W        W42475  17.102  11.758   1.305
70216W        W42476  30.684  21.986  12.367
70217W        W42477  19.935  38.995   2.194
70218W        W42478   8.177   1.610   3.586
70219W        W42479  24.514  21.288  14.909
70220W        W42480   3.831  11.057  12.128
70221W        W42481  13.194  29.069   4.812
70222W        W42482  29.445  36.313   1.842
70223W        W42483  13.813  14.618   4.192
70224W        W42484   2.254  40.996   3.311
70225W        W42485  15.192  41.925  12.744
70226W        W42486  19.109   8.820   0.775
70227W        W42487  12.751   5.769   2.905
70228W        W42488  20.259  43.796  11.708
70229W        W42489  16.878  42.415   1.342
70230W        W42490   5.006  28.544   9.363
70231W        W42491  31.714   7.646   0.655
70232W        W42492  39.799  26.123   3.996
70233W        W42493  25.244   9.327  13.516
70234W        W42494   8.645  14.759  12.446
70235W        W42495  43.563  10.297  14.104
70236W        W42496   7.118  32.417   1.943
70237W        W42497   8.451  41.076  12.297
70238W        W42498  35.870  20.483   5.115
70239W        W42499  23.937  14.144   3.589
70240W        W42500   6.716   5.858   1.371
70241W        W42501  26.922  25.563   3.768
70242W        W42502  34.254  21.740  12.969
70243W        W42503  14.157  26.009  10.413
70244W        W42504  13.500  36.317   0.741
70245W        W42505  17.743  11.647  12.413
70246W        W42506  15.229  15.289   1.877
70247W        W42507  27.008   2.720   1.265
70248W        W42508  44.126  16.898   0.988
70249W        W42509  35.677  20.797   4.768
70250W        W42510  36.486  14.657  13.603
70251W        W42511   5.611   2.938   1.225
70252W        W42512  11.649  11.593   5.073
70253W        W42513  16.544  17.946   0.874
70254W        W42514  22.282  23.748  12.985
70255W        W42515  10.861   7.232  11.418
70256W        W42516  12.879  22.244  12.888
70257W        W42517  27.843  27.061   0.905
70258W        W42518  39.402  31.569  10.651
70259W        W42519  30.647  29.297  11.393
70260W        W42520  14.218  16.827   2.766
70261W        W42521  37.355  19.586  13.698
70262W        W42522  15.690   9.534   2.020
70263W        W42523  35.152  40.001  14.644
70264W        W42524   1.511   6.223   3.325
70265W        W42525  35.514  14.401   3.308
70266W        W42526  34.407   5.838  10.767
70267W        W42527  18.164  22.765   3.444
70268W        W42528  11.237   2.960   0.528
70269W        W42529  33.344  29.629   4.693
70270W        W42530  34.347  10.056  12.509
70271W        W42531  24.950  28.588   4.412
70272W        W42532  31.827   7.927   3.105
70273W        W42533  21.446  35.514   4.977
70274W        W42534  38.824  12.883  13.542
70275W        W42535  14.142  44.291   1.249
70276W        W42536  21.452  18.845   1.727
70277W        W42537   8.891  22.463   2.185
70278W        W42538  10.322   0.471  11.934
70279W        W42539   7.917  23.761  13.984
70280W        W42540  25.990   5.444  12.460
70281W        W42541  31.053  27.630  12.011
70282W        W42542  42.480   8.273   2.536
70283W        W42543   0.423   8.634  11.160
70284W        W42544  37.517   2.914   1.638
70285W        W42545  32.145  29.634  14.744
70286W        W42546   0.214   8.336  11.590
70287W        W42547   1.176  22.161  12.601
70288W        W42548  32.938   0.361   0.349
70289W        W42549  36.305  24.170   4.034
70290W        W42550   9.886   1.741   1.400
70291W        W42551  41.536  35.217  10.810
70292W        W42552  20.267  30.002  14.844
70293W        W42553  38.286   9.771  12.482
70294W        W42554  11.959  30.039   0.682
70295W        W42555  31.710  38.818   3.291
70296W        W42556  23.231  12.281  11.437
70297W        W42557   8.609  41.545   1.270
70298W        W42558  15.025   2.252  11.517
70299W        W42559  27.997  20.733   0.770
70300W        W42560  27.562  33.067   2.805
70301W        W42561  31.199  24.320  11.087
70302W        W42562  26.345  24.819   1.356
70303W        W42563  38.575  19.037  10.568
70304W        W42564   8.368  13.257  13.364
70305W        W42565  29.530  40.440  11.844
70306W        W42566  34.047  27.650  14.035
70307W        W42567   9.744  25.631  12.066
70308W        W42568  10.732  18.231  14.045
70309W        W42569  32.685   2.997  13.955
70310W        W42570  37.360  21.024  10.605
70311W        W42571   7.546  34.315  10.315
70312W        W42572  10.274  19.119   1.795
70313W        W42573  41.516  18.814   0.333
70314W        W42574  44.973  37.540   1.496
70315W        W42575   6.279  35.053   4.585
70316W        W42576  14.468   4.492   3.629
70317W        W42577  13.322  22.176   1.698
70318W        W42578  24.902  22.094   1.415
70319W        W42579   5.649   4.299  13.745
70320W        W42580  36.032  36.937   2.870
70321W        W42581  37.128   9.432   2.347
70322W        W42582  29.586  43.775   0.223
70323W        W42583  20.080  40.993   3.651
70324W        W42584   3.907  42.088   4.148
70325W        W42585  43.008  18.139   3.122
70326W        W42586  17.807  37.956   3.907
70327W        W42587   9.354  44.754  12.797
70328W        W42588  29.547  18.284   3.761
70329W        W42589  12.887   8.421  10.741
70330W        W42590  15.335  24.212   0.483
70331W        W42591   0.526  17.842   2.819
70332W        W42592  11.189  26.196  14.004
70333W        W42593  26.079  34.172  13.429
70334W        W42594  42.165  15.807  14.519
70335W        W42595  25.502   8.536  14.143
70336W        W42596  21.743   2.422  12.444
70337W        W42597  43.795  28.128  14.358
70338W        W42598  28.027  22.142  10.161
70339W        W42599   6.690  38.824  12.399
70340W        W42600  24.972   3.209   5.013
70341W        W42601  17.219   1.194  12.558
70342W        W42602   3.474   8.948   4.222
70343W        W42603  31.315  17.389   0.636
70344W        W42604  22.733  19.273  10.560
70345W        W42605  37.990  31.654  12.941
70346W        W42606  15.438  34.447   0.887
70347W        W42607  21.596  34.522  13.289
70348W        W42608  35.110  34.114  13.405
70349W        W42609  33.163  20.666   2.752
70350W        W42610  12.186   6.389  14.055
70351W        W42611   0.333  11.036  10.704
70352W        W42612  17.171   9.573   2.684
70353W        W42613  25.715   3.237  11.928
70354W        W42614  33.942  35.924  12.002
70355W        W42615   3.691  29.021   4.252
70356W        W42616  24.967  28.738  11.975
70357W        W42617  24.127  19.675  10.634
70358W        W42618  12.774   7.397  11.575
70359W        W42619  35.602  17.299   3.198
70360W        W42620  37.628   6.989  14.409
70361W        W42621   1.882  13.529  14.381
70362W        W42622  21.116   0.547  14.530
70363W        W42623   7.829   0.240  12.009
70364W        W42624   3.276  44.832  14.507
70365W        W42625  34.836  14.530   3.649
70366W        W42626  10.238  13.717  12.300
70367W        W42627  11.200  17.334  13.971
70368W        W42628  21.273   0.666  10.404
70369W        W42629  35.957  19.065   0.271
70370W        W42630  39.973  28.004  11.169
70371W        W42631  14.994   4.861  12.381
70372W        W42632  25.194  12.831   3.656
70373W        W42633   2.324  16.777   4.077
70374W        W42634   8.216  38.320   4.577
70375W        W42635  10.482  35.085   4.937
70376W        W42636  28.694  40.893  13.772
70377W        W42637   8.748   8.787   3.866
70378W        W42638  43.810  37.110  13.888
70379W        W42639  22.216   7.440   2.860
70380W        W42640  25.858  39.513  12.582
70381W        W42641  10.148  41.272   0.370
70382W        W42642  25.022  11.073  12.418
70383W        W42643  11.059  41.972  10.667
70384W        W42644  19.068   7.950   1.069
70385W        W42645  10.409   2.352  11.502
70386W        W42646   5.491  16.250  12.061
70387W        W42647  38.110  40.089  13.593
70388W        W42648   6.016  34.337   3.421
70389W        W42649  24.670   7.473  14.936
70390W        W42650  13.235  24.237  11.240
70391W        W42651   1.859  35.353  12.567
70392W        W42652  38.533  18.381  11.011
70393W        W42653  36.601  14.241  11.621
70394W        W42654  41.537  42.467  13.520
70395W        W42655  40.109  21.601  13.427
70396W        W42656  23.194  37.820  11.233
70397W        W42657  19.169  30.621  10.822
70398W        W42658  23.597  15.790   0.461
70399W        W42659  24.070  11.129   1.706
70400W        W42660  13.357  25.916   2.348
70401W        W42661  27.577  16.348  10.423
70402W        W42662  22.624  34.331   0.882
70403W        W42663  14.147  42.375  10.887
70404W        W42664  37.880  39.704  14.034
70405W        W42665  11.273  30.234  13.388
70406W        W42666  40.529  10.906   1.934
70407W        W42667  33.532  20.376  11.953
70408W        W42668   9.905   4.481  14.518
70409W        W42669   6.215  20.289  13.051
70410W        W42670  35.070  30.915  12.402
70411W        W42671  16.169   5.425  10.565
70412W        W42672   5.718  20.039  11.920
70413W        W42673  26.194  24.062   2.788
70414W        W42674   3.221  19.515  12.498
70415W        W42675  43.434   4.004  13.394
70416W        W42676  21.458  16.003  14.239
70417W        W42677  32.915   3.621   5.049
70418W        W42678  27.771  25.251  11.275
70419W        W42679  25.459  26.638   4.964
70420W        W42680  28.431  17.597   0.138
70421W        W42681  29.976  10.487   0.263
70422W        W42682  41.433   6.144  10.602
70423W        W42683   7.429  39.950   3.246
70424W        W42684   1.466  15.082   1.517
70425W        W42685  38.873   9.794   0.883
70426W        W42686  41.009  17.595  13.611
70427W        W42687  24.169  19.012   5.212
70428W        W42688  16.074  29.188   1.883
70429W        W42689  23.571   5.200   2.241
70430W        W42690   4.460  27.551   9.851
70431W        W42691  11.179  37.519  14.983
70432W        W42692   0.763   2.362  10.937
70433W        W42693  17.190   6.319   0.283
70434W        W42694  39.419   5.328   2.570
70435W        W42695  35.591   8.892   3.146
70436W        W42696   3.919   1.891  12.594
70437W        W42697  15.896  40.517   1.123
70438W        W42698  40.727   5.559   9.867
70439W        W42699  11.828  35.524  14.050
70440W        W42700  42.432   3.579  14.363
70441W        W42701  28.462  44.526   0.012
70442W        W42702   7.808  28.280  12.817
70443W        W42703  25.416   5.711  12.979
70444W        W42704  38.963  34.953  11.321
70445W        W42705   5.507   7.370   3.797
70446W        W42706   6.705  10.766   3.444
70447W        W42707  43.495   6.316  11.655
70448W        W42708  33.987  32.097   3.288
70449W        W42709   6.148  39.081   1.513
70450W        W42710   6.470  26.946  11.669
70451W        W42711   2.252  39.155  12.123
70452W        W42712   5.809  43.073   1.469
70453W        W42713  34.060  32.497   4.349
70454W        W42714  30.095  39.387  12.982
70455W        W42715  37.065  10.196  13.058
70456W        W42716  28.835   0.886  10.958
70457W        W42717  42.289  25.376  11.910
70458W        W42718  41.269  35.062  14.280
70459W        W42719  34.646  17.713  13.496
70460W        W42720  21.045  13.383   1.262
70461W        W42721  33.529  39.386   4.406
70462W        W42722  32.629   0.278   4.752
70463W        W42723  11.155  10.431  12.296
70464W        W42724  26.039  20.058   1.872
70465W        W42725  28.971  14.904   4.501
70466W        W42726  34.793   0.784  13.272
70467W        W42727  17.927  40.839   2.650
70468W        W42728  12.417  18.764  14.465
70469W        W42729  35.612  23.244   2.767
70470W        W42730   2.155  29.147   2.981
70471W        W42731  41.759  14.171   3.134
70472W        W42732  17.818  29.717  11.234
70473W        W42733   3.917   0.166  14.325
70474W        W42734  11.286   2.216  11.265
70475W        W42735  41.008   2.411   3.805
70476W        W42736  33.465  40.013   0.498
70477W        W42737  15.513  40.243  11.647
70478W        W42738  14.492  30.062   4.162
70479W        W42739  21.550   4.865   0.752
70480W        W42740  31.511  34.114  12.973
70481W        W42741   0.944  18.908  12.437
70482W        W42742   3.665  18.110   2.531
70483W        W42743  21.773  30.327   4.498
70484W        W42744   9.955  12.593   3.617
70485W        W42745   2.435  24.240   1.771
70486W        W42746   5.394  25.489  14.982
70487W        W42747  44.505  37.173  11.602
70488W        W42748  13.684  32.923   0.494
70489W        W42749  11.477   2.434   4.109
70490W        W42750  12.644  44.409   1.629
70491W        W42751   6.227  17.247  14.890
70492W        W42752  19.542  29.906   3.314
70493W        W42753  41.532  44.296   2.564
70494W        W42754   0.304  31.133  14.499
70495W        W42755  38.843  18.465   2.836
70496W        W42756  21.287   7.233   4.609
70497W        W42757  23.587  22.543   0.438
70498W        W42758   2.558  36.078   4.570
70499W        W42759   0.840  14.271   0.397
70500W        W42760  13.342   4.730  10.551
70501W        W42761  19.955  30.687  12.767
70502W        W42762  34.373   5.287  13.543
70503W        W42763  28.557   6.288   3.656
70504W        W42764  43.575  25.175   3.322
70505W        W42765  38.672  14.608  14.001
70506W        W42766  41.933  11.077   0.982
70507W        W42767  35.293  25.455   0.273
70508W        W42768  31.622  26.994   0.894
70509W        W42769  19.737  25.524   4.543
70510W        W42770  40.946  10.397   3.624
70511W        W42771  26.442  32.575  13.896
70512W        W42772  12.372  42.782  10.559
70513W        W42773  18.785  34.860   2.836
70514W        W42774  28.240   0.916   0.094
70515W        W42775   9.172  17.673   1.145
70516W        W42776   4.900  30.510  11.855
70517W        W42777  19.849  43.092  11.721
70518W        W42778  10.688  33.608   3.163
70519W        W42779   1.609  40.928   1.184
70520W        W42780  31.020   6.908  10.661
70521W        W42781  18.802   1.846   0.564
70522W        W42782  13.859  40.933   1.904
70523W        W42783  35.300   2.182  11.213
70524W        W42784   4.396   0.966   0.006
70525W        W42785  10.723  44.103  14.258
70526W        W42786  42.829  18.349  13.696
70527W        W42787  22.546  38.137  13.980
70528W        W42788  40.510  44.852  11.609
70529W        W42789   8.456  42.972  11.197
70530W        W42790  20.220   9.094  13.429
70531W        W42791  42.814  38.077   0.785
70532W        W42792  31.232  38.673   3.220
70533W        W42793  37.845   5.731  10.490
70534W        W42794   2.835   1.304  13.978
70535W        W42795  16.187  39.281   3.616
70536W        W42796  17.758  34.293  12.079
70537W        W42797  35.818   8.698  10.949
70538W        W42798  36.189   6.204   3.173
70539W        W42799   2.772  41.310   1.385
70540W        W42800  35.842   8.605   3.907
70541W        W42801   4.408  29.047  12.092
70542W        W42802  12.084  43.934   2.317
70543W        W42803  21.439  18.077   0.572
70544W        W42804   5.924  41.887   3.200
70545W        W42805  22.607  25.896   0.379
70546W        W42806  10.243  37.999   0.787
70547W        W42807   4.036  37.876  13.987
70548W        W42808  30.849   7.226   0.278
70549W        W42809  22.434   0.122   2.951
70550W        W42810   3.982  15.429   0.422
70551W        W42811   6.746  30.497   2.726
70552W        W42812  21.335  38.628   3.134
70553W        W42813   1.611  38.726   1.739
70554W        W42814   6.081  28.660   9.823
70555W        W42815  30.950   9.000   1.869
70556W        W42816  17.255  17.912  12.982
70557W        W42817  39.747  32.401  14.204
70558W        W42818  38.068  37.268   3.220
70559W        W42819  28.405  44.331   4.486
70560W        W42820   2.738  30.583  11.630
70561W        W42821   8.769  24.684  13.819
70562W        W42822  44.301  12.821   0.886
70563W        W42823  24.191  37.477   2.333
70564W        W42824  42.323  29.802  14.322
70565W        W42825  27.420   8.697  11.573
70566W        W42826  25.056  41.229  11.630
70567W        W42827   3.225  17.164   2.742
70568W        W42828  42.919   8.329  14.507
70569W        W42829   3.836  19.739   3.185
70570W        W42830  42.190  39.004  14.101
70571W        W42831  35.202  21.265   9.695
70572W        W42832  34.013  30.034   2.351
70573W        W42833  30.240  40.181  14.468
70574W        W42834  23.915   4.887  10.683
70575W        W42835  23.690  14.365  11.481
70576W        W42836  27.339  29.738  11.508
70577W        W42837  34.104  21.251  13.663
70578W        W42838  35.523  44.027   3.807
70579W        W42839   1.790  37.594  14.786
70580W        W42840   2.434  27.707  13.012
70581W        W42841  16.047  32.532   3.702
70582W        W42842  20.487  39.827   1.346
70583W        W42843  33.990  24.961  14.508
70584W        W42844  17.231  10.743  10.856
70585W        W42845   2.347   7.839  11.438
70586W        W42846  11.828   7.464  14.209
70587W        W42847   6.758   5.726   0.447
70588W        W42848  35.034  39.458  11.436
70589W        W42849  15.560  26.588   2.275
70590W        W42850  44.727  35.522   4.736
70591W        W42851   6.798   2.294   2.284
70592W        W42852  10.681   9.723  11.788
70593W        W42853  16.813   9.660   3.629
70594W        W42854  23.185  40.802  13.814
70595W        W42855  17.023   6.746   9.731
70596W        W42856  30.482  22.342   3.220
70597W        W42857   5.465  43.551  11.994
70598W        W42858   2.231  36.129   1.273
70599W        W42859  13.843  39.833   4.813
70600W        W42860  21.085   5.750  13.768
70601W        W42861  34.340  41.131   2.659
70602W        W42862  20.661   1.814  12.037
70603W        W42863   8.794   0.916  11.212
70604W        W42864  22.187  36.376  11.966
70605W        W42865  40.759  17.571   0.090
70606W        W42866  44.919  35.185  14.496
70607W        W42867  34.409  20.615   1.069
70608W        W42868   9.898  11.755  12.965
70609W        W42869  43.825  29.851  12.688
70610W        W42870  13.449  20.774  12.505
70611W        W42871   3.377   8.820  11.910
70612W        W42872  17.041  38.523  14.029
70613W        W42873  15.826  25.184  12.447
70614W        W42874  20.586   4.879   1.189
70615W        W42875  38.206   0.950   1.358
70616W        W42876   7.807  14.077   1.155
70617W        W42877  41.338   5.280  13.792
70618W        W42878  30.674  34.643  10.711
70619W        W42879  35.794  11.755  13.373
70620W        W42880  23.067  20.753  14.202
70621W        W42881  14.391  24.830  11.172
70622W        W42882  11.457  23.260   3.152
70623W        W42883  33.190  11.657   1.327
70624W        W42884  30.339  13.673   2.434
70625W        W42885  25.821  20.183  14.483
70626W        W42886  10.519  26.202   0.902
70627W        W42887  20.802   0.802   0.503
70628W        W42888  29.489  26.702   0.345
70629W        W42889  39.504  29.441   2.264
70630W        W42890   3.426   3.287  10.477
70631W        W42891  10.815  18.235  12.399
70632W        W42892  20.609  28.886   0.803
70633W        W42893  14.274  29.474  14.804
70634W        W42894  24.544  39.545   0.372
70635W        W42895   3.455  37.905  12.135
70636W        W42896  22.491  33.123   2.124
70637W        W42897  11.440   0.802  11.392
70638W        W42898  13.167  22.683  12.970
70639W        W42899   7.288   7.781  14.939
70640W        W42900  12.218  17.602   4.908
70641W        W42901  37.933  42.407   0.762
70642W        W42902  18.400  20.542   4.507
70643W        W42903  34.000  35.385  12.882
70644W        W42904  10.672  18.229  12.996
70645W        W42905  29.358  32.414   4.683
70646W        W42906  28.719   9.171  14.832
70647W        W42907   9.333  35.471  11.912
70648W        W42908   8.714   7.846   3.413
70649W        W42909  21.008  40.489   5.006
70650W        W42910  27.138  11.888   2.286
70651W        W42911  44.515   4.799  14.474
70652W        W42912   6.115   9.142  13.541
70653W        W42913  13.784  32.574  11.283
70654W        W42914  34.687  36.836   0.446
70655W        W42915  24.444  37.577  10.303
70656W        W42916  23.652  20.570  14.002
70657W        W42917  15.029   7.379   4.202
70658W        W42918   7.602   8.891   4.104
70659W        W42919  42.857  18.061  12.845
70660W        W42920  32.203  38.891   3.423
70661W        W42921  11.713   6.426   0.304
70662W        W42922  23.784  36.631   4.159
70663W        W42923  12.948  11.496  12.949
70664W        W42924  18.633  20.174   1.971
70665W        W42925  37.748   2.633  12.798
70666W        W42926  21.366  38.145   2.453
70667W        W42927   4.727  15.330  11.235
70668W        W42928  41.009  16.551  13.401
70669W        W42929  17.625  31.944   0.277
70670W        W42930   5.903  40.232  12.098
70671W        W42931  23.118  18.516  10.211
70672W        W42932  16.883  25.441  10.944
70673W        W42933  28.924  24.785  12.087
70674W        W42934  34.750   3.404   3.939
70675W        W42935  15.086  26.958  13.829
70676W        W42936  42.378  20.150  11.718
70677W        W42937  16.791   1.484   4.712
70678W        W42938   7.241  22.214  14.336
70679W        W42939  37.348   1.821  12.449
70680W        W42940  16.042  31.021  14.078
70681W        W42941  28.873   0.632   1.266
70682W        W42942  36.398  20.050  11.415
70683W        W42943   2.165  38.410   0.813
70684W        W42944  13.660  34.368  14.773
70685W        W42945  31.142  34.314  13.848
70686W        W42946  18.564  13.227   1.190
70687W        W42947   6.336  21.233  10.982
70688W        W42948  44.573   1.249   2.411
70689W        W42949  25.593  28.616   0.436
70690W        W42950  26.424  25.621   2.551
70691W        W42951   5.525  10.587  13.510
70692W        W42952  27.977  16.788  14.512
70693W        W42953  38.461  19.134   2.871
70694W        W42954   7.395  34.135  12.554
70695W        W42955  43.295  17.088  10.387
70696W        W42956  27.563  41.992  12.021
70697W        W42957  27.306  23.064   1.131
70698W        W42958  40.784   3.857   3.513
70699W        W42959   6.962  19.318  12.152
70700W        W42960  36.093  44.848  12.667
70701W        W42961  15.168  27.570  10.729
70702W        W42962  44.008   4.163   4.571
70703W        W42963   8.087  30.032  13.262
70704W        W42964  28.025   6.276   1.000
70705W        W42965  40.395   8.255  13.400
70706W        W42966  32.927  22.342   0.802
70707W        W42967  41.958  39.053   3.724
70708W        W42968   6.723  28.975   4.622
70709W        W42969  14.382  14.009   2.798
70710W        W42970   1.818   6.512  12.749
70711W        W42971  38.943  30.626   0.883
70712W        W42972  10.787  35.960   2.595
70713W        W42973  12.370   8.693   3.978
70714W        W42974  12.431  10.458  11.114
70715W        W42975  23.838  26.395   5.092
70716W        W42976  31.376  12.242  11.077
70717W        W42977  19.679  11.144   0.950
70718W        W42978  36.911  35.976  14.900
70719W        W42979  10.163  17.073   2.630
70720W        W42980  12.670  30.999   0.809
70721W        W42981  15.623  31.440  14.633
70722W        W42982  30.376   1.285   2.280
70723W        W42983  41.079  36.652   1.206
70724W        W42984  28.246  37.392  14.751
70725W        W42985  10.411  18.832   2.907
70726W        W42986   5.165  33.648  10.312
70727W        W42987  41.566  36.305   2.024
70728W        W42988   1.168  13.260  14.342
70729W        W42989  44.772   0.802   3.753
70730W        W42990  31.004  40.180  11.370
70731W        W42991  26.119   6.479   3.837
70732W        W42992  23.482  11.316  11.663
70733W        W42993  31.620   1.460   0.317
70734W        W42994  13.095  27.635  11.819
70735W        W42995  20.020   2.001   4.300
70736W        W42996  20.291  32.295   1.747
70737W        W42997  20.658  42.323  13.154
70738W        W42998   5.609  19.603  14.521
70739W        W42999  19.128  12.357  14.878
70740W        W43000  40.463  38.129   2.865
70741W        W43001   8.673  17.337   4.062
70742W        W43002  25.804   8.961   3.812
70743W        W43003  18.354  41.021  11.921
70744W        W43004  24.145  25.862   9.842
70745W        W43005  43.952  13.711   2.362
70746W        W43006  37.043  30.895  12.502
70747W        W43007  40.757  17.631   3.267
70748W        W43008   8.786  32.457   4.677
70749W        W43009   4.503  42.727  12.438
70750W        W43010   2.429  35.584   3.725
70751W        W43011  18.728   9.706   2.379
70752W        W43012   6.146  26.063  12.409
70753W        W43013   4.761  15.999   1.859
70754W        W43014  22.889  27.052   3.280
70755W        W43015  40.040  30.153  11.563
70756W        W43016  28.470  38.479   0.903
70757W        W43017   0.201  16.226  11.331
70758W        W43018  32.905  12.250  12.356
70759W        W43019   4.708  25.434   1.393
70760W        W43020  15.275  12.442   3.685
70761W        W43021  39.182  18.125   2.647
70762W        W43022  25.520  24.057   4.381
70763W        W43023   7.299  40.230  10.561
70764W        W43024  26.471  38.022   2.660
70765W        W43025   6.945  28.011   4.570
70766W        W43026  14.735  17.952   5.556
70767W        W43027  24.020  11.421   2.764
70768W        W43028   0.534  19.053   1.912
70769W        W43029   1.772  23.762   1.710
70770W        W43030  16.201  26.754   2.863
70771W        W43031  40.203  19.235  11.228
70772W        W43032   9.759  37.577  13.100
70773W        W43033  36.038  32.630  12.902
70774W        W43034  44.501  35.028  10.743
70775W        W43035   9.454  24.468   4.176
70776W        W43036  16.972  29.646   2.466
70777W        W43037  37.836  20.436   3.051
70778W        W43038  10.594  10.881   4.587
70779W        W43039  40.644  27.965   1.659
70780W        W43040  18.622  39.876  11.778
70781W        W43041  41.871   8.625  10.638
70782W        W43042  17.507  32.574  12.146
70783W        W43043   3.287  18.957   3.169
70784W        W43044  20.214  37.863   0.480
70785W        W43045  38.835   7.620  13.027
70786W        W43046  28.293  20.987  10.211
70787W        W43047  13.415  39.864   0.937
70788W        W43048   9.309  29.160   2.191
70789W        W43049  38.285  11.654   3.231
70790W        W43050  40.022  19.998   0.860
70791W        W43051  28.380  39.040  13.041
70792W        W43052   1.402  43.308   0.669
70793W        W43053  35.523  24.550  10.650
70794W        W43054  15.201  44.837   4.542
70795W        W43055  25.171  17.967   1.389
70796W        W43056  28.142   3.380  10.129
70797W        W43057  15.162  28.925   0.503
70798W        W43058  21.124  13.301  14.777
70799W        W43059  31.141  39.695   1.190
70800W        W43060   9.836  34.123   1.809
70801W        W43061   6.624  40.404  12.289
70802W        W43062  19.661  44.358   2.919
70803W        W43063  39.882   9.597  11.580
70804W        W43064  44.342   3.361   3.925
70805W        W43065  27.715  18.751   1.738
70806W        W43066  43.459  17.372  14.358
70807W        W43067  24.118  42.734   0.902
70808W        W43068  43.338   2.358  11.219
70809W        W43069   3.703  38.993   1.329
70810W        W43070   2.807  18.571  14.008
70811W        W43071  33.193  28.098   1.508
70812W        W43072  39.979  43.079   3.808
70813W        W43073  30.652  20.202  14.393
70814W        W43074  15.219  35.790   2.917
70815W        W43075  13.369  40.839  14.782
70816W        W43076  40.887  30.989   0.334
70817W        W43077  24.987  44.563   3.185
70818W        W43078   4.560  18.108  11.090
70819W        W43079  38.084  17.321  14.347
70820W        W43080  42.296  14.894  14.926
70821W        W43081  31.193  25.988   2.567
70822W        W43082  17.788  31.114   1.636
70823W        W43083  40.286  19.855   2.982
70824W        W43084  11.197  40.107   0.897
70825W        W43085  17.977  12.756   1.081
70826W        W43086  27.709  30.701   3.718
70827W        W43087  36.931   8.213   1.415
70828W        W43088  10.590  42.530  11.595
70829W        W43089  23.535   6.187   2.526
70830W        W43090   6.381  32.959   1.346
70831W        W43091  26.263  21.483  14.976
70832W        W43092   8.281  10.468   3.633
70833W        W43093  42.739  43.433  11.226
70834W        W43094  44.324  37.029  12.495
70835W        W43095  37.505  26.709  12.840
70836W        W43096   6.690  15.052  11.692
70837W        W43097   1.983  29.712   1.498
70838W        W43098   3.254  24.419  11.832
70839W        W43099  21.535   3.824  14.416
70840W        W43100  24.585   4.270  13.644
70841W        W43101  43.427  39.754  10.492
70842W        W43102  24.651  33.463  12.873
70843W        W43103  11.808  44.932  11.839
70844W        W43104   2.744  10.209  13.821
70845W        W43105   2.280   5.954   2.519
70846W        W43106  15.153  40.963  11.589
70847W        W43107  16.350  23.670  11.225
70848W        W43108   0.138  22.137   1.478
70849W        W43109  24.583  37.175  10.704
70850W        W43110  25.061  32.883   0.806
70851W        W43111  16.517  44.438   2.172
70852W        W43112  17.731  42.001  12.984
70853W        W43113  40.966  38.359   4.639
70854W        W43114  21.097  15.342  11.223
70855W        W43115  11.793  26.936   1.554
70856W        W43116  20.615  41.854  14.880
70857W        W43117   1.803  23.913  11.724
70858W        W43118  24.907   7.594  11.017
70859W        W43119  18.584   8.973   4.350
70860W        W43120  44.009  33.914   1.729
70861W        W43121   2.875   1.689   0.947
70862W        W43122  11.668  41.199  12.885
70863W        W43123   1.429  12.790   1.816
70864W        W43124  44.705  42.848  13.854
70865W        W43125   1.432   2.708   0.762
70866W        W43126   9.137  14.701   4.099
70867W        W43127   4.007  31.043  11.182
70868W        W43128  24.164   6.964  13.411
70869W        W43129  23.483   3.917   1.907
70870W        W43130  28.882  32.135   0.354
70871W        W43131   4.002  40.994  10.994
70872W        W43132  40.272  29.076   3.838
70873W        W43133  44.224   9.788   3.228
70874W        W43134  28.540  43.425   3.033
70875W        W43135  26.625  38.094  12.148
70876W        W43136  16.082  31.354  11.942
70877W        W43137  17.978   9.207  11.858
70878W        W43138  28.868  16.620  12.065
70879W        W43139  18.545   7.342   1.737
70880W        W43140  25.934  11.055  14.335
70881W        W43141  19.313  32.356   2.250
70882W        W43142  30.055  37.017   4.736
70883W        W43143  43.425  10.778   4.769
70884W        W43144  14.529  42.328   1.839
70885W        W43145  31.196   8.996   2.345
70886W        W43146  42.581  25.030  14.841
70887W        W43147  30.204  21.858  12.497
70888W        W43148  39.064  11.693  11.593
70889W        W43149  14.754   4.972   2.335
70890W        W43150  18.855   5.757   4.611
70891W        W43151  18.612  21.144   1.472
70892W        W43152  11.279   6.036  13.189
70893W        W43153  31.643  27.728   2.536
70894W        W43154  34.824  35.680   3.700
70895W        W43155  12.142  37.189   3.219
70896W        W43156  22.267  23.827  12.008
70897W        W43157  39.856  23.509  13.733
70898W        W43158  18.187   0.393   2.717
70899W        W43159  12.287  24.615   2.615
70900W        W43160  24.158  31.667  11.919
70901W        W43161  34.490  28.779   2.640
70902W        W43162  30.697  43.822   3.761
70903W        W43163  26.938  28.881  11.102
70904W        W43164  25.985  15.612   5.003
70905W        W43165  19.704  20.600  11.440
70906W        W43166  26.688  11.319   4.872
70907W        W43167  35.779   4.226  12.877
70908W        W43168   5.720   8.359  12.503
70909W        W43169  32.902  11.850  11.979
70910W        W43170  12.451  23.666   3.048
70911W        W43171   4.716  41.521   1.443
70912W        W43172  25.161  31.319  10.985
70913W        W43173  38.949  39.899   3.695
70914W        W43174   7.227  43.057  10.669
70915W        W43175  37.261   4.374  10.835
70916W        W43176   3.539  18.209   1.371
70917W        W43177  23.778   2.224   4.333
70918W        W43178  36.050  25.968   0.827
70919W        W43179  41.568  41.377  11.621
70920W        W43180  16.776  42.571  12.801
70921W        W43181  39.307  25.956   4.176
70922W        W43182  41.818  18.931   3.449
70923W        W43183   6.357  36.439   2.304
70924W        W43184  34.109  26.139   3.178
70925W        W43185  13.093  18.402  13.375
70926W        W43186  28.569  11.606   1.911
70927W        W43187  21.409  23.514  10.630
70928W        W43188  40.097  10.184   0.732
70929W        W43189  40.157  13.114  11.191
70930W        W43190  23.429  15.820  11.349
70931W        W43191  18.855   6.395   1.640
70932W        W43192  31.019  14.238  10.516
70933W        W43193  36.535  44.723  13.886
70934W        W43194   6.134  20.695   2.671
70935W        W43195   3.953  18.535   2.721
70936W        W43196  12.128   1.702   4.205
70937W        W43197  43.823  11.918  11.190
70938W        W43198   3.690  37.929   0.533
70939W        W43199  44.914  19.175  13.485
70940W        W43200  14.526  20.638  13.832
70941W        W43201   1.568  33.014   1.267
70942W        W43202  18.752  36.813   1.265
70943W        W43203  16.328  43.242   2.350
70944W        W43204  39.030   5.111   0.737
70945W        W43205  23.641   4.404  13.518
70946W        W43206  37.541  42.691  14.441
70947W        W43207  27.462  25.069  10.385
70948W        W43208   7.145  31.861   0.841
70949W        W43209  37.472  43.185  14.274
70950W        W43210  28.253  38.322   0.229
70951W        W43211   9.041   4.332   4.102
70952W        W43212  34.787  40.289   4.633
70953W        W43213  33.572  38.061  13.091
70954W        W43214  36.267   4.326   4.146
70955W        W43215   9.609  21.807   2.604
70956W        W43216  30.941  27.223  12.962
70957W        W43217  13.114  20.977   1.283
70958W        W43218   3.953  21.333   1.616
70959W        W43219  19.855  32.504  12.566
70960W        W43220  28.030   6.236   0.491
70961W        W43221  14.968  29.905  11.389
70962W        W43222  34.367  33.512   0.028
70963W        W43223  18.814  35.508  11.526
70964W        W43224  16.669   1.092   3.744
70965W        W43225  26.543  26.431   4.936
70966W        W43226  25.776   7.932  10.745
70967W        W43227  27.174   4.668  10.291
70968W        W43228  11.638  27.058   2.716
70969W        W43229  18.123  31.091   1.034
70970W        W43230   3.514   7.702   4.194
70971W        W43231  23.611  35.314  14.246
70972W        W43232  35.052  37.601  11.113
70973W        W43233   7.629  41.078   4.024
70974W        W43234  43.008  41.836   3.289
70975W        W43235  21.068  17.829   2.856
70976W        W43236  41.011  18.743   0.395
70977W        W43237  34.364  10.768  12.023
70978W        W43238  11.568  16.070  11.633
70979W        W43239  11.598  20.598  12.732
70980W        W43240  21.741  33.353   3.242
70981W        W43241  31.077   2.682   0.325
70982W        W43242  30.960  12.309   4.316
70983W        W43243   7.642  19.093  11.460
70984W        W43244  15.651  16.392  14.879
70985W        W43245  37.083   9.270   3.395
70986W        W43246   6.264   3.314   0.825
70987W        W43247   2.776  24.678  10.750
70988W        W43248  25.210  22.958   3.357
70989W        W43249  30.416  19.512   1.852
70990W        W43250  29.389  32.036   0.332
70991W        W43251  43.937  22.463  12.065
70992W        W43252  35.323   9.326   1.462
70993W        W43253   1.241  20.754  11.744
70994W        W43254   0.473   8.655  12.673
70995W        W43255  35.226   6.201   3.222
70996W        W43256   3.874  32.682   4.141
70997W        W43257  28.094  38.616  13.047
70998W        W43258  17.516  25.067   5.028
70999W        W43259  30.611  42.325   4.830
71000W        W43260  14.315  18.056   5.262
71001W        W43261  21.130  17.810  12.478
71002W        W43262   0.632  15.897   0.440
71003W        W43263  35.062  11.763   3.519
71004W        W43264  12.685  11.160  12.008
71005W        W43265  40.263  27.649  12.045
71006W        W43266  31.449  27.038   4.927
71007W        W43267  26.490  11.379  14.757
71008W        W43268  25.455  27.214  11.707
71009W        W43269  40.900  24.767   4.189
71010W        W43270   2.471  28.669   3.098
71011W        W43271  30.120   7.971  12.701
71012W        W43272   2.973  23.666   4.373
71013W        W43273  10.289  40.098   0.922
71014W        W43274  31.448  10.916  12.082
71015W        W43275   8.196  44.447   2.219
71016W        W43276  40.746  32.475  14.550
71017W        W43277   1.657  12.302  13.607
71018W        W43278   5.404  11.254  12.894
71019W        W43279  43.751  39.267   4.572
71020W        W43280  23.229  36.881   1.279
71021W        W43281  39.335  29.058  10.959
71022W        W43282  27.116  28.494   4.450
71023W        W43283  23.487   7.346  12.786
71024W        W43284  22.177  24.018   1.771
71025W        W43285  36.232  26.507   9.746
71026W        W43286  28.904  17.633   2.803
71027W        W43287   7.436  33.892   0.041
71028W        W43288  38.456  25.752  11.995
71029W        W43289  25.932  38.471  13.496
71030W        W43290  34.705  11.649   1.203
71031W        W43291  11.745  42.974   2.296
71032W        W43292  41.677  43.498   2.298
71033W        W43293  40.469   7.629   4.764
71034W        W43294   7.293  44.400  12.685
71035W        W43295  41.884  41.795   4.894
71036W        W43296  14.088  16.833  13.137
71037W        W43297  28.640  16.774  14.692
71038W        W43298  21.685  44.060   3.695
71039W        W43299  27.614   5.901   5.073
71040W        W43300  20.530  15.513  10.482
71041W        W43301  23.985  19.596   1.082
71042W        W43302  43.384  32.437   0.457
71043W        W43303  11.275  16.757  14.010
71044W        W43304  12.618  22.526   0.825
71045W        W43305  21.259  35.501   0.476
71046W        W43306  14.269   2.447   3.058
71047W        W43307  33.284  38.187  14.514
71048W        W43308  33.963  14.562   3.327
71049W        W43309  37.127  15.616  13.779
71050W        W43310  10.812  12.356  13.575
71051W        W43311  39.447  41.297  11.611
71052W        W43312  44.737  35.093   0.494
71053W        W43313  17.706  38.939   0.346
71054W        W43314   9.886  31.618   4.680
71055W        W43315   3.786  15.905   0.370
71056W        W43316  12.747  31.429   2.980
71057W        W43317  15.779  30.450   0.721
71058W        W43318  16.370  36.474  10.969
71059W        W43319  43.742   7.147  12.425
71060W        W43320  33.884   7.743   1.917
71061W        W43321   4.397  28.077  11.911
71062W        W43322  38.086  37.763   2.402
71063W        W43323  40.528  39.700   4.645
71064W        W43324  38.063  13.713  11.850
71065W        W43325  32.482   0.724   3.371
71066W        W43326  17.797  27.056  11.752
71067W        W43327  19.677  13.535  14.432
71068W        W43328  38.859  36.922   3.222
71069W        W43329  30.001  35.080   3.571
71070W        W43330   7.804   9.791  14.509
71071W        W43331  31.745   4.420   4.604
71072W        W43332  31.900  17.157  13.307
71073W        W43333   9.147  44.503  14.736
71074W        W43334  15.677  24.850  10.355
71075W        W43335  15.883  43.940  14.457
71076W        W43336   7.925  24.926   3.823
71077W        W43337  27.324  15.592  12.661
71078W        W43338  26.009  21.719  14.553
71079W        W43339  30.113  21.065  14.513
71080W        W43340  29.370  42.077   3.522
71081W        W43341  38.291  40.051  14.199
71082W        W43342  15.969   9.752  13.534
71083W        W43343  23.703  40.999  13.007
71084W        W43344  29.923  20.593  11.576
71085W        W43345  23.070   2.455  11.671
71086W        W43346  43.348  15.880  13.980
71087W        W43347   3.403  31.607  12.680
71088W        W43348  25.475   2.036   5.025
71089W        W43349   8.609  21.067   4.165
71090W        W43350  43.442  25.507  14.809
71091W        W43351   6.351  41.049   4.162
71092W        W43352  24.981  32.178  11.564
71093W        W43353  41.761  15.248  10.724
71094W        W43354   8.337  26.171   2.317
71095W        W43355  33.432  30.152   0.320
71096W        W43356  27.689  20.219   1.852
71097W        W43357  36.820  23.471  13.956
71098W        W43358  34.093  36.933  10.719
71099W        W43359  18.105  33.062   2.827
71100W        W43360  32.834   4.231   1.486
71101W        W43361  44.024   5.837  12.243
71102W        W43362  17.782   2.713   3.769
71103W        W43363  18.013   0.491  14.030
71104W        W43364  24.544  20.111  11.189
71105W        W43365  22.557   9.332   2.809
71106W        W43366  12.424  11.615  11.953
71107W        W43367  27.591  41.794  14.325
71108W        W43368  18.233  30.147   3.225
71109W        W43369  17.845  43.777   0.865
71110W        W43370  19.565  25.533  13.005
71111W        W43371  43.822  13.210   2.423
71112W        W43372  32.040  11.710   0.018
71113W        W43373   6.364  31.697  12.522
71114W        W43374  43.040  18.536   4.067
71115W        W43375  17.194   9.852  10.362
71116W        W43376  33.194  24.193   4.996
71117W        W43377  25.198  10.176   2.319
71118W        W43378  40.491  41.952   2.397
71119W        W43379  21.083  37.328  13.410
71120W        W43380  18.174  26.399   3.144
71121W        W43381   7.198  19.454   2.130
71122W        W43382   9.154   3.207   0.838
71123W        W43383  27.048   0.140  11.158
71124W        W43384  23.668  24.265   4.888
71125W        W43385  40.168  40.356  14.183
71126W        W43386   2.049  25.024   9.970
71127W        W43387  23.196   1.477   0.834
71128W        W43388  33.132  22.499   2.458
71129W        W43389  39.225   4.952  13.596
71130W        W43390  22.490   0.101   0.940
71131W        W43391   9.239  33.592  12.021
71132W        W43392  27.744  21.774   2.788
71133W        W43393  16.624  13.912   3.252
71134W        W43394  34.088  40.992  13.697
71135W        W43395  35.342   5.795   1.958
71136W        W43396  30.216   5.271  13.014
71137W        W43397  36.366  32.677  10.783
71138W        W43398  31.367  23.597   1.262
71139W        W43399  36.065   7.264   3.579
71140W        W43400  31.905   4.966  12.910
71141W        W43401   3.804  44.228   3.163
71142W        W43402  22.166   3.458   0.975
71143W        W43403  14.878  42.364   3.294
71144W        W43404  29.116  42.152  13.538
71145W        W43405  10.746  10.186  10.636
71146W        W43406  43.820  25.085   1.289
71147W        W43407  30.625   7.913   1.322
71148W        W43408  30.176  38.413  12.029
71149W        W43409   6.133   2.987  11.520
71150W        W43410   6.387  40.764  14.466
71151W        W43411  11.333  16.873   3.393
71152W        W43412   5.612  29.103   1.956
71153W        W43413  31.667  23.651  11.352
71154W        W43414  21.689  38.439   4.570
71155W        W43415  35.966  39.572   1.685
71156W        W43416   8.816   2.712  12.011
71157W        W43417  10.081  18.952  13.552
71158W        W43418   1.739  43.981  12.467
71159W        W43419  30.786  33.046  13.436
71160W        W43420  17.561  15.669  13.802
71161W        W43421  39.938   8.441  11.061
71162W        W43422   5.966   0.865  11.041
71163W        W43423  40.942  29.282   3.857
71164W        W43424  32.551   8.112   3.603
71165W        W43425  31.538  25.981  10.562
71166W        W43426  17.732  30.233  12.157
71167W        W43427   7.370  39.138  11.109
71168W        W43428   7.495  37.899   0.738
71169W        W43429  42.787  33.445  14.383
71170W        W43430  42.365  19.107  13.299
71171W        W43431  40.029  35.287   1.218
71172W        W43432  29.329  28.304   1.338
71173W        W43433  23.612  19.848   0.143
71174W        W43434  32.101   8.652  13.406
71175W        W43435   2.620  39.025   2.801
71176W        W43436  30.075  10.490   4.619
71177W        W43437  33.006  27.148   0.710
71178W        W43438  24.970   2.029   4.926
71179W        W43439  28.061  14.285  10.521
71180W        W43440  32.328  10.790   2.882
71181W        W43441  42.002  44.100   4.072
71182W        W43442  35.033   7.186  13.424
71183W        W43443   0.297  39.502   4.372
71184W        W43444  26.693   9.144   1.828
71185W        W43445  30.871  26.973   3.312
71186W        W43446  25.909  22.908  11.978
71187W        W43447  32.434   0.464   1.690
71188W        W43448  11.238  43.153  14.939
71189W        W43449  30.898  18.357   2.960
71190W        W43450   1.598  29.428  12.503
71191W        W43451  16.108  15.532  14.354
71192W        W43452  42.341  25.025   1.271
71193W        W43453  18.600  22.755   1.868
71194W        W43454  35.908  18.105   9.861
71195W        W43455  11.558  37.941  10.671
71196W        W43456  40.371  42.835  12.947
71197W        W43457  11.972  30.252   5.040
71198W        W43458  21.116  33.898  11.939
71199W        W43459  42.119   8.323   3.922
71200W        W43460  17.566  35.001   0.183
71201W        W43461   3.450  24.507   0.888
71202W        W43462  26.739  26.986   1.729
71203W        W43463  15.664  29.830  11.970
71204W        W43464  33.638  21.081   5.162
71205W        W43465  31.385  15.154  13.041
71206W        W43466  40.690   9.907  12.806
71207W        W43467  33.015   8.846   3.754
71208W        W43468  18.308   7.478  11.567
71209W        W43469  18.079  29.759   0.302
71210W        W43470   5.038  13.364   1.391
71211W        W43471  38.876  31.126   2.422
71212W        W43472  28.102  14.758   2.946
71213W        W43473  36.066  11.298   0.866
71214W        W43474  14.299  35.125   4.703
71215W        W43475   4.134  20.143   0.623
71216W        W43476   4.249   1.603  11.731
71217W        W43477  11.368  43.380   0.449
71218W        W43478  38.368   8.212  12.141
71219W        W43479  26.142  41.070  13.517
71220W        W43480  24.406   2.924  11.045
71221W        W43481  42.360  20.408   2.605
71222W        W43482   3.452   1.798  14.264
71223W        W43483   7.503   6.214   0.876
71224W        W43484  17.233  21.430  13.524
71225W        W43485  12.225  41.823  13.230
71226W        W43486  15.017  17.127   0.076
71227W        W43487  25.941  35.109  14.405
71228W        W43488  28.952  26.131  11.861
71229W        W43489  34.974  28.926   3.604
71230W        W43490  34.917  26.868   5.095
71231W        W43491   2.014  16.857  14.768
71232W        W43492   4.382  38.712  13.143
71233W        W43493   3.963  42.787   2.914
71234W        W43494  15.633  12.773  12.113
71235W        W43495  28.425  23.198  10.674
71236W        W43496  30.167   3.398  12.187
71237W        W43497  36.878   8.394   2.381
71238W        W43498  39.029  13.144  11.136
71239W        W43499  35.116  23.152  10.700
71240W        W43500  44.957  18.158  13.976
71241W        W43501   4.302  33.535  13.558
71242W        W43502  37.078  34.372   4.130
71243W        W43503   6.434  15.392  11.396
71244W        W43504  44.157   0.030  14.271
71245W        W43505   6.774  37.846   2.021
71246W        W43506  17.598  23.890  13.555
71247W        W43507  35.180  28.474   4.932
71248W        W43508  39.799  23.207   4.563
71249W        W43509   8.348  16.728   4.120
71250W        W43510  30.579  25.552   0.402
71251W        W43511  32.418  12.285   0.371
71252W        W43512   5.731  16.047   4.224
71253W        W43513  43.817  21.178  12.020
71254W        W43514  26.125   9.206   4.978
71255W        W43515  39.017   1.325   3.870
71256W        W43516  18.228  34.055  12.008
71257W        W43517  43.308  15.096   2.874
71258W        W43518  42.510  16.715  12.419
71259W        W43519  38.991  14.704  13.582
71260W        W43520  14.049  12.156  11.598
71261W        W43521  28.746  37.313  14.725
71262W        W43522  41.061   5.357   1.118
71263W        W43523   0.508  23.531   1.361
71264W        W43524  22.157  40.367  12.517
71265W        W43525  11.438  39.449  14.842
71266W        W43526  22.644  34.854  13.458
71267W        W43527   7.722  35.333   0.630
71268W        W43528  11.461  11.693  12.870
71269W        W43529  13.287  40.121   3.208
71270W        W43530   6.189  14.306  10.664
71271W        W43531  13.260  27.066  14.933
71272W        W43532  14.047  11.844   2.257
71273W        W43533  13.548  10.578  11.576
71274W        W43534   9.870  18.749   3.037
71275W        W43535  24.967  25.194   3.296
71276W        W43536   1.582  22.060   3.418
71277W        W43537  16.181  30.657  11.081
71278W        W43538  13.638  16.763   3.406
71279W        W43539  23.096   4.271   1.204
71280W        W43540  15.209  16.857   3.667
71281W        W43541  20.480  16.552   1.722
71282W        W43542  25.477  39.538   0.408
71283W        W43543   9.429  26.360  12.430
71284W        W43544  26.149  26.044  11.961
71285W        W43545  38.326  31.443  14.783
71286W        W43546   7.309  43.196   0.413
71287W        W43547   0.004  37.094  11.887
71288W        W43548  41.773  24.827  14.969
71289W        W43549  27.291  28.537   3.953
71290W        W43550  30.503  39.770  12.210
71291W        W43551  19.323  18.219   0.428
71292W        W43552  29.827  23.997   1.756
71293W        W43553   3.336  13.875   2.864
71294W        W43554  17.232  28.459  13.089
71295W        W43555  33.425  15.523   3.970
71296W        W43556   3.357  33.069  13.610
71297W        W43557  20.062   2.221   3.246
71298W        W43558  31.029  18.139   4.544
71299W        W43559   1.045  32.936   1.255
71300W        W43560   1.672  33.720   3.147
71301W        W43561   1.986  43.726   2.772
71302W        W43562   2.725  22.250   4.760
71303W        W43563  34.963   7.377   2.711
71304W        W43564   7.326  35.509   2.936
71305W        W43565  22.135  10.688  11.983
71306W        W43566  38.854  19.987   3.088
71307W        W43567  20.755   0.939  12.339
71308W        W43568  17.344  40.369  12.000
71309W        W43569  23.464  36.140   4.188
71310W        W43570  20.600  16.068   2.435
71311W        W43571  33.851  35.149   1.919
71312W        W43572  38.493  32.832  14.227
71313W        W43573   4.274  40.342  11.144
71314W        W43574  32.428  20.063  12.196
71315W        W43575   6.211  44.956   0.937
71316W        W43576  19.420  11.787   0.561
71317W        W43577  43.271   2.932   2.130
71318W        W43578  18.286   5.630  10.318
71319W        W43579  37.965  32.482   4.766
71320W        W43580  29.513   4.621  13.157
71321W        W43581  36.519  11.121   2.697
71322W        W43582  12.720   8.569   1.206
71323W        W43583   8.606  22.514   4.792
71324W        W43584  16.662  39.819   0.373
71325W        W43585  25.225  16.768   1.815
71326W        W43586  20.080  28.240  12.203
71327W        W43587  16.448  42.866  12.508
71328W        W43588  21.286   9.650  14.314
71329W        W43589  10.390  35.125   0.902
71330W        W43590  34.794   2.388  14.337
71331W        W43591  34.960   7.244   0.800
71332W        W43592  19.299   1.714  12.874
71333W        W43593  29.126  43.933  12.413
71334W        W43594  15.305  38.923   0.328
71335W        W43595  10.851   2.946   4.268
71336W        W43596  35.561   0.537  12.804
71337W        W43597  26.215  24.070   3.622
71338W        W43598  35.940  11.518   4.171
71339W        W43599   6.378   9.960  11.779
71340W        W43600   2.280  31.031   0.535
71341W        W43601  35.802  29.950   4.092
71342W        W43602  42.022   1.405   1.162
71343W        W43603  12.850  27.836   1.160
71344W        W43604  13.674  25.809  14.444
71345W        W43605  32.191  27.222   1.521
71346W        W43606  15.836   1.894   3.264
71347W        W43607   8.414  36.295   0.484
71348W        W43608  19.284  33.811   0.749
71349W        W43609   9.238  25.220   4.541
71350W        W43610  38.439   3.518  14.822
71351W        W43611  14.093  42.478   3.678
71352W        W43612  27.203  16.657  11.374
71353W        W43613  15.172   6.931  12.883
71354W        W43614   7.405  21.537  12.519
71355W        W43615   6.747   1.762   3.766
71356W        W43616  40.722   3.041   1.475
71357W        W43617  12.816  17.232  14.960
71358W        W43618   9.391  27.182  11.190
71359W        W43619  36.138   4.815  13.964
71360W        W43620  35.941   2.845   0.974
71361W        W43621  33.017  19.931  10.911
71362W        W43622  13.849  14.212  11.057
71363W        W43623  34.886  12.745  14.024
71364W        W43624  41.353  29.397   2.733
71365W        W43625  34.518  26.124   2.403
71366W        W43626  17.702  14.108   2.658
71367W        W43627   4.106   0.322   2.069
71368W        W43628  15.703  23.726  10.422
71369W        W43629  30.087  35.780  12.996
71370W        W43630  36.603  31.709  10.607
71371W        W43631  38.016  16.237   3.581
71372W        W43632   3.918  16.770   2.155
71373W        W43633  21.566  44.242   4.520
71374W        W43634  32.871  32.290   0.921
71375W        W43635  31.744  18.652   3.122
71376W        W43636  37.464  15.627  14.204
71377W        W43637  25.267  37.042  12.054
71378W        W43638  33.976  22.857   4.016
71379W        W43639  15.522  39.077  14.810
71380W        W43640  34.668  18.683   3.699
71381W        W43641   6.280  35.329   3.113
71382W        W43642   5.665   6.466   2.747
71383W        W43643   0.459  13.318  12.550
71384W        W43644  29.221  13.842  13.906
71385W        W43645  20.976  18.624   9.975
71386W        W43646  18.352  20.051   4.140
71387W        W43647  25.695   5.708   1.483
71388W        W43648   6.239  43.374  11.553
71389W        W43649  27.957  31.146  12.037
71390W        W43650  27.120  33.665  11.136
71391W        W43651   5.099   0.032   2.862
71392W        W43652  42.775   1.317   3.305
71393W        W43653   6.476  20.113  12.633
71394W        W43654  11.201  32.197  11.696
71395W        W43655  28.948  30.128   2.207
71396W        W43656   5.389  13.090   3.617
71397W        W43657   9.071  19.027  14.865
71398W        W43658  12.136  11.865   3.700
71399W        W43659  35.931   1.345  11.233
71400W        W43660  36.248   0.787   9.774
71401W        W43661  35.517  25.681   4.153
71402W        W43662  20.770  36.032   0.904
71403W        W43663  21.280  43.767   3.773
71404W        W43664  30.276  38.954  12.627
71405W        W43665  12.327  29.498  14.355
71406W        W43666   1.217  12.381   3.185
71407W        W43667  42.681  24.332   4.018
71408W        W43668   3.311  39.472   4.670
71409W        W43669   8.804   6.306   0.310
71410W        W43670  43.782  20.794   4.131
71411W        W43671  37.527  29.589  12.077
71412W        W43672  15.728   0.249   2.409
71413W        W43673  37.496  42.378  12.903
71414W        W43674  35.055   9.430   0.867
71415W        W43675  27.143  13.798  13.899
71416W        W43676  39.173  44.437  14.812
71417W        W43677  23.428  32.044   9.934
71418W        W43678   5.072  33.501  14.852
71419W        W43679  19.277  38.831  13.391
71420W        W43680   5.929  37.037  13.138
71421W        W43681  40.440  33.604  12.639
71422W        W43682  11.603   4.701   4.563
71423W        W43683   6.627  17.221  12.659
71424W        W43684   3.156   3.366  13.414
71425W        W43685  20.751  31.497  13.282
71426W        W43686  17.907  42.877  10.678
71427W        W43687   0.242   8.603   2.886
71428W        W43688  11.572  29.511   0.894
71429W        W43689  43.904   8.414   2.845
71430W        W43690  13.967  24.795  13.632
71431W        W43691   9.909  33.670   2.706
71432W        W43692  40.578  28.191   4.932
71433W        W43693  19.152  12.129   1.905
71434W        W43694   6.792   5.965  14.037
71435W        W43695   2.786  21.567   3.243
71436W        W43696  41.942   9.753  14.440
71437W        W43697  18.971   4.800   1.140
71438W        W43698  40.215  44.178   3.702
71439W        W43699  35.058  12.731   4.080
71440W        W43700  43.333  30.488  10.551
71441W        W43701  32.090  38.407  13.957
71442W        W43702  32.359  27.979   2.632
71443W        W43703  37.301   6.965  13.704
71444W        W43704  17.561   2.847   1.509
71445W        W43705  27.492  32.937   1.673
71446W        W43706  18.109  39.601  12.194
71447W        W43707  10.623  10.382   4.420
71448W        W43708  27.825  25.411  10.255
71449W        W43709   8.611   5.474   1.028
71450W        W43710   2.981  28.160   0.394
71451W        W43711  31.057  38.124   0.417
71452W        W43712   0.286  36.339  11.463
71453W        W43713  37.080  21.328  13.832
71454W        W43714  20.608  28.091  13.950
71455W        W43715  18.157   0.878  11.132
71456W        W43716  20.276  42.322   3.942
71457W        W43717   2.725  26.685   0.346
71458W        W43718  17.686  28.223  12.905
71459W        W43719  37.836  38.619  12.557
71460W        W43720  31.105  36.359   2.776
71461W        W43721  29.567  34.333  10.759
71462W        W43722  18.577  31.540   4.120
71463W        W43723  26.215  35.257   0.942
71464W        W43724  23.347  32.141   4.557
71465W        W43725  21.928  20.814   1.273
71466W        W43726  44.343  10.993  14.777
71467W        W43727  44.236  18.676   0.997
71468W        W43728   8.721  24.026   3.404
71469W        W43729  20.355  40.639   0.497
71470W        W43730   6.585  14.117  12.366
71471W        W43731  23.111  33.175  14.859
71472W        W43732  17.524  27.607  10.970
71473W        W43733  22.627  34.640   4.819
71474W        W43734   4.860  13.170   0.547
71475W        W43735  28.453  14.517  13.947
71476W        W43736  17.987  30.737  13.885
71477W        W43737  40.934   3.987   1.641
71478W        W43738  19.920   6.945   0.807
71479W        W43739  20.217  28.561  11.852
71480W        W43740  25.625  10.123   2.692
71481W        W43741  18.011  11.587   3.478
71482W        W43742  18.305   6.731  11.943
71483W        W43743  21.134  28.705   3.110
71484W        W43744  26.032  38.916  11.919
71485W        W43745  19.835  29.561  13.308
71486W        W43746  30.086  24.944   3.740
71487W        W43747   9.630  30.114  10.831
71488W        W43748  38.628   2.793   0.342
71489W        W43749  43.965  37.161   4.846
71490W        W43750  34.492  36.471  12.408
71491W        W43751  40.849   8.634   2.342
71492W        W43752  38.891   4.203  11.145
71493W        W43753  23.800  27.918   2.748
71494W        W43754  17.665  42.570  12.423
71495W        W43755  17.126   4.980  12.946
71496W        W43756  18.916  32.526   2.625
71497W        W43757   0.489   7.744   3.393
71498W        W43758  15.124  30.564   1.885
71499W        W43759  35.126  12.343   0.799
71500W        W43760  12.814  31.601   4.015
71501W        W43761   9.151   4.737   0.878
71502W        W43762   8.716  17.209   2.178
71503W        W43763  29.552  10.654   4.496
71504W        W43764  22.722   8.708   3.304
71505W        W43765  20.452   3.500   3.874
71506W        W43766  35.388  12.109  11.203
71507W        W43767   9.814  23.646  13.043
71508W        W43768  17.337   5.309  14.061
71509W        W43769  19.246  18.274   1.952
71510W        W43770   3.683  10.264   3.699
71511W        W43771   7.457   2.322   3.848
71512W        W43772  34.108  11.865   3.163
71513W        W43773  16.068  12.688  11.475
71514W        W43774  32.384  19.693  11.853
71515W        W43775  25.196  10.204   4.044
71516W        W43776  43.038   0.501  12.522
71517W        W43777  21.000  14.299  12.024
71518W        W43778  43.341  26.527  11.866
71519W        W43779   8.228   5.682  14.551
71520W        W43780  18.580   8.360   9.809
71521W        W43781  34.121  28.075   0.409
71522W        W43782  26.713   3.805  14.835
71523W        W43783   3.139  17.996   3.757
71524W        W43784   5.910  30.836   0.961
71525W        W43785  40.368  20.085   2.278
71526W        W43786   6.953  32.464  12.954
71527W        W43787  35.058  30.824   2.076
71528W        W43788  12.852  38.940  10.963
71529W        W43789  26.289  23.463   1.833
71530W        W43790  22.917   5.370   4.454
71531W        W43791  29.880  38.992  10.685
71532W        W43792   9.646  27.561   4.222
71533W        W43793  38.480   7.136   2.741
71534W        W43794  38.800   2.229  11.135
71535W        W43795  35.364   8.643  14.954
71536W        W43796  20.160  24.706  13.125
71537W        W43797  25.482  39.900   4.829
71538W        W43798   4.817  19.265  13.327
71539W        W43799  15.488   1.831  12.422
71540W        W43800   2.766   6.186  11.665
71541W        W43801  33.570  35.866  14.334
71542W        W43802  16.156  20.102   2.342
71543W        W43803  28.602  43.332   3.528
71544W        W43804  41.102  31.006  13.525
71545W        W43805  25.183  42.779   2.313
71546W        W43806  26.937  43.184  11.217
71547W        W43807  32.432  19.441  10.394
71548W        W43808   6.302  28.954   2.756
71549W        W43809   1.448  14.093  11.146
71550W        W43810  18.415  33.758  12.377
71551W        W43811  28.473  41.772  11.534
71552W        W43812   1.255  22.303  14.272
71553W        W43813  40.084  17.579  13.432
71554W        W43814  12.113  22.087   1.354
71555W        W43815   3.787  21.501   4.643
71556W        W43816  34.002  27.160   0.340
71557W        W43817  39.000   0.572   2.208
71558W        W43818  14.596   6.899   3.774
71559W        W43819  30.539  20.151  13.480
71560W        W43820  13.190  20.805  13.754
71561W        W43821  25.647  43.024  10.676
71562W        W43822  19.297  16.366   2.419
71563W        W43823  42.081   0.542   4.167
71564W        W43824  34.312  19.741  10.678
71565W        W43825  20.619  39.478  12.918
71566W        W43826  26.334  36.931   2.836
71567W        W43827  14.538  21.452  13.430
71568W        W43828  19.519   5.411  12.612
71569W        W43829  11.730   8.446   5.281
71570W        W43830   4.335   1.327  11.307
71571W        W43831  16.067  19.553   3.638
71572W        W43832  23.092  21.239   5.490
71573W        W43833  35.211  27.881  11.235
71574W        W43834  41.464  35.570   4.302
71575W        W43835  22.151   2.987   3.725
71576W        W43836  19.016   0.964   1.920
71577W        W43837  15.183  30.377  11.446
71578W        W43838  44.019  11.836   2.711
71579W        W43839  33.475  42.872  11.620
71580W        W43840  18.444   8.946  11.815
71581W        W43841  39.289  42.527  11.980
71582W        W43842   2.818  31.174  14.908
71583W        W43843  43.438  25.483  13.377
71584W        W43844  35.768  11.474   2.856
71585W        W43845  36.559  32.749  12.055
71586W        W43846  31.069  29.153  12.020
71587W        W43847  15.768   3.685  10.641
71588W        W43848  34.849  23.534  13.803
71589W        W43849  10.703  37.952   3.697
71590W        W43850   1.416   5.368  14.138
71591W        W43851  43.023  31.780   4.218
71592W        W43852   2.015  32.543   2.305
71593W        W43853  11.268  25.454   1.910
71594W        W43854  26.643  25.560   2.067
71595W        W43855   7.450  28.090   4.509
71596W        W43856   3.787   7.236   0.613
71597W        W43857  39.229  17.393   0.271
71598W        W43858  16.983   1.263   0.228
71599W        W43859   9.575  12.758   1.974
71600W        W43860  33.383  16.593  10.671
71601W        W43861   5.139  24.267  10.738
71602W        W43862  28.158   6.651  11.635
71603W        W43863  36.344  19.305   1.038
71604W        W43864   7.854  37.886  14.193
71605W        W43865  44.205  44.411   4.050
71606W        W43866  25.758  38.349  10.280
71607W        W43867  36.425   7.402   3.206
71608W        W43868  20.631  38.434  11.646
71609W        W43869  42.431   3.947  10.667
71610W        W43870  36.460  36.023   2.740
71611W        W43871   1.399  12.119  10.942
71612W        W43872  12.697  15.307   4.112
71613W        W43873  37.448  37.132   3.843
71614W        W43874   5.288  16.672  13.962
71615W        W43875  20.580  10.670  11.450
71616W        W43876  34.126  44.862   0.416
71617W        W43877  18.028  20.517  14.384
71618W        W43878  35.587   9.890  10.629
71619W        W43879  21.517  10.658   2.862
71620W        W43880  21.546  14.694  11.611
71621W        W43881   6.767   5.685  14.495
71622W        W43882  32.843  34.032   4.320
71623W        W43883  27.012  36.785  11.059
71624W        W43884  15.691  39.279   3.253
71625W        W43885  15.234   3.359   2.134
71626W        W43886  14.729  33.384  12.160
71627W        W43887  11.192  24.135  10.647
71628W        W43888  16.680   4.374  14.044
71629W        W43889  21.980  18.081  14.508
71630W        W43890  12.640  35.418   3.577
71631W        W43891  26.012  38.903   2.762
71632W        W43892  23.413  14.622  10.750
71633W        W43893  14.348  43.283   2.269
71634W        W43894  22.337  35.561  13.879
71635W        W43895   5.095  29.138   2.039
71636W        W43896   9.930  14.541   4.772
71637W        W43897  10.750   2.985   0.285
71638W        W43898  11.085  24.022  11.981
71639W        W43899  37.345  29.962   2.323
71640W        W43900  19.563  24.667  12.034
71641W        W43901   7.613  35.850   1.363
71642W        W43902  33.473  16.197   4.582
71643W        W43903  35.830  26.271   0.352
71644W        W43904  21.015  24.263   3.725
71645W        W43905  34.631  11.217  12.029
71646W        W43906   0.909  38.487  11.396
71647W        W43907  10.677  29.096  14.772
71648W        W43908  40.456   4.267   3.430
71649W        W43909  15.845  20.575  13.462
71650W        W43910   6.301   6.334   3.318
71651W        W43911  40.963  38.970   2.408
71652W        W43912  17.140   1.713  12.632
71653W        W43913  27.131  17.206  14.350
71654W        W43914  32.481  25.786   0.393
71655W        W43915  22.311  38.843  10.674
71656W        W43916   1.172  17.745   1.439
71657W        W43917  10.774  21.608   1.930
71658W        W43918   9.353  17.763   3.763
71659W        W43919  23.070  26.242   1.785
71660W        W43920  38.418   1.886  12.547
71661W        W43921  16.522  13.819   0.305
71662W        W43922  30.062  39.339   0.159
71663W        W43923  20.743   7.872   5.001
71664W        W43924   0.506  18.929  11.205
71665W        W43925   3.826  28.917   2.511
71666W        W43926  23.640  36.544   0.020
71667W        W43927   0.879  27.397  13.389
71668W        W43928  30.681  10.538  14.143
71669W        W43929  16.052  21.230   4.042
71670W        W43930  37.273  25.062   4.174
71671W        W43931  31.055   2.475  12.429
71672W        W43932  25.013  42.456  10.708
71673W        W43933  31.133  20.225   0.147
71674W        W43934  42.500  28.602  12.469
71675W        W43935  23.495  29.243  12.026
71676W        W43936  29.605  23.790  12.670
71677W        W43937  17.668  32.512  11.545
71678W        W43938  42.250  34.424   3.307
71679W        W43939  28.096  41.929   1.095
71680W        W43940  44.233  38.432  14.234
71681W        W43941  16.766   0.317   4.058
71682W        W43942  11.930  30.810   1.371
71683W        W43943   4.207  43.141  12.420
71684W        W43944  26.136  10.652   4.649
71685W        W43945  37.067   7.903  10.548
71686W        W43946  33.528  27.204  13.406
71687W        W43947  18.064   3.381  13.303
71688W        W43948  44.796  35.029   1.388
71689W        W43949  38.160   1.271  10.443
71690W        W43950  38.722  44.191  14.831
71691W        W43951  33.534  32.697  14.360
71692W        W43952  43.078  10.779   1.553
71693W        W43953  26.707  28.686  13.904
71694W        W43954   7.909  22.436   2.413
71695W        W43955  21.129  28.508   0.277
71696W        W43956  16.630  41.230  14.892
71697W        W43957  34.408  42.717  13.801
71698W        W43958   3.905  44.001  13.552
71699W        W43959  27.998   6.743   3.238
71700W        W43960  23.581  39.753  12.381
71701W        W43961  12.816  32.953  14.384
71702W        W43962  41.557  20.185   3.898
71703W        W43963  42.282  31.143  14.854
71704W        W43964  35.897   4.975  14.783
71705W        W43965  27.466  20.346  12.387
71706W        W43966  24.945  21.557  14.733
71707W        W43967  20.645  29.564   1.429
71708W        W43968  10.219  23.474   3.813
71709W        W43969  43.371  40.279  13.688
71710W        W43970  15.659  32.231   3.545
71711W        W43971  39.597  26.012   0.340
71712W        W43972  31.110   2.180   0.091
71713W        W43973  11.285  28.035  11.036
71714W        W43974  36.617  10.162   2.736
71715W        W43975  12.782  23.491   1.666
71716W        W43976  34.986  40.073   2.327
71717W        W43977  35.003  12.915   4.558
71718W        W43978  29.116  35.792   3.070
71719W        W43979  14.675  17.751   9.601
71720W        W43980  38.111  29.615  10.834
71721W        W43981  21.712  15.228  10.618
71722W        W43982   8.221   3.174   0.839
71723W        W43983  15.215  14.710  11.541
71724W        W43984   2.849  32.600   4.218
71725W        W43985   9.589  29.667  11.125
71726W        W43986  37.992  14.683   2.314
71727W        W43987   3.913  38.266   4.290
71728W        W43988  18.750  22.704  12.819
71729W        W43989  43.921   1.758   3.668
71730W        W43990  43.252  14.699   4.098
71731W        W43991  24.559  12.868  11.422
71732W        W43992  43.247  39.842  11.911
71733W        W43993  26.600  35.630   4.465
71734W        W43994  18.275  26.226   2.274
71735W        W43995   3.206  29.067  12.777
71736W        W43996  28.848  30.182   0.465
71737W        W43997  14.054  32.065   1.293
71738W        W43998  28.025   8.686  14.809
71739W        W43999  31.331   8.504  14.876
71740W        W44000  22.875  32.586  14.378
71741W        W44001  15.126  18.098  14.291
71742W        W44002   7.190  15.892   2.828
71743W        W44003  38.382  37.460  13.763
71744W        W44004  43.545  40.938   3.888
71745W        W44005  23.598  24.224  13.126
71746W        W44006  36.603  39.631  14.041
71747W        W44007  43.462  34.095  11.617
71748W        W44008  10.937  43.117   1.408
71749W        W44009  19.135  31.916   2.457
71750W        W44010   4.720  36.891   2.782
71751W        W44011  21.477  39.421   4.220
71752W        W44012  24.696   5.915   2.995
71753W        W44013  32.939  28.163  12.814
71754W        W44014  15.826  23.537  12.080
71755W        W44015  12.310  10.308  11.620
71756W        W44016   8.084  17.791  13.837
71757W        W44017  18.704  10.411   3.689
71758W        W44018   6.146  19.766   2.685
71759W        W44019   4.312  40.479   1.970
71760W        W44020  23.626   2.794   0.687
71761W        W44021   6.788  35.114  13.321
71762W        W44022   3.315  13.738   2.341
71763W        W44023  10.177  33.093  10.668
71764W        W44024  11.726   5.700  13.957
71765W        W44025  19.997  28.201  14.600
71766W        W44026  42.412  11.581   2.941
71767W        W44027   6.130  29.126   4.639
71768W        W44028  42.989  28.825   0.032
71769W        W44029  34.507  25.097  11.644
71770W        W44030  37.495  28.928   2.546
71771W        W44031  33.090  28.744  10.675
71772W        W44032   8.820  42.306   0.212
71773W        W44033  36.663   2.867   2.271
71774W        W44034  11.797   7.808   0.066
71775W        W44035   2.458  28.597  14.685
71776W        W44036  24.782  40.331  14.808
71777W        W44037  16.656  19.582  12.529
71778W        W44038  19.580  23.509   2.887
71779W        W44039  33.058   8.148  13.316
71780W        W44040  10.675  26.078   0.329
71781W        W44041  17.912   7.258   3.912
71782W        W44042  44.741  30.507  12.850
71783W        W44043  30.494  25.655   4.533
71784W        W44044  38.904  14.068   4.738
71785W        W44045   1.236  44.258   1.704
71786W        W44046  10.203  26.731  11.186
71787W        W44047  32.706  33.372   3.266
71788W        W44048  26.863  22.729  14.383
71789W        W44049  18.607  12.383  12.874
71790W        W44050   5.777   3.094  12.085
71791W        W44051  26.902   8.215   1.435
71792W        W44052   8.537  42.713   3.880
71793W        W44053   9.375  42.926   1.625
71794W        W44054  34.440  12.816  12.489
71795W        W44055  40.412  33.509  12.138
71796W        W44056  24.930   9.753  13.389
71797W        W44057  31.178  19.347   1.205
71798W        W44058  25.835  40.670   2.999
71799W        W44059  34.511  41.770  10.708
71800W        W44060  31.635  42.294   0.900
71801W        W44061  37.340  30.500  12.432
71802W        W44062  14.166   8.980  14.827
71803W        W44063  25.879  27.738   1.190
71804W        W44064  22.529  40.751   4.533
71805W        W44065  35.574  41.559  11.676
71806W        W44066   6.811   1.760   0.923
71807W        W44067  18.097  28.692  11.639
71808W        W44068   7.663  17.871  10.821
71809W        W44069  31.632  42.352  11.729
71810W        W44070  16.629  19.150   3.318
71811W        W44071  37.849  36.772  12.745
71812W        W44072  30.239   4.965  11.649
71813W        W44073  24.633  26.711  11.926
71814W        W44074  22.197  19.516  10.213
71815W        W44075  24.283  12.821  12.106
71816W        W44076  15.878  32.325  13.011
71817W        W44077  30.173  14.622   2.353
71818W        W44078  18.220  42.898  14.845
71819W        W44079  35.870  10.840  11.030
71820W        W44080  23.522  27.673  12.838
71821W        W44081  31.680   2.624  11.726
71822W        W44082  43.538   5.294  12.956
71823W        W44083  16.167   9.400   4.257
71824W        W44084  13.789   2.693   3.806
71825W        W44085  44.843  39.601  12.878
71826W        W44086  24.150   9.261  11.302
71827W        W44087  26.461   8.182  14.040
71828W        W44088  28.344   8.910  11.570
71829W        W44089   9.075  38.321   0.156
71830W        W44090  15.084  38.791  10.646
71831W        W44091  32.157   6.411  13.990
71832W        W44092   4.326  35.274   2.001
71833W        W44093  15.365  16.684   0.767
71834W        W44094  37.406  43.524   1.857
71835W        W44095  35.174  21.094   3.737
71836W        W44096  27.007   1.402   5.040
71837W        W44097  26.168  31.947   4.673
71838W        W44098  29.953   6.246   4.270
71839W        W44099  21.962   7.255  11.150
71840W        W44100  34.408  38.883   3.315
71841W        W44101  26.451  10.689   3.014
71842W        W44102   2.952  36.103   2.399
71843W        W44103  24.251  10.746  14.202
71844W        W44104  19.335  27.117  14.722
71845W        W44105  12.801  16.298   2.188
71846W        W44106  22.603  35.545  12.483
71847W        W44107  10.977  15.461   0.566
71848W        W44108  28.207   5.985  11.095
71849W        W44109  23.761  25.360  13.350
71850W        W44110  41.357  43.869   2.822
71851W        W44111  40.424   0.318   1.941
71852W        W44112  25.980  15.282   1.674
71853W        W44113   1.193  17.802  10.633
71854W        W44114  24.261   5.907  13.393
71855W        W44115   8.738  14.210   3.628
71856W        W44116   0.367  15.226  12.673
71857W        W44117  16.700  44.058   2.638
71858W        W44118  16.824  10.765  13.677
71859W        W44119  14.852  37.637  12.864
71860W        W44120   5.810  21.262   0.301
71861W        W44121   0.359  43.444   2.241
71862W        W44122  18.151  33.903  10.927
71863W        W44123   4.434  37.448  11.482
71864W        W44124  40.546  36.245  13.323
71865W        W44125  11.815  18.264   1.358
71866W        W44126  14.514   4.838   0.956
71867W        W44127   7.239  25.947   4.117
71868W        W44128  22.763  12.676  10.738
71869W        W44129  44.718  44.950   3.811
71870W        W44130  31.676  17.055  12.511
71871W        W44131  14.778  34.813  12.546
71872W        W44132   0.591   6.323  10.698
71873W        W44133  34.588   4.942   0.277
71874W        W44134  12.696  13.190   3.872
71875W        W44135  14.168   5.569   3.626
71876W        W44136  15.832  37.668  14.073
71877W        W44137  15.180   9.071   2.764
71878W        W44138  22.733  16.186   1.568
71879W        W44139  26.504  24.658  14.813
71880W        W44140  31.627  37.983  11.155
71881W        W44141  18.141  40.490  12.624
71882W        W44142  38.503  32.323  14.415
71883W        W44143  11.169  39.530  11.268
71884W        W44144  41.405  18.743   1.851
71885W        W44145  18.376  26.818   1.276
71886W        W44146  17.603  36.412  13.442
71887W        W44147   3.980  20.260  13.317
71888W        W44148   8.192  39.530   0.680
71889W        W44149  34.159   3.506   4.325
71890W        W44150  13.323  38.803  13.872
71891W        W44151  40.352  21.799   0.640
71892W        W44152  30.631  13.186   0.363
71893W        W44153  15.148  30.564  11.921
71894W        W44154  42.224  18.257   3.861
71895W        W44155   3.131  32.008   1.162
71896W        W44156  36.410   2.922  12.083
71897W        W44157  41.636  25.766   3.940
71898W        W44158  19.743  33.896  14.835
71899W        W44159  26.493  15.790   4.505
71900W        W44160  30.466  21.612  10.692
71901W        W44161   3.655  36.372   1.781
71902W        W44162  27.644  25.358   2.701
71903W        W44163  13.558  34.017  11.680
71904W        W44164   1.690  17.914  10.769
71905W        W44165  34.022  30.698  13.196
71906W        W44166  15.040  33.005   3.589
71907W        W44167   8.801  19.216   1.716
71908W        W44168  37.070  29.179   0.792
71909W        W44169  15.556  25.032  12.877
71910W        W44170   4.832  12.656   4.537
71911W        W44171  39.852  12.074  10.619
71912W        W44172  17.383  41.553   1.209
71913W        W44173  17.987  43.285   0.902
71914W        W44174  12.396  42.174  12.849
71915W        W44175  31.387  10.335   3.162
71916W        W44176  34.336  31.425  12.643
71917W        W44177  28.225  40.298  14.922
71918W        W44178  38.916  19.168  12.022
71919W        W44179  30.729   3.326  10.555
71920W        W44180   0.508  41.355  11.199
71921W        W44181  25.141   2.336   3.213
71922W        W44182  21.576   4.284   2.957
71923W        W44183   1.511  38.512  14.851
71924W        W44184  41.450   6.483   2.766
71925W        W44185   2.264  32.334  14.525
71926W        W44186  29.225   4.825   0.939
71927W        W44187  35.535  21.610  13.375
71928W        W44188  17.601   0.699  13.821
71929W        W44189   2.448  31.639  12.354
71930W        W44190  28.366  31.647   0.908
71931W        W44191   4.757  28.280  11.441
71932W        W44192  22.052  44.442   4.584
71933W        W44193  20.636   8.357  14.210
71934W        W44194  10.441  22.998  12.097
71935W        W44195  43.550  38.024  13.837
71936W        W44196   1.219  36.374  13.045
71937W        W44197  17.933   5.336  10.537
71938W        W44198   7.461  35.550  11.624
71939W        W44199  16.691  36.312   3.273
71940W        W44200  31.924   0.947  10.842
71941W        W44201   7.432  24.625   2.962
71942W        W44202  24.473  40.911   1.371
71943W        W44203   4.569   1.474  14.963
71944W        W44204  43.833  28.992  12.471
71945W        W44205  29.665  44.359   2.396
71946W        W44206   2.497  18.613   2.872
71947W        W44207  18.836   6.454   0.806
71948W        W44208   3.105  15.564   5.183
71949W        W44209   6.392  13.089  10.623
71950W        W44210  24.590  43.431  12.106
71951W        W44211  27.059  32.790   3.770
71952W        W44212  31.587  28.169   4.810
71953W        W44213  41.317  15.197  14.772
71954W        W44214  23.728  26.166  12.947
71955W        W44215  38.454  31.402  12.847
71956W        W44216   6.700  34.537  12.420
71957W        W44217  18.368  44.941   3.537
71958W        W44218  39.905  24.472  11.509
71959W        W44219  43.421  22.064  11.874
71960W        W44220  23.246  35.342  13.853
71961W        W44221  29.111  40.336   2.874
71962W        W44222  21.090   1.847   1.727
71963W        W44223  12.623  19.545   3.950
71964W        W44224  35.853  13.008   0.917
71965W        W44225   2.455  33.977  12.042
71966W        W44226  12.717  13.583   2.701
71967W        W44227  29.164  10.733  12.610
71968W        W44228  14.374  32.554   2.468
71969W        W44229  36.185   7.839   2.829
71970W        W44230  27.888  13.818  11.621
71971W        W44231   1.423   8.123   2.679
71972W        W44232  24.094   6.279  10.327
71973W        W44233  40.888  10.865   4.937
71974W        W44234   5.719  19.485  13.631
71975W        W44235  33.902   9.163  10.574
71976W        W44236  15.881  42.003   3.755
71977W        W44237   5.520  42.929   3.381
71978W        W44238   6.296  15.215  10.503
71979W        W44239  20.779   1.434   2.126
71980W        W44240  20.109   0.200   3.038
71981W        W44241  16.803   8.390  14.180
71982W        W44242  29.538  25.869   4.531
71983W        W44243   1.302  15.826  10.635
71984W        W44244   3.224  23.483  10.264
71985W        W44245  39.909  13.296  13.813
71986W        W44246  35.548  14.434  13.737
71987W        W44247  27.006   2.224   3.172
71988W        W44248  27.736  37.598   0.959
71989W        W44249  12.639   7.640   4.670
71990W        W44250  11.153   6.133  10.840
71991W        W44251   3.984  40.845   3.751
71992W        W44252   8.909  31.607  11.477
71993W        W44253  29.924  19.732  14.209
71994W        W44254   6.673   0.841   0.502
71995W        W44255  37.379  10.181   1.963
71996W        W44256  19.638  31.590   1.185
71997W        W44257  40.857  41.423   0.771
71998W        W44258  26.863   7.887   3.615
71999W        W44259  13.629  19.431   0.447
72000W        W44260  39.107  11.112  14.861
72001W        W44261   5.211   5.412   3.121
72002W        W44262  12.565  43.389   4.590
72003W        W44263  37.842  44.711   0.074
72004W        W44264  28.395  17.536   2.839
72005W        W44265  37.531  35.056  12.076
72006W        W44266  32.667  32.417  11.831
72007W        W44267  34.779  15.132   0.259
72008W        W44268  19.801  20.582  13.757
72009W        W44269  24.637  10.409   1.713
72010W        W44270   3.271  21.782   3.082
72011W        W44271  39.095  42.022   0.758
72012W        W44272  10.101  40.538  11.563
72013W        W44273   8.469  14.538  11.893
72014W        W44274   1.912   6.292   4.668
72015W        W44275  32.111  23.678   1.780
72016W        W44276  13.868  14.229  13.279
72017W        W44277  29.359  13.860   0.323
72018W        W44278   8.225   8.211  13.905
72019W        W44279   6.000  27.737  11.206
72020W        W44280   4.708   1.338   5.062
72021W        W44281  32.482  28.519   1.815
72022W        W44282  37.846  26.960  14.286
72023W        W44283  14.394  38.317   1.234
72024W        W44284  40.604   1.755  10.329
72025W        W44285  23.532  11.312   4.307
72026W        W44286  33.964  23.978   1.907
72027W        W44287  20.768  27.043  11.453
72028W        W44288  20.366  42.424  12.040
72029W        W44289  41.867   5.460  14.995
72030W        W44290  33.976  19.267  10.897
72031W        W44291  18.042   5.467   1.406
72032W        W44292  11.920  28.208  13.300
72033W        W44293  29.551  34.861   1.904
72034W        W44294   3.753  40.911  10.561
72035W        W44295  27.071  35.847   0.592
72036W        W44296  10.260  29.612   2.365
72037W        W44297  40.060  33.495  11.183
72038W        W44298   0.929  25.673   3.570
72039W        W44299  12.568  17.216  11.454
72040W        W44300  27.453  17.240  10.567
72041W        W44301  39.307  29.045  11.463
72042W        W44302   2.408  24.989   2.275
72043W        W44303  37.959  40.395  13.171
72044W        W44304  36.607   3.668   1.802
72045W        W44305  11.393   5.968  14.239
72046W        W44306  43.415  23.506   0.752
72047W        W44307  44.257  15.725   4.598
72048W        W44308  11.259  19.655  11.530
72049W        W44309   6.291  24.248  13.107
72050W        W44310   0.324  18.235  10.434
72051W        W44311  13.302  29.155   0.284
72052W        W44312  33.633  40.133   1.481
72053W        W44313  38.648  18.635   4.707
72054W        W44314   7.286  34.426  14.944
72055W        W44315  44.467  20.340  14.376
72056W        W44316  28.090   3.014   2.169
72057W        W44317   7.796  16.999   3.439
72058W        W44318  14.782  27.084   4.597
72059W        W44319  34.110  23.953   0.978
72060W        W44320  15.632   1.466  11.533
72061W        W44321  28.164  25.969  13.465
72062W        W44322  20.460  10.297  10.576
72063W        W44323  11.619   6.840   2.245
72064W        W44324   5.829  38.094  13.834
72065W        W44325  11.331  33.601   2.572
72066W        W44326   1.417   2.227  14.000
72067W        W44327  17.026  16.858  14.087
72068W        W44328  19.797  28.980  11.060
72069W        W44329  35.413  28.943   2.216
72070W        W44330  32.815  17.118   2.808
72071W        W44331   1.386  28.290  13.982
72072W        W44332   6.070  38.395   2.336
72073W        W44333  29.122  17.749  13.516
72074W        W44334  15.809  14.894  10.967
72075W        W44335  12.278   0.668   0.674
72076W        W44336  43.125  37.812  14.562
72077W        W44337  11.663  38.942   4.585
72078W        W44338  35.676  30.028  12.493
72079W        W44339   8.910  44.607   2.967
72080W        W44340  12.655  42.111  11.618
72081W        W44341  17.760   1.458   3.990
72082W        W44342  36.180   7.089  10.947
72083W        W44343   3.766   9.199  11.735
72084W        W44344  14.432  24.834   3.738
72085W        W44345   4.710  44.206  13.882
72086W        W44346   5.433   0.495  14.527
72087W        W44347  27.667  42.824   0.309
72088W        W44348   9.688  25.371   4.263
72089W        W44349  40.283  14.803  11.066
72090W        W44350  40.851  28.512   0.697
72091W        W44351   1.879  25.988   4.583
72092W        W44352  28.260  26.129  10.330
72093W        W44353  32.435  24.816   1.434
72094W        W44354  28.630  35.942  14.008
72095W        W44355  34.613   1.208  13.870
72096W        W44356  19.724  20.714   4.283
72097W        W44357  43.969  24.553  11.110
72098W        W44358  33.502  37.299  12.217
72099W        W44359  44.323  34.526  13.970
72100W        W44360  23.243  30.360   3.326
72101W        W44361   0.245  28.198  14.322
72102W        W44362  38.512  30.393   3.668
72103W        W44363  17.179  35.693  12.851
72104W        W44364   0.410   0.593  12.988
72105W        W44365   6.387  17.163  10.455
72106W        W44366  11.834  18.734  13.863
72107W        W44367  26.050  27.240   0.427
72108W        W44368  18.111  37.066  11.254
72109W        W44369   7.341  12.883   2.244
72110W        W44370  10.209   5.815  10.528
72111W        W44371   4.793   6.676   0.856
72112W        W44372  15.048  17.309  13.066
72113W        W44373  24.185  15.065   0.775
72114W        W44374  18.832  24.986  14.905
72115W        W44375  18.428   0.640  12.467
72116W        W44376  39.514  10.867  12.823
72117W        W44377  18.741   5.441   2.134
72118W        W44378  37.484  28.546   4.025
72119W        W44379   5.186  14.531  11.501
72120W        W44380  37.606   6.183   1.507
72121W        W44381  36.646   4.170  12.194
72122W        W44382  28.051  30.595  13.415
72123W        W44383  15.377   8.007  13.945
72124W        W44384  39.024  10.612   4.542
72125W        W44385  42.085  34.287   1.095
72126W        W44386  17.725  44.819   2.246
72127W        W44387  15.369   9.341   3.217
72128W        W44388  34.552   5.802   3.630
72129W        W44389  13.419  20.395   2.426
72130W        W44390  41.827   6.908   1.021
72131W        W44391  37.469   3.960   0.738
72132W        W44392   4.304  11.099   1.347
72133W        W44393  25.960  34.678   4.267
72134W        W44394   8.453  23.600  10.879
72135W        W44395  18.812  15.109  12.622
72136W        W44396  23.184  39.305  13.943
72137W        W44397  16.924   2.162  13.653
72138W        W44398  10.091  40.991   0.787
72139W        W44399  35.435  34.026   4.664
72140W        W44400  39.151   3.863  12.547
72141W        W44401  28.456  22.002  13.108
72142W        W44402  16.654  32.712   4.518
72143W        W44403   1.714  19.540  12.451
72144W        W44404   5.754  39.044  14.522
72145W        W44405   3.667  31.264  12.937
72146W        W44406  30.878  43.405   1.779
72147W        W44407  31.028  32.524  10.193
72148W        W44408  33.478  35.126   0.446
72149W        W44409   7.557  29.576  10.510
72150W        W44410  40.001  16.780  11.145
72151W        W44411  13.137  16.265   2.580
72152W        W44412  30.678   6.823  14.477
72153W        W44413   6.300  17.539  10.816
72154W        W44414   9.849  30.863   3.146
72155W        W44415   5.750   9.358  12.430
72156W        W44416  28.656  25.833   3.226
72157W        W44417  23.516   8.901   3.808
72158W        W44418  13.880  19.764  12.362
72159W        W44419  12.282  12.221   1.706
72160W        W44420  10.893  27.788  12.417
72161W        W44421  38.895  38.023  13.347
72162W        W44422   4.652  44.824  11.711
72163W        W44423  25.162  21.512  13.690
72164W        W44424  37.584  28.723  12.637
72165W        W44425  31.114  13.333  11.937
72166W        W44426   2.538  40.529   2.609
72167W        W44427  21.897  17.526  11.996
72168W        W44428  29.421  20.473  14.427
72169W        W44429  14.025  41.395  12.949
72170W        W44430  13.359  36.877  10.703
72171W        W44431  19.467   2.872  10.647
72172W        W44432  20.772  12.266  13.969
72173W        W44433  38.298  38.867   2.865
72174W        W44434  32.687  35.620   4.503
72175W        W44435  25.109  36.629   2.795
72176W        W44436  33.079  19.598   3.654
72177W        W44437  11.420   1.969   3.134
72178W        W44438  36.522   8.029  12.922
72179W        W44439  33.472  44.279  14.896
72180W        W44440  44.325  21.726  12.317
72181W        W44441  39.352   0.365  11.852
72182W        W44442   5.746   0.232  13.887
72183W        W44443  11.139  10.312  14.316
72184W        W44444  34.392  18.153  13.492
72185W        W44445  38.355  19.000  14.983
72186W        W44446  33.009  40.343   4.711
72187W        W44447  34.542   8.858  12.070
72188W        W44448  22.773   0.835   3.242
72189W        W44449  42.476  38.200   0.314
72190W        W44450  14.076  25.623  11.495
72191W        W44451  38.127  27.115   4.703
72192W        W44452  19.207  42.488   0.744
72193W        W44453  24.642  15.618   0.451
72194W        W44454  20.172  24.243  11.568
72195W        W44455  37.785  41.024   1.687
72196W        W44456  39.988  18.570  10.579
72197W        W44457   2.376  37.839  12.449
72198W        W44458   5.900  19.881   3.559
72199W        W44459  11.615  28.215   2.725
72200W        W44460  30.991  40.753  13.544
72201W        W44461  26.633   5.633   2.866
72202W        W44462  11.409  25.944   0.885
72203W        W44463   7.986  44.798  14.473
72204W        W44464  29.399  40.031  14.781
72205W        W44465   3.211  29.941  13.050
72206W        W44466  39.340  27.483   3.304
72207W        W44467  34.780  39.506  11.899
72208W        W44468  25.213  34.499  14.381
72209W        W44469  18.773  17.066   5.016
72210W        W44470  23.008  22.609   3.488
72211W        W44471  19.466   9.141  13.088
72212W        W44472  29.284   1.011   4.162
72213W        W44473  29.930  34.360  11.987
72214W        W44474   6.209  30.062  13.953
72215W        W44475  31.237  22.249   1.589
72216W        W44476  38.992   2.489   1.999
72217W        W44477  12.831  20.094   3.251
72218W        W44478   3.436   8.444  13.101
72219W        W44479  33.408   8.157   2.766
72220W        W44480  41.842  32.340   4.093
72221W        W44481  41.736   5.681  12.945
72222W        W44482  21.488   8.677  12.939
72223W        W44483  41.313   4.767   0.518
72224W        W44484  34.635   2.045   4.189
72225W        W44485  27.237   2.737  14.056
72226W        W44486   5.399  40.534   0.759
72227W        W44487  41.097  37.933   3.841
72228W        W44488   0.653   2.346   2.772
72229W        W44489  16.760  23.014   1.922
72230W        W44490  26.093  34.634  12.571
72231W        W44491  18.157  27.432  11.852
72232W        W44492  14.339  10.139  13.028
72233W        W44493  31.125   3.211   1.448
72234W        W44494  44.424  34.897   2.256
72235W        W44495  18.633  24.984   2.376
72236W        W44496   5.897  28.205  12.060
72237W        W44497   0.739   2.412   1.827
72238W        W44498  37.471  43.437   2.708
72239W        W44499   4.399  26.531  13.464
72240W        W44500   0.813   1.650  14.679
72241W        W44501  22.613  13.029   9.962
72242W        W44502  10.449  11.935  12.124
72243W        W44503  13.798  12.739   1.439
72244W        W44504   2.477  28.904   4.857
72245W        W44505   3.953  14.138  13.973
72246W        W44506  18.678  41.119   2.311
72247W        W44507  29.126  35.002   3.621
72248W        W44508  37.623   4.042  13.196
72249W        W44509  35.195  30.905  11.440
72250W        W44510  34.292  20.307  13.961
72251W        W44511  42.598  16.724   1.846
72252W        W44512  24.006  22.662  14.042
72253W        W44513  25.403   2.752  11.910
72254W        W44514  18.666  14.879   3.120
72255W        W44515  36.554  33.944  11.093
72256W        W44516  29.008  21.707  10.919
72257W        W44517   7.176  38.557  14.452
72258W        W44518   4.130  40.076   0.537
72259W        W44519  29.112  27.118  14.903
72260W        W44520  37.372  38.357  14.891
72261W        W44521  40.976  30.080  11.627
72262W        W44522  33.484   9.885   3.272
72263W        W44523  42.934  28.918   1.312
72264W        W44524  34.688  11.133   2.196
72265W        W44525  10.231   4.857   1.411
72266W        W44526  36.919  22.487   1.707
72267W        W44527   7.413  16.739  11.870
72268W        W44528   7.529  29.810   4.642
72269W        W44529  25.800  32.810   0.085
72270W        W44530   2.832  30.339   4.940
72271W        W44531   5.113  23.152  12.465
72272W        W44532   3.758  20.461   0.438
72273W        W44533  30.165  18.252  11.823
72274W        W44534  10.640  40.482  12.604
72275W        W44535   3.742   6.236  12.014
72276W        W44536  12.151  12.159  14.406
72277W        W44537  14.620  25.020  11.999
72278W        W44538   3.372   3.752   5.029
72279W        W44539  11.215   8.637   0.048
72280W        W44540  27.671  31.133  11.587
72281W        W44541  14.619  20.456   0.444
72282W        W44542   4.181  24.299   4.628
72283W        W44543  38.528  24.034  12.543
72284W        W44544   3.033   6.772   4.113
72285W        W44545  13.023  40.350  11.096
72286W        W44546  15.184  17.056  12.618
72287W        W44547  10.128  43.355   3.239
72288W        W44548  16.581  41.688   0.609
72289W        W44549  22.279  43.836   2.395
72290W        W44550  42.156  31.427   1.190
72291W        W44551  40.762   8.702   3.668
72292W        W44552   1.172  34.944   4.885
72293W        W44553  44.275   4.694   0.975
72294W        W44554   8.164   8.471   3.650
72295W        W44555  39.526  20.189  12.336
72296W        W44556  42.964  25.409  13.564
72297W        W44557   3.820  35.147  12.708
72298W        W44558  40.094  23.425   4.190
72299W        W44559   6.098  38.846   3.517
72300W        W44560  38.857  22.136   2.433
72301W        W44561  22.194  11.404   2.722
72302W        W44562  21.563   1.945   1.186
72303W        W44563  40.932  28.226   3.207
72304W        W44564  43.317   7.616  13.424
72305W        W44565  21.007  40.996  14.892
72306W        W44566  36.349  14.356  14.565
72307W        W44567  10.333  16.092   2.910
72308W        W44568  26.123  15.800  13.223
72309W        W44569   2.388  27.949   1.839
72310W        W44570  26.029  22.746   2.924
72311W        W44571  38.912  44.781   5.409
72312W        W44572   3.528   8.780  13.484
72313W        W44573  22.105   7.438   1.853
72314W        W44574  33.123  23.717   4.407
72315W        W44575  15.249  38.570  11.117
72316W        W44576  31.648  12.795  14.905
72317W        W44577  17.112   7.221   9.935
72318W        W44578  15.744  35.416  11.393
72319W        W44579  14.785   4.334  10.979
72320W        W44580  11.099  35.956  13.165
72321W        W44581   6.199  14.316  11.550
72322W        W44582  44.653  21.748   0.751
72323W        W44583  16.147  29.966   1.371
72324W        W44584  18.698  30.168   3.758
72325W        W44585  30.643   9.727  11.673
72326W        W44586  24.386  37.236   0.064
72327W        W44587  34.320  43.740   2.176
72328W        W44588   3.707  19.011  12.967
72329W        W44589  31.967  17.014  11.458
72330W        W44590  32.694  36.499  14.327
72331W        W44591  44.268   2.489  14.398
72332W        W44592  42.559   7.877  12.984
72333W        W44593  19.584  44.015  13.373
72334W        W44594  21.691  11.765   2.731
72335W        W44595  21.617  19.505   2.799
72336W        W44596  25.396  29.592   0.542
72337W        W44597  17.560  39.049  14.364
72338W        W44598   0.906   1.648  12.563
72339W        W44599  37.364  39.510   2.091
72340W        W44600  21.866   5.334   0.828
72341W        W44601  39.560  31.002   3.199
72342W        W44602  35.819  38.054   3.305
72343W        W44603  30.735  14.185   5.113
72344W        W44604  15.912  17.964  10.047
72345W        W44605   4.409  43.916  14.962
72346W        W44606  35.065  28.629  14.297
72347W        W44607  43.867  43.917  11.555
72348W        W44608  41.306  36.178  10.497
72349W        W44609  18.022  16.662  11.650
72350W        W44610  36.071  20.711  14.996
72351W        W44611   4.238  14.588   3.692
72352W        W44612  37.956  43.536   4.844
72353W        W44613  13.776  27.743  14.723
72354W        W44614  40.992  14.831  13.317
72355W        W44615  40.692  15.798   3.248
72356W        W44616  27.495  25.696  12.469
72357W        W44617  39.336   8.128  10.217
72358W        W44618  21.161  20.635   2.234
72359W        W44619   9.712  32.824  14.081
72360W        W44620  27.775  32.000   2.379
72361W        W44621  13.613  16.821  12.337
72362W        W44622  28.341  36.948   0.962
72363W        W44623  41.508  37.048  12.478
72364W        W44624  27.954  25.678   2.354
72365W        W44625  36.626   8.930  12.626
72366W        W44626  28.835  28.233  13.002
72367W        W44627   9.947  17.215   4.010
72368W        W44628  41.955  43.730  12.981
72369W        W44629  29.404  36.916   0.851
72370W        W44630  43.725  35.038   1.386
72371W        W44631  28.124  38.544   4.512
72372W        W44632  41.006  33.484  13.751
72373W        W44633   0.807  21.212   0.936
72374W        W44634  16.910   5.950   0.029
72375W        W44635  44.679  33.323  12.093
72376W        W44636   1.326  25.668   2.890
72377W        W44637  39.339  36.568  14.887
72378W        W44638   8.136  12.127   0.037
72379W        W44639  11.138  15.130  11.700
72380W        W44640  40.456  35.571   1.000
72381W        W44641  11.188  11.558   0.598
72382W        W44642   1.552  37.938  10.521
72383W        W44643  13.513  31.784  12.925
72384W        W44644  30.624  26.421  13.983
72385W        W44645  19.006   9.884  11.070
72386W        W44646  26.781   7.368   0.806
72387W        W44647   7.308  34.087  14.549
72388W        W44648   6.263  36.282   2.821
72389W        W44649  39.618  21.174  12.394
72390W        W44650  34.088  30.178  11.588
72391W        W44651   4.832  28.622   2.792
72392W        W44652   0.877  30.255  12.551
72393W        W44653  30.357  36.723  11.141
72394W        W44654  37.887   5.777  11.513
72395W        W44655  13.174  44.850  14.460
72396W        W44656  23.028   4.125   1.703
72397W        W44657  11.150  14.232  12.016
72398W        W44658   2.052  21.172   0.131
72399W        W44659  36.930  21.641   4.818
72400W        W44660  28.881  21.431  10.500
72401W        W44661  28.193  10.862   2.405
72402W        W44662  42.456  15.879  14.931
72403W        W44663  19.611  29.909   4.206
72404W        W44664  10.463   5.133  11.631
72405W        W44665   2.477  41.777   1.717
72406W        W44666  42.102  33.364   1.322
72407W        W44667  20.562  41.379  14.020
72408W        W44668  22.215  27.970   1.381
72409W        W44669  30.619  35.945  12.109
72410W        W44670  38.041  33.445   0.183
72411W        W44671  14.346  19.165   4.478
72412W        W44672  39.349  15.450   2.306
72413W        W44673  12.026  22.850  11.068
72414W        W44674   4.473  36.153  11.129
72415W        W44675  11.817   4.405   4.161
72416W        W44676  33.603  19.535   3.572
72417W        W44677   3.403  15.766   4.161
72418W        W44678  30.745  34.294   3.205
72419W        W44679  10.550  29.277  11.120
72420W        W44680  18.851  33.108   0.313
72421W        W44681  11.924  40.796   2.712
72422W        W44682  29.977   8.378   0.429
72423W        W44683  26.422  38.992  10.005
72424W        W44684  40.126  24.202  13.368
72425W        W44685  33.614  35.963  12.387
72426W        W44686  27.643   2.528   4.560
72427W        W44687  19.684  26.740  12.650
72428W        W44688  14.808   5.372  14.283
72429W        W44689  34.152  22.579   1.462
72430W        W44690   2.320  18.274   0.262
72431W        W44691  17.777   5.442  11.234
72432W        W44692  26.584   1.965   3.892
72433W        W44693  10.058  26.344  10.247
72434W        W44694   7.376  41.557   2.115
72435W        W44695  41.844  19.217   3.886
72436W        W44696   5.347  27.576  14.659
72437W        W44697  36.112  12.274   3.172
72438W        W44698  25.691  15.678   3.687
72439W        W44699   9.871  15.407  12.464
72440W        W44700  11.904  40.385  11.998
72441W        W44701  27.432  28.892   1.316
72442W        W44702  19.571   4.380   2.718
72443W        W44703  44.637  22.179  11.621
72444W        W44704  21.420  14.999  12.300
72445W        W44705  34.612   0.034  11.679
72446W        W44706  14.055  15.246  10.668
72447W        W44707   9.151  24.736  11.577
72448W        W44708  40.136  44.398  14.452
72449W        W44709   0.725  29.082   4.289
72450W        W44710   0.112  19.376   4.609
72451W        W44711  36.933   7.881  14.346
72452W        W44712  43.994  10.864   1.465
72453W        W44713  40.739  39.873   1.627
72454W        W44714  28.573   2.263   0.579
72455W        W44715  27.029  18.160   3.416
72456W        W44716   7.334   8.335  13.999
72457W        W44717  20.745  29.396  14.455
72458W        W44718  31.912  27.738  11.911
72459W        W44719  26.288  15.777  10.887
72460W        W44720  40.519  16.016   0.679
72461W        W44721   2.889  26.993  12.937
72462W        W44722  36.374  26.340  11.223
72463W        W44723  35.498  18.983   0.508
72464W        W44724   4.292   4.746  10.625
72465W        W44725   6.289  24.201  14.028
72466W        W44726  31.432  34.904   0.701
72467W        W44727  32.131  11.822   0.850
72468W        W44728  31.622  34.865  11.585
72469W        W44729  27.373  43.511   3.315
72470W        W44730  30.918  28.885  11.536
72471W        W44731  13.218  14.585  11.588
72472W        W44732  17.574  39.056   2.674
72473W        W44733  38.732   1.227   0.165
72474W        W44734  10.776  23.093   3.631
72475W        W44735  26.232   2.008  11.554
72476W        W44736  44.797  41.876   0.349
72477W        W44737  34.559  26.558   2.681
72478W        W44738  43.548  30.904  11.176
72479W        W44739  22.748  31.203   2.133
72480W        W44740  15.704  20.559   2.767
72481W        W44741  16.805  13.482  12.617
72482W        W44742   6.825  34.818  10.545
72483W        W44743  44.007   0.452   2.727
72484W        W44744   1.346   3.035  10.713
72485W        W44745  38.942   4.474  11.590
72486W        W44746  38.270  35.274   0.489
72487W        W44747  19.082  34.674   0.552
72488W        W44748  18.388  34.105   1.031
72489W        W44749  32.103  40.041  11.446
72490W        W44750  42.861  29.298   2.385
72491W        W44751  22.184   7.365  10.579
72492W        W44752   4.135  31.118  13.941
72493W        W44753   4.521  16.338   3.663
72494W        W44754  41.504  12.830   0.599
72495W        W44755   5.718   2.369  10.742
72496W        W44756  42.903  40.833   4.489
72497W        W44757  37.898  15.670   3.175
72498W        W44758  43.819   9.361   1.167
72499W        W44759  33.957  42.957  13.853
72500W        W44760  38.907   6.915   1.720
72501W        W44761   1.716  11.408  13.616
72502W        W44762  44.480  11.542   5.218
72503W        W44763  13.820  12.139  12.087
72504W        W44764   0.282  14.746   1.936
72505W        W44765  17.546  32.947   2.915
72506W        W44766   1.391  15.633  13.019
72507W        W44767  19.766   4.565   4.697
72508W        W44768  10.768  24.273  14.895
72509W        W44769  20.094   7.839  10.683
72510W        W44770  38.435  15.539  13.485
72511W        W44771   2.291  31.867   2.716
72512W        W44772  26.352   5.191   2.800
72513W        W44773   2.443   1.923  13.626
72514W        W44774  13.515  15.332  14.744
72515W        W44775   1.739  43.345   1.196
72516W        W44776  40.378  37.122   0.531
72517W        W44777  26.121  43.315  11.233
72518W        W44778  25.328  20.344  13.600
72519W        W44779  24.101  10.912   2.916
72520W        W44780  25.422   8.735   3.559
72521W        W44781   0.680  12.244  13.211
72522W        W44782  35.728  39.916   2.807
72523W        W44783  25.903  24.923   2.314
72524W        W44784  13.266  19.756   4.484
72525W        W44785  33.338  42.084   1.931
72526W        W44786   5.218  42.216   1.729
72527W        W44787  19.823  19.489  12.906
72528W        W44788  14.520  30.814   2.310
72529W        W44789  43.747  33.611   0.445
72530W        W44790  15.119  15.991   4.505
72531W        W44791  36.530  32.445   2.315
72532W        W44792   1.284  29.698   2.786
72533W        W44793  11.603  28.976   2.307
72534W        W44794  21.289  40.865  11.632
72535W        W44795  33.286   0.930   1.018
72536W        W44796  28.954  14.511  11.420
72537W        W44797   9.224  31.351  11.131
72538W        W44798  19.469   0.243  13.905
72539W        W44799  38.490  33.308  14.943
72540W        W44800  22.601  18.445  10.236
72541W        W44801  18.624  44.085   0.772
72542W        W44802  11.880  18.655   0.992
72543W        W44803  30.950  29.882   9.714
72544W        W44804  35.670  32.951  13.868
72545W        W44805  38.564  43.364  11.531
72546W        W44806  25.473   8.835  11.876
72547W        W44807  16.317  24.006   0.911
72548W        W44808  41.798  41.895   1.834
72549W        W44809  38.434  40.777   3.010
72550W        W44810  38.971  43.679  11.548
72551W        W44811  22.584  44.960  12.955
72552W        W44812   0.782  20.467   1.475
72553W        W44813  19.360  16.632   4.232
72554W        W44814   0.041  11.959  11.317
72555W        W44815  24.294  24.017   0.858
72556W        W44816  21.494  17.857  13.370
72557W        W44817  31.958  35.095   1.472
72558W        W44818  39.451  32.220  11.905
72559W        W44819   4.046   5.426   1.950
72560W        W44820   0.860  26.780  11.933
72561W        W44821  41.723   9.543  13.467
72562W        W44822  42.575  24.613  14.437
72563W        W44823  14.637  33.266  12.647
72564W        W44824   8.286  20.727  13.509
72565W        W44825  27.454  10.585   1.256
72566W        W44826   9.116   5.258   3.260
72567W        W44827  30.069  27.586  11.513
72568W        W44828  40.519  37.023  12.503
72569W        W44829   9.903  40.036  11.595
72570W        W44830  33.893  31.459   3.604
72571W        W44831  26.946   4.894  13.452
72572W        W44832  12.704   9.237   0.433
72573W        W44833  15.590   7.228   0.394
72574W        W44834  42.488  18.144   3.117
72575W        W44835   5.326   6.799  13.472
72576W        W44836  18.171  34.565   4.086
72577W        W44837  30.298   2.997   1.617
72578W        W44838  11.616  24.479   0.495
72579W        W44839  24.119  40.515  12.496
72580W        W44840  39.575   7.629   4.126
72581W        W44841  26.198  13.055  14.503
72582W        W44842  10.483   3.531   5.217
72583W        W44843  13.439  31.063   4.013
72584W        W44844   0.371  39.967   2.173
72585W        W44845  22.018  44.990   1.776
72586W        W44846  43.901   1.477   2.792
72587W        W44847  21.518  31.058  13.617
72588W        W44848  17.860  16.925  13.000
72589W        W44849  43.919  44.483  10.449
72590W        W44850  44.216   7.190   0.744
72591W        W44851  10.859   5.377  14.756
72592W        W44852   0.451  43.406   4.697
72593W        W44853  16.637  12.113  13.355
72594W        W44854   2.288   7.153   0.319
72595W        W44855  33.548   3.782  11.713
72596W        W44856  35.079   1.726   2.356
72597W        W44857  33.418  36.930   4.577
72598W        W44858  39.003   7.359   2.427
72599W        W44859  25.685  34.935  14.823
72600W        W44860  40.266  41.673  13.454
72601W        W44861   9.454   0.536  13.497
72602W        W44862  19.967  39.235  12.580
72603W        W44863  15.023  31.141  14.224
72604W        W44864  34.196  13.133  10.715
72605W        W44865   9.152  43.477  11.377
72606W        W44866   6.125  40.523   1.343
72607W        W44867  27.285  21.543   2.662
72608W        W44868  39.709   7.207   5.093
72609W        W44869  18.228   4.374   2.091
72610W        W44870  34.665  43.520   1.793
72611W        W44871  29.499  34.434   0.400
72612W        W44872  19.041  19.485   9.897
72613W        W44873  42.300  36.126  12.062
72614W        W44874  41.925  24.596  12.634
72615W        W44875  19.195  10.068   0.298
72616W        W44876  33.138  41.847  14.240
72617W        W44877  16.321  11.177   3.333
72618W        W44878  44.932  34.676  12.278
72619W        W44879   1.674  32.683   3.253
72620W        W44880  32.591  37.481   2.098
72621W        W44881   6.897   0.524  12.322
72622W        W44882  14.005   8.036   4.013
72623W        W44883   2.030   3.333   4.528
72624W        W44884  37.637  22.974  12.022
72625W        W44885  30.261  38.058   3.998
72626W        W44886  24.620   3.426  11.176
72627W        W44887  24.678  14.276  14.351
72628W        W44888  37.545  13.592  14.767
72629W        W44889  14.675  23.101   0.724
72630W        W44890  42.261  43.966   1.496
72631W        W44891  24.002  24.899   1.268
72632W        W44892   4.544   7.176  11.625
72633W        W44893  18.488  17.978  13.604
72634W        W44894  29.669  32.989   0.012
72635W        W44895  44.480  35.567   2.986
72636W        W44896  41.879  36.961  10.724
72637W        W44897  40.341  42.881   2.645
72638W        W44898  23.621  38.998  14.009
72639W        W44899   2.494  35.626   0.456
72640W        W44900  40.013  38.470   3.295
72641W        W44901  12.293  12.167  11.598
72642W        W44902   3.718  20.278  11.969
72643W        W44903  17.038   0.473  13.007
72644W        W44904  18.221   0.366   3.263
72645W        W44905  27.550   9.051  10.134
72646W        W44906  20.480  34.418   2.417
72647W        W44907  35.131  11.959  14.653
72648W        W44908   1.331   5.554   2.592
72649W        W44909  33.978  43.934  13.796
72650W        W44910  42.326  20.582   1.589
72651W        W44911  32.415  23.277   2.457
72652W        W44912  34.697  22.702  12.994
72653W        W44913   5.800   0.974   4.955
72654W        W44914  34.488  35.521  13.034
72655W        W44915  10.681  26.243  11.938
72656W        W44916  26.498  19.833   1.750
72657W        W44917  32.079   8.444  11.021
72658W        W44918  10.835   5.628  12.604
72659W        W44919  20.104  31.566  12.151
72660W        W44920  42.395  31.611  13.546
72661W        W44921   0.329  32.688   1.369
72662W        W44922   9.286  27.994  14.514
72663W        W44923   3.355  10.298  13.431
72664W        W44924  41.890  18.935  13.499
72665W        W44925  29.665  38.551   4.481
72666W        W44926   8.486  10.648   4.066
72667W        W44927   6.200  38.433   3.217
72668W        W44928  28.631   4.458  10.921
72669W        W44929   5.281   7.667  12.293
72670W        W44930  31.184  14.302  14.002
72671W        W44931  21.788  20.280   1.491
72672W        W44932  42.017   7.850  12.108
72673W        W44933  33.339  25.977  10.715
72674W        W44934  31.398  30.669   1.935
72675W        W44935  22.589  23.479  10.302
72676W        W44936  12.659  44.776   4.610
72677W        W44937  44.809  32.045   2.405
72678W        W44938  13.596  24.455   3.288
72679W        W44939   5.280  42.522   2.731
72680W        W44940  34.224  18.723   2.040
72681W        W44941  39.756  16.520   0.329
72682W        W44942  42.759  23.269  11.503
72683W        W44943   2.765  11.089   2.624
72684W        W44944   8.993  31.763   0.779
72685W        W44945  37.447  42.391   4.330
72686W        W44946  17.934  14.524  12.536
72687W        W44947  37.451  36.094   0.075
72688W        W44948   2.341  38.980  10.652
72689W        W44949   6.261  29.917  12.812
72690W        W44950  35.555   6.880  14.373
72691W        W44951  28.632   9.655   0.376
72692W        W44952  10.314   2.952  13.829
72693W        W44953   6.691   5.583  12.153
72694W        W44954  37.350  30.649  12.974
72695W        W44955   7.942  20.207  14.396
72696W        W44956  19.250  23.628   2.438
72697W        W44957  25.672   5.837   2.883
72698W        W44958   2.019  23.712   4.164
72699W        W44959   0.778  35.929  13.042
72700W        W44960   8.748  44.033   3.668
72701W        W44961  35.079  12.067  10.781
72702W        W44962  33.372   9.852  14.412
72703W        W44963  36.963  22.519  14.357
72704W        W44964  24.843  32.727  13.288
72705W        W44965  25.094  26.382   4.673
72706W        W44966  18.778   9.443   4.167
72707W        W44967   9.393  11.798  12.877
72708W        W44968  42.472  40.461  14.732
72709W        W44969   0.878  13.107  10.533
72710W        W44970  13.554  17.340  14.404
72711W        W44971  12.118  22.562  14.052
72712W        W44972  11.953  14.523   4.922
72713W        W44973   5.013  18.026   1.199
72714W        W44974  16.758  14.178   2.796
72715W        W44975  24.514  17.202   4.304
72716W        W44976  39.519   3.874   0.263
72717W        W44977   2.242  28.086  13.847
72718W        W44978   6.271  37.949   3.335
72719W        W44979  15.927  17.075  11.938
72720W        W44980  19.595  44.434   3.428
72721W        W44981  12.446   8.294  12.957
72722W        W44982  16.481   7.188   2.876
72723W        W44983  39.118  15.580  13.842
72724W        W44984  18.344  28.789  10.152
72725W        W44985  22.035  40.884  14.765
72726W        W44986  39.249   2.322   4.582
72727W        W44987  18.883  17.162   3.216
72728W        W44988  20.174  32.598  10.719
72729W        W44989  39.234  28.982  14.578
72730W        W44990  20.722  36.068   2.909
72731W        W44991  16.549  42.865   2.814
72732W        W44992  43.974  21.645  11.945
72733W        W44993  30.987  35.073   0.941
72734W        W44994   9.904  33.903   3.565
72735W        W44995  40.347   2.571  11.899
72736W        W44996  28.949   7.854   0.848
72737W        W44997  24.169  19.344  13.003
72738W        W44998  42.807   1.882  10.521
72739W        W44999  12.305  17.579  12.876
72740W        W45000  38.064  16.814  14.396
72741W        W45001   9.216   8.743   0.828
72742W        W45002   9.266   8.090  11.574
72743W        W45003   3.017  12.316   0.203
72744W        W45004  34.477  22.614  13.500
72745W        W45005  26.802  18.525   1.361
72746W        W45006   8.651   9.267  13.281
72747W        W45007  34.825  35.892  12.856
72748W        W45008  19.576  42.416   4.716
72749W        W45009  35.703   9.776  11.506
72750ION    NA+45010  24.805   8.485   4.224
72751ION    NA+45011   9.926  10.959  10.716
72752ION    NA+45012  19.286  35.585  14.478
72753ION    NA+45013  19.596   3.644  11.244
72754ION    NA+45014  44.441  12.381   0.660
72755ION    NA+45015  28.076  43.295   2.166
72756ION    NA+45016  10.449  10.197  11.099
72757ION    NA+45017  29.574  21.017   3.202
72758ION    NA+45018   2.925  33.284   1.280
72759ION    NA+45019  10.368  36.793   2.574
72760ION    NA+45020   2.433   1.663  14.102
72761ION    NA+45021  18.704  43.034  13.261
72762ION    NA+45022  11.582   3.372  10.817
72763ION    NA+45023   2.165   6.841  12.579
72764ION    NA+45024  35.899   9.428  11.130
72765ION    NA+45025  12.892  23.055   1.911
72766ION    NA+45026  30.184  43.494   4.349
72767ION    NA+45027  39.382  19.500  11.005
72768ION    NA+45028   8.306  30.271   0.055
72769ION    NA+45029  32.476   1.164   4.183
72770ION    NA+45030  22.869  11.757  11.359
72771ION    NA+45031  37.026  42.359   0.320
72772ION    NA+45032  26.745  17.319   3.309
72773ION    NA+45033  20.081  16.882   1.564
72774ION    NA+45034  31.833  17.833  12.819
72775ION    NA+45035   2.068   0.765  12.113
72776ION    NA+45036  10.770  38.808  14.690
72777ION    NA+45037   0.803   3.731  12.543
72778ION    NA+45038  23.670  42.946   1.064
72779ION    NA+45039  25.212  15.615  12.030
72780ION    NA+45040   1.101  36.543   1.606
72781ION    NA+45041  11.637  12.050  11.782
72782ION    NA+45042  17.083  39.175  10.128
72783ION    NA+45043   2.462  39.057  10.090
72784ION    NA+45044   7.446   4.933  13.473
72785ION    NA+45045  14.943   3.241  13.610
72786ION    NA+45046   7.228  33.190  12.462
72787ION    NA+45047   2.255  10.505   0.401
72788ION    NA+45048  39.644  36.625   2.350
72789ION    NA+45049   6.696  20.207   4.531
72790ION    NA+45050  35.165  10.653  12.427
72791ION    NA+45051   7.338  22.744   4.006
72792ION    NA+45052  41.735  41.312   0.931
72793ION    NA+45053  43.787  14.885   2.909
72794ION    NA+45054  38.867  35.888   2.486
72795ION    NA+45055  41.966  21.062  14.371
72796ION    NA+45056  28.546  17.425   1.985
72797ION    NA+45057   1.144  32.259   1.640
72798ION    NA+45058   7.834  41.323  12.281
72799ION    NA+45059  31.048  26.153   4.664
72800ION    NA+45060  31.891  32.894   1.640
72801ION    NA+45061   6.644  20.460   3.547
72802ION    NA+45062   5.495  21.050   2.294
72803ION    NA+45063  15.097  37.614   4.112
72804ION    NA+45064  44.542  28.766   4.114
72805ION    NA+45065  21.970  35.554  13.487
72806ION    NA+45066   3.022  21.067   0.451
72807ION    NA+45067   2.695   0.607   2.408
72808ION    NA+45068  34.449   7.464   2.839
72809ION    NA+45069  40.289  12.928  14.367
72810ION    NA+45070   7.200  40.037  12.560
72811ION    NA+45071  17.793  10.907  13.050
72812ION    NA+45072  20.142   4.195  11.875
72813ION    NA+45073  38.888  28.252  11.513
72814ION    NA+45074  27.758  37.722   1.688
72815ION    NA+45075  40.147  33.044  12.130
72816ION    NA+45076  31.729  35.532   4.796
72817ION    NA+45077   1.287  40.112   4.043
72818ION    NA+45078   3.277   4.313  10.572
72819ION    NA+45079   0.448  29.189  11.644
72820ION    NA+45080  21.378  16.733   2.448
72821ION    NA+45081  21.057  38.545   2.550
72822ION    NA+45082  14.390  28.618  11.835
72823ION    NA+45083  18.863  16.226   2.099
72824ION    NA+45084  36.393  28.155   2.436
72825ION    NA+45085  21.488  36.937  12.334
72826ION    NA+45086  33.007  20.918   0.765
72827ION    NA+45087  31.466  31.036   1.178
72828ION    NA+45088  31.882  40.128   1.529
72829ION    NA+45089  43.756  34.139   0.430
72830ION    NA+45090  30.912  37.525  14.049
72831ION    NA+45091  27.449  16.230   2.616
72832ION    NA+45092  15.593  40.640  13.428
72833ION    NA+45093  13.038  39.918   0.566
72834ION    NA+45094  13.376  40.148   1.478
72835ION    NA+45095  17.779  18.770  14.469
72836ION    NA+45096   0.665  18.426  11.191
72837ION    NA+45097   2.718  17.128  12.328
72838ION    NA+45098  32.829  22.470  12.592
72839ION    NA+45099  18.807   0.250  12.463
72840ION    NA+45100   8.851   7.417   3.136
72841ION    NA+45101   7.848  31.073  12.193
72842ION    NA+45102   3.008  14.853   3.868
72843ION    NA+45103  44.209   0.571  11.107
72844ION    NA+45104  22.786   6.380  13.464
72845ION    NA+45105  16.991   0.024  10.320
72846ION    NA+45106  21.977  30.282  14.655
72847ION    NA+45107   0.825   1.292   3.658
72848ION    NA+45108  42.888  37.748   1.367
72849ION    NA+45109  22.460  23.131  13.919
72850ION    NA+45110  29.732  21.038  13.907
72851ION    NA+45111   5.200  17.071  13.624
72852ION    NA+45112   4.696  37.969   4.523
72853ION    NA+45113  17.462  24.816   3.263
72854ION    NA+45114  29.872   5.907   4.644
72855ION    NA+45115  14.388  11.852   1.841
72856ION    NA+45116  39.919  25.947  13.812
72857ION    NA+45117  22.539   6.451   3.645
72858ION    NA+45118  27.350   4.025   2.145
72859ION    NA+45119  40.565  38.441  11.540
72860ION    NA+45120  28.662  35.722   3.309
72861ION    NA+45121  43.768  16.502  11.306
72862ION    NA+45122  21.264  34.831  14.932
72863ION    NA+45123  23.306   4.690   1.415
72864ION    NA+45124  30.068   7.672  11.984
72865ION    NA+45125  10.491  28.734  12.744
72866ION    NA+45126  15.063  40.298  12.651
72867ION    NA+45127  38.257  44.502   3.238
72868ION    NA+45128   2.081   4.252   3.828
72869ION    NA+45129  33.683   2.487  12.444
72870ION    NA+45130   2.953  30.028   3.424
72871ION    NA+45131   9.577  27.688   1.728
72872ION    NA+45132  35.554   0.371  13.793
72873ION    NA+45133  43.514  13.582   2.609
72874ION    NA+45134   1.221  44.877   3.902
72875ION    NA+45135  26.822  26.405   4.136
72876ION    NA+45136   0.740  20.954   0.471
72877ION    NA+45137   3.432  39.435   1.357
72878ION    NA+45138  12.217   9.884   3.794
72879ION    NA+45139  21.866   0.202   3.521
72880ION    NA+45140  22.890  20.972  10.715
72881ION    NA+45141   9.109   3.759  13.431
72882ION    NA+45142  24.020  31.645   1.884
72883ION    NA+45143  41.513  29.896  10.951
72884ION    NA+45144  15.895  17.778   2.810
72885ION    NA+45145  12.176  17.094   2.136
72886ION    NA+45146  38.483   8.441   0.662
72887ION    NA+45147  37.052   3.877  14.323
72888ION    NA+45148  38.649  14.344   1.658
72889ION    NA+45149  40.779  28.723   2.999
72890ION    NA+45150   8.300  35.967   2.170
72891ION    NA+45151  27.222  15.055   4.685
72892ION    NA+45152  38.900   6.911  13.837
72893ION    NA+45153  30.339  19.340   0.320
72894ION    NA+45154  38.180  34.426   0.916
72895ION    NA+45155  21.942  32.455  11.587
72896ION    NA+45156   0.853   1.517  10.632
72897ION    NA+45157   6.043  43.018   4.725
72898ION    NA+45158  18.908  23.134   5.121
72899ION    NA+45159   5.589  41.833  11.124
72900ION    NA+45160  22.771  38.545   1.084
72901ION    NA+45161  20.789  19.213   3.179
72902ION    NA+45162   7.037  13.159  12.100
72903ION    NA+45163  29.984  26.799  12.763
72904ION    NA+45164  28.220  44.414   1.282
72905ION    NA+45165  21.624  38.555  11.908
72906ION    NA+45166  26.056  27.088  12.957
72907ION    NA+45167  21.851  28.323  10.603
72908ION    NA+45168  18.198  22.335   2.658
72909ION    NA+45169  36.202  30.491  14.018
72910ION    NA+45170  42.451  41.209   0.215
72911ION    NA+45171   1.153  39.375  12.376
72912ION    NA+45172   8.789  32.691   0.301
72913ION    NA+45173  22.878  41.761   9.899
72914ION    NA+45174  19.267   1.267  13.595
72915ION    NA+45175  27.252  31.490  10.103
72916ION    NA+45176  43.345  30.891   3.666
72917ION    NA+45177  33.914  11.804  14.705
72918ION    NA+45178  36.145   3.979  11.373
72919ION    NA+45179  10.707  20.184   0.711
72920ION    NA+45180  29.392  43.153   4.171
72921ION    NA+45181  40.212  40.471   4.603
72922ION    NA+45182   0.515   7.868   4.505
72923ION    NA+45183  22.759   3.116  10.750
72924ION    NA+45184  30.692   6.216  12.887
72925ION    NA+45185   9.518  43.639  14.881
72926ION    NA+45186   6.166  26.165   3.359
72927ION    NA+45187  28.806  12.170   3.718
72928ION    NA+45188  26.638  10.145  11.175
72929ION    NA+45189  33.369  20.087   0.342
72930ION    NA+45190  26.709  31.042   4.351
72931ION    NA+45191   8.752   8.761   2.843
72932ION    NA+45192  33.982  22.336   3.082
72933ION    NA+45193  19.408  35.052  12.875
72934ION    NA+45194  14.108  38.654  14.798
72935ION    NA+45195  37.127  41.126  10.775
72936ION    NA+45196  24.733   9.268   3.715
72937ION    NA+45197   0.569  41.461   5.008
72938ION    NA+45198  32.452   2.351   2.086
72939ION    NA+45199   1.585   6.311   4.250
72940ION    NA+45200  20.232  27.416  13.915
72941ION    NA+45201  20.754  30.449  11.344
72942ION    NA+45202  35.851  28.570   1.066
72943ION    NA+45203  27.734  27.166  13.052
72944ION    NA+45204   4.876  24.573  14.597
72945ION    NA+45205  15.296  33.618   2.550
72946ION    NA+45206  33.808  27.598  10.230
72947ION    NA+45207   5.684   8.566   1.756
72948ION    NA+45208  14.142  42.088  14.054
72949ION    NA+45209  39.066  28.635  14.937
72950ION    NA+45210   1.658  12.909   3.593
72951ION    NA+45211  32.384  31.227   0.832
72952ION    NA+45212  42.961   0.427  14.051
72953ION    NA+45213  28.657  23.898   4.056
72954ION    NA+45214  38.961  31.612   2.145
72955ION    NA+45215  29.904  19.731   3.699
72956ION    NA+45216  20.705  26.942  10.873
72957ION    NA+45217  35.855  15.965   2.008
72958ION    NA+45218  23.569  30.999  10.126
72959ION    NA+45219  40.628  36.801   2.369
72960ION    NA+45220  41.575  44.803  10.964
72961ION    NA+45221  10.749  30.586   4.189
72962ION    NA+45222  35.990  11.938  14.750
72963ION    NA+45223  14.546  12.293   4.223
72964ION    NA+45224  36.328  34.887  13.886
72965ION    NA+45225  16.251   3.487  10.737
72966ION    NA+45226  44.383  28.264   0.867
72967ION    NA+45227   0.765  41.241   0.945
72968ION    NA+45228  16.868  40.703   4.665
72969ION    NA+45229  12.233   9.477  11.145
72970ION    NA+45230  12.529  20.163  10.468
72971ION    NA+45231   1.814  32.872   3.725
72972ION    NA+45232  25.922  22.112  14.882
72973ION    NA+45233  18.414  33.925   5.082
72974ION    NA+45234  37.664  32.877  14.527
72975ION    NA+45235  15.369  38.377  13.253
72976ION    NA+45236   6.307  43.851  12.944
72977ION    NA+45237  26.574  14.383   0.746
72978ION    NA+45238  28.705   5.430  13.241
72979ION    NA+45239  10.814  21.796   0.558
72980ION    NA+45240   6.497   3.573   2.192
72981ION    NA+45241   8.334  13.870  11.109
72982ION    NA+45242  39.062  17.805  11.961
72983ION    NA+45243  29.337   1.746  12.099
72984ION    NA+45244  15.198   9.360  12.216
72985ION    NA+45245  27.449  35.158   2.484
72986ION    NA+45246   4.236   6.733   2.735
72987ION    NA+45247  31.944  18.794   0.454
72988ION    NA+45248  14.711   8.606   2.137
72989ION    NA+45249  38.116   1.899   5.409
72990ION    NA+45250  29.706  20.984  11.226
72991ION    NA+45251  29.230  19.994  13.045
72992ION    NA+45252  40.210  15.815  12.029
72993ION    NA+45253   9.653  17.731  10.504
72994ION    NA+45254  43.008  17.127  14.465
72995ION    NA+45255  11.739  32.481   3.799
72996ION    NA+45256  30.251  20.973   2.467
72997ION    NA+45257  13.185   9.041   0.703
72998ION    NA+45258  34.025  11.798  10.313
72999ION    NA+45259  37.370  29.626   3.235
73000ION    NA+45260  20.323  24.592  10.667
73001ION    NA+45261  20.934   0.341  12.043
73002ION    NA+45262  42.381  14.146   1.310
73003ION    NA+45263   5.167  13.854   2.326
73004ION    NA+45264  11.040   1.695  12.070
73005ION    NA+45265  19.114  22.572  11.496
73006ION    NA+45266  30.181  15.521   1.487
73007ION    NA+45267  18.157  25.743  14.459
73008ION    NA+45268   0.265  41.208  13.285
73009ION    NA+45269  31.635  32.138   1.133
73010ION    NA+45270  13.096   1.996   2.655
73011ION    NA+45271  38.442  40.111   4.636
73012ION    NA+45272  35.178   1.795   1.620
73013ION    NA+45273  17.769  26.200  11.873
73014ION    NA+45274  28.174  31.413  11.065
73015ION    NA+45275  14.105  29.971  14.489
73016ION    NA+45276   3.404  23.737   3.786
73017ION    NA+45277  23.390  42.999  13.662
73018ION    NA+45278  24.323  12.743  14.372
73019ION    NA+45279   7.104   9.704  10.822
73020ION    NA+45280   4.403   5.066  13.327
73021ION    NA+45281  20.913  43.266   2.942
73022ION    NA+45282  11.703  22.517  10.158
73023ION    NA+45283  25.979   5.016   1.641
73024ION    NA+45284  18.033  31.293  13.272
73025ION    NA+45285  12.491  35.633  13.715
73026ION    NA+45286   6.690  24.087   1.715
73027ION    NA+45287  23.101  11.478   2.722
73028ION    NA+45288  19.479  32.098   5.347
73029ION    NA+45289  25.911   1.438  14.171
73030ION    NA+45290  27.942  24.999   1.743
73031ION    NA+45291   8.479  31.837   0.720
73032ION    NA+45292  22.762  18.276   0.731
73033ION    NA+45293   2.986  18.059   4.625
73034ION    NA+45294  41.048   0.566  11.666
73035ION    NA+45295  19.413  24.978  12.436
73036ION    NA+45296  43.364  28.750   4.922
73037ION    NA+45297  18.665  33.895  13.342
73038ION    NA+45298  24.798  12.616   3.898
73039ION    NA+45299   0.332  18.500   4.510
73040ION    NA+45300   7.225  10.668  14.503
73041ION    NA+45301  36.155  17.719  13.605
73042ION    NA+45302  30.853   5.718   4.703
73043ION    NA+45303  14.935  23.102   3.666
73044ION    NA+45304  25.229   1.525  13.445
73045ION    NA+45305  12.677  12.382   3.305
73046ION    NA+45306  23.510   8.107  11.439
73047ION    NA+45307  44.474  26.570  13.552
73048ION    NA+45308   8.895  31.032  12.927
73049ION    NA+45309  19.267  12.880  10.562
73050ION    NA+45310  15.425  43.849  12.676
73051ION    NA+45311  34.183  14.614   0.075
73052ION    NA+45312  21.396  21.335   2.710
73053ION    NA+45313   0.235  12.605   3.272
73054ION    NA+45314  37.866  19.083  11.679
73055ION    NA+45315  28.354  22.026   1.261
73056ION    NA+45316  21.369  15.386   2.228
73057ION    NA+45317   9.511  33.972  10.689
73058ION    NA+45318   2.271  14.251   3.560
73059ION    NA+45319  12.790  21.925   4.634
73060ION    NA+45320  17.238  39.063   1.745
73061ION    NA+45321  15.660  21.724  13.069
73062ION    NA+45322  10.656  42.398   0.753
73063ION    NA+45323  37.186  34.643   1.050
73064ION    NA+45324  17.230  30.944   2.620
73065ION    NA+45325  25.020  25.830   1.217
73066ION    NA+45326   7.676  23.768   2.545
73067ION    NA+45327  38.952  11.574  14.283
73068ION    NA+45328  12.780  42.731   1.819
73069ION    NA+45329  27.064  19.732   0.804
73070ION    NA+45330  39.516  22.418   0.131
73071ION    NA+45331  18.849   5.180  13.366
73072ION    NA+45332  29.122   5.203  10.736
73073ION    NA+45333  34.060  14.825  10.767
73074ION    NA+45334  16.687  29.852  12.045
73075ION    NA+45335   6.696   6.357  13.283
73076ION    NA+45336   4.707  26.250   2.740
73077ION    NA+45337   1.067  32.451   2.520
73078ION    NA+45338  41.037  43.016   2.888
73079ION    NA+45339  40.596  24.539  11.089
73080ION    NA+45340  39.918  25.249   3.383
73081ION    NA+45341  35.358  26.795  10.706
73082ION    NA+45342  22.184  43.855   2.909
73083ION    NA+45343  18.389   3.020  13.100
73084ION    NA+45344  13.294  11.297  14.374
73085ION    NA+45345  44.381   8.237   2.713
73086ION    NA+45346   0.639  14.296  14.721
73087ION    NA+45347   1.241  20.257  13.012
73088ION    NA+45348  38.224  26.843  12.621
73089ION    NA+45349   4.472  10.247   4.288
73090ION    NA+45350  36.082  19.329  12.700
73091ION    NA+45351  10.411  17.556  11.184
73092ION    NA+45352  15.686  27.931   1.822
73093ION    NA+45353  20.316  31.077  12.659
73094ION    NA+45354  14.559  30.411  12.558
73095ION    NA+45355   7.660  41.504   0.324
73096ION    NA+45356   2.142   5.425   1.929
73097ION    NA+45357  39.818  39.093   2.846
73098ION    NA+45358   0.261  44.824   3.681
73099ION    NA+45359  30.642  17.008   3.687
73100ION    NA+45360  25.698  21.334   1.821
73101ION    NA+45361  18.046   4.505  12.777
73102ION    NA+45362  10.939  14.994   2.675
73103ION    NA+45363  13.617  13.375  11.512
73104ION    NA+45364  13.646  35.033   2.906
73105ION    NA+45365  24.326  44.852   2.404
73106ION    NA+45366   2.186  14.618  13.588
73107ION    NA+45367  30.079   7.936   1.833
73108ION    NA+45368  42.925   1.513  12.660
73109ION    NA+45369   1.342  34.873  11.940
73110ION    NA+45370  25.367   0.041   3.283
73111ION    NA+45371  38.428   0.262  12.134
73112ION    NA+45372  25.385  22.160   4.521
73113ION    NA+45373  33.975  24.209  14.974
73114ION    NA+45374  32.410  36.907  12.608
73115ION    NA+45375  15.300  27.740   3.779
73116ION    NA+45376  12.602   0.179   0.281
73117ION    NA+45377  25.005  29.370  12.583
73118ION    NA+45378  28.925  44.803   0.860
73119ION    NA+45379  27.980  12.598   1.671
73120ION    NA+45380  27.584  35.452  13.829
73121ION    NA+45381   1.249  17.663  12.851
73122ION    NA+45382  14.548  44.462  12.368
73123ION    NA+45383   2.325  22.853  14.081
73124ION    NA+45384   5.637  14.284   3.490
73125ION    NA+45385  15.172  28.427  14.052
73126ION    NA+45386  11.178  11.119   0.311
73127ION    NA+45387   2.687  32.262   1.258
73128ION    NA+45388  27.638  36.405   4.239
73129ION    NA+45389  18.329  15.114   4.145
73130ION    NA+45390  34.916  25.767   3.121
73131ION    NA+45391  18.125  24.168   2.138
73132ION    NA+45392  22.265  31.505   2.726
73133ION    NA+45393  34.619  11.499   0.346
73134ION    NA+45394   1.929  35.497   1.302
73135ION    NA+45395  13.639   0.312   2.639
73136ION    NA+45396  24.595  17.355  13.661
73137ION    NA+45397  16.623  34.504  13.924
73138ION    NA+45398   1.729  40.826   0.697
73139ION    NA+45399  41.411  19.992  12.639
73140ION    NA+45400  18.825   4.272   1.249
73141ION    NA+45401  42.886  17.351   3.005
73142ION    NA+45402  30.395  24.931   1.860
73143ION    NA+45403  17.784  38.608  10.761
73144ION    NA+45404   0.439   9.130   3.275
73145ION    NA+45405  44.481  23.120  12.616
73146ION    NA+45406  40.108  31.458  14.361
73147ION    NA+45407  42.529  43.598  14.953
73148ION    NA+45408  22.682  24.683   1.293
73149ION    NA+45409  19.356   5.614   4.580
73150ION    NA+45410  31.400   7.667  13.708
73151ION    NA+45411  34.245  32.497   2.249
73152ION    NA+45412  40.510  13.522  12.073
73153ION    NA+45413  21.233  32.729  13.648
73154ION    NA+45414   2.152  37.532   2.146
73155ION    NA+45415  10.122   2.350  10.524
73156ION    NA+45416  14.529  19.569   2.644
73157ION    NA+45417  19.205  20.822  13.006
73158ION    NA+45418  12.195  31.105   4.976
73159ION    NA+45419  15.329  23.929   0.918
73160ION    NA+45420  41.062  21.562   3.961
73161ION    NA+45421  41.830   6.003   4.472
73162ION    NA+45422  32.366  41.777   1.251
73163ION    NA+45423  15.858   5.095  10.342
73164ION    NA+45424  23.872   1.908  14.056
73165ION    NA+45425  39.068  43.811  12.582
73166ION    NA+45426  37.411  29.585  14.171
73167ION    NA+45427  37.304   9.824   9.861
73168ION    NA+45428  32.045  34.819   0.006
73169ION    NA+45429   8.653  21.515   0.527
73170ION    NA+45430  22.451  42.527  12.066
73171ION    NA+45431  34.310  43.813  11.072
73172ION    NA+45432   2.816  29.332   2.573
73173ION    NA+45433  43.794  15.519  13.216
73174ION    NA+45434  39.126  36.421  12.660
73175ION    NA+45435  28.289  26.485  13.419
73176ION    NA+45436  15.557  28.175   0.560
73177ION    NA+45437  22.277  32.367  10.457
73178ION    NA+45438   3.470  27.448  11.737
73179ION    NA+45439  39.038  16.094   9.827
73180ION    NA+45440  21.928  14.697  11.245
73181ION    NA+45441  41.986  43.526  11.822
73182ION    NA+45442   7.004   3.007   1.752
73183ION    NA+45443  14.575  11.086  12.597
73184ION    NA+45444  30.907   3.954   4.365
73185ION    NA+45445  26.114  29.176   1.212
73186ION    NA+45446  41.971  27.146   1.283
73187ION    NA+45447  38.921  43.768   3.088
73188ION    NA+45448  11.750  38.435   0.413
73189ION    NA+45449  25.048  41.793  10.369
73190ION    NA+45450  24.176  10.794  10.706
73191ION    NA+45451  39.415  10.117   2.776
73192ION    NA+45452  43.181  18.512   5.017
73193ION    NA+45453  29.354  17.383   4.987
73194ION    NA+45454  25.573  18.004  12.051
73195ION    NA+45455  19.192  28.585   4.530
73196ION    NA+45456   2.976  12.424   5.067
73197ION    NA+45457   4.795   1.486   1.956
73198ION    NA+45458  29.736  38.518   1.388
73199ION    NA+45459  43.292  19.084  10.748
73200ION    NA+45460   2.658  12.926   3.617
73201ION    NA+45461  15.485  32.253  14.564
73202ION    NA+45462  43.829  37.388   4.365
73203ION    NA+45463  43.179   9.978   2.025
73204ION    NA+45464   6.703  31.683   2.810
73205ION    NA+45465  39.528  31.915   1.113
73206ION    NA+45466   2.236  18.176   1.881
73207ION    NA+45467  19.208  37.318  13.090
73208ION    NA+45468  17.270  35.097  14.178
73209ION    NA+45469  21.028  14.666  12.412
73210ION    NA+45470   1.301  23.130   1.846
73211ION    NA+45471  10.955   7.712   1.721
73212ION    NA+45472  39.957  28.064   3.323
73213ION    NA+45473  21.226  36.367   0.458
73214ION    NA+45474  29.194  22.569  14.385
73215ION    NA+45475   7.199  17.048   1.844
73216ION    NA+45476   6.868  16.287   2.905
73217ION    NA+45477  21.567  21.637   0.793
73218ION    NA+45478  12.725   5.272  11.976
73219ION    NA+45479   7.613  15.414   0.885
73220ION    NA+45480  13.947  37.223   2.139
73221ION    NA+45481  28.298   5.630  10.718
73222ION    NA+45482   7.141  15.427  14.663
73223ION    NA+45483  29.042  11.821   0.702
73224ION    NA+45484   1.787  11.636  14.230
73225ION    NA+45485  14.097  22.277  13.301
73226ION    NA+45486  26.747   0.394  10.687
73227ION    NA+45487  35.798  38.975   3.367
73228ION    NA+45488   0.218  41.842   2.265
73229ION    NA+45489  27.156   7.837   3.172
73230ION    NA+45490  44.688  20.085   0.757
73231ION    NA+45491   1.524  19.087  11.117
73232ION    NA+45492  44.361   5.974   4.262
73233ION    NA+45493  43.677  24.730  10.396
73234ION    NA+45494   0.048  10.657  11.525
73235ION    NA+45495  12.898  17.858  12.087
73236ION    NA+45496  10.297  39.638  11.542
73237ION    NA+45497  36.482  43.341   3.911
73238ION    NA+45498  24.769  13.829   3.745
73239ION    NA+45499  39.143   6.124  14.801
73240ION    NA+45500   9.557   7.209  11.047
73241ION    NA+45501  15.923  13.096   2.673
73242ION    NA+45502  18.915  29.048  14.052
73243ION    NA+45503  14.737   4.740   0.428
73244ION    NA+45504  22.659   2.403   1.840
73245ION    NA+45505  38.313  33.180  10.199
73246ION    NA+45506   5.442  14.109  11.238
73247ION    NA+45507  20.128  35.520   4.391
73248ION    NA+45508  44.175   8.389  10.218
73249ION    NA+45509   1.060   6.302  13.875
73250ION    NA+45510  43.886  31.767  12.436
73251ION    NA+45511  33.976  16.138   4.644
73252ION    NA+45512  36.324  19.995  14.452
73253ION    NA+45513  20.336  22.008  10.331
73254ION    NA+45514  25.020   2.362  10.621
73255ION    NA+45515  32.556  27.264   0.453
73256ION    NA+45516  40.945  29.658  14.823
73257ION    NA+45517  39.479  42.799  11.563
73258ION    NA+45518  26.034  13.674   4.247
73259ION    NA+45519  21.573   3.611  13.005
73260ION    NA+45520   5.023  23.770  14.342
73261ION    NA+45521   2.166  12.104   0.029
73262ION    NA+45522  36.025  38.296  13.613
73263ION    NA+45523   5.073  35.826   9.674
73264ION    NA+45524  19.821  37.101  12.092
73265ION    NA+45525   1.722   6.639   3.081
73266ION    NA+45526  13.651  14.941   9.760
73267ION    NA+45527  25.139  36.332   0.595
73268ION    NA+45528  21.281   4.717   3.279
73269ION    NA+45529  13.214  11.374  11.343
73270ION    NA+45530  39.964   0.444   4.110
73271ION    NA+45531  41.785  27.718  10.698
73272ION    NA+45532  41.992   7.957  13.644
73273ION    NA+45533  29.764  33.739   2.861
73274ION    NA+45534  11.504  31.690   2.006
73275ION    NA+45535  27.998  36.389  11.948
73276ION    NA+45536  16.819  15.113  14.025
73277ION    NA+45537   4.876  19.154  14.311
73278ION    NA+45538  32.275   3.700   2.054
73279ION    NA+45539  19.451  14.706   1.618
73280ION    NA+45540  19.466  20.872  11.078
73281ION    NA+45541  15.472  16.892  14.881
73282ION    NA+45542  31.075   3.193   0.921
73283ION    NA+45543  41.469   3.705  12.116
73284ION    NA+45544  38.799  18.514  10.594
73285ION    NA+45545  12.455  24.277   4.882
73286ION    NA+45546   3.559  23.871  11.232
73287ION    NA+45547  44.423  44.177   4.479
73288ION    NA+45548  20.174   5.360   4.668
73289ION    NA+45549   1.088  26.628   4.501
73290ION    NA+45550   0.690  15.600   2.328
73291ION    NA+45551   4.691  32.695  13.780
73292ION    NA+45552  21.024  35.230  13.612
73293ION    NA+45553  19.689  19.281   1.876
73294ION    NA+45554  28.875   4.495   0.716
73295ION    NA+45555  10.887   2.042   3.143
73296ION    NA+45556  29.430  14.722  12.105
73297ION    NA+45557   0.913  14.642  13.765
73298ION    NA+45558  28.201  34.315  11.405
73299ION    NA+45559  38.225  28.816  12.005
73300ION    NA+45560  23.486  10.274   1.698
73301ION    NA+45561  11.082  12.757  14.033
73302ION    NA+45562  20.867  35.423   3.718
73303ION    NA+45563   2.845  10.393  13.343
73304ION    NA+45564   4.191  41.117  14.845
73305ION    NA+45565   0.013   3.581   3.453
73306ION    NA+45566  44.605  18.975   4.081
73307ION    NA+45567  16.143  26.467   0.752
73308ION    NA+45568  38.632  40.639   5.304
73309ION    NA+45569  34.150  34.898  11.993
73310ION    NA+45570   1.004   6.410  12.134
73311ION    NA+45571  10.804  17.749   0.736
73312ION    NA+45572  24.497  18.678   2.488
73313ION    NA+45573  15.036  13.180   2.647
73314ION    NA+45574  41.001  12.036  14.347
73315ION    NA+45575  30.984   7.165   2.103
73316ION    NA+45576   5.578  30.883   4.730
73317ION    NA+45577  14.415  12.990  13.981
73318ION    NA+45578   4.855  43.937  13.182
73319ION    NA+45579  39.266  16.816  12.362
73320ION    NA+45580  43.904  26.721  12.680
73321ION    NA+45581   3.792  20.073  11.176
73322ION    NA+45582  10.061  35.434   2.437
73323ION    NA+45583  37.417  24.247   0.384
73324ION    NA+45584   8.682  39.704   3.688
73325ION    NA+45585  37.543  30.399   2.625
73326ION    NA+45586  31.800  30.393   3.794
73327ION    NA+45587  22.878  25.937   9.765
73328ION    NA+45588  32.444  43.815  10.911
73329ION    NA+45589  30.062  30.878   0.984
73330ION    NA+45590   2.868  42.925  12.973
73331ION    NA+45591  38.062  12.611   1.501
73332ION    NA+45592  15.627  10.078  11.580
73333ION    NA+45593  25.505  18.247   1.119
73334ION    NA+45594  19.430   3.247   0.382
73335ION    NA+45595  28.309  20.813   4.492
73336ION    NA+45596   2.473   6.608  13.943
73337ION    NA+45597  32.797  28.884   3.129
73338ION    NA+45598  27.565   8.751  11.005
73339ION    NA+45599  41.552  20.024  14.807
73340ION    NA+45600  25.599  37.826   0.471
73341ION    NA+45601   0.849  23.603  13.624
73342ION    NA+45602   9.170  13.931  14.562
73343ION    NA+45603  42.975  38.123  11.010
73344ION    NA+45604   3.466  44.978  12.628
73345ION    NA+45605  44.471  10.690  10.834
73346ION    NA+45606  32.916  13.258  10.725
73347ION    NA+45607   4.201  13.122  12.638
73348ION    NA+45608  41.538  15.442  13.862
73349ION    NA+45609  32.474  25.798   3.449
73350ION    NA+45610  28.871  26.148   2.849
73351ION    NA+45611   6.437  14.919  14.450
73352ION    NA+45612  19.638  33.433   4.485
73353ION    NA+45613   7.194  29.102   2.766
73354ION    NA+45614  21.656  32.383   0.006
73355ION    NA+45615  37.510  26.163  12.455
73356ION    NA+45616  41.862  22.683  14.044
73357ION    NA+45617  10.774  43.556   1.155
73358ION    NA+45618  44.666  44.269  14.730
73359ION    NA+45619  28.682  31.685   3.151
73360ION    NA+45620   5.983   1.775   4.145
73361ION    NA+45621   9.073  43.274   1.859
73362ION    NA+45622  24.756   5.846   2.479
73363ION    NA+45623  35.454  11.132  11.130
73364ION    NA+45624   7.672  20.787  12.638
73365ION    NA+45625  28.193  13.680   1.144
73366ION    NA+45626  37.298  11.164   3.193
73367ION    NA+45627  14.490  35.336  13.305
73368ION    NA+45628   3.982  27.703  12.562
73369ION    NA+45629  34.611   4.704  12.186
73370ION    NA+45630  32.765  16.387   1.128
73371ION    NA+45631  43.288  19.059   4.556
73372ION    NA+45632   8.796  42.378   0.734
73373ION    NA+45633  24.552   3.476  12.442
73374ION    NA+45634  17.465  30.721  13.865
73375ION    NA+45635  37.389  28.247  14.465
73376ION    NA+45636  12.300   2.031   0.236
73377ION    NA+45637  13.402  33.823  12.875
73378ION    NA+45638  23.216  41.772  11.903
73379ION    NA+45639   6.261   5.821  13.877
73380ION    NA+45640  35.900  36.131   0.025
73381ION    NA+45641  27.976  23.192   4.810
73382ION    NA+45642  11.686  18.429   9.706
73383ION    NA+45643  17.269  25.557  14.972
73384ION    NA+45644  38.923  43.044   1.134
73385ION    NA+45645   2.781  40.735   3.601
73386ION    NA+45646  43.510   2.721   1.701
73387ION    NA+45647  20.525  21.800   2.869
73388ION    NA+45648   2.649  15.064   3.119
73389ION    NA+45649  43.007  24.686  12.590
73390ION    NA+45650   6.018  22.195  13.832
73391ION    NA+45651   9.259   1.919  12.591
73392ION    NA+45652   8.699  22.371   4.047
73393ION    NA+45653   2.517  27.328  12.266
73394ION    NA+45654   9.090  11.084  11.018
73395ION    NA+45655  22.420  19.786   4.030
73396ION    NA+45656  30.581   9.979   4.909
73397ION    NA+45657  38.875  30.525  13.896
73398ION    NA+45658  34.595   7.927   1.536
73399ION    NA+45659   8.220  43.548  11.792
73400ION    NA+45660  33.997  37.886   4.774
73401ION    NA+45661  38.619  40.792  14.031
73402ION    NA+45662  13.567   9.719   3.138
73403ION    NA+45663   2.801  41.246   4.516
73404ION    NA+45664  21.665  13.162  10.684
73405ION    NA+45665  37.108  34.121  14.443
73406ION    NA+45666   2.260  42.690   1.896
73407ION    NA+45667  12.224   0.306   2.912
73408ION    NA+45668  34.045   7.262   2.072
73409ION    NA+45669  17.898  36.329  11.975
73410ION    NA+45670   8.661  13.218  14.427
73411ION    NA+45671   4.418  14.084  11.501
73412ION    NA+45672  27.496  43.026   0.761
73413ION    NA+45673  12.521  17.287  14.504
73414ION    NA+45674  39.478   2.701   2.142
73415ION    NA+45675  14.672  38.637  13.933
73416ION    NA+45676  41.370  18.141  12.549
73417ION    NA+45677  11.715  29.090  14.111
73418ION    NA+45678  31.561  39.518   4.435
73419ION    NA+45679   3.550  42.852  14.930
73420ION    NA+45680  43.248  29.939  13.615
73421ION    NA+45681  34.217  25.770   4.683
73422ION    NA+45682  21.913  27.376   0.978
73423ION    NA+45683  35.887   2.646   1.452
73424ION    NA+45684  35.301  18.847   4.792
73425ION    NA+45685  34.743  26.594  10.507
73426ION    NA+45686  15.866  39.683  13.328
73427ION    NA+45687  28.550  20.524   1.506
73428ION    NA+45688  39.368  30.452   4.109
73429ION    NA+45689  24.210   5.529   1.454
73430ION    NA+45690   7.192  24.236  12.969
73431ION    NA+45691   0.537  22.552   2.658
73432ION    NA+45692  18.089  14.132   1.005
73433ION    NA+45693  33.002   8.446   1.347
73434ION    NA+45694  36.231  42.363   0.765
73435ION    NA+45695   3.330  42.577   1.485
73436ION    NA+45696   0.031  12.784  11.629
73437ION    NA+45697  19.546   7.337   4.197
73438ION    NA+45698  23.631  28.240  14.168
73439ION    NA+45699  31.494  20.223  10.708
73440ION    NA+45700  41.930   8.973  10.201
73441ION    NA+45701  41.402  39.403  14.163
73442ION    NA+45702   5.931   6.271  11.098
73443ION    NA+45703  19.544  13.769   0.333
73444ION    NA+45704  37.705  16.733  13.996
73445ION    NA+45705  44.970  13.928   3.907
73446ION    NA+45706  44.735  19.106  11.632
73447ION    NA+45707  19.758  28.915   3.314
73448ION    NA+45708  42.026  32.341  12.534
73449ION    NA+45709  12.375   4.465   2.519
73450ION    NA+45710   1.494  13.213  10.742
73451ION    NA+45711  27.352  35.273   4.412
73452ION    NA+45712  38.457  31.242   0.861
73453ION    NA+45713  39.129  41.886  14.876
73454ION    NA+45714  18.727   7.733   3.768
73455ION    NA+45715  20.133  21.513  12.077
73456ION    NA+45716  40.752  20.086   0.438
73457ION    NA+45717  18.399   0.642  13.733
73458ION    NA+45718  11.382   2.915   4.396
73459ION    NA+45719  21.155  10.161  11.031
73460ION    NA+45720  36.166  11.919   4.948
73461ION    NA+45721  33.935  42.456  12.070
73462ION    NA+45722  12.731  21.591  14.098
73463ION    NA+45723  22.618  24.146  12.895
73464ION    NA+45724  43.624  16.103   1.236
73465ION    NA+45725  10.637   0.663   1.046
73466ION    NA+45726  16.619  35.289   4.102
73467ION    NA+45727   2.378  44.356   2.362
73468ION    NA+45728   8.993  10.740   1.134
73469ION    NA+45729  26.536  24.038   0.880
73470ION    NA+45730  10.751  13.213   4.547
73471ION    NA+45731  26.995  42.186  13.814
73472ION    NA+45732  40.219   8.712  14.479
73473ION    NA+45733   9.188  44.849   0.466
73474ION    NA+45734  43.372  23.627  11.949
73475ION    NA+45735  39.405   2.091   0.477
73476ION    NA+45736  12.808  22.871   4.164
73477ION    NA+45737  29.427  23.422   0.898
73478ION    NA+45738  41.578  44.194  14.292
73479ION    NA+45739  44.769   9.257   0.794
73480ION    NA+45740  27.027   8.601  13.376
73481ION    NA+45741  44.596  44.616  11.298
73482ION    NA+45742   2.444  18.310  13.757
73483ION    NA+45743  27.127  28.729   0.927
73484ION    NA+45744  44.299   9.141  14.450
73485ION    NA+45745  41.541  14.162  13.698
73486ION    NA+45746  29.708   0.559  12.429
73487ION    NA+45747   0.744   7.894  12.087
73488ION    NA+45748  17.153  32.276   0.963
73489ION    NA+45749  32.271   8.465  14.431
73490ION    NA+45750  17.012  26.584  12.872
73491ION    NA+45751  25.373  31.134  13.074
73492ION    NA+45752  35.884   5.890   3.437
73493ION    NA+45753  22.875   8.636  12.002
73494ION    NA+45754  29.063  33.039   5.626
73495ION    NA+45755  36.056  15.453   1.115
73496ION    NA+45756   0.710  27.498  12.487
73497ION    NA+45757   7.876  40.564   3.717
73498ION    NA+45758  28.499   8.175   2.632
73499ION    NA+45759  16.129  29.026  11.095
73500ION    NA+45760  41.335  38.087   0.761
73501ION    NA+45761  32.116  26.555   4.798
73502ION    NA+45762  39.517  27.678   0.904
73503ION    NA+45763  26.381  38.660   9.592
73504ION    NA+45764  21.429  41.427   1.387
73505ION    NA+45765  34.907  23.846  13.390
73506ION    NA+45766  25.774  38.876   1.785
73507ION    NA+45767  23.148  44.503   3.585
73508ION    NA+45768  28.364  16.868  11.974
73509ION    NA+45769   4.536  32.356  10.596
73510ION    NA+45770  24.154   4.919  13.523
73511ION    NA+45771  21.355  24.644   2.565
73512ION    NA+45772  20.257   0.366  13.518
73513ION    NA+45773  21.967  38.827   0.806
73514ION    NA+45774  12.293  23.759  14.899
73515ION    NA+45775   2.737  16.755   2.953
73516ION    NA+45776  31.388   3.072   4.712
73517ION    NA+45777  40.973   4.504  10.423
73518ION    NA+45778   6.775   2.732   0.029
73519ION    NA+45779  28.232  38.027   0.976
73520ION    NA+45780  17.687   8.528   5.259
73521ION    NA+45781  17.850  43.009   3.862
73522ION    NA+45782  13.903  27.702  11.458
73523ION    NA+45783  39.706  21.689  12.511
73524ION    NA+45784   5.115   0.822  12.714
73525ION    NA+45785  23.177   3.006   3.321
73526ION    NA+45786  26.620  33.836   2.233
73527ION    NA+45787   4.782  34.549  11.501
73528ION    NA+45788  16.078  35.808   9.761
73529ION    NA+45789  22.078  19.125  10.539
73530ION    NA+45790  42.342  36.777   0.883
73531ION    NA+45791  17.139   2.556  12.657
73532ION    NA+45792   3.813  35.800   3.797
73533ION    NA+45793  14.673  14.269  14.813
73534ION    NA+45794  43.662  27.591  14.021
73535ION    NA+45795  10.216  41.743   3.121
73536ION    NA+45796  35.063  26.240   4.386
73537ION    NA+45797  20.395  29.002   2.671
73538ION    NA+45798   6.429  31.463  11.583
73539ION    NA+45799  40.024  44.756  12.869
73540ION    NA+45800  30.124   0.356  10.757
73541ION    NA+45801  36.393  38.772   4.466
73542ION    NA+45802   2.684  22.352  14.753
73543ION    NA+45803  22.199  29.636   2.645
73544ION    NA+45804  39.070  38.842   0.937
73545ION    NA+45805  17.697   9.119  13.546
73546ION    NA+45806   6.143  14.596  13.654
73547ION    NA+45807  14.737   9.205  11.340
73548ION    NA+45808   3.857   5.764  11.727
73549ION    NA+45809  44.526   6.219   0.617
73550ION    NA+45810  23.026  30.400  12.465
73551ION    NA+45811  12.970  22.183  11.420
73552ION    NA+45812  16.664  29.559   3.578
73553ION    NA+45813   4.297   0.319   2.556
73554ION    NA+45814  36.824  41.943   3.105
73555ION    NA+45815   8.334  26.543  11.415
73556ION    NA+45816  41.045  20.526   1.287
73557ION    NA+45817  44.022  31.949  14.225
73558ION    NA+45818   5.043  38.440   3.562
73559ION    NA+45819  26.383  34.993  14.705
73560ION    NA+45820  21.647  28.926  14.503
73561ION    NA+45821  37.534  35.185  14.803
73562ION    NA+45822  44.437  21.476   1.713
73563ION    NA+45823  36.699  21.135   5.053
73564ION    NA+45824  14.720   9.992   2.503
73565ION    NA+45825  34.041   3.981  11.423
73566ION    NA+45826  28.540  12.017   2.262
73567ION    NA+45827   7.754  36.979  14.293
73568ION    NA+45828   6.045   0.783   2.534
73569ION    NA+45829  24.875  29.878  10.792
73570ION    NA+45830  39.510   5.201   0.535
73571ION    NA+45831  15.132  11.650   3.729
73572ION    NA+45832  33.856  23.874  12.850
73573ION    NA+45833  23.252  34.016   1.721
73574ION    NA+45834  28.474  38.473  11.162
73575ION    NA+45835   2.377   5.099   0.999
73576ION    NA+45836  11.918  10.135  12.153
73577ION    NA+45837  41.761  30.641  11.571
73578ION    NA+45838  16.871  14.585  14.755
73579ION    NA+45839  10.638  41.295  12.822
73580ION    NA+45840  43.030  11.819  13.860
73581ION    NA+45841  23.567  22.944  13.871
73582ION    NA+45842  39.828  32.761  10.848
73583ION    NA+45843  20.947  33.450   2.729
73584ION    NA+45844   8.868  36.535   0.380
73585ION    NA+45845   7.492   1.692  10.626
73586ION    NA+45846  10.199  14.647   2.100
73587ION    NA+45847  25.883   9.554  12.624
73588ION    NA+45848  35.860  12.879   0.201
73589ION    NA+45849  34.421  35.806   4.712
73590ION    NA+45850   4.105  11.107   0.562
73591ION    NA+45851  39.912  16.905  13.121
73592ION    NA+45852  31.622  22.359   1.933
73593ION    NA+45853  15.757  20.683   0.324
73594ION    NA+45854   4.987  41.112   3.972
73595ION    NA+45855  35.477  13.093   4.646
73596ION    NA+45856   9.642  27.406  11.584
73597ION    NA+45857  26.616  13.729   3.358
73598ION    NA+45858   8.249  35.837  10.239
73599ION    NA+45859   7.147  25.297  11.497
73600ION    NA+45860   7.654  24.716   0.180
73601ION    NA+45861  19.940  25.385   1.793
73602ION    NA+45862  32.486  23.321  13.156
73603ION    NA+45863  11.457  42.441   4.149
73604ION    NA+45864  26.203   1.524  13.218
73605ION    NA+45865  12.062  13.109  14.411
73606ION    NA+45866  24.410  27.605   5.489
73607ION    NA+45867  28.339  24.142  13.951
73608ION    NA+45868   2.453  43.246  11.276
73609ION    NA+45869   6.860  22.194   1.308
73610ION    NA+45870   1.807  32.655  14.955
73611ION    NA+45871  18.328  17.664  12.586
73612ION    NA+45872   0.683  22.212  12.433
73613ION    NA+45873  23.628  25.623  12.937
73614ION    NA+45874   3.155   5.324  10.164
73615ION    NA+45875  30.468  43.320  10.898
73616ION    NA+45876  15.856  15.929   1.195
73617ION    NA+45877  31.078  20.179  12.145
73618ION    NA+45878   4.322   9.320   3.944
73619ION    NA+45879  39.593  44.797   0.871
73620ION    NA+45880  17.776  42.181   3.591
73621ION    NA+45881   6.461  21.727  14.686
73622ION    NA+45882   3.229  26.889   4.228
73623ION    NA+45883   3.955  10.679  11.563
73624ION    NA+45884  43.530   8.212   1.788
73625ION    NA+45885  43.042   7.051  14.557
73626ION    NA+45886   7.300   1.982  12.826
73627ION    NA+45887  33.984  14.764  11.645
73628ION    NA+45888  31.031  42.511  11.067
73629ION    NA+45889  18.334   6.448   1.724
73630ION    NA+45890  25.054  31.126   2.719
73631ION    NA+45891   9.174  15.669  13.429
73632ION    NA+45892  42.972  14.693  12.193
73633ION    NA+45893  15.152  32.306   4.742
73634ION    NA+45894   2.142  29.598  14.724
73635ION    NA+45895   4.124  43.192   2.478
73636ION    NA+45896   7.697   6.281   9.745
73637ION    NA+45897  15.731   7.754   2.815
73638ION    NA+45898  23.285  29.542  10.300
73639ION    NA+45899   6.348  39.946   3.335
73640ION    NA+45900   1.073  32.137   0.060
73641ION    NA+45901  31.885  29.175  14.621
73642ION    NA+45902  18.297   5.231   0.476
73643ION    NA+45903   3.229  38.686   4.338
73644ION    NA+45904  20.736  41.835  12.921
73645ION    NA+45905  22.122  21.155  12.316
73646ION    NA+45906   5.252  29.743   4.212
73647ION    NA+45907  20.342   4.904   0.696
73648ION    NA+45908  27.627  26.639  13.894
73649ION    NA+45909  21.174   2.886   4.100
73650ION    NA+45910  42.974   4.572  11.365
73651ION    NA+45911  36.857  12.099   2.871
73652ION    NA+45912  39.128  18.623   1.153
73653ION    NA+45913  31.269  33.307  10.157
73654ION    NA+45914  33.367  39.022  11.969
73655ION    NA+45915   4.818  13.240  11.859
73656ION    NA+45916  28.435  33.530  11.979
73657ION    NA+45917  23.709  30.329  13.531
73658ION    NA+45918   2.921  40.774  12.566
73659ION    NA+45919   2.763   2.436  10.432
73660ION    NA+45920  43.964   8.382   4.284
73661ION    NA+45921  36.027  24.410   0.943
73662ION    NA+45922  16.158  12.205   4.347
73663ION    NA+45923   5.171  17.278   0.656
73664ION    NA+45924  40.968   2.343   0.077
73665ION    NA+45925  13.216   3.793  10.758
73666ION    NA+45926  11.693  34.364  11.163
73667ION    NA+45927   2.901  38.122  11.101
73668ION    NA+45928  16.736   9.830  12.337
73669ION    NA+45929  21.666   9.654   1.307
73670ION    NA+45930  11.935  29.840   9.646
73671ION    NA+45931   7.262  19.596   2.639
73672ION    NA+45932   7.877  18.112   0.074
73673ION    NA+45933  27.924  10.021   3.789
73674ION    NA+45934  28.250  34.813   3.232
73675ION    NA+45935  37.382  11.270  14.621
73676ION    NA+45936  41.864  36.693  13.379
73677ION    NA+45937  26.211  37.802  12.842
73678ION    NA+45938  29.661   1.461   0.322
73679ION    NA+45939  16.592  30.281  12.954
73680ION    NA+45940  19.549  22.593   1.464
73681ION    NA+45941  43.117  24.315  11.386
73682ION    NA+45942  26.696  11.886   3.008
73683ION    NA+45943  41.194  12.821  13.359
73684ION    NA+45944   2.779  14.910  11.135
73685ION    NA+45945   4.083   0.552  12.925
73686ION    NA+45946  29.107  17.228  11.409
73687ION    NA+45947  26.836   6.769   0.445
73688ION    NA+45948  36.630  13.148   2.411
73689ION    NA+45949   1.691  30.899   5.078
73690ION    NA+45950  39.356  40.282  11.758
73691ION    NA+45951  22.302  14.691   1.348
73692ION    NA+45952  14.056   9.431   1.001
73693ION    NA+45953   0.432  31.182   0.403
73694ION    NA+45954  12.055  32.718   0.679
73695ION    NA+45955  20.783  22.030   0.313
73696ION    NA+45956  40.364   3.298  12.914
73697ION    NA+45957  16.336   6.267  13.998
73698ION    NA+45958  43.066   5.215   0.408
73699ION    NA+45959  32.008   6.126  11.153
73700ION    NA+45960  31.681  12.816  13.326
73701ION    NA+45961   1.440   3.950  14.770
73702ION    NA+45962   1.899   3.857  12.509
73703ION    NA+45963   6.610  39.303  12.223
73704ION    NA+45964  39.081   7.301   3.741
73705ION    NA+45965   2.955  11.219  14.850
73706ION    NA+45966  30.112  44.400  12.027
73707ION    NA+45967  25.805  41.397  13.700
73708ION    NA+45968  43.136  22.001   3.848
73709ION    NA+45969  28.821  35.507  14.251
73710ION    NA+45970  41.295  14.723   2.545
73711ION    NA+45971  38.040  39.830   3.572
73712ION    NA+45972   8.112  19.833   2.838
73713ION    NA+45973   0.205  23.074   1.415
73714ION    NA+45974  23.006   6.291  11.625
73715ION    NA+45975  15.090  28.902  14.988
73716ION    NA+45976  35.911  26.470   3.909
73717ION    NA+45977  13.838   2.056   0.818
73718ION    NA+45978  20.479  40.457  14.997
73719ION    NA+45979  42.424  16.223  13.703
73720ION    NA+45980  22.294  20.881   5.340
73721ION    NA+45981  27.889  14.984  13.016
73722ION    NA+45982  24.614  41.371  13.430
73723ION    NA+45983   6.477   9.972  12.280
73724ION    NA+45984   4.026  22.094  11.038
73725ION    NA+45985  26.637  42.682   0.381
73726ION    NA+45986   0.316  13.727   0.938
73727ION    NA+45987   7.001  34.063   1.371
73728ION    NA+45988  24.696  28.967   1.299
73729ION    NA+45989  34.869  18.074   1.812
73730ION    NA+45990  35.080  42.890   4.109
73731ION    NA+45991  12.245  34.133   0.375
73732ION    NA+45992   2.238  29.632  10.650
73733ION    NA+45993  28.138  19.437  14.522
73734ION    NA+45994   0.084  41.497   3.868
73735ION    NA+45995   1.969  16.323  14.891
73736ION    NA+45996  22.274  26.893  12.511
73737ION    NA+45997  40.846   4.492  13.054
73738ION    NA+45998  42.738  17.156   1.462
73739ION    NA+45999  25.300  17.229  14.360
73740ION    NA+46000  40.763  27.681   2.369
73741ION    NA+46001  30.365  15.480  11.893
73742ION    NA+46002   5.918   5.018  13.532
73743ION    NA+46003  32.189  40.804  11.781
73744ION    NA+46004  26.551  27.728   2.856
73745ION    NA+46005   8.039  35.150   4.503
73746ION    NA+46006  42.861  29.441   1.185
73747ION    NA+46007  27.194  16.598  11.879
73748ION    NA+46008  10.602  28.533   4.607
73749ION    NA+46009   1.482  25.304  11.125
73750ION    NA+46010  42.813  20.347   2.850
73751ION    NA+46011  33.517  12.648  11.270
73752ION    NA+46012  32.730   6.619  11.638
73753ION    NA+46013  31.649  28.167  11.692
73754ION    NA+46014   1.869  39.310   4.177
73755ION    NA+46015  42.043  17.265  11.696
73756ION    NA+46016   8.704  41.749   3.569
73757ION    NA+46017  18.714  39.764   9.848
73758ION    NA+46018  17.357   9.869   3.066
73759ION    NA+46019  14.874   5.023  12.869
73760ION    NA+46020  44.902  15.359  10.929
73761ION    NA+46021  38.821  43.606   4.070
73762ION    NA+46022  44.679   3.841  14.644
73763ION    NA+46023  23.006  28.685  14.951
73764ION    NA+46024  37.578  24.338  12.683
73765ION    NA+46025  32.636  21.406   4.667
73766ION    NA+46026  25.242   5.479   1.418
73767ION    NA+46027  18.731  13.016   1.665
73768ION    NA+46028  14.038  15.053   4.862
73769ION    NA+46029  38.558  32.560  11.108
73770ION    NA+46030  26.267  10.901   0.181
73771ION    NA+46031   7.211   8.037   3.569
73772ION    NA+46032  38.355  39.383  11.781
73773ION    NA+46033  14.680  28.072  13.236
73774ION    NA+46034   9.018  15.071  12.643
73775ION    NA+46035   2.578  41.563   0.166
73776ION    NA+46036  43.475   4.398  14.493
73777ION    NA+46037  11.349  27.070  11.963
73778ION    NA+46038  41.051  16.916   2.210
73779ION    NA+46039   8.475  26.348  12.732
73780ION    NA+46040   5.439   4.337   3.830
73781ION    NA+46041   7.166  20.807   2.767
73782ION    NA+46042  36.357   8.953   3.365
73783ION    NA+46043  31.429  24.837   1.825
73784ION    NA+46044  21.018  26.401  12.364
73785ION    NA+46045   0.087  14.070  11.167
73786ION    NA+46046   7.893  42.715  14.762
73787ION    NA+46047  13.033  35.038  11.096
73788ION    NA+46048  20.360  20.010   1.746
73789ION    NA+46049   4.762  11.751  12.540
73790ION    NA+46050   9.461  21.313   0.358
73791ION    NA+46051   2.350  25.558  12.338
73792ION    NA+46052  13.864   9.698  10.530
73793ION    NA+46053   6.925  17.409  13.484
73794ION    NA+46054   3.903  18.408   4.608
73795ION    NA+46055  39.024   2.382   9.585
73796ION    NA+46056   7.432   5.545   4.387
73797ION    NA+46057  20.600   3.709  12.728
73798ION    NA+46058  27.598   6.605   1.071
73799ION    NA+46059  21.983  36.690   0.827
73800ION    NA+46060  31.383  12.323  14.914
73801ION    NA+46061  17.711   5.546  14.372
73802ION    NA+46062  30.430  14.445   0.611
73803ION    NA+46063   5.883   3.599  12.025
73804ION    NA+46064   2.402  25.549   1.167
73805ION    NA+46065   2.730  23.185   4.277
73806ION    NA+46066  35.918  37.858  10.653
73807ION    NA+46067  21.430   8.570  14.086
73808ION    NA+46068  17.803   1.275  12.004
73809ION    NA+46069  22.230  25.754  10.997
73810ION    NA+46070  30.142   8.871   3.704
73811ION    NA+46071   8.122  27.201  12.138
73812ION    NA+46072  42.649  27.884  10.959
73813ION    NA+46073   9.742  28.530   1.903
73814ION    NA+46074  33.975  35.288   1.055
73815ION    NA+46075   6.171  22.107  12.476
73816ION    NA+46076  27.018   0.655   4.567
73817ION    NA+46077  18.317   2.458   1.903
73818ION    NA+46078  43.438  37.439   0.215
73819ION    NA+46079  38.727   3.205   2.677
73820ION    NA+46080  35.194   5.370  12.434
73821ION    NA+46081   5.159  33.823   2.485
73822ION    NA+46082  41.919  35.351  11.127
73823ION    NA+46083   8.649  42.624   2.822
73824ION    NA+46084  17.011  14.023   2.251
73825ION    NA+46085  22.101  39.760   1.745
73826ION    NA+46086  44.874  32.534   1.164
73827ION    NA+46087  40.337  15.433  14.309
73828ION    NA+46088   7.726  28.309  10.963
73829ION    NA+46089  25.550  28.839   5.226
73830ION    NA+46090  41.717   6.128   1.376
73831ION    NA+46091  30.778  37.078   0.482
73832ION    NA+46092  22.908  27.246   1.854
73833ION    NA+46093  36.444  31.350  11.590
73834ION    NA+46094   2.470  18.141  11.151
73835ION    NA+46095  27.467  41.790  10.130
73836ION    NA+46096  37.867  13.579   4.381
73837ION    NA+46097   8.775   9.253   4.595
73838ION    NA+46098  42.266  11.665  14.487
73839ION    NA+46099  29.686  19.949  11.139
73840ION    NA+46100  41.382  37.571   4.712
73841ION    NA+46101  22.452  29.548  10.545
73842ION    NA+46102  43.264  26.352  13.694
73843ION    NA+46103  21.575  24.225   1.788
73844ION    NA+46104  11.464  44.504  14.688
73845ION    NA+46105  19.826  36.494   4.611
73846ION    NA+46106  21.972   0.302   2.626
73847ION    NA+46107  27.406  23.578   1.057
73848ION    NA+46108  23.654   6.007   3.516
73849ION    NA+46109  26.696  36.121   0.798
73850ION    NA+46110  28.980  39.922   1.995
73851ION    NA+46111  14.979  27.949  12.289
73852ION    NA+46112  43.929  19.523   2.704
73853ION    NA+46113  33.477  21.433   3.111
73854ION    NA+46114   0.495   4.966   2.071
73855ION    NA+46115  10.276  18.465   0.668
73856ION    NA+46116  22.802  28.420  10.895
73857ION    NA+46117  22.596  33.948   2.472
73858ION    NA+46118  44.254  43.298  14.672
73859ION    NA+46119  40.563  11.147   4.616
73860ION    NA+46120   3.165   0.753  11.514
73861ION    NA+46121   4.460  14.310  14.803
73862ION    NA+46122  24.772  37.824  13.279
73863ION    NA+46123  19.886   6.447  10.466
73864ION    NA+46124  14.318  11.275   4.329
73865ION    NA+46125  14.424   8.725   4.140
73866ION    NA+46126  19.031  44.349   1.484
73867ION    NA+46127  14.512  29.234  13.872
73868ION    NA+46128   5.136  36.564   2.766
73869ION    NA+46129  17.202   1.975  11.618
73870ION    NA+46130  34.203   1.634   3.386
73871ION    NA+46131   2.960  37.543  13.545
73872ION    NA+46132   5.997  16.928  11.236
73873ION    NA+46133  25.668  44.808  12.042
73874ION    NA+46134  27.089  11.475  12.243
73875ION    NA+46135  38.579  34.125  10.801
73876ION    NA+46136   3.044  30.405   2.178
73877ION    NA+46137  39.065  21.277  12.997
73878ION    NA+46138   5.209   5.013  11.029
73879ION    NA+46139   4.832   1.865   1.257
73880ION    NA+46140  25.321  19.100   1.394
73881ION    NA+46141   5.682  37.608  10.313
73882ION    NA+46142  29.487  15.457   5.165
73883ION    NA+46143  15.454   1.052   2.212
73884ION    NA+46144  28.041  29.455   0.396
73885ION    NA+46145  24.001  37.468  14.783
73886ION    NA+46146  25.645  43.241  12.117
73887ION    NA+46147   7.017  43.150  13.018
73888ION    NA+46148  11.614  35.685   1.249
73889ION    NA+46149   0.809  20.498   4.130
73890ION    NA+46150  29.077  32.885  13.669
73891ION    NA+46151   7.804  15.866  11.482
73892ION    NA+46152  35.349  28.937  13.257
73893ION    NA+46153  37.378  33.446  13.755
73894ION    NA+46154  44.326  17.109   5.507
73895ION    NA+46155   5.833  22.334   2.584
73896ION    NA+46156   3.175   7.942   3.331
73897ION    NA+46157  32.466  24.497  10.689
73898ION    NA+46158  25.215  41.042  14.206
73899ION    NA+46159   8.926  38.555  11.634
73900ION    NA+46160   0.236   1.588  11.575
73901ION    NA+46161   4.578  30.599  12.691
73902ION    NA+46162  17.863  15.453  12.537
73903ION    NA+46163  19.357  19.280   3.133
73904ION    NA+46164  44.116  25.451  11.136
73905ION    NA+46165  24.279  38.827   1.507
73906ION    NA+46166   1.750  26.192   1.897
73907ION    NA+46167  26.925  31.457   2.638
73908ION    NA+46168  16.603  13.157   0.960
73909ION    NA+46169   8.485  39.418  12.417
73910ION    NA+46170  32.626  30.727   3.944
73911ION    NA+46171  35.068  10.913  13.933
73912ION    NA+46172   5.263   6.115   0.339
73913ION    NA+46173  10.954  44.514   0.838
73914ION    NA+46174   3.501  33.838   2.395
73915ION    NA+46175   5.190  39.339  11.498
73916ION    NA+46176  36.364  14.191   4.111
73917ION    NA+46177  17.298  28.924  12.843
73918ION    NA+46178  43.805  17.371  11.041
73919ION    NA+46179  39.585  14.134   2.694
73920ION    NA+46180  36.285  34.293  12.455
73921ION    NA+46181  18.788  35.863   3.940
73922ION    NA+46182   1.719  21.365   0.488
73923ION    NA+46183  28.477  25.241   2.997
73924ION    NA+46184   4.682  43.337  12.349
73925ION    NA+46185   1.135  36.653  12.570
73926ION    NA+46186  25.015  17.174   0.221
73927ION    NA+46187  41.270   0.669   2.840
73928ION    NA+46188  32.734  33.635  11.433
73929ION    NA+46189  43.690  20.077   0.695
73930ION    NA+46190  24.542  12.680   2.933
73931ION    NA+46191  35.076  28.991   0.486
73932ION    NA+46192  34.097   5.458  14.256
73933ION    NA+46193  19.513  10.084  10.968
73934ION    NA+46194  13.056  29.043  13.010
73935ION    NA+46195  14.592  16.179   3.802
73936ION    NA+46196  38.779  14.724   2.727
73937ION    NA+46197   9.316   2.899  12.777
73938ION    NA+46198  17.251  43.798   3.330
73939ION    NA+46199  36.992  38.302  12.377
73940ION    NA+46200  36.053  26.991   1.807
73941ION    NA+46201  13.817  34.566  12.556
73942ION    NA+46202  27.216  13.238   1.754
73943ION    NA+46203  37.955  20.680   4.515
73944ION    NA+46204  44.649   4.179   2.739
73945ION    NA+46205  15.738  36.385  10.332
73946ION    NA+46206   0.246  26.462   2.868
73947ION    NA+46207  13.085   3.288  14.056
73948ION    NA+46208  17.852  26.057   1.041
73949ION    NA+46209  13.406  10.861  13.427
73950ION    NA+46210  28.192  34.918  14.758
73951ION    NA+46211  41.044   8.995  14.236
73952ION    NA+46212  31.378  29.638   0.348
73953ION    NA+46213   4.683  38.968   4.336
73954ION    NA+46214  41.284  44.086   1.161
73955ION    NA+46215  32.149   9.187   0.443
73956ION    NA+46216   3.359  11.078   2.114
73957ION    NA+46217  31.983  20.233   0.938
73958ION    NA+46218  13.775  42.123   2.876
73959ION    NA+46219  32.948  19.630  13.742
73960ION    NA+46220  14.481  24.246   1.431
73961ION    NA+46221   3.910  25.773   0.475
73962ION    NA+46222  33.135  15.556  11.017
73963ION    NA+46223  13.275  36.910   4.942
73964ION    NA+46224  41.076  34.542   0.431
73965ION    NA+46225  39.906  30.053  14.447
73966ION    NA+46226  31.837   1.228  12.814
73967ION    NA+46227  17.142  42.686  14.989
73968ION    NA+46228  39.034  32.538  11.997
73969ION    NA+46229   2.288  20.136   4.199
73970ION    NA+46230  18.306  39.720   1.261
73971ION    NA+46231  39.356  17.242   0.762
73972ION    NA+46232  26.398  38.144   0.468
73973ION    NA+46233  26.676  35.483  13.884
73974ION    NA+46234  37.356   8.887   3.875
73975ION    NA+46235  13.705   6.080   0.199
73976ION    NA+46236  38.870  23.986   4.153
73977ION    NA+46237  29.389  42.968  13.624
73978ION    NA+46238  36.168  33.592  11.119
73979ION    NA+46239  36.135   4.269  14.392
73980ION    NA+46240  36.510   0.887  12.822
73981ION    NA+46241  42.405   3.809  11.673
73982ION    NA+46242  38.423  28.553  14.169
73983ION    NA+46243  25.323  24.934  12.002
73984ION    NA+46244  26.725  28.236   4.717
73985ION    NA+46245  27.645  10.294  14.360
73986ION    NA+46246   5.608  22.925  14.379
73987ION    NA+46247  21.551  13.916   4.730
73988ION    NA+46248  18.628  36.497  13.448
73989ION    NA+46249  42.591  35.914  11.609
73990ION    NA+46250  43.710  17.993  12.458
73991ION    NA+46251  22.998  43.561   1.475
73992ION    NA+46252  39.739  43.618   1.838
73993ION    NA+46253  42.575   7.916   1.786
73994ION    NA+46254   6.818  19.491   3.721
73995ION    NA+46255  19.027  38.157   3.366
73996ION    NA+46256  21.815  21.913  14.202
73997ION    NA+46257   1.958  12.954  14.777
73998ION    NA+46258   1.244  40.742   1.667
73999ION    NA+46259  35.173  20.188   4.239
74000ION    NA+46260  36.549  18.631  12.965
74001ION    NA+46261   3.810  44.126  11.328
74002ION    NA+46262  24.385  23.709  13.836
74003ION    NA+46263   7.445  35.546  13.872
74004ION    NA+46264  25.798  19.136  12.854
74005ION    NA+46265  26.004  36.432   0.302
74006ION    NA+46266  23.998  38.974   4.230
74007ION    NA+46267  25.654  37.989  12.033
74008ION    NA+46268  23.383  19.579  13.830
74009ION    NA+46269  34.372  44.837  13.316
74010ION    NA+46270  25.047  21.985  13.871
74011ION    NA+46271   2.963  12.296  13.755
74012ION    NA+46272  16.257  26.385  14.408
74013ION    NA+46273  34.636  24.775  12.863
74014ION    NA+46274  35.082   9.097   2.320
74015ION    NA+46275  11.856  43.613  14.459
74016ION    NA+46276  12.774  14.780   1.295
74017ION    NA+46277  40.579  32.401  11.497
74018ION    NA+46278   3.284   6.304   4.092
74019ION    NA+46279   5.378   3.567   5.241
74020ION    NA+46280   7.410  40.612  10.874
74021ION    NA+46281  36.428  43.712  11.403
74022ION    NA+46282   5.759  19.699  12.586
74023ION    NA+46283   1.927   7.136   1.441
74024ION    NA+46284  35.333  30.759  13.601
74025ION    NA+46285  22.775  33.078   1.670
74026ION    NA+46286  30.191  28.855  14.343
74027ION    NA+46287  41.322   6.660   1.975
74028ION    NA+46288  17.567   5.871  10.923
74029ION    NA+46289  28.017   2.104   2.610
74030ION    NA+46290  27.599   7.709  12.974
74031ION    NA+46291  17.678   2.264  13.289
74032ION    NA+46292   4.796  20.636  14.992
74033ION    NA+46293  16.203  22.229  11.919
74034ION    NA+46294  33.357  26.998  13.859
74035ION    NA+46295   4.445   2.248   1.978
74036ION    NA+46296   1.559   2.840  12.406
74037ION    NA+46297  27.011  39.140  14.023
74038ION    NA+46298  26.083  18.284  13.052
74039ION    NA+46299  13.726  32.069  10.841
74040ION    NA+46300  20.823  35.173  11.123
74041ION    NA+46301   9.667   4.371  13.040
74042ION    NA+46302   9.839  41.678  13.287
74043ION    NA+46303  13.577  39.025  14.257
74044ION    NA+46304  16.061  12.237  11.220
74045ION    NA+46305  13.751  13.882  14.793
74046ION    NA+46306  31.892   1.819   5.296
74047ION    NA+46307  39.417   4.389  14.341
74048ION    NA+46308  13.893  21.489   0.017
74049ION    NA+46309  11.964  37.068   0.195
74050ION    NA+46310  27.524  14.249  12.683
74051ION    NA+46311  26.182  39.292  12.240
74052ION    NA+46312  25.610  11.226   3.317
74053ION    NA+46313  36.234   1.295   2.554
74054ION    NA+46314   5.090  44.813  10.672
74055ION    NA+46315  41.025   6.915   0.481
74056ION    NA+46316  17.607   8.442  14.895
74057ION    NA+46317  35.613  36.390   1.118
74058ION    NA+46318  32.833  26.600   3.635
74059ION    NA+46319   1.896  40.329  14.322
74060ION    NA+46320  33.111  32.854   1.883
74061ION    NA+46321  34.555   3.324  10.864
74062ION    NA+46322  29.147  12.922  14.483
74063ION    NA+46323   7.651   1.771   2.298
74064ION    NA+46324  44.994  29.503  13.575
74065ION    NA+46325  40.068   7.537  13.780
74066ION    NA+46326  19.854  28.215   2.375
74067ION    NA+46327   9.959  12.645   9.841
74068ION    NA+46328  11.869  27.421   2.989
74069ION    NA+46329   4.797  39.479   3.000
74070ION    NA+46330  19.275  38.000  11.446
74071ION    NA+46331  33.285   3.609   0.279
74072ION    NA+46332  35.770   1.497  13.185
74073ION    NA+46333  10.233  14.319  11.607
74074ION    NA+46334  14.638   4.207  12.565
74075ION    NA+46335  40.815  35.743  10.652
74076ION    NA+46336  39.439  33.131   3.628
74077ION    NA+46337  14.361  41.657  12.194
74078ION    NA+46338  16.681  23.634  10.840
74079ION    NA+46339  35.216  36.355  11.029
74080ION    NA+46340  23.571  17.537   2.894
74081ION    NA+46341  38.409  15.241  11.639
74082ION    NA+46342   9.560  38.237   4.205
74083ION    NA+46343  29.899  31.491   2.810
74084ION    NA+46344  44.994  41.715  11.344
74085ION    NA+46345  21.774  12.708  11.831
74086ION    NA+46346   8.506  40.880  11.759
74087ION    NA+46347  26.872  26.935   0.869
74088ION    NA+46348  35.433  38.888   0.711
74089ION    NA+46349   5.258  29.988   2.448
74090ION    NA+46350   2.732  33.499  12.050
74091ION    NA+46351  12.753  12.625   0.077
74092ION    NA+46352  35.166  35.579  11.486
74093ION    NA+46353   7.432   2.126  14.580
74094ION    NA+46354   5.424  32.549   0.620
74095ION    NA+46355  18.033   5.523  12.416
74096ION    NA+46356  31.629  22.957  13.557
74097ION    NA+46357   8.282  30.238  13.972
74098ION    NA+46358  36.141   7.811   1.420
74099ION    NA+46359  30.981   4.581   2.861
74100ION    NA+46360  31.104  16.866  10.383
74101ION    NA+46361  43.044  43.876  11.174
74102ION    NA+46362  37.452  20.550  11.576
74103ION    NA+46363  32.495  38.125  10.818
74104ION    NA+46364   4.779   3.378  10.711
74105ION    NA+46365  42.211   7.627  14.477
74106ION    NA+46366  19.408  13.454   3.182
74107ION    NA+46367   1.962   7.599   3.380
74108ION    NA+46368   4.524   7.308  14.759
74109ION    NA+46369  21.671  27.306   2.941
74110ION    NA+46370   8.418  42.505  12.927
74111ION    NA+46371   9.916   8.244  13.456
74112ION    NA+46372  30.513   4.662   1.327
74113ION    NA+46373  26.216  42.867   4.284
74114ION    NA+46374   2.274  40.175  12.080
74115ION    NA+46375  37.463  10.681   0.482
74116ION    NA+46376  22.636  14.047  10.692
74117ION    NA+46377  13.230  32.734  12.897
74118ION    NA+46378  34.476  17.122  11.721
74119ION    NA+46379   7.164  20.875  11.780
74120ION    NA+46380  38.932  42.018   3.612
74121ION    NA+46381  29.425  34.304  12.064
74122ION    NA+46382   7.807   2.821  11.159
74123ION    NA+46383   8.318  19.591  14.113
74124ION    NA+46384  43.105   1.094   0.247
74125ION    NA+46385  36.351  35.051   1.492
74126ION    NA+46386  44.374   8.155   0.350
74127ION    NA+46387  22.306  22.699  14.895
74128ION    NA+46388   4.609   8.529  10.323
74129ION    NA+46389   2.828  37.657   1.632
74130ION    NA+46390  39.851  36.915   1.176
74131ION    NA+46391  17.812  40.546  10.232
74132ION    NA+46392  38.477  39.775  13.765
74133ION    NA+46393   2.291  15.492   1.346
74134ION    NA+46394  43.942   6.283   1.427
74135ION    NA+46395  31.490  16.021   2.791
74136ION    NA+46396  38.936  28.324   1.855
74137ION    NA+46397  12.425  32.383   4.519
74138ION    NA+46398  40.859  24.056  12.876
74139ION    NA+46399  41.502  13.831  14.498
74140ION    NA+46400  43.467   7.862   3.333
74141ION    NA+46401  35.107  43.885   4.387
74142ION    NA+46402  35.991  37.628   1.367
74143ION    NA+46403  41.554   8.354  11.979
74144ION    NA+46404  23.183  17.971  10.945
74145ION    NA+46405  36.611   5.763   2.017
74146ION    NA+46406  27.494  40.032  13.113
74147ION    NA+46407  35.423  42.629   5.034
74148ION    NA+46408  20.721  21.978   1.904
74149ION    NA+46409   3.252  35.010  12.968
74150ION    NA+46410  34.926  29.866  14.745
74151ION    NA+46411  17.595  33.229   3.664
74152ION    NA+46412   7.962   1.059  13.845
74153ION    NA+46413  33.278   0.475   0.744
74154ION    NA+46414  21.329  27.303  12.663
74155ION    NA+46415  40.908  23.004  14.821
74156ION    NA+46416  11.461  15.344   3.311
74157ION    NA+46417  15.534  29.687   2.578
74158ION    NA+46418  39.745  13.668  10.802
74159ION    NA+46419   1.941  20.554   3.276
74160ION    NA+46420  39.198  36.163   1.583
74161ION    NA+46421  43.346  19.373  13.102
74162ION    NA+46422  40.240  33.341   0.552
74163ION    NA+46423  31.139  43.595   2.495
74164ION    NA+46424  23.956  44.494  12.401
74165ION    NA+46425   2.446  26.232   0.437
74166ION    NA+46426  25.621  19.840   3.124
74167ION    NA+46427  10.461   7.242  11.061
74168ION    NA+46428  29.960  12.329   2.256
74169ION    NA+46429   9.227  18.145   0.400
74170ION    NA+46430  42.780  14.858  13.161
74171ION    NA+46431   2.781   6.118   0.056
74172ION    NA+46432  19.951   1.139   4.388
74173ION    NA+46433   9.550  13.036  14.793
74174ION    NA+46434  33.588  27.132   1.911
74175ION    NA+46435   5.399   4.469  11.935
74176ION    NA+46436   0.280   5.309   3.190
74177ION    NA+46437  28.441  22.249   2.309
74178ION    NA+46438  10.788  10.777   4.115
74179ION    NA+46439   7.856  43.391   2.864
74180ION    NA+46440  11.144   4.800   0.900
74181ION    NA+46441   5.558  44.892  12.893
74182ION    NA+46442  15.849  31.214   3.375
74183ION    NA+46443  16.678  32.629   5.037
74184ION    NA+46444  16.913  29.202   4.356
74185ION    NA+46445   5.887  29.345   1.570
74186ION    NA+46446  40.622   3.360   3.331
74187ION    NA+46447  38.070  27.983   4.437
74188ION    NA+46448  25.192   3.961   2.744
74189ION    NA+46449  29.269  36.789   1.747
74190ION    NA+46450  16.559   6.529   9.647
74191ION    NA+46451  39.717  18.840   4.702
74192ION    NA+46452   6.246  18.129   9.500
74193ION    NA+46453  18.743   9.559  10.606
74194ION    NA+46454  31.714   4.690   2.337
74195ION    NA+46455   7.545  17.768   0.863
74196ION    NA+46456  38.477  21.651  11.991
74197ION    NA+46457  18.037  41.120   4.940
74198ION    NA+46458   8.057  25.722  12.073
74199ION    NA+46459  12.069  22.011  11.459
74200ION    NA+46460  32.315  21.490  13.398
74201ION    NA+46461  43.305  35.223  13.832
74202ION    NA+46462  23.519  27.727  10.979
74203ION    NA+46463  23.700  29.606  12.399
74204ION    NA+46464  28.535  16.568  14.215
74205ION    NA+46465   8.183   1.883   0.232
74206ION    NA+46466   8.819   1.878   3.833
74207ION    NA+46467  28.497  25.826   1.961
74208ION    NA+46468   9.135  41.931  13.950
74209ION    NA+46469  28.996  37.084  11.302
74210ION    NA+46470  14.809  43.526   4.400
74211ION    NA+46471  11.051  34.678   4.116
74212ION    NA+46472   5.690   2.919  10.720
74213ION    NA+46473  10.354  33.993   4.326
74214ION    NA+46474  15.530   6.143  14.405
74215ION    NA+46475  24.428   9.681  12.086
74216ION    NA+46476  11.313  28.064  12.066
74217ION    NA+46477  34.116  15.725   2.708
74218ION    NA+46478  24.294  18.242  14.108
74219ION    NA+46479  28.971   7.174   2.223
74220ION    NA+46480  35.329  28.776   3.255
74221ION    NA+46481  38.647  37.660   0.464
74222ION    NA+46482  17.397  15.332   4.581
74223ION    NA+46483  21.874   0.198   0.790
74224ION    NA+46484   4.885  11.601  11.133
74225ION    NA+46485  36.450  39.518   1.572
74226ION    NA+46486  14.189  17.491   1.932
74227ION    NA+46487  15.319   2.269   1.488
74228ION    NA+46488   1.002  27.059   3.140
74229ION    NA+46489   0.663  33.434  12.170
74230ION    NA+46490  32.261   4.561   4.558
74231ION    NA+46491  37.164  19.507  14.990
74232ION    NA+46492  20.661  40.448  13.170
74233ION    NA+46493  14.238   5.313  11.410
74234ION    NA+46494  14.234  41.193  13.560
74235ION    NA+46495  21.264  16.806  11.148
74236ION    NA+46496   0.542  31.982   4.318
74237ION    NA+46497  28.526  32.086  12.020
74238ION    NA+46498   2.367  24.533  12.831
74239ION    NA+46499  27.702  16.178   4.135
74240ION    NA+46500  14.135  19.647  12.938
74241ION    NA+46501  39.511  34.656   2.268
74242ION    NA+46502  13.632  43.555  11.503
74243ION    NA+46503  21.944  31.519   3.794
74244ION    NA+46504  17.519  31.632   2.946
74245ION    NA+46505   2.075  41.364  13.056
74246ION    NA+46506  38.517  13.278   3.800
74247ION    NA+46507  31.920  33.010  14.727
74248ION    NA+46508   9.940  25.003  13.564
74249ION    NA+46509   1.415  11.927  12.673
74250ION    NA+46510  32.069   8.824  12.011
74251ION    NA+46511  32.009  29.468   1.242
74252ION    NA+46512  26.897  44.555   0.933
74253ION    NA+46513   7.596  25.797   0.216
74254ION    NA+46514  25.889  27.933  13.229
74255ION    NA+46515  31.905   7.145   1.279
74256ION    NA+46516  23.659   3.746  11.976
74257ION    NA+46517  22.078  43.914  10.714
74258ION    NA+46518  14.194  36.508   0.784
74259ION    NA+46519  19.027  16.969  14.929
74260ION    NA+46520  20.214  12.613  14.342
74261ION    NA+46521  12.185   5.957   1.373
74262ION    NA+46522  25.202  39.973   2.705
74263ION    NA+46523  32.584  10.817  10.724
74264ION    NA+46524   9.474  26.703  13.609
74265ION    NA+46525   7.252   0.982   1.811
74266ION    NA+46526  42.749   3.937   0.498
74267ION    NA+46527   6.856   7.839   0.309
74268ION    NA+46528   3.522  17.821   1.708
74269ION    NA+46529  39.123  15.667  14.762
74270ION    NA+46530  43.201  18.853  12.425
74271ION    NA+46531  12.490  17.502   1.279
74272ION    NA+46532  22.931  37.914   2.720
74273ION    NA+46533   1.533   0.889   0.848
74274ION    NA+46534  14.296  32.510   4.606
74275ION    NA+46535  16.130  15.643   2.288
74276ION    NA+46536  15.899   9.912  12.679
74277ION    NA+46537  18.161   8.163  12.003
74278ION    NA+46538  32.340  15.570  11.623
74279ION    NA+46539  19.203   1.168   2.859
74280ION    NA+46540  36.536   4.369   3.136
74281ION    NA+46541  26.257  12.738  10.693
74282ION    NA+46542  39.246  33.527  12.097
74283ION    NA+46543   5.096  39.807  14.557
74284ION    NA+46544  42.372  14.381   4.469
74285ION    NA+46545  36.032  15.393  13.282
74286ION    NA+46546  14.736   7.617  13.134
74287ION    NA+46547   1.087  43.395   1.633
74288ION    NA+46548  15.829  32.835   0.690
74289ION    NA+46549  23.189   9.372  11.574
74290ION    NA+46550  22.789  35.386   2.557
74291ION    NA+46551  43.364  35.552  14.803
74292ION    NA+46552   7.316  10.377  11.531
74293ION    NA+46553   2.784  12.727   1.478
74294ION    NA+46554  10.494  44.269   3.848
74295ION    NA+46555  29.333  32.241  11.378
74296ION    NA+46556   0.756  32.489  11.124
74297ION    NA+46557  21.011   5.936   1.896
74298ION    NA+46558  13.615  22.281   4.196
74299ION    NA+46559  30.144  38.353  11.376
74300ION    NA+46560  19.162  20.047  11.066
74301ION    NA+46561  32.999  42.098  12.251
74302ION    NA+46562  18.802  38.922   3.783
74303ION    NA+46563  25.464  23.904   3.893
74304ION    NA+46564  21.878  26.472   0.830
74305ION    NA+46565  11.201  20.267  12.601
74306ION    NA+46566  42.246   2.361   5.101
74307ION    NA+46567   3.429  18.192   0.484
74308ION    NA+46568  33.106   4.393  11.386
74309ION    NA+46569   7.678  34.874  12.111
74310ION    NA+46570  40.181  19.182   2.305
74311ION    NA+46571  19.847  25.935  11.158
74312ION    NA+46572  15.052  21.015   4.191
74313ION    NA+46573  32.565  29.309   4.127
74314ION    NA+46574  32.157  16.746  13.475
74315ION    NA+46575  39.159  27.230   2.359
74316ION    NA+46576  11.076  17.756   2.935
74317ION    NA+46577  34.024  21.228  12.984
74318ION    NA+46578   7.749   6.653  12.595
74319ION    NA+46579  33.614  28.107   2.408
74320ION    NA+46580  14.157   7.131   3.594
74321ION    NA+46581  29.592   5.234  13.837
74322ION    NA+46582   5.965  30.930   3.656
74323ION    NA+46583  38.405  20.300  11.230
74324ION    NA+46584  24.905   1.874  11.921
74325ION    NA+46585  40.849  16.024   3.954
74326ION    NA+46586  26.873   2.444  12.164
74327ION    NA+46587   2.000   4.977  11.968
74328ION    NA+46588  16.327  24.613   2.212
74329ION    NA+46589  32.414  31.382  13.716
74330ION    NA+46590  28.365  12.648  13.620
74331ION    NA+46591   3.214  39.787  12.854
74332ION    NA+46592  40.925  19.637  11.588
74333ION    NA+46593   8.486  15.666  10.779
74334ION    NA+46594  43.078  36.574  13.821
74335ION    NA+46595  11.942  23.080   4.373
74336ION    NA+46596  24.602  24.530   1.701
74337ION    NA+46597  41.866   4.851  13.345
74338ION    NA+46598   8.186  19.788   4.148
74339ION    NA+46599  34.111   9.338   2.392
74340ION    NA+46600  15.044  21.201  13.480
74341ION    NA+46601   6.442  35.224   1.765
74342ION    NA+46602  19.450  41.646  13.261
74343ION    NA+46603  26.033  18.677  13.549
74344ION    NA+46604  20.971  28.297  14.254
74345ION    NA+46605  32.278  22.191   3.316
74346ION    NA+46606   9.804   2.930  11.274
74347ION    NA+46607  22.694  31.211  10.685
74348ION    NA+46608   4.413   3.556  12.047
74349ION    NA+46609  16.359   1.023  12.006
74350ION    NA+46610  38.694  16.690   2.665
74351ION    NA+46611   9.855  10.761   1.245
74352ION    NA+46612  28.698  28.609  10.977
74353ION    NA+46613  14.067  25.385  12.378
74354ION    NA+46614   1.299  19.321   0.933
74355ION    NA+46615  25.030  40.447  12.982
74356ION    NA+46616  22.198  41.390   3.743
74357ION    NA+46617  43.970  24.134  14.052
74358ION    NA+46618  31.700  30.820  14.361
74359ION    NA+46619  40.589  39.867  11.357
74360ION    NA+46620  30.762  17.578   0.574
74361ION    NA+46621  11.371  26.972  10.382
74362ION    NA+46622  23.723   7.519  10.658
74363ION    NA+46623  41.273  27.988  12.869
74364ION    NA+46624  15.344  15.160   2.874
74365ION    NA+46625   2.422  11.420   1.862
74366ION    NA+46626   8.770   1.713   1.408
74367ION    NA+46627  10.111  27.782   4.164
74368ION    NA+46628  19.532  44.288   5.067
74369ION    NA+46629  38.756   5.264   1.763
74370ION    NA+46630   0.118  34.709  14.503
74371ION    NA+46631  33.665  20.734   1.351
74372ION    NA+46632  11.818  44.235   5.255
74373ION    NA+46633  19.028  31.513   2.791
74374ION    NA+46634   8.829  25.101   3.251
74375ION    NA+46635   4.286  11.401   1.780
74376ION    NA+46636  19.454  20.410   1.927
74377ION    NA+46637  18.961  24.039   2.671
74378ION    NA+46638  22.360  44.648  11.451
74379ION    NA+46639  44.036  23.655   1.381
74380ION    NA+46640  16.283  12.688  14.722
74381ION    NA+46641   5.606  28.222  10.373
74382ION    NA+46642   0.446  30.728  13.572
74383ION    NA+46643  15.294  24.201  14.956
74384ION    NA+46644  23.625  24.180   3.293
74385ION    NA+46645  41.641  14.825  12.521
74386ION    NA+46646  43.108  39.262   0.833
74387ION    NA+46647  30.734  24.653   0.498
74388ION    NA+46648  19.773  23.754  14.829
74389ION    NA+46649  33.664  19.300   3.009
74390ION    NA+46650  43.284  35.113   3.130
74391ION    NA+46651   0.102  44.927   0.345
74392ION    NA+46652   7.078  12.297  13.799
74393ION    NA+46653  12.639  25.135   0.832
74394ION    NA+46654  16.842  36.729  13.598
74395ION    NA+46655  15.312   0.765  12.555
74396ION    NA+46656  27.629  10.948   4.395
74397ION    NA+46657  11.496   7.979  11.837
74398ION    NA+46658  34.199  35.823  11.569
74399ION    NA+46659  33.985  41.514  13.621
74400ION    NA+46660   6.496  42.816  14.845
74401ION    NA+46661  20.906   0.562  10.755
74402ION    NA+46662   9.969  16.688  14.974
74403ION    NA+46663  17.129  41.879  11.147
74404ION    NA+46664  42.898  36.658  10.383
74405ION    NA+46665  40.757  11.383   1.786
74406ION    NA+46666  13.438   5.417  14.632
74407ION    NA+46667  32.635  21.416  11.254
74408ION    NA+46668  27.957   9.264   2.250
74409ION    NA+46669  38.056   8.404   3.348
74410ION    NA+46670  22.659  37.751  14.839
74411ION    NA+46671   5.756  28.439   1.633
74412ION    NA+46672  37.309   6.791   3.795
74413ION    NA+46673  10.068  33.195   2.930
74414ION    NA+46674   8.319  26.129   9.378
74415ION    NA+46675  31.527   3.880   0.322
74416ION    NA+46676  15.280  11.724  13.900
74417ION    NA+46677  34.732  35.742   1.312
74418ION    NA+46678  27.473  30.610  13.800
74419ION    NA+46679  15.307   6.659  12.430
74420ION    NA+46680  34.947  17.107   5.458
74421ION    NA+46681  21.486  16.648   3.854
74422ION    NA+46682   9.613  17.141   3.624
74423ION    NA+46683  42.847  39.035   2.535
74424ION    NA+46684  17.307  39.000  12.568
74425ION    NA+46685  25.204  35.870   2.424
74426ION    NA+46686   4.658  44.526   4.041
74427ION    NA+46687  43.155  29.007   2.083
74428ION    NA+46688   7.754  39.236   0.470
74429ION    NA+46689  25.646  31.394   1.105
74430ION    NA+46690  15.808   5.056   3.110
74431ION    NA+46691  37.936  27.187  10.669
74432ION    NA+46692  26.707   8.937   2.457
74433ION    NA+46693  31.973  13.813   3.862
74434ION    NA+46694  39.913  30.699   0.481
74435ION    NA+46695   5.330  27.059   3.623
74436ION    NA+46696  31.174   5.034   4.048
74437ION    NA+46697  29.398  16.891  12.464
74438ION    NA+46698  42.726  22.205   3.072
74439ION    NA+46699  19.130  40.300   2.256
74440ION    NA+46700   9.679  32.325   2.306
74441ION    NA+46701  17.435  30.993   3.427
74442ION    NA+46702  23.224   9.816   3.333
74443ION    NA+46703  29.337  26.692  13.668
74444ION    NA+46704  37.973  17.002   0.789
74445ION    NA+46705  44.155  12.936  11.171
74446ION    NA+46706  33.553  19.362   4.791
74447ION    NA+46707  12.107  30.193   0.227
74448ION    NA+46708  30.145   6.857   4.798
74449ION    NA+46709  33.968  37.286   2.752
74450ION    NA+46710  32.405   9.839   4.701
74451ION    NA+46711  32.603  20.256   3.161
74452ION    NA+46712   1.620  27.450   4.320
74453ION    NA+46713  10.597   7.195  13.594
74454ION    NA+46714  15.679  37.926   4.960
74455ION    NA+46715  12.857  13.351  13.855
74456ION    NA+46716  18.714   9.606  14.172
74457ION    NA+46717  28.278  27.358  13.885
74458ION    NA+46718  24.648  22.042  11.622
74459ION    NA+46719  11.795   7.255  13.175
74460ION    NA+46720  16.150  44.284   0.397
74461ION    NA+46721   9.871  24.340  12.624
74462ION    NA+46722  41.088  33.195   2.787
74463ION    NA+46723   0.602  18.071   3.673
74464ION    NA+46724  13.634  40.480   3.133
74465ION    NA+46725  21.847  15.982  11.346
74466ION    NA+46726  29.364  17.927  12.147
74467ION    NA+46727   1.060  15.608  12.244
74468ION    NA+46728  42.057  38.530   0.228
74469ION    NA+46729   7.495   0.663   4.104
74470ION    NA+46730   6.430  28.769   5.527
74471ION    NA+46731  17.762   6.486   4.265
74472ION    NA+46732  40.929   2.120  12.851
74473ION    NA+46733  26.507  25.282   0.275
74474ION    NA+46734  36.739  20.415   5.417
74475ION    NA+46735   7.868  29.642   1.025
74476ION    NA+46736  29.824  18.487   4.188
74477ION    NA+46737   0.820  19.509   0.336
74478ION    NA+46738  36.093  25.214   2.177
74479ION    NA+46739  19.882  12.946   0.537
74480ION    NA+46740   9.449  14.257   3.109
74481ION    NA+46741  21.414  20.333  11.400
74482ION    NA+46742  22.174  35.689   3.197
74483ION    NA+46743  23.213  20.403   5.485
74484ION    NA+46744  44.735  37.815   1.881
74485ION    NA+46745  40.857  42.108  14.288
74486ION    NA+46746  33.422  22.111  11.872
74487ION    NA+46747  35.548  25.888   0.161
74488ION    NA+46748   0.054  25.921   4.431
74489ION    NA+46749  31.581  40.886  14.020
74490ION    NA+46750  30.949  35.659   4.183
74491ION    NA+46751  16.079   8.625  12.937
74492ION    NA+46752  23.664  13.866   2.038
74493ION    NA+46753  14.072  24.666   3.396
74494ION    NA+46754  39.749  44.000  13.290
74495ION    NA+46755  32.123  35.529  14.307
74496ION    NA+46756   4.494  14.803  13.426
74497ION    NA+46757  13.272  38.139  14.606
74498ION    NA+46758  13.552  40.567   0.219
74499ION    NA+46759  43.180  28.881   2.937
74500ION    NA+46760  15.069  32.096   1.141
74501ION    NA+46761   0.619  29.538  12.566
74502ION    NA+46762  38.288  11.122   3.325
74503ION    NA+46763   9.036  23.623   2.725
74504ION    NA+46764  14.410  13.415   3.246
74505ION    NA+46765   2.184  27.864   3.722
74506ION    NA+46766   8.325  18.617   3.581
74507ION    NA+46767  32.206  14.775   4.005
74508ION    NA+46768  37.254  43.452  11.293
74509ION    NA+46769  19.959  30.976  11.731
74510ION    NA+46770  15.140  10.695   2.644
74511ION    NA+46771  19.737  29.523   1.902
74512ION    NA+46772  42.912  41.504   3.691
74513ION    NA+46773   1.614  19.854   0.120
74514ION    NA+46774  36.568  41.009   0.725
74515ION    NA+46775  38.997  40.503  10.707
74516ION    NA+46776  21.687  17.674  10.538
74517ION    NA+46777  31.019  30.968   2.720
74518ION    NA+46778  34.767  41.862   2.799
74519ION    NA+46779  28.059   3.691   3.903
74520ION    NA+46780  30.728  12.878   4.404
74521ION    NA+46781  24.641  16.327   1.202
74522ION    NA+46782  31.949   0.559   3.586
74523ION    NA+46783   9.851   6.921   4.621
74524ION    NA+46784  37.493  42.095  13.368
74525ION    NA+46785  29.626  12.722   3.863
74526ION    NA+46786  38.834  37.648  11.525
74527ION    NA+46787  27.569  34.591   3.930
74528ION    NA+46788   3.307  14.560   0.195
74529ION    NA+46789  44.735  10.817   0.893
74530ION    NA+46790  24.339  34.989  11.550
74531ION    NA+46791  27.240   4.700  13.907
74532ION    NA+46792  12.215  31.909  11.994
74533ION    NA+46793  10.482  32.480   1.572
74534ION    NA+46794  30.904  42.971   4.562
74535ION    NA+46795  12.573  27.409   1.274
74536ION    NA+46796   9.262  40.464   3.396
74537ION    NA+46797  32.763  24.540  13.963
74538ION    NA+46798  33.890  19.437  11.390
74539ION    NA+46799  40.781   1.685  13.739
74540ION    NA+46800  10.653  31.361   1.597
74541ION    NA+46801  25.238  13.813  14.045
74542ION    NA+46802   9.736  19.802   4.364
74543ION    NA+46803  11.663   9.712   2.668
74544ION    NA+46804  31.472  32.859   0.733
74545ION    NA+46805  13.014  15.182  11.092
74546ION    NA+46806  41.664  28.939   0.874
74547ION    NA+46807  21.340   2.640  14.614
74548ION    NA+46808  20.563  38.920  12.871
74549ION    NA+46809   9.662  31.434   1.485
74550ION    NA+46810  41.963  36.517   1.771
74551ION    NA+46811  35.835  32.004  14.704
74552ION    NA+46812  40.484  19.254  14.898
74553ION    NA+46813   6.673  44.949  11.547
74554ION    NA+46814  15.500   5.758   3.602
74555ION    NA+46815  13.242  38.958   0.196
74556ION    NA+46816  25.734  33.126   1.796
74557ION    NA+46817  15.558  32.516  13.415
74558ION    NA+46818  15.872   2.301  13.817
74559ION    NA+46819  27.355  33.004  14.094
74560ION    NA+46820  44.703  18.010   4.106
74561ION    NA+46821  38.764   7.958  14.470
74562ION    NA+46822  37.698  20.654   2.476
74563ION    NA+46823  30.448   7.494   4.620
74564ION    NA+46824   4.940  11.058  13.031
74565ION    NA+46825  20.332  23.087   2.929
74566ION    NA+46826  26.934  26.887  12.753
74567ION    NA+46827  14.482  24.946   9.540
74568ION    NA+46828  27.536  18.176   1.678
74569ION    NA+46829  32.808  27.857   1.827
74570ION    NA+46830  23.615  18.128   3.701
74571ION    NA+46831  10.898  24.635  12.730
74572ION    NA+46832  14.318  40.794  14.516
74573ION    NA+46833   2.205  33.612  12.959
74574ION    NA+46834  43.532  13.606  14.848
74575ION    NA+46835  15.648  23.011   0.069
74576ION    NA+46836  32.906  40.765   2.599
74577ION    NA+46837  11.832  12.104  12.646
74578ION    NA+46838   3.754   0.362   1.681
74579ION    NA+46839  15.852  33.082  12.592
74580ION    NA+46840  26.630  25.231   1.267
74581ION    NA+46841  33.592  27.309  11.651
74582ION    NA+46842  20.295  17.738  14.360
74583ION    CL-46843  30.004  28.535  14.078
74584ION    CL-46844  26.752  26.623   3.726
74585ION    CL-46845  25.694  20.826  12.531
74586ION    CL-46846  34.004  22.103   1.702
74587ION    CL-46847   1.212  11.653  12.976
74588ION    CL-46848  24.775   2.499   5.143
74589ION    CL-46849  17.873  29.535   3.703
74590ION    CL-46850  29.732  43.481   4.238
74591ION    CL-46851  43.416   3.137   5.117
74592ION    CL-46852   9.533  11.048  10.928
74593ION    CL-46853  39.806  36.096  11.973
74594ION    CL-46854  28.776  18.318   3.108
74595ION    CL-46855  44.344  30.382   0.244
74596ION    CL-46856  18.052  20.763   4.128
74597ION    CL-46857  27.006  16.266   2.588
74598ION    CL-46858  27.445  28.431   1.026
74599ION    CL-46859  30.818   2.362  10.323
74600ION    CL-46860  13.571   5.730  14.937
74601ION    CL-46861  15.136  16.503  11.136
74602ION    CL-46862   4.459  16.569  11.566
74603ION    CL-46863  25.883  27.505  13.081
74604ION    CL-46864  26.029  33.645  13.446
74605ION    CL-46865  22.487  25.541   2.281
74606ION    CL-46866  15.643   5.411   3.342
74607ION    CL-46867  41.031  44.367   0.919
74608ION    CL-46868   5.192  32.913   0.744
74609ION    CL-46869  16.925  34.817  14.068
74610ION    CL-46870  39.998  39.876   0.935
74611ION    CL-46871   8.465  16.862  13.497
74612ION    CL-46872  37.678  20.111  12.568
74613ION    CL-46873   1.957   0.661   4.754
74614ION    CL-46874  38.767  16.088   1.760
74615ION    CL-46875  37.591  38.808   0.906
74616ION    CL-46876  31.632  28.304   3.191
74617ION    CL-46877  25.920  18.730  13.090
74618ION    CL-46878   7.055  21.802   1.393
74619ION    CL-46879  41.959  44.604  11.069
74620ION    CL-46880  10.531  18.094   0.611
74621ION    CL-46881  21.285  28.606  14.366
74622ION    CL-46882   6.422  14.445  13.323
74623ION    CL-46883   3.408  38.128  14.612
74624ION    CL-46884  36.545  18.625  10.133
74625ION    CL-46885  12.060   0.462  11.451
74626ION    CL-46886  36.137  14.961  13.338
74627ION    CL-46887   4.103  19.751   3.659
74628ION    CL-46888   7.792  37.369   3.608
74629ION    CL-46889   5.802  28.027   1.817
74630ION    CL-46890  12.260   5.744   0.988
74631ION    CL-46891  41.514  12.687   1.093
74632ION    CL-46892  21.004  11.975  13.567
74633ION    CL-46893   1.200  32.444  11.164
74634ION    CL-46894  20.092  43.398   3.576
74635ION    CL-46895  12.088  36.077  11.154
74636ION    CL-46896  21.306  29.289  11.208
74637ION    CL-46897  24.142  15.282   4.340
74638ION    CL-46898  16.326   9.836  12.540
74639ION    CL-46899  38.014   6.435   0.223
74640ION    CL-46900  17.037  24.207  13.381
74641ION    CL-46901  33.279   5.842   3.276
74642ION    CL-46902  39.932   5.168  13.389
74643ION    CL-46903  24.112  35.104   1.494
74644ION    CL-46904  27.401  41.522  10.493
74645ION    CL-46905  43.974  33.137   2.197
74646ION    CL-46906  29.083   3.325  14.930
74647ION    CL-46907  24.811  16.581   1.526
74648ION    CL-46908   3.777  10.448  13.715
74649ION    CL-46909  26.435  36.895   3.648
74650ION    CL-46910  33.481   5.865  12.900
74651ION    CL-46911  38.782  40.825  12.913
74652ION    CL-46912  41.931  11.575  10.912
74653ION    CL-46913   8.265  21.581   0.294
74654ION    CL-46914  30.160  30.494   3.081
74655ION    CL-46915  17.313  33.176   3.314
74656ION    CL-46916   7.355  31.449  13.605
74657ION    CL-46917   5.123  24.203  14.446
74658ION    CL-46918  14.570  36.828   3.194
74659ION    CL-46919  19.520   8.395   4.215
74660ION    CL-46920  42.751  27.478   3.794
74661ION    CL-46921   7.876  41.443   0.712
74662ION    CL-46922  15.134  44.656  14.130
74663ION    CL-46923   0.106   3.923  14.531
74664ION    CL-46924  32.192  24.676   4.772
74665ION    CL-46925  19.635  40.903   4.284
74666ION    CL-46926  18.746  29.097   1.309
74667ION    CL-46927  34.817   1.670   1.384
74668ION    CL-46928  43.982  38.490   3.901
74669ION    CL-46929  12.377  43.089  10.992
74670ION    CL-46930   4.825   0.167   0.678
74671ION    CL-46931  41.963  39.037  10.400
74672ION    CL-46932  22.926  35.425   2.124
74673ION    CL-46933  17.886   6.890  14.012
74674ION    CL-46934  31.647   6.248   3.307
74675ION    CL-46935  38.146  13.424   4.057
74676ION    CL-46936  18.089  14.105   3.261
74677ION    CL-46937  27.770  34.159  11.358
74678ION    CL-46938   2.672  16.779   3.394
74679ION    CL-46939  40.838  17.215   1.957
74680ION    CL-46940   4.672   1.892   1.750
74681ION    CL-46941   0.497  18.615   4.944
74682ION    CL-46942  34.174   7.420   2.480
74683ION    CL-46943  30.565  28.703   1.744
74684ION    CL-46944   0.997   8.137  11.811
74685ION    CL-46945  20.805  42.874   2.739
74686ION    CL-46946   1.995  28.841  11.563
74687ION    CL-46947  41.186  11.470   1.886
74688ION    CL-46948  22.230  30.251   0.023
74689ION    CL-46949  26.783  42.469  12.403
74690ION    CL-46950  40.750  42.322  12.964
74691ION    CL-46951  32.935  42.801   1.347
74692ION    CL-46952  41.997  10.519  11.585
74693ION    CL-46953   4.424  39.502   2.738
74694ION    CL-46954  42.390  13.519  13.412
74695ION    CL-46955   1.248  19.568   0.171
74696ION    CL-46956  40.112   5.711  11.216
74697ION    CL-46957   4.730  16.480  12.525
74698ION    CL-46958  28.851  33.266   9.980
74699ION    CL-46959  35.145  26.685  10.290
74700ION    CL-46960  23.451  27.845  14.051
74701ION    CL-46961  40.121  34.540  14.830
74702ION    CL-46962   9.951  35.417  14.554
74703ION    CL-46963  30.271  27.109   0.817
74704ION    CL-46964  18.764   2.401   1.822
74705ION    CL-46965  38.955  18.748   0.761
74706ION    CL-46966  10.212  12.072   0.830
74707ION    CL-46967  27.934  42.994   2.462
74708ION    CL-46968  13.922  24.983   3.673
74709ION    CL-46969   7.937  36.226   2.146
74710ION    CL-46970  29.615  33.884   3.256
74711ION    CL-46971   6.479  34.045  10.821
74712ION    CL-46972  27.243  39.545   5.099
74713ION    CL-46973  22.903  16.528  14.184
74714ION    CL-46974  43.228  31.955  10.773
74715ION    CL-46975   3.699  43.050   2.552
74716ION    CL-46976   2.423  25.910  12.071
74717ION    CL-46977  20.261  24.773   4.605
74718ION    CL-46978   2.929   2.629  10.810
74719ION    CL-46979   3.277   5.733   2.814
74720ION    CL-46980  21.290  12.023   3.367
74721ION    CL-46981  24.253  33.985  12.257
74722ION    CL-46982  14.890  10.324   2.778
74723ION    CL-46983  35.765  19.420  12.383
74724ION    CL-46984  30.820  17.552  12.475
74725ION    CL-46985  35.497  37.997  10.707
74726ION    CL-46986   3.506   4.333   0.618
74727ION    CL-46987  13.485  43.861  11.217
74728ION    CL-46988  12.442  31.805  12.375
74729ION    CL-46989   1.607  44.694   3.709
74730ION    CL-46990  37.583  17.285  10.331
74731ION    CL-46991   7.690  19.674   2.778
74732ION    CL-46992  10.403  42.425   1.122
74733ION    CL-46993  30.843   1.030   2.141
74734ION    CL-46994  24.354   0.200   4.991
74735ION    CL-46995  15.895   1.244  11.125
74736ION    CL-46996  14.106   8.528   3.891
74737ION    CL-46997  31.056  26.335   0.766
74738ION    CL-46998   4.115  10.431  11.897
74739ION    CL-46999  36.581  10.902   1.398
74740ION    CL-47000   3.985  33.627  11.154
74741ION    CL-47001   8.137  40.967   2.615
74742ION    CL-47002   4.494  17.321  10.908
74743ION    CL-47003  27.355  34.928   1.281
74744ION    CL-47004   9.926  34.930  13.044
74745ION    CL-47005  16.203   6.687  12.906
74746ION    CL-47006   9.006  37.341   1.108
74747ION    CL-47007  21.061   8.857   2.647
74748ION    CL-47008  25.135  26.260   1.162
74749ION    CL-47009  13.074  30.137  12.464
74750ION    CL-47010  15.745  35.645  12.417
74751ION    CL-47011  16.224  18.680  13.382
74752ION    CL-47012   0.457  36.295  13.627
74753ION    CL-47013  27.564  35.026   4.094
74754ION    CL-47014  43.281  12.489   5.023
74755ION    CL-47015   6.202  41.955   1.516
74756ION    CL-47016  29.394  18.467   4.317
74757ION    CL-47017  42.980  12.524   0.986
74758ION    CL-47018   6.111  41.038  11.875
74759ION    CL-47019   2.020  11.804  10.094
74760ION    CL-47020  17.125  11.015  14.234
74761ION    CL-47021  30.283  29.944  11.870
74762ION    CL-47022   5.199  39.515   3.225
74763ION    CL-47023  40.416   4.806   2.102
74764ION    CL-47024  38.454  18.665  13.445
74765ION    CL-47025  26.693  18.064   9.846
74766ION    CL-47026   1.240  14.092  12.093
74767ION    CL-47027  28.846   8.165   1.260
74768ION    CL-47028  26.454  26.309   4.450
74769ION    CL-47029  44.949  20.793   4.874
74770ION    CL-47030  26.692  12.887   0.816
74771ION    CL-47031   6.072  22.363   2.971
74772ION    CL-47032  37.573  15.379   3.709
74773ION    CL-47033   8.620  44.764   2.233
74774ION    CL-47034   0.576  23.670  13.973
74775ION    CL-47035  37.580  14.613  14.941
74776ION    CL-47036  13.642   8.951   0.840
74777ION    CL-47037  32.909  19.222  12.390
74778ION    CL-47038  17.566  20.138  14.070
74779ION    CL-47039  34.073  17.420  13.072
74780ION    CL-47040  30.704  12.065   3.818
74781ION    CL-47041   7.737  17.971   0.501
74782ION    CL-47042  25.854  23.241   2.595
74783ION    CL-47043  40.739  13.928   4.611
74784ION    CL-47044   8.076   5.142   4.031
74785ION    CL-47045  19.365  18.843   3.043
74786ION    CL-47046  43.988  14.704   2.545
74787ION    CL-47047  33.728  15.144   3.716
74788ION    CL-47048   9.801   0.807   2.518
74789ION    CL-47049  12.287  41.287   0.418
74790ION    CL-47050   3.733  17.346  10.259
74791ION    CL-47051  43.355  36.686   3.376
74792ION    CL-47052   4.271   2.340  13.363
74793ION    CL-47053  42.105  41.450  11.554
74794ION    CL-47054   1.812  19.098   3.726
74795ION    CL-47055  39.592  22.487   0.575
74796ION    CL-47056  18.257  36.592  11.934
74797ION    CL-47057  22.647  31.907   9.887
74798ION    CL-47058  13.056  30.053  11.149
74799ION    CL-47059  29.868  42.135   1.344
74800ION    CL-47060  35.750   4.137  11.241
74801ION    CL-47061  18.052  10.901  11.893
74802ION    CL-47062  17.284  31.900   0.737
74803ION    CL-47063  25.247  38.113   0.488
74804ION    CL-47064   9.847  20.694  11.922
74805ION    CL-47065  21.640  10.208   3.342
74806ION    CL-47066  13.910  32.592   4.835
74807ION    CL-47067   8.594  31.412   0.801
74808ION    CL-47068   0.718  44.795   3.793
74809ION    CL-47069  35.390   5.613  12.771
74810ION    CL-47070  20.049  36.250   0.899
74811ION    CL-47071  32.698  22.372   3.328
74812ION    CL-47072  24.985  15.278   3.704
74813ION    CL-47073  12.886  17.709   1.314
74814ION    CL-47074   1.343  24.887   4.044
74815ION    CL-47075  10.205  14.755  11.523
74816ION    CL-47076   2.434  42.990  11.642
74817ION    CL-47077   7.482  20.416  12.469
74818ION    CL-47078   8.283   8.431  14.367
74819ION    CL-47079   5.457  29.604  11.263
74820ION    CL-47080  29.901   3.691   1.703
74821ION    CL-47081  37.289   7.123   4.096
74822ION    CL-47082  36.428  31.007  11.301
74823ION    CL-47083   4.665  30.759  12.284
74824ION    CL-47084  11.368   9.114   0.231
74825ION    CL-47085   1.188  21.195   2.220
74826ION    CL-47086   4.182  41.421  14.519
74827ION    CL-47087  21.428  14.946   2.179
74828ION    CL-47088  39.442  11.898   0.362
74829ION    CL-47089  22.781   1.500  11.547
74830ION    CL-47090  38.671  31.301   4.820
74831ION    CL-47091   2.264  24.151  11.576
74832ION    CL-47092   5.829  28.893   1.551
74833ION    CL-47093  43.237  10.333  11.686
74834ION    CL-47094  30.048  31.638  10.532
74835ION    CL-47095  42.477  38.457   3.953
74836ION    CL-47096   6.002  35.153   1.790
74837ION    CL-47097   2.001   5.826   2.094
74838ION    CL-47098   7.465  36.436  11.554
74839ION    CL-47099   8.926  41.082  11.654
74840ION    CL-47100  41.919  15.734   0.759
74841ION    CL-47101  32.299  34.413   2.645
74842ION    CL-47102  14.362  28.079   1.317
74843ION    CL-47103  40.894   5.178  14.771
74844ION    CL-47104  30.382  29.185  14.595
74845ION    CL-47105   2.259   5.187  13.136
74846ION    CL-47106  11.716  19.997   0.423
74847ION    CL-47107  29.420  32.977  13.952
74848ION    CL-47108  19.240  12.747  14.531
74849ION    CL-47109  44.414  40.059  12.572
74850ION    CL-47110   0.267  41.319   3.502
74851ION    CL-47111   4.656  30.161  11.482
74852ION    CL-47112  14.062   4.751   4.691
74853ION    CL-47113  41.074  41.345  12.933
74854ION    CL-47114  43.743   9.973   5.089
74855ION    CL-47115   5.781   7.405  11.253
74856ION    CL-47116  30.293  10.024   4.539
74857ION    CL-47117  44.195  37.538   4.577
74858ION    CL-47118   9.456  27.429   1.374
74859ION    CL-47119   9.544  28.120   1.904
74860ION    CL-47120  25.644   4.196   4.589
74861ION    CL-47121  37.862  24.625  12.485
74862ION    CL-47122   2.762  16.596  10.013
74863ION    CL-47123  30.353  26.686  10.890
74864ION    CL-47124  32.958  42.593  10.984
74865ION    CL-47125   2.485   2.572  10.077
74866ION    CL-47126   9.680   1.006  13.485
74867ION    CL-47127  33.925  18.993  11.365
74868ION    CL-47128  27.645  40.895   2.956
74869ION    CL-47129  38.778  17.165  13.749
74870ION    CL-47130  33.914  35.964  11.259
74871ION    CL-47131  43.023   7.809   0.519
74872ION    CL-47132   8.109  41.187  11.942
74873ION    CL-47133  23.121   1.247  14.993
74874ION    CL-47134  39.012  24.374   2.826
74875ION    CL-47135  23.703  11.887  12.368
74876ION    CL-47136  11.699   2.993  10.604
74877ION    CL-47137  21.095  13.567   0.253
74878ION    CL-47138  43.080  35.029   2.742
74879ION    CL-47139  29.219   1.490   3.960
74880ION    CL-47140  43.914  25.160   3.735
74881ION    CL-47141  15.211  32.084  14.255
74882ION    CL-47142  36.948   1.689  14.872
74883ION    CL-47143  10.968   7.625   4.544
74884ION    CL-47144  27.120  21.001  11.470
74885ION    CL-47145   7.382  41.088  14.418
74886ION    CL-47146  15.544   0.838   5.089
74887ION    CL-47147  17.238  36.936  13.566
74888ION    CL-47148  20.540  33.806  13.999
74889ION    CL-47149   0.675  37.956   9.850
74890ION    CL-47150  20.295   5.623   9.938
74891ION    CL-47151  29.238   2.538  14.329
74892ION    CL-47152  11.901   3.831  12.510
74893ION    CL-47153  35.883  41.310  14.764
74894ION    CL-47154  24.596  17.487  10.732
74895ION    CL-47155  27.476  17.109   0.952
74896ION    CL-47156  28.657   3.143   0.992
74897ION    CL-47157  43.170  43.040   1.167
74898ION    CL-47158  42.156  26.851   1.001
74899ION    CL-47159  27.053   2.313  11.773
74900ION    CL-47160  36.819  29.686   0.773
74901ION    CL-47161  43.968  26.989  12.324
74902ION    CL-47162  25.706  21.587   2.190
74903ION    CL-47163  19.491   9.924   5.042
74904ION    CL-47164  18.163   6.692   1.390
74905ION    CL-47165  14.481  26.669  12.110
74906ION    CL-47166   5.248  16.880   0.469
74907ION    CL-47167  17.168  27.542  12.173
74908ION    CL-47168  30.585  35.903   4.092
74909ION    CL-47169  32.381  34.641   0.244
74910ION    CL-47170  10.625  42.397  10.690
74911ION    CL-47171  44.406  24.812   2.214
74912ION    CL-47172  29.142   3.231   2.239
74913ION    CL-47173  17.874   5.134   0.368
74914ION    CL-47174  21.811   3.233  12.964
74915ION    CL-47175  16.732  38.767   5.072
74916ION    CL-47176   1.608   2.931   2.466
74917ION    CL-47177  43.040  26.228   0.655
74918ION    CL-47178  24.807  12.834  12.091
74919ION    CL-47179   0.920  24.922  12.050
74920ION    CL-47180   2.775   9.120  12.495
74921ION    CL-47181  36.086  12.807  10.890
74922ION    CL-47182  31.903  17.158   1.475
74923ION    CL-47183  37.351  31.883  14.231
74924ION    CL-47184  35.217  40.843  10.425
74925ION    CL-47185  44.753  10.610  11.183
74926ION    CL-47186  14.323  28.554   2.770
74927ION    CL-47187   7.417  38.541  12.501
74928ION    CL-47188  28.202  12.747  13.215
74929ION    CL-47189   9.441  21.088  14.961
74930ION    CL-47190  19.524  41.555  12.827
74931ION    CL-47191  13.416  25.657  14.892
74932ION    CL-47192  34.117  31.365  11.038
74933ION    CL-47193  33.486  40.374   3.946
74934ION    CL-47194  14.672   3.477  13.873
74935ION    CL-47195  16.749  27.597  13.509
74936ION    CL-47196   4.677   8.247  10.678
74937ION    CL-47197  31.539  31.798   3.741
74938ION    CL-47198   9.089  34.072  10.799
74939ION    CL-47199  23.763  10.742  14.309
74940ION    CL-47200  36.654  19.569   9.824
74941ION    CL-47201  17.332  10.143   5.048
74942ION    CL-47202  29.656  19.703   4.070
74943ION    CL-47203   0.459  21.034  13.271
74944ION    CL-47204  27.101  28.949  12.132
74945ION    CL-47205  14.556  12.052   2.205
74946ION    CL-47206  11.045  44.385  14.585
74947ION    CL-47207  17.639  21.056  12.075
74948ION    CL-47208   8.024   2.522  11.405
74949ION    CL-47209  36.625  42.385   0.536
74950ION    CL-47210  25.232  19.539   1.452
74951ION    CL-47211  35.755   5.947   3.014
74952ION    CL-47212  28.479  14.708   9.599
74953ION    CL-47213  21.060   3.314  14.823
74954ION    CL-47214  33.835   9.564  14.413
74955ION    CL-47215  38.827  38.548  12.540
74956ION    CL-47216  39.233   5.784  14.528
74957ION    CL-47217  26.725  40.336   1.357
74958ION    CL-47218  14.190  38.063   3.649
74959ION    CL-47219   4.268  32.070  10.366
74960ION    CL-47220  26.510  18.814   2.687
74961ION    CL-47221  38.730  15.822  10.048
74962ION    CL-47222  19.358  34.321   0.831
74963ION    CL-47223  30.726  17.714   0.144
74964ION    CL-47224  16.059   5.383  13.584
74965ION    CL-47225   2.274   1.268  14.239
74966ION    CL-47226  11.905  10.076   2.760
74967ION    CL-47227  35.331  13.181  12.065
74968ION    CL-47228  40.891   2.062   1.406
74969ION    CL-47229   5.818   4.607  13.361
74970ION    CL-47230   2.060  19.943   0.083
74971ION    CL-47231  11.431   3.625  10.035
74972ION    CL-47232  13.255  40.132  13.059
74973ION    CL-47233  33.914  39.110   3.782
74974ION    CL-47234  17.979  17.395  12.504
74975ION    CL-47235   5.231  41.606  11.258
74976ION    CL-47236  26.150  39.114   1.734
74977ION    CL-47237  23.723  20.008   4.112
74978ION    CL-47238  14.765   8.907   4.371
74979ION    CL-47239  15.290  33.367   2.169
74980ION    CL-47240   2.841  25.555   1.241
74981ION    CL-47241  21.037   6.751   2.655
74982ION    CL-47242  12.370  22.960   4.261
74983ION    CL-47243  10.204  44.401   2.457
74984ION    CL-47244  13.109   9.502   0.633
74985ION    CL-47245  33.384  34.439   3.669
74986ION    CL-47246  15.292  15.522  11.020
74987ION    CL-47247  32.821  23.571   2.799
74988ION    CL-47248  31.511  28.491   0.818
74989ION    CL-47249   4.787  29.279   1.302
74990ION    CL-47250  18.449   0.735  14.172
74991ION    CL-47251  13.739  44.860  13.516
74992ION    CL-47252  37.228  20.809  11.289
74993ION    CL-47253  10.513  32.611   1.145
74994ION    CL-47254   3.580  19.782   2.290
74995ION    CL-47255  23.123  37.220   0.844
74996ION    CL-47256   8.995   0.511   4.933
74997ION    CL-47257  20.976   7.854  14.841
74998ION    CL-47258  19.192  14.037  13.838
74999ION    CL-47259  23.022  24.828   2.778
75000ION    CL-47260  41.498   4.669   2.236
75001ION    CL-47261  35.177   2.435   3.633
75002ION    CL-47262  30.810  15.518  11.925
75003ION    CL-47263  36.165  25.751  12.755
75004ION    CL-47264   6.934  17.222   2.159
75005ION    CL-47265  31.103  43.266   2.826
75006ION    CL-47266  34.900  20.580   0.971
75007ION    CL-47267   5.887  37.528  14.966
75008ION    CL-47268   9.058  15.105   3.349
75009ION    CL-47269  23.420  21.776   2.981
75010ION    CL-47270   5.908  16.791   3.545
75011ION    CL-47271  33.496  29.944   2.264
75012ION    CL-47272  41.048  43.430   3.064
75013ION    CL-47273  39.573  16.643   2.186
75014ION    CL-47274  11.893   9.768  11.143
75015ION    CL-47275  39.534   2.868  14.273
75016ION    CL-47276  21.077  34.796  13.704
75017ION    CL-47277  34.792  10.657  14.190
75018ION    CL-47278  29.128  34.448   0.030
75019ION    CL-47279  33.201  35.479  14.113
75020ION    CL-47280  38.499  26.050  14.462
75021ION    CL-47281  29.819   8.902  12.384
75022ION    CL-47282  10.477  41.988   2.853
75023ION    CL-47283  16.223   9.769  14.556
75024ION    CL-47284  30.381  14.320   1.037
75025ION    CL-47285   9.171  35.175  12.436
75026ION    CL-47286   6.036   5.424  13.735
75027ION    CL-47287  12.387  43.442  12.460
75028ION    CL-47288  17.240  18.635  12.367
75029ION    CL-47289  23.722  16.733   0.038
75030ION    CL-47290  29.155  39.470   3.149
75031ION    CL-47291  22.911  14.994   2.798
75032ION    CL-47292  16.743  43.533  13.060
75033ION    CL-47293  26.887  24.710  13.270
75034ION    CL-47294  43.360   7.364  11.635
75035ION    CL-47295  23.035  19.758  13.614
75036ION    CL-47296  20.041  27.035   0.352
75037ION    CL-47297  19.308  27.318   1.307
75038ION    CL-47298  11.895  19.757   1.377
75039ION    CL-47299  27.284  26.276   4.187
75040ION    CL-47300  20.689  43.430   4.378
75041ION    CL-47301  20.266  42.901  13.821
75042ION    CL-47302  24.965   8.464   2.423
75043ION    CL-47303  38.834  18.082   4.116
75044ION    CL-47304  24.818  23.783  13.909
75045ION    CL-47305  14.621  21.251   1.214
75046ION    CL-47306  43.557  19.245  10.375
75047ION    CL-47307  26.978  20.790  12.881
75048ION    CL-47308  30.017  23.677  12.352
75049ION    CL-47309  38.919  13.073   3.753
75050ION    CL-47310  13.099  27.036  12.450
75051ION    CL-47311  40.477  25.777  11.577
75052ION    CL-47312  32.055  21.557  13.754
75053ION    CL-47313  41.257  32.774   2.736
75054ION    CL-47314   1.270   0.270   4.141
75055ION    CL-47315  37.716  41.219   4.526
75056ION    CL-47316  25.550  31.378  11.314
75057ION    CL-47317   4.505  44.918   3.891
75058ION    CL-47318  43.984   7.953   0.282
75059ION    CL-47319  35.033  44.377   2.148
75060ION    CL-47320   9.687  33.489   4.930
75061ION    CL-47321  19.760   9.895  11.289
75062ION    CL-47322  35.813  31.971  14.250
75063ION    CL-47323  10.305  28.714  13.151
75064ION    CL-47324  41.050  10.073  10.749
75065ION    CL-47325  41.570  35.553   4.948
75066ION    CL-47326  18.853  25.125  10.714
75067ION    CL-47327  37.821   9.276   1.779
75068ION    CL-47328  10.995  29.109   5.616
75069ION    CL-47329   2.169  22.887  13.655
75070ION    CL-47330  21.425  24.464   2.151
75071ION    CL-47331  43.378  10.801   4.238
75072ION    CL-47332  37.857  19.535  13.894
75073ION    CL-47333  33.839  16.129  14.399
75074ION    CL-47334  15.638  21.110   0.205
75075ION    CL-47335  32.876  21.644   4.365
75076ION    CL-47336  10.515  29.445   3.653
75077ION    CL-47337  35.407   8.577  12.037
75078ION    CL-47338  25.574  44.060  14.293
75079ION    CL-47339   5.688  31.830   2.160
75080ION    CL-47340  16.855  29.334   3.925
75081ION    CL-47341  12.593  31.347   4.967
75082ION    CL-47342  22.937  20.571   3.287
75083ION    CL-47343  37.664  37.081  13.531
75084ION    CL-47344  29.524   5.178  14.871
75085ION    CL-47345  15.962  31.516   3.054
75086ION    CL-47346  42.632   6.831   2.374
75087ION    CL-47347  19.446   8.470   2.895
75088ION    CL-47348  10.440  17.526   4.904
75089ION    CL-47349   1.152  32.321   2.090
75090ION    CL-47350  36.957  14.419   2.298
75091ION    CL-47351  13.832  18.158  13.864
75092ION    CL-47352  18.736  39.910  12.784
75093ION    CL-47353  40.131  15.556  13.929
75094ION    CL-47354  14.859  10.755  10.633
75095ION    CL-47355  26.402  31.856  12.483
75096ION    CL-47356  16.889  28.389  14.482
75097ION    CL-47357  31.665  25.766  14.474
75098ION    CL-47358  33.982  41.625   4.226
75099ION    CL-47359  19.094  40.532   1.240
75100ION    CL-47360  38.844  25.234  14.934
75101ION    CL-47361  33.663  15.742   2.659
75102ION    CL-47362  10.612  17.927  11.040
75103ION    CL-47363  28.772  26.161  10.422
75104ION    CL-47364  10.010   7.167  11.062
75105ION    CL-47365  34.679  17.507   0.934
75106ION    CL-47366   0.852  44.848   2.804
75107ION    CL-47367   4.014  13.294  13.645
75108ION    CL-47368  20.073   4.630  10.759
75109ION    CL-47369  25.084  24.599  11.800
75110ION    CL-47370  24.978  38.016   5.015
75111ION    CL-47371   9.679  24.763   1.872
75112ION    CL-47372  28.176  25.554   4.116
75113ION    CL-47373  21.277  37.086  11.972
75114ION    CL-47374  14.196  17.129  10.738
75115ION    CL-47375  34.878  31.609   3.668
75116ION    CL-47376  44.461   4.933  13.985
75117ION    CL-47377  15.763  30.901   3.694
75118ION    CL-47378  39.518   7.180  12.384
75119ION    CL-47379  18.962  13.409   3.208
75120ION    CL-47380  11.220  15.089   3.021
75121ION    CL-47381  25.470  39.913  14.711
75122ION    CL-47382  42.364  17.400   1.412
75123ION    CL-47383   3.717  12.392  11.165
75124ION    CL-47384  19.831  16.558   4.472
75125ION    CL-47385  27.229  42.400  11.425
75126ION    CL-47386   6.841  15.080  14.631
75127ION    CL-47387  12.725  41.480   3.547
75128ION    CL-47388  12.589  18.623   4.141
75129ION    CL-47389  26.126  18.793   4.866
75130ION    CL-47390  12.878  19.467  12.925
75131ION    CL-47391  24.015  33.056   2.357
75132ION    CL-47392  36.838   4.190   3.413
75133ION    CL-47393  14.954  16.370   9.934
75134ION    CL-47394   4.964   6.212  14.374
75135ION    CL-47395  20.588  29.033  13.501
75136ION    CL-47396  41.343   4.337   0.219
75137ION    CL-47397  33.602  11.830   3.158
75138ION    CL-47398  12.241  37.427  12.846
75139ION    CL-47399  28.636  13.612   1.237
75140ION    CL-47400  38.337  41.765  12.094
75141ION    CL-47401  22.460  21.063  10.625
75142ION    CL-47402   1.505  43.423   0.178
75143ION    CL-47403  12.881   8.734   0.503
75144ION    CL-47404   1.685  33.164   3.416
75145ION    CL-47405  21.994  13.141   3.312
75146ION    CL-47406  31.683  12.369  13.324
75147ION    CL-47407  21.732  14.187   4.412
75148ION    CL-47408  12.405  14.537   1.235
75149ION    CL-47409   0.505  16.428  12.023
75150ION    CL-47410  31.310   4.629   2.536
75151ION    CL-47411  18.580  30.206   9.786
75152ION    CL-47412  28.648  44.376  10.707
75153ION    CL-47413  34.552  15.755   2.833
75154ION    CL-47414  21.506  42.612  10.700
75155ION    CL-47415  17.182   5.782  10.718
75156ION    CL-47416   7.491   3.517  13.531
75157ION    CL-47417  37.793  13.113  10.629
75158ION    CL-47418   3.892  42.604   0.082
75159ION    CL-47419  27.222  41.812  13.916
75160ION    CL-47420  29.108  24.521   1.780
75161ION    CL-47421  26.630   7.354  11.638
75162ION    CL-47422  18.964  38.520   3.634
75163ION    CL-47423  22.186   9.703  14.367
75164ION    CL-47424   3.702  34.036   3.631
75165ION    CL-47425  21.609  36.487   0.668
75166ION    CL-47426  23.535  28.478  12.391
75167ION    CL-47427  39.850  21.327  14.371
75168ION    CL-47428  41.426  36.616  13.325
75169ION    CL-47429  13.047   6.825   2.184
75170ION    CL-47430  28.801  37.538  12.839
75171ION    CL-47431  17.184  24.655   5.149
75172ION    CL-47432  44.958  37.387  11.459
75173ION    CL-47433   1.345  34.104   3.375
75174ION    CL-47434  22.665   6.778   2.353
75175ION    CL-47435  24.193  23.676  11.182
75176ION    CL-47436  29.730  32.319  11.191
75177ION    CL-47437  35.947  10.764   0.623
75178ION    CL-47438  32.132  28.804  14.640
75179ION    CL-47439  17.743  25.803  10.580
75180ION    CL-47440  29.054  42.864   4.067
75181ION    CL-47441  34.020  41.926   1.847
75182ION    CL-47442   0.441  17.777  14.790
75183ION    CL-47443  33.105  12.692   4.657
75184ION    CL-47444   2.973   0.639  11.124
75185ION    CL-47445  34.887  25.233  14.018
75186ION    CL-47446   7.617  10.814  12.387
75187ION    CL-47447  33.782   1.535   3.496
75188ION    CL-47448  27.090  41.926   1.907
75189ION    CL-47449   3.751   0.245  12.884
75190ION    CL-47450  39.508   8.266  11.881
75191ION    CL-47451  34.963  34.107  14.982
75192ION    CL-47452  29.803  23.849   2.771
75193ION    CL-47453  14.264   9.680  13.762
75194ION    CL-47454  37.893  40.165   3.314
75195ION    CL-47455   9.094  34.952   1.367
75196ION    CL-47456  15.331  26.743  11.116
75197ION    CL-47457  36.894  32.799  11.615
75198ION    CL-47458  35.341  11.080  13.605
75199ION    CL-47459  29.022   9.404  12.719
75200ION    CL-47460  36.994  22.631   1.208
75201ION    CL-47461  28.133   3.417   3.542
75202ION    CL-47462   3.777   6.757  12.766
75203ION    CL-47463  24.228  39.204   1.757
75204ION    CL-47464  14.117  25.965  14.070
75205ION    CL-47465  28.947   1.968  12.027
75206ION    CL-47466  10.407  32.089  12.416
75207ION    CL-47467  28.099  37.962   9.979
75208ION    CL-47468   3.275  20.010   5.100
75209ION    CL-47469  19.369  29.706   2.079
75210ION    CL-47470  35.968  28.188  13.869
75211ION    CL-47471  27.574  21.520   1.782
75212ION    CL-47472  32.933   0.743  11.570
75213ION    CL-47473  10.383  29.374   1.426
75214ION    CL-47474  34.411   8.994  11.561
75215ION    CL-47475   0.122  26.157   3.171
75216ION    CL-47476  18.979  44.305  11.086
75217ION    CL-47477  22.008  43.938   3.309
75218ION    CL-47478  27.230  11.066  12.120
75219ION    CL-47479  14.193  13.445   3.644
75220ION    CL-47480  43.290  38.859   0.902
75221ION    CL-47481   0.598   5.303  12.867
75222ION    CL-47482   0.390  22.309   4.846
75223ION    CL-47483  29.885  12.658   3.494
75224ION    CL-47484  37.031  27.681  12.166
75225ION    CL-47485  29.503  27.229   5.089
75226ION    CL-47486  33.088  16.660   2.814
75227ION    CL-47487   5.993  23.023   4.031
75228ION    CL-47488  25.950  24.061  13.836
75229ION    CL-47489  20.631  18.726  10.355
75230ION    CL-47490   1.461  32.371   0.085
75231ION    CL-47491   5.509  29.534  12.331
75232ION    CL-47492   7.215  30.133   4.446
75233ION    CL-47493   4.943  11.364  12.695
75234ION    CL-47494  41.243   2.262  14.735
75235ION    CL-47495  35.642  17.632   4.125
75236ION    CL-47496  16.815   5.546   0.850
75237ION    CL-47497  21.282   9.186   4.909
75238ION    CL-47498   7.330   5.497   4.830
75239ION    CL-47499  17.914  33.075   3.948
75240ION    CL-47500  44.662   2.089  13.263
75241ION    CL-47501   6.646  15.902   2.882
75242ION    CL-47502   3.356  24.246  11.369
75243ION    CL-47503  19.361  43.016   2.757
75244ION    CL-47504  38.654   4.206   2.567
75245ION    CL-47505  15.145  21.985  14.792
75246ION    CL-47506   2.675  34.497   3.931
75247ION    CL-47507  34.900   5.056  12.244
75248ION    CL-47508  41.980   7.922  10.715
75249ION    CL-47509   1.612   6.878   1.623
75250ION    CL-47510  41.130  13.262  13.323
75251ION    CL-47511  13.545  31.807  10.515
75252ION    CL-47512  20.640   9.236   0.777
75253ION    CL-47513  33.526  32.311  11.403
75254ION    CL-47514  39.849   8.679  14.741
75255ION    CL-47515   9.230  34.837  14.933
75256ION    CL-47516   6.769   3.396   1.873
75257ION    CL-47517   2.550  27.305  12.711
75258ION    CL-47518  15.387  21.446  13.308
75259ION    CL-47519   2.769  14.855   1.406
75260ION    CL-47520  19.557  14.578  10.730
75261ION    CL-47521  34.116  28.164   4.188
75262ION    CL-47522  43.469  23.271  12.215
75263ION    CL-47523  35.429   9.108  14.765
75264ION    CL-47524  25.048   9.604   3.614
75265ION    CL-47525  14.764  32.072   4.871
75266ION    CL-47526   0.934  18.082  11.101
75267ION    CL-47527   2.205   5.002   2.088
75268ION    CL-47528  27.034  22.563  10.687
75269ION    CL-47529  15.039  13.318   0.943
75270ION    CL-47530  21.001   9.743  14.748
75271ION    CL-47531  26.661  35.130  14.378
75272ION    CL-47532  41.449   5.883   4.689
75273ION    CL-47533  24.304  38.387   1.404
75274ION    CL-47534  34.366  14.177   1.698
75275ION    CL-47535  41.924  21.785  11.046
75276ION    CL-47536  26.364   6.294   2.418
75277ION    CL-47537  30.164  42.768  12.492
75278ION    CL-47538  19.193   1.794  11.486
75279ION    CL-47539  26.320  35.560  13.589
75280ION    CL-47540  32.857   2.248   1.925
75281ION    CL-47541  14.900  24.416  14.958
75282ION    CL-47542  12.026  16.712  10.364
75283ION    CL-47543  23.311  25.793   2.790
75284ION    CL-47544   6.076   4.604  11.947
75285ION    CL-47545  21.890  26.913   0.930
75286ION    CL-47546  31.434  28.216   1.854
75287ION    CL-47547  33.428  24.725   3.270
75288ION    CL-47548  23.755  32.952   0.425
75289ION    CL-47549  42.911  44.505  12.416
75290ION    CL-47550   3.170  37.183  13.716
75291ION    CL-47551   8.412  22.512   2.374
75292ION    CL-47552   8.230  28.183   3.827
75293ION    CL-47553  43.782  16.929  11.149
75294ION    CL-47554   5.791   1.737  11.419
75295ION    CL-47555   6.478   6.179  13.646
75296ION    CL-47556  34.208  33.897   4.233
75297ION    CL-47557  44.644  12.438   1.056
75298ION    CL-47558  12.555  35.223  12.363
75299ION    CL-47559  23.929  14.531   3.214
75300ION    CL-47560   6.081  11.394  13.877
75301ION    CL-47561  13.507  27.493  11.488
75302ION    CL-47562  39.000   7.747   2.777
75303ION    CL-47563  33.157  38.872  12.334
75304ION    CL-47564  18.613  31.715   1.236
75305ION    CL-47565  33.586  31.777   3.166
75306ION    CL-47566  40.021  13.129  14.662
75307ION    CL-47567  12.281   7.954   1.493
75308ION    CL-47568  22.067  35.684   3.641
75309ION    CL-47569  35.657  39.255   1.961
75310ION    CL-47570  27.862   5.715  10.552
75311ION    CL-47571   3.952   9.711  14.528
75312ION    CL-47572  12.632   3.846   1.259
75313ION    CL-47573  29.258  14.371  12.317
75314ION    CL-47574  34.490  26.041  11.551
75315ION    CL-47575  35.190  38.530   0.826
75316ION    CL-47576  22.734  44.876  11.538
75317ION    CL-47577  15.031  36.355   2.427
75318ION    CL-47578  43.383  18.945   5.013
75319ION    CL-47579   6.486   2.562   5.142
75320ION    CL-47580  43.088  22.289  14.970
75321ION    CL-47581  29.685  18.544  14.169
75322ION    CL-47582  14.611  11.843  10.507
75323ION    CL-47583   0.136  37.187   4.988
75324ION    CL-47584   6.873  43.679  12.079
75325ION    CL-47585  41.859   8.189  13.277
75326ION    CL-47586   7.365   1.691  14.655
75327ION    CL-47587  42.074  32.116  13.548
75328ION    CL-47588  24.671   0.395  13.447
75329ION    CL-47589  13.156  16.818   9.719
75330ION    CL-47590  42.399  11.453  12.628
75331ION    CL-47591  26.062  37.838   0.487
75332ION    CL-47592  39.422  21.479  12.798
75333ION    CL-47593   4.368  25.699  12.109
75334ION    CL-47594  22.006  12.803  14.840
75335ION    CL-47595   3.948  28.371  10.750
75336ION    CL-47596  34.500  38.327  13.446
75337ION    CL-47597  10.125  39.930   2.197
75338ION    CL-47598  20.650  36.408  13.854
75339ION    CL-47599  16.896  38.966  12.744
75340ION    CL-47600   7.346  23.684   0.876
75341ION    CL-47601   7.979  15.632   3.156
75342ION    CL-47602  14.669  25.140  14.186
75343ION    CL-47603  35.842  16.375   2.186
75344ION    CL-47604   9.272  21.021   2.388
75345ION    CL-47605  18.917   3.345  14.006
75346ION    CL-47606  29.762   1.638  12.215
75347ION    CL-47607   7.654  15.605  13.633
75348ION    CL-47608  35.017   9.532  13.825
75349ION    CL-47609  13.845  16.634   9.943
75350ION    CL-47610  24.842   8.913   4.078
75351ION    CL-47611  35.643  33.078  12.026
75352ION    CL-47612  27.817  11.450  14.770
75353ION    CL-47613  44.258  17.915   4.069
75354ION    CL-47614  21.994  22.073   4.665
75355ION    CL-47615  26.359  22.027  14.848
75356ION    CL-47616  27.749  14.660  12.726
75357ION    CL-47617  27.880  24.786  10.496
75358ION    CL-47618  35.587  25.829   0.601
75359ION    CL-47619  43.712  12.746   3.195
75360ION    CL-47620  26.753  12.054   2.599
75361ION    CL-47621  41.972  39.433  11.631
75362ION    CL-47622  38.092  20.489   2.609
75363ION    CL-47623  13.961   9.887   0.986
75364ION    CL-47624  10.670   0.928   1.407
75365ION    CL-47625  30.417   8.576   3.489
75366ION    CL-47626  28.679  32.683  13.592
75367ION    CL-47627  33.340   7.141   4.071
75368ION    CL-47628  17.453  43.481  12.327
75369ION    CL-47629  40.707   5.716   3.707
75370ION    CL-47630  17.698  15.458  11.172
75371ION    CL-47631  23.338  39.075  10.698
75372ION    CL-47632   6.179  14.784  14.084
75373ION    CL-47633  23.035  39.495  11.553
75374ION    CL-47634  24.066   6.125   3.640
75375ION    CL-47635  23.029   8.995  11.770
75376ION    CL-47636  25.557  36.396   0.433
75377ION    CL-47637  14.582  43.051  10.702
75378ION    CL-47638  24.518  19.043   2.746
75379ION    CL-47639  28.677  32.000   1.419
75380ION    CL-47640  19.688  41.126   3.209
75381ION    CL-47641  18.157  31.071  12.906
75382ION    CL-47642  21.751  43.372   0.813
75383ION    CL-47643   1.237   6.041  12.039
75384ION    CL-47644  25.306  20.014  12.096
75385ION    CL-47645  30.753  22.099   3.611
75386ION    CL-47646  14.360  44.442   4.178
75387ION    CL-47647  37.602  26.221   0.360
75388ION    CL-47648  21.951  43.882  13.414
75389ION    CL-47649   9.063  32.968   0.525
75390ION    CL-47650  31.124   9.641  11.467
75391ION    CL-47651  12.898  17.434  12.236
75392ION    CL-47652   8.776   3.697   1.257
75393ION    CL-47653  24.735  35.193  11.564
75394ION    CL-47654  28.932  14.821   2.883
75395ION    CL-47655   8.547   8.129  11.138
75396ION    CL-47656  25.625  27.453  10.945
75397ION    CL-47657  43.211   0.859   0.613
75398ION    CL-47658  21.960  22.611  11.065
75399ION    CL-47659   0.889  30.068   3.891
75400ION    CL-47660  26.721  27.358   0.901
75401ION    CL-47661  43.279  17.129  14.819
75402ION    CL-47662  17.444  13.869   2.260
75403ION    CL-47663  30.180   7.164   4.447
75404ION    CL-47664  17.619  33.469  10.405
75405ION    CL-47665  16.211   4.461   2.325
75406ION    CL-47666  41.862  21.281  13.995
75407ION    CL-47667  15.699  41.900  14.509
75408ION    CL-47668  11.697  18.997   0.193
75409ION    CL-47669   1.724  25.986  14.045
75410ION    CL-47670  41.435   5.212   0.759
75411ION    CL-47671   2.504  22.668  14.475
75412ION    CL-47672  10.927   4.470   1.118
75413ION    CL-47673   6.841  17.736  13.192
75414ION    CL-47674  32.529  10.333   3.662
75415ION    CL-47675  26.409  36.333   0.515
75416ION    CL-47676   0.881  19.405   0.782
75417ION    CL-47677  22.625  14.408   1.232
75418ION    CL-47678  10.271  38.274   1.245
75419ION    CL-47679  19.320  35.978  14.276
75420ION    CL-47680  33.083   3.514  10.000
75421ION    CL-47681  42.868  22.687  10.614
75422ION    CL-47682  18.150   4.120  12.981
75423ION    CL-47683  38.547  36.432  14.376
75424ION    CL-47684  28.249  38.635  14.406
75425ION    CL-47685  30.132  25.207  12.084
75426ION    CL-47686   1.026  29.720   2.340
75427ION    CL-47687   1.729  12.148  12.427
75428ION    CL-47688  11.962  20.512  13.484
75429ION    CL-47689  30.645   4.671   3.155
75430ION    CL-47690  40.328  37.037  10.823
75431ION    CL-47691  15.286  22.980   2.372
75432ION    CL-47692   6.959  14.997   2.593
75433ION    CL-47693  34.969  34.062  10.798
75434ION    CL-47694  36.331  16.774  14.371
75435ION    CL-47695  24.708   2.021  14.283
75436ION    CL-47696  25.928   2.842   3.648
75437ION    CL-47697  20.956  16.771   2.595
75438ION    CL-47698  26.474  26.925  12.823
75439ION    CL-47699  39.173  34.606  13.300
75440ION    CL-47700  22.395  38.686   0.872
75441ION    CL-47701   5.173  30.712   4.911
75442ION    CL-47702   8.472  40.413  11.732
75443ION    CL-47703  23.163   5.457  12.772
75444ION    CL-47704  26.035  13.326   1.429
75445ION    CL-47705  10.269  43.270   5.022
75446ION    CL-47706   9.332  23.730  10.796
75447ION    CL-47707  32.234  30.502   3.879
75448ION    CL-47708   8.519  12.909  14.119
75449ION    CL-47709   9.776  25.584  10.636
75450ION    CL-47710  23.510  34.164   4.045
75451ION    CL-47711  21.530  28.380   3.176
75452ION    CL-47712  23.728   2.156  14.423
75453ION    CL-47713  10.169  19.698   4.409
75454ION    CL-47714   8.468  37.088   1.921
75455ION    CL-47715  41.040  24.649   1.294
75456ION    CL-47716  43.169  19.469   4.383
75457ION    CL-47717  19.165   9.938   1.664
75458ION    CL-47718  39.196   5.186   1.762
75459ION    CL-47719  44.731  19.082   4.503
75460ION    CL-47720  34.060  22.761   0.276
75461ION    CL-47721  36.368   5.666   1.644
75462ION    CL-47722   3.152  32.604  10.659
75463ION    CL-47723  31.850  31.453   9.944
75464ION    CL-47724  42.468  17.687   9.970
75465ION    CL-47725  17.310  38.478   2.721
75466ION    CL-47726  42.848  13.511   4.270
75467ION    CL-47727  10.894  37.329  12.226
75468ION    CL-47728  24.733  23.062   1.913
75469ION    CL-47729  44.109  32.323  13.971
75470ION    CL-47730   5.355  11.365  14.882
75471ION    CL-47731  27.554  10.660  14.115
75472ION    CL-47732   2.794   9.170  14.744
75473ION    CL-47733   6.283  41.261   0.800
75474ION    CL-47734  36.593  12.622  13.861
75475ION    CL-47735  21.647  29.143  14.923
75476ION    CL-47736  43.622  15.019   3.313
75477ION    CL-47737  16.113  15.656  12.592
75478ION    CL-47738  26.640  33.660   1.819
75479ION    CL-47739   7.111   0.464   3.986
75480ION    CL-47740  42.583  20.705   0.227
75481ION    CL-47741  10.920  37.534   1.425
75482ION    CL-47742   7.272  16.655  10.325
75483ION    CL-47743  21.006   4.289   0.150
75484ION    CL-47744  17.980  31.675  11.184
75485ION    CL-47745  14.173  19.996  10.647
75486ION    CL-47746  44.053  19.025  14.855
75487ION    CL-47747   2.851   9.877  10.408
75488ION    CL-47748  32.035  18.449   0.726
75489ION    CL-47749  17.798   9.761   3.026
75490ION    CL-47750  36.855  39.659   1.711
75491ION    CL-47751  19.005  33.692  13.129
75492ION    CL-47752  43.047  28.844   2.502
75493ION    CL-47753  17.234  41.485  14.286
75494ION    CL-47754  12.051  16.095   0.983
75495ION    CL-47755  15.732  34.454   2.187
75496ION    CL-47756   5.792  15.441   2.639
75497ION    CL-47757   5.616  22.366   2.186
75498ION    CL-47758  25.733  15.806  12.886
75499ION    CL-47759  42.757  26.417  12.092
75500ION    CL-47760  26.513  39.216  12.526
75501ION    CL-47761  15.426   2.816   4.333
75502ION    CL-47762  19.611  41.431  11.793
75503ION    CL-47763  23.971   2.017  13.608
75504ION    CL-47764  30.949   3.512  13.369
75505ION    CL-47765  44.754   8.407   2.884
75506ION    CL-47766  27.485  36.982  14.110
75507ION    CL-47767   6.314  38.596   1.488
75508ION    CL-47768  39.580   8.915  12.638
75509ION    CL-47769  21.752   7.108  10.369
75510ION    CL-47770  32.196  17.513   0.288
75511ION    CL-47771  44.037  13.421  13.330
75512ION    CL-47772  33.420   6.211   4.676
75513ION    CL-47773  15.622  27.952   3.553
75514ION    CL-47774   2.665  14.826   3.513
75515ION    CL-47775  20.378  35.240  11.198
75516ION    CL-47776   1.434  43.639   1.489
75517ION    CL-47777  14.490   9.275   1.020
75518ION    CL-47778  40.976  21.161   4.140
75519ION    CL-47779  35.390  32.870   2.754
75520ION    CL-47780   3.678  21.610   3.428
75521ION    CL-47781   8.195  13.452  11.032
75522ION    CL-47782  18.833  23.164  13.015
75523ION    CL-47783   8.905  23.943   2.438
75524ION    CL-47784  32.424  41.027  12.088
75525ION    CL-47785  37.028   7.174   0.911
75526ION    CL-47786  31.122  12.685  14.914
75527ION    CL-47787   2.514  33.304   1.095
75528ION    CL-47788   0.061  41.984  14.890
75529ION    CL-47789   4.508   5.320   0.258
75530ION    CL-47790  40.099  29.585   1.840
75531ION    CL-47791  34.495   8.102  14.689
75532ION    CL-47792  28.272  23.992   3.846
75533ION    CL-47793   1.399  30.436  12.881
75534ION    CL-47794  41.270  13.730  14.882
75535ION    CL-47795  43.251  23.989  11.674
75536ION    CL-47796  19.841  29.221   9.852
75537ION    CL-47797   8.372  11.890   0.432
75538ION    CL-47798  19.413  25.834  11.207
75539ION    CL-47799  33.174  21.406   3.441
75540ION    CL-47800  43.340   5.068  10.560
75541ION    CL-47801  30.117  27.644   3.220
75542ION    CL-47802  36.808  43.473  11.365
75543ION    CL-47803   3.440  27.672  11.353
75544ION    CL-47804  29.217   9.375  14.782
75545ION    CL-47805  25.521  42.394   5.504
75546ION    CL-47806   9.336  29.620   2.452
75547ION    CL-47807  18.624  35.421   1.426
75548ION    CL-47808   4.907  25.278   1.848
75549ION    CL-47809  35.710  32.066   0.138
75550ION    CL-47810  13.977  22.708  13.382
75551ION    CL-47811  42.911  22.196   3.502
75552ION    CL-47812  38.828  43.201   1.550
75553ION    CL-47813  14.775  26.036  10.312
75554ION    CL-47814  17.658  34.460  11.529
75555ION    CL-47815  18.081  19.776  11.533
75556ION    CL-47816  35.327  27.844  14.555
75557ION    CL-47817  21.703   7.739  12.962
75558ION    CL-47818  28.519  10.798  11.389
75559ION    CL-47819  13.703  36.841   2.143
75560ION    CL-47820  42.105   7.716  14.030
75561ION    CL-47821   3.535  44.958   4.580
75562ION    CL-47822  23.401  42.642  13.389
75563ION    CL-47823  10.631  34.569  14.726
75564ION    CL-47824   4.564  24.898  14.655
75565ION    CL-47825  39.999  31.171  14.036
75566ION    CL-47826  42.422   5.302  10.881
75567ION    CL-47827  23.211  35.631  14.304
75568ION    CL-47828  30.108  16.597  13.778
75569ION    CL-47829  39.170  11.130   4.947
75570ION    CL-47830  21.374  29.970   0.455
75571ION    CL-47831  21.117  19.293   0.832
75572ION    CL-47832  27.302  12.592  13.622
75573ION    CL-47833  14.152  21.486  14.653
75574ION    CL-47834   8.721  28.749   1.839
75575ION    CL-47835   5.301  39.802  14.158
75576ION    CL-47836  24.339  37.918   4.825
75577ION    CL-47837  27.286  31.249   2.472
75578ION    CL-47838  41.315   0.738  12.887
75579ION    CL-47839  19.461  34.939  10.923
75580ION    CL-47840   1.054  11.624   2.312
75581ION    CL-47841  11.824  31.657   1.699
75582ION    CL-47842  32.663  20.967  11.206
75583ION    CL-47843   5.492   9.839  11.575
75584ION    CL-47844  34.170  16.168   0.342
75585ION    CL-47845  39.632  25.610  13.742
75586ION    CL-47846  21.743  42.792  14.800
75587ION    CL-47847  41.978  42.061   2.300
75588ION    CL-47848   6.540  44.585   1.647
75589ION    CL-47849  20.466  11.881   4.947
75590ION    CL-47850  26.713   8.943   2.905
75591ION    CL-47851  28.087  20.699   2.862
75592ION    CL-47852  11.710  30.266  12.915
75593ION    CL-47853  12.658  42.259  12.137
75594ION    CL-47854  24.488  39.919  14.993
75595ION    CL-47855  28.905   4.078   0.563
75596ION    CL-47856   6.771  38.305  11.508
75597ION    CL-47857  11.267  19.081   3.927
75598ION    CL-47858  10.295  28.077  14.960
75599ION    CL-47859  28.175  24.724   1.481
75600ION    CL-47860  12.769   6.604  12.877
75601ION    CL-47861  32.379  29.989  13.299
75602ION    CL-47862  32.723  27.018   3.482
75603ION    CL-47863  20.730  16.319  12.060
75604ION    CL-47864   2.274  44.750  11.481
75605ION    CL-47865  21.408   6.072   3.289
75606ION    CL-47866   7.852  22.837  13.767
75607ION    CL-47867   7.286   5.121   0.179
75608ION    CL-47868  41.501  35.780  13.870
75609ION    CL-47869  43.517  30.297  13.555
75610ION    CL-47870  21.767  34.412   3.568
75611ION    CL-47871  21.869   6.349  14.686
75612ION    CL-47872   1.800  17.221   3.705
75613ION    CL-47873  25.683  13.811  14.094
75614ION    CL-47874  40.833   3.466   0.310
75615ION    CL-47875  21.268  35.262  11.116
75616ION    CL-47876   8.922   5.748  12.399
75617ION    CL-47877  28.737  20.852   4.644
75618ION    CL-47878  14.088  31.842  12.095
75619ION    CL-47879  43.995  31.487  14.201
75620ION    CL-47880  27.684  34.151   3.896
75621ION    CL-47881  10.206  12.352  12.903
75622ION    CL-47882  21.072  43.686   3.019
75623ION    CL-47883  17.197  22.555   2.553
75624ION    CL-47884  30.711  17.289   0.917
75625ION    CL-47885  42.224   7.675  14.932
75626ION    CL-47886  34.932  10.902   4.086
75627ION    CL-47887  31.082  19.487   5.183
75628ION    CL-47888  11.656   7.689  13.173
75629ION    CL-47889  36.449  25.076   4.825
75630ION    CL-47890  36.335  37.036  11.354
75631ION    CL-47891  22.577   7.411   1.583
75632ION    CL-47892  19.460  44.234   1.542
75633ION    CL-47893   9.515  44.445  10.702
75634ION    CL-47894  28.989  37.946   3.133
75635ION    CL-47895  28.591  33.820  11.670
75636ION    CL-47896  37.967   7.449  11.525
75637ION    CL-47897  32.855   6.384  11.999
75638ION    CL-47898  33.925  13.811   0.862
75639ION    CL-47899  22.828  38.445   4.850
75640ION    CL-47900  30.084  10.171  11.085
75641ION    CL-47901  17.457  36.713   5.012
75642ION    CL-47902  43.302  12.166  13.926
75643ION    CL-47903  25.631  23.320  11.118
75644ION    CL-47904   0.037  13.580   4.180
75645ION    CL-47905  38.609  23.965   3.794
75646ION    CL-47906  38.273   6.651   2.878
75647ION    CL-47907  27.486  39.798   1.940
75648ION    CL-47908  40.912  22.631   3.119
75649ION    CL-47909  41.725  27.966  11.850
75650ION    CL-47910  19.267  39.041   2.836
75651ION    CL-47911  21.580  38.870  14.464
75652ION    CL-47912  27.557  13.805  12.582
75653ION    CL-47913  21.842  27.827   1.016
75654ION    CL-47914  22.690   3.351  10.368
75655ION    CL-47915  38.717  37.493   0.886
75656ION    CL-47916  23.578  39.893   9.559
75657ION    CL-47917  10.768  19.749   0.626
75658ION    CL-47918  34.211  17.158   3.305
75659ION    CL-47919   8.815  19.309  12.961
75660ION    CL-47920   5.893  38.697   0.322
75661ION    CL-47921  41.198  11.655  14.477
75662ION    CL-47922   2.256  43.193  14.499
75663ION    CL-47923  21.945   0.270   3.080
75664ION    CL-47924   5.053   5.155  10.632
75665ION    CL-47925  21.213  16.281   0.990
75666ION    CL-47926  17.053  32.647   1.213
75667ION    CL-47927  37.408  20.653   1.382
75668ION    CL-47928  19.147  13.310  10.559
75669ION    CL-47929  20.269  24.295  10.338
75670ION    CL-47930  14.689  13.388   2.878
75671ION    CL-47931  13.741  23.033  10.653
75672ION    CL-47932  22.106  22.559   3.280
75673ION    CL-47933  17.607   0.458   2.696
75674ION    CL-47934  34.767  39.493  12.875
75675ION    CL-47935   6.435  30.888  14.673
75676ION    CL-47936  10.794  10.898   2.144
75677ION    CL-47937  36.082   0.906   2.395
75678ION    CL-47938  13.581  19.808   3.676
75679ION    CL-47939  32.658  26.167   3.652
75680ION    CL-47940   3.043   5.104  12.467
75681ION    CL-47941   3.672  31.790  14.914
75682ION    CL-47942   6.422  26.057   3.708
75683ION    CL-47943  17.492   2.354  12.881
75684ION    CL-47944   1.895  27.618   3.978
75685ION    CL-47945  40.999  23.784   1.793
75686ION    CL-47946  15.712  34.425  14.429
75687ION    CL-47947   1.082  29.459   1.376
75688ION    CL-47948  26.037   5.081  13.901
75689ION    CL-47949  27.931  30.196  10.216
75690ION    CL-47950  12.761   2.162  11.493
75691ION    CL-47951  12.784  41.309   2.564
75692ION    CL-47952  36.443  30.864  13.981
75693ION    CL-47953   1.970  23.267   0.849
75694ION    CL-47954  29.496  42.537  13.520
75695ION    CL-47955   2.035  12.511  14.862
75696ION    CL-47956  14.118  32.830  11.943
75697ION    CL-47957  31.537  32.664   3.241
75698ION    CL-47958  16.891  14.830  14.373
75699ION    CL-47959  23.979  41.548  14.214
75700ION    CL-47960   8.659  16.503   4.865
75701ION    CL-47961   2.325  19.090   2.867
75702ION    CL-47962  36.063  34.575  14.068
75703ION    CL-47963  22.284   0.116   5.100
75704ION    CL-47964  41.431  34.848  12.125
75705ION    CL-47965  17.526  17.800   1.058
75706ION    CL-47966  18.316  39.998   0.897
75707ION    CL-47967   3.519  31.873  11.235
75708ION    CL-47968  37.307  11.282  14.180
75709ION    CL-47969  29.207  36.735  11.510
75710ION    CL-47970  28.588  27.562   4.914
75711ION    CL-47971  43.602  15.637  13.603
75712ION    CL-47972   1.083  19.837  13.015
75713ION    CL-47973   7.529  29.134   2.468
75714ION    CL-47974  43.853  32.193   2.503
75715ION    CL-47975  22.649  40.968   0.925
75716ION    CL-47976   0.586   1.910  13.602
75717ION    CL-47977  14.068  31.549   1.005
75718ION    CL-47978  21.305   0.684  10.917
75719ION    CL-47979   0.162  29.096   1.230
75720ION    CL-47980  30.946  12.650  11.659
75721ION    CL-47981  31.031   1.615   4.418
75722ION    CL-47982  20.760  37.156  11.119
75723ION    CL-47983   6.696  10.762   3.970
75724ION    CL-47984  27.374  27.048  12.795
75725ION    CL-47985  30.583   9.852   0.819
75726ION    CL-47986  16.020  20.318   0.398
75727ION    CL-47987  10.898  38.291   4.405
75728ION    CL-47988  18.338  43.046  12.996
75729ION    CL-47989  41.714   0.657   2.794
75730ION    CL-47990  42.453  12.533   2.817
75731ION    CL-47991  30.336  27.886   2.274
75732ION    CL-47992  14.799   8.601   0.210
75733ION    CL-47993   8.413   7.757   1.438
75734ION    CL-47994  36.638  12.357   3.163
75735ION    CL-47995  14.894   9.767  14.535
75736ION    CL-47996  33.395  10.344  13.968
75737ION    CL-47997   3.731   4.836  14.784
75738ION    CL-47998  21.653  29.197   3.739
75739ION    CL-47999  22.047  31.121  11.906
75740ION    CL-48000  43.943  42.859   2.304
75741ION    CL-48001  13.621  40.268  11.267
75742ION    CL-48002  28.682  37.407  11.358
75743ION    CL-48003   3.034  25.289  11.547
75744ION    CL-48004  10.372  43.329  11.174
75745ION    CL-48005   3.819  24.135   2.445
75746ION    CL-48006  35.858  30.633   1.801
75747ION    CL-48007  41.556   0.996  14.316
75748ION    CL-48008  40.247  21.258   9.752
75749ION    CL-48009  25.692  23.624   4.157
75750ION    CL-48010  11.778  11.570   2.797
75751ION    CL-48011  33.555  35.127   0.979
75752ION    CL-48012  30.789   8.701  12.522
75753ION    CL-48013  36.423  24.588   0.843
75754ION    CL-48014  33.268   3.835   0.665
75755ION    CL-48015   4.589  40.974   3.812
75756ION    CL-48016  43.035  42.384  13.462
75757ION    CL-48017   9.446  26.984  13.252
75758ION    CL-48018  12.349  21.812   2.747
75759ION    CL-48019   0.967  26.727   4.940
75760ION    CL-48020   9.036  13.484  14.589
75761ION    CL-48021  30.575  43.260   4.432
75762ION    CL-48022  35.243  35.974  11.272
75763ION    CL-48023   2.456  26.430   3.215
75764ION    CL-48024  11.809  29.013  12.196
75765ION    CL-48025  14.320  35.252   4.128
75766ION    CL-48026   0.566  10.716  12.394
75767ION    CL-48027   9.333  32.588   3.929
75768ION    CL-48028  35.358  18.422   4.669
75769ION    CL-48029  40.542  28.818   2.630
75770ION    CL-48030   3.561   3.534   9.891
75771ION    CL-48031  42.619  39.013   2.919
75772ION    CL-48032  36.094  41.348   2.308
75773ION    CL-48033   2.524  37.726   1.960
75774ION    CL-48034   8.986  17.870   4.258
75775ION    CL-48035  35.337  25.453  11.571
75776ION    CL-48036  34.790  23.709   4.978
75777ION    CL-48037  27.585  37.693  12.057
75778ION    CL-48038  41.352   7.104   2.052
75779ION    CL-48039  41.402  27.724  14.085
75780ION    CL-48040   3.924  26.218   0.526
75781ION    CL-48041  12.090  32.059  11.584
75782ION    CL-48042  22.278  29.592   0.802
75783ION    CL-48043  15.339  10.920   2.304
75784ION    CL-48044  40.870  35.901   0.498
75785ION    CL-48045  24.301   5.722  14.752
75786ION    CL-48046  26.338   0.793   0.291
75787ION    CL-48047   4.367  27.771  12.341
75788ION    CL-48048  22.314  40.087   4.345
75789ION    CL-48049  21.670  18.204   2.205
75790ION    CL-48050  18.248  32.161   4.313
75791ION    CL-48051  25.382  18.664   1.254
75792ION    CL-48052  42.140   1.414   2.114
75793ION    CL-48053  33.982  14.898  11.208
75794ION    CL-48054  43.175  19.197  12.721
75795ION    CL-48055  30.660  41.792   0.799
75796ION    CL-48056  41.610  36.014   4.061
75797ION    CL-48057  19.721   1.290   4.037
75798ION    CL-48058   6.696  12.149  12.054
75799ION    CL-48059  35.153  41.487  11.966
75800ION    CL-48060  38.528   8.451   1.106
75801ION    CL-48061   6.868  28.968  10.348
75802ION    CL-48062   9.913  43.827  14.782
75803ION    CL-48063  23.847  20.851  10.550
75804ION    CL-48064   6.974  40.366  12.762
75805ION    CL-48065  17.423  24.856  10.391
75806ION    CL-48066  43.102  18.635   4.574
75807ION    CL-48067  31.749  10.213   1.230
75808ION    CL-48068  32.990  13.582  13.575
75809ION    CL-48069  22.514   8.728   2.316
75810ION    CL-48070  42.194  27.831  10.868
75811ION    CL-48071  13.274  37.596  11.993
75812ION    CL-48072  35.647  10.214   4.217
75813ION    CL-48073  32.250  35.176  14.060
75814ION    CL-48074  16.537  11.380  11.646
75815ION    CL-48075  29.166   6.294   0.380
75816ION    CL-48076  15.617  37.642  11.810
75817ION    CL-48077  13.283   7.818  10.368
75818ION    CL-48078  25.520   5.343  12.122
75819ION    CL-48079   5.870  16.499  11.248
75820ION    CL-48080  14.706  35.669  13.095
75821ION    CL-48081   7.392  33.847   1.358
75822ION    CL-48082  31.386  28.498  13.939
75823ION    CL-48083  33.164  44.159   0.831
75824ION    CL-48084  16.329  21.861  14.785
75825ION    CL-48085  41.636  43.378  11.594
75826ION    CL-48086  20.796  38.766   4.221
75827ION    CL-48087  39.216  25.238   4.996
75828ION    CL-48088  26.689  30.769   4.708
75829ION    CL-48089  25.788  16.575   1.311
75830ION    CL-48090   5.003   1.686   0.876
75831ION    CL-48091  14.546  23.739  11.584
75832ION    CL-48092  32.283  36.636  12.945
75833ION    CL-48093  28.083  29.345   4.149
75834ION    CL-48094  39.885  36.445   3.796
75835ION    CL-48095  24.672   0.470   1.094
75836ION    CL-48096  39.707  17.337   0.500
75837ION    CL-48097   3.325  14.876   4.205
75838ION    CL-48098  41.352  19.169   4.164
75839ION    CL-48099  31.945  15.133   3.950
75840ION    CL-48100  31.012  44.053   2.572
75841ION    CL-48101   2.543   3.076   3.992
75842ION    CL-48102  29.476  24.128  13.062
75843ION    CL-48103  27.065   6.872   2.836
75844ION    CL-48104  15.157  42.515   0.441
75845ION    CL-48105  15.141  30.005   9.693
75846ION    CL-48106   1.941  19.829   1.575
75847ION    CL-48107  19.916   2.340  11.909
75848ION    CL-48108  30.032  31.170   3.837
75849ION    CL-48109  19.498   6.627  10.327
75850ION    CL-48110  28.517   8.687  14.976
75851ION    CL-48111   4.745  14.466  14.499
75852ION    CL-48112  28.451  16.331  13.845
75853ION    CL-48113  20.087  29.008   3.008
75854ION    CL-48114  11.539  10.074  12.380
75855ION    CL-48115  18.118   9.208   4.202
75856ION    CL-48116  25.502  18.514   2.640
75857ION    CL-48117   9.080   7.042   3.224
75858ION    CL-48118  29.148  43.462  10.628
75859ION    CL-48119  42.901   6.675  11.074
75860ION    CL-48120  14.682  19.958   2.484
75861ION    CL-48121  35.662  23.987  12.442
75862ION    CL-48122  37.558   5.000   5.119
75863ION    CL-48123   9.442  10.757   1.059
75864ION    CL-48124  31.435  38.557   2.371
75865ION    CL-48125   6.921   1.222  11.800
75866ION    CL-48126   2.748  16.720  11.036
75867ION    CL-48127  19.020  42.746  13.417
75868ION    CL-48128  39.210  42.823   0.860
75869ION    CL-48129  31.833  32.863  13.097
75870ION    CL-48130  37.110  26.051  12.625
75871ION    CL-48131   4.488  35.568  12.946
75872ION    CL-48132  43.256  30.860  14.449
75873ION    CL-48133   2.634   8.302  10.387
75874ION    CL-48134  27.902  44.098   1.361
75875ION    CL-48135   9.841  37.816  14.324
75876ION    CL-48136   9.184  11.907   2.284
75877ION    CL-48137   0.001  11.396  12.928
75878ION    CL-48138  38.857  14.341  14.799
75879ION    CL-48139  20.149  44.067  13.031
75880ION    CL-48140  28.981  12.542   3.899
75881ION    CL-48141  16.468  12.381  14.455
75882ION    CL-48142  10.620  18.942  13.494
75883ION    CL-48143  13.093  20.437  12.318
75884ION    CL-48144  34.811  39.916  11.577
75885ION    CL-48145  16.131  32.527   0.844
75886ION    CL-48146  17.332  11.866  14.907
75887ION    CL-48147   4.669  19.393  14.628
75888ION    CL-48148   0.155  19.788  14.005
75889ION    CL-48149  27.995   4.024   4.213
75890ION    CL-48150  18.122  23.153   0.297
75891ION    CL-48151  37.925  26.750  13.811
75892ION    CL-48152   0.752  25.004   0.222
75893ION    CL-48153  14.983   3.207   3.337
75894ION    CL-48154   9.340  26.432  13.952
75895ION    CL-48155   9.174   8.202  14.760
75896ION    CL-48156   5.811  33.660   0.255
75897ION    CL-48157  10.315  36.765   3.016
75898ION    CL-48158  22.429  24.008   3.677
75899ION    CL-48159  38.499  37.752   0.041
75900ION    CL-48160  13.813  39.262  12.195
75901ION    CL-48161  33.295  20.869   1.117
75902ION    CL-48162  16.374   4.077  11.697
75903ION    CL-48163  41.423  12.606   2.085
75904ION    CL-48164  17.630   1.269   1.890
75905ION    CL-48165  25.130  17.218  14.783
75906ION    CL-48166  33.873  19.144   3.373
75907ION    CL-48167  17.634   8.742   1.632
75908ION    CL-48168  37.142  17.126  12.184
75909ION    CL-48169   5.564  26.264  13.024
75910ION    CL-48170   6.771  44.500  14.915
75911ION    CL-48171  13.146   0.781  14.401
75912ION    CL-48172  42.473  42.599   4.036
75913ION    CL-48173  22.567  16.870   0.960
75914ION    CL-48174  43.366  14.015  14.931
75915ION    CL-48175  40.880  33.598   2.778
75916ION    CL-48176  24.256  40.934  12.239
75917ION    CL-48177  43.019   4.412  12.567
75918ION    CL-48178  14.022  15.185   5.296
75919ION    CL-48179  11.830  26.217   0.690
75920ION    CL-48180  10.598  41.482   0.240
75921ION    CL-48181  22.544  25.029  14.046
75922ION    CL-48182  21.352   9.001  14.177
75923ION    CL-48183   2.890  30.821   2.203
75924ION    CL-48184  18.370  19.955   4.674
75925ION    CL-48185  42.622  29.745  13.450
75926ION    CL-48186  20.051  34.899  14.300
75927ION    CL-48187  33.100  24.267  13.860
75928ION    CL-48188  25.947   9.055   1.339
75929ION    CL-48189  26.797  13.119  11.919
75930ION    CL-48190  41.509   6.314   1.731
75931ION    CL-48191  35.206  41.771   2.810
75932ION    CL-48192  36.545  22.010  11.910
75933ION    CL-48193  10.387   4.482   0.277
75934ION    CL-48194  33.021  38.275   1.910
75935ION    CL-48195  16.282  11.382  12.936
75936ION    CL-48196  19.328  14.675   2.047
75937ION    CL-48197  19.042   2.830   3.064
75938ION    CL-48198  10.352  15.830   4.935
75939ION    CL-48199  11.665  43.238   1.842
75940ION    CL-48200  12.601  35.607  13.285
75941ION    CL-48201  39.703   4.850   0.337
75942ION    CL-48202  21.004  38.140  11.069
75943ION    CL-48203  29.644  21.016   1.277
75944ION    CL-48204  13.418  22.129  11.449
75945ION    CL-48205  43.419  11.642  11.918
75946ION    CL-48206  44.225  12.093   1.971
75947ION    CL-48207  17.744  12.529  14.272
75948ION    CL-48208  30.503  17.516   4.915
75949ION    CL-48209  29.648  26.592  13.975
75950ION    CL-48210   5.370  31.931  11.981
75951ION    CL-48211  17.178  33.433  12.537
75952ION    CL-48212  25.603  41.243  14.075
75953ION    CL-48213  11.803   6.818  13.041
75954ION    CL-48214  23.092  44.419  13.681
75955ION    CL-48215  21.817  21.453   2.791
75956ION    CL-48216  27.774  13.860   1.109
75957ION    CL-48217  30.675  41.462  13.010
75958ION    CL-48218  30.142  13.892  12.605
75959ION    CL-48219  43.003  18.865  11.029
75960ION    CL-48220  27.962  37.935   1.328
75961ION    CL-48221   5.586   9.009   1.731
75962ION    CL-48222  39.529  41.486  12.989
75963ION    CL-48223  31.885  14.279  14.186
75964ION    CL-48224  25.050  31.774   4.068
75965ION    CL-48225  44.273  25.115  13.567
75966ION    CL-48226  15.480  13.057   2.580
75967ION    CL-48227  18.752   9.278  14.477
75968ION    CL-48228  37.852  28.121   2.183
75969ION    CL-48229   2.317  24.169  12.574
75970ION    CL-48230   1.859   9.137  13.870
75971ION    CL-48231  16.761   2.791  12.553
75972ION    CL-48232  16.065  42.770  11.544
75973ION    CL-48233   7.998  18.101  14.634
75974ION    CL-48234   6.118  29.134   5.436
75975ION    CL-48235  41.343  42.501   1.378
75976ION    CL-48236  20.081  28.856  11.465
75977ION    CL-48237   6.118  21.070  13.544
75978ION    CL-48238  12.137  31.954  13.337
75979ION    CL-48239  13.001  16.326  10.382
75980ION    CL-48240  30.156  19.251  14.912
75981ION    CL-48241  32.035   4.458   4.180
75982ION    CL-48242  12.509  22.107  11.416
75983ION    CL-48243  21.953  28.996  14.160
75984ION    CL-48244   6.864  26.151  13.853
75985ION    CL-48245   8.431  38.136   3.675
75986ION    CL-48246   2.455   0.928   2.604
75987ION    CL-48247  15.457  22.738   0.371
75988ION    CL-48248  15.720  26.573   0.855
75989ION    CL-48249  43.305  26.321  14.139
75990ION    CL-48250  27.488   4.396   2.349
75991ION    CL-48251   5.637  44.236   4.191
75992ION    CL-48252  43.729  42.368  14.260
75993ION    CL-48253  21.785   2.639  14.689
75994ION    CL-48254   9.695  33.657   0.053
75995ION    CL-48255  21.453  28.526  10.578
75996ION    CL-48256  13.361  15.850   3.416
75997ION    CL-48257  23.793  36.888   2.805
75998ION    CL-48258  17.876  42.554   3.834
75999ION    CL-48259  20.411  28.268   5.026
76000ION    CL-48260   3.926  18.552   4.177
76001ION    CL-48261   1.899  12.720   0.830
76002ION    CL-48262  16.993  10.054   2.868
76003ION    CL-48263  39.114   6.990   3.421
76004ION    CL-48264   0.627  41.668   0.942
76005ION    CL-48265  23.171  44.301   0.171
76006ION    CL-48266   5.512  19.508  12.903
76007ION    CL-48267  38.936  44.604   2.438
76008ION    CL-48268   1.988  20.812   1.752
76009ION    CL-48269   8.739  22.264   3.616
76010ION    CL-48270  24.520  25.448  11.468
76011ION    CL-48271  22.021  18.564   5.113
76012ION    CL-48272  15.580  29.832   2.999
76013ION    CL-48273  11.989  34.492  13.404
76014ION    CL-48274  27.196  23.591  10.108
76015ION    CL-48275   9.098  36.427   0.013
76016ION    CL-48276   7.898  24.156   5.075
76017ION    CL-48277   6.232  10.245  12.541
76018ION    CL-48278  32.446  33.956  11.316
76019ION    CL-48279  42.734  26.472   3.753
76020ION    CL-48280   5.915  15.267  11.451
76021ION    CL-48281   3.161  44.734  12.388
76022ION    CL-48282  22.800  17.586  12.954
76023ION    CL-48283  12.099  39.445  12.915
76024ION    CL-48284  30.912  13.581  14.523
76025ION    CL-48285  44.235  25.679   0.722
76026ION    CL-48286   0.137  12.019   2.375
76027ION    CL-48287  32.359  41.322   4.230
76028ION    CL-48288  14.035   1.822  13.965
76029ION    CL-48289  36.091  11.368  12.468
76030ION    CL-48290  28.359  34.746  11.457
76031ION    CL-48291  27.142  35.556  13.779
76032ION    CL-48292  33.349  26.063   2.412
76033ION    CL-48293  42.426  41.955   5.037
76034ION    CL-48294  41.149   6.943   0.050
76035ION    CL-48295  43.530  30.976  11.681
76036ION    CL-48296   2.808  20.447   2.214
76037ION    CL-48297   2.389   6.180  13.848
76038ION    CL-48298  22.473  35.498   2.883
76039ION    CL-48299  28.844  36.858   1.881
76040ION    CL-48300  15.153  43.678   4.655
76041ION    CL-48301  19.564   4.167   1.596
76042ION    CL-48302   9.339  42.136   1.924
76043ION    CL-48303  15.783   5.720  12.640
76044ION    CL-48304   9.833   2.048  10.680
76045ION    CL-48305   2.996  33.480   0.235
76046ION    CL-48306  36.154  34.722  12.425
76047ION    CL-48307  18.301  14.661  11.213
76048ION    CL-48308   5.383   0.662   5.062
76049ION    CL-48309  12.476   4.053   2.658
76050ION    CL-48310  23.248  22.923   0.827
76051ION    CL-48311  25.935  19.546  12.717
76052ION    CL-48312  13.324  31.103  12.535
76053ION    CL-48313  37.804  42.736  12.000
76054ION    CL-48314  17.063  24.404   0.232
76055ION    CL-48315  42.644  22.166   2.627
76056ION    CL-48316  10.182  41.878  11.672
76057ION    CL-48317  33.145  34.547   2.127
76058ION    CL-48318  28.454  41.907   2.427
76059ION    CL-48319   3.229   2.240  12.611
76060ION    CL-48320  24.854   5.490   2.728
76061ION    CL-48321  14.792  11.186  14.777
76062ION    CL-48322   3.494  15.623   4.869
76063ION    CL-48323  29.186  30.071   2.687
76064ION    CL-48324  33.675  29.065   0.278
76065ION    CL-48325   5.941  18.173   1.249
76066ION    CL-48326  31.840  22.161   3.444
76067ION    CL-48327   3.778  33.412  12.932
76068ION    CL-48328  24.529   0.186  11.959
76069ION    CL-48329  15.384   0.620   2.305
76070ION    CL-48330   2.181   3.510  10.240
76071ION    CL-48331  43.235  22.198  13.938
76072ION    CL-48332  16.859  10.583   0.159
76073ION    CL-48333  27.407  10.200   1.584
76074ION    CL-48334  15.241  33.925   2.879
76075ION    CL-48335  37.801   6.674  10.915
76076ION    CL-48336   2.796  43.310   3.445
76077ION    CL-48337   3.317  18.321   4.827
76078ION    CL-48338  34.272  22.528   2.799
76079ION    CL-48339   1.400  27.258   4.739
76080ION    CL-48340   4.320   7.718   1.925
76081ION    CL-48341  12.862   9.005   1.465
76082ION    CL-48342  14.174  21.829  13.252
76083ION    CL-48343  41.640  13.911  14.061
76084ION    CL-48344   9.111  21.491   0.620
76085ION    CL-48345  24.246   3.910  13.950
76086ION    CL-48346   1.626   9.255   0.318
76087ION    CL-48347  19.439   1.492   3.070
76088ION    CL-48348  13.678  38.766  14.632
76089ION    CL-48349  34.570  23.218   3.732
76090ION    CL-48350  22.340  14.108   2.450
76091ION    CL-48351  33.356  28.528  13.007
76092ION    CL-48352  10.389  17.705   2.046
76093ION    CL-48353  38.178  24.700   3.271
76094ION    CL-48354  25.323  20.330  14.547
76095ION    CL-48355  14.853  34.444  11.924
76096ION    CL-48356  42.394   4.176   0.367
76097ION    CL-48357   0.956  21.228  11.578
76098ION    CL-48358  43.285  30.958   4.103
76099ION    CL-48359  29.919   9.120   4.014
76100ION    CL-48360  14.326  35.465  14.919
76101ION    CL-48361   8.446  39.995  14.319
76102ION    CL-48362   1.799  28.053  14.644
76103ION    CL-48363  11.825  16.831   2.214
76104ION    CL-48364  44.052  32.084  14.913
76105ION    CL-48365  21.198  24.015   4.165
76106ION    CL-48366  31.676  32.593   1.047
76107ION    CL-48367  27.964  26.787  13.596
76108ION    CL-48368  28.932  31.886   2.840
76109ION    CL-48369   7.778  37.962  11.008
76110ION    CL-48370  43.453  28.032  14.906
76111ION    CL-48371  39.964  18.262   0.219
76112ION    CL-48372  26.683  11.031   0.083
76113ION    CL-48373  25.029  11.286   1.933
76114ION    CL-48374  35.026  21.523  13.384
76115ION    CL-48375   6.389   9.846   0.454
76116ION    CL-48376  28.725   5.427  10.798
76117ION    CL-48377  34.366  35.519   1.163
76118ION    CL-48378  19.148  13.973   0.240
76119ION    CL-48379  27.402  35.465  10.611
76120ION    CL-48380  19.210  11.122   1.181
76121ION    CL-48381  28.367  34.626   0.879
76122ION    CL-48382  33.450  36.343   2.583
76123ION    CL-48383  10.922  38.638  13.011
76124ION    CL-48384   6.199  17.714   4.113
76125ION    CL-48385  30.105  28.540   0.871
76126ION    CL-48386  23.104  40.276  12.914
76127ION    CL-48387  31.749  39.697   1.466
76128ION    CL-48388  44.094  12.497  11.249
76129ION    CL-48389  25.239  15.762   2.844
76130ION    CL-48390  20.581  17.631   2.943
76131ION    CL-48391   3.997  21.506   1.144
76132ION    CL-48392  20.480  21.273  11.925
76133ION    CL-48393  28.525  26.008   1.553
76134ION    CL-48394   3.042  23.869   3.563
76135ION    CL-48395  35.856  39.876  13.891
76136ION    CL-48396  18.597  43.195   1.659
76137ION    CL-48397  22.735  39.938  14.092
76138ION    CL-48398   3.747   2.853   3.535
76139ION    CL-48399  15.286  43.444  12.540
76140ION    CL-48400  38.572  37.951  13.775
76141ION    CL-48401  35.950   1.728  14.842
76142ION    CL-48402   4.234   8.051   4.544
76143ION    CL-48403  23.572   1.275  14.099
76144ION    CL-48404  16.798  43.978   2.128
76145ION    CL-48405  25.231  22.550   2.961
76146ION    CL-48406  35.099  23.965   2.701
76147ION    CL-48407  44.922  44.618   3.459
76148ION    CL-48408  30.271   4.986  12.535
76149ION    CL-48409  39.384  22.395  14.698
76150ION    CL-48410  15.528  36.024   4.972
76151ION    CL-48411  16.757  43.104  14.015
76152ION    CL-48412  18.088  15.534  12.914
76153ION    CL-48413  42.329  30.603  14.829
76154ION    CL-48414  17.117  10.827  10.130
76155ION    CL-48415  37.484  26.538   2.742
76156ION    CL-48416  31.037  24.708   0.821
76157ION    CL-48417   2.158  41.394   2.195
76158ION    CL-48418  38.981   9.213   5.470
76159ION    CL-48419  14.393  26.997   3.747
76160ION    CL-48420  28.203  39.617  14.223
76161ION    CL-48421  34.894  11.816   2.985
76162ION    CL-48422  12.146  37.336  14.886
76163ION    CL-48423  33.974  12.119   1.673
76164ION    CL-48424  44.768   4.717   1.046
76165ION    CL-48425  36.964  41.120   0.553
76166ION    CL-48426  11.495  29.729   3.557
76167ION    CL-48427  34.933  26.683  10.910
76168ION    CL-48428  31.137  16.775   4.846
76169ION    CL-48429   6.782  13.219  12.461
76170ION    CL-48430  41.077   9.808  11.870
76171ION    CL-48431  10.744  37.548  11.262
76172ION    CL-48432  37.270  36.697  10.243
76173ION    CL-48433  14.806   4.583  12.759
76174ION    CL-48434  34.591  30.279   4.937
76175ION    CL-48435   3.726  28.128   4.121
76176ION    CL-48436   6.374   6.337  11.103
76177ION    CL-48437  25.565   5.187   1.556
76178ION    CL-48438  16.623  14.253   2.166
76179ION    CL-48439  10.838  19.991   2.416
76180ION    CL-48440  28.632  44.605   1.150
76181ION    CL-48441   3.689   8.757  11.511
76182ION    CL-48442  40.915   5.225   2.861
76183ION    CL-48443  25.491  32.997  13.986
76184ION    CL-48444  37.718  16.323  13.818
76185ION    CL-48445  26.488   5.307  12.371
76186ION    CL-48446  32.977   8.793  14.558
76187ION    CL-48447  20.994  12.959   3.175
76188ION    CL-48448   3.211  29.931   3.773
76189ION    CL-48449  19.322  19.654  10.902
76190ION    CL-48450  13.245  16.027  12.234
76191ION    CL-48451  26.962   9.839  11.176
76192ION    CL-48452   9.199  30.908  10.659
76193ION    CL-48453   2.412  36.268   0.186
76194ION    CL-48454  30.158  20.847   4.550
76195ION    CL-48455  12.761  39.411  10.657
76196ION    CL-48456  29.325  43.413  13.699
76197ION    CL-48457  22.908  29.483  10.574
76198ION    CL-48458   6.089  31.140   0.577
76199ION    CL-48459  26.993  18.499  11.550
76200ION    CL-48460  33.550  11.021   0.872
76201ION    CL-48461  14.063  15.034   4.412
76202ION    CL-48462  18.245  17.314   0.533
76203ION    CL-48463  28.556  29.506  13.788
76204ION    CL-48464   0.122  18.263   4.140
76205ION    CL-48465  27.632  33.827   0.430
76206ION    CL-48466  26.219  18.267  13.492
76207ION    CL-48467  18.568  43.057  11.450
76208ION    CL-48468  14.797  18.713  12.551
76209ION    CL-48469  22.425  20.134   0.799
76210ION    CL-48470   6.158   0.533   2.179
76211ION    CL-48471  18.191   0.711  13.336
76212ION    CL-48472   9.375   4.071  13.231
76213ION    CL-48473  38.998  25.027  11.387
76214ION    CL-48474  41.761  33.864  14.077
76215ION    CL-48475  11.014   1.613   3.112
76216ION    CL-48476   2.474  16.937  12.007
76217ION    CL-48477  15.713  40.036   1.388
76218ION    CL-48478  36.874   5.689  13.011
76219ION    CL-48479  23.994  25.061   2.809
76220ION    CL-48480  44.158   3.642  11.592
76221ION    CL-48481   0.902  15.228  12.416
76222ION    CL-48482  22.474  29.971   2.537
76223ION    CL-48483  40.734  29.310  14.640
76224ION    CL-48484   3.012  34.377   5.038
76225ION    CL-48485  14.006  28.563  10.307
76226ION    CL-48486  27.126  22.963  11.598
76227ION    CL-48487  19.786   5.516   4.474
76228ION    CL-48488   0.528  23.649   4.161
76229ION    CL-48489   1.253   4.672  13.518
76230ION    CL-48490  18.489  12.659   1.821
76231ION    CL-48491   5.336  28.507  10.145
76232ION    CL-48492  18.243  11.281   0.810
76233ION    CL-48493  11.643  12.082  12.236
76234ION    CL-48494   0.132  37.610   0.908
76235ION    CL-48495  17.043  30.793   9.560
76236ION    CL-48496  20.676   8.339   3.812
76237ION    CL-48497  26.764  14.392   1.149
76238ION    CL-48498  44.015  41.289   4.687
76239ION    CL-48499   2.565   3.012   2.134
76240ION    CL-48500   1.764  42.809   3.631
76241ION    CL-48501  29.812  19.556   9.836
76242ION    CL-48502  32.698  16.555   1.541
76243ION    CL-48503  11.619   7.803  10.188
76244ION    CL-48504  24.665  14.698   0.030
76245ION    CL-48505  27.925  38.849   4.872
76246ION    CL-48506  27.891  24.175  13.961
76247ION    CL-48507  35.765  26.979  10.855
76248ION    CL-48508   1.403  26.263   0.581
76249ION    CL-48509  36.660   5.870   2.458
76250ION    CL-48510  28.174  31.678   2.221
76251ION    CL-48511   9.619   3.504   1.760
76252ION    CL-48512  22.676  23.377   1.580
76253ION    CL-48513   3.585  17.691   3.800
76254ION    CL-48514  17.118  18.801   5.040
76255ION    CL-48515  42.305   6.320  12.360
76256ION    CL-48516  32.173  33.678  12.627
76257ION    CL-48517  17.151  11.900  13.628
76258ION    CL-48518  14.555  12.676  14.266
76259ION    CL-48519  20.390  28.468  10.545
76260ION    CL-48520  33.252  38.297   3.626
76261ION    CL-48521   2.100  32.878  14.687
76262ION    CL-48522  13.309  40.272   0.468
76263ION    CL-48523  41.903  22.533   2.065
76264ION    CL-48524  29.214  35.636  14.082
76265ION    CL-48525  19.006  13.328   1.476
76266ION    CL-48526  16.495  10.367  13.803
76267ION    CL-48527  27.188  44.027   3.803
76268ION    CL-48528  12.230  31.843   2.916
76269ION    CL-48529   9.466  17.023   4.030
76270ION    CL-48530  11.696  32.981   0.735
76271ION    CL-48531  12.780   5.608  13.035
76272ION    CL-48532  13.490  34.235  12.696
76273ION    CL-48533  18.226  39.463   1.629
76274ION    CL-48534  18.087  19.338   1.259
76275ION    CL-48535  34.025   7.092  12.532
76276ION    CL-48536  19.254  37.574   1.310
76277ION    CL-48537  31.907  38.870  11.933
76278ION    CL-48538   0.555   5.004   1.629
76279ION    CL-48539  13.583  20.179  11.434
76280ION    CL-48540  18.368  30.931  10.442
76281ION    CL-48541  44.885  28.083  12.495
76282ION    CL-48542  44.390  19.407   9.941
76283ION    CL-48543  39.674   3.928  12.541
76284ION    CL-48544  29.363  18.324  11.937
76285ION    CL-48545  27.564  37.417   1.964
76286ION    CL-48546  42.741   0.333   2.720
76287ION    CL-48547  10.419  21.910   0.737
76288ION    CL-48548   9.910   2.494  13.489
76289ION    CL-48549  23.730  17.771   0.298
76290ION    CL-48550  21.810  21.028  12.609
76291ION    CL-48551  15.470  17.665  11.530
76292ION    CL-48552  11.777   8.325  11.793
76293ION    CL-48553  39.840  14.807   0.431
76294ION    CL-48554  15.554  38.133  13.582
76295ION    CL-48555  24.194  16.218   4.931
76296ION    CL-48556  23.063  44.075   4.734
76297ION    CL-48557  34.132  18.476  13.079
76298ION    CL-48558  35.944  32.991   1.832
76299ION    CL-48559  42.426   2.920  12.780
76300ION    CL-48560   4.457   4.322   0.310
76301ION    CL-48561  34.564   8.061  11.886
76302ION    CL-48562  40.281  19.574   2.523
76303ION    CL-48563   5.671   9.360  13.367
76304ION    CL-48564  44.533  13.327  12.454
76305ION    CL-48565  11.160  29.676  11.589
76306ION    CL-48566  20.517  18.703   4.298
76307ION    CL-48567   4.304  31.529  14.185
76308ION    CL-48568  36.377  19.053  12.939
76309ION    CL-48569  34.374  18.406   0.616
76310ION    CL-48570  25.740  36.124  11.147
76311ION    CL-48571  29.727   7.475  11.771
76312ION    CL-48572  32.948   0.186   0.834
76313ION    CL-48573  17.307  30.592  14.262
76314ION    CL-48574  28.186  20.720  11.924
76315ION    CL-48575   7.807  27.929   0.677
76316ION    CL-48576  33.479  16.837  11.129
76317ION    CL-48577   7.984   9.775   1.348
76318ION    CL-48578  39.484  29.400   2.792
76319ION    CL-48579  10.445  19.621   3.329
76320ION    CL-48580  40.604   8.874  14.259
76321ION    CL-48581  25.787   9.994  12.629
76322ION    CL-48582  11.373   5.061   0.608
76323ION    CL-48583  19.645  23.566  11.249
76324ION    CL-48584   5.045  22.765   4.219
76325ION    CL-48585  39.932  44.350  13.058
76326ION    CL-48586  10.131  16.337   0.193
76327ION    CL-48587  39.006  23.045   3.199
76328ION    CL-48588  34.615  18.428   1.909
76329ION    CL-48589  39.392   7.588  11.096
76330ION    CL-48590  40.175  18.818   2.027
76331ION    CL-48591  28.951   1.295   2.119
76332ION    CL-48592  21.049   6.941   4.210
76333ION    CL-48593  15.688  15.520   1.261
76334ION    CL-48594  20.605  40.746  14.682
76335ION    CL-48595  17.179  39.599  11.638
76336ION    CL-48596  19.258  20.484  11.194
76337ION    CL-48597  41.838  33.587   3.373
76338ION    CL-48598  26.965   7.722   1.665
76339ION    CL-48599  41.284  33.805  12.008
76340ION    CL-48600   9.150   4.606   5.052
76341ION    CL-48601   2.146  24.287   3.715
76342ION    CL-48602  15.034  31.759   0.850
76343ION    CL-48603  30.583  35.791  13.499
76344ION    CL-48604  38.031  27.947   4.901
76345ION    CL-48605  17.746  23.432  14.414
76346ION    CL-48606  17.396  31.179   2.998
76347ION    CL-48607  21.381  21.800  14.260
76348ION    CL-48608  27.137   9.324   4.169
76349ION    CL-48609  40.554  39.947  14.014
76350ION    CL-48610  16.209   8.649   1.148
76351ION    CL-48611  15.521  33.132   0.535
76352ION    CL-48612   7.353   2.713   1.746
76353ION    CL-48613   2.564  28.996   2.722
76354ION    CL-48614   2.302  14.974  13.836
76355ION    CL-48615  13.962  34.923  12.303
76356ION    CL-48616  38.680  13.239  11.478
76357ION    CL-48617  41.686  18.325   1.756
76358ION    CL-48618   9.599   4.969  14.325
76359ION    CL-48619  28.737   6.761   4.557
76360ION    CL-48620   0.449  30.388  13.861
76361ION    CL-48621  10.326   7.644   0.326
76362ION    CL-48622   6.870  12.211   2.471
76363ION    CL-48623   6.891  12.193  14.190
76364ION    CL-48624  42.460  29.721  12.380
76365ION    CL-48625  37.400  26.591   1.605
76366ION    CL-48626  19.776  13.372   0.416
76367ION    CL-48627  25.562  25.249  12.234
76368ION    CL-48628  17.088   3.770   1.871
76369ION    CL-48629   1.918   8.860   1.584
76370ION    CL-48630  40.516  19.350   1.229
76371ION    CL-48631  32.515   0.985  14.832
76372ION    CL-48632   6.260  11.309  11.602
76373ION    CL-48633   7.676  29.190  13.762
76374ION    CL-48634   4.565  43.307   2.435
76375ION    CL-48635  16.310  35.055  12.994
76376ION    CL-48636  24.926  10.905  13.335
76377ION    CL-48637  42.688   9.050  14.434
76378ION    CL-48638  39.751  38.107  13.636
76379ION    CL-48639  40.363  36.978   5.002
76380ION    CL-48640  35.180   7.018   5.180
76381ION    CL-48641  24.933   3.713   4.897
76382ION    CL-48642  30.305  19.494   0.747
76383ION    CL-48643   4.125   5.800   2.289
76384ION    CL-48644   5.740   8.118   1.806
76385ION    CL-48645  38.035  14.043  11.471
76386ION    CL-48646  24.692  19.168  11.192
76387ION    CL-48647  19.117  25.061   0.756
76388ION    CL-48648  10.348   5.394  14.867
76389ION    CL-48649   0.744   9.230  11.528
76390ION    CL-48650  32.564  10.978  14.950
76391ION    CL-48651  32.709  32.049  14.936
76392ION    CL-48652  35.646  19.583   2.665
76393ION    CL-48653  13.224  17.362  10.693
76394ION    CL-48654  15.940   6.214  14.220
76395ION    CL-48655  28.817  19.821   2.256
76396ION    CL-48656  26.128  26.274   1.283
76397ION    CL-48657  20.490  12.278  14.446
76398ION    CL-48658  13.012  27.400   1.368
76399ION    CL-48659  43.096  27.911  11.032
76400ION    CL-48660  14.233  41.912  12.538
76401ION    CL-48661  37.078  28.766  13.509
76402ION    CL-48662  23.776  19.345  11.632
76403ION    CL-48663   8.352   8.177   4.078
76404ION    CL-48664  27.382  27.615   3.863
76405ION    CL-48665  37.541   7.224  12.401
76406ION    CL-48666  31.306  43.445   2.071
76407ION    CL-48667  18.201  18.233   1.974
76408ION    CL-48668  10.351  15.573   1.155
76409ION    CL-48669  24.315   9.250   3.497
76410ION    CL-48670  30.930  14.913   3.585
76411ION    CL-48671  34.262  38.183   3.638
76412ION    CL-48672  17.346  40.188  12.903
76413ION    CL-48673  17.877   2.554   1.967
76414ION    CL-48674  26.984   0.842   4.162
76415ION    CL-48675  34.547  13.827  11.939
  45.00000  45.00000  15.00000
